/*--------------------------------*- C++ -*----------------------------------*\
| =========                 |                                                 |
| \\      /  F ield         | OpenFOAM: The Open Source CFD Toolbox           |
|  \\    /   O peration     | Version:  2.1.1                                 |
|   \\  /    A nd           | Web:      www.OpenFOAM.org                      |
|    \\/     M anipulation  |                                                 |
\*---------------------------------------------------------------------------*/
FoamFile
{
    version     2.0;
    format      ascii;
    class       volTensorField;
    location    "100";
    object      Taus;
}
// * * * * * * * * * * * * * * * * * * * * * * * * * * * * * * * * * * * * * //

dimensions      [0 2 -2 0 0 0 0];

internalField   nonuniform List<tensor> 
600
(
(0 0.00804436 0 0.00804436 -0.124884 0 0 0 0)
(0 0.0153715 0 0.0153715 -0.198427 0 0 0 0)
(0 0.0185264 0 0.0185264 -0.190212 0 0 0 0)
(0 0.0161456 0 0.0161456 -0.180935 0 0 0 0)
(-2.36584e-18 0.016195 0 0.016195 -0.182616 0 0 0 0)
(-4.80219e-18 0.0165318 0 0.0165318 -0.182836 0 0 0 0)
(-4.79269e-18 0.0164756 0 0.0164756 -0.181563 0 0 0 0)
(0 0.0164012 0 0.0164012 -0.180612 0 0 0 0)
(-4.70338e-18 0.016384 0 0.016384 -0.179853 0 0 0 0)
(0 0.0163591 0 0.0163591 -0.178999 0 0 0 0)
(-9.26816e-18 0.0163295 0 0.0163295 -0.17815 0 0 0 0)
(0 0.0162982 0 0.0162982 -0.177306 0 0 0 0)
(-9.11529e-18 0.0162609 0 0.0162609 -0.176418 0 0 0 0)
(0 0.0162296 0 0.0162296 -0.175583 0 0 0 0)
(0 0.0161923 0 0.0161923 -0.174704 0 0 0 0)
(0 0.0161535 0 0.0161535 -0.173831 0 0 0 0)
(0 0.0161163 0 0.0161163 -0.172962 0 0 0 0)
(-1.74337e-17 0.0160777 0 0.0160777 -0.172098 0 0 0 0)
(0 0.0160304 0 0.0160304 -0.171193 0 0 0 0)
(0 0.0159847 0 0.0159847 -0.170293 0 0 0 0)
(0 0.0159451 0 0.0159451 -0.169443 0 0 0 0)
(-1.67087e-17 0.0158925 0 0.0158925 -0.168508 0 0 0 0)
(0 0.015846 0 0.015846 -0.167623 0 0 0 0)
(0 0.0158012 0 0.0158012 -0.166742 0 0 0 0)
(0 0.015748 0 0.015748 -0.165822 0 0 0 0)
(-1.60795e-17 0.0156937 0 0.0156937 -0.164908 0 0 0 0)
(0 0.0156412 0 0.0156412 -0.163999 0 0 0 0)
(0 0.0155906 0 0.0155906 -0.163095 0 0 0 0)
(0 0.015539 0 0.015539 -0.162196 0 0 0 0)
(0 0.0154793 0 0.0154793 -0.16126 0 0 0 0)
(0 0.0154187 0 0.0154187 -0.16033 0 0 0 0)
(0 0.0153601 0 0.0153601 -0.159406 0 0 0 0)
(0 0.0153007 0 0.0153007 -0.158487 0 0 0 0)
(0 0.0152364 0 0.0152364 -0.157531 0 0 0 0)
(0 0.0151782 0 0.0151782 -0.156624 0 0 0 0)
(2.96638e-17 0.0151153 0 0.0151153 -0.15568 0 0 0 0)
(0 0.0150489 0 0.0150489 -0.154743 0 0 0 0)
(0 0.0149779 0 0.0149779 -0.153771 0 0 0 0)
(0 0.0149131 0 0.0149131 -0.152847 0 0 0 0)
(0 0.0148438 0 0.0148438 -0.151887 0 0 0 0)
(0 0.014774 0 0.014774 -0.150934 0 0 0 0)
(0 0.0147037 0 0.0147037 -0.149988 0 0 0 0)
(2.78263e-17 0.0146291 0 0.0146291 -0.149008 0 0 0 0)
(0 0.0145608 0 0.0145608 -0.148074 0 0 0 0)
(0 0.0144883 0 0.0144883 -0.147107 0 0 0 0)
(0 0.0144129 0 0.0144129 -0.146148 0 0 0 0)
(0 0.0143334 0 0.0143334 -0.145156 0 0 0 0)
(0 0.0142602 0 0.0142602 -0.14421 0 0 0 0)
(0 0.0141832 0 0.0141832 -0.143232 0 0 0 0)
(0 0.0141034 0 0.0141034 -0.142262 0 0 0 0)
(2.58815e-17 0.0140199 0 0.0140199 -0.141262 0 0 0 0)
(0 0.0139428 0 0.0139428 -0.140305 0 0 0 0)
(0 0.0138619 0 0.0138619 -0.139319 0 0 0 0)
(0 0.0137813 0 0.0137813 -0.13834 0 0 0 0)
(0 0.0137008 0 0.0137008 -0.137368 0 0 0 0)
(0 0.0136143 0 0.0136143 -0.136368 0 0 0 0)
(0 0.0135282 0 0.0135282 -0.135376 0 0 0 0)
(0 0.0134449 0 0.0134449 -0.13439 0 0 0 0)
(0 0.013362 0 0.013362 -0.133413 0 0 0 0)
(0 0.0132735 0 0.0132735 -0.132408 0 0 0 0)
(0 0.0131856 0 0.0131856 -0.131412 0 0 0 0)
(0 0.0130982 0 0.0130982 -0.130424 0 0 0 0)
(0 0.013008 0 0.013008 -0.129409 0 0 0 0)
(0 0.0129219 0 0.0129219 -0.128437 0 0 0 0)
(0 0.0128272 0 0.0128272 -0.127405 0 0 0 0)
(0 0.0127368 0 0.0127368 -0.126416 0 0 0 0)
(0 0.0126438 0 0.0126438 -0.125402 0 0 0 0)
(0 0.0125516 0 0.0125516 -0.124396 0 0 0 0)
(0 0.0124626 0 0.0124626 -0.123398 0 0 0 0)
(0 0.0123745 0 0.0123745 -0.122408 0 0 0 0)
(0 0.0122819 0 0.0122819 -0.121395 0 0 0 0)
(0 0.0121882 0 0.0121882 -0.120392 0 0 0 0)
(0 0.0120903 0 0.0120903 -0.119366 0 0 0 0)
(0 0.0119936 0 0.0119936 -0.11835 0 0 0 0)
(0 0.0118982 0 0.0118982 -0.117343 0 0 0 0)
(0 0.011801 0 0.011801 -0.116314 0 0 0 0)
(0 0.0117082 0 0.0117082 -0.115325 0 0 0 0)
(0 0.0116086 0 0.0116086 -0.114285 0 0 0 0)
(0 0.0115135 0 0.0115135 -0.113284 0 0 0 0)
(0 0.011417 0 0.011417 -0.112263 0 0 0 0)
(0 0.0113199 0 0.0113199 -0.111253 0 0 0 0)
(0 0.0112196 0 0.0112196 -0.110223 0 0 0 0)
(0 0.011121 0 0.011121 -0.109203 0 0 0 0)
(0 0.0110242 0 0.0110242 -0.108193 0 0 0 0)
(0 0.0109243 0 0.0109243 -0.107165 0 0 0 0)
(0 0.0108245 0 0.0108245 -0.106147 0 0 0 0)
(0 0.0107219 0 0.0107219 -0.105113 0 0 0 0)
(0 0.0106214 0 0.0106214 -0.104089 0 0 0 0)
(0 0.010523 0 0.010523 -0.103075 0 0 0 0)
(0 0.0104221 0 0.0104221 -0.102046 0 0 0 0)
(0 0.0103216 0 0.0103216 -0.101027 0 0 0 0)
(0 0.0102189 0 0.0102189 -0.0999932 0 0 0 0)
(0 0.0101168 0 0.0101168 -0.0989709 0 0 0 0)
(0 0.0100127 0 0.0100127 -0.0979341 0 0 0 0)
(0 0.00991109 0 0.00991109 -0.0969084 0 0 0 0)
(0 0.00981206 0 0.00981206 -0.0958937 0 0 0 0)
(0 0.00971133 0 0.00971133 -0.0948655 0 0 0 0)
(0 0.00961157 0 0.00961157 -0.0938491 0 0 0 0)
(0 0.00950869 0 0.00950869 -0.0928206 0 0 0 0)
(0 0.00940285 0 0.00940285 -0.0917807 0 0 0 0)
(0 0.00930001 0 0.00930001 -0.0907527 0 0 0 0)
(0 0.00920019 0 0.00920019 -0.0897363 0 0 0 0)
(0 0.00909776 0 0.00909776 -0.0887094 0 0 0 0)
(0 0.0089929 0 0.0089929 -0.0876726 0 0 0 0)
(0 0.00889131 0 0.00889131 -0.0866481 0 0 0 0)
(0 0.00879144 0 0.00879144 -0.0856361 0 0 0 0)
(0 0.00868724 0 0.00868724 -0.0845931 0 0 0 0)
(0 0.00858723 0 0.00858723 -0.083585 0 0 0 0)
(0 0.00848327 0 0.00848327 -0.0825471 0 0 0 0)
(0 0.00838142 0 0.00838142 -0.0815226 0 0 0 0)
(0 0.00828326 0 0.00828326 -0.0805108 0 0 0 0)
(0 0.00818375 0 0.00818375 -0.079492 0 0 0 0)
(0 0.00808165 0 0.00808165 -0.0784672 0 0 0 0)
(0 0.0079786 0 0.0079786 -0.0774365 0 0 0 0)
(0 0.0078782 0 0.0078782 -0.0764197 0 0 0 0)
(0 0.00777849 0 0.00777849 -0.0753973 0 0 0 0)
(0 0.0076802 0 0.0076802 -0.0743894 0 0 0 0)
(0 0.00757818 0 0.00757818 -0.0733583 0 0 0 0)
(0 0.0074792 0 0.0074792 -0.0723419 0 0 0 0)
(0 0.00738334 0 0.00738334 -0.0713398 0 0 0 0)
(0 0.0072843 0 0.0072843 -0.0703165 0 0 0 0)
(0 0.00718732 0 0.00718732 -0.0693086 0 0 0 0)
(0 0.0070907 0 0.0070907 -0.0682982 0 0 0 0)
(0 0.00699335 0 0.00699335 -0.0672862 0 0 0 0)
(0 0.00689666 0 0.00689666 -0.0662729 0 0 0 0)
(0 0.00680256 0 0.00680256 -0.0652753 0 0 0 0)
(0 0.0067065 0 0.0067065 -0.0642607 0 0 0 0)
(0 0.00661328 0 0.00661328 -0.0632623 0 0 0 0)
(0 0.00652134 0 0.00652134 -0.0622639 0 0 0 0)
(0 0.00642857 0 0.00642857 -0.0612667 0 0 0 0)
(0 0.00633358 0 0.00633358 -0.0602558 0 0 0 0)
(0 0.00624202 0 0.00624202 -0.0592618 0 0 0 0)
(0 0.00615241 0 0.00615241 -0.0582696 0 0 0 0)
(0 0.00606383 0 0.00606383 -0.05728 0 0 0 0)
(0 0.00597545 0 0.00597545 -0.0562937 0 0 0 0)
(0 0.00588496 0 0.00588496 -0.0552974 0 0 0 0)
(0 0.00579616 0 0.00579616 -0.0543053 0 0 0 0)
(0 0.0057107 0 0.0057107 -0.0533313 0 0 0 0)
(0 0.00562244 0 0.00562244 -0.052336 0 0 0 0)
(0 0.00553693 0 0.00553693 -0.0513597 0 0 0 0)
(0 0.00545156 0 0.00545156 -0.0503766 0 0 0 0)
(0 0.00536796 0 0.00536796 -0.0494001 0 0 0 0)
(0 0.00528637 0 0.00528637 -0.0484307 0 0 0 0)
(0 0.00520389 0 0.00520389 -0.0474571 0 0 0 0)
(0 0.00512088 0 0.00512088 -0.0464804 0 0 0 0)
(0 0.0050398 0 0.0050398 -0.0455127 0 0 0 0)
(0 0.00495881 0 0.00495881 -0.0445433 0 0 0 0)
(0 0.00487823 0 0.00487823 -0.0435732 0 0 0 0)
(0 0.00480044 0 0.00480044 -0.0426134 0 0 0 0)
(0 0.00472372 0 0.00472372 -0.0416542 0 0 0 0)
(0 0.00464681 0 0.00464681 -0.0406967 0 0 0 0)
(0 0.00456899 0 0.00456899 -0.039732 0 0 0 0)
(0 0.00449371 0 0.00449371 -0.0387806 0 0 0 0)
(0 0.00441836 0 0.00441836 -0.0378239 0 0 0 0)
(0 0.00434447 0 0.00434447 -0.0368724 0 0 0 0)
(0 0.00427247 0 0.00427247 -0.0359268 0 0 0 0)
(0 0.00420034 0 0.00420034 -0.0349796 0 0 0 0)
(0 0.00412859 0 0.00412859 -0.0340321 0 0 0 0)
(0 0.00405881 0 0.00405881 -0.0330935 0 0 0 0)
(0 0.00398885 0 0.00398885 -0.0321488 0 0 0 0)
(0 0.00392129 0 0.00392129 -0.0312151 0 0 0 0)
(0 0.00385353 0 0.00385353 -0.0302784 0 0 0 0)
(0 0.00378559 0 0.00378559 -0.0293405 0 0 0 0)
(0 0.00371978 0 0.00371978 -0.0284099 0 0 0 0)
(0 0.00365531 0 0.00365531 -0.0274807 0 0 0 0)
(0 0.00359174 0 0.00359174 -0.0265548 0 0 0 0)
(0 0.00352847 0 0.00352847 -0.0256276 0 0 0 0)
(0 0.00346727 0 0.00346727 -0.024707 0 0 0 0)
(0 0.00340658 0 0.00340658 -0.0237888 0 0 0 0)
(0 0.0033441 0 0.0033441 -0.0228644 0 0 0 0)
(0 0.0032827 0 0.0032827 -0.0219472 0 0 0 0)
(0 0.00322103 0 0.00322103 -0.0210286 0 0 0 0)
(0 0.00315965 0 0.00315965 -0.0201114 0 0 0 0)
(0 0.00309943 0 0.00309943 -0.0191981 0 0 0 0)
(0 0.00303928 0 0.00303928 -0.0182824 0 0 0 0)
(0 0.00297892 0 0.00297892 -0.0173682 0 0 0 0)
(0 0.00291247 0 0.00291247 -0.0164406 0 0 0 0)
(0 0.00283463 0 0.00283463 -0.0154932 0 0 0 0)
(0 0.00274106 0 0.00274106 -0.0145189 0 0 0 0)
(0 0.0026276 0 0.0026276 -0.0135009 0 0 0 0)
(0 0.00250762 0 0.00250762 -0.0124283 0 0 0 0)
(0 0.00244542 0 0.00244542 -0.011318 0 0 0 0)
(0 0.00257235 0 0.00257235 -0.010187 0 0 0 0)
(0 0.00235223 0 0.00235223 -0.00915989 0 0 0 0)
(0 0.00138538 0 0.00138538 -0.00719796 0 0 0 0)
(0 0.001184 0 0.001184 -0.00569571 0 0 0 0)
(0 0.0015097 0 0.0015097 -0.00595416 0 0 0 0)
(0 0.00169202 0 0.00169202 -0.00490912 0 0 0 0)
(0 0.00162251 0 0.00162251 -0.0039851 0 0 0 0)
(0 0.0017694 0 0.0017694 -0.00294089 0 0 0 0)
(0 0.00216839 0 0.00216839 -0.00108691 0 0 0 0)
(0 0.00194582 0 0.00194582 0.00026251 0 0 0 0)
(0 0.00106953 0 0.00106953 4.12774e-06 0 0 0 0)
(0 0.00125761 0 0.00125761 5.25255e-07 0 0 0 0)
(0 0.0014928 0 0.0014928 -2.15663e-06 0 0 0 0)
(0 0.00130094 0 0.00130094 -5.47397e-07 0 0 0 0)
(0 0.00112391 0 0.00112391 1.91414e-07 0 0 0 0)
(0 0.000988499 0 0.000988499 -1.40645e-08 0 0 0 0)
(0 0.00088115 0 0.00088115 1.51474e-08 0 0 0 0)
(0 0.000803638 0 0.000803638 8.90956e-10 0 0 0 0)
(0 0.000742611 0 0.000742611 3.88167e-09 0 0 0 0)
(0 0.000694533 0 0.000694533 5.10448e-09 0 0 0 0)
(0 0.000656593 0 0.000656593 5.06781e-09 0 0 0 0)
(0 0.000626637 0 0.000626637 4.22081e-09 0 0 0 0)
(0 0.000603037 0 0.000603037 3.56306e-09 0 0 0 0)
(0 0.000584549 0 0.000584549 3.44004e-09 0 0 0 0)
(0 0.000570215 0 0.000570215 3.72627e-09 0 0 0 0)
(0 0.000559285 0 0.000559285 4.19484e-09 0 0 0 0)
(0 0.000551169 0 0.000551169 4.68649e-09 0 0 0 0)
(0 0.000545394 0 0.000545394 5.12588e-09 0 0 0 0)
(0 0.000541585 0 0.000541585 5.49355e-09 0 0 0 0)
(0 0.000539435 0 0.000539435 5.79613e-09 0 0 0 0)
(0 0.000538694 0 0.000538694 6.04818e-09 0 0 0 0)
(0 0.00053916 0 0.00053916 6.26443e-09 0 0 0 0)
(0 0.000540661 0 0.000540661 6.45736e-09 0 0 0 0)
(0 0.000543059 0 0.000543059 6.63675e-09 0 0 0 0)
(0 0.000546237 0 0.000546237 6.80976e-09 0 0 0 0)
(0 0.000550097 0 0.000550097 6.9812e-09 0 0 0 0)
(0 0.000554556 0 0.000554556 7.15382e-09 0 0 0 0)
(0 0.000559544 0 0.000559544 7.32876e-09 0 0 0 0)
(0 0.000565004 0 0.000565004 7.50614e-09 0 0 0 0)
(0 0.000570883 0 0.000570883 7.68544e-09 0 0 0 0)
(0 0.000577141 0 0.000577141 7.86593e-09 0 0 0 0)
(0 0.000583739 0 0.000583739 8.04693e-09 0 0 0 0)
(0 0.000590646 0 0.000590646 8.2279e-09 0 0 0 0)
(0 0.000597836 0 0.000597836 8.40856e-09 0 0 0 0)
(0 0.000605284 0 0.000605284 8.58885e-09 0 0 0 0)
(0 0.000612971 0 0.000612971 8.76891e-09 0 0 0 0)
(0 0.000620879 0 0.000620879 8.94907e-09 0 0 0 0)
(0 0.000628993 0 0.000628993 9.12977e-09 0 0 0 0)
(0 0.000637298 0 0.000637298 9.31152e-09 0 0 0 0)
(0 0.000645785 0 0.000645785 9.49491e-09 0 0 0 0)
(0 0.000654442 0 0.000654442 9.68055e-09 0 0 0 0)
(0 0.000663261 0 0.000663261 9.86905e-09 0 0 0 0)
(0 0.000672235 0 0.000672235 1.0061e-08 0 0 0 0)
(0 0.000681355 0 0.000681355 1.02568e-08 0 0 0 0)
(0 0.000690616 0 0.000690616 1.04572e-08 0 0 0 0)
(0 0.000700013 0 0.000700013 1.06625e-08 0 0 0 0)
(0 0.000709541 0 0.000709541 1.08732e-08 0 0 0 0)
(0 0.000719195 0 0.000719195 1.10895e-08 0 0 0 0)
(0 0.000728972 0 0.000728972 1.1312e-08 0 0 0 0)
(0 0.000738869 0 0.000738869 1.15408e-08 0 0 0 0)
(0 0.000748881 0 0.000748881 1.17761e-08 0 0 0 0)
(0 0.000759007 0 0.000759007 1.20184e-08 0 0 0 0)
(0 0.000769244 0 0.000769244 1.22677e-08 0 0 0 0)
(0 0.000779589 0 0.000779589 1.25244e-08 0 0 0 0)
(0 0.000790039 0 0.000790039 1.27887e-08 0 0 0 0)
(0 0.000800593 0 0.000800593 1.3061e-08 0 0 0 0)
(0 0.000811248 0 0.000811248 1.33415e-08 0 0 0 0)
(0 0.000822003 0 0.000822003 1.36307e-08 0 0 0 0)
(0 0.000832854 0 0.000832854 1.39291e-08 0 0 0 0)
(0 0.0008438 0 0.0008438 1.4237e-08 0 0 0 0)
(0 0.00085484 0 0.00085484 1.45551e-08 0 0 0 0)
(0 0.000865969 0 0.000865969 1.48841e-08 0 0 0 0)
(0 0.000877187 0 0.000877187 1.52246e-08 0 0 0 0)
(0 0.000888491 0 0.000888491 1.55776e-08 0 0 0 0)
(0 0.000899877 0 0.000899877 1.59439e-08 0 0 0 0)
(0 0.000911345 0 0.000911345 1.63245e-08 0 0 0 0)
(0 0.00092289 0 0.00092289 1.67205e-08 0 0 0 0)
(0 0.00093451 0 0.00093451 1.71332e-08 0 0 0 0)
(0 0.000946201 0 0.000946201 1.75637e-08 0 0 0 0)
(0 0.00095796 0 0.00095796 1.80135e-08 0 0 0 0)
(0 0.000969784 0 0.000969784 1.8484e-08 0 0 0 0)
(0 0.000981668 0 0.000981668 1.89768e-08 0 0 0 0)
(0 0.000993608 0 0.000993608 1.94935e-08 0 0 0 0)
(0 0.0010056 0 0.0010056 2.0036e-08 0 0 0 0)
(0 0.00101764 0 0.00101764 2.0606e-08 0 0 0 0)
(0 0.00102972 0 0.00102972 2.12054e-08 0 0 0 0)
(0 0.00104183 0 0.00104183 2.18364e-08 0 0 0 0)
(0 0.00105398 0 0.00105398 2.25009e-08 0 0 0 0)
(0 0.00106614 0 0.00106614 2.32013e-08 0 0 0 0)
(0 0.00107833 0 0.00107833 2.39397e-08 0 0 0 0)
(0 0.00109052 0 0.00109052 2.47186e-08 0 0 0 0)
(0 0.00110271 0 0.00110271 2.55403e-08 0 0 0 0)
(0 0.0011149 0 0.0011149 2.64075e-08 0 0 0 0)
(0 0.00112707 0 0.00112707 2.73227e-08 0 0 0 0)
(0 0.00113921 0 0.00113921 2.82885e-08 0 0 0 0)
(0 0.00115132 0 0.00115132 2.93078e-08 0 0 0 0)
(0 0.00116338 0 0.00116338 3.03833e-08 0 0 0 0)
(0 0.00117538 0 0.00117538 3.15179e-08 0 0 0 0)
(0 0.00118732 0 0.00118732 3.27145e-08 0 0 0 0)
(0 0.00119916 0 0.00119916 3.39761e-08 0 0 0 0)
(0 0.00121092 0 0.00121092 3.53056e-08 0 0 0 0)
(0 0.00122256 0 0.00122256 3.67061e-08 0 0 0 0)
(0 0.00123408 0 0.00123408 3.81806e-08 0 0 0 0)
(0 0.00124545 0 0.00124545 3.97321e-08 0 0 0 0)
(0 0.00125667 0 0.00125667 4.13638e-08 0 0 0 0)
(0 0.00126772 0 0.00126772 4.30785e-08 0 0 0 0)
(0 0.00127857 0 0.00127857 4.48794e-08 0 0 0 0)
(0 0.00128921 0 0.00128921 4.67693e-08 0 0 0 0)
(0 0.00129962 0 0.00129962 4.87512e-08 0 0 0 0)
(0 0.00130978 0 0.00130978 5.08277e-08 0 0 0 0)
(0 0.00131967 0 0.00131967 5.30016e-08 0 0 0 0)
(0 0.00132927 0 0.00132927 5.52755e-08 0 0 0 0)
(0 0.00133854 0 0.00133854 5.76518e-08 0 0 0 0)
(0 0.00134748 0 0.00134748 6.01326e-08 0 0 0 0)
(0 0.00135606 0 0.00135606 6.27201e-08 0 0 0 0)
(0 0.00136425 0 0.00136425 6.54159e-08 0 0 0 0)
(0 0.00137202 0 0.00137202 6.82217e-08 0 0 0 0)
(0 0.00137936 0 0.00137936 7.11387e-08 0 0 0 0)
(0 0.00138623 0 0.00138623 7.41678e-08 0 0 0 0)
(0 0.00139261 0 0.00139261 7.73095e-08 0 0 0 0)
(0 0.00139848 0 0.00139848 8.05641e-08 0 0 0 0)
(0 0.0014038 0 0.0014038 8.39314e-08 0 0 0 0)
(0 0.00140855 0 0.00140855 8.74106e-08 0 0 0 0)
(0 0.0014127 0 0.0014127 9.10007e-08 0 0 0 0)
(0 0.00141623 0 0.00141623 9.47e-08 0 0 0 0)
(0 0.0014191 0 0.0014191 9.85064e-08 0 0 0 0)
(0 0.0014213 0 0.0014213 1.02417e-07 0 0 0 0)
(0 0.00142279 0 0.00142279 1.06429e-07 0 0 0 0)
(0 0.00142356 0 0.00142356 1.10539e-07 0 0 0 0)
(0 0.00142357 0 0.00142357 1.14741e-07 0 0 0 0)
(0 0.00142281 0 0.00142281 1.19031e-07 0 0 0 0)
(0 0.00142125 0 0.00142125 1.23404e-07 0 0 0 0)
(0 0.00141886 0 0.00141886 1.27854e-07 0 0 0 0)
(0 0.00141564 0 0.00141564 1.32372e-07 0 0 0 0)
(0 0.00141156 0 0.00141156 1.36954e-07 0 0 0 0)
(0 0.0014066 0 0.0014066 1.41589e-07 0 0 0 0)
(0 0.00140075 0 0.00140075 1.46272e-07 0 0 0 0)
(0 0.001394 0 0.001394 1.50992e-07 0 0 0 0)
(0 0.00138633 0 0.00138633 1.5574e-07 0 0 0 0)
(0 0.00137773 0 0.00137773 1.60508e-07 0 0 0 0)
(0 0.00136819 0 0.00136819 1.65285e-07 0 0 0 0)
(0 0.00135771 0 0.00135771 1.70062e-07 0 0 0 0)
(0 0.00134628 0 0.00134628 1.74828e-07 0 0 0 0)
(0 0.0013339 0 0.0013339 1.79573e-07 0 0 0 0)
(0 0.00132057 0 0.00132057 1.84288e-07 0 0 0 0)
(0 0.00130628 0 0.00130628 1.88962e-07 0 0 0 0)
(0 0.00129105 0 0.00129105 1.93585e-07 0 0 0 0)
(0 0.00127486 0 0.00127486 1.98148e-07 0 0 0 0)
(0 0.00125774 0 0.00125774 2.02642e-07 0 0 0 0)
(0 0.00123967 0 0.00123967 2.07057e-07 0 0 0 0)
(0 0.00122068 0 0.00122068 2.11385e-07 0 0 0 0)
(0 0.00120076 0 0.00120076 2.15619e-07 0 0 0 0)
(0 0.00117993 0 0.00117993 2.19751e-07 0 0 0 0)
(0 0.00115819 0 0.00115819 2.23774e-07 0 0 0 0)
(0 0.00113555 0 0.00113555 2.27683e-07 0 0 0 0)
(0 0.00111202 0 0.00111202 2.31472e-07 0 0 0 0)
(0 0.00108761 0 0.00108761 2.35137e-07 0 0 0 0)
(0 0.00106233 0 0.00106233 2.38675e-07 0 0 0 0)
(0 0.00103619 0 0.00103619 2.42081e-07 0 0 0 0)
(0 0.00100918 0 0.00100918 2.45354e-07 0 0 0 0)
(0 0.000981324 0 0.000981324 2.48492e-07 0 0 0 0)
(-1.19577e-16 0.000952617 0 0.000952617 2.51495e-07 0 0 0 0)
(0 0.000923064 0 0.000923064 2.54362e-07 0 0 0 0)
(0 0.000892666 0 0.000892666 2.57094e-07 0 0 0 0)
(0 0.000861424 0 0.000861424 2.59692e-07 0 0 0 0)
(0 0.000829335 0 0.000829335 2.62158e-07 0 0 0 0)
(0 0.000796395 0 0.000796395 2.64493e-07 0 0 0 0)
(0 0.000762599 0 0.000762599 2.66701e-07 0 0 0 0)
(0 0.000727938 0 0.000727938 2.68784e-07 0 0 0 0)
(0 0.000692402 0 0.000692402 2.70745e-07 0 0 0 0)
(0 0.000655979 0 0.000655979 2.72588e-07 0 0 0 0)
(0 0.000618654 0 0.000618654 2.74317e-07 0 0 0 0)
(0 0.00058041 0 0.00058041 2.75936e-07 0 0 0 0)
(0 0.000541229 0 0.000541229 2.77449e-07 0 0 0 0)
(0 0.000501088 0 0.000501088 2.78858e-07 0 0 0 0)
(0 0.000459966 0 0.000459966 2.8017e-07 0 0 0 0)
(0 0.000417834 0 0.000417834 2.81386e-07 0 0 0 0)
(0 0.000374667 0 0.000374667 2.82511e-07 0 0 0 0)
(0 0.000330433 0 0.000330433 2.8355e-07 0 0 0 0)
(0 0.000285101 0 0.000285101 2.84504e-07 0 0 0 0)
(0 0.000238636 0 0.000238636 2.85378e-07 0 0 0 0)
(0 0.000191002 0 0.000191002 2.86165e-07 0 0 0 0)
(0 0.000142162 0 0.000142162 2.86855e-07 0 0 0 0)
(0 9.20738e-05 0 9.20738e-05 2.87483e-07 0 0 0 0)
(0 4.06972e-05 0 4.06972e-05 2.88422e-07 0 0 0 0)
(0 -1.18388e-05 0 -1.18388e-05 2.88417e-07 0 0 0 0)
(0 -6.58477e-05 0 -6.58477e-05 2.88745e-07 0 0 0 0)
(0 -0.000121517 0 -0.000121517 2.89695e-07 0 0 0 0)
(0 -0.000178552 0 -0.000178552 2.89699e-07 0 0 0 0)
(0 -0.000237042 0 -0.000237042 2.89865e-07 0 0 0 0)
(0 -0.000297105 0 -0.000297105 2.90042e-07 0 0 0 0)
(0 -0.000358791 0 -0.000358791 2.90127e-07 0 0 0 0)
(0 -0.000422156 0 -0.000422156 2.90122e-07 0 0 0 0)
(0 -0.000487252 0 -0.000487252 2.90037e-07 0 0 0 0)
(0 -0.000554137 0 -0.000554137 2.89871e-07 0 0 0 0)
(0 -0.000622867 0 -0.000622867 2.89618e-07 0 0 0 0)
(0 -0.000693498 0 -0.000693498 2.89275e-07 0 0 0 0)
(0 -0.000766091 0 -0.000766091 2.88836e-07 0 0 0 0)
(0 -0.000840704 0 -0.000840704 2.88296e-07 0 0 0 0)
(0 -0.000917398 0 -0.000917398 2.87648e-07 0 0 0 0)
(0 -0.000996233 0 -0.000996233 2.86886e-07 0 0 0 0)
(0 -0.00107727 0 -0.00107727 2.86004e-07 0 0 0 0)
(0 -0.00116057 0 -0.00116057 2.84992e-07 0 0 0 0)
(0 -0.00124621 0 -0.00124621 2.83845e-07 0 0 0 0)
(0 -0.00133423 0 -0.00133423 2.82552e-07 0 0 0 0)
(0 -0.0014247 0 -0.0014247 2.81105e-07 0 0 0 0)
(0 -0.0015177 0 -0.0015177 2.79495e-07 0 0 0 0)
(0 -0.00161327 0 -0.00161327 2.77711e-07 0 0 0 0)
(0 -0.00171149 0 -0.00171149 2.75744e-07 0 0 0 0)
(0 -0.00181242 0 -0.00181242 2.73582e-07 0 0 0 0)
(0 -0.00191612 0 -0.00191612 2.71214e-07 0 0 0 0)
(0 -0.00202266 0 -0.00202266 2.68629e-07 0 0 0 0)
(0 -0.00213209 0 -0.00213209 2.65814e-07 0 0 0 0)
(0 -0.00224449 0 -0.00224449 2.62757e-07 0 0 0 0)
(0 -0.00235992 0 -0.00235992 2.59446e-07 0 0 0 0)
(0 -0.00247843 0 -0.00247843 2.55867e-07 0 0 0 0)
(0 -0.00260009 0 -0.00260009 2.52005e-07 0 0 0 0)
(0 -0.00272496 0 -0.00272496 2.47848e-07 0 0 0 0)
(0 -0.00285309 0 -0.00285309 2.43378e-07 0 0 0 0)
(0 -0.00298454 0 -0.00298454 2.38582e-07 0 0 0 0)
(0 -0.00311937 0 -0.00311937 2.33443e-07 0 0 0 0)
(0 -0.00325764 0 -0.00325764 2.27944e-07 0 0 0 0)
(0 -0.00339939 0 -0.00339939 2.22067e-07 0 0 0 0)
(0 -0.00354467 0 -0.00354467 2.15793e-07 0 0 0 0)
(0 -0.00369353 0 -0.00369353 2.09104e-07 0 0 0 0)
(0 -0.00384602 0 -0.00384602 2.01978e-07 0 0 0 0)
(0 -0.00400217 0 -0.00400217 1.94393e-07 0 0 0 0)
(0 -0.00416202 0 -0.00416202 1.86328e-07 0 0 0 0)
(0 -0.00432561 0 -0.00432561 1.77758e-07 0 0 0 0)
(0 -0.00449297 0 -0.00449297 1.68656e-07 0 0 0 0)
(0 -0.00466411 0 -0.00466411 1.58997e-07 0 0 0 0)
(0 -0.00483906 0 -0.00483906 1.48752e-07 0 0 0 0)
(0 -0.00501783 0 -0.00501783 1.37889e-07 0 0 0 0)
(0 -0.00520042 0 -0.00520042 1.26378e-07 0 0 0 0)
(0 -0.00538684 0 -0.00538684 1.14183e-07 0 0 0 0)
(0 -0.00557708 0 -0.00557708 1.01268e-07 0 0 0 0)
(0 -0.00577112 0 -0.00577112 8.75955e-08 0 0 0 0)
(0 -0.00596893 0 -0.00596893 7.31232e-08 0 0 0 0)
(0 -0.00617049 0 -0.00617049 5.78071e-08 0 0 0 0)
(0 -0.00637574 0 -0.00637574 4.16005e-08 0 0 0 0)
(0 -0.00658463 0 -0.00658463 2.44522e-08 0 0 0 0)
(0 -0.00679709 0 -0.00679709 6.30821e-09 0 0 0 0)
(0 -0.00701303 0 -0.00701303 -1.28922e-08 0 0 0 0)
(0 -0.00723236 0 -0.00723236 -3.32119e-08 0 0 0 0)
(0 -0.00745497 0 -0.00745497 -5.47256e-08 0 0 0 0)
(0 -0.00768072 0 -0.00768072 -7.75075e-08 0 0 0 0)
(0 -0.00790946 0 -0.00790946 -1.01654e-07 0 0 0 0)
(0 -0.00814104 0 -0.00814104 -1.27252e-07 0 0 0 0)
(0 -0.00837526 0 -0.00837526 -1.54434e-07 0 0 0 0)
(0 -0.0086119 0 -0.0086119 -1.83303e-07 0 0 0 0)
(0 -0.00885075 0 -0.00885075 -2.14046e-07 0 0 0 0)
(0 -0.00909153 0 -0.00909153 -2.46778e-07 0 0 0 0)
(0 -0.00933396 0 -0.00933396 -2.81782e-07 0 0 0 0)
(0 -0.00957773 0 -0.00957773 -3.19168e-07 0 0 0 0)
(0 -0.00982248 0 -0.00982248 -3.5939e-07 0 0 0 0)
(0 -0.0100678 0 -0.0100678 -4.02506e-07 0 0 0 0)
(0 -0.0103134 0 -0.0103134 -4.49302e-07 0 0 0 0)
(0 -0.0105587 0 -0.0105587 -4.9967e-07 0 0 0 0)
(0 -0.0108033 0 -0.0108033 -5.55045e-07 0 0 0 0)
(0 -0.0110465 0 -0.0110465 -6.1486e-07 0 0 0 0)
(0 -0.011288 0 -0.011288 -6.81776e-07 0 0 0 0)
(0 -0.0115269 0 -0.0115269 -7.54016e-07 0 0 0 0)
(0 -0.0117628 0 -0.0117628 -8.36582e-07 0 0 0 0)
(0 -0.0119948 0 -0.0119948 -9.24695e-07 0 0 0 0)
(0 -0.0122222 0 -0.0122222 -1.02818e-06 0 0 0 0)
(0 -0.0124443 0 -0.0124443 -1.13685e-06 0 0 0 0)
(0 -0.0126602 0 -0.0126602 -1.27504e-06 0 0 0 0)
(0 -0.0128691 0 -0.0128691 -1.42936e-06 0 0 0 0)
(0 -0.01307 0 -0.01307 -1.61615e-06 0 0 0 0)
(0 -0.0132617 0 -0.0132617 -1.70495e-06 0 0 0 0)
(0 -0.013441 0 -0.013441 -1.75684e-06 0 0 0 0)
(0 -0.0136073 0 -0.0136073 -1.72316e-06 0 0 0 0)
(0 -0.0137574 0 -0.0137574 -1.80159e-06 0 0 0 0)
(0 -0.0138918 0 -0.0138918 -1.75261e-06 0 0 0 0)
(0 -0.0140055 0 -0.0140055 -1.91369e-06 0 0 0 0)
(0 -0.014101 0 -0.014101 -1.79838e-06 0 0 0 0)
(0 -0.0141694 0 -0.0141694 -2.1063e-06 0 0 0 0)
(0 -0.0142181 0 -0.0142181 -1.83737e-06 0 0 0 0)
(0 -0.0142306 0 -0.0142306 -2.40291e-06 0 0 0 0)
(0 -0.0142241 0 -0.0142241 -1.81569e-06 0 0 0 0)
(0 -0.0141674 0 -0.0141674 -2.88729e-06 0 0 0 0)
(0 -0.0140972 0 -0.0140972 -1.79733e-06 0 0 0 0)
(0 -0.0139538 0 -0.0139538 -3.9275e-06 0 0 0 0)
(0 -0.0138122 0 -0.0138122 -1.77926e-06 0 0 0 0)
(0 -0.0135575 0 -0.0135575 -5.29451e-06 0 0 0 0)
(0 -0.0133447 0 -0.0133447 9.72023e-07 0 0 0 0)
(-1.12012e-15 -0.0129418 0 -0.0129418 -3.24047e-06 0 0 0 0)
(0 -0.0126775 0 -0.0126775 1.46134e-05 0 0 0 0)
(0 -0.0120631 0 -0.0120631 3.29291e-06 0 0 0 0)
(0 -0.0117642 0 -0.0117642 3.34975e-05 0 0 0 0)
(0 -0.0108262 0 -0.0108262 -2.59611e-05 0 0 0 0)
(0 -0.0104015 0 -0.0104015 -1.85349e-05 0 0 0 0)
(0 -0.00906362 0 -0.00906362 -0.00011638 0 0 0 0)
(0 -0.00954377 0 -0.00954377 -5.62225e-05 0 0 0 0)
(0 -0.00710284 0 -0.00710284 2.36876e-05 0 0 0 0)
(0 -0.00931163 0 -0.00931163 0.000433967 0 0 0 0)
(0 -0.00567665 0 -0.00567665 0.000164977 0 0 0 0)
(0 -0.00875938 0 -0.00875938 -0.000262768 0 0 0 0)
(0 -0 0 -0 0 0 0 0 0)
(0 -0 0 -0 -0 0 0 0 0)
(0 -0 0 -0 -0 0 0 0 0)
(0 -0 0 -0 0 0 0 0 0)
(0 -0 0 -0 -0 0 0 0 0)
(0 -0 0 -0 0 0 0 0 0)
(0 -0 0 -0 0 0 0 0 0)
(0 -0 0 -0 0 0 0 0 0)
(0 -0 0 -0 0 0 0 0 0)
(0 -0 0 -0 -0 0 0 0 0)
(0 -0 0 -0 -0 0 0 0 0)
(0 -0 0 -0 -0 0 0 0 0)
(0 -0 0 -0 0 0 0 0 0)
(0 -0 0 -0 0 0 0 0 0)
(0 -0 0 -0 0 0 0 0 0)
(0 -0 0 -0 0 0 0 0 0)
(0 -0 0 -0 -0 0 0 0 0)
(0 -0 0 -0 -0 0 0 0 0)
(0 -0 0 -0 -0 0 0 0 0)
(0 -0 0 -0 -0 0 0 0 0)
(0 -0 0 -0 0 0 0 0 0)
(0 -0 0 -0 0 0 0 0 0)
(0 -0 0 -0 0 0 0 0 0)
(0 -0 0 -0 -0 0 0 0 0)
(0 -0 0 -0 -0 0 0 0 0)
(0 -0 0 -0 -0 0 0 0 0)
(0 -0 0 -0 -0 0 0 0 0)
(0 -0 0 -0 0 0 0 0 0)
(0 -0 0 -0 0 0 0 0 0)
(0 -0 0 -0 0 0 0 0 0)
(0 -0 0 -0 0 0 0 0 0)
(0 -0 0 -0 -0 0 0 0 0)
(0 -0 0 -0 -0 0 0 0 0)
(0 -0 0 -0 -0 0 0 0 0)
(0 -0 0 -0 0 0 0 0 0)
(0 -0 0 -0 0 0 0 0 0)
(0 -0 0 -0 0 0 0 0 0)
(0 -0 0 -0 -0 0 0 0 0)
(0 -0 0 -0 -0 0 0 0 0)
(0 -0 0 -0 -0 0 0 0 0)
(0 -0 0 -0 0 0 0 0 0)
(0 -0 0 -0 -0 0 0 0 0)
(0 -0 0 -0 0 0 0 0 0)
(0 -0 0 -0 -0 0 0 0 0)
(0 -0 0 -0 0 0 0 0 0)
(0 -0 0 -0 0 0 0 0 0)
(0 -0 0 -0 -0 0 0 0 0)
(0 -0 0 -0 -0 0 0 0 0)
(0 -0 0 -0 0 0 0 0 0)
(0 -0 0 -0 0 0 0 0 0)
(0 -0 0 -0 -0 0 0 0 0)
(0 -0 0 -0 0 0 0 0 0)
(0 -0 0 -0 0 0 0 0 0)
(0 -0 0 -0 -0 0 0 0 0)
(0 -0 0 -0 0 0 0 0 0)
(0 -0 0 -0 0 0 0 0 0)
(0 -0 0 -0 -0 0 0 0 0)
(0 -0 0 -0 0 0 0 0 0)
(0 -0 0 -0 0 0 0 0 0)
(0 -0 0 -0 -0 0 0 0 0)
(0 -0 0 -0 -0 0 0 0 0)
(0 -0 0 -0 0 0 0 0 0)
(0 -0 0 -0 0 0 0 0 0)
(0 -0 0 -0 -0 0 0 0 0)
(0 -0 0 -0 -0 0 0 0 0)
(0 -0 0 -0 0 0 0 0 0)
(0 -0 0 -0 0 0 0 0 0)
(0 -0 0 -0 -0 0 0 0 0)
(0 -0 0 -0 -0 0 0 0 0)
(0 -0 0 -0 0 0 0 0 0)
(0 -0 0 -0 -0 0 0 0 0)
(0 -0 0 -0 -0 0 0 0 0)
(0 -0 0 -0 0 0 0 0 0)
(0 -0 0 -0 0 0 0 0 0)
(0 -0 0 -0 -0 0 0 0 0)
(0 -0 0 -0 -0 0 0 0 0)
(0 -0 0 -0 0 0 0 0 0)
(0 -0 0 -0 -0 0 0 0 0)
(0 -0 0 -0 -0 0 0 0 0)
(0 -0 0 -0 -0 0 0 0 0)
(0 -0 0 -0 -0 0 0 0 0)
(0 -0 0 -0 -0 0 0 0 0)
(0 -0 0 -0 -0 0 0 0 0)
(0 -0 0 -0 -0 0 0 0 0)
(0 -0 0 -0 -0 0 0 0 0)
(0 -0 0 -0 -0 0 0 0 0)
(0 -0 0 -0 -0 0 0 0 0)
(0 -0 0 -0 -0 0 0 0 0)
(0 -0 0 -0 -0 0 0 0 0)
(0 -0 0 -0 -0 0 0 0 0)
(0 -0 0 -0 -0 0 0 0 0)
(0 -0 0 -0 -0 0 0 0 0)
(0 -0 0 -0 -0 0 0 0 0)
(0 -0 0 -0 -0 0 0 0 0)
(0 -0 0 -0 -0 0 0 0 0)
(0 -0 0 -0 -0 0 0 0 0)
(0 -0 0 -0 -0 0 0 0 0)
(0 -0 0 -0 -0 0 0 0 0)
(0 -0 0 -0 -0 0 0 0 0)
(0 -0 0 -0 -0 0 0 0 0)
(0 -0 0 -0 -0 0 0 0 0)
(0 -0 0 -0 -0 0 0 0 0)
(0 -0 0 -0 -0 0 0 0 0)
(0 -0 0 -0 -0 0 0 0 0)
(0 -0 0 -0 -0 0 0 0 0)
(0 -0 0 -0 -0 0 0 0 0)
(0 -0 0 -0 -0 0 0 0 0)
(0 -0 0 -0 -0 0 0 0 0)
(0 -0 0 -0 -0 0 0 0 0)
(0 -0 0 -0 -0 0 0 0 0)
(0 -0 0 -0 -0 0 0 0 0)
(0 -0 0 -0 -0 0 0 0 0)
(0 -0 0 -0 -0 0 0 0 0)
(0 -0 0 -0 -0 0 0 0 0)
(0 -0 0 -0 -0 0 0 0 0)
(0 -0 0 -0 -0 0 0 0 0)
(0 -0 0 -0 -0 0 0 0 0)
(0 -0 0 -0 -0 0 0 0 0)
(0 -0 0 -0 -0 0 0 0 0)
(0 -0 0 -0 -0 0 0 0 0)
)
;

boundaryField
{
    inandouthalf11
    {
        type            cyclic;
    }
    inandouthalf12
    {
        type            cyclic;
    }
    inandouthalf21
    {
        type            cyclic;
    }
    inandouthalf22
    {
        type            cyclic;
    }
    top
    {
        type            zeroGradient;
    }
    walls
    {
        type            zeroGradient;
    }
    frontAndBackPlanes
    {
        type            empty;
    }
}


// ************************************************************************* //
