/*--------------------------------*- C++ -*----------------------------------*\
| =========                 |                                                 |
| \\      /  F ield         | OpenFOAM: The Open Source CFD Toolbox           |
|  \\    /   O peration     | Version:  2.1.1                                 |
|   \\  /    A nd           | Web:      www.OpenFOAM.org                      |
|    \\/     M anipulation  |                                                 |
\*---------------------------------------------------------------------------*/
FoamFile
{
    version     2.0;
    format      ascii;
    class       volScalarField;
    location    "100";
    object      Theta_0;
}
// * * * * * * * * * * * * * * * * * * * * * * * * * * * * * * * * * * * * * //

dimensions      [0 2 -2 0 0 0 0];

internalField   nonuniform List<scalar> 
600
(
1.76029e-18
6.25606e-18
4.4351e-19
4.55704e-20
6.79837e-20
3.11732e-20
2.16185e-20
0
1.9399e-20
0
0
7.53595e-21
1.94947e-20
7.8956e-21
1.43993e-20
1.95282e-20
0
0
1.00102e-20
0
0
1.82242e-20
8.82956e-21
1.42925e-20
6.99682e-21
1.10158e-20
6.85031e-21
1.33551e-20
0
4.92636e-21
1.78653e-20
1.03692e-20
1.02835e-20
0
9.0888e-21
1.80743e-20
7.43627e-21
7.34976e-21
1.59801e-20
0
0
1.57769e-20
0
1.60138e-20
6.97756e-21
0
7.62101e-21
0
1.07836e-20
1.14893e-20
6.31058e-23
4.97503e-21
7.82282e-21
1.03815e-21
0
0
7.21212e-21
1.80144e-20
7.08253e-21
0
1.07052e-20
0
0
8.29552e-21
0
1.79111e-20
1.78883e-20
0
1.78638e-20
1.24041e-21
0
0
1.07292e-20
4.77667e-21
1.65593e-20
1.01718e-20
0
0
1.53301e-20
5.10528e-21
0
1.65853e-20
1.40938e-20
5.23446e-21
1.85477e-20
7.84555e-21
1.44817e-20
6.52375e-22
0
0
0
0
7.61956e-21
1.47984e-20
1.61315e-20
1.12736e-20
7.4116e-21
0
0
1.8053e-20
1.56496e-20
4.94734e-21
0
0
1.61102e-20
1.61109e-20
4.93855e-21
1.39657e-20
7.45729e-21
1.8179e-20
1.65942e-20
7.41339e-21
1.62571e-20
7.58625e-21
0
1.58482e-20
7.5307e-21
0
0
1.40293e-20
1.60846e-20
7.36697e-21
0
1.41983e-20
0
1.09384e-20
0
1.6196e-20
7.45323e-21
9.82563e-21
0
8.87125e-21
1.7868e-20
4.89013e-21
9.24069e-21
1.81131e-20
2.31793e-21
1.72919e-21
0
1.05429e-20
1.32502e-22
0
6.5709e-21
1.0676e-20
1.03047e-20
0
0
1.13212e-20
6.1531e-21
1.44405e-20
1.65409e-20
1.15516e-20
0
1.80109e-20
9.57515e-21
5.5272e-21
6.71749e-21
1.75381e-21
9.66475e-21
1.81016e-20
1.92597e-20
0
1.76449e-20
1.80104e-20
0
0
1.77264e-20
0
0
2.47337e-20
1.97841e-21
0
4.90974e-19
4.8362e-19
0
0
7.45271e-18
0
3.15141e-16
0
0
1.34787e-14
0
2.71133e-13
0
0
1.85424e-11
1.77132e-10
8.14652e-10
1.39767e-08
1.35273e-10
0
5.52649e-05
0.000416982
0.00117743
0.00166127
0.00196455
0.00216936
0.00229281
0.0024131
0.0025128
0.00259474
0.00266267
0.00271953
0.00276749
0.00280816
0.00284277
0.00287225
0.00289734
0.00291862
0.00293656
0.00295154
0.00296388
0.00297384
0.00298166
0.00298753
0.00299162
0.00299407
0.00299503
0.0029946
0.0029929
0.00299002
0.00298604
0.00298103
0.00297509
0.00296825
0.00296059
0.00295217
0.00294302
0.0029332
0.00292274
0.0029117
0.00290009
0.00288797
0.00287535
0.00286228
0.00284877
0.00283485
0.00282054
0.00280587
0.00279086
0.00277552
0.00275988
0.00274395
0.00272775
0.00271129
0.00269459
0.00267766
0.00266051
0.00264315
0.00262561
0.00260787
0.00258997
0.0025719
0.00255368
0.00253531
0.00251681
0.00249818
0.00247943
0.00246056
0.0024416
0.00242253
0.00240337
0.00238413
0.00236481
0.00234541
0.00232596
0.00230644
0.00228687
0.00226726
0.0022476
0.00222791
0.00220819
0.00218845
0.00216869
0.00214892
0.00212915
0.00210938
0.00208962
0.00206987
0.00205014
0.00203044
0.00201077
0.00199114
0.00197156
0.00195204
0.00193257
0.00191317
0.00189385
0.00187461
0.00185546
0.00183641
0.00181747
0.00179864
0.00177993
0.00176136
0.00174292
0.00172463
0.00170651
0.00168854
0.00167076
0.00165315
0.00163575
0.00161854
0.00160155
0.00158478
0.00156825
0.00155195
0.00153591
0.00152013
0.00150462
0.00148939
0.00147444
0.0014598
0.00144546
0.00143144
0.00141774
0.00140438
0.00139135
0.00137867
0.00136635
0.00135438
0.00134279
0.00133157
0.00132072
0.00131026
0.00130019
0.00129051
0.00128122
0.00127234
0.00126385
0.00125577
0.00124809
0.00124082
0.00123395
0.00122749
0.00122143
0.00121578
0.00121053
0.00120569
0.00120124
0.00119719
0.00119354
0.00119028
0.0011874
0.00118492
0.00118281
0.00118108
0.00117973
0.00117875
0.00117813
0.00117788
0.00117798
0.00117843
0.00117924
0.00118039
0.00118188
0.0011837
0.00118586
0.00118835
0.00119116
0.00119428
0.00119773
0.00120148
0.00120555
0.00120991
0.00121458
0.00121954
0.0012248
0.00123034
0.00123618
0.00124229
0.00124868
0.00125536
0.0012623
0.00126951
0.001277
0.00128474
0.00129275
0.00130102
0.00130954
0.00131832
0.00132734
0.00133662
0.00134613
0.00135589
0.00136589
0.00137613
0.0013866
0.0013973
0.00140823
0.00141939
0.00143076
0.00144236
0.00145417
0.0014662
0.00147843
0.00149087
0.00150352
0.00151636
0.0015294
0.00154263
0.00155605
0.00156965
0.00158344
0.00159739
0.00161152
0.00162582
0.00164028
0.00165489
0.00166965
0.00168456
0.00169961
0.00171479
0.0017301
0.00174553
0.00176107
0.00177671
0.00179246
0.00180829
0.00182421
0.0018402
0.00185626
0.00187237
0.00188853
0.00190472
0.00192094
0.00193717
0.00195341
0.00196963
0.00198584
0.00200201
0.00201813
0.00203418
0.00205016
0.00206604
0.00208181
0.00209746
0.00211295
0.00212828
0.00214342
0.00215836
0.00217306
0.00218751
0.00220167
0.00221553
0.00222905
0.00224221
0.00225497
0.00226731
0.00227918
0.00229055
0.00230139
0.00231165
0.0023213
0.00233027
0.00233854
0.00234605
0.00235276
0.00235861
0.00236355
0.00236754
0.00237054
0.00237249
0.00237335
0.00237309
0.00237167
0.00236908
0.0023653
0.00236032
0.00235416
0.00234685
0.00233844
0.00232901
0.00231866
0.00230755
0.00229584
0.0022838
0.0022717
0.00224828
0
0
0
0
0
0
0
0
0
0
0
0
0
0
0
0
0
0
0
0
0
0
0
0
0
0
0
0
0
0
0
0
0
0
0
0
0
0
0
0
0
0
0
0
0
0
0
0
0
0
0
0
0
0
0
0
0
0
0
0
0
0
0
0
0
0
0
0
0
0
0
0
0
0
0
0
0
0
0
0
0
0
0
0
0
0
0
0
0
0
0
0
0
0
0
0
0
0
0
0
0
0
0
0
0
0
0
0
0
0
0
0
0
0
0
0
0
0
0
0
)
;

boundaryField
{
    inandouthalf11
    {
        type            cyclic;
    }
    inandouthalf12
    {
        type            cyclic;
    }
    inandouthalf21
    {
        type            cyclic;
    }
    inandouthalf22
    {
        type            cyclic;
    }
    top
    {
        type            zeroGradient;
    }
    walls
    {
        type            zeroGradient;
    }
    frontAndBackPlanes
    {
        type            empty;
    }
}


// ************************************************************************* //
