/*--------------------------------*- C++ -*----------------------------------*\
| =========                 |                                                 |
| \\      /  F ield         | OpenFOAM: The Open Source CFD Toolbox           |
|  \\    /   O peration     | Version:  2.1.1                                 |
|   \\  /    A nd           | Web:      www.OpenFOAM.org                      |
|    \\/     M anipulation  |                                                 |
\*---------------------------------------------------------------------------*/
FoamFile
{
    version     2.0;
    format      ascii;
    class       volScalarField;
    location    "100";
    object      Theta;
}
// * * * * * * * * * * * * * * * * * * * * * * * * * * * * * * * * * * * * * //

dimensions      [0 2 -2 0 0 0 0];

internalField   nonuniform List<scalar> 
600
(
0
0
0
1.02612e-19
0
9.86568e-22
0
1.75525e-20
0
1.09038e-20
1.81271e-20
1.4117e-20
0
1.35146e-20
0
0
1.1551e-20
1.48778e-20
9.97834e-21
1.61148e-20
5.18846e-21
0
0
0
1.50107e-20
8.29931e-21
0
0
5.07271e-21
1.84626e-20
0
9.37946e-21
9.52249e-21
1.19097e-20
0
0
0
0
2.86783e-23
7.16992e-21
7.77085e-21
3.717e-22
1.08904e-20
0
0
1.59024e-20
1.39554e-20
1.15832e-20
8.69144e-21
7.51767e-21
5.25594e-21
1.83527e-20
0
4.40982e-21
6.81985e-21
1.587e-20
1.4628e-20
0
1.48415e-20
1.05936e-20
8.82443e-21
4.70218e-21
1.17041e-20
0
1.0992e-20
0
0
1.13652e-20
0
4.20839e-21
4.63291e-21
1.09639e-20
8.78754e-21
1.86457e-20
0
9.71096e-21
1.12709e-20
1.02954e-20
1.17797e-21
1.80907e-20
7.51774e-21
0
0
1.78692e-20
0
0
0
4.67056e-21
4.78132e-21
1.70731e-20
1.62861e-20
1.60192e-20
0
0
0
7.89752e-21
1.4258e-20
7.42338e-21
5.11263e-21
0
7.02194e-22
1.83042e-20
1.6042e-20
1.07932e-20
0
0
1.8306e-20
0
1.41677e-20
0
0
1.42356e-20
0
1.39496e-20
1.60242e-20
4.21761e-22
1.40363e-20
1.09711e-20
5.03663e-21
0
5.28609e-23
1.42963e-20
7.4483e-21
0
1.62474e-20
8.46507e-21
7.41896e-21
0
1.41437e-20
0
7.28976e-21
1.18316e-20
0
1.83002e-20
1.12289e-20
0
1.80932e-20
3.62024e-21
4.45474e-21
0
4.90327e-21
4.55741e-21
1.55438e-20
0
9.50298e-21
1.48991e-20
1.30867e-20
7.86373e-21
1.61985e-20
2.83959e-21
0
0
1.132e-20
0
1.06778e-20
1.71748e-20
1.52604e-20
1.80456e-20
0
0
0
1.31175e-20
0
0
8.10531e-21
9.41963e-21
0
1.32809e-20
1.46214e-20
0
8.28625e-20
6.90653e-20
0
1.26237e-18
3.31096e-18
7.48508e-18
3.40551e-17
4.57978e-17
0
2.7106e-16
2.57232e-15
0
3.21484e-14
0
5.23521e-13
3.95393e-12
4.85203e-11
2.77784e-10
3.30189e-09
0
5.04851e-07
9.03814e-06
5.096e-05
0.000420078
0.00117845
0.00166129
0.00196453
0.00216935
0.00229281
0.0024131
0.0025128
0.00259474
0.00266267
0.00271953
0.00276749
0.00280816
0.00284277
0.00287225
0.00289734
0.00291862
0.00293656
0.00295154
0.00296388
0.00297384
0.00298166
0.00298753
0.00299162
0.00299407
0.00299503
0.0029946
0.0029929
0.00299002
0.00298604
0.00298103
0.00297509
0.00296825
0.0029606
0.00295217
0.00294302
0.0029332
0.00292274
0.0029117
0.00290009
0.00288797
0.00287536
0.00286228
0.00284877
0.00283485
0.00282054
0.00280587
0.00279086
0.00277552
0.00275988
0.00274395
0.00272775
0.00271129
0.00269459
0.00267766
0.00266051
0.00264315
0.00262561
0.00260787
0.00258997
0.0025719
0.00255368
0.00253531
0.00251681
0.00249818
0.00247943
0.00246056
0.0024416
0.00242253
0.00240337
0.00238413
0.00236481
0.00234541
0.00232596
0.00230644
0.00228687
0.00226726
0.0022476
0.00222791
0.00220819
0.00218845
0.00216869
0.00214892
0.00212915
0.00210938
0.00208962
0.00206987
0.00205014
0.00203044
0.00201077
0.00199114
0.00197156
0.00195204
0.00193257
0.00191317
0.00189385
0.00187461
0.00185546
0.00183641
0.00181747
0.00179864
0.00177993
0.00176136
0.00174292
0.00172463
0.00170651
0.00168854
0.00167076
0.00165315
0.00163575
0.00161854
0.00160155
0.00158478
0.00156825
0.00155195
0.00153591
0.00152013
0.00150462
0.00148939
0.00147444
0.0014598
0.00144546
0.00143144
0.00141774
0.00140438
0.00139135
0.00137867
0.00136635
0.00135438
0.00134279
0.00133157
0.00132072
0.00131026
0.00130019
0.00129051
0.00128122
0.00127234
0.00126385
0.00125577
0.00124809
0.00124082
0.00123395
0.00122749
0.00122143
0.00121578
0.00121053
0.00120569
0.00120124
0.00119719
0.00119354
0.00119028
0.0011874
0.00118492
0.00118281
0.00118108
0.00117973
0.00117875
0.00117813
0.00117788
0.00117798
0.00117843
0.00117924
0.00118039
0.00118188
0.0011837
0.00118586
0.00118835
0.00119116
0.00119428
0.00119773
0.00120148
0.00120555
0.00120991
0.00121458
0.00121954
0.0012248
0.00123034
0.00123618
0.00124229
0.00124868
0.00125536
0.0012623
0.00126951
0.001277
0.00128474
0.00129275
0.00130102
0.00130954
0.00131832
0.00132734
0.00133662
0.00134613
0.00135589
0.00136589
0.00137613
0.0013866
0.0013973
0.00140823
0.00141939
0.00143076
0.00144236
0.00145417
0.00146619
0.00147843
0.00149087
0.00150351
0.00151636
0.00152939
0.00154262
0.00155604
0.00156964
0.00158343
0.00159738
0.00161151
0.00162581
0.00164026
0.00165487
0.00166963
0.00168454
0.00169959
0.00171477
0.00173007
0.0017455
0.00176104
0.00177668
0.00179243
0.00180827
0.00182418
0.00184018
0.00185623
0.00187235
0.0018885
0.0019047
0.00192092
0.00193715
0.00195338
0.0019696
0.0019858
0.00200196
0.00201807
0.00203411
0.00205007
0.00206593
0.00208168
0.00209729
0.00211276
0.00212805
0.00214316
0.00215806
0.00217273
0.00218716
0.00220131
0.00221518
0.00222873
0.00224195
0.00225482
0.00226732
0.00227943
0.00229112
0.00230239
0.0023132
0.00232355
0.00233341
0.00234277
0.00235161
0.00235992
0.00236768
0.00237487
0.0023815
0.00238754
0.00239299
0.00239783
0.00240206
0.00240565
0.0024086
0.00241086
0.00241243
0.00241324
0.00241325
0.00241239
0.00241055
0.00240762
0.00240343
0.00239779
0.00239044
0.00238106
0
0
0
0
0
0
0
0
0
0
0
0
0
0
0
0
0
0
0
0
0
0
0
0
0
0
0
0
0
0
0
0
0
0
0
0
0
0
0
0
0
0
0
0
0
0
0
0
0
0
0
0
0
0
0
0
0
0
0
0
0
0
0
0
0
0
0
0
0
0
0
0
0
0
0
0
0
0
0
0
0
0
0
0
0
0
0
0
0
0
0
0
0
0
0
0
0
0
0
0
0
0
0
0
0
0
0
0
0
0
0
0
0
0
0
0
0
0
0
0
0
)
;

boundaryField
{
    inandouthalf11
    {
        type            cyclic;
    }
    inandouthalf12
    {
        type            cyclic;
    }
    inandouthalf21
    {
        type            cyclic;
    }
    inandouthalf22
    {
        type            cyclic;
    }
    top
    {
        type            zeroGradient;
    }
    walls
    {
        type            zeroGradient;
    }
    frontAndBackPlanes
    {
        type            empty;
    }
}


// ************************************************************************* //
