/*--------------------------------*- C++ -*----------------------------------*\
| =========                 |                                                 |
| \\      /  F ield         | OpenFOAM: The Open Source CFD Toolbox           |
|  \\    /   O peration     | Version:  2.1.1                                 |
|   \\  /    A nd           | Web:      www.OpenFOAM.org                      |
|    \\/     M anipulation  |                                                 |
\*---------------------------------------------------------------------------*/
FoamFile
{
    version     2.0;
    format      ascii;
    class       volScalarField;
    location    "100";
    object      tmf;
}
// * * * * * * * * * * * * * * * * * * * * * * * * * * * * * * * * * * * * * //

dimensions      [0 0 0 0 0 0 0];

internalField   nonuniform List<scalar> 
600
(
0.999827
0.999809
0.999982
0.999965
0.999952
0.999914
0.999844
0.999828
0.999828
0.999828
0.999828
0.999828
0.999828
0.999828
0.999828
0.999828
0.999828
0.999828
0.999828
0.999828
0.999828
0.999828
0.999828
0.999828
0.999828
0.999828
0.999828
0.999828
0.999828
0.999828
0.999828
0.999828
0.999828
0.999828
0.999828
0.999828
0.999828
0.999828
0.999828
0.999828
0.999828
0.999828
0.999828
0.999828
0.999828
0.999828
0.999828
0.999828
0.999828
0.999828
0.999828
0.999828
0.999828
0.999828
0.999828
0.999828
0.999828
0.999828
0.999828
0.999828
0.999828
0.999828
0.999828
0.999828
0.999828
0.999828
0.999828
0.999828
0.999827
0.999827
0.999827
0.999827
0.999827
0.999827
0.999827
0.999827
0.999827
0.999827
0.999827
0.999827
0.999827
0.999827
0.999827
0.999827
0.999827
0.999827
0.999827
0.999827
0.999827
0.999827
0.999827
0.999827
0.999827
0.999827
0.999827
0.999827
0.999827
0.999827
0.999827
0.999827
0.999827
0.999827
0.999827
0.999827
0.999827
0.999826
0.999826
0.999826
0.999826
0.999826
0.999826
0.999826
0.999826
0.999826
0.999826
0.999826
0.999826
0.999826
0.999826
0.999826
0.999826
0.999826
0.999826
0.999826
0.999826
0.999826
0.999826
0.999826
0.999826
0.999826
0.999825
0.999825
0.999825
0.999825
0.999825
0.999825
0.999825
0.999825
0.999825
0.999825
0.999825
0.999825
0.999825
0.999825
0.999825
0.999825
0.999825
0.999825
0.999824
0.999824
0.999824
0.999824
0.999824
0.999824
0.999824
0.999824
0.999824
0.999824
0.999824
0.999824
0.999824
0.999823
0.999823
0.999823
0.999823
0.999823
0.999823
0.999823
0.999772
0.999737
0.999715
0.999695
0.999672
0.999646
0.999615
0.999579
0.999535
0.999484
0.999423
0.999349
0.99926
0.999152
0.999018
0.998853
0.998656
0.998417
0.998099
0.997683
0.997164
0.996501
0.995649
0.994545
0.992961
0.981939
0.971095
0.969239
0.969024
0.969139
0.96543
0.966775
0.968045
0.969246
0.970377
0.971443
0.972449
0.9734
0.974302
0.975158
0.975972
0.976748
0.977487
0.978193
0.978867
0.97951
0.980126
0.980714
0.981276
0.981814
0.982328
0.982821
0.983292
0.983744
0.984176
0.98459
0.984987
0.985368
0.985733
0.986083
0.986419
0.986742
0.987053
0.987351
0.987638
0.987914
0.98818
0.988436
0.988682
0.98892
0.989149
0.989371
0.989585
0.989791
0.989991
0.990184
0.99037
0.990551
0.990726
0.990896
0.99106
0.991219
0.991374
0.991525
0.99167
0.991812
0.99195
0.992084
0.992215
0.992342
0.992466
0.992587
0.992704
0.992819
0.992931
0.993041
0.993147
0.993252
0.993354
0.993454
0.993552
0.993648
0.993741
0.993833
0.993923
0.994012
0.994099
0.994184
0.994267
0.99435
0.994431
0.99451
0.994588
0.994665
0.994741
0.994816
0.994889
0.994962
0.995033
0.995104
0.995173
0.995242
0.99531
0.995377
0.995443
0.995508
0.995573
0.995637
0.9957
0.995763
0.995825
0.995886
0.995946
0.996006
0.996065
0.996124
0.996182
0.99624
0.996297
0.996353
0.996408
0.996463
0.996518
0.996572
0.996625
0.996677
0.996729
0.996781
0.996831
0.996881
0.99693
0.996979
0.997027
0.997074
0.99712
0.997165
0.99721
0.997254
0.997297
0.997339
0.99738
0.99742
0.99746
0.997498
0.997536
0.997572
0.997608
0.997643
0.997676
0.997709
0.997741
0.997771
0.997801
0.99783
0.997858
0.997884
0.99791
0.997935
0.997959
0.997981
0.998003
0.998024
0.998044
0.998063
0.998081
0.998098
0.998114
0.99813
0.998144
0.998158
0.998171
0.998183
0.998194
0.998204
0.998214
0.998223
0.998231
0.998239
0.998245
0.998251
0.998257
0.998262
0.998266
0.998269
0.998272
0.998274
0.998276
0.998277
0.998278
0.998278
0.998278
0.998277
0.998275
0.998274
0.998271
0.998269
0.998265
0.998262
0.998258
0.998253
0.998249
0.998244
0.998238
0.998232
0.998226
0.998219
0.998212
0.998205
0.998198
0.99819
0.998182
0.998173
0.998165
0.998156
0.998147
0.998137
0.998128
0.998118
0.998107
0.998097
0.998086
0.998075
0.998064
0.998053
0.998041
0.998029
0.998017
0.998005
0.997993
0.99798
0.997967
0.997954
0.997941
0.997927
0.997913
0.997899
0.997885
0.99787
0.997855
0.99784
0.997825
0.997809
0.997794
0.997777
0.997761
0.997744
0.997727
0.997709
0.997691
0.997673
0.997654
0.997635
0.997615
0.997594
0.997573
0.997551
0.997528
0.997505
0.99748
0.997454
0.997426
0.997395
0.99736
0.997347
0.997343
0.997338
0.997331
0.997324
0.997317
0.99731
0.997303
0.997296
0.997289
0.997283
0.997277
0.997271
0.997265
0.997261
0.997256
0.997252
0.997248
0.997246
0.997242
0.997242
0.997239
0.99724
0.997237
0.997242
0.99724
0.997248
0.997249
0.997259
0.997177
0.996645
0.996613
0.996584
0.996555
0.996525
0.996495
0.996465
0.996434
0.996403
0.996371
0.996338
0.996306
0.996272
0.996239
0.996204
0.99617
0.996134
0.996098
0.996061
0.996024
0.995986
0.995948
0.995908
0.995868
0.995828
0.995786
0.995744
0.995701
0.995657
0.995612
0.995567
0.99552
0.995473
0.995424
0.995375
0.995324
0.995272
0.99522
0.995166
0.995111
0.995054
0.994996
0.994937
0.994877
0.994815
0.994751
0.994686
0.994619
0.994551
0.99448
0.994408
0.994334
0.994257
0.994179
0.994098
0.994015
0.99393
0.993842
0.993751
0.993657
0.993561
0.993461
0.993358
0.993252
0.993141
0.993027
0.992909
0.992787
0.99266
0.992528
0.992392
0.992249
0.992101
0.991947
0.991787
0.991619
0.991444
0.991261
0.991069
0.990869
0.990658
0.990437
0.990204
0.98996
0.989701
0.989428
0.989139
0.988833
0.988508
0.988162
0.987793
0.987399
0.986976
0.986523
0.986034
0.985507
0.984935
0.984314
0.983635
0.982891
0.982073
0.981167
0.980158
0.97903
0.977757
0.97631
0.974651
0.97273
0.970476
0.967795
0.964553
0.96055
0.95548
0.948845
0.939776
0.926604
0.905619
0.866122
0.879367
)
;

boundaryField
{
    inandouthalf11
    {
        type            cyclic;
    }
    inandouthalf12
    {
        type            cyclic;
    }
    inandouthalf21
    {
        type            cyclic;
    }
    inandouthalf22
    {
        type            cyclic;
    }
    top
    {
        type            calculated;
        value           uniform 0;
    }
    walls
    {
        type            calculated;
        value           uniform 0;
    }
    frontAndBackPlanes
    {
        type            empty;
    }
}


// ************************************************************************* //
