/*--------------------------------*- C++ -*----------------------------------*\
| =========                 |                                                 |
| \\      /  F ield         | OpenFOAM: The Open Source CFD Toolbox           |
|  \\    /   O peration     | Version:  2.1.1                                 |
|   \\  /    A nd           | Web:      www.OpenFOAM.org                      |
|    \\/     M anipulation  |                                                 |
\*---------------------------------------------------------------------------*/
FoamFile
{
    version     2.0;
    format      ascii;
    class       volVectorField;
    location    "100";
    object      U;
}
// * * * * * * * * * * * * * * * * * * * * * * * * * * * * * * * * * * * * * //

dimensions      [0 1 -1 0 0 0 0];

internalField   nonuniform List<vector> 
600
(
(8.52037e-07 3.18535e-12 0)
(8.37474e-07 6.24448e-12 0)
(8.38698e-07 6.24284e-12 0)
(8.40439e-07 6.26856e-12 0)
(8.40135e-07 6.28703e-12 0)
(8.4008e-07 6.3115e-12 0)
(8.4031e-07 6.33766e-12 0)
(8.40486e-07 6.36357e-12 0)
(8.40624e-07 6.38945e-12 0)
(8.40781e-07 6.41523e-12 0)
(8.40938e-07 6.44052e-12 0)
(8.41094e-07 6.46519e-12 0)
(8.4126e-07 6.48922e-12 0)
(8.41417e-07 6.51242e-12 0)
(8.41584e-07 6.53487e-12 0)
(8.4175e-07 6.55649e-12 0)
(8.41916e-07 6.57729e-12 0)
(8.42082e-07 6.59726e-12 0)
(8.42258e-07 6.61648e-12 0)
(8.42433e-07 6.63493e-12 0)
(8.42599e-07 6.65255e-12 0)
(8.42784e-07 6.66957e-12 0)
(8.4296e-07 6.68582e-12 0)
(8.43135e-07 6.70142e-12 0)
(8.4332e-07 6.71642e-12 0)
(8.43505e-07 6.73081e-12 0)
(8.4369e-07 6.74462e-12 0)
(8.43876e-07 6.7579e-12 0)
(8.44061e-07 6.77064e-12 0)
(8.44255e-07 6.78293e-12 0)
(8.4445e-07 6.79474e-12 0)
(8.44644e-07 6.80611e-12 0)
(8.44839e-07 6.81705e-12 0)
(8.45042e-07 6.82766e-12 0)
(8.45237e-07 6.83782e-12 0)
(8.45441e-07 6.84769e-12 0)
(8.45645e-07 6.8572e-12 0)
(8.45858e-07 6.86645e-12 0)
(8.46062e-07 6.87534e-12 0)
(8.46276e-07 6.88401e-12 0)
(8.46489e-07 6.8924e-12 0)
(8.46703e-07 6.90053e-12 0)
(8.46925e-07 6.90849e-12 0)
(8.47139e-07 6.91617e-12 0)
(8.47362e-07 6.9237e-12 0)
(8.47585e-07 6.93101e-12 0)
(8.47817e-07 6.9382e-12 0)
(8.4804e-07 6.94516e-12 0)
(8.48273e-07 6.95203e-12 0)
(8.48505e-07 6.95872e-12 0)
(8.48747e-07 6.96535e-12 0)
(8.4898e-07 6.97177e-12 0)
(8.49222e-07 6.97815e-12 0)
(8.49464e-07 6.98441e-12 0)
(8.49706e-07 6.99056e-12 0)
(8.49957e-07 6.99667e-12 0)
(8.50209e-07 7.00268e-12 0)
(8.5046e-07 7.00863e-12 0)
(8.50712e-07 7.01451e-12 0)
(8.50973e-07 7.02037e-12 0)
(8.51234e-07 7.02617e-12 0)
(8.51496e-07 7.03191e-12 0)
(8.51766e-07 7.03768e-12 0)
(8.52027e-07 7.04332e-12 0)
(8.52307e-07 7.04906e-12 0)
(8.52578e-07 7.05468e-12 0)
(8.52859e-07 7.06035e-12 0)
(8.53139e-07 7.06599e-12 0)
(8.53419e-07 7.07163e-12 0)
(8.537e-07 7.07725e-12 0)
(8.5399e-07 7.08292e-12 0)
(8.5428e-07 7.08856e-12 0)
(8.5458e-07 7.09425e-12 0)
(8.54879e-07 7.09993e-12 0)
(8.55179e-07 7.10561e-12 0)
(8.55488e-07 7.11137e-12 0)
(8.55788e-07 7.11705e-12 0)
(8.56106e-07 7.12288e-12 0)
(8.56416e-07 7.12864e-12 0)
(8.56735e-07 7.13448e-12 0)
(8.57054e-07 7.14032e-12 0)
(8.57383e-07 7.14622e-12 0)
(8.57711e-07 7.15214e-12 0)
(8.5804e-07 7.15807e-12 0)
(8.58378e-07 7.16408e-12 0)
(8.58717e-07 7.17008e-12 0)
(8.59065e-07 7.17616e-12 0)
(8.59413e-07 7.18226e-12 0)
(8.59761e-07 7.18836e-12 0)
(8.60118e-07 7.19455e-12 0)
(8.60476e-07 7.20073e-12 0)
(8.60844e-07 7.20698e-12 0)
(8.61211e-07 7.21322e-12 0)
(8.61588e-07 7.21954e-12 0)
(8.61966e-07 7.22587e-12 0)
(8.62343e-07 7.23221e-12 0)
(8.6273e-07 7.23862e-12 0)
(8.63117e-07 7.24501e-12 0)
(8.63514e-07 7.25145e-12 0)
(8.6392e-07 7.25794e-12 0)
(8.64327e-07 7.26443e-12 0)
(8.64734e-07 7.27092e-12 0)
(8.6515e-07 7.27744e-12 0)
(8.65576e-07 7.284e-12 0)
(8.66002e-07 7.29056e-12 0)
(8.66428e-07 7.29708e-12 0)
(8.66874e-07 7.30372e-12 0)
(8.6731e-07 7.31023e-12 0)
(8.67765e-07 7.31685e-12 0)
(8.68221e-07 7.32342e-12 0)
(8.68677e-07 7.32996e-12 0)
(8.69142e-07 7.33651e-12 0)
(8.69618e-07 7.34305e-12 0)
(8.70103e-07 7.3496e-12 0)
(8.70588e-07 7.35608e-12 0)
(8.71083e-07 7.36257e-12 0)
(8.71578e-07 7.36897e-12 0)
(8.72092e-07 7.37543e-12 0)
(8.72607e-07 7.38179e-12 0)
(8.73122e-07 7.38807e-12 0)
(8.73657e-07 7.39437e-12 0)
(8.74191e-07 7.40056e-12 0)
(8.74736e-07 7.4067e-12 0)
(8.7529e-07 7.41277e-12 0)
(8.75855e-07 7.41878e-12 0)
(8.76419e-07 7.42467e-12 0)
(8.77003e-07 7.43054e-12 0)
(8.77588e-07 7.43626e-12 0)
(8.78182e-07 7.4419e-12 0)
(8.78786e-07 7.44741e-12 0)
(8.7941e-07 7.45286e-12 0)
(8.80034e-07 7.45812e-12 0)
(8.80669e-07 7.46328e-12 0)
(8.81313e-07 7.46829e-12 0)
(8.81967e-07 7.47314e-12 0)
(8.82642e-07 7.47787e-12 0)
(8.83326e-07 7.48243e-12 0)
(8.8401e-07 7.48675e-12 0)
(8.84724e-07 7.49099e-12 0)
(8.85439e-07 7.49494e-12 0)
(8.86173e-07 7.49875e-12 0)
(8.86918e-07 7.50232e-12 0)
(8.87673e-07 7.50564e-12 0)
(8.88448e-07 7.50874e-12 0)
(8.89242e-07 7.51162e-12 0)
(8.90048e-07 7.51419e-12 0)
(8.90873e-07 7.51651e-12 0)
(8.91718e-07 7.51858e-12 0)
(8.92574e-07 7.52033e-12 0)
(8.9345e-07 7.52177e-12 0)
(8.94346e-07 7.52288e-12 0)
(8.95273e-07 7.5237e-12 0)
(8.96209e-07 7.5241e-12 0)
(8.97177e-07 7.5242e-12 0)
(8.98164e-07 7.5239e-12 0)
(8.99172e-07 7.52319e-12 0)
(9.00211e-07 7.52208e-12 0)
(9.0128e-07 7.52057e-12 0)
(9.0237e-07 7.51855e-12 0)
(9.035e-07 7.51617e-12 0)
(9.04652e-07 7.51323e-12 0)
(9.05844e-07 7.50984e-12 0)
(9.07077e-07 7.50597e-12 0)
(9.08341e-07 7.50155e-12 0)
(9.09646e-07 7.4966e-12 0)
(9.10993e-07 7.49107e-12 0)
(9.12391e-07 7.48502e-12 0)
(9.1383e-07 7.47834e-12 0)
(9.15321e-07 7.47103e-12 0)
(9.16884e-07 7.46319e-12 0)
(9.185e-07 7.45463e-12 0)
(9.20188e-07 7.44548e-12 0)
(9.21949e-07 7.43566e-12 0)
(9.23783e-07 7.42516e-12 0)
(9.25712e-07 7.41401e-12 0)
(9.27736e-07 7.40209e-12 0)
(9.29905e-07 7.38954e-12 0)
(9.32261e-07 7.3763e-12 0)
(9.34855e-07 7.36235e-12 0)
(9.37782e-07 7.34782e-12 0)
(9.41114e-07 7.33308e-12 0)
(9.44742e-07 7.31834e-12 0)
(9.4829e-07 7.30051e-12 0)
(9.52722e-07 7.27133e-12 0)
(9.64712e-07 7.27362e-12 0)
(9.7457e-07 7.30968e-12 0)
(9.71502e-07 1.05074e-11 0)
(9.77302e-07 2.74769e-14 0)
(9.85082e-07 -6.22202e-10 0)
(9.912e-07 -2.36987e-09 0)
(9.97029e-07 1.10091e-07 0)
(1.03693e-06 7.94295e-07 0)
(3.5181e-05 -5.58259e-06 0)
(0.0485436 1.05891e-05 0)
(0.125085 -4.1315e-06 0)
(0.188664 1.09934e-06 0)
(0.241559 -6.44183e-08 0)
(0.286817 1.2944e-07 0)
(0.326378 -1.33351e-09 0)
(0.36146 -4.21286e-09 0)
(0.392875 -1.46707e-10 0)
(0.421246 -1.72655e-10 0)
(0.447056 -5.17132e-10 0)
(0.470688 -6.03527e-10 0)
(0.492447 -4.48883e-10 0)
(0.512579 -2.654e-10 0)
(0.531289 -1.60956e-10 0)
(0.548744 -1.26332e-10 0)
(0.565085 -1.22806e-10 0)
(0.580432 -1.25881e-10 0)
(0.594886 -1.26142e-10 0)
(0.608535 -1.21921e-10 0)
(0.621455 -1.14315e-10 0)
(0.633711 -1.04824e-10 0)
(0.645362 -9.46363e-11 0)
(0.656459 -8.45458e-11 0)
(0.667046 -7.50242e-11 0)
(0.677164 -6.63162e-11 0)
(0.686849 -5.85121e-11 0)
(0.696132 -5.16025e-11 0)
(0.705042 -4.55212e-11 0)
(0.713605 -4.01764e-11 0)
(0.721845 -3.54722e-11 0)
(0.729783 -3.13198e-11 0)
(0.737438 -2.76421e-11 0)
(0.744827 -2.4374e-11 0)
(0.751968 -2.14623e-11 0)
(0.758875 -1.88625e-11 0)
(0.765561 -1.65374e-11 0)
(0.772038 -1.44554e-11 0)
(0.778319 -1.25896e-11 0)
(0.784413 -1.09165e-11 0)
(0.790331 -9.4152e-12 0)
(0.796082 -8.06759e-12 0)
(0.801673 -6.85745e-12 0)
(0.807114 -5.7702e-12 0)
(0.81241 -4.79265e-12 0)
(0.817569 -3.91308e-12 0)
(0.822597 -3.12122e-12 0)
(0.827501 -2.4078e-12 0)
(0.832285 -1.76425e-12 0)
(0.836954 -1.18309e-12 0)
(0.841514 -6.57795e-13 0)
(0.845969 -1.82372e-13 0)
(0.850323 2.48412e-13 0)
(0.85458 6.39068e-13 0)
(0.858744 9.93756e-13 0)
(0.862819 1.31642e-12 0)
(0.866808 1.61015e-12 0)
(0.870713 1.87763e-12 0)
(0.874539 2.12155e-12 0)
(0.878287 2.34422e-12 0)
(0.881961 2.54762e-12 0)
(0.885563 2.73348e-12 0)
(0.889095 2.90334e-12 0)
(0.892559 3.0585e-12 0)
(0.895959 3.20033e-12 0)
(0.899294 3.32994e-12 0)
(0.902569 3.44822e-12 0)
(0.905784 3.55626e-12 0)
(0.908941 3.65481e-12 0)
(0.912041 3.74443e-12 0)
(0.915087 3.82592e-12 0)
(0.91808 3.89998e-12 0)
(0.921021 3.96704e-12 0)
(0.923912 4.02773e-12 0)
(0.926753 4.08256e-12 0)
(0.929546 4.13187e-12 0)
(0.932292 4.17613e-12 0)
(0.934993 4.21562e-12 0)
(0.937649 4.25051e-12 0)
(0.940261 4.28134e-12 0)
(0.94283 4.30851e-12 0)
(0.945357 4.33218e-12 0)
(0.947843 4.35249e-12 0)
(0.950289 4.36957e-12 0)
(0.952695 4.38389e-12 0)
(0.955062 4.39565e-12 0)
(0.957391 4.40498e-12 0)
(0.959683 4.41216e-12 0)
(0.961937 4.41736e-12 0)
(0.964156 4.42059e-12 0)
(0.966338 4.42201e-12 0)
(0.968485 4.42175e-12 0)
(0.970598 4.42e-12 0)
(0.972676 4.41702e-12 0)
(0.97472 4.41282e-12 0)
(0.976731 4.40747e-12 0)
(0.978708 4.40115e-12 0)
(0.980653 4.39401e-12 0)
(0.982566 4.38593e-12 0)
(0.984446 4.37697e-12 0)
(0.986294 4.36733e-12 0)
(0.988111 4.3572e-12 0)
(0.989896 4.34657e-12 0)
(0.991651 4.33547e-12 0)
(0.993374 4.32399e-12 0)
(0.995067 4.31203e-12 0)
(0.996729 4.29999e-12 0)
(0.998361 4.28793e-12 0)
(0.999963 4.27557e-12 0)
(1.00153 4.26294e-12 0)
(1.00308 4.25031e-12 0)
(1.00459 4.23765e-12 0)
(1.00607 4.22501e-12 0)
(1.00752 4.21244e-12 0)
(1.00895 4.19987e-12 0)
(1.01034 4.18746e-12 0)
(1.0117 4.17532e-12 0)
(1.01304 4.16331e-12 0)
(1.01435 4.15137e-12 0)
(1.01562 4.13953e-12 0)
(1.01687 4.12791e-12 0)
(1.01809 4.11664e-12 0)
(1.01928 4.10563e-12 0)
(1.02044 4.09471e-12 0)
(1.02157 4.08394e-12 0)
(1.02268 4.07355e-12 0)
(1.02375 4.06325e-12 0)
(1.0248 4.05306e-12 0)
(1.02582 4.04322e-12 0)
(1.02681 4.03365e-12 0)
(1.02777 4.02428e-12 0)
(1.02871 4.01506e-12 0)
(1.02962 4.00599e-12 0)
(1.0305 3.99703e-12 0)
(1.03135 3.9882e-12 0)
(1.03218 3.97948e-12 0)
(1.03297 3.97077e-12 0)
(1.03375 3.96213e-12 0)
(1.03449 3.95351e-12 0)
(1.03521 3.94498e-12 0)
(1.03591 3.93657e-12 0)
(1.03658 3.92805e-12 0)
(1.03722 3.9194e-12 0)
(1.03784 3.91071e-12 0)
(1.03843 3.90198e-12 0)
(1.039 3.89321e-12 0)
(1.03955 3.88435e-12 0)
(1.04007 3.87541e-12 0)
(1.04057 3.86638e-12 0)
(1.04105 3.85717e-12 0)
(1.0415 3.84778e-12 0)
(1.04194 3.83822e-12 0)
(1.04235 3.8285e-12 0)
(1.04274 3.81871e-12 0)
(1.04311 3.80868e-12 0)
(1.04346 3.7984e-12 0)
(1.04378 3.78808e-12 0)
(1.04409 3.77752e-12 0)
(1.04438 3.76679e-12 0)
(1.04465 3.75583e-12 0)
(1.0449 3.74468e-12 0)
(1.04514 3.73342e-12 0)
(1.04535 3.72189e-12 0)
(1.04555 3.71014e-12 0)
(1.04573 3.69836e-12 0)
(1.04589 3.68652e-12 0)
(1.04604 3.67446e-12 0)
(1.04617 3.66227e-12 0)
(1.04628 3.64991e-12 0)
(1.04638 3.63741e-12 0)
(1.04646 3.62496e-12 0)
(1.04653 3.61234e-12 0)
(1.04658 3.59851e-12 0)
(1.04662 3.58149e-12 0)
(1.04664 3.56544e-12 0)
(1.04665 3.59948e-12 0)
(1.04664 3.51373e-12 0)
(1.04662 3.53334e-12 0)
(1.04659 3.52481e-12 0)
(1.04654 3.50764e-12 0)
(1.04648 3.49287e-12 0)
(1.0464 3.47935e-12 0)
(1.04631 3.46589e-12 0)
(1.04621 3.45227e-12 0)
(1.0461 3.43846e-12 0)
(1.04597 3.42471e-12 0)
(1.04584 3.41102e-12 0)
(1.04568 3.39719e-12 0)
(1.04552 3.38336e-12 0)
(1.04534 3.36962e-12 0)
(1.04516 3.35576e-12 0)
(1.04496 3.34185e-12 0)
(1.04475 3.32808e-12 0)
(1.04452 3.3144e-12 0)
(1.04429 3.30057e-12 0)
(1.04404 3.28672e-12 0)
(1.04378 3.27292e-12 0)
(1.04351 3.25894e-12 0)
(1.04323 3.24507e-12 0)
(1.04294 3.2313e-12 0)
(1.04263 3.21745e-12 0)
(1.04232 3.20362e-12 0)
(1.04199 3.18974e-12 0)
(1.04166 3.17587e-12 0)
(1.04131 3.16208e-12 0)
(1.04095 3.14834e-12 0)
(1.04058 3.13449e-12 0)
(1.0402 3.12061e-12 0)
(1.03981 3.10688e-12 0)
(1.0394 3.09312e-12 0)
(1.03899 3.07935e-12 0)
(1.03857 3.06554e-12 0)
(1.03813 3.05178e-12 0)
(1.03769 3.03802e-12 0)
(1.03723 3.02429e-12 0)
(1.03676 3.01058e-12 0)
(1.03629 2.99685e-12 0)
(1.0358 2.98324e-12 0)
(1.0353 2.96968e-12 0)
(1.03479 2.95614e-12 0)
(1.03428 2.94251e-12 0)
(1.03375 2.92881e-12 0)
(1.03321 2.91525e-12 0)
(1.03266 2.90175e-12 0)
(1.0321 2.88827e-12 0)
(1.03153 2.87477e-12 0)
(1.03095 2.86127e-12 0)
(1.03036 2.84772e-12 0)
(1.02976 2.83421e-12 0)
(1.02915 2.82085e-12 0)
(1.02853 2.80748e-12 0)
(1.0279 2.79409e-12 0)
(1.02726 2.78082e-12 0)
(1.02661 2.76755e-12 0)
(1.02595 2.75432e-12 0)
(1.02528 2.74101e-12 0)
(1.0246 2.72786e-12 0)
(1.02391 2.71452e-12 0)
(1.02321 2.70145e-12 0)
(1.0225 2.68818e-12 0)
(1.02178 2.67541e-12 0)
(1.02105 2.66195e-12 0)
(1.02031 2.64956e-12 0)
(1.01956 2.63572e-12 0)
(1.0188 2.62424e-12 0)
(1.01803 2.60979e-12 0)
(1.01726 2.59978e-12 0)
(1.01647 2.58366e-12 0)
(1.01567 2.57643e-12 0)
(1.01486 2.55654e-12 0)
(1.01404 2.55491e-12 0)
(1.01321 2.5274e-12 0)
(1.01237 2.53681e-12 0)
(1.01152 2.49354e-12 0)
(1.01066 2.52496e-12 0)
(1.0098 2.45078e-12 0)
(1.00892 2.53102e-12 0)
(1.00803 2.40735e-12 0)
(1.00713 2.56729e-12 0)
(1.00622 2.28836e-12 0)
(1.0053 2.6237e-12 0)
(1.00437 2.13495e-12 0)
(1.00343 2.80465e-12 0)
(1.00248 1.84049e-12 0)
(1.00152 3.16282e-12 0)
(1.00055 1.28431e-12 0)
(0.999572 3.87391e-12 0)
(0.99858 2.3185e-13 0)
(0.997579 5.23727e-12 0)
(0.996566 -1.7007e-12 0)
(0.995543 7.82292e-12 0)
(0.99451 -5.15781e-12 0)
(0.993465 1.25936e-11 0)
(0.99241 -1.16794e-11 0)
(0.991344 2.11854e-11 0)
(0.990267 -2.5073e-11 0)
(0.989179 3.88602e-11 0)
(0.98808 -5.28912e-11 0)
(0.98697 8.07191e-11 0)
(0.985848 -1.08819e-10 0)
(0.984715 1.77478e-10 0)
(0.98357 -1.91989e-10 0)
(0.982414 2.65246e-10 0)
(0.981246 -4.49614e-10 0)
(0.980066 1.68325e-10 0)
(0.978874 8.62956e-11 0)
(0.97767 2.78259e-09 0)
(0.976454 -1.48982e-09 0)
(0.975226 -3.84669e-10 0)
(0.973983 3.52609e-09 0)
(0.97273 -4.66605e-09 0)
(0.971464 1.36087e-09 0)
(0.970186 -1.09848e-09 0)
(0.968895 5.5634e-10 0)
(0.967592 -8.73109e-11 0)
(0.966275 5.47753e-11 0)
(0.964946 -3.94332e-11 0)
(0.963603 -1.07285e-10 0)
(0.962247 -2.31969e-11 0)
(0.960877 5.32556e-11 0)
(0.959494 -1.01898e-10 0)
(0.958097 -7.64669e-11 0)
(0.956686 3.58657e-11 0)
(0.95526 -3.30746e-11 0)
(0.953821 -2.31612e-11 0)
(0.952366 -1.31499e-11 0)
(0.950897 -7.6397e-11 0)
(0.949413 -2.107e-12 0)
(0.947913 1.46863e-11 0)
(0.946398 -1.6368e-11 0)
(0.944867 3.23062e-11 0)
(0.94332 -1.7061e-11 0)
(0.941758 -5.02089e-11 0)
(0.940178 6.02742e-12 0)
(0.938582 -2.28509e-11 0)
(0.936969 -2.75229e-11 0)
(0.935338 2.45437e-11 0)
(0.93369 -1.43276e-11 0)
(0.932024 -5.34869e-12 0)
(0.930339 3.37738e-13 0)
(0.928636 -3.35576e-11 0)
(0.926914 5.24205e-12 0)
(0.925173 -1.83184e-11 0)
(0.923412 -8.43849e-12 0)
(0.921631 6.73884e-12 0)
(0.91983 -2.28275e-11 0)
(0.918007 1.52641e-12 0)
(0.916164 -2.2105e-11 0)
(0.914298 -5.08725e-12 0)
(0.912411 8.91224e-14 0)
(0.9105 -7.09268e-12 0)
(0.908567 8.81272e-12 0)
(0.90661 -2.51121e-11 0)
(0.904628 -9.94e-12 0)
(0.902621 1.12139e-11 0)
(0.900589 2.28691e-12 0)
(0.898531 -3.10724e-12 0)
(0.896447 5.87567e-12 0)
(0.894335 6.72626e-12 0)
(0.892194 -1.39203e-11 0)
(0.890025 2.61699e-12 0)
(0.887827 5.89661e-12 0)
(0.885598 -1.52009e-11 0)
(0.883337 2.58007e-12 0)
(0.881045 6.83828e-12 0)
(0.87872 -1.17642e-11 0)
(0.87636 -1.83276e-12 0)
(0.873966 6.15791e-12 0)
(0.871536 -1.37019e-12 0)
(0.869068 -2.93687e-12 0)
(0.866563 8.38611e-13 0)
(0.864017 1.59551e-12 0)
(0.861431 1.56278e-12 0)
(0.858803 5.23096e-14 0)
(0.856131 9.50802e-13 0)
(0.853414 3.97943e-12 0)
(0.85065 -1.56459e-12 0)
(0.847838 -2.35055e-12 0)
(0.844975 3.8026e-12 0)
(0.842061 7.80049e-13 0)
(0.839092 -1.62714e-12 0)
(0.836067 1.78965e-12 0)
(0.832983 1.11571e-12 0)
(0.829839 2.69766e-13 0)
(0.826631 1.42422e-12 0)
(0.823357 1.1879e-12 0)
(0.820013 7.52119e-13 0)
(0.816597 7.49671e-13 0)
(0.813105 1.1298e-12 0)
(0.809533 9.67187e-13 0)
(0.805879 8.03561e-13 0)
(0.802136 8.77244e-13 0)
(0.798301 8.76656e-13 0)
(0.794369 8.8575e-13 0)
(0.790335 8.20238e-13 0)
(0.786192 7.30981e-13 0)
(0.781934 9.13458e-13 0)
(0.777554 6.62507e-13 0)
(0.773045 8.30776e-13 0)
(0.768398 6.90654e-13 0)
(0.763604 7.19189e-13 0)
(0.758652 7.39894e-13 0)
(0.753531 6.07932e-13 0)
(0.748228 7.38872e-13 0)
(0.742729 5.73272e-13 0)
(0.737018 6.64437e-13 0)
(0.731076 5.72773e-13 0)
(0.724884 5.88535e-13 0)
(0.718416 5.55407e-13 0)
(0.711646 5.27229e-13 0)
(0.704542 5.21215e-13 0)
(0.697068 4.79932e-13 0)
(0.689179 4.72345e-13 0)
(0.680824 4.3849e-13 0)
(0.671941 4.2024e-13 0)
(0.662454 3.93034e-13 0)
(0.652268 3.6898e-13 0)
(0.641266 3.43259e-13 0)
(0.629297 3.16828e-13 0)
(0.616164 2.89988e-13 0)
(0.6016 2.62511e-13 0)
(0.585234 2.34214e-13 0)
(0.566527 2.04874e-13 0)
(0.544646 1.75261e-13 0)
(0.5182 1.49526e-13 0)
(0.484562 7.62494e-14 0)
(0.437533 2.65667e-13 0)
(0.340415 -4.37815e-14 0)
)
;

boundaryField
{
    inandouthalf11
    {
        type            cyclic;
    }
    inandouthalf12
    {
        type            cyclic;
    }
    inandouthalf21
    {
        type            cyclic;
    }
    inandouthalf22
    {
        type            cyclic;
    }
    top
    {
        type            calculated;
        value           uniform (0 0 0);
    }
    walls
    {
        type            calculated;
        value           uniform (0 0 0);
    }
    frontAndBackPlanes
    {
        type            empty;
    }
}


// ************************************************************************* //
