/*--------------------------------*- C++ -*----------------------------------*\
| =========                 |                                                 |
| \\      /  F ield         | OpenFOAM: The Open Source CFD Toolbox           |
|  \\    /   O peration     | Version:  2.1.1                                 |
|   \\  /    A nd           | Web:      www.OpenFOAM.org                      |
|    \\/     M anipulation  |                                                 |
\*---------------------------------------------------------------------------*/
FoamFile
{
    version     2.0;
    format      ascii;
    class       volVectorField;
    location    "100";
    object      Ua;
}
// * * * * * * * * * * * * * * * * * * * * * * * * * * * * * * * * * * * * * //

dimensions      [0 1 -1 0 0 0 0];

internalField   nonuniform List<vector> 
600
(
(3.34987e-33 -3.06609e-32 0)
(1.46221e-24 -1.13499e-23 0)
(2.63732e-24 -1.70222e-23 0)
(3.71129e-24 -2.28957e-23 0)
(4.89867e-24 -2.96931e-23 0)
(6.10938e-24 -3.64162e-23 0)
(7.3107e-24 -4.30312e-23 0)
(8.51797e-24 -4.96877e-23 0)
(9.73472e-24 -5.6378e-23 0)
(1.09586e-23 -6.30837e-23 0)
(1.21895e-23 -6.98077e-23 0)
(1.34276e-23 -7.65514e-23 0)
(1.46735e-23 -8.33196e-23 0)
(1.59274e-23 -9.01118e-23 0)
(1.71891e-23 -9.69273e-23 0)
(1.84592e-23 -1.0377e-22 0)
(1.97377e-23 -1.1064e-22 0)
(2.1025e-23 -1.17539e-22 0)
(2.23223e-23 -1.24473e-22 0)
(2.36301e-23 -1.31449e-22 0)
(2.4948e-23 -1.3846e-22 0)
(2.62759e-23 -1.45507e-22 0)
(2.76137e-23 -1.52592e-22 0)
(2.89603e-23 -1.59705e-22 0)
(3.03155e-23 -1.66847e-22 0)
(3.16793e-23 -1.7402e-22 0)
(3.30509e-23 -1.81219e-22 0)
(3.44286e-23 -1.88433e-22 0)
(3.58119e-23 -1.9566e-22 0)
(3.72012e-23 -2.02904e-22 0)
(3.85974e-23 -2.1017e-22 0)
(4.00002e-23 -2.17456e-22 0)
(4.1409e-23 -2.24759e-22 0)
(4.28237e-23 -2.32079e-22 0)
(4.42436e-23 -2.39413e-22 0)
(4.56686e-23 -2.46757e-22 0)
(4.70997e-23 -2.54121e-22 0)
(4.8538e-23 -2.6151e-22 0)
(4.99834e-23 -2.68923e-22 0)
(5.14354e-23 -2.76358e-22 0)
(5.28939e-23 -2.83814e-22 0)
(5.43587e-23 -2.91291e-22 0)
(5.58296e-23 -2.98787e-22 0)
(5.73056e-23 -3.06298e-22 0)
(5.87862e-23 -3.13821e-22 0)
(6.02722e-23 -3.21359e-22 0)
(6.17641e-23 -3.28919e-22 0)
(6.32618e-23 -3.36497e-22 0)
(6.4765e-23 -3.44092e-22 0)
(6.62741e-23 -3.51708e-22 0)
(6.77895e-23 -3.59347e-22 0)
(6.93104e-23 -3.67004e-22 0)
(7.08355e-23 -3.74672e-22 0)
(7.23642e-23 -3.8235e-22 0)
(7.38964e-23 -3.90035e-22 0)
(7.54325e-23 -3.97732e-22 0)
(7.6973e-23 -4.05444e-22 0)
(7.85172e-23 -4.13166e-22 0)
(8.00645e-23 -4.20895e-22 0)
(8.16156e-23 -4.28634e-22 0)
(8.31712e-23 -4.3639e-22 0)
(8.47318e-23 -4.44163e-22 0)
(8.62978e-23 -4.51956e-22 0)
(8.78695e-23 -4.5977e-22 0)
(8.94476e-23 -4.6761e-22 0)
(9.10323e-23 -4.75477e-22 0)
(9.26227e-23 -4.83367e-22 0)
(9.42173e-23 -4.91272e-22 0)
(9.58137e-23 -4.9918e-22 0)
(9.74101e-23 -5.07079e-22 0)
(9.90067e-23 -5.14972e-22 0)
(1.00605e-22 -5.22868e-22 0)
(1.02207e-22 -5.30778e-22 0)
(1.03814e-22 -5.3871e-22 0)
(1.05426e-22 -5.4666e-22 0)
(1.07042e-22 -5.54627e-22 0)
(1.08661e-22 -5.62602e-22 0)
(1.10282e-22 -5.70583e-22 0)
(1.11905e-22 -5.78568e-22 0)
(1.13528e-22 -5.86551e-22 0)
(1.15151e-22 -5.9453e-22 0)
(1.16775e-22 -6.02507e-22 0)
(1.18399e-22 -6.10484e-22 0)
(1.20023e-22 -6.18455e-22 0)
(1.21647e-22 -6.26422e-22 0)
(1.23271e-22 -6.34388e-22 0)
(1.24897e-22 -6.42359e-22 0)
(1.26524e-22 -6.50333e-22 0)
(1.28152e-22 -6.58307e-22 0)
(1.2978e-22 -6.66278e-22 0)
(1.31409e-22 -6.7425e-22 0)
(1.33039e-22 -6.82228e-22 0)
(1.34672e-22 -6.90216e-22 0)
(1.36307e-22 -6.98212e-22 0)
(1.37943e-22 -7.06211e-22 0)
(1.39577e-22 -7.14199e-22 0)
(1.41209e-22 -7.22171e-22 0)
(1.42838e-22 -7.30125e-22 0)
(1.44465e-22 -7.38069e-22 0)
(1.46093e-22 -7.46014e-22 0)
(1.47722e-22 -7.53964e-22 0)
(1.49351e-22 -7.61912e-22 0)
(1.50981e-22 -7.69857e-22 0)
(1.52612e-22 -7.77807e-22 0)
(1.54244e-22 -7.85762e-22 0)
(1.55876e-22 -7.93712e-22 0)
(1.57508e-22 -8.01662e-22 0)
(1.59141e-22 -8.0961e-22 0)
(1.60774e-22 -8.17555e-22 0)
(1.62406e-22 -8.25497e-22 0)
(1.64037e-22 -8.33426e-22 0)
(1.65666e-22 -8.41337e-22 0)
(1.67293e-22 -8.4924e-22 0)
(1.68923e-22 -8.57148e-22 0)
(1.70554e-22 -8.65061e-22 0)
(1.72186e-22 -8.72978e-22 0)
(1.73821e-22 -8.80896e-22 0)
(1.75458e-22 -8.88821e-22 0)
(1.77097e-22 -8.96755e-22 0)
(1.78739e-22 -9.04688e-22 0)
(1.80381e-22 -9.1262e-22 0)
(1.82026e-22 -9.20555e-22 0)
(1.83673e-22 -9.28493e-22 0)
(1.85324e-22 -9.36438e-22 0)
(1.86979e-22 -9.44395e-22 0)
(1.88638e-22 -9.52359e-22 0)
(1.903e-22 -9.6033e-22 0)
(1.91967e-22 -9.68307e-22 0)
(1.93636e-22 -9.76286e-22 0)
(1.9531e-22 -9.84269e-22 0)
(1.9699e-22 -9.92265e-22 0)
(1.98675e-22 -1.00027e-21 0)
(2.00364e-22 -1.00829e-21 0)
(2.02057e-22 -1.01629e-21 0)
(2.03753e-22 -1.02429e-21 0)
(2.05454e-22 -1.03229e-21 0)
(2.07161e-22 -1.0403e-21 0)
(2.08875e-22 -1.04832e-21 0)
(2.10595e-22 -1.05634e-21 0)
(2.12322e-22 -1.06436e-21 0)
(2.14055e-22 -1.07238e-21 0)
(2.15793e-22 -1.0804e-21 0)
(2.17534e-22 -1.08839e-21 0)
(2.19279e-22 -1.09637e-21 0)
(2.2103e-22 -1.10433e-21 0)
(2.22786e-22 -1.11228e-21 0)
(2.24551e-22 -1.12023e-21 0)
(2.26322e-22 -1.12816e-21 0)
(2.281e-22 -1.13608e-21 0)
(2.29884e-22 -1.14397e-21 0)
(2.31674e-22 -1.15184e-21 0)
(2.33473e-22 -1.15969e-21 0)
(2.35281e-22 -1.16752e-21 0)
(2.37099e-22 -1.17534e-21 0)
(2.38927e-22 -1.18313e-21 0)
(2.40764e-22 -1.19089e-21 0)
(2.4261e-22 -1.19861e-21 0)
(2.44464e-22 -1.2063e-21 0)
(2.46327e-22 -1.21393e-21 0)
(2.48199e-22 -1.22152e-21 0)
(2.5008e-22 -1.22906e-21 0)
(2.51971e-22 -1.23654e-21 0)
(2.53875e-22 -1.24397e-21 0)
(2.55794e-22 -1.25135e-21 0)
(2.57729e-22 -1.25868e-21 0)
(2.59683e-22 -1.26597e-21 0)
(2.61659e-22 -1.27321e-21 0)
(2.63664e-22 -1.28043e-21 0)
(2.65702e-22 -1.28762e-21 0)
(2.67781e-22 -1.2948e-21 0)
(2.69902e-22 -1.30197e-21 0)
(2.7206e-22 -1.30911e-21 0)
(2.74238e-22 -1.31613e-21 0)
(2.76402e-22 -1.32292e-21 0)
(2.78503e-22 -1.32934e-21 0)
(2.80486e-22 -1.33521e-21 0)
(2.82294e-22 -1.34039e-21 0)
(2.8388e-22 -1.34479e-21 0)
(2.85199e-22 -1.34833e-21 0)
(2.86215e-22 -1.35097e-21 0)
(2.86915e-22 -1.35274e-21 0)
(2.87335e-22 -1.35375e-21 0)
(2.87582e-22 -1.35428e-21 0)
(2.87812e-22 -1.35469e-21 0)
(2.88325e-22 -1.35573e-21 0)
(2.92769e-22 -1.36757e-21 0)
(2.99763e-22 -1.38324e-21 0)
(3.03836e-22 -1.38939e-21 0)
(3.06053e-22 -1.39236e-21 0)
(3.07353e-22 -1.39371e-21 0)
(3.08345e-22 -1.39427e-21 0)
(3.09987e-22 -1.39437e-21 0)
(3.19069e-22 -1.39355e-21 0)
(0.0480271 9.26776e-05 0)
(0.124102 2.59163e-05 0)
(0.187805 -8.29024e-06 0)
(0.240832 1.35799e-06 0)
(0.286178 8.67981e-08 0)
(0.325746 7.53907e-07 0)
(0.360904 7.29082e-07 0)
(0.392389 7.90849e-07 0)
(0.420818 8.85669e-07 0)
(0.446676 9.9034e-07 0)
(0.470348 1.07682e-06 0)
(0.492141 1.14346e-06 0)
(0.512302 1.20076e-06 0)
(0.531037 1.25791e-06 0)
(0.548513 1.31907e-06 0)
(0.564872 1.3848e-06 0)
(0.580234 1.45394e-06 0)
(0.594702 1.52498e-06 0)
(0.608363 1.5966e-06 0)
(0.621294 1.66784e-06 0)
(0.63356 1.73804e-06 0)
(0.645219 1.80683e-06 0)
(0.656323 1.87398e-06 0)
(0.666917 1.93941e-06 0)
(0.677041 2.00312e-06 0)
(0.68673 2.06514e-06 0)
(0.696018 2.12552e-06 0)
(0.704932 2.18434e-06 0)
(0.713499 2.24164e-06 0)
(0.721742 2.29749e-06 0)
(0.729683 2.35193e-06 0)
(0.737341 2.405e-06 0)
(0.744733 2.45676e-06 0)
(0.751876 2.50722e-06 0)
(0.758784 2.55645e-06 0)
(0.765472 2.60447e-06 0)
(0.771951 2.65134e-06 0)
(0.778233 2.69709e-06 0)
(0.784329 2.74177e-06 0)
(0.790248 2.78542e-06 0)
(0.796 2.82808e-06 0)
(0.801592 2.86981e-06 0)
(0.807034 2.91065e-06 0)
(0.812331 2.95064e-06 0)
(0.81749 2.98982e-06 0)
(0.822519 3.02823e-06 0)
(0.827423 3.06592e-06 0)
(0.832207 3.10292e-06 0)
(0.836877 3.13927e-06 0)
(0.841437 3.175e-06 0)
(0.845891 3.21015e-06 0)
(0.850245 3.24475e-06 0)
(0.854503 3.27882e-06 0)
(0.858667 3.31239e-06 0)
(0.862741 3.3455e-06 0)
(0.86673 3.37816e-06 0)
(0.870635 3.4104e-06 0)
(0.87446 3.44225e-06 0)
(0.878208 3.47373e-06 0)
(0.881881 3.50486e-06 0)
(0.885482 3.53566e-06 0)
(0.889013 3.56615e-06 0)
(0.892477 3.59636e-06 0)
(0.895875 3.62631e-06 0)
(0.89921 3.65601e-06 0)
(0.902483 3.68549e-06 0)
(0.905697 3.71477e-06 0)
(0.908852 3.74388e-06 0)
(0.911952 3.77283e-06 0)
(0.914996 3.80164e-06 0)
(0.917988 3.83035e-06 0)
(0.920927 3.85897e-06 0)
(0.923816 3.88752e-06 0)
(0.926655 3.91603e-06 0)
(0.929447 3.94453e-06 0)
(0.932191 3.97303e-06 0)
(0.93489 4.00157e-06 0)
(0.937544 4.03017e-06 0)
(0.940153 4.05884e-06 0)
(0.94272 4.08763e-06 0)
(0.945245 4.11655e-06 0)
(0.947729 4.14563e-06 0)
(0.950172 4.1749e-06 0)
(0.952575 4.20438e-06 0)
(0.95494 4.23409e-06 0)
(0.957266 4.26408e-06 0)
(0.959555 4.29436e-06 0)
(0.961806 4.32495e-06 0)
(0.964021 4.35589e-06 0)
(0.9662 4.3872e-06 0)
(0.968344 4.41891e-06 0)
(0.970453 4.45105e-06 0)
(0.972528 4.48363e-06 0)
(0.974568 4.51668e-06 0)
(0.976575 4.55023e-06 0)
(0.978548 4.58431e-06 0)
(0.980489 4.61893e-06 0)
(0.982397 4.65412e-06 0)
(0.984273 4.6899e-06 0)
(0.986117 4.7263e-06 0)
(0.987929 4.76332e-06 0)
(0.98971 4.801e-06 0)
(0.991459 4.83935e-06 0)
(0.993178 4.87838e-06 0)
(0.994866 4.91812e-06 0)
(0.996523 4.95858e-06 0)
(0.99815 4.99977e-06 0)
(0.999746 5.04169e-06 0)
(1.00131 5.08437e-06 0)
(1.00285 5.12781e-06 0)
(1.00436 5.17202e-06 0)
(1.00583 5.21699e-06 0)
(1.00728 5.26274e-06 0)
(1.0087 5.30926e-06 0)
(1.01008 5.35654e-06 0)
(1.01144 5.40459e-06 0)
(1.01277 5.4534e-06 0)
(1.01407 5.50295e-06 0)
(1.01534 5.55324e-06 0)
(1.01659 5.60425e-06 0)
(1.0178 5.65596e-06 0)
(1.01898 5.70836e-06 0)
(1.02014 5.76142e-06 0)
(1.02127 5.81511e-06 0)
(1.02237 5.86942e-06 0)
(1.02344 5.9243e-06 0)
(1.02448 5.97974e-06 0)
(1.02549 6.03569e-06 0)
(1.02648 6.09212e-06 0)
(1.02744 6.14899e-06 0)
(1.02837 6.20626e-06 0)
(1.02927 6.26389e-06 0)
(1.03015 6.32184e-06 0)
(1.031 6.38006e-06 0)
(1.03182 6.4385e-06 0)
(1.03262 6.49713e-06 0)
(1.03339 6.55589e-06 0)
(1.03413 6.61474e-06 0)
(1.03485 6.67363e-06 0)
(1.03554 6.73251e-06 0)
(1.03621 6.79133e-06 0)
(1.03685 6.85006e-06 0)
(1.03747 6.90864e-06 0)
(1.03806 6.96703e-06 0)
(1.03863 7.02518e-06 0)
(1.03918 7.08306e-06 0)
(1.0397 7.14062e-06 0)
(1.0402 7.19782e-06 0)
(1.04068 7.25463e-06 0)
(1.04113 7.31101e-06 0)
(1.04156 7.36693e-06 0)
(1.04197 7.42235e-06 0)
(1.04236 7.47726e-06 0)
(1.04273 7.53161e-06 0)
(1.04308 7.58538e-06 0)
(1.04341 7.63855e-06 0)
(1.04372 7.69111e-06 0)
(1.04401 7.74303e-06 0)
(1.04428 7.79429e-06 0)
(1.04453 7.84488e-06 0)
(1.04476 7.89478e-06 0)
(1.04497 7.944e-06 0)
(1.04517 7.9925e-06 0)
(1.04535 8.0403e-06 0)
(1.04551 8.08738e-06 0)
(1.04566 8.13373e-06 0)
(1.04578 8.17936e-06 0)
(1.0459 8.22427e-06 0)
(1.04599 8.26844e-06 0)
(1.04607 8.31188e-06 0)
(1.04614 8.35459e-06 0)
(1.04619 8.39658e-06 0)
(1.04622 8.43783e-06 0)
(1.04624 8.47836e-06 0)
(1.04624 8.51828e-06 0)
(1.04623 8.55724e-06 0)
(1.04621 8.5957e-06 0)
(1.04617 8.6334e-06 0)
(1.04611 8.67038e-06 0)
(1.04605 8.70667e-06 0)
(1.04597 8.74227e-06 0)
(1.04587 8.77718e-06 0)
(1.04577 8.81141e-06 0)
(1.04565 8.84497e-06 0)
(1.04551 8.87785e-06 0)
(1.04537 8.91006e-06 0)
(1.04521 8.9416e-06 0)
(1.04503 8.97249e-06 0)
(1.04485 9.00272e-06 0)
(1.04465 9.03229e-06 0)
(1.04444 9.06121e-06 0)
(1.04422 9.08948e-06 0)
(1.04399 9.11711e-06 0)
(1.04374 9.14408e-06 0)
(1.04348 9.17042e-06 0)
(1.04321 9.1961e-06 0)
(1.04293 9.22115e-06 0)
(1.04264 9.24555e-06 0)
(1.04234 9.26931e-06 0)
(1.04202 9.29242e-06 0)
(1.04169 9.31489e-06 0)
(1.04135 9.33671e-06 0)
(1.041 9.35788e-06 0)
(1.04064 9.3784e-06 0)
(1.04027 9.39827e-06 0)
(1.03988 9.41748e-06 0)
(1.03949 9.43603e-06 0)
(1.03908 9.45392e-06 0)
(1.03866 9.47114e-06 0)
(1.03824 9.48769e-06 0)
(1.0378 9.50357e-06 0)
(1.03735 9.51876e-06 0)
(1.03689 9.53327e-06 0)
(1.03642 9.54709e-06 0)
(1.03594 9.56021e-06 0)
(1.03545 9.57263e-06 0)
(1.03494 9.58434e-06 0)
(1.03443 9.59533e-06 0)
(1.03391 9.60559e-06 0)
(1.03338 9.61512e-06 0)
(1.03283 9.62391e-06 0)
(1.03228 9.63195e-06 0)
(1.03172 9.63923e-06 0)
(1.03115 9.64573e-06 0)
(1.03057 9.65145e-06 0)
(1.02998 9.65638e-06 0)
(1.02937 9.6605e-06 0)
(1.02876 9.66379e-06 0)
(1.02815 9.66625e-06 0)
(1.02752 9.66786e-06 0)
(1.02688 9.6686e-06 0)
(1.02623 9.66846e-06 0)
(1.02558 9.66741e-06 0)
(1.02492 9.66543e-06 0)
(1.02425 9.66251e-06 0)
(1.02357 9.65862e-06 0)
(1.02288 9.65373e-06 0)
(1.02218 9.64781e-06 0)
(1.02148 9.64084e-06 0)
(1.02077 9.63278e-06 0)
(1.02005 9.62359e-06 0)
(1.01933 9.61323e-06 0)
(1.0186 9.60164e-06 0)
(1.01786 9.58878e-06 0)
(1.01712 9.57457e-06 0)
(1.01637 9.55897e-06 0)
(1.01562 9.54185e-06 0)
(1.01486 9.52319e-06 0)
(1.0141 9.50275e-06 0)
(1.01333 9.48058e-06 0)
(1.01256 9.45627e-06 0)
(1.01178 9.43e-06 0)
(1.01101 9.40106e-06 0)
(1.01023 9.36995e-06 0)
(1.00944 9.33534e-06 0)
(1.00866 9.29843e-06 0)
(1.00787 9.25639e-06 0)
(1.00709 9.2113e-06 0)
(1.00631 9.1594e-06 0)
(1.00552 9.11055e-06 0)
(1.00474 9.05716e-06 0)
(1.00396 9.01177e-06 0)
(1.00319 8.9554e-06 0)
(1.00242 8.91421e-06 0)
(1.00165 8.85038e-06 0)
(1.00089 8.8169e-06 0)
(1.00014 8.73797e-06 0)
(0.999393 8.72016e-06 0)
(0.998659 8.61312e-06 0)
(0.997934 8.62703e-06 0)
(0.997224 8.46689e-06 0)
(0.996524 8.53712e-06 0)
(0.995845 8.27277e-06 0)
(0.995174 8.4502e-06 0)
(0.994535 8.01706e-06 0)
(0.993899 8.49664e-06 0)
(0.993312 7.8639e-06 0)
(0.992713 9.18019e-06 0)
(0.992195 8.01641e-06 0)
(0.991634 1.07166e-05 0)
(0.991211 6.83658e-06 0)
(0.990697 9.88187e-06 0)
(0.990401 1.63976e-06 0)
(0.989852 7.39282e-06 0)
(0.989777 2.68019e-06 0)
(0.989041 2.63054e-05 0)
(0.989286 9.82543e-06 0)
(0.988279 1.4877e-05 0)
(0.974108 4.63971e-05 0)
(0.972846 -1.7594e-05 0)
(0.97158 3.11673e-05 0)
(0.970302 -7.54037e-06 0)
(0.969011 7.09392e-06 0)
(0.967708 3.22289e-06 0)
(0.966391 1.25153e-05 0)
(0.965062 1.73686e-05 0)
(0.963719 1.31113e-05 0)
(0.962363 7.08391e-06 0)
(0.960993 3.34086e-06 0)
(0.95961 2.16028e-07 0)
(0.958213 3.6813e-06 0)
(0.956802 9.80526e-06 0)
(0.955376 1.20935e-05 0)
(0.953936 1.21565e-05 0)
(0.952482 8.36279e-06 0)
(0.951013 4.67437e-06 0)
(0.949528 5.02029e-06 0)
(0.948029 4.64641e-06 0)
(0.946514 6.81427e-06 0)
(0.944983 1.02916e-05 0)
(0.943436 9.36871e-06 0)
(0.941873 8.38789e-06 0)
(0.940294 7.0741e-06 0)
(0.938698 4.55233e-06 0)
(0.937084 6.14612e-06 0)
(0.935454 7.96826e-06 0)
(0.933806 7.32918e-06 0)
(0.93214 8.95773e-06 0)
(0.930455 8.17445e-06 0)
(0.928752 6.28419e-06 0)
(0.92703 6.9038e-06 0)
(0.925289 5.81207e-06 0)
(0.923528 7.07598e-06 0)
(0.921747 7.64233e-06 0)
(0.919946 7.17237e-06 0)
(0.918123 7.58727e-06 0)
(0.91628 6.03031e-06 0)
(0.914414 6.86267e-06 0)
(0.912527 6.619e-06 0)
(0.910616 6.72305e-06 0)
(0.908683 7.01156e-06 0)
(0.906725 6.06088e-06 0)
(0.904744 7.30081e-06 0)
(0.902737 6.51889e-06 0)
(0.900705 5.45282e-06 0)
(0.898647 6.34991e-06 0)
(0.896562 7.38572e-06 0)
(0.89445 6.44015e-06 0)
(0.89231 5.44782e-06 0)
(0.890141 6.83092e-06 0)
(0.887942 6.19831e-06 0)
(0.885713 5.5013e-06 0)
(0.883453 6.73701e-06 0)
(0.881161 5.76014e-06 0)
(0.878836 5.16851e-06 0)
(0.876476 6.60747e-06 0)
(0.874082 6.09637e-06 0)
(0.871652 4.8784e-06 0)
(0.869184 5.53863e-06 0)
(0.866678 6.32311e-06 0)
(0.864133 5.69632e-06 0)
(0.861547 4.96308e-06 0)
(0.858919 5.18828e-06 0)
(0.856247 5.82518e-06 0)
(0.85353 5.58054e-06 0)
(0.850766 4.67799e-06 0)
(0.847954 5.09103e-06 0)
(0.845091 5.60014e-06 0)
(0.842177 4.74091e-06 0)
(0.839208 4.60474e-06 0)
(0.836183 5.1837e-06 0)
(0.833099 4.85706e-06 0)
(0.829955 4.47076e-06 0)
(0.826747 4.61999e-06 0)
(0.823472 4.66063e-06 0)
(0.820129 4.46933e-06 0)
(0.816713 4.31421e-06 0)
(0.813221 4.30898e-06 0)
(0.809649 4.25134e-06 0)
(0.805994 4.12775e-06 0)
(0.802252 4.03357e-06 0)
(0.798417 3.96058e-06 0)
(0.794485 3.88711e-06 0)
(0.790451 3.77896e-06 0)
(0.786308 3.68704e-06 0)
(0.78205 3.61515e-06 0)
(0.77767 3.50068e-06 0)
(0.773161 3.42759e-06 0)
(0.768514 3.31613e-06 0)
(0.76372 3.23076e-06 0)
(0.758768 3.13637e-06 0)
(0.753647 3.02295e-06 0)
(0.748344 2.94634e-06 0)
(0.742845 2.82439e-06 0)
(0.737134 2.73908e-06 0)
(0.731192 2.62638e-06 0)
(0.724999 2.52704e-06 0)
(0.718532 2.4212e-06 0)
(0.711762 2.31181e-06 0)
(0.704658 2.20793e-06 0)
(0.697184 2.09443e-06 0)
(0.689295 1.98646e-06 0)
(0.68094 1.87221e-06 0)
(0.672057 1.75916e-06 0)
(0.662569 1.64324e-06 0)
(0.652384 1.52586e-06 0)
(0.641382 1.40678e-06 0)
(0.629413 1.28564e-06 0)
(0.61628 1.16242e-06 0)
(0.601716 1.03688e-06 0)
(0.58535 9.08768e-07 0)
(0.566643 7.777e-07 0)
(0.544762 6.43172e-07 0)
(0.518316 5.05054e-07 0)
(0.484678 3.48359e-07 0)
(0.437649 2.82617e-07 0)
(3.78376e-37 5.61953e-44 0)
)
;

boundaryField
{
    inandouthalf11
    {
        type            cyclic;
    }
    inandouthalf12
    {
        type            cyclic;
    }
    inandouthalf21
    {
        type            cyclic;
    }
    inandouthalf22
    {
        type            cyclic;
    }
    top
    {
        type            fixedValue;
        value           uniform (0 0 0);
    }
    walls
    {
        type            fixedValue;
        value           uniform (0 0 0);
    }
    frontAndBackPlanes
    {
        type            empty;
    }
}


// ************************************************************************* //
