/*--------------------------------*- C++ -*----------------------------------*\
| =========                 |                                                 |
| \\      /  F ield         | OpenFOAM: The Open Source CFD Toolbox           |
|  \\    /   O peration     | Version:  2.1.1                                 |
|   \\  /    A nd           | Web:      www.OpenFOAM.org                      |
|    \\/     M anipulation  |                                                 |
\*---------------------------------------------------------------------------*/
FoamFile
{
    version     2.0;
    format      ascii;
    class       volVectorField;
    location    "100";
    object      Ua_0;
}
// * * * * * * * * * * * * * * * * * * * * * * * * * * * * * * * * * * * * * //

dimensions      [0 1 -1 0 0 0 0];

internalField   nonuniform List<vector> 
600
(
(3.34987e-33 -3.06609e-32 0)
(1.46251e-24 -1.13523e-23 0)
(2.63786e-24 -1.70257e-23 0)
(3.71206e-24 -2.29004e-23 0)
(4.89969e-24 -2.96993e-23 0)
(6.11064e-24 -3.64237e-23 0)
(7.31221e-24 -4.30401e-23 0)
(8.51973e-24 -4.96979e-23 0)
(9.73673e-24 -5.63896e-23 0)
(1.09609e-23 -6.30968e-23 0)
(1.2192e-23 -6.98222e-23 0)
(1.34304e-23 -7.65672e-23 0)
(1.46766e-23 -8.33368e-23 0)
(1.59307e-23 -9.01305e-23 0)
(1.71927e-23 -9.69473e-23 0)
(1.8463e-23 -1.03792e-22 0)
(1.97418e-23 -1.10663e-22 0)
(2.10294e-23 -1.17563e-22 0)
(2.23269e-23 -1.24499e-22 0)
(2.3635e-23 -1.31476e-22 0)
(2.49532e-23 -1.38488e-22 0)
(2.62814e-23 -1.45537e-22 0)
(2.76194e-23 -1.52623e-22 0)
(2.89663e-23 -1.59738e-22 0)
(3.03218e-23 -1.66882e-22 0)
(3.16859e-23 -1.74056e-22 0)
(3.30577e-23 -1.81256e-22 0)
(3.44357e-23 -1.88472e-22 0)
(3.58193e-23 -1.95701e-22 0)
(3.72089e-23 -2.02946e-22 0)
(3.86054e-23 -2.10213e-22 0)
(4.00085e-23 -2.17501e-22 0)
(4.14176e-23 -2.24806e-22 0)
(4.28325e-23 -2.32127e-22 0)
(4.42527e-23 -2.39462e-22 0)
(4.5678e-23 -2.46808e-22 0)
(4.71095e-23 -2.54173e-22 0)
(4.8548e-23 -2.61564e-22 0)
(4.99937e-23 -2.68979e-22 0)
(5.1446e-23 -2.76415e-22 0)
(5.29048e-23 -2.83873e-22 0)
(5.437e-23 -2.91351e-22 0)
(5.58411e-23 -2.98849e-22 0)
(5.73174e-23 -3.06362e-22 0)
(5.87984e-23 -3.13886e-22 0)
(6.02846e-23 -3.21426e-22 0)
(6.17769e-23 -3.28987e-22 0)
(6.32749e-23 -3.36567e-22 0)
(6.47783e-23 -3.44163e-22 0)
(6.62878e-23 -3.5178e-22 0)
(6.78035e-23 -3.59421e-22 0)
(6.93247e-23 -3.6708e-22 0)
(7.08501e-23 -3.7475e-22 0)
(7.23792e-23 -3.82429e-22 0)
(7.39116e-23 -3.90116e-22 0)
(7.54481e-23 -3.97814e-22 0)
(7.69889e-23 -4.05528e-22 0)
(7.85334e-23 -4.13252e-22 0)
(8.00811e-23 -4.20982e-22 0)
(8.16324e-23 -4.28723e-22 0)
(8.31884e-23 -4.3648e-22 0)
(8.47493e-23 -4.44255e-22 0)
(8.63156e-23 -4.5205e-22 0)
(8.78877e-23 -4.59865e-22 0)
(8.9466e-23 -4.67706e-22 0)
(9.10511e-23 -4.75576e-22 0)
(9.26419e-23 -4.83467e-22 0)
(9.42368e-23 -4.91374e-22 0)
(9.58335e-23 -4.99283e-22 0)
(9.74303e-23 -5.07184e-22 0)
(9.90271e-23 -5.15078e-22 0)
(1.00626e-22 -5.22976e-22 0)
(1.02228e-22 -5.30888e-22 0)
(1.03836e-22 -5.38821e-22 0)
(1.05448e-22 -5.46773e-22 0)
(1.07064e-22 -5.54741e-22 0)
(1.08683e-22 -5.62718e-22 0)
(1.10305e-22 -5.70701e-22 0)
(1.11928e-22 -5.78688e-22 0)
(1.13551e-22 -5.86672e-22 0)
(1.15175e-22 -5.94652e-22 0)
(1.16799e-22 -6.02632e-22 0)
(1.18423e-22 -6.10611e-22 0)
(1.20048e-22 -6.18583e-22 0)
(1.21672e-22 -6.26551e-22 0)
(1.23297e-22 -6.34519e-22 0)
(1.24923e-22 -6.42491e-22 0)
(1.2655e-22 -6.50468e-22 0)
(1.28178e-22 -6.58443e-22 0)
(1.29807e-22 -6.66415e-22 0)
(1.31436e-22 -6.74389e-22 0)
(1.33067e-22 -6.82369e-22 0)
(1.347e-22 -6.90358e-22 0)
(1.36335e-22 -6.98356e-22 0)
(1.37971e-22 -7.06357e-22 0)
(1.39606e-22 -7.14347e-22 0)
(1.41238e-22 -7.2232e-22 0)
(1.42867e-22 -7.30276e-22 0)
(1.44495e-22 -7.38222e-22 0)
(1.46123e-22 -7.46168e-22 0)
(1.47752e-22 -7.5412e-22 0)
(1.49382e-22 -7.62069e-22 0)
(1.51012e-22 -7.70016e-22 0)
(1.52643e-22 -7.77968e-22 0)
(1.54275e-22 -7.85924e-22 0)
(1.55908e-22 -7.93876e-22 0)
(1.57541e-22 -8.01827e-22 0)
(1.59174e-22 -8.09777e-22 0)
(1.60807e-22 -8.17724e-22 0)
(1.6244e-22 -8.25668e-22 0)
(1.64071e-22 -8.33598e-22 0)
(1.657e-22 -8.41511e-22 0)
(1.67328e-22 -8.49416e-22 0)
(1.68957e-22 -8.57325e-22 0)
(1.70589e-22 -8.6524e-22 0)
(1.72222e-22 -8.73158e-22 0)
(1.73857e-22 -8.81078e-22 0)
(1.75494e-22 -8.89005e-22 0)
(1.77134e-22 -8.9694e-22 0)
(1.78776e-22 -9.04875e-22 0)
(1.80419e-22 -9.12808e-22 0)
(1.82064e-22 -9.20745e-22 0)
(1.83711e-22 -9.28685e-22 0)
(1.85362e-22 -9.36632e-22 0)
(1.87018e-22 -9.4459e-22 0)
(1.88677e-22 -9.52555e-22 0)
(1.90339e-22 -9.60528e-22 0)
(1.92006e-22 -9.68507e-22 0)
(1.93676e-22 -9.76488e-22 0)
(1.9535e-22 -9.84472e-22 0)
(1.9703e-22 -9.9247e-22 0)
(1.98716e-22 -1.00048e-21 0)
(2.00406e-22 -1.00849e-21 0)
(2.02099e-22 -1.0165e-21 0)
(2.03795e-22 -1.0245e-21 0)
(2.05496e-22 -1.0325e-21 0)
(2.07204e-22 -1.04052e-21 0)
(2.08918e-22 -1.04853e-21 0)
(2.10638e-22 -1.05655e-21 0)
(2.12366e-22 -1.06458e-21 0)
(2.14099e-22 -1.0726e-21 0)
(2.15837e-22 -1.08062e-21 0)
(2.17579e-22 -1.08862e-21 0)
(2.19324e-22 -1.09659e-21 0)
(2.21075e-22 -1.10456e-21 0)
(2.22832e-22 -1.11251e-21 0)
(2.24597e-22 -1.12046e-21 0)
(2.26369e-22 -1.1284e-21 0)
(2.28147e-22 -1.13632e-21 0)
(2.29932e-22 -1.14421e-21 0)
(2.31722e-22 -1.15208e-21 0)
(2.33521e-22 -1.15993e-21 0)
(2.3533e-22 -1.16776e-21 0)
(2.37148e-22 -1.17558e-21 0)
(2.38977e-22 -1.18337e-21 0)
(2.40814e-22 -1.19114e-21 0)
(2.4266e-22 -1.19886e-21 0)
(2.44514e-22 -1.20654e-21 0)
(2.46378e-22 -1.21418e-21 0)
(2.4825e-22 -1.22178e-21 0)
(2.50132e-22 -1.22931e-21 0)
(2.52023e-22 -1.23679e-21 0)
(2.53928e-22 -1.24422e-21 0)
(2.55847e-22 -1.25161e-21 0)
(2.57782e-22 -1.25894e-21 0)
(2.59736e-22 -1.26623e-21 0)
(2.61714e-22 -1.27348e-21 0)
(2.63719e-22 -1.28069e-21 0)
(2.65757e-22 -1.28788e-21 0)
(2.67836e-22 -1.29507e-21 0)
(2.69957e-22 -1.30224e-21 0)
(2.72117e-22 -1.30938e-21 0)
(2.74295e-22 -1.3164e-21 0)
(2.76459e-22 -1.3232e-21 0)
(2.78561e-22 -1.32961e-21 0)
(2.80544e-22 -1.33548e-21 0)
(2.82353e-22 -1.34067e-21 0)
(2.83939e-22 -1.34507e-21 0)
(2.85258e-22 -1.34861e-21 0)
(2.86274e-22 -1.35125e-21 0)
(2.86974e-22 -1.35302e-21 0)
(2.87395e-22 -1.35403e-21 0)
(2.87642e-22 -1.35456e-21 0)
(2.87871e-22 -1.35497e-21 0)
(2.88382e-22 -1.35601e-21 0)
(2.92814e-22 -1.36786e-21 0)
(2.99801e-22 -1.3835e-21 0)
(3.03925e-22 -1.38961e-21 0)
(3.06162e-22 -1.39251e-21 0)
(3.07413e-22 -1.39379e-21 0)
(3.08315e-22 -1.39443e-21 0)
(3.09656e-22 -1.39483e-21 0)
(3.17569e-22 -1.39457e-21 0)
(0.0480855 -6.60877e-05 0)
(0.124094 9.74428e-06 0)
(0.187803 -8.521e-06 0)
(0.240832 1.39867e-06 0)
(0.286178 1.54114e-07 0)
(0.325746 7.69306e-07 0)
(0.360904 7.28249e-07 0)
(0.392389 7.88919e-07 0)
(0.420818 8.88953e-07 0)
(0.446676 9.95523e-07 0)
(0.470348 1.08031e-06 0)
(0.492141 1.14462e-06 0)
(0.512302 1.20049e-06 0)
(0.531037 1.2572e-06 0)
(0.548512 1.31851e-06 0)
(0.564872 1.38456e-06 0)
(0.580234 1.45403e-06 0)
(0.594702 1.5253e-06 0)
(0.608363 1.59706e-06 0)
(0.621294 1.66835e-06 0)
(0.633559 1.73856e-06 0)
(0.645219 1.80731e-06 0)
(0.656323 1.8744e-06 0)
(0.666917 1.93976e-06 0)
(0.677041 2.00341e-06 0)
(0.68673 2.06536e-06 0)
(0.696018 2.1257e-06 0)
(0.704932 2.18447e-06 0)
(0.713499 2.24175e-06 0)
(0.721742 2.29758e-06 0)
(0.729683 2.352e-06 0)
(0.737341 2.40506e-06 0)
(0.744733 2.45681e-06 0)
(0.751876 2.50727e-06 0)
(0.758784 2.55649e-06 0)
(0.765472 2.60451e-06 0)
(0.771951 2.65137e-06 0)
(0.778233 2.69712e-06 0)
(0.784329 2.74179e-06 0)
(0.790248 2.78543e-06 0)
(0.796 2.82809e-06 0)
(0.801592 2.86982e-06 0)
(0.807034 2.91065e-06 0)
(0.812331 2.95063e-06 0)
(0.81749 2.9898e-06 0)
(0.822519 3.02821e-06 0)
(0.827423 3.06589e-06 0)
(0.832207 3.10289e-06 0)
(0.836877 3.13923e-06 0)
(0.841437 3.17496e-06 0)
(0.845891 3.2101e-06 0)
(0.850245 3.24469e-06 0)
(0.854503 3.27876e-06 0)
(0.858667 3.31233e-06 0)
(0.862741 3.34544e-06 0)
(0.86673 3.3781e-06 0)
(0.870635 3.41034e-06 0)
(0.87446 3.44219e-06 0)
(0.878208 3.47367e-06 0)
(0.881881 3.5048e-06 0)
(0.885482 3.5356e-06 0)
(0.889013 3.56609e-06 0)
(0.892477 3.5963e-06 0)
(0.895875 3.62625e-06 0)
(0.89921 3.65595e-06 0)
(0.902483 3.68543e-06 0)
(0.905697 3.71471e-06 0)
(0.908852 3.74382e-06 0)
(0.911952 3.77277e-06 0)
(0.914996 3.80159e-06 0)
(0.917988 3.83029e-06 0)
(0.920927 3.85891e-06 0)
(0.923816 3.88746e-06 0)
(0.926655 3.91597e-06 0)
(0.929447 3.94447e-06 0)
(0.932191 3.97297e-06 0)
(0.93489 4.00151e-06 0)
(0.937543 4.0301e-06 0)
(0.940153 4.05878e-06 0)
(0.94272 4.08756e-06 0)
(0.945245 4.11648e-06 0)
(0.947729 4.14556e-06 0)
(0.950172 4.17483e-06 0)
(0.952575 4.20431e-06 0)
(0.95494 4.23402e-06 0)
(0.957266 4.26401e-06 0)
(0.959554 4.29428e-06 0)
(0.961806 4.32487e-06 0)
(0.964021 4.35581e-06 0)
(0.9662 4.38712e-06 0)
(0.968344 4.41883e-06 0)
(0.970453 4.45096e-06 0)
(0.972528 4.48354e-06 0)
(0.974568 4.51659e-06 0)
(0.976575 4.55015e-06 0)
(0.978548 4.58422e-06 0)
(0.980489 4.61884e-06 0)
(0.982397 4.65403e-06 0)
(0.984273 4.68981e-06 0)
(0.986117 4.7262e-06 0)
(0.987929 4.76323e-06 0)
(0.98971 4.80091e-06 0)
(0.991459 4.83925e-06 0)
(0.993178 4.87829e-06 0)
(0.994866 4.91803e-06 0)
(0.996523 4.95848e-06 0)
(0.99815 4.99967e-06 0)
(0.999746 5.0416e-06 0)
(1.00131 5.08428e-06 0)
(1.00285 5.12772e-06 0)
(1.00436 5.17193e-06 0)
(1.00583 5.2169e-06 0)
(1.00728 5.26265e-06 0)
(1.0087 5.30916e-06 0)
(1.01008 5.35645e-06 0)
(1.01144 5.4045e-06 0)
(1.01277 5.45331e-06 0)
(1.01407 5.50287e-06 0)
(1.01534 5.55316e-06 0)
(1.01659 5.60417e-06 0)
(1.0178 5.65588e-06 0)
(1.01898 5.70828e-06 0)
(1.02014 5.76134e-06 0)
(1.02127 5.81504e-06 0)
(1.02237 5.86935e-06 0)
(1.02344 5.92424e-06 0)
(1.02448 5.97968e-06 0)
(1.02549 6.03563e-06 0)
(1.02648 6.09206e-06 0)
(1.02744 6.14894e-06 0)
(1.02837 6.20621e-06 0)
(1.02927 6.26384e-06 0)
(1.03015 6.32179e-06 0)
(1.031 6.38002e-06 0)
(1.03182 6.43847e-06 0)
(1.03262 6.4971e-06 0)
(1.03339 6.55586e-06 0)
(1.03413 6.61471e-06 0)
(1.03485 6.67361e-06 0)
(1.03554 6.73249e-06 0)
(1.03621 6.79132e-06 0)
(1.03685 6.85005e-06 0)
(1.03747 6.90863e-06 0)
(1.03806 6.96703e-06 0)
(1.03863 7.02518e-06 0)
(1.03918 7.08307e-06 0)
(1.0397 7.14063e-06 0)
(1.0402 7.19784e-06 0)
(1.04068 7.25465e-06 0)
(1.04113 7.31104e-06 0)
(1.04156 7.36696e-06 0)
(1.04197 7.42239e-06 0)
(1.04236 7.47729e-06 0)
(1.04273 7.53164e-06 0)
(1.04308 7.58542e-06 0)
(1.04341 7.6386e-06 0)
(1.04372 7.69116e-06 0)
(1.04401 7.74308e-06 0)
(1.04428 7.79435e-06 0)
(1.04453 7.84494e-06 0)
(1.04476 7.89485e-06 0)
(1.04497 7.94407e-06 0)
(1.04517 7.99258e-06 0)
(1.04535 8.04038e-06 0)
(1.04551 8.08746e-06 0)
(1.04566 8.13382e-06 0)
(1.04578 8.17945e-06 0)
(1.0459 8.22436e-06 0)
(1.04599 8.26853e-06 0)
(1.04607 8.31198e-06 0)
(1.04614 8.3547e-06 0)
(1.04619 8.39668e-06 0)
(1.04622 8.43794e-06 0)
(1.04624 8.47848e-06 0)
(1.04624 8.5184e-06 0)
(1.04623 8.55736e-06 0)
(1.04621 8.59583e-06 0)
(1.04617 8.63353e-06 0)
(1.04611 8.67052e-06 0)
(1.04605 8.70681e-06 0)
(1.04597 8.74242e-06 0)
(1.04587 8.77734e-06 0)
(1.04577 8.81157e-06 0)
(1.04565 8.84513e-06 0)
(1.04551 8.87802e-06 0)
(1.04537 8.91024e-06 0)
(1.04521 8.94179e-06 0)
(1.04503 8.97268e-06 0)
(1.04485 9.00292e-06 0)
(1.04465 9.0325e-06 0)
(1.04444 9.06143e-06 0)
(1.04422 9.08971e-06 0)
(1.04399 9.11734e-06 0)
(1.04374 9.14433e-06 0)
(1.04348 9.17066e-06 0)
(1.04321 9.19636e-06 0)
(1.04293 9.22141e-06 0)
(1.04264 9.24582e-06 0)
(1.04234 9.26958e-06 0)
(1.04202 9.29269e-06 0)
(1.04169 9.31515e-06 0)
(1.04135 9.33697e-06 0)
(1.041 9.35813e-06 0)
(1.04064 9.37864e-06 0)
(1.04027 9.39849e-06 0)
(1.03988 9.41768e-06 0)
(1.03949 9.43621e-06 0)
(1.03908 9.45407e-06 0)
(1.03866 9.47126e-06 0)
(1.03824 9.48777e-06 0)
(1.0378 9.5036e-06 0)
(1.03735 9.51874e-06 0)
(1.03689 9.53319e-06 0)
(1.03642 9.54695e-06 0)
(1.03594 9.56001e-06 0)
(1.03545 9.57235e-06 0)
(1.03494 9.58399e-06 0)
(1.03443 9.5949e-06 0)
(1.03391 9.60509e-06 0)
(1.03338 9.61454e-06 0)
(1.03283 9.62325e-06 0)
(1.03228 9.63121e-06 0)
(1.03172 9.63841e-06 0)
(1.03115 9.64484e-06 0)
(1.03057 9.65049e-06 0)
(1.02998 9.65534e-06 0)
(1.02937 9.65938e-06 0)
(1.02876 9.66261e-06 0)
(1.02815 9.66499e-06 0)
(1.02752 9.66652e-06 0)
(1.02688 9.66718e-06 0)
(1.02623 9.66695e-06 0)
(1.02558 9.66579e-06 0)
(1.02492 9.6637e-06 0)
(1.02425 9.66063e-06 0)
(1.02357 9.65657e-06 0)
(1.02288 9.65149e-06 0)
(1.02218 9.64534e-06 0)
(1.02148 9.63809e-06 0)
(1.02077 9.62971e-06 0)
(1.02005 9.62015e-06 0)
(1.01933 9.60937e-06 0)
(1.0186 9.59731e-06 0)
(1.01786 9.58394e-06 0)
(1.01712 9.56918e-06 0)
(1.01637 9.553e-06 0)
(1.01562 9.53529e-06 0)
(1.01486 9.51605e-06 0)
(1.0141 9.49508e-06 0)
(1.01333 9.47246e-06 0)
(1.01256 9.44784e-06 0)
(1.01178 9.42144e-06 0)
(1.01101 9.39259e-06 0)
(1.01022 9.36185e-06 0)
(1.00944 9.32799e-06 0)
(1.00866 9.29228e-06 0)
(1.00787 9.25206e-06 0)
(1.00709 9.20964e-06 0)
(1.00631 9.16137e-06 0)
(1.00552 9.11705e-06 0)
(1.00474 9.06914e-06 0)
(1.00396 9.03056e-06 0)
(1.00319 8.9827e-06 0)
(1.00242 8.95203e-06 0)
(1.00165 8.90125e-06 0)
(1.00089 8.8833e-06 0)
(1.00014 8.82256e-06 0)
(0.999393 8.8253e-06 0)
(0.998659 8.73991e-06 0)
(0.997934 8.78006e-06 0)
(0.997224 8.64711e-06 0)
(0.996523 8.761e-06 0)
(0.995845 8.54035e-06 0)
(0.995174 8.77874e-06 0)
(0.994535 8.36345e-06 0)
(0.993899 8.78429e-06 0)
(0.993312 8.01004e-06 0)
(0.992715 8.95711e-06 0)
(0.992196 7.78753e-06 0)
(0.991634 1.05286e-05 0)
(0.991209 8.74235e-06 0)
(0.990672 1.5245e-05 0)
(0.990388 8.03705e-06 0)
(0.989898 1.53613e-05 0)
(0.98981 -9.40033e-06 0)
(0.989453 -9.58928e-06 0)
(0.989496 -1.01451e-05 0)
(0.986087 6.6366e-05 0)
(0.974108 6.66877e-05 0)
(0.972846 -1.63615e-05 0)
(0.97158 2.92948e-05 0)
(0.970302 -9.846e-06 0)
(0.969011 7.36126e-06 0)
(0.967708 6.41707e-06 0)
(0.966391 1.57205e-05 0)
(0.965061 1.65407e-05 0)
(0.963719 1.03503e-05 0)
(0.962363 4.89597e-06 0)
(0.960993 2.4817e-06 0)
(0.95961 5.84562e-07 0)
(0.958213 5.24228e-06 0)
(0.956802 1.22719e-05 0)
(0.955376 1.24985e-05 0)
(0.953936 1.07239e-05 0)
(0.952482 7.39979e-06 0)
(0.951013 3.32392e-06 0)
(0.949528 4.81166e-06 0)
(0.948029 6.19863e-06 0)
(0.946514 7.30745e-06 0)
(0.944983 1.09435e-05 0)
(0.943436 9.57434e-06 0)
(0.941873 6.69089e-06 0)
(0.940294 6.80814e-06 0)
(0.938698 5.08714e-06 0)
(0.937084 5.6191e-06 0)
(0.935454 8.77785e-06 0)
(0.933806 8.18953e-06 0)
(0.93214 8.19042e-06 0)
(0.930455 8.18169e-06 0)
(0.928752 5.85772e-06 0)
(0.92703 6.58155e-06 0)
(0.925289 6.41653e-06 0)
(0.923528 6.97094e-06 0)
(0.921747 8.14426e-06 0)
(0.919946 6.86372e-06 0)
(0.918123 7.34255e-06 0)
(0.91628 6.25169e-06 0)
(0.914414 6.45084e-06 0)
(0.912527 7.10863e-06 0)
(0.910616 6.52594e-06 0)
(0.908683 7.20433e-06 0)
(0.906725 6.04485e-06 0)
(0.904744 6.72923e-06 0)
(0.902737 7.15337e-06 0)
(0.900705 5.63038e-06 0)
(0.898647 5.85462e-06 0)
(0.896562 7.09717e-06 0)
(0.89445 7.00375e-06 0)
(0.89231 5.48003e-06 0)
(0.890141 6.31084e-06 0)
(0.887942 6.70854e-06 0)
(0.885713 5.39276e-06 0)
(0.883453 6.36309e-06 0)
(0.881161 6.35546e-06 0)
(0.878836 4.99671e-06 0)
(0.876476 6.10966e-06 0)
(0.874082 6.54367e-06 0)
(0.871652 5.14672e-06 0)
(0.869184 5.10298e-06 0)
(0.866678 6.15166e-06 0)
(0.864133 6.0163e-06 0)
(0.861547 5.1334e-06 0)
(0.858919 4.9764e-06 0)
(0.856247 5.59621e-06 0)
(0.85353 5.79993e-06 0)
(0.850766 4.89292e-06 0)
(0.847954 4.7725e-06 0)
(0.845091 5.56501e-06 0)
(0.842177 5.05311e-06 0)
(0.839208 4.46565e-06 0)
(0.836183 5.01718e-06 0)
(0.833099 5.01976e-06 0)
(0.829955 4.51658e-06 0)
(0.826747 4.52365e-06 0)
(0.823472 4.64887e-06 0)
(0.820129 4.51778e-06 0)
(0.816713 4.32195e-06 0)
(0.813221 4.28114e-06 0)
(0.809649 4.25098e-06 0)
(0.805994 4.14293e-06 0)
(0.802252 4.0307e-06 0)
(0.798417 3.95894e-06 0)
(0.794485 3.88027e-06 0)
(0.790451 3.79295e-06 0)
(0.786308 3.67716e-06 0)
(0.78205 3.61787e-06 0)
(0.77767 3.50458e-06 0)
(0.773161 3.42062e-06 0)
(0.768514 3.32598e-06 0)
(0.763719 3.2209e-06 0)
(0.758768 3.14467e-06 0)
(0.753647 3.01893e-06 0)
(0.748344 2.94692e-06 0)
(0.742845 2.82663e-06 0)
(0.737134 2.73654e-06 0)
(0.731192 2.62892e-06 0)
(0.724999 2.52569e-06 0)
(0.718532 2.4221e-06 0)
(0.711762 2.31172e-06 0)
(0.704658 2.20811e-06 0)
(0.697184 2.09459e-06 0)
(0.689295 1.98656e-06 0)
(0.68094 1.87231e-06 0)
(0.672057 1.75935e-06 0)
(0.662569 1.64326e-06 0)
(0.652384 1.526e-06 0)
(0.641382 1.40685e-06 0)
(0.629413 1.28572e-06 0)
(0.61628 1.16249e-06 0)
(0.601716 1.03694e-06 0)
(0.58535 9.0882e-07 0)
(0.566643 7.77743e-07 0)
(0.544762 6.43207e-07 0)
(0.518316 5.05081e-07 0)
(0.484678 3.48377e-07 0)
(0.437649 2.82631e-07 0)
(3.78376e-37 5.61982e-44 0)
)
;

boundaryField
{
    inandouthalf11
    {
        type            cyclic;
    }
    inandouthalf12
    {
        type            cyclic;
    }
    inandouthalf21
    {
        type            cyclic;
    }
    inandouthalf22
    {
        type            cyclic;
    }
    top
    {
        type            fixedValue;
        value           uniform (0 0 0);
    }
    walls
    {
        type            fixedValue;
        value           uniform (0 0 0);
    }
    frontAndBackPlanes
    {
        type            empty;
    }
}


// ************************************************************************* //
