/*--------------------------------*- C++ -*----------------------------------*\
| =========                 |                                                 |
| \\      /  F ield         | OpenFOAM: The Open Source CFD Toolbox           |
|  \\    /   O peration     | Version:  2.1.1                                 |
|   \\  /    A nd           | Web:      www.OpenFOAM.org                      |
|    \\/     M anipulation  |                                                 |
\*---------------------------------------------------------------------------*/
FoamFile
{
    version     2.0;
    format      ascii;
    class       volVectorField;
    location    "100";
    object      Ub;
}
// * * * * * * * * * * * * * * * * * * * * * * * * * * * * * * * * * * * * * //

dimensions      [0 1 -1 0 0 0 0];

internalField   nonuniform List<vector> 
600
(
(2.17911e-06 8.14661e-12 0)
(2.15126e-06 1.60405e-11 0)
(2.15367e-06 1.60308e-11 0)
(2.15709e-06 1.6089e-11 0)
(2.1565e-06 1.61378e-11 0)
(2.15639e-06 1.62009e-11 0)
(2.15684e-06 1.6267e-11 0)
(2.15718e-06 1.63327e-11 0)
(2.15746e-06 1.63985e-11 0)
(2.15776e-06 1.64639e-11 0)
(2.15807e-06 1.65281e-11 0)
(2.15838e-06 1.65907e-11 0)
(2.15871e-06 1.66516e-11 0)
(2.15902e-06 1.67104e-11 0)
(2.15934e-06 1.67672e-11 0)
(2.15967e-06 1.68219e-11 0)
(2.16e-06 1.68745e-11 0)
(2.16032e-06 1.6925e-11 0)
(2.16067e-06 1.69734e-11 0)
(2.16101e-06 1.70199e-11 0)
(2.16134e-06 1.70644e-11 0)
(2.1617e-06 1.71071e-11 0)
(2.16205e-06 1.7148e-11 0)
(2.16239e-06 1.71872e-11 0)
(2.16276e-06 1.72248e-11 0)
(2.16312e-06 1.72608e-11 0)
(2.16348e-06 1.72953e-11 0)
(2.16385e-06 1.73285e-11 0)
(2.16421e-06 1.73602e-11 0)
(2.16459e-06 1.73908e-11 0)
(2.16497e-06 1.74202e-11 0)
(2.16536e-06 1.74484e-11 0)
(2.16574e-06 1.74755e-11 0)
(2.16614e-06 1.75017e-11 0)
(2.16652e-06 1.75268e-11 0)
(2.16692e-06 1.75511e-11 0)
(2.16732e-06 1.75745e-11 0)
(2.16774e-06 1.75972e-11 0)
(2.16814e-06 1.76189e-11 0)
(2.16856e-06 1.76401e-11 0)
(2.16898e-06 1.76606e-11 0)
(2.1694e-06 1.76804e-11 0)
(2.16984e-06 1.76997e-11 0)
(2.17026e-06 1.77183e-11 0)
(2.17069e-06 1.77365e-11 0)
(2.17113e-06 1.77541e-11 0)
(2.17159e-06 1.77714e-11 0)
(2.17203e-06 1.77882e-11 0)
(2.17248e-06 1.78046e-11 0)
(2.17294e-06 1.78206e-11 0)
(2.17341e-06 1.78364e-11 0)
(2.17387e-06 1.78517e-11 0)
(2.17435e-06 1.78668e-11 0)
(2.17482e-06 1.78817e-11 0)
(2.1753e-06 1.78962e-11 0)
(2.17579e-06 1.79106e-11 0)
(2.17628e-06 1.79248e-11 0)
(2.17678e-06 1.79388e-11 0)
(2.17727e-06 1.79526e-11 0)
(2.17778e-06 1.79663e-11 0)
(2.17829e-06 1.79798e-11 0)
(2.17881e-06 1.79933e-11 0)
(2.17934e-06 1.80067e-11 0)
(2.17985e-06 1.80198e-11 0)
(2.1804e-06 1.80331e-11 0)
(2.18093e-06 1.80462e-11 0)
(2.18148e-06 1.80593e-11 0)
(2.18203e-06 1.80723e-11 0)
(2.18258e-06 1.80854e-11 0)
(2.18313e-06 1.80983e-11 0)
(2.1837e-06 1.81114e-11 0)
(2.18427e-06 1.81244e-11 0)
(2.18485e-06 1.81374e-11 0)
(2.18544e-06 1.81505e-11 0)
(2.18603e-06 1.81635e-11 0)
(2.18663e-06 1.81767e-11 0)
(2.18722e-06 1.81898e-11 0)
(2.18785e-06 1.82031e-11 0)
(2.18845e-06 1.82162e-11 0)
(2.18908e-06 1.82296e-11 0)
(2.1897e-06 1.82429e-11 0)
(2.19034e-06 1.82564e-11 0)
(2.19099e-06 1.82698e-11 0)
(2.19163e-06 1.82834e-11 0)
(2.1923e-06 1.8297e-11 0)
(2.19296e-06 1.83107e-11 0)
(2.19364e-06 1.83245e-11 0)
(2.19432e-06 1.83383e-11 0)
(2.195e-06 1.83522e-11 0)
(2.1957e-06 1.83662e-11 0)
(2.1964e-06 1.83802e-11 0)
(2.19712e-06 1.83943e-11 0)
(2.19784e-06 1.84084e-11 0)
(2.19858e-06 1.84226e-11 0)
(2.19932e-06 1.84369e-11 0)
(2.20006e-06 1.84512e-11 0)
(2.20081e-06 1.84656e-11 0)
(2.20157e-06 1.848e-11 0)
(2.20235e-06 1.84944e-11 0)
(2.20314e-06 1.85089e-11 0)
(2.20394e-06 1.85235e-11 0)
(2.20473e-06 1.8538e-11 0)
(2.20555e-06 1.85525e-11 0)
(2.20638e-06 1.85671e-11 0)
(2.20721e-06 1.85817e-11 0)
(2.20804e-06 1.85962e-11 0)
(2.20891e-06 1.86109e-11 0)
(2.20977e-06 1.86253e-11 0)
(2.21066e-06 1.86399e-11 0)
(2.21155e-06 1.86543e-11 0)
(2.21244e-06 1.86687e-11 0)
(2.21335e-06 1.86831e-11 0)
(2.21428e-06 1.86974e-11 0)
(2.21522e-06 1.87116e-11 0)
(2.21617e-06 1.87257e-11 0)
(2.21714e-06 1.87397e-11 0)
(2.2181e-06 1.87535e-11 0)
(2.21911e-06 1.87674e-11 0)
(2.22011e-06 1.8781e-11 0)
(2.22112e-06 1.87944e-11 0)
(2.22216e-06 1.88077e-11 0)
(2.2232e-06 1.88208e-11 0)
(2.22427e-06 1.88337e-11 0)
(2.22535e-06 1.88463e-11 0)
(2.22645e-06 1.88588e-11 0)
(2.22755e-06 1.88709e-11 0)
(2.22869e-06 1.88829e-11 0)
(2.22983e-06 1.88945e-11 0)
(2.23099e-06 1.89059e-11 0)
(2.23217e-06 1.89168e-11 0)
(2.23338e-06 1.89275e-11 0)
(2.2346e-06 1.89378e-11 0)
(2.23583e-06 1.89477e-11 0)
(2.23709e-06 1.89572e-11 0)
(2.23836e-06 1.89662e-11 0)
(2.23968e-06 1.89749e-11 0)
(2.24101e-06 1.8983e-11 0)
(2.24234e-06 1.89906e-11 0)
(2.24373e-06 1.89978e-11 0)
(2.24512e-06 1.90042e-11 0)
(2.24655e-06 1.90102e-11 0)
(2.248e-06 1.90155e-11 0)
(2.24947e-06 1.90202e-11 0)
(2.25098e-06 1.90242e-11 0)
(2.25252e-06 1.90275e-11 0)
(2.25409e-06 1.903e-11 0)
(2.25569e-06 1.90318e-11 0)
(2.25734e-06 1.90329e-11 0)
(2.259e-06 1.90331e-11 0)
(2.2607e-06 1.90324e-11 0)
(2.26244e-06 1.90307e-11 0)
(2.26424e-06 1.90283e-11 0)
(2.26606e-06 1.90246e-11 0)
(2.26794e-06 1.90201e-11 0)
(2.26985e-06 1.90145e-11 0)
(2.27181e-06 1.90078e-11 0)
(2.27383e-06 1.89999e-11 0)
(2.2759e-06 1.89908e-11 0)
(2.27801e-06 1.89804e-11 0)
(2.28021e-06 1.89689e-11 0)
(2.28244e-06 1.89559e-11 0)
(2.28475e-06 1.89416e-11 0)
(2.28714e-06 1.89258e-11 0)
(2.28958e-06 1.89086e-11 0)
(2.29211e-06 1.88898e-11 0)
(2.29472e-06 1.88694e-11 0)
(2.29742e-06 1.88475e-11 0)
(2.30021e-06 1.88238e-11 0)
(2.30309e-06 1.87983e-11 0)
(2.30611e-06 1.87711e-11 0)
(2.30923e-06 1.8742e-11 0)
(2.3125e-06 1.8711e-11 0)
(2.3159e-06 1.86781e-11 0)
(2.31944e-06 1.86431e-11 0)
(2.32316e-06 1.86062e-11 0)
(2.32706e-06 1.85669e-11 0)
(2.33125e-06 1.85254e-11 0)
(2.33579e-06 1.84814e-11 0)
(2.34078e-06 1.84346e-11 0)
(2.34642e-06 1.83849e-11 0)
(2.35283e-06 1.8333e-11 0)
(2.3598e-06 1.82799e-11 0)
(2.36662e-06 1.82196e-11 0)
(2.37513e-06 1.81274e-11 0)
(2.3981e-06 1.80809e-11 0)
(2.41694e-06 1.81281e-11 0)
(2.41109e-06 2.60774e-11 0)
(2.42216e-06 6.80994e-14 0)
(2.437e-06 -1.53927e-09 0)
(2.44866e-06 -5.85453e-09 0)
(2.45977e-06 2.71605e-07 0)
(2.55253e-06 1.95526e-06 0)
(8.5553e-05 -1.35757e-05 0)
(0.0488916 -4.47142e-05 0)
(0.125507 -1.70317e-05 0)
(0.188967 4.40029e-06 0)
(0.241781 -5.01029e-07 0)
(0.286992 1.4116e-07 0)
(0.326536 -1.89372e-07 0)
(0.361585 -1.69565e-07 0)
(0.392975 -1.62526e-07 0)
(0.421326 -1.66415e-07 0)
(0.447122 -1.71071e-07 0)
(0.470742 -1.71169e-07 0)
(0.492491 -1.67396e-07 0)
(0.512617 -1.622e-07 0)
(0.53132 -1.57171e-07 0)
(0.54877 -1.52795e-07 0)
(0.565108 -1.48996e-07 0)
(0.580451 -1.45549e-07 0)
(0.594903 -1.42257e-07 0)
(0.60855 -1.38992e-07 0)
(0.621468 -1.35691e-07 0)
(0.633723 -1.32333e-07 0)
(0.645373 -1.28921e-07 0)
(0.656468 -1.25472e-07 0)
(0.667055 -1.22006e-07 0)
(0.677172 -1.18546e-07 0)
(0.686855 -1.15113e-07 0)
(0.696138 -1.11722e-07 0)
(0.705047 -1.08388e-07 0)
(0.71361 -1.0512e-07 0)
(0.721849 -1.01925e-07 0)
(0.729787 -9.88101e-08 0)
(0.737441 -9.57773e-08 0)
(0.744831 -9.28292e-08 0)
(0.751971 -8.99667e-08 0)
(0.758878 -8.71903e-08 0)
(0.765563 -8.44996e-08 0)
(0.772041 -8.1894e-08 0)
(0.778321 -7.93722e-08 0)
(0.784415 -7.69329e-08 0)
(0.790333 -7.45744e-08 0)
(0.796084 -7.22949e-08 0)
(0.801675 -7.00926e-08 0)
(0.807115 -6.79652e-08 0)
(0.812412 -6.59106e-08 0)
(0.817571 -6.39267e-08 0)
(0.822599 -6.20112e-08 0)
(0.827502 -6.01618e-08 0)
(0.832286 -5.83764e-08 0)
(0.836955 -5.66525e-08 0)
(0.841515 -5.49882e-08 0)
(0.84597 -5.33811e-08 0)
(0.850324 -5.18291e-08 0)
(0.854581 -5.03302e-08 0)
(0.858745 -4.88824e-08 0)
(0.86282 -4.74836e-08 0)
(0.866809 -4.61321e-08 0)
(0.870714 -4.48259e-08 0)
(0.87454 -4.35633e-08 0)
(0.878288 -4.23427e-08 0)
(0.881962 -4.11624e-08 0)
(0.885564 -4.00209e-08 0)
(0.889096 -3.89168e-08 0)
(0.89256 -3.78484e-08 0)
(0.895959 -3.68147e-08 0)
(0.899295 -3.58141e-08 0)
(0.90257 -3.48456e-08 0)
(0.905785 -3.3908e-08 0)
(0.908941 -3.3e-08 0)
(0.912042 -3.21207e-08 0)
(0.915088 -3.1269e-08 0)
(0.918081 -3.0444e-08 0)
(0.921022 -2.96447e-08 0)
(0.923912 -2.88702e-08 0)
(0.926754 -2.81197e-08 0)
(0.929547 -2.73923e-08 0)
(0.932293 -2.66873e-08 0)
(0.934994 -2.60039e-08 0)
(0.937649 -2.53415e-08 0)
(0.940261 -2.46992e-08 0)
(0.94283 -2.40766e-08 0)
(0.945358 -2.34728e-08 0)
(0.947844 -2.28873e-08 0)
(0.950289 -2.23196e-08 0)
(0.952695 -2.1769e-08 0)
(0.955063 -2.12351e-08 0)
(0.957392 -2.07172e-08 0)
(0.959683 -2.02149e-08 0)
(0.961938 -1.97277e-08 0)
(0.964156 -1.92551e-08 0)
(0.966339 -1.87967e-08 0)
(0.968486 -1.83521e-08 0)
(0.970598 -1.79207e-08 0)
(0.972677 -1.75022e-08 0)
(0.974721 -1.70962e-08 0)
(0.976731 -1.67023e-08 0)
(0.978709 -1.63202e-08 0)
(0.980654 -1.59494e-08 0)
(0.982566 -1.55897e-08 0)
(0.984446 -1.52406e-08 0)
(0.986295 -1.49019e-08 0)
(0.988111 -1.45732e-08 0)
(0.989897 -1.42542e-08 0)
(0.991651 -1.39446e-08 0)
(0.993375 -1.36442e-08 0)
(0.995067 -1.33526e-08 0)
(0.99673 -1.30696e-08 0)
(0.998362 -1.27949e-08 0)
(0.999963 -1.25282e-08 0)
(1.00153 -1.22693e-08 0)
(1.00308 -1.2018e-08 0)
(1.00459 -1.17739e-08 0)
(1.00607 -1.15369e-08 0)
(1.00752 -1.13068e-08 0)
(1.00895 -1.10832e-08 0)
(1.01034 -1.08661e-08 0)
(1.0117 -1.06552e-08 0)
(1.01304 -1.04502e-08 0)
(1.01435 -1.02511e-08 0)
(1.01562 -1.00576e-08 0)
(1.01687 -9.86947e-09 0)
(1.01809 -9.68661e-09 0)
(1.01928 -9.50881e-09 0)
(1.02044 -9.33591e-09 0)
(1.02157 -9.16774e-09 0)
(1.02268 -9.00414e-09 0)
(1.02375 -8.84496e-09 0)
(1.0248 -8.69003e-09 0)
(1.02582 -8.53923e-09 0)
(1.02681 -8.39239e-09 0)
(1.02777 -8.2494e-09 0)
(1.02871 -8.1101e-09 0)
(1.02962 -7.97438e-09 0)
(1.0305 -7.84211e-09 0)
(1.03135 -7.71316e-09 0)
(1.03218 -7.58742e-09 0)
(1.03297 -7.46478e-09 0)
(1.03375 -7.34513e-09 0)
(1.03449 -7.22836e-09 0)
(1.03521 -7.11437e-09 0)
(1.03591 -7.00305e-09 0)
(1.03658 -6.89433e-09 0)
(1.03722 -6.7881e-09 0)
(1.03784 -6.68428e-09 0)
(1.03843 -6.58278e-09 0)
(1.039 -6.48352e-09 0)
(1.03955 -6.38643e-09 0)
(1.04007 -6.29142e-09 0)
(1.04057 -6.19843e-09 0)
(1.04105 -6.10739e-09 0)
(1.0415 -6.01823e-09 0)
(1.04194 -5.93088e-09 0)
(1.04235 -5.84529e-09 0)
(1.04274 -5.7614e-09 0)
(1.04311 -5.67915e-09 0)
(1.04346 -5.59849e-09 0)
(1.04378 -5.51937e-09 0)
(1.04409 -5.44173e-09 0)
(1.04438 -5.36553e-09 0)
(1.04465 -5.29073e-09 0)
(1.0449 -5.21727e-09 0)
(1.04514 -5.14513e-09 0)
(1.04535 -5.07426e-09 0)
(1.04555 -5.00462e-09 0)
(1.04573 -4.93618e-09 0)
(1.04589 -4.86889e-09 0)
(1.04604 -4.80274e-09 0)
(1.04617 -4.73768e-09 0)
(1.04628 -4.67369e-09 0)
(1.04638 -4.61074e-09 0)
(1.04646 -4.54879e-09 0)
(1.04653 -4.48782e-09 0)
(1.04658 -4.42782e-09 0)
(1.04662 -4.36874e-09 0)
(1.04664 -4.31056e-09 0)
(1.04665 -4.25328e-09 0)
(1.04664 -4.19685e-09 0)
(1.04662 -4.14127e-09 0)
(1.04659 -4.0865e-09 0)
(1.04654 -4.03254e-09 0)
(1.04648 -3.97936e-09 0)
(1.0464 -3.92694e-09 0)
(1.04631 -3.87527e-09 0)
(1.04621 -3.82433e-09 0)
(1.0461 -3.7741e-09 0)
(1.04597 -3.72457e-09 0)
(1.04584 -3.67573e-09 0)
(1.04568 -3.62755e-09 0)
(1.04552 -3.58002e-09 0)
(1.04535 -3.53313e-09 0)
(1.04516 -3.48687e-09 0)
(1.04496 -3.44122e-09 0)
(1.04475 -3.39618e-09 0)
(1.04452 -3.35172e-09 0)
(1.04429 -3.30784e-09 0)
(1.04404 -3.26452e-09 0)
(1.04378 -3.22176e-09 0)
(1.04351 -3.17955e-09 0)
(1.04323 -3.13786e-09 0)
(1.04294 -3.09671e-09 0)
(1.04263 -3.05606e-09 0)
(1.04232 -3.01592e-09 0)
(1.04199 -2.97627e-09 0)
(1.04166 -2.93711e-09 0)
(1.04131 -2.89842e-09 0)
(1.04095 -2.86021e-09 0)
(1.04058 -2.82245e-09 0)
(1.0402 -2.78515e-09 0)
(1.03981 -2.74829e-09 0)
(1.0394 -2.71186e-09 0)
(1.03899 -2.67587e-09 0)
(1.03857 -2.64029e-09 0)
(1.03813 -2.60513e-09 0)
(1.03769 -2.57038e-09 0)
(1.03723 -2.53603e-09 0)
(1.03676 -2.50207e-09 0)
(1.03629 -2.4685e-09 0)
(1.0358 -2.43531e-09 0)
(1.0353 -2.40249e-09 0)
(1.03479 -2.37004e-09 0)
(1.03428 -2.33794e-09 0)
(1.03375 -2.30621e-09 0)
(1.03321 -2.27482e-09 0)
(1.03266 -2.24377e-09 0)
(1.0321 -2.21305e-09 0)
(1.03153 -2.18267e-09 0)
(1.03095 -2.15261e-09 0)
(1.03036 -2.12286e-09 0)
(1.02976 -2.09343e-09 0)
(1.02915 -2.0643e-09 0)
(1.02853 -2.03546e-09 0)
(1.0279 -2.00692e-09 0)
(1.02726 -1.97867e-09 0)
(1.02661 -1.95069e-09 0)
(1.02595 -1.92298e-09 0)
(1.02528 -1.89554e-09 0)
(1.0246 -1.86835e-09 0)
(1.02391 -1.84142e-09 0)
(1.02321 -1.81473e-09 0)
(1.0225 -1.78827e-09 0)
(1.02178 -1.76204e-09 0)
(1.02105 -1.73603e-09 0)
(1.02031 -1.71023e-09 0)
(1.01956 -1.68463e-09 0)
(1.0188 -1.65922e-09 0)
(1.01803 -1.63399e-09 0)
(1.01726 -1.60893e-09 0)
(1.01647 -1.58401e-09 0)
(1.01567 -1.55923e-09 0)
(1.01486 -1.53457e-09 0)
(1.01404 -1.51e-09 0)
(1.01321 -1.48551e-09 0)
(1.01237 -1.46107e-09 0)
(1.01152 -1.43664e-09 0)
(1.01066 -1.4122e-09 0)
(1.0098 -1.38772e-09 0)
(1.00892 -1.36312e-09 0)
(1.00803 -1.33835e-09 0)
(1.00713 -1.31322e-09 0)
(1.00622 -1.288e-09 0)
(1.0053 -1.26314e-09 0)
(1.00437 -1.23903e-09 0)
(1.00343 -1.21539e-09 0)
(1.00248 -1.19241e-09 0)
(1.00152 -1.16966e-09 0)
(1.00055 -1.14763e-09 0)
(0.999572 -1.12553e-09 0)
(0.99858 -1.10433e-09 0)
(0.997578 -1.08265e-09 0)
(0.996566 -1.06226e-09 0)
(0.995543 -1.04072e-09 0)
(0.994509 -1.02102e-09 0)
(0.993465 -9.9863e-10 0)
(0.99241 -9.79169e-10 0)
(0.991344 -9.54618e-10 0)
(0.990267 -9.3928e-10 0)
(0.989179 -9.18017e-10 0)
(0.988079 -9.27589e-10 0)
(0.986969 -9.27917e-10 0)
(0.985847 -9.78882e-10 0)
(0.984714 -9.71694e-10 0)
(0.983569 -9.16314e-10 0)
(0.982413 -7.69372e-10 0)
(0.981245 -6.19289e-10 0)
(0.980065 -5.87703e-10 0)
(0.978873 -1.84663e-10 0)
(0.977669 1.49223e-10 0)
(0.976453 -2.47261e-09 0)
(0.975224 -1.86344e-09 0)
(0.973983 -1.0256e-09 0)
(0.97273 -2.96407e-09 0)
(0.971464 -1.61241e-09 0)
(0.970186 -3.89285e-10 0)
(0.968895 -1.01545e-10 0)
(0.967592 -3.82039e-10 0)
(0.966275 -1.07363e-09 0)
(0.964946 -1.5834e-09 0)
(0.963603 -1.25634e-09 0)
(0.962247 -6.35236e-10 0)
(0.960877 -2.31296e-10 0)
(0.959494 -1.20046e-10 0)
(0.958097 -3.81194e-10 0)
(0.956686 -7.64224e-10 0)
(0.95526 -1.00582e-09 0)
(0.953821 -9.86982e-10 0)
(0.952366 -6.6668e-10 0)
(0.950897 -4.36443e-10 0)
(0.949413 -3.83218e-10 0)
(0.947913 -3.32952e-10 0)
(0.946398 -5.18828e-10 0)
(0.944867 -7.15534e-10 0)
(0.94332 -6.87935e-10 0)
(0.941758 -6.42069e-10 0)
(0.940178 -4.85805e-10 0)
(0.938582 -3.34707e-10 0)
(0.936969 -4.42348e-10 0)
(0.935338 -5.05297e-10 0)
(0.93369 -4.94442e-10 0)
(0.932024 -5.83388e-10 0)
(0.930339 -5.19255e-10 0)
(0.928636 -4.26999e-10 0)
(0.926914 -4.20459e-10 0)
(0.925173 -3.71274e-10 0)
(0.923412 -4.31603e-10 0)
(0.921631 -4.43303e-10 0)
(0.91983 -4.38708e-10 0)
(0.918007 -4.3161e-10 0)
(0.916164 -3.61021e-10 0)
(0.914298 -3.84763e-10 0)
(0.912411 -3.60363e-10 0)
(0.9105 -3.67441e-10 0)
(0.908567 -3.61036e-10 0)
(0.90661 -3.39721e-10 0)
(0.904628 -3.82825e-10 0)
(0.902621 -3.16361e-10 0)
(0.900589 -2.67269e-10 0)
(0.898531 -3.11878e-10 0)
(0.896447 -3.47349e-10 0)
(0.894335 -2.96172e-10 0)
(0.892194 -2.65874e-10 0)
(0.890025 -3.07989e-10 0)
(0.887827 -2.71172e-10 0)
(0.885598 -2.56919e-10 0)
(0.883337 -2.88337e-10 0)
(0.881045 -2.37584e-10 0)
(0.87872 -2.27249e-10 0)
(0.87636 -2.72449e-10 0)
(0.873966 -2.39083e-10 0)
(0.871536 -1.94094e-10 0)
(0.869068 -2.17777e-10 0)
(0.866563 -2.39942e-10 0)
(0.864017 -2.11309e-10 0)
(0.861431 -1.80474e-10 0)
(0.858803 -1.86655e-10 0)
(0.856131 -2.04678e-10 0)
(0.853414 -1.89215e-10 0)
(0.85065 -1.60355e-10 0)
(0.847838 -1.71751e-10 0)
(0.844975 -1.78815e-10 0)
(0.842061 -1.50692e-10 0)
(0.839092 -1.45734e-10 0)
(0.836067 -1.57067e-10 0)
(0.832983 -1.44597e-10 0)
(0.829839 -1.30991e-10 0)
(0.826631 -1.31279e-10 0)
(0.823357 -1.29738e-10 0)
(0.820013 -1.21995e-10 0)
(0.816597 -1.15047e-10 0)
(0.813105 -1.11856e-10 0)
(0.809533 -1.07889e-10 0)
(0.805879 -1.02362e-10 0)
(0.802136 -9.74791e-11 0)
(0.798301 -9.33023e-11 0)
(0.794369 -8.92057e-11 0)
(0.790335 -8.45007e-11 0)
(0.786192 -8.03165e-11 0)
(0.781934 -7.64079e-11 0)
(0.777554 -7.21419e-11 0)
(0.773045 -6.8436e-11 0)
(0.768398 -6.43789e-11 0)
(0.763604 -6.07868e-11 0)
(0.758652 -5.71414e-11 0)
(0.753531 -5.34229e-11 0)
(0.748228 -5.02137e-11 0)
(0.742729 -4.66348e-11 0)
(0.737018 -4.35336e-11 0)
(0.731076 -4.02887e-11 0)
(0.724884 -3.72668e-11 0)
(0.718416 -3.43143e-11 0)
(0.711646 -3.14285e-11 0)
(0.704542 -2.87174e-11 0)
(0.697068 -2.60367e-11 0)
(0.689179 -2.35167e-11 0)
(0.680824 -2.10711e-11 0)
(0.671941 -1.87506e-11 0)
(0.662454 -1.65354e-11 0)
(0.652268 -1.44322e-11 0)
(0.641266 -1.24463e-11 0)
(0.629297 -1.05773e-11 0)
(0.616164 -8.82947e-12 0)
(0.6016 -7.20634e-12 0)
(0.585234 -5.7128e-12 0)
(0.566527 -4.35449e-12 0)
(0.544646 -3.13786e-12 0)
(0.5182 -2.07111e-12 0)
(0.484562 -1.16861e-12 0)
(0.437533 -4.71441e-13 0)
(0.340415 -4.37816e-14 0)
)
;

boundaryField
{
    inandouthalf11
    {
        type            cyclic;
    }
    inandouthalf12
    {
        type            cyclic;
    }
    inandouthalf21
    {
        type            cyclic;
    }
    inandouthalf22
    {
        type            cyclic;
    }
    top
    {
        type            fixedValue;
        value           uniform (0 0 0);
    }
    walls
    {
        type            fixedValue;
        value           uniform (0 0 0);
    }
    frontAndBackPlanes
    {
        type            empty;
    }
}


// ************************************************************************* //
