/*--------------------------------*- C++ -*----------------------------------*\
| =========                 |                                                 |
| \\      /  F ield         | OpenFOAM: The Open Source CFD Toolbox           |
|  \\    /   O peration     | Version:  2.1.1                                 |
|   \\  /    A nd           | Web:      www.OpenFOAM.org                      |
|    \\/     M anipulation  |                                                 |
\*---------------------------------------------------------------------------*/
FoamFile
{
    version     2.0;
    format      ascii;
    class       volVectorField;
    location    "100";
    object      Ub_0;
}
// * * * * * * * * * * * * * * * * * * * * * * * * * * * * * * * * * * * * * //

dimensions      [0 1 -1 0 0 0 0];

internalField   nonuniform List<vector> 
600
(
(2.17911e-06 5.47036e-12 0)
(2.15126e-06 1.10264e-11 0)
(2.15367e-06 1.12074e-11 0)
(2.15709e-06 1.12446e-11 0)
(2.1565e-06 1.12816e-11 0)
(2.15639e-06 1.13257e-11 0)
(2.15684e-06 1.13715e-11 0)
(2.15718e-06 1.14175e-11 0)
(2.15746e-06 1.14635e-11 0)
(2.15776e-06 1.15092e-11 0)
(2.15807e-06 1.15541e-11 0)
(2.15838e-06 1.15979e-11 0)
(2.15871e-06 1.16404e-11 0)
(2.15902e-06 1.16816e-11 0)
(2.15934e-06 1.17213e-11 0)
(2.15967e-06 1.17595e-11 0)
(2.16e-06 1.17963e-11 0)
(2.16032e-06 1.18316e-11 0)
(2.16067e-06 1.18654e-11 0)
(2.16101e-06 1.18979e-11 0)
(2.16134e-06 1.1929e-11 0)
(2.1617e-06 1.19589e-11 0)
(2.16205e-06 1.19874e-11 0)
(2.16239e-06 1.20148e-11 0)
(2.16276e-06 1.20411e-11 0)
(2.16312e-06 1.20663e-11 0)
(2.16348e-06 1.20904e-11 0)
(2.16385e-06 1.21136e-11 0)
(2.16421e-06 1.21358e-11 0)
(2.16459e-06 1.21571e-11 0)
(2.16497e-06 1.21777e-11 0)
(2.16536e-06 1.21974e-11 0)
(2.16574e-06 1.22163e-11 0)
(2.16614e-06 1.22346e-11 0)
(2.16652e-06 1.22522e-11 0)
(2.16692e-06 1.22692e-11 0)
(2.16732e-06 1.22855e-11 0)
(2.16774e-06 1.23013e-11 0)
(2.16814e-06 1.23166e-11 0)
(2.16856e-06 1.23314e-11 0)
(2.16898e-06 1.23457e-11 0)
(2.1694e-06 1.23595e-11 0)
(2.16984e-06 1.2373e-11 0)
(2.17026e-06 1.2386e-11 0)
(2.17069e-06 1.23987e-11 0)
(2.17113e-06 1.24111e-11 0)
(2.17159e-06 1.24231e-11 0)
(2.17203e-06 1.24348e-11 0)
(2.17248e-06 1.24463e-11 0)
(2.17294e-06 1.24575e-11 0)
(2.17341e-06 1.24685e-11 0)
(2.17387e-06 1.24792e-11 0)
(2.17435e-06 1.24898e-11 0)
(2.17482e-06 1.25001e-11 0)
(2.1753e-06 1.25103e-11 0)
(2.17579e-06 1.25204e-11 0)
(2.17628e-06 1.25303e-11 0)
(2.17678e-06 1.254e-11 0)
(2.17727e-06 1.25497e-11 0)
(2.17778e-06 1.25592e-11 0)
(2.17829e-06 1.25687e-11 0)
(2.17881e-06 1.2578e-11 0)
(2.17934e-06 1.25874e-11 0)
(2.17985e-06 1.25966e-11 0)
(2.1804e-06 1.26058e-11 0)
(2.18093e-06 1.2615e-11 0)
(2.18148e-06 1.26241e-11 0)
(2.18203e-06 1.26332e-11 0)
(2.18258e-06 1.26423e-11 0)
(2.18313e-06 1.26514e-11 0)
(2.1837e-06 1.26605e-11 0)
(2.18427e-06 1.26696e-11 0)
(2.18485e-06 1.26787e-11 0)
(2.18544e-06 1.26878e-11 0)
(2.18603e-06 1.26969e-11 0)
(2.18663e-06 1.27061e-11 0)
(2.18722e-06 1.27153e-11 0)
(2.18785e-06 1.27245e-11 0)
(2.18845e-06 1.27337e-11 0)
(2.18908e-06 1.2743e-11 0)
(2.1897e-06 1.27523e-11 0)
(2.19034e-06 1.27617e-11 0)
(2.19099e-06 1.27711e-11 0)
(2.19163e-06 1.27806e-11 0)
(2.1923e-06 1.27901e-11 0)
(2.19296e-06 1.27997e-11 0)
(2.19364e-06 1.28093e-11 0)
(2.19432e-06 1.28189e-11 0)
(2.195e-06 1.28286e-11 0)
(2.1957e-06 1.28384e-11 0)
(2.1964e-06 1.28481e-11 0)
(2.19712e-06 1.2858e-11 0)
(2.19784e-06 1.28678e-11 0)
(2.19858e-06 1.28778e-11 0)
(2.19932e-06 1.28877e-11 0)
(2.20006e-06 1.28977e-11 0)
(2.20081e-06 1.29077e-11 0)
(2.20157e-06 1.29178e-11 0)
(2.20235e-06 1.29279e-11 0)
(2.20314e-06 1.2938e-11 0)
(2.20394e-06 1.29482e-11 0)
(2.20473e-06 1.29583e-11 0)
(2.20555e-06 1.29684e-11 0)
(2.20638e-06 1.29786e-11 0)
(2.20721e-06 1.29888e-11 0)
(2.20804e-06 1.2999e-11 0)
(2.20891e-06 1.30092e-11 0)
(2.20977e-06 1.30193e-11 0)
(2.21066e-06 1.30294e-11 0)
(2.21155e-06 1.30395e-11 0)
(2.21244e-06 1.30496e-11 0)
(2.21335e-06 1.30596e-11 0)
(2.21428e-06 1.30695e-11 0)
(2.21522e-06 1.30795e-11 0)
(2.21617e-06 1.30893e-11 0)
(2.21714e-06 1.30991e-11 0)
(2.2181e-06 1.31087e-11 0)
(2.21911e-06 1.31184e-11 0)
(2.22011e-06 1.31279e-11 0)
(2.22112e-06 1.31372e-11 0)
(2.22216e-06 1.31465e-11 0)
(2.2232e-06 1.31556e-11 0)
(2.22427e-06 1.31646e-11 0)
(2.22535e-06 1.31735e-11 0)
(2.22645e-06 1.31822e-11 0)
(2.22755e-06 1.31907e-11 0)
(2.22869e-06 1.3199e-11 0)
(2.22983e-06 1.32071e-11 0)
(2.23099e-06 1.32151e-11 0)
(2.23217e-06 1.32227e-11 0)
(2.23338e-06 1.32302e-11 0)
(2.2346e-06 1.32373e-11 0)
(2.23583e-06 1.32442e-11 0)
(2.23709e-06 1.32508e-11 0)
(2.23836e-06 1.32572e-11 0)
(2.23968e-06 1.32632e-11 0)
(2.24101e-06 1.32688e-11 0)
(2.24234e-06 1.32741e-11 0)
(2.24373e-06 1.32791e-11 0)
(2.24512e-06 1.32836e-11 0)
(2.24655e-06 1.32878e-11 0)
(2.248e-06 1.32915e-11 0)
(2.24947e-06 1.32947e-11 0)
(2.25098e-06 1.32975e-11 0)
(2.25252e-06 1.32998e-11 0)
(2.25409e-06 1.33016e-11 0)
(2.25569e-06 1.33028e-11 0)
(2.25734e-06 1.33035e-11 0)
(2.259e-06 1.33036e-11 0)
(2.2607e-06 1.33031e-11 0)
(2.26244e-06 1.33019e-11 0)
(2.26424e-06 1.33001e-11 0)
(2.26606e-06 1.32976e-11 0)
(2.26794e-06 1.32944e-11 0)
(2.26985e-06 1.32904e-11 0)
(2.27181e-06 1.32857e-11 0)
(2.27383e-06 1.32802e-11 0)
(2.2759e-06 1.32738e-11 0)
(2.27801e-06 1.32665e-11 0)
(2.28021e-06 1.32585e-11 0)
(2.28244e-06 1.32494e-11 0)
(2.28475e-06 1.32394e-11 0)
(2.28714e-06 1.32284e-11 0)
(2.28958e-06 1.32163e-11 0)
(2.29211e-06 1.32032e-11 0)
(2.29472e-06 1.3189e-11 0)
(2.29742e-06 1.31736e-11 0)
(2.30021e-06 1.3157e-11 0)
(2.30309e-06 1.31391e-11 0)
(2.30611e-06 1.31201e-11 0)
(2.30923e-06 1.30997e-11 0)
(2.3125e-06 1.30781e-11 0)
(2.3159e-06 1.3055e-11 0)
(2.31944e-06 1.30306e-11 0)
(2.32316e-06 1.30047e-11 0)
(2.32706e-06 1.29774e-11 0)
(2.33125e-06 1.29484e-11 0)
(2.33579e-06 1.29177e-11 0)
(2.34078e-06 1.28851e-11 0)
(2.34642e-06 1.28504e-11 0)
(2.35283e-06 1.2814e-11 0)
(2.3598e-06 1.27763e-11 0)
(2.36662e-06 1.27354e-11 0)
(2.37513e-06 1.26794e-11 0)
(2.3981e-06 1.26344e-11 0)
(2.41694e-06 1.25584e-11 0)
(2.41109e-06 5.44045e-12 0)
(2.42216e-06 -7.99873e-11 0)
(2.437e-06 8.66789e-10 0)
(2.44866e-06 1.96288e-08 0)
(2.45977e-06 -2.79649e-08 0)
(2.5527e-06 -4.06598e-06 0)
(8.55759e-05 -6.75057e-06 0)
(0.0488195 4.29226e-05 0)
(0.125501 -8.5839e-06 0)
(0.188965 3.24685e-06 0)
(0.241781 -1.02486e-06 0)
(0.286992 6.03877e-09 0)
(0.326535 -1.8536e-07 0)
(0.361585 -1.67664e-07 0)
(0.392975 -1.61984e-07 0)
(0.421326 -1.6705e-07 0)
(0.447122 -1.72015e-07 0)
(0.470742 -1.71747e-07 0)
(0.492491 -1.67559e-07 0)
(0.512617 -1.62149e-07 0)
(0.53132 -1.57075e-07 0)
(0.54877 -1.52728e-07 0)
(0.565108 -1.48974e-07 0)
(0.580451 -1.45562e-07 0)
(0.594903 -1.42291e-07 0)
(0.60855 -1.39035e-07 0)
(0.621468 -1.35736e-07 0)
(0.633723 -1.32375e-07 0)
(0.645372 -1.28958e-07 0)
(0.656468 -1.25502e-07 0)
(0.667054 -1.2203e-07 0)
(0.677172 -1.18565e-07 0)
(0.686855 -1.15128e-07 0)
(0.696138 -1.11733e-07 0)
(0.705047 -1.08397e-07 0)
(0.71361 -1.05127e-07 0)
(0.721849 -1.01931e-07 0)
(0.729787 -9.88151e-08 0)
(0.737441 -9.57818e-08 0)
(0.744831 -9.28332e-08 0)
(0.751971 -8.99705e-08 0)
(0.758878 -8.71938e-08 0)
(0.765563 -8.45029e-08 0)
(0.772041 -8.1897e-08 0)
(0.778321 -7.93751e-08 0)
(0.784415 -7.69355e-08 0)
(0.790333 -7.45769e-08 0)
(0.796084 -7.22972e-08 0)
(0.801675 -7.00947e-08 0)
(0.807115 -6.79671e-08 0)
(0.812412 -6.59124e-08 0)
(0.817571 -6.39283e-08 0)
(0.822599 -6.20127e-08 0)
(0.827502 -6.01632e-08 0)
(0.832286 -5.83777e-08 0)
(0.836955 -5.66538e-08 0)
(0.841515 -5.49893e-08 0)
(0.84597 -5.33822e-08 0)
(0.850324 -5.18302e-08 0)
(0.854581 -5.03313e-08 0)
(0.858745 -4.88834e-08 0)
(0.86282 -4.74847e-08 0)
(0.866809 -4.61331e-08 0)
(0.870714 -4.4827e-08 0)
(0.87454 -4.35644e-08 0)
(0.878288 -4.23438e-08 0)
(0.881962 -4.11636e-08 0)
(0.885564 -4.00221e-08 0)
(0.889096 -3.89179e-08 0)
(0.89256 -3.78497e-08 0)
(0.895959 -3.68159e-08 0)
(0.899295 -3.58154e-08 0)
(0.90257 -3.48469e-08 0)
(0.905785 -3.39093e-08 0)
(0.908941 -3.30013e-08 0)
(0.912042 -3.2122e-08 0)
(0.915088 -3.12704e-08 0)
(0.918081 -3.04453e-08 0)
(0.921022 -2.9646e-08 0)
(0.923912 -2.88715e-08 0)
(0.926754 -2.8121e-08 0)
(0.929547 -2.73937e-08 0)
(0.932293 -2.66887e-08 0)
(0.934994 -2.60053e-08 0)
(0.937649 -2.53428e-08 0)
(0.940261 -2.47006e-08 0)
(0.94283 -2.40779e-08 0)
(0.945358 -2.34741e-08 0)
(0.947844 -2.28887e-08 0)
(0.950289 -2.23209e-08 0)
(0.952695 -2.17704e-08 0)
(0.955063 -2.12364e-08 0)
(0.957392 -2.07185e-08 0)
(0.959683 -2.02162e-08 0)
(0.961938 -1.9729e-08 0)
(0.964156 -1.92565e-08 0)
(0.966339 -1.8798e-08 0)
(0.968486 -1.83534e-08 0)
(0.970598 -1.7922e-08 0)
(0.972677 -1.75035e-08 0)
(0.974721 -1.70975e-08 0)
(0.976731 -1.67036e-08 0)
(0.978709 -1.63215e-08 0)
(0.980654 -1.59507e-08 0)
(0.982566 -1.55909e-08 0)
(0.984446 -1.52419e-08 0)
(0.986295 -1.49031e-08 0)
(0.988111 -1.45745e-08 0)
(0.989897 -1.42555e-08 0)
(0.991651 -1.39459e-08 0)
(0.993375 -1.36455e-08 0)
(0.995067 -1.33539e-08 0)
(0.99673 -1.30709e-08 0)
(0.998362 -1.27962e-08 0)
(0.999963 -1.25295e-08 0)
(1.00153 -1.22706e-08 0)
(1.00308 -1.20193e-08 0)
(1.00459 -1.17752e-08 0)
(1.00607 -1.15382e-08 0)
(1.00752 -1.13081e-08 0)
(1.00895 -1.10845e-08 0)
(1.01034 -1.08674e-08 0)
(1.0117 -1.06565e-08 0)
(1.01304 -1.04515e-08 0)
(1.01435 -1.02524e-08 0)
(1.01562 -1.00589e-08 0)
(1.01687 -9.87077e-09 0)
(1.01809 -9.68791e-09 0)
(1.01928 -9.51012e-09 0)
(1.02044 -9.33722e-09 0)
(1.02157 -9.16905e-09 0)
(1.02268 -9.00545e-09 0)
(1.02375 -8.84626e-09 0)
(1.0248 -8.69134e-09 0)
(1.02582 -8.54053e-09 0)
(1.02681 -8.3937e-09 0)
(1.02777 -8.2507e-09 0)
(1.02871 -8.11141e-09 0)
(1.02962 -7.97568e-09 0)
(1.0305 -7.84341e-09 0)
(1.03135 -7.71446e-09 0)
(1.03218 -7.58872e-09 0)
(1.03297 -7.46608e-09 0)
(1.03375 -7.34643e-09 0)
(1.03449 -7.22965e-09 0)
(1.03521 -7.11566e-09 0)
(1.03591 -7.00435e-09 0)
(1.03658 -6.89562e-09 0)
(1.03722 -6.78939e-09 0)
(1.03784 -6.68556e-09 0)
(1.03843 -6.58406e-09 0)
(1.039 -6.4848e-09 0)
(1.03955 -6.3877e-09 0)
(1.04007 -6.29269e-09 0)
(1.04057 -6.1997e-09 0)
(1.04105 -6.10866e-09 0)
(1.0415 -6.01949e-09 0)
(1.04194 -5.93215e-09 0)
(1.04235 -5.84655e-09 0)
(1.04274 -5.76266e-09 0)
(1.04311 -5.68041e-09 0)
(1.04346 -5.59974e-09 0)
(1.04378 -5.52061e-09 0)
(1.04409 -5.44297e-09 0)
(1.04438 -5.36677e-09 0)
(1.04465 -5.29196e-09 0)
(1.0449 -5.2185e-09 0)
(1.04514 -5.14636e-09 0)
(1.04535 -5.07548e-09 0)
(1.04555 -5.00584e-09 0)
(1.04573 -4.93739e-09 0)
(1.04589 -4.8701e-09 0)
(1.04604 -4.80395e-09 0)
(1.04617 -4.73888e-09 0)
(1.04628 -4.67489e-09 0)
(1.04638 -4.61193e-09 0)
(1.04646 -4.54998e-09 0)
(1.04653 -4.48901e-09 0)
(1.04658 -4.42899e-09 0)
(1.04662 -4.36991e-09 0)
(1.04664 -4.31174e-09 0)
(1.04665 -4.25444e-09 0)
(1.04664 -4.19801e-09 0)
(1.04662 -4.14243e-09 0)
(1.04659 -4.08766e-09 0)
(1.04654 -4.03369e-09 0)
(1.04648 -3.98051e-09 0)
(1.0464 -3.92809e-09 0)
(1.04631 -3.87641e-09 0)
(1.04621 -3.82547e-09 0)
(1.0461 -3.77524e-09 0)
(1.04597 -3.7257e-09 0)
(1.04584 -3.67685e-09 0)
(1.04568 -3.62867e-09 0)
(1.04552 -3.58114e-09 0)
(1.04535 -3.53425e-09 0)
(1.04516 -3.48799e-09 0)
(1.04496 -3.44233e-09 0)
(1.04475 -3.39729e-09 0)
(1.04452 -3.35282e-09 0)
(1.04429 -3.30894e-09 0)
(1.04404 -3.26562e-09 0)
(1.04378 -3.22286e-09 0)
(1.04351 -3.18064e-09 0)
(1.04323 -3.13895e-09 0)
(1.04294 -3.09778e-09 0)
(1.04263 -3.05713e-09 0)
(1.04232 -3.01698e-09 0)
(1.04199 -2.97733e-09 0)
(1.04166 -2.93816e-09 0)
(1.04131 -2.89946e-09 0)
(1.04095 -2.86124e-09 0)
(1.04058 -2.82347e-09 0)
(1.0402 -2.78615e-09 0)
(1.03981 -2.74928e-09 0)
(1.0394 -2.71284e-09 0)
(1.03899 -2.67683e-09 0)
(1.03857 -2.64124e-09 0)
(1.03813 -2.60606e-09 0)
(1.03769 -2.57129e-09 0)
(1.03723 -2.53692e-09 0)
(1.03676 -2.50294e-09 0)
(1.03629 -2.46934e-09 0)
(1.0358 -2.43613e-09 0)
(1.0353 -2.40329e-09 0)
(1.03479 -2.37081e-09 0)
(1.03428 -2.3387e-09 0)
(1.03375 -2.30694e-09 0)
(1.03321 -2.27553e-09 0)
(1.03266 -2.24446e-09 0)
(1.0321 -2.21373e-09 0)
(1.03153 -2.18333e-09 0)
(1.03095 -2.15325e-09 0)
(1.03036 -2.12348e-09 0)
(1.02976 -2.09403e-09 0)
(1.02915 -2.06489e-09 0)
(1.02853 -2.03604e-09 0)
(1.0279 -2.00748e-09 0)
(1.02726 -1.9792e-09 0)
(1.02661 -1.9512e-09 0)
(1.02595 -1.92347e-09 0)
(1.02528 -1.896e-09 0)
(1.0246 -1.86878e-09 0)
(1.02391 -1.84181e-09 0)
(1.02321 -1.81508e-09 0)
(1.0225 -1.78857e-09 0)
(1.02178 -1.76229e-09 0)
(1.02105 -1.73622e-09 0)
(1.02031 -1.71035e-09 0)
(1.01956 -1.68467e-09 0)
(1.0188 -1.65918e-09 0)
(1.01803 -1.63386e-09 0)
(1.01726 -1.60871e-09 0)
(1.01647 -1.5837e-09 0)
(1.01567 -1.55884e-09 0)
(1.01486 -1.5341e-09 0)
(1.01404 -1.50948e-09 0)
(1.01321 -1.48495e-09 0)
(1.01237 -1.4605e-09 0)
(1.01152 -1.43611e-09 0)
(1.01066 -1.41174e-09 0)
(1.0098 -1.38738e-09 0)
(1.00892 -1.36298e-09 0)
(1.00803 -1.33848e-09 0)
(1.00713 -1.31373e-09 0)
(1.00622 -1.28902e-09 0)
(1.0053 -1.26478e-09 0)
(1.00437 -1.24141e-09 0)
(1.00343 -1.21867e-09 0)
(1.00248 -1.19678e-09 0)
(1.00152 -1.17537e-09 0)
(1.00055 -1.15495e-09 0)
(0.999572 -1.13475e-09 0)
(0.99858 -1.11574e-09 0)
(0.997578 -1.09643e-09 0)
(0.996566 -1.07868e-09 0)
(0.995543 -1.05994e-09 0)
(0.994509 -1.04369e-09 0)
(0.993465 -1.02565e-09 0)
(0.99241 -1.01137e-09 0)
(0.991344 -9.92516e-10 0)
(0.990267 -9.77948e-10 0)
(0.989179 -9.51984e-10 0)
(0.988079 -9.40963e-10 0)
(0.986969 -9.13407e-10 0)
(0.985847 -9.5552e-10 0)
(0.984714 -9.75032e-10 0)
(0.983569 -1.12353e-09 0)
(0.982413 -1.28934e-09 0)
(0.981245 -1.15059e-09 0)
(0.980065 -1.06716e-09 0)
(0.978873 1.27504e-09 0)
(0.977669 -1.34883e-10 0)
(0.976453 -1.56327e-08 0)
(0.975224 -5.71643e-09 0)
(0.973983 1.0464e-08 0)
(0.97273 6.80804e-10 0)
(0.971464 -1.85056e-09 0)
(0.970186 -1.69345e-10 0)
(0.968895 -2.42754e-10 0)
(0.967592 -6.46109e-10 0)
(0.966275 -1.39405e-09 0)
(0.964946 -1.56536e-09 0)
(0.963603 -9.91858e-10 0)
(0.962247 -4.24213e-10 0)
(0.960877 -1.77063e-10 0)
(0.959494 -1.2231e-10 0)
(0.958097 -4.75505e-10 0)
(0.956686 -9.75456e-10 0)
(0.95526 -1.05702e-09 0)
(0.953821 -8.88592e-10 0)
(0.952366 -5.71795e-10 0)
(0.950897 -3.4414e-10 0)
(0.949413 -4.03127e-10 0)
(0.947913 -4.2691e-10 0)
(0.946398 -5.51679e-10 0)
(0.944867 -7.78254e-10 0)
(0.94332 -6.93519e-10 0)
(0.941757 -5.4418e-10 0)
(0.940178 -4.79012e-10 0)
(0.938582 -3.4124e-10 0)
(0.936969 -4.08502e-10 0)
(0.935338 -5.65427e-10 0)
(0.93369 -5.39129e-10 0)
(0.932024 -5.55076e-10 0)
(0.930339 -5.18681e-10 0)
(0.928636 -3.96601e-10 0)
(0.926914 -4.11386e-10 0)
(0.925173 -3.87132e-10 0)
(0.923412 -4.27371e-10 0)
(0.921631 -4.72927e-10 0)
(0.91983 -4.26002e-10 0)
(0.918007 -4.24647e-10 0)
(0.916164 -3.58488e-10 0)
(0.914298 -3.69855e-10 0)
(0.912411 -3.82074e-10 0)
(0.9105 -3.63948e-10 0)
(0.908567 -3.73377e-10 0)
(0.906609 -3.29765e-10 0)
(0.904628 -3.66134e-10 0)
(0.902621 -3.5086e-10 0)
(0.900589 -2.72781e-10 0)
(0.898531 -2.86877e-10 0)
(0.896447 -3.39495e-10 0)
(0.894334 -3.19709e-10 0)
(0.892194 -2.63111e-10 0)
(0.890025 -2.94238e-10 0)
(0.887827 -2.90006e-10 0)
(0.885598 -2.49647e-10 0)
(0.883337 -2.82129e-10 0)
(0.881045 -2.59321e-10 0)
(0.87872 -2.16622e-10 0)
(0.87636 -2.5866e-10 0)
(0.873966 -2.58296e-10 0)
(0.871536 -2.0208e-10 0)
(0.869068 -2.01354e-10 0)
(0.866563 -2.34783e-10 0)
(0.864017 -2.23869e-10 0)
(0.861431 -1.86985e-10 0)
(0.858803 -1.78777e-10 0)
(0.856131 -1.98036e-10 0)
(0.853414 -1.97332e-10 0)
(0.85065 -1.65375e-10 0)
(0.847838 -1.62458e-10 0)
(0.844975 -1.79514e-10 0)
(0.842061 -1.5911e-10 0)
(0.839092 -1.41854e-10 0)
(0.836067 -1.53322e-10 0)
(0.832983 -1.49259e-10 0)
(0.829839 -1.3273e-10 0)
(0.826631 -1.29146e-10 0)
(0.823356 -1.29503e-10 0)
(0.820013 -1.23511e-10 0)
(0.816597 -1.15619e-10 0)
(0.813105 -1.11503e-10 0)
(0.809533 -1.08089e-10 0)
(0.805878 -1.02965e-10 0)
(0.802136 -9.77412e-11 0)
(0.798301 -9.34787e-11 0)
(0.794369 -8.93702e-11 0)
(0.790335 -8.49584e-11 0)
(0.786192 -8.04302e-11 0)
(0.781934 -7.66701e-11 0)
(0.777554 -7.2435e-11 0)
(0.773045 -6.85727e-11 0)
(0.768398 -6.47243e-11 0)
(0.763604 -6.08802e-11 0)
(0.758652 -5.74536e-11 0)
(0.753531 -5.35802e-11 0)
(0.748228 -5.0418e-11 0)
(0.742729 -4.68508e-11 0)
(0.737018 -4.36941e-11 0)
(0.731076 -4.04915e-11 0)
(0.724883 -3.74279e-11 0)
(0.718416 -3.44886e-11 0)
(0.711646 -3.15856e-11 0)
(0.704542 -2.88725e-11 0)
(0.697068 -2.61815e-11 0)
(0.689179 -2.36561e-11 0)
(0.680824 -2.12017e-11 0)
(0.671941 -1.88756e-11 0)
(0.662453 -1.66512e-11 0)
(0.652268 -1.45409e-11 0)
(0.641266 -1.25466e-11 0)
(0.629297 -1.06695e-11 0)
(0.616164 -8.9131e-12 0)
(0.6016 -7.28136e-12 0)
(0.585234 -5.77906e-12 0)
(0.566527 -4.41112e-12 0)
(0.544646 -3.1848e-12 0)
(0.5182 -2.10895e-12 0)
(0.484562 -1.19686e-12 0)
(0.437533 -4.89823e-13 0)
(0.340415 -5.05501e-14 0)
)
;

boundaryField
{
    inandouthalf11
    {
        type            cyclic;
    }
    inandouthalf12
    {
        type            cyclic;
    }
    inandouthalf21
    {
        type            cyclic;
    }
    inandouthalf22
    {
        type            cyclic;
    }
    top
    {
        type            fixedValue;
        value           uniform (0 0 0);
    }
    walls
    {
        type            fixedValue;
        value           uniform (0 0 0);
    }
    frontAndBackPlanes
    {
        type            empty;
    }
}


// ************************************************************************* //
