/*--------------------------------*- C++ -*----------------------------------*\
| =========                 |                                                 |
| \\      /  F ield         | OpenFOAM: The Open Source CFD Toolbox           |
|  \\    /   O peration     | Version:  2.1.1                                 |
|   \\  /    A nd           | Web:      www.OpenFOAM.org                      |
|    \\/     M anipulation  |                                                 |
\*---------------------------------------------------------------------------*/
FoamFile
{
    version     2.0;
    format      ascii;
    class       volVectorField;
    location    "100";
    object      Ur;
}
// * * * * * * * * * * * * * * * * * * * * * * * * * * * * * * * * * * * * * //

dimensions      [0 1 -1 0 0 0 0];

internalField   nonuniform List<vector> 
600
(
(2.17911e-06 8.14661e-12 0)
(2.15126e-06 1.60405e-11 0)
(2.15367e-06 1.60308e-11 0)
(2.15709e-06 1.6089e-11 0)
(2.1565e-06 1.61378e-11 0)
(2.15639e-06 1.62009e-11 0)
(2.15684e-06 1.6267e-11 0)
(2.15718e-06 1.63327e-11 0)
(2.15746e-06 1.63985e-11 0)
(2.15776e-06 1.64639e-11 0)
(2.15807e-06 1.65281e-11 0)
(2.15838e-06 1.65907e-11 0)
(2.15871e-06 1.66516e-11 0)
(2.15902e-06 1.67104e-11 0)
(2.15934e-06 1.67672e-11 0)
(2.15967e-06 1.68219e-11 0)
(2.16e-06 1.68745e-11 0)
(2.16032e-06 1.6925e-11 0)
(2.16067e-06 1.69734e-11 0)
(2.16101e-06 1.70199e-11 0)
(2.16134e-06 1.70644e-11 0)
(2.1617e-06 1.71071e-11 0)
(2.16205e-06 1.7148e-11 0)
(2.16239e-06 1.71872e-11 0)
(2.16276e-06 1.72248e-11 0)
(2.16312e-06 1.72608e-11 0)
(2.16348e-06 1.72953e-11 0)
(2.16385e-06 1.73285e-11 0)
(2.16421e-06 1.73602e-11 0)
(2.16459e-06 1.73908e-11 0)
(2.16497e-06 1.74202e-11 0)
(2.16536e-06 1.74484e-11 0)
(2.16574e-06 1.74755e-11 0)
(2.16614e-06 1.75017e-11 0)
(2.16652e-06 1.75268e-11 0)
(2.16692e-06 1.75511e-11 0)
(2.16732e-06 1.75745e-11 0)
(2.16774e-06 1.75972e-11 0)
(2.16814e-06 1.76189e-11 0)
(2.16856e-06 1.76401e-11 0)
(2.16898e-06 1.76606e-11 0)
(2.1694e-06 1.76804e-11 0)
(2.16984e-06 1.76997e-11 0)
(2.17026e-06 1.77183e-11 0)
(2.17069e-06 1.77365e-11 0)
(2.17113e-06 1.77541e-11 0)
(2.17159e-06 1.77714e-11 0)
(2.17203e-06 1.77882e-11 0)
(2.17248e-06 1.78046e-11 0)
(2.17294e-06 1.78206e-11 0)
(2.17341e-06 1.78364e-11 0)
(2.17387e-06 1.78517e-11 0)
(2.17435e-06 1.78668e-11 0)
(2.17482e-06 1.78817e-11 0)
(2.1753e-06 1.78962e-11 0)
(2.17579e-06 1.79106e-11 0)
(2.17628e-06 1.79248e-11 0)
(2.17678e-06 1.79388e-11 0)
(2.17727e-06 1.79526e-11 0)
(2.17778e-06 1.79663e-11 0)
(2.17829e-06 1.79798e-11 0)
(2.17881e-06 1.79933e-11 0)
(2.17934e-06 1.80067e-11 0)
(2.17985e-06 1.80198e-11 0)
(2.1804e-06 1.80331e-11 0)
(2.18093e-06 1.80462e-11 0)
(2.18148e-06 1.80593e-11 0)
(2.18203e-06 1.80723e-11 0)
(2.18258e-06 1.80854e-11 0)
(2.18313e-06 1.80983e-11 0)
(2.1837e-06 1.81114e-11 0)
(2.18427e-06 1.81244e-11 0)
(2.18485e-06 1.81374e-11 0)
(2.18544e-06 1.81505e-11 0)
(2.18603e-06 1.81635e-11 0)
(2.18663e-06 1.81767e-11 0)
(2.18722e-06 1.81898e-11 0)
(2.18785e-06 1.82031e-11 0)
(2.18845e-06 1.82162e-11 0)
(2.18908e-06 1.82296e-11 0)
(2.1897e-06 1.82429e-11 0)
(2.19034e-06 1.82564e-11 0)
(2.19099e-06 1.82698e-11 0)
(2.19163e-06 1.82834e-11 0)
(2.1923e-06 1.8297e-11 0)
(2.19296e-06 1.83107e-11 0)
(2.19364e-06 1.83245e-11 0)
(2.19432e-06 1.83383e-11 0)
(2.195e-06 1.83522e-11 0)
(2.1957e-06 1.83662e-11 0)
(2.1964e-06 1.83802e-11 0)
(2.19712e-06 1.83943e-11 0)
(2.19784e-06 1.84084e-11 0)
(2.19858e-06 1.84226e-11 0)
(2.19932e-06 1.84369e-11 0)
(2.20006e-06 1.84512e-11 0)
(2.20081e-06 1.84656e-11 0)
(2.20157e-06 1.848e-11 0)
(2.20235e-06 1.84944e-11 0)
(2.20314e-06 1.85089e-11 0)
(2.20394e-06 1.85235e-11 0)
(2.20473e-06 1.8538e-11 0)
(2.20555e-06 1.85525e-11 0)
(2.20638e-06 1.85671e-11 0)
(2.20721e-06 1.85817e-11 0)
(2.20804e-06 1.85962e-11 0)
(2.20891e-06 1.86109e-11 0)
(2.20977e-06 1.86253e-11 0)
(2.21066e-06 1.86399e-11 0)
(2.21155e-06 1.86543e-11 0)
(2.21244e-06 1.86687e-11 0)
(2.21335e-06 1.86831e-11 0)
(2.21428e-06 1.86974e-11 0)
(2.21522e-06 1.87116e-11 0)
(2.21617e-06 1.87257e-11 0)
(2.21714e-06 1.87397e-11 0)
(2.2181e-06 1.87535e-11 0)
(2.21911e-06 1.87674e-11 0)
(2.22011e-06 1.8781e-11 0)
(2.22112e-06 1.87944e-11 0)
(2.22216e-06 1.88077e-11 0)
(2.2232e-06 1.88208e-11 0)
(2.22427e-06 1.88337e-11 0)
(2.22535e-06 1.88463e-11 0)
(2.22645e-06 1.88588e-11 0)
(2.22755e-06 1.88709e-11 0)
(2.22869e-06 1.88829e-11 0)
(2.22983e-06 1.88945e-11 0)
(2.23099e-06 1.89059e-11 0)
(2.23217e-06 1.89168e-11 0)
(2.23338e-06 1.89275e-11 0)
(2.2346e-06 1.89378e-11 0)
(2.23583e-06 1.89477e-11 0)
(2.23709e-06 1.89572e-11 0)
(2.23836e-06 1.89662e-11 0)
(2.23968e-06 1.89749e-11 0)
(2.24101e-06 1.8983e-11 0)
(2.24234e-06 1.89906e-11 0)
(2.24373e-06 1.89978e-11 0)
(2.24512e-06 1.90042e-11 0)
(2.24655e-06 1.90102e-11 0)
(2.248e-06 1.90155e-11 0)
(2.24947e-06 1.90202e-11 0)
(2.25098e-06 1.90242e-11 0)
(2.25252e-06 1.90275e-11 0)
(2.25409e-06 1.903e-11 0)
(2.25569e-06 1.90318e-11 0)
(2.25734e-06 1.90329e-11 0)
(2.259e-06 1.90331e-11 0)
(2.2607e-06 1.90324e-11 0)
(2.26244e-06 1.90307e-11 0)
(2.26424e-06 1.90283e-11 0)
(2.26606e-06 1.90246e-11 0)
(2.26794e-06 1.90201e-11 0)
(2.26985e-06 1.90145e-11 0)
(2.27181e-06 1.90078e-11 0)
(2.27383e-06 1.89999e-11 0)
(2.2759e-06 1.89908e-11 0)
(2.27801e-06 1.89804e-11 0)
(2.28021e-06 1.89689e-11 0)
(2.28244e-06 1.89559e-11 0)
(2.28475e-06 1.89416e-11 0)
(2.28714e-06 1.89258e-11 0)
(2.28958e-06 1.89086e-11 0)
(2.29211e-06 1.88898e-11 0)
(2.29472e-06 1.88694e-11 0)
(2.29742e-06 1.88475e-11 0)
(2.30021e-06 1.88238e-11 0)
(2.30309e-06 1.87983e-11 0)
(2.30611e-06 1.87711e-11 0)
(2.30923e-06 1.8742e-11 0)
(2.3125e-06 1.8711e-11 0)
(2.3159e-06 1.86781e-11 0)
(2.31944e-06 1.86431e-11 0)
(2.32316e-06 1.86062e-11 0)
(2.32706e-06 1.85669e-11 0)
(2.33125e-06 1.85254e-11 0)
(2.33579e-06 1.84814e-11 0)
(2.34078e-06 1.84346e-11 0)
(2.34642e-06 1.83849e-11 0)
(2.35283e-06 1.8333e-11 0)
(2.3598e-06 1.82799e-11 0)
(2.36662e-06 1.82196e-11 0)
(2.37513e-06 1.81274e-11 0)
(2.3981e-06 1.80809e-11 0)
(2.41694e-06 1.81281e-11 0)
(2.41109e-06 2.60774e-11 0)
(2.42216e-06 6.80994e-14 0)
(2.437e-06 -1.53927e-09 0)
(2.44866e-06 -5.85453e-09 0)
(2.45977e-06 2.71605e-07 0)
(2.55253e-06 1.95526e-06 0)
(8.5553e-05 -1.35757e-05 0)
(0.000864505 -0.000137392 0)
(0.00140469 -4.2948e-05 0)
(0.00116146 1.26905e-05 0)
(0.000949382 -1.85902e-06 0)
(0.000814012 5.4362e-08 0)
(0.000789575 -9.43278e-07 0)
(0.000681205 -8.98648e-07 0)
(0.000585916 -9.53375e-07 0)
(0.000508566 -1.05208e-06 0)
(0.000445477 -1.16141e-06 0)
(0.000393534 -1.24798e-06 0)
(0.000350388 -1.31085e-06 0)
(0.000314264 -1.36296e-06 0)
(0.000283801 -1.41508e-06 0)
(0.000257941 -1.47187e-06 0)
(0.000235856 -1.53379e-06 0)
(0.00021689 -1.59948e-06 0)
(0.000200518 -1.66723e-06 0)
(0.000186316 -1.73559e-06 0)
(0.00017394 -1.80353e-06 0)
(0.00016311 -1.87038e-06 0)
(0.000153594 -1.93575e-06 0)
(0.000145202 -1.99945e-06 0)
(0.000137774 -2.06142e-06 0)
(0.000131178 -2.12167e-06 0)
(0.000125303 -2.18025e-06 0)
(0.000120056 -2.23724e-06 0)
(0.000115358 -2.29273e-06 0)
(0.000111143 -2.34676e-06 0)
(0.000107353 -2.39942e-06 0)
(0.000103942 -2.45074e-06 0)
(0.000100866 -2.50078e-06 0)
(9.80918e-05 -2.54958e-06 0)
(9.55881e-05 -2.59719e-06 0)
(9.3329e-05 -2.64364e-06 0)
(9.12918e-05 -2.68897e-06 0)
(8.94569e-05 -2.73323e-06 0)
(8.78075e-05 -2.77646e-06 0)
(8.63285e-05 -2.8187e-06 0)
(8.50073e-05 -2.85999e-06 0)
(8.38325e-05 -2.90038e-06 0)
(8.27943e-05 -2.93991e-06 0)
(8.18842e-05 -2.97862e-06 0)
(8.10945e-05 -3.01655e-06 0)
(8.04186e-05 -3.05375e-06 0)
(7.98507e-05 -3.09025e-06 0)
(7.93858e-05 -3.12608e-06 0)
(7.90194e-05 -3.1613e-06 0)
(7.87476e-05 -3.19592e-06 0)
(7.8567e-05 -3.22999e-06 0)
(7.84747e-05 -3.26353e-06 0)
(7.8468e-05 -3.29658e-06 0)
(7.85448e-05 -3.32915e-06 0)
(7.87032e-05 -3.36127e-06 0)
(7.89416e-05 -3.39298e-06 0)
(7.92587e-05 -3.42429e-06 0)
(7.96535e-05 -3.45523e-06 0)
(8.0125e-05 -3.48582e-06 0)
(8.06726e-05 -3.51607e-06 0)
(8.12959e-05 -3.54602e-06 0)
(8.19947e-05 -3.57568e-06 0)
(8.27687e-05 -3.60507e-06 0)
(8.36182e-05 -3.63421e-06 0)
(8.45432e-05 -3.66312e-06 0)
(8.55442e-05 -3.69182e-06 0)
(8.66216e-05 -3.72034e-06 0)
(8.7776e-05 -3.74868e-06 0)
(8.90082e-05 -3.77688e-06 0)
(9.03189e-05 -3.80495e-06 0)
(9.17093e-05 -3.83291e-06 0)
(9.31802e-05 -3.86079e-06 0)
(9.47329e-05 -3.88861e-06 0)
(9.63687e-05 -3.91639e-06 0)
(9.80888e-05 -3.94415e-06 0)
(9.98946e-05 -3.97192e-06 0)
(0.000101788 -3.99972e-06 0)
(0.00010377 -4.02758e-06 0)
(0.000105842 -4.05551e-06 0)
(0.000108007 -4.08354e-06 0)
(0.000110265 -4.11171e-06 0)
(0.000112619 -4.14002e-06 0)
(0.00011507 -4.16852e-06 0)
(0.000117621 -4.19722e-06 0)
(0.000120273 -4.22614e-06 0)
(0.000123028 -4.25533e-06 0)
(0.000125887 -4.2848e-06 0)
(0.000128853 -4.31457e-06 0)
(0.000131927 -4.34468e-06 0)
(0.000135111 -4.37515e-06 0)
(0.000138406 -4.406e-06 0)
(0.000141814 -4.43727e-06 0)
(0.000145336 -4.46897e-06 0)
(0.000148973 -4.50113e-06 0)
(0.000152726 -4.53378e-06 0)
(0.000156596 -4.56694e-06 0)
(0.000160583 -4.60063e-06 0)
(0.000164687 -4.63488e-06 0)
(0.000168909 -4.66971e-06 0)
(0.000173247 -4.70514e-06 0)
(0.000177701 -4.7412e-06 0)
(0.000182269 -4.7779e-06 0)
(0.000186949 -4.81525e-06 0)
(0.00019174 -4.85329e-06 0)
(0.000196637 -4.89203e-06 0)
(0.000201637 -4.93148e-06 0)
(0.000206737 -4.97165e-06 0)
(0.00021193 -5.01256e-06 0)
(0.000217212 -5.05422e-06 0)
(0.000222576 -5.09664e-06 0)
(0.000228014 -5.13983e-06 0)
(0.00023352 -5.18379e-06 0)
(0.000239083 -5.22853e-06 0)
(0.000244694 -5.27405e-06 0)
(0.000250343 -5.32034e-06 0)
(0.000256019 -5.36741e-06 0)
(0.000261709 -5.41525e-06 0)
(0.000267401 -5.46385e-06 0)
(0.000273082 -5.5132e-06 0)
(0.000278736 -5.5633e-06 0)
(0.000284351 -5.61412e-06 0)
(0.000289909 -5.66565e-06 0)
(0.000295397 -5.71787e-06 0)
(0.000300798 -5.77075e-06 0)
(0.000306097 -5.82428e-06 0)
(0.000311278 -5.87842e-06 0)
(0.000316325 -5.93315e-06 0)
(0.000321224 -5.98843e-06 0)
(0.000325959 -6.04423e-06 0)
(0.000330517 -6.10051e-06 0)
(0.000334884 -6.15724e-06 0)
(0.000339049 -6.21437e-06 0)
(0.000343 -6.27186e-06 0)
(0.000346729 -6.32968e-06 0)
(0.000350226 -6.38777e-06 0)
(0.000353486 -6.44609e-06 0)
(0.000356504 -6.50459e-06 0)
(0.000359278 -6.56323e-06 0)
(0.000361805 -6.62197e-06 0)
(0.000364088 -6.68074e-06 0)
(0.000366128 -6.73951e-06 0)
(0.000367932 -6.79823e-06 0)
(0.000369507 -6.85685e-06 0)
(0.00037086 -6.91532e-06 0)
(0.000372003 -6.97361e-06 0)
(0.000372948 -7.03166e-06 0)
(0.00037371 -7.08944e-06 0)
(0.000374304 -7.14691e-06 0)
(0.000374748 -7.20402e-06 0)
(0.000375059 -7.26074e-06 0)
(0.000375257 -7.31703e-06 0)
(0.000375363 -7.37286e-06 0)
(0.000375397 -7.4282e-06 0)
(0.000375382 -7.48302e-06 0)
(0.000375339 -7.53728e-06 0)
(0.000375291 -7.59098e-06 0)
(0.000375261 -7.64407e-06 0)
(0.00037527 -7.69655e-06 0)
(0.000375341 -7.74839e-06 0)
(0.000375496 -7.79958e-06 0)
(0.000375756 -7.85009e-06 0)
(0.000376143 -7.89993e-06 0)
(0.000376675 -7.94907e-06 0)
(0.000377374 -7.99751e-06 0)
(0.000378257 -8.04524e-06 0)
(0.000379343 -8.09225e-06 0)
(0.000380648 -8.13854e-06 0)
(0.000382189 -8.1841e-06 0)
(0.00038398 -8.22894e-06 0)
(0.000386036 -8.27305e-06 0)
(0.000388369 -8.31643e-06 0)
(0.000390993 -8.35908e-06 0)
(0.000393917 -8.401e-06 0)
(0.000397152 -8.4422e-06 0)
(0.000400708 -8.48267e-06 0)
(0.000404593 -8.52253e-06 0)
(0.000408719 -8.56143e-06 0)
(0.000413242 -8.59984e-06 0)
(0.000418145 -8.63749e-06 0)
(0.000423398 -8.67441e-06 0)
(0.000429005 -8.71065e-06 0)
(0.000434968 -8.7462e-06 0)
(0.00044129 -8.78106e-06 0)
(0.000447973 -8.81524e-06 0)
(0.000455018 -8.84874e-06 0)
(0.000462424 -8.88157e-06 0)
(0.000470192 -8.91373e-06 0)
(0.00047832 -8.94523e-06 0)
(0.000486806 -8.97607e-06 0)
(0.000495648 -9.00625e-06 0)
(0.000504843 -9.03578e-06 0)
(0.000514388 -9.06465e-06 0)
(0.000524278 -9.09288e-06 0)
(0.000534509 -9.12046e-06 0)
(0.000545074 -9.14739e-06 0)
(0.000555968 -9.17368e-06 0)
(0.000567184 -9.19933e-06 0)
(0.000578715 -9.22433e-06 0)
(0.000590553 -9.24869e-06 0)
(0.000602688 -9.27241e-06 0)
(0.000615111 -9.29548e-06 0)
(0.000627812 -9.31791e-06 0)
(0.000640778 -9.33969e-06 0)
(0.000653998 -9.36082e-06 0)
(0.000667458 -9.3813e-06 0)
(0.000681143 -9.40113e-06 0)
(0.000695037 -9.4203e-06 0)
(0.000709123 -9.43882e-06 0)
(0.000723382 -9.45667e-06 0)
(0.000737794 -9.47385e-06 0)
(0.000752337 -9.49037e-06 0)
(0.000766986 -9.50621e-06 0)
(0.000781717 -9.52137e-06 0)
(0.0007965 -9.53584e-06 0)
(0.000811305 -9.54963e-06 0)
(0.000826099 -9.56271e-06 0)
(0.000840847 -9.5751e-06 0)
(0.000855508 -9.58677e-06 0)
(0.000870041 -9.59773e-06 0)
(0.0008844 -9.60796e-06 0)
(0.000898536 -9.61746e-06 0)
(0.000912395 -9.62622e-06 0)
(0.00092592 -9.63423e-06 0)
(0.000939046 -9.64147e-06 0)
(0.000951708 -9.64794e-06 0)
(0.000963831 -9.65364e-06 0)
(0.000975338 -9.65853e-06 0)
(0.000986142 -9.66262e-06 0)
(0.000996152 -9.66589e-06 0)
(0.00100527 -9.66832e-06 0)
(0.00101339 -9.6699e-06 0)
(0.00102039 -9.67061e-06 0)
(0.00102616 -9.67044e-06 0)
(0.00103057 -9.66936e-06 0)
(0.00103346 -9.66735e-06 0)
(0.00103469 -9.66441e-06 0)
(0.00103409 -9.66049e-06 0)
(0.0010315 -9.65557e-06 0)
(0.00102672 -9.64963e-06 0)
(0.00101955 -9.64263e-06 0)
(0.00100978 -9.63454e-06 0)
(0.000997185 -9.62532e-06 0)
(0.000981516 -9.61494e-06 0)
(0.000962515 -9.60332e-06 0)
(0.000939904 -9.59044e-06 0)
(0.000913387 -9.57621e-06 0)
(0.00088265 -9.56058e-06 0)
(0.000847358 -9.54344e-06 0)
(0.000807156 -9.52475e-06 0)
(0.000761664 -9.50428e-06 0)
(0.000710484 -9.48209e-06 0)
(0.000653185 -9.45776e-06 0)
(0.000589323 -9.43146e-06 0)
(0.00051841 -9.40249e-06 0)
(0.000439955 -9.37136e-06 0)
(0.000353403 -9.33673e-06 0)
(0.000258219 -9.29979e-06 0)
(0.000153766 -9.25773e-06 0)
(3.94809e-05 -9.21261e-06 0)
(-8.5382e-05 -9.16069e-06 0)
(-0.000221392 -9.11182e-06 0)
(-0.000369475 -9.0584e-06 0)
(-0.000530175 -9.01299e-06 0)
(-0.000704706 -8.95659e-06 0)
(-0.000893467 -8.91538e-06 0)
(-0.00109816 -8.85153e-06 0)
(-0.00131878 -8.81802e-06 0)
(-0.00155792 -8.73908e-06 0)
(-0.00181468 -8.72124e-06 0)
(-0.00209327 -8.61418e-06 0)
(-0.0023909 -8.62807e-06 0)
(-0.00271487 -8.46791e-06 0)
(-0.00305855 -8.53812e-06 0)
(-0.00343512 -8.27375e-06 0)
(-0.00383038 -8.45116e-06 0)
(-0.00426864 -8.01799e-06 0)
(-0.00472062 -8.49756e-06 0)
(-0.00523266 -7.86483e-06 0)
(-0.00574431 -9.18112e-06 0)
(-0.00634752 -8.01739e-06 0)
(-0.00692007 -1.07176e-05 0)
(-0.00764138 -6.83749e-06 0)
(-0.00828417 -9.88264e-06 0)
(-0.0091563 -1.64038e-06 0)
(-0.00978708 -7.3934e-06 0)
(-0.0109041 -2.68038e-06 0)
(-0.0113713 -2.63053e-05 0)
(-0.0128326 -9.82791e-06 0)
(-0.0130542 -1.48788e-05 0)
(-0.000124305 -4.63981e-05 0)
(-0.000115762 1.7591e-05 0)
(-0.000115752 -3.11689e-05 0)
(-0.000115766 7.53998e-06 0)
(-0.000115784 -7.09403e-06 0)
(-0.000115809 -3.22327e-06 0)
(-0.000115808 -1.25164e-05 0)
(-0.000115781 -1.73702e-05 0)
(-0.000115753 -1.31126e-05 0)
(-0.000115745 -7.08455e-06 0)
(-0.000115758 -3.34109e-06 0)
(-0.000115778 -2.16148e-07 0)
(-0.0001158 -3.68168e-06 0)
(-0.000115811 -9.80602e-06 0)
(-0.000115798 -1.20945e-05 0)
(-0.000115779 -1.21575e-05 0)
(-0.000115771 -8.36346e-06 0)
(-0.00011577 -4.67481e-06 0)
(-0.000115785 -5.02067e-06 0)
(-0.000115801 -4.64674e-06 0)
(-0.000115805 -6.81479e-06 0)
(-0.000115806 -1.02923e-05 0)
(-0.000115797 -9.3694e-06 0)
(-0.000115785 -8.38853e-06 0)
(-0.000115791 -7.07458e-06 0)
(-0.000115797 -4.55266e-06 0)
(-0.000115801 -6.14656e-06 0)
(-0.000115812 -7.96877e-06 0)
(-0.000115812 -7.32968e-06 0)
(-0.000115805 -8.95831e-06 0)
(-0.000115804 -8.17497e-06 0)
(-0.000115802 -6.28462e-06 0)
(-0.000115806 -6.90422e-06 0)
(-0.000115814 -5.81245e-06 0)
(-0.000115815 -7.07641e-06 0)
(-0.000115818 -7.64278e-06 0)
(-0.000115814 -7.17281e-06 0)
(-0.000115815 -7.5877e-06 0)
(-0.000115816 -6.03067e-06 0)
(-0.000115817 -6.86306e-06 0)
(-0.000115822 -6.61936e-06 0)
(-0.000115821 -6.72342e-06 0)
(-0.000115824 -7.01192e-06 0)
(-0.000115822 -6.06122e-06 0)
(-0.000115822 -7.3012e-06 0)
(-0.000115829 -6.5192e-06 0)
(-0.000115826 -5.45309e-06 0)
(-0.000115822 -6.35022e-06 0)
(-0.000115826 -7.38606e-06 0)
(-0.000115834 -6.44044e-06 0)
(-0.000115831 -5.44808e-06 0)
(-0.00011583 -6.83123e-06 0)
(-0.000115837 -6.19858e-06 0)
(-0.000115834 -5.50156e-06 0)
(-0.000115835 -6.7373e-06 0)
(-0.000115841 -5.76038e-06 0)
(-0.000115836 -5.16874e-06 0)
(-0.000115837 -6.60775e-06 0)
(-0.000115845 -6.09661e-06 0)
(-0.000115843 -4.87859e-06 0)
(-0.000115838 -5.53885e-06 0)
(-0.000115843 -6.32335e-06 0)
(-0.000115849 -5.69653e-06 0)
(-0.000115849 -4.96326e-06 0)
(-0.000115845 -5.18846e-06 0)
(-0.000115847 -5.82538e-06 0)
(-0.000115853 -5.58073e-06 0)
(-0.000115854 -4.67815e-06 0)
(-0.00011585 -5.0912e-06 0)
(-0.000115855 -5.60032e-06 0)
(-0.000115859 -4.74106e-06 0)
(-0.000115855 -4.60488e-06 0)
(-0.000115857 -5.18386e-06 0)
(-0.000115862 -4.8572e-06 0)
(-0.000115862 -4.47089e-06 0)
(-0.000115861 -4.62012e-06 0)
(-0.000115863 -4.66076e-06 0)
(-0.000115866 -4.46945e-06 0)
(-0.000115866 -4.31432e-06 0)
(-0.000115867 -4.30909e-06 0)
(-0.000115869 -4.25144e-06 0)
(-0.000115871 -4.12785e-06 0)
(-0.000115872 -4.03367e-06 0)
(-0.000115873 -3.96067e-06 0)
(-0.000115874 -3.8872e-06 0)
(-0.000115876 -3.77905e-06 0)
(-0.000115877 -3.68712e-06 0)
(-0.000115879 -3.61522e-06 0)
(-0.00011588 -3.50075e-06 0)
(-0.000115882 -3.42766e-06 0)
(-0.000115883 -3.31619e-06 0)
(-0.000115885 -3.23082e-06 0)
(-0.000115886 -3.13643e-06 0)
(-0.000115888 -3.023e-06 0)
(-0.000115889 -2.94639e-06 0)
(-0.000115891 -2.82444e-06 0)
(-0.000115893 -2.73912e-06 0)
(-0.000115894 -2.62642e-06 0)
(-0.000115896 -2.52707e-06 0)
(-0.000115898 -2.42123e-06 0)
(-0.000115899 -2.31184e-06 0)
(-0.000115901 -2.20796e-06 0)
(-0.000115903 -2.09445e-06 0)
(-0.000115905 -1.98649e-06 0)
(-0.000115907 -1.87223e-06 0)
(-0.000115909 -1.75918e-06 0)
(-0.000115911 -1.64326e-06 0)
(-0.000115913 -1.52588e-06 0)
(-0.000115915 -1.4068e-06 0)
(-0.000115917 -1.28565e-06 0)
(-0.000115919 -1.16243e-06 0)
(-0.000115922 -1.03689e-06 0)
(-0.000115924 -9.08774e-07 0)
(-0.000115925 -7.77704e-07 0)
(-0.000115927 -6.43175e-07 0)
(-0.000115927 -5.05056e-07 0)
(-0.000115925 -3.4836e-07 0)
(-0.000115929 -2.82617e-07 0)
(0.340415 -4.37816e-14 0)
)
;

boundaryField
{
    inandouthalf11
    {
        type            cyclic;
    }
    inandouthalf12
    {
        type            cyclic;
    }
    inandouthalf21
    {
        type            cyclic;
    }
    inandouthalf22
    {
        type            cyclic;
    }
    top
    {
        type            calculated;
        value           uniform (0 0 0);
    }
    walls
    {
        type            calculated;
        value           uniform (0 0 0);
    }
    frontAndBackPlanes
    {
        type            empty;
    }
}


// ************************************************************************* //
