/*--------------------------------*- C++ -*----------------------------------*\
| =========                 |                                                 |
| \\      /  F ield         | OpenFOAM: The Open Source CFD Toolbox           |
|  \\    /   O peration     | Version:  2.4.x                                 |
|   \\  /    A nd           | Web:      www.OpenFOAM.org                      |
|    \\/     M anipulation  |                                                 |
\*---------------------------------------------------------------------------*/
FoamFile
{
    version     2.0;
    format      ascii;
    class       volScalarField;
    location    "8.05";
    object      alpha;
}
// * * * * * * * * * * * * * * * * * * * * * * * * * * * * * * * * * * * * * //

dimensions      [0 0 0 0 0 0 0];

internalField   nonuniform List<scalar> 
360
(
0.610833
0.61167
0.611766
0.611678
0.611634
0.611618
0.611601
0.611578
0.611555
0.611532
0.611509
0.611485
0.611461
0.611438
0.611413
0.611389
0.611365
0.61134
0.611315
0.61129
0.611264
0.611239
0.611213
0.611187
0.611161
0.611134
0.611107
0.61108
0.611053
0.611025
0.610998
0.610969
0.610941
0.610912
0.610884
0.610854
0.610825
0.610795
0.610765
0.610735
0.610704
0.610672
0.610641
0.610609
0.610577
0.610545
0.610511
0.610479
0.610445
0.610411
0.610376
0.610342
0.610306
0.610271
0.610235
0.610198
0.610161
0.610124
0.610086
0.610048
0.610009
0.60997
0.60993
0.609889
0.609849
0.609807
0.609765
0.609723
0.60968
0.609636
0.609592
0.609547
0.609501
0.609455
0.609408
0.60936
0.609312
0.609263
0.609213
0.609163
0.609112
0.609059
0.609006
0.608952
0.608898
0.608842
0.608785
0.608728
0.608669
0.608609
0.608549
0.608487
0.608424
0.608359
0.608294
0.608227
0.608159
0.60809
0.608019
0.607946
0.607872
0.607797
0.60772
0.607641
0.60756
0.607477
0.607393
0.607306
0.607218
0.607127
0.607033
0.606938
0.60684
0.606739
0.606635
0.606529
0.606419
0.606307
0.606191
0.606072
0.605949
0.605822
0.605691
0.605556
0.605417
0.605272
0.605123
0.604967
0.604806
0.604638
0.604462
0.604279
0.604088
0.603886
0.603673
0.603447
0.603211
0.60296
0.602683
0.602366
0.602023
0.601692
0.601294
0.60078
0.600139
0.598904
0.59711
0.591848
0.376436
0.243688
0.189768
0.153076
0.123163
0.0975052
0.0754871
0.0569861
0.0418859
0.0299624
0.0208744
0.0141967
0.00946694
0.00623178
0.00408999
0.00271784
0.00186452
0.0013397
0.0010104
0.000794486
0.000645562
0.000537997
0.000457249
0.000394681
0.000344923
0.000304491
0.000271038
0.000242936
0.000219019
0.000198434
0.000180545
0.000164866
0.000151021
0.000138714
0.000127711
0.000117822
0.000108893
0.000100796
9.34254e-05
8.66928e-05
8.05234e-05
7.48534e-05
6.96286e-05
6.48017e-05
6.03318e-05
5.61827e-05
5.23226e-05
4.87231e-05
4.53588e-05
4.22069e-05
3.92473e-05
3.64623e-05
3.38377e-05
3.13364e-05
2.89296e-05
2.66146e-05
2.43903e-05
2.22575e-05
2.02189e-05
1.8278e-05
1.64391e-05
1.47063e-05
1.30841e-05
1.15759e-05
1.0186e-05
8.91681e-06
7.76563e-06
6.7285e-06
5.80347e-06
4.98464e-06
4.26245e-06
3.62874e-06
3.07607e-06
2.59818e-06
2.18601e-06
1.83046e-06
1.52706e-06
1.26913e-06
1.04987e-06
8.64471e-07
7.0844e-07
5.77219e-07
4.67977e-07
3.75796e-07
3.02993e-07
2.43987e-07
1.96e-07
1.32665e-07
9.34148e-08
6.94188e-08
4.89074e-08
3.30499e-08
2.10197e-08
1.16359e-08
5.48521e-09
3.09904e-19
4.66805e-30
1.09986e-40
3.72688e-41
2.92166e-41
1.42417e-41
5.94759e-42
3.02732e-42
1.76405e-42
1.13895e-42
7.84155e-43
4.90274e-43
2.222e-43
1.05937e-43
5.67308e-44
3.22978e-44
1.87503e-44
9.44362e-45
4.60314e-45
2.3579e-45
1.20933e-45
6.0197e-46
2.97223e-46
1.4434e-46
6.89084e-47
3.23226e-47
1.48882e-47
6.73004e-48
2.98376e-48
1.29656e-48
5.51825e-49
2.29863e-49
9.36396e-50
3.72746e-50
1.4486e-50
5.49114e-51
2.02826e-51
7.29242e-52
2.54926e-52
8.65415e-53
2.84927e-53
9.0851e-54
2.80125e-54
8.33843e-55
2.39191e-55
6.59903e-56
1.74726e-56
4.42939e-57
1.07226e-57
2.4715e-58
5.40627e-59
1.11818e-59
2.17761e-60
3.97389e-61
6.75774e-62
1.06391e-62
1.53873e-63
2.02542e-64
2.39863e-65
2.51884e-66
2.30154e-67
1.78356e-68
1.12994e-69
5.52685e-71
1.88542e-72
3.54952e-74
9.25019e-77
1.12102e-81
9.3267e-84
3.84704e-86
1.35408e-96
2.3834e-107
3.04629e-118
2.79992e-129
2.2077e-140
1.31946e-151
6.81302e-163
4.56592e-173
1.98308e-183
1.48489e-191
5.86368e-202
5.1074e-210
2.37155e-220
1.75748e-228
1.00205e-238
6.0525e-247
6.38963e-257
2.12113e-265
4.21866e-275
7.62209e-284
2.08741e-293
2.80114e-302
9.98309e-312
1.76925e-318
8.52757e-321
4.57737e-319
2.8055e-319
6.80328e-321
7.09478e-321
6.08689e-321
8.5424e-321
0
0
0
0
0
0
0
0
0
0
0
0
0
0
0
0
)
;

boundaryField
{
    inandouthalf11
    {
        type            cyclic;
    }
    inandouthalf12
    {
        type            cyclic;
    }
    inandouthalf21
    {
        type            cyclic;
    }
    inandouthalf22
    {
        type            cyclic;
    }
    inandouthalf31
    {
        type            cyclic;
    }
    inandouthalf32
    {
        type            cyclic;
    }
    inandouthalf41
    {
        type            cyclic;
    }
    inandouthalf42
    {
        type            cyclic;
    }
    top
    {
        type            symmetryPlane;
    }
    walls
    {
        type            zeroGradient;
    }
    frontAndBackPlanes
    {
        type            empty;
    }
}


// ************************************************************************* //
