/*--------------------------------*- C++ -*----------------------------------*\
| =========                 |                                                 |
| \\      /  F ield         | OpenFOAM: The Open Source CFD Toolbox           |
|  \\    /   O peration     | Version:  2.4.x                                 |
|   \\  /    A nd           | Web:      www.OpenFOAM.org                      |
|    \\/     M anipulation  |                                                 |
\*---------------------------------------------------------------------------*/
FoamFile
{
    version     2.0;
    format      ascii;
    class       surfaceScalarField;
    location    "8.05";
    object      ddt0(phia);
}
// * * * * * * * * * * * * * * * * * * * * * * * * * * * * * * * * * * * * * //

dimensions      [0 3 -2 0 0 0 0];

internalField   nonuniform List<scalar> 
359
(
9.03972e-14
2.30074e-13
3.48118e-13
4.50064e-13
5.48e-13
6.43538e-13
7.35413e-13
8.23216e-13
9.07221e-13
9.87941e-13
1.06585e-12
1.14134e-12
1.21482e-12
1.2867e-12
1.35747e-12
1.42765e-12
1.49776e-12
1.56831e-12
1.63979e-12
1.71265e-12
1.78728e-12
1.86406e-12
1.94333e-12
2.02536e-12
2.11038e-12
2.19856e-12
2.29003e-12
2.3849e-12
2.48322e-12
2.58497e-12
2.69015e-12
2.79872e-12
2.91057e-12
3.02567e-12
3.14386e-12
3.26503e-12
3.38904e-12
3.51577e-12
3.64512e-12
3.77686e-12
3.91096e-12
4.04722e-12
4.18548e-12
4.32571e-12
4.46773e-12
4.61144e-12
4.75673e-12
4.90341e-12
5.05146e-12
5.20086e-12
5.35141e-12
5.50309e-12
5.65578e-12
5.80942e-12
5.96385e-12
6.11906e-12
6.27484e-12
6.43115e-12
6.58783e-12
6.74475e-12
6.90196e-12
7.0593e-12
7.2168e-12
7.37429e-12
7.53167e-12
7.6888e-12
7.84556e-12
8.00184e-12
8.1575e-12
8.31242e-12
8.46667e-12
8.62025e-12
8.77303e-12
8.9251e-12
9.07641e-12
9.22695e-12
9.37655e-12
9.52515e-12
9.67267e-12
9.81908e-12
9.96436e-12
1.01085e-11
1.02517e-11
1.03939e-11
1.05352e-11
1.06755e-11
1.0815e-11
1.09534e-11
1.10907e-11
1.12268e-11
1.13616e-11
1.14952e-11
1.16274e-11
1.17584e-11
1.18881e-11
1.20165e-11
1.21436e-11
1.22695e-11
1.2394e-11
1.25171e-11
1.26386e-11
1.27586e-11
1.2877e-11
1.29935e-11
1.31082e-11
1.32209e-11
1.33315e-11
1.34398e-11
1.35458e-11
1.36492e-11
1.37501e-11
1.38482e-11
1.39436e-11
1.40361e-11
1.41257e-11
1.42125e-11
1.42964e-11
1.43776e-11
1.4456e-11
1.4532e-11
1.46053e-11
1.46762e-11
1.47444e-11
1.48098e-11
1.48719e-11
1.49302e-11
1.49839e-11
1.50322e-11
1.50743e-11
1.51091e-11
1.5136e-11
1.51547e-11
1.51654e-11
1.5169e-11
1.51669e-11
1.51607e-11
1.51523e-11
1.51434e-11
1.5135e-11
1.51272e-11
1.51198e-11
1.51125e-11
1.51066e-11
1.51045e-11
1.51057e-11
1.51073e-11
1.61816e-11
9.96335e-09
-1.50146e-09
-3.28366e-08
-4.55188e-08
-4.95096e-08
-5.06004e-08
-5.02309e-08
-4.85515e-08
-4.53332e-08
-4.01253e-08
-3.22535e-08
-2.08531e-08
-4.77355e-09
1.74397e-08
4.64704e-08
7.89894e-08
1.07061e-07
1.24856e-07
1.32906e-07
1.34662e-07
1.33027e-07
1.29766e-07
1.25842e-07
1.21746e-07
1.17707e-07
1.13827e-07
1.10143e-07
1.06666e-07
1.03392e-07
1.00314e-07
9.74207e-08
9.47039e-08
9.21546e-08
8.97646e-08
8.75265e-08
8.54333e-08
8.34786e-08
8.16562e-08
7.99602e-08
7.83852e-08
7.69256e-08
7.55762e-08
7.43318e-08
7.31877e-08
7.21391e-08
7.11814e-08
7.03105e-08
6.95224e-08
6.88136e-08
6.81806e-08
6.76206e-08
6.71307e-08
6.67083e-08
6.63506e-08
6.60497e-08
6.58067e-08
6.56227e-08
6.54979e-08
6.5432e-08
6.54234e-08
6.547e-08
6.55687e-08
6.57158e-08
6.59067e-08
6.61366e-08
6.63994e-08
6.66896e-08
6.70028e-08
6.73339e-08
6.76766e-08
6.80264e-08
6.83787e-08
6.87274e-08
6.90634e-08
6.93751e-08
6.96499e-08
6.98667e-08
6.99937e-08
6.99909e-08
6.98084e-08
6.93643e-08
6.86622e-08
6.78552e-08
6.70342e-08
6.62141e-08
6.5381e-08
6.4542e-08
6.37082e-08
6.33725e-08
8.05824e-08
8.00854e-08
5.99762e-08
7.50273e-08
5.53577e-08
7.27429e-08
3.21306e-07
1.67833e-07
3.25712e-10
-1.191e-10
-1.28408e-10
-1.73464e-10
-2.15761e-10
-2.5687e-10
-2.94911e-10
-3.28997e-10
-3.61728e-10
-3.70541e-10
-3.40151e-10
-3.40778e-10
-3.35727e-10
-2.92257e-10
-2.63367e-10
-2.39574e-10
-2.28856e-10
-2.665e-10
-3.0983e-10
-1.96521e-10
-1.70365e-10
-1.70753e-10
-1.70803e-10
-1.70807e-10
-1.70808e-10
-1.70807e-10
-1.70808e-10
-1.70807e-10
-1.70808e-10
-1.70807e-10
-1.70808e-10
-1.70807e-10
-1.70808e-10
-1.70807e-10
-1.70808e-10
-1.70807e-10
-1.70808e-10
-1.70807e-10
-1.70808e-10
-1.70807e-10
-1.70808e-10
-1.70807e-10
-1.70808e-10
-1.70807e-10
-1.70808e-10
-1.70807e-10
-1.70808e-10
-1.70807e-10
-1.70808e-10
-1.70807e-10
-1.70808e-10
-1.70807e-10
-1.70808e-10
-1.70807e-10
-1.70808e-10
-1.70807e-10
-1.70808e-10
-1.70807e-10
-1.70808e-10
-1.70807e-10
-1.70808e-10
-1.70807e-10
-1.70808e-10
-1.70807e-10
-1.70808e-10
-1.70807e-10
-1.70808e-10
-1.70807e-10
-1.70808e-10
-1.70807e-10
-1.70808e-10
-1.70807e-10
-1.70808e-10
-1.70808e-10
-1.70808e-10
-1.70808e-10
-1.70808e-10
-1.70808e-10
-1.70808e-10
-1.70808e-10
-1.70809e-10
-1.70808e-10
-1.70809e-10
-1.70808e-10
-1.70811e-10
-1.70813e-10
-1.70815e-10
-1.70817e-10
-1.70819e-10
-1.70821e-10
-1.70823e-10
-1.70824e-10
-1.70827e-10
-1.70829e-10
-1.70831e-10
-1.70833e-10
-1.70835e-10
-1.70837e-10
-1.70839e-10
-1.7084e-10
-1.70845e-10
-1.70849e-10
-1.70853e-10
-1.70856e-10
-1.7086e-10
-1.70863e-10
-1.70867e-10
-1.70867e-10
-1.70877e-10
-1.70882e-10
-1.70888e-10
-1.70891e-10
-1.70979e-10
-1.72794e-10
-2.58409e-10
)
;

boundaryField
{
    inandouthalf11
    {
        type            cyclic;
        value           nonuniform List<scalar> 
100
(
-1.39946e-38
-5.98367e-15
-1.34989e-14
-2.13455e-14
-3.01998e-14
-4.00537e-14
-5.05747e-14
-6.15834e-14
-7.302e-14
-8.48453e-14
-9.70155e-14
-1.09481e-13
-1.22189e-13
-1.3509e-13
-1.48133e-13
-1.61273e-13
-1.74467e-13
-1.87673e-13
-2.00849e-13
-2.13962e-13
-2.26978e-13
-2.3987e-13
-2.52616e-13
-2.65198e-13
-2.77601e-13
-2.89817e-13
-3.0184e-13
-3.13669e-13
-3.25305e-13
-3.36754e-13
-3.48023e-13
-3.59122e-13
-3.70061e-13
-3.80854e-13
-3.91514e-13
-4.02057e-13
-4.12495e-13
-4.22843e-13
-4.33119e-13
-4.43333e-13
-4.535e-13
-4.63634e-13
-4.73745e-13
-4.83845e-13
-4.93946e-13
-5.04057e-13
-5.14187e-13
-5.24342e-13
-5.34528e-13
-5.44755e-13
-5.55027e-13
-5.65347e-13
-5.75722e-13
-5.86155e-13
-5.9665e-13
-6.07211e-13
-6.1784e-13
-6.28542e-13
-6.39316e-13
-6.50165e-13
-6.61089e-13
-6.72092e-13
-6.83175e-13
-6.94339e-13
-7.05585e-13
-7.16911e-13
-7.28318e-13
-7.39807e-13
-7.51374e-13
-7.63016e-13
-7.74731e-13
-7.8652e-13
-7.98377e-13
-8.10296e-13
-8.22275e-13
-8.34312e-13
-8.464e-13
-8.58531e-13
-8.70698e-13
-8.82897e-13
-8.95121e-13
-9.07361e-13
-9.19615e-13
-9.31875e-13
-9.44138e-13
-9.56398e-13
-9.68649e-13
-9.80886e-13
-9.93104e-13
-1.0053e-12
-1.01746e-12
-1.02959e-12
-1.04168e-12
-1.05374e-12
-1.06576e-12
-1.07775e-12
-1.0897e-12
-1.10161e-12
-1.11348e-12
-1.12531e-12
)
;
    }
    inandouthalf12
    {
        type            cyclic;
        value           nonuniform List<scalar> 
100
(
1.39946e-38
5.98367e-15
1.34989e-14
2.13455e-14
3.01998e-14
4.00537e-14
5.05747e-14
6.15834e-14
7.302e-14
8.48453e-14
9.70155e-14
1.09481e-13
1.22189e-13
1.3509e-13
1.48133e-13
1.61273e-13
1.74467e-13
1.87673e-13
2.00849e-13
2.13962e-13
2.26978e-13
2.3987e-13
2.52616e-13
2.65198e-13
2.77601e-13
2.89817e-13
3.0184e-13
3.13669e-13
3.25305e-13
3.36754e-13
3.48023e-13
3.59122e-13
3.70061e-13
3.80854e-13
3.91514e-13
4.02057e-13
4.12495e-13
4.22843e-13
4.33119e-13
4.43333e-13
4.535e-13
4.63634e-13
4.73745e-13
4.83845e-13
4.93946e-13
5.04057e-13
5.14187e-13
5.24342e-13
5.34528e-13
5.44755e-13
5.55027e-13
5.65347e-13
5.75722e-13
5.86155e-13
5.9665e-13
6.07211e-13
6.1784e-13
6.28542e-13
6.39316e-13
6.50165e-13
6.61089e-13
6.72092e-13
6.83175e-13
6.94339e-13
7.05585e-13
7.16911e-13
7.28318e-13
7.39807e-13
7.51374e-13
7.63016e-13
7.74731e-13
7.8652e-13
7.98377e-13
8.10296e-13
8.22275e-13
8.34312e-13
8.464e-13
8.58531e-13
8.70698e-13
8.82897e-13
8.95121e-13
9.07361e-13
9.19615e-13
9.31875e-13
9.44138e-13
9.56398e-13
9.68649e-13
9.80886e-13
9.93104e-13
1.0053e-12
1.01746e-12
1.02959e-12
1.04168e-12
1.05374e-12
1.06576e-12
1.07775e-12
1.0897e-12
1.10161e-12
1.11348e-12
1.12531e-12
)
;
    }
    inandouthalf21
    {
        type            cyclic;
        value           nonuniform List<scalar> 
100
(
-1.1371e-12
-1.14885e-12
-1.16057e-12
-1.17225e-12
-1.1839e-12
-1.19554e-12
-1.20715e-12
-1.21877e-12
-1.23039e-12
-1.24204e-12
-1.25373e-12
-1.26549e-12
-1.27735e-12
-1.28933e-12
-1.30148e-12
-1.31382e-12
-1.32641e-12
-1.3393e-12
-1.35252e-12
-1.36614e-12
-1.3802e-12
-1.39476e-12
-1.40986e-12
-1.42553e-12
-1.44179e-12
-1.45865e-12
-1.47611e-12
-1.49413e-12
-1.51265e-12
-1.53158e-12
-1.55079e-12
-1.5701e-12
-1.58931e-12
-1.60829e-12
-1.62697e-12
-1.64531e-12
-1.66332e-12
-1.68114e-12
-1.69914e-12
-1.71745e-12
-1.73524e-12
-1.74982e-12
-1.75943e-12
-1.76382e-12
-1.76536e-12
-1.76545e-12
-1.76544e-12
-5.46159e-12
-5.34739e-07
-6.7554e-07
-5.51985e-07
-4.81968e-07
-4.50098e-07
-4.4405e-07
-4.56977e-07
-4.85165e-07
-5.26709e-07
-5.80366e-07
-6.44379e-07
-7.15487e-07
-7.88628e-07
-8.5781e-07
-9.17954e-07
-9.66613e-07
-1.00431e-06
-1.03328e-06
-1.05594e-06
-1.07412e-06
-1.08909e-06
-1.10169e-06
-1.11249e-06
-1.12189e-06
-1.13017e-06
-1.13754e-06
-1.14417e-06
-1.15017e-06
-1.15563e-06
-1.16064e-06
-1.16524e-06
-1.1695e-06
-1.17344e-06
-1.17711e-06
-1.18053e-06
-1.18372e-06
-1.18671e-06
-1.18951e-06
-1.19214e-06
-1.19461e-06
-1.19693e-06
-1.19911e-06
-1.20116e-06
-1.20309e-06
-1.20491e-06
-1.20662e-06
-1.20822e-06
-1.20973e-06
-1.21115e-06
-1.21247e-06
-1.21372e-06
-1.21488e-06
)
;
    }
    inandouthalf22
    {
        type            cyclic;
        value           nonuniform List<scalar> 
100
(
1.1371e-12
1.14885e-12
1.16057e-12
1.17225e-12
1.1839e-12
1.19554e-12
1.20715e-12
1.21877e-12
1.23039e-12
1.24204e-12
1.25373e-12
1.26549e-12
1.27735e-12
1.28933e-12
1.30148e-12
1.31382e-12
1.32641e-12
1.3393e-12
1.35252e-12
1.36614e-12
1.3802e-12
1.39476e-12
1.40986e-12
1.42553e-12
1.44179e-12
1.45865e-12
1.47611e-12
1.49413e-12
1.51265e-12
1.53158e-12
1.55079e-12
1.5701e-12
1.58931e-12
1.60829e-12
1.62697e-12
1.64531e-12
1.66332e-12
1.68114e-12
1.69914e-12
1.71745e-12
1.73524e-12
1.74982e-12
1.75943e-12
1.76382e-12
1.76536e-12
1.76545e-12
1.76544e-12
5.46159e-12
5.34739e-07
6.7554e-07
5.51985e-07
4.81968e-07
4.50098e-07
4.4405e-07
4.56977e-07
4.85165e-07
5.26709e-07
5.80366e-07
6.44379e-07
7.15487e-07
7.88628e-07
8.5781e-07
9.17954e-07
9.66613e-07
1.00431e-06
1.03328e-06
1.05594e-06
1.07412e-06
1.08909e-06
1.10169e-06
1.11249e-06
1.12189e-06
1.13017e-06
1.13754e-06
1.14417e-06
1.15017e-06
1.15563e-06
1.16064e-06
1.16524e-06
1.1695e-06
1.17344e-06
1.17711e-06
1.18053e-06
1.18372e-06
1.18671e-06
1.18951e-06
1.19214e-06
1.19461e-06
1.19693e-06
1.19911e-06
1.20116e-06
1.20309e-06
1.20491e-06
1.20662e-06
1.20822e-06
1.20973e-06
1.21115e-06
1.21247e-06
1.21372e-06
1.21488e-06
)
;
    }
    inandouthalf31
    {
        type            cyclic;
        value           nonuniform List<scalar> 
110
(
-1.21597e-06
-1.2417e-06
-1.26791e-06
-1.29463e-06
-1.32186e-06
-1.3496e-06
-1.37788e-06
-1.40669e-06
-1.43606e-06
-1.466e-06
-1.49652e-06
-1.52764e-06
-1.55937e-06
-1.59172e-06
-1.62471e-06
-1.65836e-06
-1.69269e-06
-1.7277e-06
-1.76342e-06
-1.79987e-06
-1.83705e-06
-1.87499e-06
-1.9137e-06
-1.9532e-06
-1.99351e-06
-2.03464e-06
-2.07662e-06
-2.11946e-06
-2.1632e-06
-2.20786e-06
-2.25345e-06
-2.29999e-06
-2.34746e-06
-2.39584e-06
-2.44514e-06
-2.49541e-06
-2.54695e-06
-2.76152e-06
-2.8108e-06
-2.86823e-06
-2.92931e-06
-2.98281e-06
-3.06001e-06
-3.0959e-06
-3.16764e-06
-3.22993e-06
-3.29307e-06
-3.35675e-06
-3.42092e-06
-3.48554e-06
-3.55056e-06
-3.61599e-06
-3.68193e-06
-3.7486e-06
-3.81576e-06
-3.88338e-06
-3.95503e-06
-4.02643e-06
-4.10109e-06
-4.17857e-06
-4.25935e-06
-4.34366e-06
-4.43459e-06
-4.52943e-06
-4.62262e-06
-4.7165e-06
-4.81224e-06
-4.90991e-06
-5.00957e-06
-5.11125e-06
-5.215e-06
-5.32085e-06
-5.42884e-06
-5.53904e-06
-5.65146e-06
-5.76617e-06
-5.88321e-06
-6.00262e-06
-6.12446e-06
-6.24877e-06
-6.37561e-06
-6.50501e-06
-6.63705e-06
-6.77176e-06
-6.90921e-06
-7.04945e-06
-7.19253e-06
-7.33852e-06
-7.48748e-06
-7.63945e-06
-7.79451e-06
-7.95272e-06
-8.11414e-06
-8.27884e-06
-8.44687e-06
-8.61832e-06
-8.79325e-06
-8.97173e-06
-9.15383e-06
-9.33963e-06
-9.5292e-06
-9.72262e-06
-9.91996e-06
-1.01213e-05
-1.03267e-05
-1.05364e-05
-1.07502e-05
-1.09684e-05
-1.1191e-05
-1.14182e-05
)
;
    }
    inandouthalf32
    {
        type            cyclic;
        value           nonuniform List<scalar> 
110
(
1.21597e-06
1.2417e-06
1.26791e-06
1.29463e-06
1.32186e-06
1.3496e-06
1.37788e-06
1.40669e-06
1.43606e-06
1.466e-06
1.49652e-06
1.52764e-06
1.55937e-06
1.59172e-06
1.62471e-06
1.65836e-06
1.69269e-06
1.7277e-06
1.76342e-06
1.79987e-06
1.83705e-06
1.87499e-06
1.9137e-06
1.9532e-06
1.99351e-06
2.03464e-06
2.07662e-06
2.11946e-06
2.1632e-06
2.20786e-06
2.25345e-06
2.29999e-06
2.34746e-06
2.39584e-06
2.44514e-06
2.49541e-06
2.54695e-06
2.76152e-06
2.8108e-06
2.86823e-06
2.92931e-06
2.98281e-06
3.06001e-06
3.0959e-06
3.16764e-06
3.22993e-06
3.29307e-06
3.35675e-06
3.42092e-06
3.48554e-06
3.55056e-06
3.61599e-06
3.68193e-06
3.7486e-06
3.81576e-06
3.88338e-06
3.95503e-06
4.02643e-06
4.10109e-06
4.17857e-06
4.25935e-06
4.34366e-06
4.43459e-06
4.52943e-06
4.62262e-06
4.7165e-06
4.81224e-06
4.90991e-06
5.00957e-06
5.11125e-06
5.215e-06
5.32085e-06
5.42884e-06
5.53904e-06
5.65146e-06
5.76617e-06
5.88321e-06
6.00262e-06
6.12446e-06
6.24877e-06
6.37561e-06
6.50501e-06
6.63705e-06
6.77176e-06
6.90921e-06
7.04945e-06
7.19253e-06
7.33852e-06
7.48748e-06
7.63945e-06
7.79451e-06
7.95272e-06
8.11414e-06
8.27884e-06
8.44687e-06
8.61832e-06
8.79325e-06
8.97173e-06
9.15383e-06
9.33963e-06
9.5292e-06
9.72262e-06
9.91996e-06
1.01213e-05
1.03267e-05
1.05364e-05
1.07502e-05
1.09684e-05
1.1191e-05
1.14182e-05
)
;
    }
    inandouthalf41
    {
        type            cyclic;
        value           nonuniform List<scalar> 
50
(
-1.02204e-05
-1.02204e-05
-1.02204e-05
-1.02204e-05
-1.02204e-05
-1.02204e-05
-1.02204e-05
-1.02204e-05
-1.02204e-05
-1.02204e-05
-1.02204e-05
-1.02204e-05
-1.02204e-05
-1.02204e-05
-1.02204e-05
-1.02204e-05
-1.02204e-05
-1.02204e-05
-1.02204e-05
-1.02204e-05
-1.02204e-05
-1.02204e-05
-1.02204e-05
-1.02204e-05
-1.02204e-05
-1.02204e-05
-1.02204e-05
-1.02204e-05
-1.02204e-05
-1.02204e-05
-1.02204e-05
-1.02204e-05
-1.02204e-05
-1.02204e-05
-1.02204e-05
-1.02204e-05
-1.02204e-05
-1.02204e-05
-1.02204e-05
-1.02204e-05
-1.02204e-05
-1.02204e-05
-1.02204e-05
-1.02204e-05
-1.02204e-05
-1.02204e-05
-1.02204e-05
-1.02204e-05
-1.02205e-05
-1.02222e-05
)
;
    }
    inandouthalf42
    {
        type            cyclic;
        value           nonuniform List<scalar> 
50
(
1.02204e-05
1.02204e-05
1.02204e-05
1.02204e-05
1.02204e-05
1.02204e-05
1.02204e-05
1.02204e-05
1.02204e-05
1.02204e-05
1.02204e-05
1.02204e-05
1.02204e-05
1.02204e-05
1.02204e-05
1.02204e-05
1.02204e-05
1.02204e-05
1.02204e-05
1.02204e-05
1.02204e-05
1.02204e-05
1.02204e-05
1.02204e-05
1.02204e-05
1.02204e-05
1.02204e-05
1.02204e-05
1.02204e-05
1.02204e-05
1.02204e-05
1.02204e-05
1.02204e-05
1.02204e-05
1.02204e-05
1.02204e-05
1.02204e-05
1.02204e-05
1.02204e-05
1.02204e-05
1.02204e-05
1.02204e-05
1.02204e-05
1.02204e-05
1.02204e-05
1.02204e-05
1.02204e-05
1.02204e-05
1.02205e-05
1.02222e-05
)
;
    }
    top
    {
        type            symmetryPlane;
        value           uniform 0;
    }
    walls
    {
        type            calculated;
        value           uniform 0;
    }
    frontAndBackPlanes
    {
        type            empty;
        value           nonuniform 0();
    }
}


// ************************************************************************* //
