/*--------------------------------*- C++ -*----------------------------------*\
| =========                 |                                                 |
| \\      /  F ield         | OpenFOAM: The Open Source CFD Toolbox           |
|  \\    /   O peration     | Version:  2.4.x                                 |
|   \\  /    A nd           | Web:      www.OpenFOAM.org                      |
|    \\/     M anipulation  |                                                 |
\*---------------------------------------------------------------------------*/
FoamFile
{
    version     2.0;
    format      ascii;
    class       volScalarField;
    location    "8.05";
    object      ddt0(alpha);
}
// * * * * * * * * * * * * * * * * * * * * * * * * * * * * * * * * * * * * * //

dimensions      [0 0 -1 0 0 0 0];

internalField   nonuniform List<scalar> 
360
(
5.05957e-05
7.71089e-05
7.16874e-05
6.91787e-05
7.13773e-05
7.31796e-05
7.36454e-05
7.35796e-05
7.34161e-05
7.32779e-05
7.31197e-05
7.28807e-05
7.25754e-05
7.2208e-05
7.18103e-05
7.14038e-05
7.09929e-05
7.05743e-05
7.01496e-05
6.97395e-05
6.93142e-05
6.89138e-05
6.85248e-05
6.81511e-05
6.77966e-05
6.74596e-05
6.71374e-05
6.68507e-05
6.65812e-05
6.63302e-05
6.60984e-05
6.59052e-05
6.57014e-05
6.55589e-05
6.54018e-05
6.52777e-05
6.51559e-05
6.50612e-05
6.49935e-05
6.48945e-05
6.48498e-05
6.47948e-05
6.47243e-05
6.46992e-05
6.46535e-05
6.46173e-05
6.45842e-05
6.45123e-05
6.44674e-05
6.44477e-05
6.43768e-05
6.4328e-05
6.42557e-05
6.41941e-05
6.40904e-05
6.40193e-05
6.38879e-05
6.37722e-05
6.36229e-05
6.34366e-05
6.32942e-05
6.31021e-05
6.29344e-05
6.27275e-05
6.25075e-05
6.22532e-05
6.19882e-05
6.16964e-05
6.13737e-05
6.10161e-05
6.06812e-05
6.03439e-05
5.99521e-05
5.95864e-05
5.9193e-05
5.87997e-05
5.83512e-05
5.78759e-05
5.73778e-05
5.68618e-05
5.63208e-05
5.57786e-05
5.52369e-05
5.46922e-05
5.41445e-05
5.35837e-05
5.30078e-05
5.24049e-05
5.17756e-05
5.11254e-05
5.04588e-05
4.97823e-05
4.91054e-05
4.84312e-05
4.77603e-05
4.70911e-05
4.64203e-05
4.57444e-05
4.50609e-05
4.43692e-05
4.36696e-05
4.29636e-05
4.22536e-05
4.15419e-05
4.08309e-05
4.01236e-05
3.94239e-05
3.87366e-05
3.80676e-05
3.74242e-05
3.68144e-05
3.62469e-05
3.57312e-05
3.52763e-05
3.48911e-05
3.45832e-05
3.43582e-05
3.4219e-05
3.41643e-05
3.41876e-05
3.42753e-05
3.4406e-05
3.455e-05
3.467e-05
3.47245e-05
3.46721e-05
3.44748e-05
3.40975e-05
3.35035e-05
3.26506e-05
3.15035e-05
3.00654e-05
2.84109e-05
2.66756e-05
2.49815e-05
2.33702e-05
2.18726e-05
2.06031e-05
1.95768e-05
1.82524e-05
1.52528e-05
9.09817e-06
1.91671e-06
-4.1268e-06
-1.10755e-05
-1.90471e-05
-6.27411e-05
-0.0959029
-1.14714
-0.277872
-0.0143717
0.0834802
0.1361
0.167064
0.181892
0.182324
0.170978
0.150981
0.125996
0.0995883
0.0747639
0.0534793
0.0364293
0.0235376
0.0145289
0.00881362
0.00544012
0.00348688
0.00232852
0.00161241
0.00115056
0.000841292
0.000627438
0.000475507
0.000365091
0.0002833
0.000221735
0.000174765
0.000138523
0.00011029
8.81228e-05
7.06025e-05
5.66807e-05
4.5571e-05
3.66765e-05
2.95392e-05
2.38043e-05
1.91945e-05
1.54913e-05
1.25214e-05
1.01469e-05
8.25749e-06
6.765e-06
5.59857e-06
4.70113e-06
4.02662e-06
3.53773e-06
3.2037e-06
2.99783e-06
2.89552e-06
2.87403e-06
2.91492e-06
3.005e-06
3.13035e-06
3.27352e-06
3.41685e-06
3.54326e-06
3.63916e-06
3.69363e-06
3.69954e-06
3.65204e-06
3.54935e-06
3.39218e-06
3.19268e-06
2.96594e-06
2.71688e-06
2.45244e-06
2.18997e-06
1.93922e-06
1.70094e-06
1.47582e-06
1.26819e-06
1.08456e-06
9.20463e-07
7.72303e-07
6.44128e-07
5.33891e-07
4.38385e-07
3.57337e-07
2.89744e-07
2.35138e-07
1.87727e-07
1.44932e-07
1.15008e-07
1.15121e-07
1.13546e-07
7.84529e-08
5.04169e-08
3.79074e-08
2.73272e-08
2.58192e-08
1.02996e-08
2.42967e-08
2.29718e-18
3.42768e-29
-2.91863e-40
-3.75767e-40
-3.53205e-40
-3.92012e-40
-1.35541e-40
-5.5119e-41
-2.64487e-41
-1.37173e-41
-8.8664e-42
-8.04739e-42
-4.81523e-42
-1.89812e-42
-9.15178e-43
-4.70759e-43
-2.77113e-43
-1.73686e-43
-7.75484e-44
-3.88216e-44
-1.97866e-44
-9.96227e-45
-4.92496e-45
-2.39475e-45
-1.14474e-45
-5.37658e-46
-2.47978e-46
-1.12245e-46
-4.98307e-47
-2.16828e-47
-9.24105e-48
-3.85472e-48
-1.57251e-48
-6.26849e-49
-2.43962e-49
-9.26119e-50
-3.42583e-50
-1.23356e-50
-4.31873e-51
-1.46834e-51
-4.84179e-52
-1.54626e-52
-4.7752e-53
-1.4237e-53
-4.0906e-54
-1.13042e-54
-2.99808e-55
-7.61325e-56
-1.8462e-56
-4.26287e-57
-9.34152e-58
-1.93564e-58
-3.77661e-59
-6.90503e-60
-1.17651e-60
-1.85596e-61
-2.68979e-62
-3.54806e-63
-4.21107e-64
-4.43223e-65
-4.05957e-66
-3.15391e-67
-2.00353e-68
-9.82919e-70
-3.36469e-71
-6.36299e-73
-1.68547e-75
-2.19369e-80
-1.83654e-82
-7.62263e-85
-2.68404e-95
-4.72615e-106
-6.03479e-117
-5.5478e-128
-4.36785e-139
-2.61441e-150
-1.34993e-161
-9.04725e-172
-3.9255e-182
-2.94216e-190
-1.16224e-200
-1.01198e-208
-4.69876e-219
-3.48228e-227
-1.98505e-237
-1.19925e-245
-1.26587e-255
-4.20278e-264
-8.35661e-274
-1.51024e-282
-4.13621e-292
-5.55012e-301
-1.9779e-310
4.33493e-320
0
0
0
0
0
0
0
0
0
0
0
0
0
0
0
0
0
0
0
0
0
0
0
)
;

boundaryField
{
    inandouthalf11
    {
        type            cyclic;
    }
    inandouthalf12
    {
        type            cyclic;
    }
    inandouthalf21
    {
        type            cyclic;
    }
    inandouthalf22
    {
        type            cyclic;
    }
    inandouthalf31
    {
        type            cyclic;
    }
    inandouthalf32
    {
        type            cyclic;
    }
    inandouthalf41
    {
        type            cyclic;
    }
    inandouthalf42
    {
        type            cyclic;
    }
    top
    {
        type            symmetryPlane;
    }
    walls
    {
        type            calculated;
        value           uniform 5.05957e-05;
    }
    frontAndBackPlanes
    {
        type            empty;
    }
}


// ************************************************************************* //
