/*--------------------------------*- C++ -*----------------------------------*\
| =========                 |                                                 |
| \\      /  F ield         | OpenFOAM: The Open Source CFD Toolbox           |
|  \\    /   O peration     | Version:  2.4.x                                 |
|   \\  /    A nd           | Web:      www.OpenFOAM.org                      |
|    \\/     M anipulation  |                                                 |
\*---------------------------------------------------------------------------*/
FoamFile
{
    version     2.0;
    format      ascii;
    class       volScalarField;
    location    "8.05";
    object      epsilon_0;
}
// * * * * * * * * * * * * * * * * * * * * * * * * * * * * * * * * * * * * * //

dimensions      [0 2 -3 0 0 0 0];

internalField   nonuniform List<scalar> 
360
(
1.60309e-27
1e-20
1e-20
1e-20
1e-20
1e-20
1e-20
1e-20
1e-20
1e-20
1e-20
1e-20
1e-20
1e-20
1e-20
1e-20
1e-20
1e-20
1e-20
1e-20
1e-20
1e-20
1e-20
1e-20
1e-20
1e-20
1e-20
1e-20
1e-20
1e-20
1e-20
1e-20
1e-20
1e-20
1e-20
1e-20
1e-20
1e-20
1e-20
1e-20
1e-20
1e-20
1e-20
1e-20
1e-20
1e-20
1e-20
1e-20
1e-20
1e-20
1e-20
1e-20
1e-20
1e-20
1e-20
1e-20
1e-20
1e-20
1e-20
1e-20
1e-20
1e-20
1e-20
1e-20
1e-20
1e-20
1e-20
1e-20
1e-20
1e-20
1e-20
1e-20
1e-20
1e-20
1e-20
1e-20
1e-20
1e-20
1e-20
1e-20
1e-20
1e-20
1e-20
1e-20
1e-20
1e-20
1e-20
1e-20
1e-20
1e-20
1e-20
1e-20
1e-20
1e-20
1e-20
1e-20
1e-20
1e-20
1e-20
1e-20
1e-20
1e-20
1e-20
1e-20
1e-20
1e-20
1e-20
1e-20
1e-20
1e-20
1e-20
1e-20
1e-20
1e-20
1e-20
1e-20
1e-20
1e-20
1e-20
1e-20
1e-20
1e-20
1e-20
1e-20
1e-20
1e-20
1e-20
1e-20
1e-20
1e-20
1e-20
1e-20
1e-20
1e-20
1e-20
1.63306e-20
9.00627e-20
1.19743e-18
2.18509e-17
4.52357e-16
1.0532e-14
2.77547e-13
8.36394e-12
2.91695e-10
1.19104e-08
5.7531e-07
3.30519e-05
0.00211088
0.0661234
0.26715
0.304784
0.290596
0.259797
0.224267
0.188855
0.155689
0.125714
0.0993383
0.076726
0.0579148
0.0428351
0.031266
0.0227947
0.0168443
0.0127823
0.010041
0.00818374
0.0069072
0.00601268
0.00537313
0.00490737
0.00456294
0.00430522
0.00411088
0.00396381
0.00385262
0.00376906
0.00370707
0.00366208
0.00363057
0.00360982
0.00359767
0.00359238
0.00359255
0.00359702
0.00360483
0.00361517
0.00362738
0.00364087
0.00365516
0.00366982
0.00368449
0.00369887
0.00371268
0.0037257
0.00373773
0.00374859
0.00375814
0.00376627
0.00377286
0.00377784
0.00378116
0.00378271
0.00378234
0.00377987
0.00377514
0.00376798
0.00375824
0.00374574
0.00373033
0.00371185
0.00369014
0.00366506
0.00363644
0.00360415
0.00356807
0.00352806
0.003484
0.0034358
0.00338336
0.00332659
0.00326545
0.00319988
0.00312985
0.00305537
0.00297643
0.0028931
0.00280543
0.00271352
0.00261751
0.00251755
0.00241385
0.00230664
0.00219621
0.00208287
0.00196702
0.00184905
0.00172945
0.00160874
0.00148751
0.00136639
0.00124607
0.0011273
0.00101087
0.000897625
0.000788438
0.000684203
0.000585811
0.000494125
0.000409946
0.000333962
0.000266701
0.000208466
0.000159283
0.000118858
8.6562e-05
6.14709e-05
4.24504e-05
2.8288e-05
1.78438e-05
1.01897e-05
4.72789e-06
1.27936e-06
1.13503e-07
3.24874e-09
6.9832e-11
1.43699e-12
2.84143e-14
5.37596e-16
9.70403e-18
1.73487e-19
1.10394e-20
1e-20
1e-20
1e-20
1e-20
1e-20
1e-20
1e-20
1e-20
1e-20
1e-20
1e-20
1e-20
1e-20
1e-20
1e-20
1e-20
1e-20
1e-20
1e-20
1e-20
1e-20
1e-20
1e-20
1e-20
1e-20
1e-20
1e-20
1e-20
1e-20
1e-20
1e-20
1e-20
1e-20
1e-20
1e-20
1e-20
1e-20
1e-20
1e-20
1e-20
1e-20
1e-20
1e-20
1e-20
1e-20
1e-20
1e-20
1e-20
1e-20
1e-20
1e-20
1e-20
1e-20
1e-20
1e-20
1e-20
1e-20
1e-20
1e-20
1e-20
1e-20
1e-20
1e-20
1e-20
1e-20
1e-20
1e-20
1e-20
1e-20
1e-20
1e-20
1e-20
1e-20
1e-20
1e-20
1e-20
1e-20
1e-20
1e-20
1e-20
1e-20
1e-20
1e-20
1e-20
1e-20
1e-20
1e-20
1e-20
)
;

boundaryField
{
    inandouthalf11
    {
        type            cyclic;
    }
    inandouthalf12
    {
        type            cyclic;
    }
    inandouthalf21
    {
        type            cyclic;
    }
    inandouthalf22
    {
        type            cyclic;
    }
    inandouthalf31
    {
        type            cyclic;
    }
    inandouthalf32
    {
        type            cyclic;
    }
    inandouthalf41
    {
        type            cyclic;
    }
    inandouthalf42
    {
        type            cyclic;
    }
    top
    {
        type            symmetryPlane;
    }
    walls
    {
        type            zeroGradient;
    }
    frontAndBackPlanes
    {
        type            empty;
    }
}


// ************************************************************************* //
