/*--------------------------------*- C++ -*----------------------------------*\
| =========                 |                                                 |
| \\      /  F ield         | OpenFOAM: The Open Source CFD Toolbox           |
|  \\    /   O peration     | Version:  2.4.x                                 |
|   \\  /    A nd           | Web:      www.OpenFOAM.org                      |
|    \\/     M anipulation  |                                                 |
\*---------------------------------------------------------------------------*/
FoamFile
{
    version     2.0;
    format      ascii;
    class       volVectorField;
    location    "8.05";
    object      gradPf;
}
// * * * * * * * * * * * * * * * * * * * * * * * * * * * * * * * * * * * * * //

dimensions      [0 1 -2 0 0 0 0];

internalField   nonuniform List<vector> 
360
(
(0 68.256 0)
(0 77.1645 0)
(0 0.811393 0)
(0 -12.3005 0)
(-3.34454e-14 -5.51073 0)
(-3.34462e-14 -3.00763 0)
(-3.34472e-14 -3.62103 0)
(0 -4.07091 0)
(-3.34496e-14 -4.12916 0)
(0 -4.1532 0)
(-3.34522e-14 -4.1411 0)
(0 -4.12219 0)
(-3.34548e-14 -4.12022 0)
(0 -4.11966 0)
(0 -4.13218 0)
(0 -4.14511 0)
(0 -4.14645 0)
(-1.67307e-14 -4.14245 0)
(0 -4.15601 0)
(0 -4.15283 0)
(0 -4.15081 0)
(-3.3467e-14 -4.16588 0)
(0 -4.16506 0)
(0 -4.17022 0)
(0 -4.17596 0)
(-3.34727e-14 -4.1724 0)
(0 -4.18273 0)
(0 -4.19459 0)
(0 -4.19051 0)
(0 -4.19221 0)
(0 -4.21122 0)
(0 -4.2007 0)
(0 -4.21398 0)
(0 -4.22803 0)
(0 -4.21985 0)
(3.3488e-14 -4.22721 0)
(0 -4.23129 0)
(0 -4.25816 0)
(0 -4.23652 0)
(0 -4.24753 0)
(0 -4.27828 0)
(0 -4.24794 0)
(3.34997e-14 -4.2695 0)
(0 -4.28507 0)
(0 -4.2766 0)
(0 -4.30049 0)
(0 -4.28225 0)
(0 -4.27992 0)
(0 -4.32661 0)
(0 -4.31088 0)
(3.35143e-14 -4.30312 0)
(0 -4.32366 0)
(0 -4.32962 0)
(0 -4.32371 0)
(0 -4.33972 0)
(0 -4.34315 0)
(0 -4.34144 0)
(0 -4.36098 0)
(0 -4.33656 0)
(0 -4.36233 0)
(0 -4.3709 0)
(0 -4.36741 0)
(0 -4.38296 0)
(0 -4.37858 0)
(0 -4.38088 0)
(0 -4.38662 0)
(0 -4.40009 0)
(0 -4.39912 0)
(0 -4.38549 0)
(0 -4.40135 0)
(0 -4.43045 0)
(0 -4.40776 0)
(0 -4.41021 0)
(0 -4.42999 0)
(0 -4.43574 0)
(0 -4.43574 0)
(0 -4.42704 0)
(0 -4.43771 0)
(0 -4.44544 0)
(0 -4.44353 0)
(0 -4.446 0)
(0 -4.45641 0)
(0 -4.46068 0)
(0 -4.46499 0)
(0 -4.46921 0)
(0 -4.47355 0)
(0 -4.47621 0)
(0 -4.47615 0)
(0 -4.47938 0)
(0 -4.48305 0)
(0 -4.48558 0)
(0 -4.49 0)
(0 -4.49545 0)
(0 -4.49967 0)
(0 -4.50354 0)
(0 -4.50698 0)
(0 -4.50966 0)
(0 -4.51184 0)
(0 -4.51406 0)
(0 -4.51628 0)
(0 -4.51845 0)
(0 -4.52077 0)
(0 -4.52305 0)
(0 -4.52502 0)
(0 -4.52667 0)
(0 -4.52797 0)
(0 -4.52887 0)
(0 -4.52936 0)
(0 -4.5294 0)
(0 -4.5289 0)
(0 -4.52775 0)
(0 -4.52583 0)
(0 -4.52303 0)
(0 -4.51922 0)
(0 -4.51431 0)
(0 -4.50818 0)
(0 -4.50078 0)
(0 -4.49209 0)
(0 -4.48215 0)
(0 -4.47099 0)
(0 -4.45866 0)
(0 -4.44518 0)
(0 -4.43055 0)
(0 -4.41492 0)
(0 -4.39882 0)
(0 -4.38341 0)
(0 -4.37021 0)
(0 -4.36012 0)
(0 -4.35169 0)
(0 -4.34045 0)
(0 -4.3223 0)
(0 -4.30203 0)
(0 -4.29592 0)
(0 -4.31062 0)
(0 -4.31754 0)
(0 -4.28441 0)
(0 -4.24751 0)
(0 -4.31308 0)
(0 -4.52373 0)
(0 -4.65132 0)
(0 -4.37809 0)
(0 -4.31461 0)
(0 -4.86081 0)
(0 -5.4207 0)
(0 -7.14662 0)
(0 -8.7145 0)
(0 -10.2508 0)
(0 -8.13347 0)
(0 -3.49359 0)
(0 0 0)
(0 0 0)
(0 0 0)
(0 0 0)
(0 0 0)
(0 0 0)
(0 0 0)
(0 0 0)
(0 0 0)
(0 0 0)
(0 0 0)
(0 0 0)
(0 0 0)
(0 0 0)
(0 0 0)
(0 0 0)
(0 0 0)
(0 0 0)
(0 0 0)
(0 0 0)
(0 0 0)
(0 0 0)
(0 0 0)
(0 0 0)
(0 0 0)
(0 0 0)
(0 0 0)
(0 0 0)
(0 0 0)
(0 0 0)
(0 0 0)
(0 0 0)
(0 0 0)
(0 0 0)
(0 0 0)
(0 0 0)
(0 0 0)
(0 0 0)
(0 0 0)
(0 0 0)
(0 0 0)
(0 0 0)
(0 0 0)
(0 0 0)
(0 0 0)
(0 0 0)
(0 0 0)
(0 0 0)
(0 0 0)
(0 0 0)
(0 0 0)
(0 0 0)
(0 0 0)
(0 0 0)
(0 0 0)
(0 0 0)
(0 0 0)
(0 0 0)
(0 0 0)
(0 0 0)
(0 0 0)
(0 0 0)
(0 0 0)
(0 0 0)
(0 0 0)
(0 0 0)
(0 0 0)
(0 0 0)
(0 0 0)
(0 0 0)
(0 0 0)
(0 0 0)
(0 0 0)
(0 0 0)
(0 0 0)
(0 0 0)
(0 0 0)
(0 0 0)
(0 0 0)
(0 0 0)
(0 0 0)
(0 0 0)
(0 0 0)
(0 0 0)
(0 0 0)
(0 0 0)
(0 0 0)
(0 0 0)
(0 0 0)
(0 0 0)
(0 0 0)
(0 0 0)
(0 0 0)
(0 0 0)
(0 0 0)
(0 0 0)
(0 0 0)
(0 0 0)
(0 0 0)
(0 0 0)
(0 0 0)
(0 0 0)
(0 0 0)
(0 0 0)
(0 0 0)
(0 0 0)
(0 0 0)
(0 0 0)
(0 0 0)
(0 0 0)
(0 0 0)
(0 0 0)
(0 0 0)
(0 0 0)
(0 0 0)
(0 0 0)
(0 0 0)
(0 0 0)
(0 0 0)
(0 0 0)
(0 0 0)
(0 0 0)
(0 0 0)
(0 0 0)
(0 0 0)
(0 0 0)
(0 0 0)
(0 0 0)
(0 0 0)
(0 0 0)
(0 0 0)
(0 0 0)
(0 0 0)
(0 0 0)
(0 0 0)
(0 0 0)
(0 0 0)
(0 0 0)
(0 0 0)
(0 0 0)
(0 0 0)
(0 0 0)
(0 0 0)
(0 0 0)
(0 0 0)
(0 0 0)
(0 0 0)
(0 0 0)
(0 0 0)
(0 0 0)
(0 0 0)
(0 0 0)
(0 0 0)
(0 0 0)
(0 0 0)
(0 0 0)
(0 0 0)
(0 0 0)
(0 0 0)
(0 0 0)
(0 0 0)
(0 0 0)
(0 0 0)
(0 0 0)
(0 0 0)
(0 0 0)
(0 0 0)
(0 0 0)
(0 0 0)
(0 0 0)
(0 0 0)
(0 0 0)
(0 0 0)
(0 0 0)
(0 0 0)
(0 0 0)
(0 0 0)
(0 0 0)
(0 0 0)
(0 0 0)
(0 0 0)
(0 0 0)
(0 0 0)
(0 0 0)
(0 0 0)
(0 0 0)
(0 0 0)
(0 0 0)
(0 0 0)
(0 0 0)
(0 0 0)
(0 0 0)
(0 0 0)
(0 0 0)
(0 0 0)
(0 0 0)
(0 0 0)
(0 0 0)
(0 0 0)
(0 0 0)
(0 0 0)
(0 0 0)
(0 0 0)
(0 0 0)
(0 0 0)
(0 0 0)
(0 0 0)
(0 0 0)
(0 0 0)
(0 0 0)
(0 0 0)
)
;

boundaryField
{
    inandouthalf11
    {
        type            cyclic;
    }
    inandouthalf12
    {
        type            cyclic;
    }
    inandouthalf21
    {
        type            cyclic;
    }
    inandouthalf22
    {
        type            cyclic;
    }
    inandouthalf31
    {
        type            cyclic;
    }
    inandouthalf32
    {
        type            cyclic;
    }
    inandouthalf41
    {
        type            cyclic;
    }
    inandouthalf42
    {
        type            cyclic;
    }
    top
    {
        type            symmetryPlane;
    }
    walls
    {
        type            calculated;
        value           uniform (0 0 0);
    }
    frontAndBackPlanes
    {
        type            empty;
    }
}


// ************************************************************************* //
