/*--------------------------------*- C++ -*----------------------------------*\
| =========                 |                                                 |
| \\      /  F ield         | OpenFOAM: The Open Source CFD Toolbox           |
|  \\    /   O peration     | Version:  2.4.x                                 |
|   \\  /    A nd           | Web:      www.OpenFOAM.org                      |
|    \\/     M anipulation  |                                                 |
\*---------------------------------------------------------------------------*/
FoamFile
{
    version     2.0;
    format      ascii;
    class       volScalarField;
    location    "8.05";
    object      k;
}
// * * * * * * * * * * * * * * * * * * * * * * * * * * * * * * * * * * * * * //

dimensions      [0 2 -2 0 0 0 0];

internalField   nonuniform List<scalar> 
360
(
1e-20
1e-20
1e-20
1e-20
1e-20
1e-20
1e-20
1e-20
1e-20
1e-20
1e-20
1e-20
1e-20
1e-20
1e-20
1e-20
1e-20
1e-20
1e-20
1e-20
1e-20
1e-20
1e-20
1e-20
1e-20
1e-20
1e-20
1e-20
1e-20
1e-20
1e-20
1e-20
1e-20
1e-20
1e-20
1e-20
1e-20
1e-20
1e-20
1e-20
1e-20
1e-20
1e-20
1e-20
1e-20
1e-20
1e-20
1e-20
1e-20
1e-20
1e-20
1e-20
1e-20
1e-20
1e-20
1e-20
1e-20
1e-20
1e-20
1e-20
1e-20
1e-20
1e-20
1e-20
1e-20
1e-20
1e-20
1e-20
1e-20
1e-20
1e-20
1e-20
1e-20
1e-20
1e-20
1e-20
1e-20
1e-20
1e-20
1e-20
1e-20
1e-20
1e-20
1e-20
1e-20
1e-20
1e-20
1e-20
1e-20
1e-20
1e-20
1e-20
1e-20
1e-20
1e-20
1e-20
1e-20
1e-20
1e-20
1e-20
1e-20
1e-20
1e-20
1e-20
1e-20
1e-20
1e-20
1e-20
1e-20
1e-20
1e-20
1e-20
1e-20
1e-20
1e-20
1e-20
1e-20
1e-20
1e-20
1e-20
1e-20
1e-20
1e-20
1e-20
1e-20
1e-20
1e-20
1e-20
1e-20
1e-20
1e-20
1e-20
1e-20
1e-20
1e-20
1e-20
2.76727e-20
2.74947e-19
4.25765e-18
7.49015e-17
1.47205e-15
3.24664e-14
8.11597e-13
2.32896e-11
7.76739e-10
3.04606e-08
1.41188e-06
7.08882e-05
0.00167472
0.00605835
0.00800578
0.00876415
0.00890055
0.0086645
0.0081969
0.0075868
0.00689526
0.0061684
0.00544465
0.00475866
0.00414187
0.00361956
0.00320579
0.00289987
0.00268823
0.00255081
0.00246765
0.00242246
0.00240334
0.00240203
0.00241298
0.00243242
0.00245782
0.00248739
0.0025199
0.00255445
0.00259036
0.00262713
0.00266436
0.00270175
0.00273904
0.00277602
0.00281252
0.00284837
0.00288345
0.00291765
0.00295086
0.00298301
0.003014
0.00304378
0.00307228
0.00309945
0.00312524
0.00314962
0.00317254
0.00319399
0.00321393
0.00323234
0.00324922
0.00326454
0.00327831
0.00329064
0.00330157
0.00331101
0.00331885
0.00332501
0.00332937
0.00333183
0.00333229
0.00333062
0.00332671
0.00332047
0.00331176
0.00330047
0.0032865
0.00326971
0.00325001
0.00322726
0.00320137
0.00317223
0.00313972
0.00310375
0.00306423
0.00302105
0.00297414
0.00292343
0.00286885
0.00281034
0.00274788
0.00268142
0.00261097
0.00253654
0.00245815
0.00237587
0.00228977
0.00219997
0.00210662
0.0020099
0.00191005
0.00180733
0.00170207
0.00159467
0.00148558
0.00137531
0.00126445
0.0011537
0.0010438
0.000935596
0.000830006
0.00072801
0.000630631
0.000538893
0.000453763
0.000376078
0.000306451
0.000245181
0.000192182
0.000146969
0.000108727
7.64724e-05
4.9288e-05
2.66715e-05
9.00361e-06
9.82126e-07
2.97665e-08
6.3423e-10
1.29036e-11
2.5236e-13
4.72525e-15
8.44184e-17
1.43985e-18
3.01391e-20
1e-20
1e-20
1e-20
1e-20
1e-20
1e-20
1e-20
1e-20
1e-20
1e-20
1e-20
1e-20
1e-20
1e-20
1e-20
1e-20
1e-20
1e-20
1e-20
1e-20
1e-20
1e-20
1e-20
1e-20
1e-20
1e-20
1e-20
1e-20
1e-20
1e-20
1e-20
1e-20
1e-20
1e-20
1e-20
1e-20
1e-20
1e-20
1e-20
1e-20
1e-20
1e-20
1e-20
1e-20
1e-20
1e-20
1e-20
1e-20
1e-20
1e-20
1e-20
1e-20
1e-20
1e-20
1e-20
1e-20
1e-20
1e-20
1e-20
1e-20
1e-20
1e-20
1e-20
1e-20
1e-20
1e-20
1e-20
1e-20
1e-20
1e-20
1e-20
1e-20
1e-20
1e-20
1e-20
1e-20
1e-20
1e-20
1e-20
1e-20
1e-20
1e-20
1e-20
1e-20
1e-20
1e-20
1e-20
1e-20
)
;

boundaryField
{
    inandouthalf11
    {
        type            cyclic;
    }
    inandouthalf12
    {
        type            cyclic;
    }
    inandouthalf21
    {
        type            cyclic;
    }
    inandouthalf22
    {
        type            cyclic;
    }
    inandouthalf31
    {
        type            cyclic;
    }
    inandouthalf32
    {
        type            cyclic;
    }
    inandouthalf41
    {
        type            cyclic;
    }
    inandouthalf42
    {
        type            cyclic;
    }
    top
    {
        type            symmetryPlane;
    }
    walls
    {
        type            zeroGradient;
    }
    frontAndBackPlanes
    {
        type            empty;
    }
}


// ************************************************************************* //
