/*--------------------------------*- C++ -*----------------------------------*\
| =========                 |                                                 |
| \\      /  F ield         | OpenFOAM: The Open Source CFD Toolbox           |
|  \\    /   O peration     | Version:  2.4.x                                 |
|   \\  /    A nd           | Web:      www.OpenFOAM.org                      |
|    \\/     M anipulation  |                                                 |
\*---------------------------------------------------------------------------*/
FoamFile
{
    version     2.0;
    format      ascii;
    class       volScalarField;
    location    "8.05";
    object      k_0;
}
// * * * * * * * * * * * * * * * * * * * * * * * * * * * * * * * * * * * * * //

dimensions      [0 2 -2 0 0 0 0];

internalField   nonuniform List<scalar> 
360
(
1e-20
1e-20
1e-20
1e-20
1e-20
1e-20
1e-20
1e-20
1e-20
1e-20
1e-20
1e-20
1e-20
1e-20
1e-20
1e-20
1e-20
1e-20
1e-20
1e-20
1e-20
1e-20
1e-20
1e-20
1e-20
1e-20
1e-20
1e-20
1e-20
1e-20
1e-20
1e-20
1e-20
1e-20
1e-20
1e-20
1e-20
1e-20
1e-20
1e-20
1e-20
1e-20
1e-20
1e-20
1e-20
1e-20
1e-20
1e-20
1e-20
1e-20
1e-20
1e-20
1e-20
1e-20
1e-20
1e-20
1e-20
1e-20
1e-20
1e-20
1e-20
1e-20
1e-20
1e-20
1e-20
1e-20
1e-20
1e-20
1e-20
1e-20
1e-20
1e-20
1e-20
1e-20
1e-20
1e-20
1e-20
1e-20
1e-20
1e-20
1e-20
1e-20
1e-20
1e-20
1e-20
1e-20
1e-20
1e-20
1e-20
1e-20
1e-20
1e-20
1e-20
1e-20
1e-20
1e-20
1e-20
1e-20
1e-20
1e-20
1e-20
1e-20
1e-20
1e-20
1e-20
1e-20
1e-20
1e-20
1e-20
1e-20
1e-20
1e-20
1e-20
1e-20
1e-20
1e-20
1e-20
1e-20
1e-20
1e-20
1e-20
1e-20
1e-20
1e-20
1e-20
1e-20
1e-20
1e-20
1e-20
1e-20
1e-20
1e-20
1e-20
1e-20
1e-20
1e-20
2.76411e-20
2.73969e-19
4.24089e-18
7.45945e-17
1.46586e-15
3.23272e-14
8.08038e-13
2.31845e-11
7.73117e-10
3.0314e-08
1.4049e-06
7.05573e-05
0.00166983
0.0060531
0.00800224
0.00876091
0.00889721
0.00866093
0.0081931
0.00758281
0.00689116
0.00616428
0.00544063
0.0047549
0.00413851
0.00361673
0.00320355
0.00289822
0.00268708
0.00255006
0.0024672
0.00242224
0.00240327
0.00240208
0.00241312
0.00243263
0.00245808
0.0024877
0.00252025
0.00255482
0.00259076
0.00262755
0.00266481
0.00270222
0.00273952
0.00277652
0.00281302
0.00284888
0.00288397
0.00291818
0.0029514
0.00298355
0.00301454
0.00304433
0.00307283
0.0031
0.00312579
0.00315017
0.00317309
0.00319454
0.00321447
0.00323289
0.00324976
0.00326508
0.00327884
0.00329116
0.00330208
0.00331152
0.00331936
0.00332551
0.00332986
0.00333231
0.00333275
0.00333107
0.00332716
0.0033209
0.00331218
0.00330088
0.00328689
0.00327009
0.00325037
0.00322761
0.0032017
0.00317254
0.00314002
0.00310403
0.00306448
0.00302129
0.00297436
0.00292363
0.00286902
0.0028105
0.00274801
0.00268154
0.00261107
0.00253661
0.00245821
0.0023759
0.00228978
0.00219997
0.0021066
0.00200986
0.00190998
0.00180725
0.00170198
0.00159457
0.00148546
0.00137517
0.00126431
0.00115355
0.00104365
0.000935441
0.000829851
0.000727859
0.000630487
0.000538758
0.000453639
0.000375968
0.000306357
0.000245103
0.000192119
0.00014692
0.00010869
7.64443e-05
4.92668e-05
2.66556e-05
8.99345e-06
9.8005e-07
2.96872e-08
6.3254e-10
1.28693e-11
2.5169e-13
4.71265e-15
8.41913e-17
1.43595e-18
3.00769e-20
1e-20
1e-20
1e-20
1e-20
1e-20
1e-20
1e-20
1e-20
1e-20
1e-20
1e-20
1e-20
1e-20
1e-20
1e-20
1e-20
1e-20
1e-20
1e-20
1e-20
1e-20
1e-20
1e-20
1e-20
1e-20
1e-20
1e-20
1e-20
1e-20
1e-20
1e-20
1e-20
1e-20
1e-20
1e-20
1e-20
1e-20
1e-20
1e-20
1e-20
1e-20
1e-20
1e-20
1e-20
1e-20
1e-20
1e-20
1e-20
1e-20
1e-20
1e-20
1e-20
1e-20
1e-20
1e-20
1e-20
1e-20
1e-20
1e-20
1e-20
1e-20
1e-20
1e-20
1e-20
1e-20
1e-20
1e-20
1e-20
1e-20
1e-20
1e-20
1e-20
1e-20
1e-20
1e-20
1e-20
1e-20
1e-20
1e-20
1e-20
1e-20
1e-20
1e-20
1e-20
1e-20
1e-20
1e-20
1e-20
)
;

boundaryField
{
    inandouthalf11
    {
        type            cyclic;
    }
    inandouthalf12
    {
        type            cyclic;
    }
    inandouthalf21
    {
        type            cyclic;
    }
    inandouthalf22
    {
        type            cyclic;
    }
    inandouthalf31
    {
        type            cyclic;
    }
    inandouthalf32
    {
        type            cyclic;
    }
    inandouthalf41
    {
        type            cyclic;
    }
    inandouthalf42
    {
        type            cyclic;
    }
    top
    {
        type            symmetryPlane;
    }
    walls
    {
        type            zeroGradient;
    }
    frontAndBackPlanes
    {
        type            empty;
    }
}


// ************************************************************************* //
