/*--------------------------------*- C++ -*----------------------------------*\
| =========                 |                                                 |
| \\      /  F ield         | OpenFOAM: The Open Source CFD Toolbox           |
|  \\    /   O peration     | Version:  2.4.x                                 |
|   \\  /    A nd           | Web:      www.OpenFOAM.org                      |
|    \\/     M anipulation  |                                                 |
\*---------------------------------------------------------------------------*/
FoamFile
{
    version     2.0;
    format      ascii;
    class       volScalarField;
    location    "8.05";
    object      p;
}
// * * * * * * * * * * * * * * * * * * * * * * * * * * * * * * * * * * * * * //

dimensions      [1 -1 -2 0 0 0 0];

internalField   nonuniform List<scalar> 
360
(
4891.57
4886.67
4881.76
4876.86
4871.95
4867.04
4862.13
4857.23
4852.32
4847.41
4842.5
4837.59
4832.68
4827.78
4822.87
4817.95
4813.04
4808.13
4803.22
4798.31
4793.4
4788.49
4783.57
4778.66
4773.75
4768.83
4763.92
4759
4754.09
4749.17
4744.26
4739.34
4734.43
4729.51
4724.59
4719.68
4714.76
4709.84
4704.92
4700.01
4695.09
4690.17
4685.25
4680.33
4675.41
4670.49
4665.57
4660.65
4655.73
4650.8
4645.88
4640.96
4636.04
4631.12
4626.19
4621.27
4616.35
4611.42
4606.5
4601.57
4596.65
4591.72
4586.8
4581.87
4576.95
4572.02
4567.09
4562.17
4557.24
4552.31
4547.38
4542.45
4537.53
4532.6
4527.67
4522.74
4517.81
4512.88
4507.95
4503.02
4498.09
4493.16
4488.23
4483.3
4478.36
4473.43
4468.5
4463.57
4458.63
4453.7
4448.77
4443.83
4438.9
4433.97
4429.03
4424.1
4419.16
4414.23
4409.3
4404.36
4399.43
4394.49
4389.55
4384.62
4379.68
4374.75
4369.81
4364.87
4359.94
4355
4350.06
4345.13
4340.19
4335.25
4330.31
4325.38
4320.44
4315.5
4310.56
4305.62
4300.69
4295.75
4290.81
4285.87
4280.93
4275.99
4271.05
4266.11
4261.18
4256.24
4251.3
4246.36
4241.42
4236.48
4231.54
4226.6
4221.66
4216.72
4211.78
4206.84
4201.9
4196.96
4192.02
4187.08
4182.14
4177.2
4172.26
4167.29
4160.1
4151.13
4144.32
4138.46
4133.08
4127.99
4123.1
4118.36
4113.72
4109.15
4104.61
4100.08
4095.53
4090.94
4086.28
4081.56
4076.78
4071.96
4067.1
4062.22
4057.32
4052.41
4047.5
4042.58
4037.65
4032.73
4027.8
4022.87
4017.94
4013.01
4008.08
4003.15
3998.22
3993.28
3988.35
3983.42
3978.5
3973.57
3968.64
3963.71
3958.79
3953.86
3948.94
3944.01
3939.09
3934.17
3929.25
3924.33
3919.41
3914.49
3909.58
3904.66
3899.75
3894.78
3889.72
3884.55
3879.29
3873.91
3868.43
3862.84
3857.14
3851.32
3845.38
3839.33
3833.16
3826.86
3820.43
3813.88
3807.19
3800.38
3793.42
3786.33
3779.09
3771.71
3764.18
3756.5
3748.66
3740.67
3732.52
3724.2
3715.72
3707.07
3698.24
3689.24
3680.05
3670.68
3661.12
3651.37
3641.42
3631.27
3620.92
3610.35
3599.58
3588.58
3577.36
3565.91
3554.23
3542.31
3530.14
3517.73
3505.06
3492.13
3478.93
3465.46
3451.71
3437.67
3423.34
3408.72
3393.79
3378.56
3363.01
3347.14
3330.94
3314.41
3297.54
3280.33
3262.76
3244.83
3226.54
3207.87
3188.83
3169.4
3149.58
3129.35
3108.72
3087.66
3066.18
3044.26
3021.9
2999.08
2975.8
2952.05
2927.81
2903.09
2877.86
2852.12
2825.86
2799.06
2771.72
2743.82
2715.36
2686.32
2656.7
2626.47
2595.62
2564.15
2532.05
2499.29
2465.86
2431.76
2396.96
2361.46
2325.24
2288.28
2250.57
2212.1
2172.85
2132.8
2091.93
2050.24
2007.7
1964.3
1922.76
1883.52
1844.28
1805.04
1765.8
1726.56
1687.32
1648.08
1608.84
1569.6
1530.36
1491.12
1451.88
1412.64
1373.4
1334.16
1294.92
1255.68
1216.44
1177.2
1137.96
1098.72
1059.48
1020.24
981
941.76
902.52
863.28
824.04
784.8
745.56
706.32
667.08
627.84
588.6
549.36
510.12
470.88
431.64
392.4
353.16
313.92
274.68
235.44
196.2
156.96
117.72
78.48
39.24
3.16549e-07
)
;

boundaryField
{
    inandouthalf11
    {
        type            cyclic;
    }
    inandouthalf12
    {
        type            cyclic;
    }
    inandouthalf21
    {
        type            cyclic;
    }
    inandouthalf22
    {
        type            cyclic;
    }
    inandouthalf31
    {
        type            cyclic;
    }
    inandouthalf32
    {
        type            cyclic;
    }
    inandouthalf41
    {
        type            cyclic;
    }
    inandouthalf42
    {
        type            cyclic;
    }
    top
    {
        type            symmetryPlane;
    }
    walls
    {
        type            slip;
    }
    frontAndBackPlanes
    {
        type            empty;
    }
}


// ************************************************************************* //
