/*--------------------------------*- C++ -*----------------------------------*\
| =========                 |                                                 |
| \\      /  F ield         | OpenFOAM: The Open Source CFD Toolbox           |
|  \\    /   O peration     | Version:  2.4.x                                 |
|   \\  /    A nd           | Web:      www.OpenFOAM.org                      |
|    \\/     M anipulation  |                                                 |
\*---------------------------------------------------------------------------*/
FoamFile
{
    version     2.0;
    format      ascii;
    class       volScalarField;
    location    "8.05";
    object      pa;
}
// * * * * * * * * * * * * * * * * * * * * * * * * * * * * * * * * * * * * * //

dimensions      [1 -1 -2 0 0 0 0];

internalField   nonuniform List<scalar> 
360
(
2.90247e-16
2.92755e-16
2.93001e-16
2.92741e-16
2.92619e-16
2.92579e-16
2.92529e-16
2.92463e-16
2.92396e-16
2.92328e-16
2.92259e-16
2.9219e-16
2.9212e-16
2.9205e-16
2.91979e-16
2.91907e-16
2.91835e-16
2.91762e-16
2.91689e-16
2.91615e-16
2.9154e-16
2.91465e-16
2.91389e-16
2.91313e-16
2.91236e-16
2.91158e-16
2.9108e-16
2.91001e-16
2.90921e-16
2.90841e-16
2.9076e-16
2.90678e-16
2.90597e-16
2.90513e-16
2.90429e-16
2.90344e-16
2.90259e-16
2.90173e-16
2.90085e-16
2.89998e-16
2.89908e-16
2.89818e-16
2.89728e-16
2.89636e-16
2.89543e-16
2.8945e-16
2.89354e-16
2.8926e-16
2.89163e-16
2.89064e-16
2.88966e-16
2.88866e-16
2.88765e-16
2.88662e-16
2.88559e-16
2.88453e-16
2.88348e-16
2.8824e-16
2.88131e-16
2.88022e-16
2.8791e-16
2.87798e-16
2.87683e-16
2.87568e-16
2.87451e-16
2.87332e-16
2.87212e-16
2.8709e-16
2.86967e-16
2.86842e-16
2.86715e-16
2.86586e-16
2.86457e-16
2.86324e-16
2.8619e-16
2.86054e-16
2.85916e-16
2.85776e-16
2.85634e-16
2.8549e-16
2.85344e-16
2.85196e-16
2.85045e-16
2.84892e-16
2.84736e-16
2.84578e-16
2.84417e-16
2.84253e-16
2.84087e-16
2.83918e-16
2.83746e-16
2.83571e-16
2.83393e-16
2.83212e-16
2.83027e-16
2.82839e-16
2.82647e-16
2.82452e-16
2.82253e-16
2.8205e-16
2.81842e-16
2.81631e-16
2.81415e-16
2.81194e-16
2.80969e-16
2.80739e-16
2.80503e-16
2.80262e-16
2.80015e-16
2.79763e-16
2.79505e-16
2.7924e-16
2.78968e-16
2.7869e-16
2.78405e-16
2.78112e-16
2.77811e-16
2.77502e-16
2.77185e-16
2.76859e-16
2.76523e-16
2.76178e-16
2.75822e-16
2.75455e-16
2.75076e-16
2.74685e-16
2.7428e-16
2.73861e-16
2.73425e-16
2.72971e-16
2.72498e-16
2.72006e-16
2.71493e-16
2.70954e-16
2.70384e-16
2.69645e-16
7.4238e-16
7.32831e-15
1.13044e-13
1.98058e-12
3.87527e-11
8.50907e-10
2.11645e-08
6.06342e-07
2.71205e-05
0.00438787
0.270938
4.30605
6.343
5.56654
4.42914
3.37881
2.50006
1.79877
1.25901
0.856915
0.567073
0.365184
0.229459
0.141401
0.086113
0.0523158
0.0320612
0.0201183
0.0131602
0.00908816
0.00662998
0.00506896
0.00402215
0.0032852
0.00274489
0.00233528
0.00201599
0.00176125
0.00155394
0.00138235
0.00123821
0.00111556
0.00101001
0.000918254
0.000837788
0.000766661
0.000703348
0.000646637
0.000595556
0.000549317
0.000507275
0.000468898
0.000433743
0.000401439
0.000371671
0.000344171
0.00031871
0.000295086
0.000273124
0.000252669
0.000233584
0.000215746
0.000199047
0.000183396
0.000168714
0.0001548
0.000141498
0.000128799
0.000116703
0.000105215
9.43507e-05
8.41262e-05
7.45598e-05
6.56657e-05
5.74571e-05
4.99404e-05
4.3122e-05
3.69968e-05
3.15365e-05
2.67063e-05
2.24784e-05
1.88085e-05
1.56391e-05
1.29195e-05
1.06029e-05
8.6482e-06
7.00604e-06
5.62999e-06
4.4903e-06
3.55193e-06
2.78193e-06
2.1551e-06
1.64877e-06
1.24197e-06
9.19273e-07
6.62619e-07
4.68167e-07
3.18428e-07
2.02743e-07
9.47283e-08
0
0
0
0
0
0
0
0
0
0
0
0
0
0
0
0
0
0
0
0
0
0
0
0
0
0
0
0
0
0
0
0
0
0
0
0
0
0
0
0
0
0
0
0
0
0
0
0
0
0
0
0
0
0
0
0
0
0
0
0
0
0
0
0
0
0
0
0
0
0
0
0
0
0
0
0
0
0
0
0
0
0
0
0
0
0
0
0
0
0
0
0
0
0
0
0
0
0
0
0
0
0
0
0
0
0
0
0
0
0
0
0
0
0
0
0
0
0
0
0
0
0
0
0
)
;

boundaryField
{
    inandouthalf11
    {
        type            cyclic;
    }
    inandouthalf12
    {
        type            cyclic;
    }
    inandouthalf21
    {
        type            cyclic;
    }
    inandouthalf22
    {
        type            cyclic;
    }
    inandouthalf31
    {
        type            cyclic;
    }
    inandouthalf32
    {
        type            cyclic;
    }
    inandouthalf41
    {
        type            cyclic;
    }
    inandouthalf42
    {
        type            cyclic;
    }
    top
    {
        type            symmetryPlane;
    }
    walls
    {
        type            calculated;
        value           uniform 2.90247e-16;
    }
    frontAndBackPlanes
    {
        type            empty;
    }
}


// ************************************************************************* //
