/*--------------------------------*- C++ -*----------------------------------*\
| =========                 |                                                 |
| \\      /  F ield         | OpenFOAM: The Open Source CFD Toolbox           |
|  \\    /   O peration     | Version:  2.4.x                                 |
|   \\  /    A nd           | Web:      www.OpenFOAM.org                      |
|    \\/     M anipulation  |                                                 |
\*---------------------------------------------------------------------------*/
FoamFile
{
    version     2.0;
    format      ascii;
    class       surfaceScalarField;
    location    "8.05";
    object      phia_0;
}
// * * * * * * * * * * * * * * * * * * * * * * * * * * * * * * * * * * * * * //

dimensions      [0 3 -1 0 0 0 0];

internalField   nonuniform List<scalar> 
359
(
-1.65265e-13
-4.1745e-13
-6.51908e-13
-8.78096e-13
-1.11151e-12
-1.35082e-12
-1.59168e-12
-1.83235e-12
-2.0725e-12
-2.31223e-12
-2.55145e-12
-2.78991e-12
-3.02739e-12
-3.26369e-12
-3.49871e-12
-3.73242e-12
-3.9648e-12
-4.19584e-12
-4.42551e-12
-4.65385e-12
-4.88083e-12
-5.10651e-12
-5.33094e-12
-5.55417e-12
-5.77626e-12
-5.99727e-12
-6.21724e-12
-6.4363e-12
-6.6545e-12
-6.87189e-12
-7.08855e-12
-7.3046e-12
-7.52001e-12
-7.73497e-12
-7.94945e-12
-8.16353e-12
-8.37725e-12
-8.59068e-12
-8.80391e-12
-9.01684e-12
-9.22966e-12
-9.44232e-12
-9.65477e-12
-9.86717e-12
-1.00795e-11
-1.02916e-11
-1.05037e-11
-1.07156e-11
-1.09274e-11
-1.11392e-11
-1.13507e-11
-1.15622e-11
-1.17734e-11
-1.19844e-11
-1.21952e-11
-1.24057e-11
-1.26158e-11
-1.28256e-11
-1.3035e-11
-1.32438e-11
-1.34521e-11
-1.36599e-11
-1.38671e-11
-1.40737e-11
-1.42796e-11
-1.44847e-11
-1.4689e-11
-1.48924e-11
-1.50948e-11
-1.5296e-11
-1.54962e-11
-1.56953e-11
-1.58932e-11
-1.60899e-11
-1.62854e-11
-1.64797e-11
-1.66725e-11
-1.68638e-11
-1.70536e-11
-1.72416e-11
-1.7428e-11
-1.76127e-11
-1.77956e-11
-1.79768e-11
-1.81562e-11
-1.83339e-11
-1.85098e-11
-1.86837e-11
-1.88556e-11
-1.90255e-11
-1.91932e-11
-1.93588e-11
-1.95222e-11
-1.96835e-11
-1.98426e-11
-1.99997e-11
-2.01546e-11
-2.03073e-11
-2.04579e-11
-2.06063e-11
-2.07525e-11
-2.08965e-11
-2.10382e-11
-2.11777e-11
-2.1315e-11
-2.145e-11
-2.15828e-11
-2.17135e-11
-2.18421e-11
-2.19686e-11
-2.20934e-11
-2.22163e-11
-2.23377e-11
-2.24577e-11
-2.25767e-11
-2.26947e-11
-2.28122e-11
-2.29293e-11
-2.30465e-11
-2.31639e-11
-2.32818e-11
-2.34003e-11
-2.35196e-11
-2.36394e-11
-2.37597e-11
-2.388e-11
-2.4e-11
-2.4119e-11
-2.42364e-11
-2.43513e-11
-2.44627e-11
-2.45698e-11
-2.46719e-11
-2.47687e-11
-2.48605e-11
-2.49475e-11
-2.50301e-11
-2.51094e-11
-2.51868e-11
-2.52613e-11
-2.53261e-11
-2.53717e-11
-2.53973e-11
-2.5408e-11
-2.54108e-11
-2.54115e-11
-2.54018e-11
3.0324e-10
7.82342e-09
1.39573e-08
1.78161e-08
2.09068e-08
2.37093e-08
2.63857e-08
2.89695e-08
3.14435e-08
3.37551e-08
3.5828e-08
3.75605e-08
3.8824e-08
3.94553e-08
3.92584e-08
3.8083e-08
3.59902e-08
3.32899e-08
3.03508e-08
2.74342e-08
2.46781e-08
2.21407e-08
1.98374e-08
1.77628e-08
1.59028e-08
1.42404e-08
1.27583e-08
1.14404e-08
1.02716e-08
9.23839e-09
8.32851e-09
7.53091e-09
6.83561e-09
6.23362e-09
5.71679e-09
5.27778e-09
4.90992e-09
4.60715e-09
4.36399e-09
4.17543e-09
4.0369e-09
3.94422e-09
3.89357e-09
3.88142e-09
3.90452e-09
3.95984e-09
4.0445e-09
4.15579e-09
4.29102e-09
4.44758e-09
4.62282e-09
4.81408e-09
5.01865e-09
5.23385e-09
5.46156e-09
5.69941e-09
5.9447e-09
6.19453e-09
6.44583e-09
6.69552e-09
6.94054e-09
7.178e-09
7.40514e-09
7.61956e-09
7.81907e-09
8.00204e-09
8.16754e-09
8.31477e-09
8.44297e-09
8.5522e-09
8.64291e-09
8.71521e-09
8.76935e-09
8.80565e-09
8.82547e-09
8.83033e-09
8.82104e-09
8.80087e-09
8.77419e-09
8.74632e-09
8.72532e-09
8.72159e-09
8.74054e-09
8.78832e-09
8.86072e-09
8.9784e-09
9.13113e-09
9.44014e-09
9.66836e-09
9.45806e-09
9.42702e-09
9.63344e-09
1.01779e-08
9.78162e-09
1.31731e-08
-2.27728e-08
-1.30956e-07
-1.58314e-07
-1.5824e-07
-1.58237e-07
-1.58223e-07
-1.58208e-07
-1.5819e-07
-1.5817e-07
-1.58148e-07
-1.58124e-07
-1.58099e-07
-1.58076e-07
-1.58055e-07
-1.58033e-07
-1.58014e-07
-1.57999e-07
-1.57985e-07
-1.57971e-07
-1.57952e-07
-1.57916e-07
-1.57893e-07
-1.57891e-07
-1.57891e-07
-1.57891e-07
-1.57891e-07
-1.57891e-07
-1.57891e-07
-1.57891e-07
-1.57891e-07
-1.57891e-07
-1.57891e-07
-1.57891e-07
-1.57891e-07
-1.57891e-07
-1.57891e-07
-1.57891e-07
-1.57891e-07
-1.57891e-07
-1.57891e-07
-1.57891e-07
-1.57891e-07
-1.57891e-07
-1.57891e-07
-1.57891e-07
-1.57891e-07
-1.57891e-07
-1.57891e-07
-1.57891e-07
-1.57891e-07
-1.57891e-07
-1.57891e-07
-1.57891e-07
-1.57891e-07
-1.57891e-07
-1.57891e-07
-1.57891e-07
-1.57891e-07
-1.57891e-07
-1.57891e-07
-1.57891e-07
-1.57891e-07
-1.57891e-07
-1.57891e-07
-1.57891e-07
-1.57891e-07
-1.57891e-07
-1.57891e-07
-1.57891e-07
-1.57891e-07
-1.57891e-07
-1.57891e-07
-1.57891e-07
-1.57891e-07
-1.57891e-07
-1.57891e-07
-1.57891e-07
-1.57891e-07
-1.57891e-07
-1.57891e-07
-1.57891e-07
-1.57891e-07
-1.57891e-07
-1.57891e-07
-1.57891e-07
-1.57891e-07
-1.57891e-07
-1.57891e-07
-1.57891e-07
-1.57891e-07
-1.57891e-07
-1.57891e-07
-1.57891e-07
-1.57891e-07
-1.57891e-07
-1.57891e-07
-1.57891e-07
-1.57891e-07
-1.57891e-07
-1.57891e-07
-1.57891e-07
-1.57891e-07
-1.57891e-07
-1.57891e-07
-1.57891e-07
-1.57891e-07
-1.57891e-07
-1.57891e-07
-1.57891e-07
-1.57891e-07
-1.57891e-07
-1.57891e-07
-1.57891e-07
-1.5789e-07
-1.57873e-07
-1.57163e-07
-1.32127e-07
)
;

boundaryField
{
    inandouthalf11
    {
        type            cyclic;
        value           nonuniform List<scalar> 
100
(
-1.63093e-38
-1.75886e-14
-3.66984e-14
-5.38281e-14
-7.1204e-14
-8.92554e-14
-1.07513e-13
-1.25714e-13
-1.43813e-13
-1.61809e-13
-1.79702e-13
-1.97479e-13
-2.15125e-13
-2.32622e-13
-2.49963e-13
-2.67144e-13
-2.84164e-13
-3.01024e-13
-3.17724e-13
-3.34266e-13
-3.50652e-13
-3.66883e-13
-3.82966e-13
-3.98905e-13
-4.14706e-13
-4.30373e-13
-4.45913e-13
-4.61331e-13
-4.76635e-13
-4.91829e-13
-5.06921e-13
-5.21915e-13
-5.36817e-13
-5.51633e-13
-5.66369e-13
-5.81027e-13
-5.95612e-13
-6.10128e-13
-6.24581e-13
-6.3897e-13
-6.53301e-13
-6.67575e-13
-6.81792e-13
-6.95954e-13
-7.10065e-13
-7.24125e-13
-7.38133e-13
-7.52085e-13
-7.65983e-13
-7.7983e-13
-7.93623e-13
-8.07361e-13
-8.21043e-13
-8.34667e-13
-8.4823e-13
-8.61731e-13
-8.75167e-13
-8.88535e-13
-9.0183e-13
-9.15047e-13
-9.28187e-13
-9.41248e-13
-9.54229e-13
-9.67127e-13
-9.79938e-13
-9.92657e-13
-1.00528e-12
-1.0178e-12
-1.03022e-12
-1.04252e-12
-1.05472e-12
-1.0668e-12
-1.07876e-12
-1.09061e-12
-1.10234e-12
-1.11395e-12
-1.12543e-12
-1.13679e-12
-1.148e-12
-1.15907e-12
-1.17e-12
-1.18079e-12
-1.19142e-12
-1.20192e-12
-1.21227e-12
-1.22247e-12
-1.23253e-12
-1.24243e-12
-1.25218e-12
-1.26177e-12
-1.2712e-12
-1.28046e-12
-1.28957e-12
-1.29851e-12
-1.30728e-12
-1.3159e-12
-1.32436e-12
-1.33267e-12
-1.34081e-12
-1.34879e-12
)
;
    }
    inandouthalf12
    {
        type            cyclic;
        value           nonuniform List<scalar> 
100
(
1.63093e-38
1.75886e-14
3.66984e-14
5.38281e-14
7.1204e-14
8.92554e-14
1.07513e-13
1.25714e-13
1.43813e-13
1.61809e-13
1.79702e-13
1.97479e-13
2.15125e-13
2.32622e-13
2.49963e-13
2.67144e-13
2.84164e-13
3.01024e-13
3.17724e-13
3.34266e-13
3.50652e-13
3.66883e-13
3.82966e-13
3.98905e-13
4.14706e-13
4.30373e-13
4.45913e-13
4.61331e-13
4.76635e-13
4.91829e-13
5.06921e-13
5.21915e-13
5.36817e-13
5.51633e-13
5.66369e-13
5.81027e-13
5.95612e-13
6.10128e-13
6.24581e-13
6.3897e-13
6.53301e-13
6.67575e-13
6.81792e-13
6.95954e-13
7.10065e-13
7.24125e-13
7.38133e-13
7.52085e-13
7.65983e-13
7.7983e-13
7.93623e-13
8.07361e-13
8.21043e-13
8.34667e-13
8.4823e-13
8.61731e-13
8.75167e-13
8.88535e-13
9.0183e-13
9.15047e-13
9.28187e-13
9.41248e-13
9.54229e-13
9.67127e-13
9.79938e-13
9.92657e-13
1.00528e-12
1.0178e-12
1.03022e-12
1.04252e-12
1.05472e-12
1.0668e-12
1.07876e-12
1.09061e-12
1.10234e-12
1.11395e-12
1.12543e-12
1.13679e-12
1.148e-12
1.15907e-12
1.17e-12
1.18079e-12
1.19142e-12
1.20192e-12
1.21227e-12
1.22247e-12
1.23253e-12
1.24243e-12
1.25218e-12
1.26177e-12
1.2712e-12
1.28046e-12
1.28957e-12
1.29851e-12
1.30728e-12
1.3159e-12
1.32436e-12
1.33267e-12
1.34081e-12
1.34879e-12
)
;
    }
    inandouthalf21
    {
        type            cyclic;
        value           nonuniform List<scalar> 
100
(
-1.35661e-12
-1.36427e-12
-1.37176e-12
-1.3791e-12
-1.38627e-12
-1.39328e-12
-1.40013e-12
-1.40683e-12
-1.41337e-12
-1.41976e-12
-1.426e-12
-1.4321e-12
-1.43806e-12
-1.4439e-12
-1.44961e-12
-1.45522e-12
-1.46072e-12
-1.46613e-12
-1.47144e-12
-1.47668e-12
-1.48183e-12
-1.4869e-12
-1.49187e-12
-1.49673e-12
-1.50146e-12
-1.50603e-12
-1.51041e-12
-1.51456e-12
-1.51845e-12
-1.52203e-12
-1.52527e-12
-1.52814e-12
-1.5306e-12
-1.53266e-12
-1.53431e-12
-1.53556e-12
-1.53642e-12
-1.53689e-12
-1.53695e-12
-1.53658e-12
-1.53577e-12
-1.53473e-12
-1.53382e-12
-1.53331e-12
-1.53319e-12
-1.53325e-12
-1.53353e-12
-1.58884e-12
-6.30276e-08
-1.91512e-07
-3.00916e-07
-3.90471e-07
-4.65063e-07
-5.28103e-07
-5.81831e-07
-6.27763e-07
-6.66941e-07
-7.00086e-07
-7.27725e-07
-7.50309e-07
-7.68322e-07
-7.82342e-07
-7.93042e-07
-8.01119e-07
-8.07203e-07
-8.11794e-07
-8.15255e-07
-8.17842e-07
-8.19738e-07
-8.21075e-07
-8.21955e-07
-8.22455e-07
-8.22635e-07
-8.22546e-07
-8.22226e-07
-8.21711e-07
-8.21027e-07
-8.202e-07
-8.19249e-07
-8.18194e-07
-8.17049e-07
-8.15828e-07
-8.14545e-07
-8.1321e-07
-8.11833e-07
-8.10424e-07
-8.0899e-07
-8.07539e-07
-8.06078e-07
-8.04613e-07
-8.03151e-07
-8.01697e-07
-8.00256e-07
-7.98833e-07
-7.97432e-07
-7.96058e-07
-7.94715e-07
-7.93407e-07
-7.92136e-07
-7.90908e-07
)
;
    }
    inandouthalf22
    {
        type            cyclic;
        value           nonuniform List<scalar> 
100
(
1.35661e-12
1.36427e-12
1.37176e-12
1.3791e-12
1.38627e-12
1.39328e-12
1.40013e-12
1.40683e-12
1.41337e-12
1.41976e-12
1.426e-12
1.4321e-12
1.43806e-12
1.4439e-12
1.44961e-12
1.45522e-12
1.46072e-12
1.46613e-12
1.47144e-12
1.47668e-12
1.48183e-12
1.4869e-12
1.49187e-12
1.49673e-12
1.50146e-12
1.50603e-12
1.51041e-12
1.51456e-12
1.51845e-12
1.52203e-12
1.52527e-12
1.52814e-12
1.5306e-12
1.53266e-12
1.53431e-12
1.53556e-12
1.53642e-12
1.53689e-12
1.53695e-12
1.53658e-12
1.53577e-12
1.53473e-12
1.53382e-12
1.53331e-12
1.53319e-12
1.53325e-12
1.53353e-12
1.58884e-12
6.30276e-08
1.91512e-07
3.00916e-07
3.90471e-07
4.65063e-07
5.28103e-07
5.81831e-07
6.27763e-07
6.66941e-07
7.00086e-07
7.27725e-07
7.50309e-07
7.68322e-07
7.82342e-07
7.93042e-07
8.01119e-07
8.07203e-07
8.11794e-07
8.15255e-07
8.17842e-07
8.19738e-07
8.21075e-07
8.21955e-07
8.22455e-07
8.22635e-07
8.22546e-07
8.22226e-07
8.21711e-07
8.21027e-07
8.202e-07
8.19249e-07
8.18194e-07
8.17049e-07
8.15828e-07
8.14545e-07
8.1321e-07
8.11833e-07
8.10424e-07
8.0899e-07
8.07539e-07
8.06078e-07
8.04613e-07
8.03151e-07
8.01697e-07
8.00256e-07
7.98833e-07
7.97432e-07
7.96058e-07
7.94715e-07
7.93407e-07
7.92136e-07
7.90908e-07
)
;
    }
    inandouthalf31
    {
        type            cyclic;
        value           nonuniform List<scalar> 
110
(
-7.89727e-07
-8.04586e-07
-8.1975e-07
-8.35226e-07
-8.51022e-07
-8.67145e-07
-8.83604e-07
-9.00407e-07
-9.17561e-07
-9.35075e-07
-9.52957e-07
-9.71213e-07
-9.89852e-07
-1.00888e-06
-1.02831e-06
-1.04814e-06
-1.06838e-06
-1.08905e-06
-1.11014e-06
-1.13167e-06
-1.15364e-06
-1.17607e-06
-1.19895e-06
-1.22231e-06
-1.24614e-06
-1.27047e-06
-1.2953e-06
-1.32065e-06
-1.34653e-06
-1.37296e-06
-1.39995e-06
-1.42753e-06
-1.45573e-06
-1.48459e-06
-1.51416e-06
-1.54449e-06
-1.57545e-06
-1.54298e-06
-1.56692e-06
-1.59233e-06
-1.61826e-06
-1.64451e-06
-1.67188e-06
-1.70119e-06
-1.73177e-06
-1.76008e-06
-1.78988e-06
-1.82044e-06
-1.85192e-06
-1.88442e-06
-1.91803e-06
-1.95285e-06
-1.98902e-06
-2.02662e-06
-2.06573e-06
-2.10657e-06
-2.14902e-06
-2.19315e-06
-2.23897e-06
-2.28638e-06
-2.33523e-06
-2.38532e-06
-2.43613e-06
-2.4866e-06
-2.53719e-06
-2.5887e-06
-2.64124e-06
-2.69485e-06
-2.74955e-06
-2.80536e-06
-2.8623e-06
-2.92039e-06
-2.97967e-06
-3.04015e-06
-3.10186e-06
-3.16482e-06
-3.22905e-06
-3.29459e-06
-3.36147e-06
-3.4297e-06
-3.49931e-06
-3.57034e-06
-3.6428e-06
-3.71674e-06
-3.79218e-06
-3.86915e-06
-3.94769e-06
-4.02782e-06
-4.10957e-06
-4.19298e-06
-4.27809e-06
-4.36492e-06
-4.45352e-06
-4.54391e-06
-4.63614e-06
-4.73024e-06
-4.82626e-06
-4.92422e-06
-5.02416e-06
-5.12614e-06
-5.23019e-06
-5.33635e-06
-5.44466e-06
-5.55517e-06
-5.66793e-06
-5.78297e-06
-5.90035e-06
-6.02011e-06
-6.1423e-06
-6.26698e-06
)
;
    }
    inandouthalf32
    {
        type            cyclic;
        value           nonuniform List<scalar> 
110
(
7.89727e-07
8.04586e-07
8.1975e-07
8.35226e-07
8.51022e-07
8.67145e-07
8.83604e-07
9.00407e-07
9.17561e-07
9.35075e-07
9.52957e-07
9.71213e-07
9.89852e-07
1.00888e-06
1.02831e-06
1.04814e-06
1.06838e-06
1.08905e-06
1.11014e-06
1.13167e-06
1.15364e-06
1.17607e-06
1.19895e-06
1.22231e-06
1.24614e-06
1.27047e-06
1.2953e-06
1.32065e-06
1.34653e-06
1.37296e-06
1.39995e-06
1.42753e-06
1.45573e-06
1.48459e-06
1.51416e-06
1.54449e-06
1.57545e-06
1.54298e-06
1.56692e-06
1.59233e-06
1.61826e-06
1.64451e-06
1.67188e-06
1.70119e-06
1.73177e-06
1.76008e-06
1.78988e-06
1.82044e-06
1.85192e-06
1.88442e-06
1.91803e-06
1.95285e-06
1.98902e-06
2.02662e-06
2.06573e-06
2.10657e-06
2.14902e-06
2.19315e-06
2.23897e-06
2.28638e-06
2.33523e-06
2.38532e-06
2.43613e-06
2.4866e-06
2.53719e-06
2.5887e-06
2.64124e-06
2.69485e-06
2.74955e-06
2.80536e-06
2.8623e-06
2.92039e-06
2.97967e-06
3.04015e-06
3.10186e-06
3.16482e-06
3.22905e-06
3.29459e-06
3.36147e-06
3.4297e-06
3.49931e-06
3.57034e-06
3.6428e-06
3.71674e-06
3.79218e-06
3.86915e-06
3.94769e-06
4.02782e-06
4.10957e-06
4.19298e-06
4.27809e-06
4.36492e-06
4.45352e-06
4.54391e-06
4.63614e-06
4.73024e-06
4.82626e-06
4.92422e-06
5.02416e-06
5.12614e-06
5.23019e-06
5.33635e-06
5.44466e-06
5.55517e-06
5.66793e-06
5.78297e-06
5.90035e-06
6.02011e-06
6.1423e-06
6.26698e-06
)
;
    }
    inandouthalf41
    {
        type            cyclic;
        value           nonuniform List<scalar> 
50
(
-5.60958e-06
-5.60958e-06
-5.60958e-06
-5.60958e-06
-5.60958e-06
-5.60958e-06
-5.60958e-06
-5.60958e-06
-5.60958e-06
-5.60958e-06
-5.60958e-06
-5.60958e-06
-5.60958e-06
-5.60958e-06
-5.60958e-06
-5.60958e-06
-5.60958e-06
-5.60958e-06
-5.60958e-06
-5.60958e-06
-5.60958e-06
-5.60958e-06
-5.60958e-06
-5.60958e-06
-5.60958e-06
-5.60958e-06
-5.60958e-06
-5.60958e-06
-5.60958e-06
-5.60958e-06
-5.60958e-06
-5.60958e-06
-5.60958e-06
-5.60958e-06
-5.60958e-06
-5.60958e-06
-5.60958e-06
-5.60958e-06
-5.60958e-06
-5.60958e-06
-5.60958e-06
-5.60958e-06
-5.60958e-06
-5.60958e-06
-5.60958e-06
-5.60958e-06
-5.60958e-06
-5.60957e-06
-5.60929e-06
-5.60284e-06
)
;
    }
    inandouthalf42
    {
        type            cyclic;
        value           nonuniform List<scalar> 
50
(
5.60958e-06
5.60958e-06
5.60958e-06
5.60958e-06
5.60958e-06
5.60958e-06
5.60958e-06
5.60958e-06
5.60958e-06
5.60958e-06
5.60958e-06
5.60958e-06
5.60958e-06
5.60958e-06
5.60958e-06
5.60958e-06
5.60958e-06
5.60958e-06
5.60958e-06
5.60958e-06
5.60958e-06
5.60958e-06
5.60958e-06
5.60958e-06
5.60958e-06
5.60958e-06
5.60958e-06
5.60958e-06
5.60958e-06
5.60958e-06
5.60958e-06
5.60958e-06
5.60958e-06
5.60958e-06
5.60958e-06
5.60958e-06
5.60958e-06
5.60958e-06
5.60958e-06
5.60958e-06
5.60958e-06
5.60958e-06
5.60958e-06
5.60958e-06
5.60958e-06
5.60958e-06
5.60958e-06
5.60957e-06
5.60929e-06
5.60284e-06
)
;
    }
    top
    {
        type            symmetryPlane;
        value           uniform 0;
    }
    walls
    {
        type            fixedValue;
        value           uniform 0;
    }
    frontAndBackPlanes
    {
        type            empty;
        value           nonuniform 0();
    }
}


// ************************************************************************* //
