/*--------------------------------*- C++ -*----------------------------------*\
| =========                 |                                                 |
| \\      /  F ield         | OpenFOAM: The Open Source CFD Toolbox           |
|  \\    /   O peration     | Version:  2.4.x                                 |
|   \\  /    A nd           | Web:      www.OpenFOAM.org                      |
|    \\/     M anipulation  |                                                 |
\*---------------------------------------------------------------------------*/
FoamFile
{
    version     2.0;
    format      ascii;
    class       surfaceScalarField;
    location    "8.05";
    object      phia;
}
// * * * * * * * * * * * * * * * * * * * * * * * * * * * * * * * * * * * * * //

dimensions      [0 3 -1 0 0 0 0];

internalField   nonuniform List<scalar> 
359
(
-1.65247e-13
-4.17404e-13
-6.51838e-13
-8.78006e-13
-1.1114e-12
-1.3507e-12
-1.59154e-12
-1.83219e-12
-2.07232e-12
-2.31203e-12
-2.55124e-12
-2.78968e-12
-3.02715e-12
-3.26343e-12
-3.49844e-12
-3.73214e-12
-3.96451e-12
-4.19553e-12
-4.42518e-12
-4.65351e-12
-4.88047e-12
-5.10614e-12
-5.33055e-12
-5.55377e-12
-5.77584e-12
-5.99683e-12
-6.21679e-12
-6.43582e-12
-6.654e-12
-6.87138e-12
-7.08802e-12
-7.30405e-12
-7.51943e-12
-7.73437e-12
-7.94882e-12
-8.16288e-12
-8.37657e-12
-8.58998e-12
-8.80318e-12
-9.01609e-12
-9.22888e-12
-9.44151e-12
-9.65394e-12
-9.86631e-12
-1.00786e-11
-1.02907e-11
-1.05028e-11
-1.07147e-11
-1.09264e-11
-1.11382e-11
-1.13497e-11
-1.15611e-11
-1.17722e-11
-1.19833e-11
-1.2194e-11
-1.24045e-11
-1.26146e-11
-1.28244e-11
-1.30337e-11
-1.32424e-11
-1.34507e-11
-1.36584e-11
-1.38657e-11
-1.40722e-11
-1.42781e-11
-1.44832e-11
-1.46875e-11
-1.48908e-11
-1.50932e-11
-1.52944e-11
-1.54945e-11
-1.56936e-11
-1.58915e-11
-1.60882e-11
-1.62836e-11
-1.64778e-11
-1.66706e-11
-1.68619e-11
-1.70516e-11
-1.72397e-11
-1.7426e-11
-1.76107e-11
-1.77935e-11
-1.79747e-11
-1.81541e-11
-1.83318e-11
-1.85076e-11
-1.86815e-11
-1.88534e-11
-1.90232e-11
-1.91909e-11
-1.93565e-11
-1.95199e-11
-1.96811e-11
-1.98403e-11
-1.99973e-11
-2.01522e-11
-2.03049e-11
-2.04555e-11
-2.06039e-11
-2.075e-11
-2.0894e-11
-2.10357e-11
-2.11751e-11
-2.13124e-11
-2.14474e-11
-2.15802e-11
-2.17108e-11
-2.18394e-11
-2.19659e-11
-2.20906e-11
-2.22136e-11
-2.23349e-11
-2.24549e-11
-2.25738e-11
-2.26919e-11
-2.28093e-11
-2.29265e-11
-2.30436e-11
-2.3161e-11
-2.32789e-11
-2.33974e-11
-2.35166e-11
-2.36365e-11
-2.37567e-11
-2.3877e-11
-2.3997e-11
-2.4116e-11
-2.42334e-11
-2.43483e-11
-2.44597e-11
-2.45668e-11
-2.46689e-11
-2.47657e-11
-2.48575e-11
-2.49445e-11
-2.50271e-11
-2.51064e-11
-2.51838e-11
-2.52582e-11
-2.53231e-11
-2.53687e-11
-2.53943e-11
-2.5405e-11
-2.54078e-11
-2.54084e-11
-2.53986e-11
3.05242e-10
7.82312e-09
1.39507e-08
1.7807e-08
2.08969e-08
2.36992e-08
2.63757e-08
2.89598e-08
3.14345e-08
3.37471e-08
3.58216e-08
3.75564e-08
3.88231e-08
3.94587e-08
3.92676e-08
3.80987e-08
3.60115e-08
3.33147e-08
3.03772e-08
2.74611e-08
2.47046e-08
2.21666e-08
1.98625e-08
1.77871e-08
1.59263e-08
1.42631e-08
1.27803e-08
1.14616e-08
1.02922e-08
9.25837e-09
8.34792e-09
7.54977e-09
6.85397e-09
6.2515e-09
5.73422e-09
5.29479e-09
4.92654e-09
4.62341e-09
4.37992e-09
4.19104e-09
4.05222e-09
3.95927e-09
3.90837e-09
3.89599e-09
3.91889e-09
3.97401e-09
4.05851e-09
4.16963e-09
4.30472e-09
4.46115e-09
4.63629e-09
4.82745e-09
5.03194e-09
5.24706e-09
5.47472e-09
5.71252e-09
5.95777e-09
6.20758e-09
6.45886e-09
6.70855e-09
6.95358e-09
7.19106e-09
7.41823e-09
7.63268e-09
7.83224e-09
8.01526e-09
8.18082e-09
8.32812e-09
8.45638e-09
8.56568e-09
8.65646e-09
8.72882e-09
8.78304e-09
8.8194e-09
8.83928e-09
8.8442e-09
8.83496e-09
8.81481e-09
8.78812e-09
8.76023e-09
8.73913e-09
8.73526e-09
8.75405e-09
8.80167e-09
8.87391e-09
8.99142e-09
9.14398e-09
9.45283e-09
9.68098e-09
9.47409e-09
9.44298e-09
9.64543e-09
1.01929e-08
9.79265e-09
1.31876e-08
-2.27088e-08
-1.30923e-07
-1.58313e-07
-1.5824e-07
-1.58237e-07
-1.58223e-07
-1.58208e-07
-1.5819e-07
-1.5817e-07
-1.58148e-07
-1.58125e-07
-1.58099e-07
-1.58076e-07
-1.58055e-07
-1.58034e-07
-1.58014e-07
-1.57999e-07
-1.57985e-07
-1.57971e-07
-1.57952e-07
-1.57916e-07
-1.57893e-07
-1.57891e-07
-1.57891e-07
-1.57891e-07
-1.57891e-07
-1.57891e-07
-1.57891e-07
-1.57891e-07
-1.57891e-07
-1.57891e-07
-1.57891e-07
-1.57891e-07
-1.57891e-07
-1.57891e-07
-1.57891e-07
-1.57891e-07
-1.57891e-07
-1.57891e-07
-1.57891e-07
-1.57891e-07
-1.57891e-07
-1.57891e-07
-1.57891e-07
-1.57891e-07
-1.57891e-07
-1.57891e-07
-1.57891e-07
-1.57891e-07
-1.57891e-07
-1.57891e-07
-1.57891e-07
-1.57891e-07
-1.57891e-07
-1.57891e-07
-1.57891e-07
-1.57891e-07
-1.57891e-07
-1.57891e-07
-1.57891e-07
-1.57891e-07
-1.57891e-07
-1.57891e-07
-1.57891e-07
-1.57891e-07
-1.57891e-07
-1.57891e-07
-1.57891e-07
-1.57891e-07
-1.57891e-07
-1.57891e-07
-1.57891e-07
-1.57891e-07
-1.57891e-07
-1.57891e-07
-1.57891e-07
-1.57891e-07
-1.57891e-07
-1.57891e-07
-1.57891e-07
-1.57891e-07
-1.57891e-07
-1.57891e-07
-1.57891e-07
-1.57891e-07
-1.57891e-07
-1.57891e-07
-1.57891e-07
-1.57891e-07
-1.57891e-07
-1.57891e-07
-1.57891e-07
-1.57891e-07
-1.57891e-07
-1.57891e-07
-1.57891e-07
-1.57891e-07
-1.57891e-07
-1.57891e-07
-1.57891e-07
-1.57891e-07
-1.57891e-07
-1.57891e-07
-1.57891e-07
-1.57891e-07
-1.57891e-07
-1.57891e-07
-1.57891e-07
-1.57891e-07
-1.57891e-07
-1.57891e-07
-1.57891e-07
-1.57891e-07
-1.5789e-07
-1.57873e-07
-1.57163e-07
-1.32127e-07
)
;

boundaryField
{
    inandouthalf11
    {
        type            cyclic;
        value           nonuniform List<scalar> 
100
(
-1.63121e-38
-1.75898e-14
-3.67011e-14
-5.38323e-14
-7.12101e-14
-8.92634e-14
-1.07523e-13
-1.25727e-13
-1.43827e-13
-1.61826e-13
-1.79721e-13
-1.97501e-13
-2.15149e-13
-2.32649e-13
-2.49993e-13
-2.67176e-13
-2.84199e-13
-3.01062e-13
-3.17764e-13
-3.34309e-13
-3.50697e-13
-3.66931e-13
-3.83016e-13
-3.98958e-13
-4.14761e-13
-4.30431e-13
-4.45973e-13
-4.61393e-13
-4.76699e-13
-4.91896e-13
-5.0699e-13
-5.21986e-13
-5.36891e-13
-5.51709e-13
-5.66447e-13
-5.81107e-13
-5.95694e-13
-6.10212e-13
-6.24667e-13
-6.39059e-13
-6.53391e-13
-6.67667e-13
-6.81886e-13
-6.96051e-13
-7.10164e-13
-7.24225e-13
-7.38235e-13
-7.5219e-13
-7.66089e-13
-7.79938e-13
-7.93734e-13
-8.07474e-13
-8.21158e-13
-8.34783e-13
-8.48349e-13
-8.61852e-13
-8.7529e-13
-8.8866e-13
-9.01957e-13
-9.15177e-13
-9.28318e-13
-9.41382e-13
-9.54365e-13
-9.67265e-13
-9.80079e-13
-9.928e-13
-1.00542e-12
-1.01795e-12
-1.03037e-12
-1.04268e-12
-1.05487e-12
-1.06695e-12
-1.07892e-12
-1.09077e-12
-1.1025e-12
-1.11412e-12
-1.1256e-12
-1.13696e-12
-1.14817e-12
-1.15925e-12
-1.17018e-12
-1.18097e-12
-1.19161e-12
-1.2021e-12
-1.21245e-12
-1.22266e-12
-1.23272e-12
-1.24263e-12
-1.25238e-12
-1.26197e-12
-1.2714e-12
-1.28067e-12
-1.28977e-12
-1.29872e-12
-1.3075e-12
-1.31612e-12
-1.32458e-12
-1.33288e-12
-1.34103e-12
-1.34901e-12
)
;
    }
    inandouthalf12
    {
        type            cyclic;
        value           nonuniform List<scalar> 
100
(
1.63121e-38
1.75898e-14
3.67011e-14
5.38323e-14
7.12101e-14
8.92634e-14
1.07523e-13
1.25727e-13
1.43827e-13
1.61826e-13
1.79721e-13
1.97501e-13
2.15149e-13
2.32649e-13
2.49993e-13
2.67176e-13
2.84199e-13
3.01062e-13
3.17764e-13
3.34309e-13
3.50697e-13
3.66931e-13
3.83016e-13
3.98958e-13
4.14761e-13
4.30431e-13
4.45973e-13
4.61393e-13
4.76699e-13
4.91896e-13
5.0699e-13
5.21986e-13
5.36891e-13
5.51709e-13
5.66447e-13
5.81107e-13
5.95694e-13
6.10212e-13
6.24667e-13
6.39059e-13
6.53391e-13
6.67667e-13
6.81886e-13
6.96051e-13
7.10164e-13
7.24225e-13
7.38235e-13
7.5219e-13
7.66089e-13
7.79938e-13
7.93734e-13
8.07474e-13
8.21158e-13
8.34783e-13
8.48349e-13
8.61852e-13
8.7529e-13
8.8866e-13
9.01957e-13
9.15177e-13
9.28318e-13
9.41382e-13
9.54365e-13
9.67265e-13
9.80079e-13
9.928e-13
1.00542e-12
1.01795e-12
1.03037e-12
1.04268e-12
1.05487e-12
1.06695e-12
1.07892e-12
1.09077e-12
1.1025e-12
1.11412e-12
1.1256e-12
1.13696e-12
1.14817e-12
1.15925e-12
1.17018e-12
1.18097e-12
1.19161e-12
1.2021e-12
1.21245e-12
1.22266e-12
1.23272e-12
1.24263e-12
1.25238e-12
1.26197e-12
1.2714e-12
1.28067e-12
1.28977e-12
1.29872e-12
1.3075e-12
1.31612e-12
1.32458e-12
1.33288e-12
1.34103e-12
1.34901e-12
)
;
    }
    inandouthalf21
    {
        type            cyclic;
        value           nonuniform List<scalar> 
100
(
-1.35684e-12
-1.3645e-12
-1.372e-12
-1.37933e-12
-1.38651e-12
-1.39352e-12
-1.40038e-12
-1.40707e-12
-1.41361e-12
-1.42e-12
-1.42625e-12
-1.43235e-12
-1.43831e-12
-1.44415e-12
-1.44987e-12
-1.45548e-12
-1.46098e-12
-1.46639e-12
-1.47171e-12
-1.47695e-12
-1.48211e-12
-1.48717e-12
-1.49215e-12
-1.49701e-12
-1.50174e-12
-1.50632e-12
-1.5107e-12
-1.51486e-12
-1.51875e-12
-1.52234e-12
-1.52558e-12
-1.52845e-12
-1.53092e-12
-1.53298e-12
-1.53463e-12
-1.53589e-12
-1.53675e-12
-1.53722e-12
-1.53729e-12
-1.53692e-12
-1.53611e-12
-1.53508e-12
-1.53417e-12
-1.53366e-12
-1.53354e-12
-1.5336e-12
-1.53388e-12
-1.58994e-12
-6.31342e-08
-1.91647e-07
-3.01026e-07
-3.90567e-07
-4.65153e-07
-5.28191e-07
-5.81922e-07
-6.2786e-07
-6.67046e-07
-7.00201e-07
-7.27853e-07
-7.50452e-07
-7.68479e-07
-7.82513e-07
-7.93225e-07
-8.01311e-07
-8.07403e-07
-8.12e-07
-8.15465e-07
-8.18056e-07
-8.19955e-07
-8.21295e-07
-8.22177e-07
-8.22678e-07
-8.22861e-07
-8.22772e-07
-8.22454e-07
-8.2194e-07
-8.21258e-07
-8.20431e-07
-8.19482e-07
-8.18427e-07
-8.17282e-07
-8.16063e-07
-8.1478e-07
-8.13446e-07
-8.1207e-07
-8.10661e-07
-8.09227e-07
-8.07777e-07
-8.06316e-07
-8.04852e-07
-8.03391e-07
-8.01937e-07
-8.00496e-07
-7.99073e-07
-7.97673e-07
-7.96299e-07
-7.94956e-07
-7.93648e-07
-7.92378e-07
-7.9115e-07
)
;
    }
    inandouthalf22
    {
        type            cyclic;
        value           nonuniform List<scalar> 
100
(
1.35684e-12
1.3645e-12
1.372e-12
1.37933e-12
1.38651e-12
1.39352e-12
1.40038e-12
1.40707e-12
1.41361e-12
1.42e-12
1.42625e-12
1.43235e-12
1.43831e-12
1.44415e-12
1.44987e-12
1.45548e-12
1.46098e-12
1.46639e-12
1.47171e-12
1.47695e-12
1.48211e-12
1.48717e-12
1.49215e-12
1.49701e-12
1.50174e-12
1.50632e-12
1.5107e-12
1.51486e-12
1.51875e-12
1.52234e-12
1.52558e-12
1.52845e-12
1.53092e-12
1.53298e-12
1.53463e-12
1.53589e-12
1.53675e-12
1.53722e-12
1.53729e-12
1.53692e-12
1.53611e-12
1.53508e-12
1.53417e-12
1.53366e-12
1.53354e-12
1.5336e-12
1.53388e-12
1.58994e-12
6.31342e-08
1.91647e-07
3.01026e-07
3.90567e-07
4.65153e-07
5.28191e-07
5.81922e-07
6.2786e-07
6.67046e-07
7.00201e-07
7.27853e-07
7.50452e-07
7.68479e-07
7.82513e-07
7.93225e-07
8.01311e-07
8.07403e-07
8.12e-07
8.15465e-07
8.18056e-07
8.19955e-07
8.21295e-07
8.22177e-07
8.22678e-07
8.22861e-07
8.22772e-07
8.22454e-07
8.2194e-07
8.21258e-07
8.20431e-07
8.19482e-07
8.18427e-07
8.17282e-07
8.16063e-07
8.1478e-07
8.13446e-07
8.1207e-07
8.10661e-07
8.09227e-07
8.07777e-07
8.06316e-07
8.04852e-07
8.03391e-07
8.01937e-07
8.00496e-07
7.99073e-07
7.97673e-07
7.96299e-07
7.94956e-07
7.93648e-07
7.92378e-07
7.9115e-07
)
;
    }
    inandouthalf31
    {
        type            cyclic;
        value           nonuniform List<scalar> 
110
(
-7.8997e-07
-8.04833e-07
-8.20002e-07
-8.35483e-07
-8.51285e-07
-8.67414e-07
-8.83879e-07
-9.00687e-07
-9.17847e-07
-9.35367e-07
-9.53255e-07
-9.71517e-07
-9.90162e-07
-1.0092e-06
-1.02863e-06
-1.04847e-06
-1.06872e-06
-1.08939e-06
-1.11049e-06
-1.13203e-06
-1.15401e-06
-1.17644e-06
-1.19933e-06
-1.2227e-06
-1.24654e-06
-1.27088e-06
-1.29572e-06
-1.32107e-06
-1.34696e-06
-1.3734e-06
-1.4004e-06
-1.42799e-06
-1.4562e-06
-1.48506e-06
-1.51465e-06
-1.54499e-06
-1.57596e-06
-1.54353e-06
-1.56748e-06
-1.59291e-06
-1.61885e-06
-1.64511e-06
-1.67249e-06
-1.70181e-06
-1.7324e-06
-1.76072e-06
-1.79054e-06
-1.82111e-06
-1.8526e-06
-1.88511e-06
-1.91873e-06
-1.95357e-06
-1.98975e-06
-2.02736e-06
-2.06649e-06
-2.10735e-06
-2.14981e-06
-2.19395e-06
-2.23979e-06
-2.28721e-06
-2.33608e-06
-2.38619e-06
-2.43701e-06
-2.4875e-06
-2.53811e-06
-2.58963e-06
-2.6422e-06
-2.69583e-06
-2.75055e-06
-2.80637e-06
-2.86334e-06
-2.92145e-06
-2.98075e-06
-3.04125e-06
-3.10298e-06
-3.16596e-06
-3.23023e-06
-3.29579e-06
-3.36269e-06
-3.43094e-06
-3.50058e-06
-3.57163e-06
-3.64413e-06
-3.71809e-06
-3.79356e-06
-3.87056e-06
-3.94912e-06
-4.02928e-06
-4.11106e-06
-4.1945e-06
-4.27964e-06
-4.36651e-06
-4.45514e-06
-4.54556e-06
-4.63783e-06
-4.73196e-06
-4.82801e-06
-4.926e-06
-5.02599e-06
-5.128e-06
-5.23209e-06
-5.33828e-06
-5.44664e-06
-5.55719e-06
-5.66999e-06
-5.78507e-06
-5.90249e-06
-6.0223e-06
-6.14453e-06
-6.26925e-06
)
;
    }
    inandouthalf32
    {
        type            cyclic;
        value           nonuniform List<scalar> 
110
(
7.8997e-07
8.04833e-07
8.20002e-07
8.35483e-07
8.51285e-07
8.67414e-07
8.83879e-07
9.00687e-07
9.17847e-07
9.35367e-07
9.53255e-07
9.71517e-07
9.90162e-07
1.0092e-06
1.02863e-06
1.04847e-06
1.06872e-06
1.08939e-06
1.11049e-06
1.13203e-06
1.15401e-06
1.17644e-06
1.19933e-06
1.2227e-06
1.24654e-06
1.27088e-06
1.29572e-06
1.32107e-06
1.34696e-06
1.3734e-06
1.4004e-06
1.42799e-06
1.4562e-06
1.48506e-06
1.51465e-06
1.54499e-06
1.57596e-06
1.54353e-06
1.56748e-06
1.59291e-06
1.61885e-06
1.64511e-06
1.67249e-06
1.70181e-06
1.7324e-06
1.76072e-06
1.79054e-06
1.82111e-06
1.8526e-06
1.88511e-06
1.91873e-06
1.95357e-06
1.98975e-06
2.02736e-06
2.06649e-06
2.10735e-06
2.14981e-06
2.19395e-06
2.23979e-06
2.28721e-06
2.33608e-06
2.38619e-06
2.43701e-06
2.4875e-06
2.53811e-06
2.58963e-06
2.6422e-06
2.69583e-06
2.75055e-06
2.80637e-06
2.86334e-06
2.92145e-06
2.98075e-06
3.04125e-06
3.10298e-06
3.16596e-06
3.23023e-06
3.29579e-06
3.36269e-06
3.43094e-06
3.50058e-06
3.57163e-06
3.64413e-06
3.71809e-06
3.79356e-06
3.87056e-06
3.94912e-06
4.02928e-06
4.11106e-06
4.1945e-06
4.27964e-06
4.36651e-06
4.45514e-06
4.54556e-06
4.63783e-06
4.73196e-06
4.82801e-06
4.926e-06
5.02599e-06
5.128e-06
5.23209e-06
5.33828e-06
5.44664e-06
5.55719e-06
5.66999e-06
5.78507e-06
5.90249e-06
6.0223e-06
6.14453e-06
6.26925e-06
)
;
    }
    inandouthalf41
    {
        type            cyclic;
        value           nonuniform List<scalar> 
50
(
-5.61162e-06
-5.61162e-06
-5.61162e-06
-5.61162e-06
-5.61162e-06
-5.61162e-06
-5.61162e-06
-5.61162e-06
-5.61162e-06
-5.61162e-06
-5.61162e-06
-5.61162e-06
-5.61162e-06
-5.61162e-06
-5.61162e-06
-5.61162e-06
-5.61162e-06
-5.61162e-06
-5.61162e-06
-5.61162e-06
-5.61162e-06
-5.61162e-06
-5.61162e-06
-5.61162e-06
-5.61162e-06
-5.61162e-06
-5.61162e-06
-5.61162e-06
-5.61162e-06
-5.61162e-06
-5.61162e-06
-5.61162e-06
-5.61162e-06
-5.61162e-06
-5.61162e-06
-5.61162e-06
-5.61162e-06
-5.61162e-06
-5.61162e-06
-5.61162e-06
-5.61162e-06
-5.61162e-06
-5.61162e-06
-5.61162e-06
-5.61162e-06
-5.61162e-06
-5.61162e-06
-5.61161e-06
-5.61133e-06
-5.60488e-06
)
;
    }
    inandouthalf42
    {
        type            cyclic;
        value           nonuniform List<scalar> 
50
(
5.61162e-06
5.61162e-06
5.61162e-06
5.61162e-06
5.61162e-06
5.61162e-06
5.61162e-06
5.61162e-06
5.61162e-06
5.61162e-06
5.61162e-06
5.61162e-06
5.61162e-06
5.61162e-06
5.61162e-06
5.61162e-06
5.61162e-06
5.61162e-06
5.61162e-06
5.61162e-06
5.61162e-06
5.61162e-06
5.61162e-06
5.61162e-06
5.61162e-06
5.61162e-06
5.61162e-06
5.61162e-06
5.61162e-06
5.61162e-06
5.61162e-06
5.61162e-06
5.61162e-06
5.61162e-06
5.61162e-06
5.61162e-06
5.61162e-06
5.61162e-06
5.61162e-06
5.61162e-06
5.61162e-06
5.61162e-06
5.61162e-06
5.61162e-06
5.61162e-06
5.61162e-06
5.61162e-06
5.61161e-06
5.61133e-06
5.60488e-06
)
;
    }
    top
    {
        type            symmetryPlane;
        value           uniform 0;
    }
    walls
    {
        type            fixedValue;
        value           uniform 0;
    }
    frontAndBackPlanes
    {
        type            empty;
        value           nonuniform 0();
    }
}


// ************************************************************************* //
