/*--------------------------------*- C++ -*----------------------------------*\
| =========                 |                                                 |
| \\      /  F ield         | OpenFOAM: The Open Source CFD Toolbox           |
|  \\    /   O peration     | Version:  2.4.x                                 |
|   \\  /    A nd           | Web:      www.OpenFOAM.org                      |
|    \\/     M anipulation  |                                                 |
\*---------------------------------------------------------------------------*/
FoamFile
{
    version     2.0;
    format      ascii;
    class       volVectorField;
    location    "8.05";
    object      susb;
}
// * * * * * * * * * * * * * * * * * * * * * * * * * * * * * * * * * * * * * //

dimensions      [0 1 -2 0 0 0 0];

internalField   nonuniform List<vector> 
360
(
(0 5.8162e-18 0)
(0 6.5196e-18 0)
(0 6.13004e-20 0)
(0 -9.21132e-19 0)
(-3.6987e-31 -4.19206e-19 0)
(-3.69831e-31 -2.31002e-19 0)
(-7.39574e-31 -2.7971e-19 0)
(0 -3.16401e-19 0)
(-3.69673e-31 -3.23154e-19 0)
(0 -3.27334e-19 0)
(-7.39112e-31 -3.28699e-19 0)
(0 -3.29545e-19 0)
(-3.69438e-31 -3.31751e-19 0)
(0 -3.34105e-19 0)
(0 -3.37563e-19 0)
(0 -3.41109e-19 0)
(0 -3.43748e-19 0)
(-3.69134e-31 -3.45982e-19 0)
(0 -3.49733e-19 0)
(0 -3.52107e-19 0)
(0 -3.54636e-19 0)
(-3.68881e-31 -3.58659e-19 0)
(0 -3.61377e-19 0)
(0 -3.6466e-19 0)
(0 -3.68045e-19 0)
(-7.37239e-31 -3.70657e-19 0)
(0 -3.74564e-19 0)
(0 -3.78664e-19 0)
(0 -3.81389e-19 0)
(0 -3.84687e-19 0)
(0 -3.89651e-19 0)
(0 -3.91921e-19 0)
(0 -3.96513e-19 0)
(0 -4.0121e-19 0)
(0 -4.03907e-19 0)
(3.67922e-31 -4.08117e-19 0)
(0 -4.12108e-19 0)
(0 -4.18407e-19 0)
(0 -4.19988e-19 0)
(0 -4.24917e-19 0)
(0 -4.31877e-19 0)
(0 -4.32769e-19 0)
(3.67392e-31 -4.39033e-19 0)
(0 -4.44751e-19 0)
(0 -4.48108e-19 0)
(0 -4.54937e-19 0)
(0 -4.57379e-19 0)
(0 -4.61622e-19 0)
(0 -4.71274e-19 0)
(0 -4.74237e-19 0)
(3.66734e-31 -4.78199e-19 0)
(0 -4.85363e-19 0)
(0 -4.91066e-19 0)
(0 -4.95491e-19 0)
(0 -5.02606e-19 0)
(0 -5.08327e-19 0)
(0 -5.13647e-19 0)
(0 -5.21562e-19 0)
(0 -5.24353e-19 0)
(0 -5.3338e-19 0)
(0 -5.40412e-19 0)
(0 -5.46189e-19 0)
(0 -5.54439e-19 0)
(0 -5.60379e-19 0)
(0 -5.67291e-19 0)
(0 -5.74843e-19 0)
(0 -5.83593e-19 0)
(0 -5.90624e-19 0)
(0 -5.96088e-19 0)
(0 -6.05784e-19 0)
(0 -6.17549e-19 0)
(0 -6.22297e-19 0)
(0 -6.30821e-19 0)
(0 -6.42004e-19 0)
(0 -6.51505e-19 0)
(0 -6.60351e-19 0)
(0 -6.68163e-19 0)
(0 -6.79127e-19 0)
(0 -6.89954e-19 0)
(0 -6.99566e-19 0)
(0 -7.1017e-19 0)
(0 -7.2236e-19 0)
(0 -7.33914e-19 0)
(0 -7.45833e-19 0)
(0 -7.58099e-19 0)
(0 -7.70775e-19 0)
(0 -7.8355e-19 0)
(0 -7.96253e-19 0)
(0 -8.09959e-19 0)
(0 -8.24197e-19 0)
(0 -8.38701e-19 0)
(0 -8.54067e-19 0)
(0 -8.70164e-19 0)
(0 -8.86598e-19 0)
(0 -9.03555e-19 0)
(0 -9.21048e-19 0)
(0 -9.39035e-19 0)
(0 -9.57599e-19 0)
(0 -9.76883e-19 0)
(0 -9.96926e-19 0)
(0 -1.01776e-18 0)
(0 -1.03948e-18 0)
(0 -1.06209e-18 0)
(0 -1.08558e-18 0)
(0 -1.11002e-18 0)
(0 -1.13545e-18 0)
(0 -1.16192e-18 0)
(0 -1.1895e-18 0)
(0 -1.21825e-18 0)
(0 -1.24822e-18 0)
(0 -1.27948e-18 0)
(0 -1.31208e-18 0)
(0 -1.34607e-18 0)
(0 -1.38152e-18 0)
(0 -1.4185e-18 0)
(0 -1.4571e-18 0)
(0 -1.4974e-18 0)
(0 -1.53955e-18 0)
(0 -1.58367e-18 0)
(0 -1.62997e-18 0)
(0 -1.67862e-18 0)
(0 -1.72985e-18 0)
(0 -1.78386e-18 0)
(0 -1.84099e-18 0)
(0 -1.90177e-18 0)
(0 -1.9671e-18 0)
(0 -2.03822e-18 0)
(0 -2.11626e-18 0)
(0 -2.20137e-18 0)
(0 -2.29203e-18 0)
(0 -2.38658e-18 0)
(0 -2.48827e-18 0)
(0 -2.60821e-18 0)
(0 -2.75378e-18 0)
(0 -2.90971e-18 0)
(0 -1.87045e-18 0)
(0 -2.72509e-18 0)
(0 -2.18601e-17 0)
(0 -3.2299e-16 0)
(0 -5.35539e-15 0)
(0 -9.04912e-14 0)
(0 -1.80146e-12 0)
(0 -4.65782e-11 0)
(0 -1.38758e-09 0)
(0 -6.11466e-08 0)
(0 -3.11818e-06 0)
(0 -0.000268374 0)
(0 -0.320214 0)
(0 -2.55599 0)
(0 -2.20259 0)
(0 -1.16241 0)
(0 -0.909008 0)
(0 -0.770206 0)
(0 -0.655765 0)
(0 -0.547576 0)
(0 -0.445436 0)
(0 -0.352848 0)
(0 -0.272483 0)
(0 -0.205525 0)
(0 -0.151855 0)
(0 -0.110429 0)
(0 -0.0795171 0)
(0 -0.0569075 0)
(0 -0.04045 0)
(0 -0.0286158 0)
(0 -0.0204228 0)
(0 -0.0149959 0)
(0 -0.0114582 0)
(0 -0.00910043 0)
(0 -0.00746022 0)
(0 -0.00626672 0)
(0 -0.00536383 0)
(0 -0.00465875 0)
(0 -0.00409392 0)
(0 -0.003632 0)
(0 -0.00324781 0)
(0 -0.00292376 0)
(0 -0.00264715 0)
(0 -0.0024086 0)
(0 -0.00220103 0)
(0 -0.00201896 0)
(0 -0.00185813 0)
(0 -0.00171515 0)
(0 -0.00158733 0)
(0 -0.00147246 0)
(0 -0.00136875 0)
(0 -0.00127474 0)
(0 -0.00118918 0)
(0 -0.00111104 0)
(0 -0.00103945 0)
(0 -0.000973677 0)
(0 -0.000913132 0)
(0 -0.000857322 0)
(0 -0.000805834 0)
(0 -0.00075831 0)
(0 -0.000714444 0)
(0 -0.000673964 0)
(0 -0.00063659 0)
(0 -0.000601974 0)
(0 -0.00056969 0)
(0 -0.000539308 0)
(0 -0.000510233 0)
(-3.29817e-19 -0.000482073 0)
(0 -0.000454673 0)
(0 -0.000427723 0)
(3.10475e-19 -0.000400909 0)
(0 -0.00037403 0)
(-2.96572e-19 -0.00034702 0)
(0 -0.000319922 0)
(1.4096e-19 -0.000292827 0)
(0 -0.000265878 0)
(0 -0.000239191 0)
(0 -0.000212959 0)
(1.25298e-19 -0.000187806 0)
(0 -0.000164243 0)
(0 -0.000142206 0)
(0 -0.000121813 0)
(0 -0.000103542 0)
(0 -8.74464e-05 0)
(-2.49273e-20 -7.32704e-05 0)
(0 -6.07931e-05 0)
(0 -5.00068e-05 0)
(0 -4.09485e-05 0)
(-1.01805e-20 -3.32448e-05 0)
(0 -2.66715e-05 0)
(0 -2.12456e-05 0)
(0 -1.67835e-05 0)
(0 -1.31336e-05 0)
(3.66216e-21 -1.04272e-05 0)
(3.65423e-21 -8.71027e-06 0)
(0 -7.39496e-06 0)
(0 -6.11698e-06 0)
(0 -4.90637e-06 0)
(0 -3.97973e-06 0)
(0 -4.11058e-06 0)
(0 -3.7688e-06 0)
(0 -2.29286e-06 0)
(0 -1.27571e-06 0)
(0 -1.00097e-06 0)
(0 -7.28388e-07 0)
(0 -5.31259e-07 0)
(0 -3.612e-07 0)
(0 -2.63226e-07 0)
(-2.27347e-33 -1.37156e-07 0)
(1.81676e-44 -8.51072e-18 0)
(0 -1.19077e-28 0)
(0 -1.90084e-39 0)
(-1.04378e-55 -4.9288e-40 0)
(0 -4.58115e-40 0)
(0 -2.01025e-40 0)
(-9.7861e-57 -6.76358e-41 0)
(0 -2.73405e-41 0)
(0 -1.26032e-41 0)
(0 -7.33676e-42 0)
(0 -5.53982e-42 0)
(0 -3.27483e-42 0)
(0 -1.19557e-42 0)
(0 -4.41282e-43 0)
(0 -1.83104e-43 0)
(0 -8.45962e-44 0)
(0 -3.73809e-44 0)
(0 -1.15842e-44 0)
(0 -2.2878e-45 0)
(0 -1.55433e-46 0)
(0 -2.53907e-48 0)
(0 -2.63705e-50 0)
(4.19993e-68 -2.59401e-52 0)
(0 -2.41307e-54 0)
(0 -2.11364e-56 0)
(0 -1.73546e-58 0)
(0 -1.28765e-60 0)
(0 -3.9747e-63 0)
(0 -2.12035e-64 0)
(0 -9.11608e-65 0)
(0 -3.83814e-65 0)
(0 -1.58133e-65 0)
(0 -6.37057e-66 0)
(0 -2.5074e-66 0)
(0 -9.63341e-67 0)
(0 -3.60943e-67 0)
(0 -1.31756e-67 0)
(0 -4.68067e-68 0)
(0 -1.61645e-68 0)
(0 -5.42003e-69 0)
(0 -1.76221e-69 0)
(0 -5.54775e-70 0)
(3.62322e-86 -1.68855e-70 0)
(0 -4.96058e-71 0)
(0 -1.40407e-71 0)
(0 -3.82142e-72 0)
(0 -9.97947e-73 0)
(0 -2.49461e-73 0)
(0 -5.95342e-74 0)
(0 -1.35247e-74 0)
(0 -2.91515e-75 0)
(0 -5.93966e-76 0)
(1.41318e-92 -1.13921e-76 0)
(0 -2.0469e-77 0)
(0 -3.42626e-78 0)
(-5.19729e-95 -5.30807e-79 0)
(0 -7.5523e-80 0)
(0 -9.77653e-81 0)
(0 -1.13828e-81 0)
(0 -1.17479e-82 0)
(0 -1.05464e-83 0)
(0 -8.02684e-85 0)
(0 -4.99252e-86 0)
(0 -2.39653e-87 0)
(0 -8.01994e-89 0)
(0 -1.48061e-90 0)
(0 -4.03113e-93 0)
(0 -5.17134e-98 0)
(0 -4.30263e-100 0)
(0 -1.77473e-102 0)
(0 -6.24667e-113 0)
(0 -1.09952e-123 0)
(0 -1.40533e-134 0)
(0 -1.29167e-145 0)
(0 -1.01846e-156 0)
(0 -6.087e-168 0)
(0 -3.143e-179 0)
(0 -2.10636e-189 0)
(0 -9.14843e-200 0)
(0 -6.85014e-208 0)
(0 -2.70505e-218 0)
(0 -2.35616e-226 0)
(0 -1.09405e-236 0)
(0 -8.10768e-245 0)
(0 -4.62269e-255 0)
(0 -2.79216e-263 0)
(0 -2.94769e-273 0)
(0 -9.78527e-282 0)
(0 -1.94617e-291 0)
(0 -3.51625e-300 0)
(0 -9.62972e-310 0)
(0 -1.29223e-318 0)
(0 -0 0)
(0 -0 0)
(0 0 0)
(0 0 0)
(0 0 0)
(0 0 0)
(0 0 0)
(0 0 0)
(0 0 0)
(0 0 0)
(0 0 0)
(0 0 0)
(0 0 0)
(0 0 0)
(0 0 0)
(0 0 0)
(0 0 0)
(0 0 0)
(0 0 0)
(0 0 0)
(0 0 0)
(0 0 0)
(0 0 0)
(0 0 0)
)
;

boundaryField
{
    inandouthalf11
    {
        type            cyclic;
    }
    inandouthalf12
    {
        type            cyclic;
    }
    inandouthalf21
    {
        type            cyclic;
    }
    inandouthalf22
    {
        type            cyclic;
    }
    inandouthalf31
    {
        type            cyclic;
    }
    inandouthalf32
    {
        type            cyclic;
    }
    inandouthalf41
    {
        type            cyclic;
    }
    inandouthalf42
    {
        type            cyclic;
    }
    top
    {
        type            symmetryPlane;
    }
    walls
    {
        type            zeroGradient;
    }
    frontAndBackPlanes
    {
        type            empty;
    }
}


// ************************************************************************* //
