/*--------------------------------*- C++ -*----------------------------------*\
| =========                 |                                                 |
| \\      /  F ield         | OpenFOAM: The Open Source CFD Toolbox           |
|  \\    /   O peration     | Version:  2.4.x                                 |
|   \\  /    A nd           | Web:      www.OpenFOAM.org                      |
|    \\/     M anipulation  |                                                 |
\*---------------------------------------------------------------------------*/
FoamFile
{
    version     2.0;
    format      ascii;
    class       volTensorField;
    location    "8.05";
    object      Taus;
}
// * * * * * * * * * * * * * * * * * * * * * * * * * * * * * * * * * * * * * //

dimensions      [0 2 -2 0 0 0 0];

internalField   nonuniform List<tensor> 
360
(
(0 0.0234919 0 0.0234919 -0.203368 0 0 0 0)
(0 0.03421 0 0.03421 -0.255763 0 0 0 0)
(0 0.0410594 0 0.0410594 -0.260276 0 0 0 0)
(0 0.0396163 0 0.0396163 -0.254097 0 0 0 0)
(-2.7224e-17 0.0382108 0 0.0382108 -0.251309 0 0 0 0)
(-2.63385e-17 0.037888 0 0.037888 -0.250286 0 0 0 0)
(-2.60887e-17 0.037684 0 0.037684 -0.249036 0 0 0 0)
(0 0.0373505 0 0.0373505 -0.247506 0 0 0 0)
(-2.5856e-17 0.0369754 0 0.0369754 -0.245957 0 0 0 0)
(0 0.0365957 0 0.0365957 -0.244398 0 0 0 0)
(-5.12544e-17 0.0362172 0 0.0362172 -0.24283 0 0 0 0)
(0 0.0358471 0 0.0358471 -0.241276 0 0 0 0)
(-5.09664e-17 0.0354816 0 0.0354816 -0.239718 0 0 0 0)
(0 0.0351202 0 0.0351202 -0.238161 0 0 0 0)
(0 0.0347607 0 0.0347607 -0.2366 0 0 0 0)
(0 0.0344017 0 0.0344017 -0.235031 0 0 0 0)
(0 0.0340445 0 0.0340445 -0.233457 0 0 0 0)
(-1.01353e-16 0.0336913 0 0.0336913 -0.231884 0 0 0 0)
(0 0.0333408 0 0.0333408 -0.23031 0 0 0 0)
(0 0.0329914 0 0.0329914 -0.228724 0 0 0 0)
(0 0.0326477 0 0.0326477 -0.227149 0 0 0 0)
(-5.04638e-17 0.0323046 0 0.0323046 -0.225561 0 0 0 0)
(0 0.0319639 0 0.0319639 -0.223972 0 0 0 0)
(0 0.0316263 0 0.0316263 -0.222382 0 0 0 0)
(0 0.0312905 0 0.0312905 -0.220786 0 0 0 0)
(-5.00768e-17 0.0309578 0 0.0309578 -0.219188 0 0 0 0)
(0 0.0306284 0 0.0306284 -0.217593 0 0 0 0)
(0 0.0302988 0 0.0302988 -0.215985 0 0 0 0)
(0 0.0299722 0 0.0299722 -0.214378 0 0 0 0)
(0 0.029649 0 0.029649 -0.21277 0 0 0 0)
(0 0.0293269 0 0.0293269 -0.21116 0 0 0 0)
(0 0.0290056 0 0.0290056 -0.209536 0 0 0 0)
(0 0.0286898 0 0.0286898 -0.207931 0 0 0 0)
(0 0.0283706 0 0.0283706 -0.206295 0 0 0 0)
(0 0.0280566 0 0.0280566 -0.204678 0 0 0 0)
(1.91564e-16 0.0277435 0 0.0277435 -0.203046 0 0 0 0)
(0 0.0274333 0 0.0274333 -0.201421 0 0 0 0)
(0 0.0271221 0 0.0271221 -0.199784 0 0 0 0)
(0 0.0268117 0 0.0268117 -0.198137 0 0 0 0)
(0 0.0265082 0 0.0265082 -0.196515 0 0 0 0)
(0 0.0261994 0 0.0261994 -0.194858 0 0 0 0)
(0 0.0258945 0 0.0258945 -0.193211 0 0 0 0)
(9.10499e-17 0.0255942 0 0.0255942 -0.191576 0 0 0 0)
(0 0.0252897 0 0.0252897 -0.189911 0 0 0 0)
(0 0.0249892 0 0.0249892 -0.188262 0 0 0 0)
(0 0.0246884 0 0.0246884 -0.186603 0 0 0 0)
(0 0.0243883 0 0.0243883 -0.184934 0 0 0 0)
(0 0.0240947 0 0.0240947 -0.183287 0 0 0 0)
(0 0.0237974 0 0.0237974 -0.181619 0 0 0 0)
(0 0.0234979 0 0.0234979 -0.179935 0 0 0 0)
(1.7019e-16 0.0232057 0 0.0232057 -0.178278 0 0 0 0)
(0 0.0229117 0 0.0229117 -0.176598 0 0 0 0)
(0 0.0226186 0 0.0226186 -0.174924 0 0 0 0)
(0 0.022326 0 0.022326 -0.173239 0 0 0 0)
(0 0.0220366 0 0.0220366 -0.171568 0 0 0 0)
(0 0.0217442 0 0.0217442 -0.16987 0 0 0 0)
(0 0.0214567 0 0.0214567 -0.168195 0 0 0 0)
(0 0.0211669 0 0.0211669 -0.166497 0 0 0 0)
(0 0.0208803 0 0.0208803 -0.164806 0 0 0 0)
(0 0.0205968 0 0.0205968 -0.163125 0 0 0 0)
(0 0.0203088 0 0.0203088 -0.161413 0 0 0 0)
(0 0.0200254 0 0.0200254 -0.159725 0 0 0 0)
(0 0.0197403 0 0.0197403 -0.158015 0 0 0 0)
(0 0.0194573 0 0.0194573 -0.156314 0 0 0 0)
(0 0.0191754 0 0.0191754 -0.154606 0 0 0 0)
(0 0.0188953 0 0.0188953 -0.152901 0 0 0 0)
(0 0.0186146 0 0.0186146 -0.151188 0 0 0 0)
(0 0.0183347 0 0.0183347 -0.149472 0 0 0 0)
(0 0.0180578 0 0.0180578 -0.147758 0 0 0 0)
(0 0.0177836 0 0.0177836 -0.146052 0 0 0 0)
(0 0.0175058 0 0.0175058 -0.144325 0 0 0 0)
(0 0.017229 0 0.017229 -0.142595 0 0 0 0)
(0 0.0169577 0 0.0169577 -0.140884 0 0 0 0)
(0 0.0166841 0 0.0166841 -0.139151 0 0 0 0)
(0 0.0164113 0 0.0164113 -0.137424 0 0 0 0)
(0 0.0161385 0 0.0161385 -0.135686 0 0 0 0)
(0 0.0158693 0 0.0158693 -0.133958 0 0 0 0)
(0 0.0156013 0 0.0156013 -0.132225 0 0 0 0)
(0 0.0153334 0 0.0153334 -0.130487 0 0 0 0)
(0 0.0150668 0 0.0150668 -0.128747 0 0 0 0)
(0 0.0148024 0 0.0148024 -0.12701 0 0 0 0)
(0 0.0145384 0 0.0145384 -0.125267 0 0 0 0)
(0 0.0142749 0 0.0142749 -0.12352 0 0 0 0)
(0 0.0140125 0 0.0140125 -0.121773 0 0 0 0)
(0 0.013751 0 0.013751 -0.120022 0 0 0 0)
(0 0.0134906 0 0.0134906 -0.11827 0 0 0 0)
(0 0.0132311 0 0.0132311 -0.116515 0 0 0 0)
(0 0.0129732 0 0.0129732 -0.11476 0 0 0 0)
(0 0.0127168 0 0.0127168 -0.113004 0 0 0 0)
(0 0.0124615 0 0.0124615 -0.111245 0 0 0 0)
(0 0.0122074 0 0.0122074 -0.109485 0 0 0 0)
(0 0.0119546 0 0.0119546 -0.107723 0 0 0 0)
(0 0.0117027 0 0.0117027 -0.105958 0 0 0 0)
(0 0.0114516 0 0.0114516 -0.104191 0 0 0 0)
(0 0.0112015 0 0.0112015 -0.102422 0 0 0 0)
(0 0.0109524 0 0.0109524 -0.100651 0 0 0 0)
(0 0.0107042 0 0.0107042 -0.0988789 0 0 0 0)
(0 0.010457 0 0.010457 -0.097105 0 0 0 0)
(0 0.0102108 0 0.0102108 -0.0953298 0 0 0 0)
(0 0.00996566 0 0.00996566 -0.0935533 0 0 0 0)
(0 0.00972145 0 0.00972145 -0.0917755 0 0 0 0)
(0 0.00947815 0 0.00947815 -0.0899965 0 0 0 0)
(0 0.0092357 0 0.0092357 -0.0882162 0 0 0 0)
(0 0.00899407 0 0.00899407 -0.0864346 0 0 0 0)
(0 0.00875324 0 0.00875324 -0.084652 0 0 0 0)
(0 0.00851317 0 0.00851317 -0.0828684 0 0 0 0)
(0 0.00827378 0 0.00827378 -0.0810841 0 0 0 0)
(0 0.008035 0 0.008035 -0.0792993 0 0 0 0)
(0 0.00779671 0 0.00779671 -0.0775141 0 0 0 0)
(0 0.00755873 0 0.00755873 -0.0757288 0 0 0 0)
(0 0.00732087 0 0.00732087 -0.0739437 0 0 0 0)
(0 0.00708288 0 0.00708288 -0.0721592 0 0 0 0)
(0 0.00684446 0 0.00684446 -0.0703756 0 0 0 0)
(0 0.00660526 0 0.00660526 -0.0685935 0 0 0 0)
(0 0.00636489 0 0.00636489 -0.0668133 0 0 0 0)
(0 0.00612292 0 0.00612292 -0.0650356 0 0 0 0)
(0 0.0058789 0 0.0058789 -0.063261 0 0 0 0)
(0 0.00563237 0 0.00563237 -0.0614902 0 0 0 0)
(0 0.00538289 0 0.00538289 -0.0597236 0 0 0 0)
(0 0.00513008 0 0.00513008 -0.0579619 0 0 0 0)
(0 0.00487366 0 0.00487366 -0.0562054 0 0 0 0)
(0 0.00461345 0 0.00461345 -0.0544546 0 0 0 0)
(0 0.00434947 0 0.00434947 -0.0527099 0 0 0 0)
(0 0.00408187 0 0.00408187 -0.0509714 0 0 0 0)
(0 0.00381093 0 0.00381093 -0.0492393 0 0 0 0)
(0 0.00353698 0 0.00353698 -0.0475133 0 0 0 0)
(0 0.00326031 0 0.00326031 -0.0457927 0 0 0 0)
(0 0.00298121 0 0.00298121 -0.0440757 0 0 0 0)
(0 0.0027001 0 0.0027001 -0.0423609 0 0 0 0)
(0 0.00241789 0 0.00241789 -0.0406477 0 0 0 0)
(0 0.00213589 0 0.00213589 -0.0389378 0 0 0 0)
(0 0.00185529 0 0.00185529 -0.037234 0 0 0 0)
(0 0.00157605 0 0.00157605 -0.0355345 0 0 0 0)
(0 0.0012971 0 0.0012971 -0.0338288 0 0 0 0)
(0 0.00101819 0 0.00101819 -0.0321096 0 0 0 0)
(0 0.000740554 0 0.000740554 -0.0303894 0 0 0 0)
(0 0.000463522 0 0.000463522 -0.0286865 0 0 0 0)
(0 0.000183471 0 0.000183471 -0.0269839 0 0 0 0)
(0 -9.88287e-05 0 -9.88287e-05 -0.0252133 0 0 0 0)
(0 -0.000368671 0 -0.000368671 -0.023323 0 0 0 0)
(0 -0.000613857 0 -0.000613857 -0.0214306 0 0 0 0)
(0 -0.000835646 0 -0.000835646 -0.0197429 0 0 0 0)
(0 -0.000984211 0 -0.000984211 -0.0178914 0 0 0 0)
(0 -0.000941644 0 -0.000941644 -0.0157859 0 0 0 0)
(0 -0.000303333 0 -0.000303333 -0.0135825 0 0 0 0)
(0 0.00382226 0 0.00382226 -0.00761467 0 0 0 0)
(0 0.0038353 0 0.0038353 -0.000109842 0 0 0 0)
(0 0.00231686 0 0.00231686 2.20979e-05 0 0 0 0)
(0 0.00303447 0 0.00303447 9.45218e-05 0 0 0 0)
(0 0.00374498 0 0.00374498 0.000120008 0 0 0 0)
(0 0.0033556 0 0.0033556 6.42517e-05 0 0 0 0)
(0 0.00301557 0 0.00301557 5.4497e-05 0 0 0 0)
(0 0.002836 0 0.002836 5.71533e-05 0 0 0 0)
(0 0.0027995 0 0.0027995 6.42163e-05 0 0 0 0)
(0 0.00288879 0 0.00288879 7.50211e-05 0 0 0 0)
(0 0.00309292 0 0.00309292 8.99123e-05 0 0 0 0)
(0 0.00340627 0 0.00340627 0.000108801 0 0 0 0)
(0 0.00382455 0 0.00382455 0.000130341 0 0 0 0)
(0 0.0043412 0 0.0043412 0.000149924 0 0 0 0)
(0 0.00494536 0 0.00494536 0.000154147 0 0 0 0)
(0 0.0056219 0 0.0056219 0.000108494 0 0 0 0)
(0 0.0063547 0 0.0063547 -5.86763e-05 0 0 0 0)
(0 0.00712169 0 0.00712169 -0.000451501 0 0 0 0)
(0 0.00785992 0 0.00785992 -0.00114692 0 0 0 0)
(0 0.00842958 0 0.00842958 -0.00210133 0 0 0 0)
(0 0.00866356 0 0.00866356 -0.00313945 0 0 0 0)
(0 0.00846997 0 0.00846997 -0.00407763 0 0 0 0)
(0 0.00785527 0 0.00785527 -0.00482953 0 0 0 0)
(0 0.00687395 0 0.00687395 -0.00539313 0 0 0 0)
(0 0.00558658 0 0.00558658 -0.0057969 0 0 0 0)
(0 0.00404511 0 0.00404511 -0.00607076 0 0 0 0)
(0 0.00229096 0 0.00229096 -0.00623874 0 0 0 0)
(0 0.000356626 0 0.000356626 -0.00631889 0 0 0 0)
(0 -0.00173226 0 -0.00173226 -0.00632467 0 0 0 0)
(0 -0.00395509 0 -0.00395509 -0.00626626 0 0 0 0)
(0 -0.0062948 0 -0.0062948 -0.00615152 0 0 0 0)
(0 -0.00873688 0 -0.00873688 -0.0059867 0 0 0 0)
(0 -0.0112685 0 -0.0112685 -0.00577685 0 0 0 0)
(0 -0.013878 0 -0.013878 -0.00552618 0 0 0 0)
(0 -0.0165543 0 -0.0165543 -0.00523817 0 0 0 0)
(0 -0.0192867 0 -0.0192867 -0.00491576 0 0 0 0)
(0 -0.0220646 0 -0.0220646 -0.00456142 0 0 0 0)
(0 -0.0248771 0 -0.0248771 -0.00417723 0 0 0 0)
(0 -0.0277133 0 -0.0277133 -0.00376497 0 0 0 0)
(0 -0.0305616 0 -0.0305616 -0.00332613 0 0 0 0)
(0 -0.03341 0 -0.03341 -0.00286203 0 0 0 0)
(0 -0.0362459 0 -0.0362459 -0.00237386 0 0 0 0)
(0 -0.039056 0 -0.039056 -0.00186266 0 0 0 0)
(0 -0.0418265 0 -0.0418265 -0.00132939 0 0 0 0)
(0 -0.0445425 0 -0.0445425 -0.000774968 0 0 0 0)
(0 -0.0471884 0 -0.0471884 -0.000200311 0 0 0 0)
(0 -0.0497478 0 -0.0497478 0.000393497 0 0 0 0)
(0 -0.0522036 0 -0.0522036 0.00100503 0 0 0 0)
(0 -0.0545381 0 -0.0545381 0.00163233 0 0 0 0)
(0 -0.0567329 0 -0.0567329 0.00227274 0 0 0 0)
(0 -0.0587693 0 -0.0587693 0.00292268 0 0 0 0)
(0 -0.0606279 0 -0.0606279 0.00357745 0 0 0 0)
(0 -0.0622889 0 -0.0622889 0.00423108 0 0 0 0)
(0 -0.0637316 0 -0.0637316 0.00487655 0 0 0 0)
(0 -0.0649331 0 -0.0649331 0.00550647 0 0 0 0)
(0 -0.065885 0 -0.065885 0.00611346 0 0 0 0)
(0 -0.0666907 0 -0.0666907 0.0066933 0 0 0 0)
(-6.447e-15 -0.0674693 0 -0.0674693 0.00723951 0 0 0 0)
(0 -0.0682427 0 -0.0682427 0.00773929 0 0 0 0)
(0 -0.0690126 0 -0.0690126 0.00817899 0 0 0 0)
(7.20158e-15 -0.0697785 0 -0.0697785 0.00854534 0 0 0 0)
(0 -0.0705357 0 -0.0705357 0.00882605 0 0 0 0)
(-7.78681e-15 -0.0712775 0 -0.0712775 0.00900987 0 0 0 0)
(0 -0.0719933 0 -0.0719933 0.00908628 0 0 0 0)
(8.43265e-15 -0.0726709 0 -0.0726709 0.0090461 0 0 0 0)
(0 -0.0732925 0 -0.0732925 0.00888199 0 0 0 0)
(0 -0.0738356 0 -0.0738356 0.00859153 0 0 0 0)
(0 -0.0742634 0 -0.0742634 0.00818073 0 0 0 0)
(9.79674e-15 -0.0745359 0 -0.0745359 0.00765922 0 0 0 0)
(0 -0.0746296 0 -0.0746296 0.00703167 0 0 0 0)
(0 -0.0745182 0 -0.0745182 0.0063074 0 0 0 0)
(0 -0.0741527 0 -0.0741527 0.00551072 0 0 0 0)
(0 -0.0735035 0 -0.0735035 0.00466379 0 0 0 0)
(0 -0.0725729 0 -0.0725729 0.00377501 0 0 0 0)
(-1.11656e-14 -0.0713597 0 -0.0713597 0.00285504 0 0 0 0)
(0 -0.0698475 0 -0.0698475 0.00193456 0 0 0 0)
(0 -0.0680111 0 -0.0680111 0.00105675 0 0 0 0)
(0 -0.0658706 0 -0.0658706 0.000244915 0 0 0 0)
(-1.10322e-14 -0.063449 0 -0.063449 -0.000474037 0 0 0 0)
(0 -0.0607165 0 -0.0607165 -0.0010284 0 0 0 0)
(0 -0.0576712 0 -0.0576712 -0.00134255 0 0 0 0)
(0 -0.0543323 0 -0.0543323 -0.00134639 0 0 0 0)
(0 -0.0506965 0 -0.0506965 -0.000957747 0 0 0 0)
(9.58866e-15 -0.0467612 0 -0.0467612 -0.000187225 0 0 0 0)
(9.14837e-15 -0.042509 0 -0.042509 0.000814248 0 0 0 0)
(0 -0.0379117 0 -0.0379117 0.00183441 0 0 0 0)
(0 -0.0328373 0 -0.0328373 0.00286557 0 0 0 0)
(0 -0.0270229 0 -0.0270229 0.00413682 0 0 0 0)
(0 -0.0204042 0 -0.0204042 0.00594708 0 0 0 0)
(0 -0.0136046 0 -0.0136046 0.00642651 0 0 0 0)
(0 -0.00896364 0 -0.00896364 0.00443083 0 0 0 0)
(0 -0 0 -0 0 0 0 0 0)
(0 -0 0 -0 -0 0 0 0 0)
(0 -0 0 -0 -0 0 0 0 0)
(0 -0 0 -0 0 0 0 0 0)
(0 -0 0 -0 -0 0 0 0 0)
(0 -0 0 -0 0 0 0 0 0)
(0 -0 0 -0 -0 0 0 0 0)
(-0 -0 0 -0 -0 0 0 0 0)
(0 -0 0 -0 -0 0 0 0 0)
(0 -0 0 -0 0 0 0 0 0)
(0 -0 0 -0 0 0 0 0 0)
(-0 -0 0 -0 0 0 0 0 0)
(0 -0 0 -0 0 0 0 0 0)
(0 -0 0 -0 0 0 0 0 0)
(-0 -0 0 -0 0 0 0 0 0)
(0 -0 0 -0 0 0 0 0 0)
(0 -0 0 -0 0 0 0 0 0)
(0 -0 0 -0 0 0 0 0 0)
(0 -0 0 -0 0 0 0 0 0)
(0 -0 0 -0 0 0 0 0 0)
(0 0 0 0 0 0 0 0 0)
(0 0 0 0 0 0 0 0 0)
(0 0 0 0 0 0 0 0 0)
(0 0 0 0 0 0 0 0 0)
(0 0 0 0 0 0 0 0 0)
(0 0 0 0 0 0 0 0 0)
(0 0 0 0 0 0 0 0 0)
(0 0 0 0 0 0 0 0 0)
(0 0 0 0 0 0 0 0 0)
(0 0 0 0 0 0 0 0 0)
(0 0 0 0 0 0 0 0 0)
(0 0 0 0 0 0 0 0 0)
(0 0 0 0 -0 0 0 0 0)
(0 0 0 0 0 0 0 0 0)
(0 0 0 0 -0 0 0 0 0)
(0 0 0 0 0 0 0 0 0)
(0 0 0 0 -0 0 0 0 0)
(0 0 0 0 0 0 0 0 0)
(0 0 0 0 0 0 0 0 0)
(0 0 0 0 0 0 0 0 0)
(0 0 0 0 -0 0 0 0 0)
(0 0 0 0 0 0 0 0 0)
(0 0 0 0 -0 0 0 0 0)
(0 0 0 0 0 0 0 0 0)
(0 0 0 0 -0 0 0 0 0)
(0 0 0 0 0 0 0 0 0)
(0 0 0 0 -0 0 0 0 0)
(0 0 0 0 0 0 0 0 0)
(0 0 0 0 -0 0 0 0 0)
(0 0 0 0 0 0 0 0 0)
(0 0 0 0 -0 0 0 0 0)
(0 0 0 0 0 0 0 0 0)
(0 0 0 0 -0 0 0 0 0)
(0 0 0 0 0 0 0 0 0)
(0 -0 0 -0 -0 0 0 0 0)
(0 0 0 0 0 0 0 0 0)
(0 -0 0 -0 -0 0 0 0 0)
(0 0 0 0 0 0 0 0 0)
(0 -0 0 -0 -0 0 0 0 0)
(0 0 0 0 0 0 0 0 0)
(0 -0 0 -0 -0 0 0 0 0)
(0 0 0 0 0 0 0 0 0)
(0 -0 0 -0 -0 0 0 0 0)
(0 0 0 0 0 0 0 0 0)
(0 -0 0 -0 -0 0 0 0 0)
(0 0 0 0 0 0 0 0 0)
(0 -0 0 -0 -0 0 0 0 0)
(0 0 0 0 0 0 0 0 0)
(0 -0 0 -0 -0 0 0 0 0)
(0 0 0 0 0 0 0 0 0)
(0 -0 0 -0 -0 0 0 0 0)
(0 0 0 0 0 0 0 0 0)
(0 -0 0 -0 -0 0 0 0 0)
(0 0 0 0 0 0 0 0 0)
(0 -0 0 -0 -0 0 0 0 0)
(0 0 0 0 0 0 0 0 0)
(0 -0 0 -0 -0 0 0 0 0)
(0 0 0 0 0 0 0 0 0)
(0 -0 0 -0 -0 0 0 0 0)
(0 0 0 0 0 0 0 0 0)
(0 -0 0 -0 -0 0 0 0 0)
(0 0 0 0 0 0 0 0 0)
(0 -0 0 -0 -0 0 0 0 0)
(0 0 0 0 0 0 0 0 0)
(0 -0 0 -0 -0 0 0 0 0)
(0 0 0 0 0 0 0 0 0)
(0 -0 0 -0 -0 0 0 0 0)
(0 0 0 0 0 0 0 0 0)
(0 -0 0 -0 -0 0 0 0 0)
(0 0 0 0 0 0 0 0 0)
(0 -0 0 -0 -0 0 0 0 0)
(0 0 0 0 0 0 0 0 0)
(0 -0 0 -0 -0 0 0 0 0)
(0 0 0 0 0 0 0 0 0)
(0 -0 0 -0 -0 0 0 0 0)
(0 0 0 0 0 0 0 0 0)
(0 -0 0 -0 -0 0 0 0 0)
(0 0 0 0 0 0 0 0 0)
(0 -0 0 -0 -0 0 0 0 0)
(0 0 0 0 0 0 0 0 0)
(0 -0 0 -0 -0 0 0 0 0)
(0 0 0 0 0 0 0 0 0)
(0 -0 0 -0 -0 0 0 0 0)
(0 0 0 0 0 0 0 0 0)
(0 -0 0 -0 -0 0 0 0 0)
(0 0 0 0 0 0 0 0 0)
(0 -0 0 -0 -0 0 0 0 0)
(0 0 0 0 0 0 0 0 0)
(0 -0 0 -0 -0 0 0 0 0)
(0 0 0 0 0 0 0 0 0)
(0 -0 0 -0 -0 0 0 0 0)
(0 0 0 0 0 0 0 0 0)
(0 -0 0 -0 -0 0 0 0 0)
(0 0 0 0 0 0 0 0 0)
(0 -0 0 -0 -0 0 0 0 0)
(0 0 0 0 0 0 0 0 0)
(0 -0 0 -0 -0 0 0 0 0)
(0 -0 0 -0 0 0 0 0 0)
(0 -0 0 -0 0 0 0 0 0)
(0 -0 0 -0 0 0 0 0 0)
(0 -0 0 -0 0 0 0 0 0)
(0 -0 0 -0 0 0 0 0 0)
(0 -0 0 -0 0 0 0 0 0)
(0 -0 0 -0 0 0 0 0 0)
)
;

boundaryField
{
    inandouthalf11
    {
        type            cyclic;
    }
    inandouthalf12
    {
        type            cyclic;
    }
    inandouthalf21
    {
        type            cyclic;
    }
    inandouthalf22
    {
        type            cyclic;
    }
    inandouthalf31
    {
        type            cyclic;
    }
    inandouthalf32
    {
        type            cyclic;
    }
    inandouthalf41
    {
        type            cyclic;
    }
    inandouthalf42
    {
        type            cyclic;
    }
    top
    {
        type            symmetryPlane;
    }
    walls
    {
        type            zeroGradient;
    }
    frontAndBackPlanes
    {
        type            empty;
    }
}


// ************************************************************************* //
