/*--------------------------------*- C++ -*----------------------------------*\
| =========                 |                                                 |
| \\      /  F ield         | OpenFOAM: The Open Source CFD Toolbox           |
|  \\    /   O peration     | Version:  2.4.x                                 |
|   \\  /    A nd           | Web:      www.OpenFOAM.org                      |
|    \\/     M anipulation  |                                                 |
\*---------------------------------------------------------------------------*/
FoamFile
{
    version     2.0;
    format      ascii;
    class       volScalarField;
    location    "8.05";
    object      Theta_0;
}
// * * * * * * * * * * * * * * * * * * * * * * * * * * * * * * * * * * * * * //

dimensions      [0 2 -2 0 0 0 0];

internalField   nonuniform List<scalar> 
360
(
6.66218e-21
6.66401e-21
6.66325e-21
6.66311e-21
6.6633e-21
6.66341e-21
6.66343e-21
6.66342e-21
6.66341e-21
6.6634e-21
6.66339e-21
6.66338e-21
6.66336e-21
6.66334e-21
6.66332e-21
6.66329e-21
6.66327e-21
6.66325e-21
6.66323e-21
6.6632e-21
6.66318e-21
6.66316e-21
6.66314e-21
6.66312e-21
6.6631e-21
6.66308e-21
6.66307e-21
6.66305e-21
6.66304e-21
6.66302e-21
6.66301e-21
6.663e-21
6.66299e-21
6.66298e-21
6.66297e-21
6.66297e-21
6.66296e-21
6.66295e-21
6.66295e-21
6.66295e-21
6.66294e-21
6.66294e-21
6.66294e-21
6.66293e-21
6.66293e-21
6.66293e-21
6.66292e-21
6.66292e-21
6.66292e-21
6.66292e-21
6.66291e-21
6.66291e-21
6.6629e-21
6.6629e-21
6.6629e-21
6.66289e-21
6.66288e-21
6.66288e-21
6.66287e-21
6.66286e-21
6.66285e-21
6.66284e-21
6.66283e-21
6.66282e-21
6.66281e-21
6.6628e-21
6.66279e-21
6.66277e-21
6.66276e-21
6.66274e-21
6.66272e-21
6.66271e-21
6.66269e-21
6.66267e-21
6.66265e-21
6.66264e-21
6.66262e-21
6.66259e-21
6.66257e-21
6.66255e-21
6.66253e-21
6.6625e-21
6.66248e-21
6.66246e-21
6.66243e-21
6.66241e-21
6.66239e-21
6.66236e-21
6.66234e-21
6.66231e-21
6.66228e-21
6.66226e-21
6.66223e-21
6.66221e-21
6.66218e-21
6.66216e-21
6.66213e-21
6.66211e-21
6.66208e-21
6.66206e-21
6.66204e-21
6.66201e-21
6.66199e-21
6.66196e-21
6.66194e-21
6.66192e-21
6.6619e-21
6.66188e-21
6.66185e-21
6.66184e-21
6.66182e-21
6.6618e-21
6.66178e-21
6.66177e-21
6.66176e-21
6.66175e-21
6.66174e-21
6.66174e-21
6.66173e-21
6.66173e-21
6.66173e-21
6.66173e-21
6.66174e-21
6.66174e-21
6.66174e-21
6.66173e-21
6.66173e-21
6.66172e-21
6.6617e-21
6.66167e-21
6.66164e-21
6.66161e-21
6.66157e-21
6.66153e-21
6.66149e-21
6.65814e-21
1.83528e-20
1.81171e-19
2.8012e-18
4.92236e-17
9.6627e-16
2.1284e-14
5.31411e-13
1.52988e-11
6.87472e-10
1.12495e-07
7.08325e-06
0.000118641
0.00114604
0.00309748
0.00407127
0.0045312
0.00473526
0.00478567
0.00472738
0.00458316
0.00437283
0.0041179
0.00384173
0.00356771
0.00331515
0.00309593
0.00291351
0.00276503
0.00264474
0.00254679
0.00246646
0.00240014
0.00234514
0.00229937
0.00226119
0.00222927
0.00220253
0.00218009
0.00216118
0.00214518
0.00213154
0.00211979
0.00210954
0.00210044
0.00209219
0.00208454
0.00207725
0.00207014
0.00206303
0.00205579
0.00204829
0.00204043
0.00203211
0.00202327
0.00201385
0.0020038
0.00199308
0.00198165
0.00196952
0.00195665
0.00194304
0.00192871
0.00191364
0.00189785
0.00188136
0.00186401
0.0018456
0.00182612
0.00180552
0.00178379
0.00176089
0.0017368
0.0017115
0.00168496
0.00165714
0.00162801
0.00159756
0.00156574
0.00153251
0.00149783
0.00146166
0.00142394
0.0013846
0.00134357
0.00130078
0.00125612
0.00120947
0.00116071
0.00110967
0.00105617
0.000999968
0.000940791
0.000878282
0.000811988
0.000741306
0.00066541
0.000583104
0.000492519
0.000390364
0.000269465
0
0
0
0
0
0
0
0
0
0
0
0
0
0
0
0
0
0
0
0
0
0
0
0
0
0
0
0
0
0
0
0
0
0
0
0
0
0
0
0
0
0
0
0
0
0
0
0
0
0
0
0
0
0
0
0
0
0
0
0
0
0
0
0
0
0
0
0
0
0
0
0
0
0
0
0
0
0
0
0
0
0
0
0
0
0
0
0
0
0
0
0
0
0
0
0
0
0
0
0
0
0
0
0
0
0
0
0
0
0
0
0
0
0
0
0
0
0
0
0
0
0
0
0
)
;

boundaryField
{
    inandouthalf11
    {
        type            cyclic;
    }
    inandouthalf12
    {
        type            cyclic;
    }
    inandouthalf21
    {
        type            cyclic;
    }
    inandouthalf22
    {
        type            cyclic;
    }
    inandouthalf31
    {
        type            cyclic;
    }
    inandouthalf32
    {
        type            cyclic;
    }
    inandouthalf41
    {
        type            cyclic;
    }
    inandouthalf42
    {
        type            cyclic;
    }
    top
    {
        type            symmetryPlane;
    }
    walls
    {
        type            zeroGradient;
    }
    frontAndBackPlanes
    {
        type            empty;
    }
}


// ************************************************************************* //
