/*--------------------------------*- C++ -*----------------------------------*\
| =========                 |                                                 |
| \\      /  F ield         | OpenFOAM: The Open Source CFD Toolbox           |
|  \\    /   O peration     | Version:  2.4.x                                 |
|   \\  /    A nd           | Web:      www.OpenFOAM.org                      |
|    \\/     M anipulation  |                                                 |
\*---------------------------------------------------------------------------*/
FoamFile
{
    version     2.0;
    format      ascii;
    class       volVectorField;
    location    "8.05";
    object      U;
}
// * * * * * * * * * * * * * * * * * * * * * * * * * * * * * * * * * * * * * //

dimensions      [0 1 -1 0 0 0 0];

internalField   nonuniform List<vector> 
360
(
(0.000105121 1.24039e-08 0)
(0.000104354 -2.33793e-09 0)
(0.000104263 -2.20228e-09 0)
(0.00010438 1.42372e-10 0)
(0.000104448 5.06054e-10 0)
(0.000104484 1.43009e-10 0)
(0.000104523 -2.13073e-11 0)
(0.000104566 -2.86413e-11 0)
(0.000104611 -2.01294e-11 0)
(0.000104656 -2.04284e-11 0)
(0.000104701 -2.65025e-11 0)
(0.000104745 -3.66412e-11 0)
(0.00010479 -4.53693e-11 0)
(0.000104835 -5.1035e-11 0)
(0.00010488 -5.33803e-11 0)
(0.000104925 -5.38815e-11 0)
(0.000104971 -5.44677e-11 0)
(0.000105016 -5.50193e-11 0)
(0.000105061 -5.53912e-11 0)
(0.000105107 -5.43844e-11 0)
(0.000105152 -5.44794e-11 0)
(0.000105198 -5.21561e-11 0)
(0.000105244 -5.00121e-11 0)
(0.00010529 -4.81483e-11 0)
(0.000105336 -4.59595e-11 0)
(0.000105382 -4.34818e-11 0)
(0.000105428 -4.10412e-11 0)
(0.000105475 -3.72374e-11 0)
(0.000105522 -3.49393e-11 0)
(0.000105569 -3.25102e-11 0)
(0.000105616 -3.02911e-11 0)
(0.000105664 -2.5739e-11 0)
(0.000105711 -2.60107e-11 0)
(0.000105759 -2.01477e-11 0)
(0.000105807 -2.07646e-11 0)
(0.000105856 -1.78244e-11 0)
(0.000105904 -1.62546e-11 0)
(0.000105953 -1.41868e-11 0)
(0.000106003 -1.06013e-11 0)
(0.000106052 -1.40334e-11 0)
(0.000106102 -8.97756e-12 0)
(0.000106153 -8.75204e-12 0)
(0.000106203 -1.16126e-11 0)
(0.000106254 -6.02937e-12 0)
(0.000106306 -7.95346e-12 0)
(0.000106357 -8.76305e-12 0)
(0.00010641 -7.59879e-12 0)
(0.000106462 -1.17904e-11 0)
(0.000106515 -9.5113e-12 0)
(0.000106568 -5.3533e-12 0)
(0.000106622 -1.29582e-11 0)
(0.000106676 -1.04388e-11 0)
(0.000106731 -1.31366e-11 0)
(0.000106786 -1.15225e-11 0)
(0.000106841 -1.80863e-11 0)
(0.000106897 -1.3102e-11 0)
(0.000106953 -2.15266e-11 0)
(0.00010701 -2.03879e-11 0)
(0.000107068 -2.26425e-11 0)
(0.000107125 -2.94904e-11 0)
(0.000107184 -2.14515e-11 0)
(0.000107243 -2.92164e-11 0)
(0.000107302 -2.64771e-11 0)
(0.000107362 -3.1742e-11 0)
(0.000107423 -3.36396e-11 0)
(0.000107483 -3.82263e-11 0)
(0.000107545 -3.98035e-11 0)
(0.000107607 -4.32837e-11 0)
(0.00010767 -4.62388e-11 0)
(0.000107733 -5.17609e-11 0)
(0.000107797 -4.84196e-11 0)
(0.000107862 -4.6557e-11 0)
(0.000107927 -5.7393e-11 0)
(0.000107993 -5.17878e-11 0)
(0.00010806 -5.68641e-11 0)
(0.000108128 -5.64191e-11 0)
(0.000108196 -6.48147e-11 0)
(0.000108264 -6.84289e-11 0)
(0.000108334 -7.07347e-11 0)
(0.000108405 -7.22292e-11 0)
(0.000108476 -7.6195e-11 0)
(0.000108548 -7.5888e-11 0)
(0.000108621 -7.54538e-11 0)
(0.000108695 -7.66223e-11 0)
(0.00010877 -7.72641e-11 0)
(0.000108845 -7.99331e-11 0)
(0.000108922 -8.20409e-11 0)
(0.000109 -8.61004e-11 0)
(0.000109079 -8.98892e-11 0)
(0.000109159 -9.23758e-11 0)
(0.00010924 -9.43092e-11 0)
(0.000109323 -9.5783e-11 0)
(0.000109406 -9.57409e-11 0)
(0.000109491 -9.56093e-11 0)
(0.000109577 -9.5684e-11 0)
(0.000109665 -9.60444e-11 0)
(0.000109754 -9.68635e-11 0)
(0.000109845 -9.81884e-11 0)
(0.000109938 -9.98054e-11 0)
(0.000110031 -1.01398e-10 0)
(0.000110127 -1.0294e-10 0)
(0.000110225 -1.04294e-10 0)
(0.000110324 -1.05319e-10 0)
(0.000110425 -1.06083e-10 0)
(0.000110529 -1.06568e-10 0)
(0.000110634 -1.06666e-10 0)
(0.000110742 -1.06283e-10 0)
(0.000110852 -1.05286e-10 0)
(0.000110965 -1.03513e-10 0)
(0.00011108 -1.00836e-10 0)
(0.000111198 -9.71506e-11 0)
(0.000111319 -9.23834e-11 0)
(0.000111443 -8.65117e-11 0)
(0.00011157 -7.95694e-11 0)
(0.0001117 -7.16611e-11 0)
(0.000111834 -6.2986e-11 0)
(0.000111972 -5.38591e-11 0)
(0.000112113 -4.47289e-11 0)
(0.000112258 -3.62e-11 0)
(0.000112408 -2.90535e-11 0)
(0.000112562 -2.42401e-11 0)
(0.00011272 -2.28228e-11 0)
(0.000112884 -2.5861e-11 0)
(0.000113053 -3.42303e-11 0)
(0.000113227 -4.84179e-11 0)
(0.000113408 -6.84297e-11 0)
(0.000113595 -9.39271e-11 0)
(0.000113789 -1.24515e-10 0)
(0.00011399 -1.59787e-10 0)
(0.0001142 -1.98888e-10 0)
(0.000114419 -2.40093e-10 0)
(0.000114647 -2.81678e-10 0)
(0.000114885 -3.20177e-10 0)
(0.000115136 -3.42227e-10 0)
(0.000115402 -3.31451e-10 0)
(0.000115683 -3.05865e-10 0)
(0.000115977 -3.16102e-10 0)
(0.00011629 -3.99794e-10 0)
(0.000116636 -5.25129e-10 0)
(0.000117033 -5.12623e-10 0)
(0.000117463 -4.19445e-10 0)
(0.000117879 -1.57888e-09 0)
(0.000118382 -2.06406e-09 0)
(0.000119034 -1.89643e-09 0)
(0.000119852 -8.1501e-09 0)
(0.000121444 1.47121e-07 0)
(0.000123901 -1.74134e-06 0)
(0.000234291 7.51499e-06 0)
(0.067917 -4.7341e-05 0)
(0.204056 -0.000176555 0)
(0.313675 2.85589e-05 0)
(0.402531 -6.57877e-06 0)
(0.476741 -1.01273e-05 0)
(0.539785 -7.33458e-06 0)
(0.593939 -5.18851e-06 0)
(0.640783 -3.89218e-06 0)
(0.681447 -2.89968e-06 0)
(0.716733 -2.04245e-06 0)
(0.747192 -1.30195e-06 0)
(0.773177 -6.89639e-07 0)
(0.794919 -2.39372e-07 0)
(0.812611 1.01469e-08 0)
(0.826527 8.91464e-08 0)
(0.837093 1.00642e-07 0)
(0.844874 1.06138e-07 0)
(0.850481 9.75607e-08 0)
(0.854465 7.18203e-08 0)
(0.857265 4.50442e-08 0)
(0.859205 2.68696e-08 0)
(0.860513 1.65863e-08 0)
(0.86135 1.08544e-08 0)
(0.861824 7.42867e-09 0)
(0.862016 5.23223e-09 0)
(0.861981 3.77235e-09 0)
(0.861759 2.76863e-09 0)
(0.861382 2.06216e-09 0)
(0.860872 1.55362e-09 0)
(0.860248 1.18047e-09 0)
(0.859524 9.0233e-10 0)
(0.858711 6.92295e-10 0)
(0.857819 5.3196e-10 0)
(0.856856 4.08441e-10 0)
(0.855827 3.12561e-10 0)
(0.85474 2.3767e-10 0)
(0.853599 1.78882e-10 0)
(0.852408 1.32555e-10 0)
(0.851172 9.59468e-11 0)
(0.849893 6.69668e-11 0)
(0.848576 4.40116e-11 0)
(0.847223 2.58452e-11 0)
(0.845837 1.15118e-11 0)
(0.84442 2.63681e-13 0)
(0.842975 -8.49422e-12 0)
(0.841503 -1.52447e-11 0)
(0.840008 -2.03663e-11 0)
(0.838491 -2.41354e-11 0)
(0.836953 -2.67475e-11 0)
(0.835396 -2.84016e-11 0)
(0.833823 -2.93286e-11 0)
(0.832234 -2.9734e-11 0)
(0.830631 -2.96155e-11 0)
(0.828998 -3.03513e-11 0)
(0.82732 -3.03062e-11 0)
(0.825596 -3.00123e-11 0)
(0.823825 -2.93589e-11 0)
(0.822007 -2.85296e-11 0)
(0.820142 -2.71698e-11 0)
(0.818229 -2.55421e-11 0)
(0.816267 -2.33548e-11 0)
(0.814258 -2.10908e-11 0)
(0.812199 -1.83841e-11 0)
(0.810093 -1.64913e-11 0)
(0.807937 -1.44968e-11 0)
(0.805734 -1.08982e-11 0)
(0.803482 -7.77796e-12 0)
(0.801182 -6.90569e-12 0)
(0.798834 -4.9373e-12 0)
(0.79644 -1.85898e-12 0)
(0.793999 -2.61172e-13 0)
(0.791512 6.00331e-13 0)
(0.788981 6.42494e-13 0)
(0.786405 2.19604e-12 0)
(0.783787 3.65356e-12 0)
(0.781128 2.54645e-12 0)
(0.778429 2.99386e-12 0)
(0.775692 3.65279e-12 0)
(0.772919 3.28254e-12 0)
(0.770112 3.0344e-12 0)
(0.767274 3.13143e-12 0)
(0.764407 2.68802e-12 0)
(0.761515 3.7398e-12 0)
(0.758601 6.30538e-13 0)
(0.755668 9.85705e-13 0)
(0.752722 3.92621e-13 0)
(0.749766 1.47534e-11 0)
(0.746807 -9.58045e-12 0)
(0.743849 3.37374e-13 0)
(0.7409 9.41464e-12 0)
(0.737967 3.52551e-12 0)
(0.735058 -2.11079e-12 0)
(0.732181 1.21016e-11 0)
(0.729348 -1.70785e-11 0)
(0.726569 3.40225e-11 0)
(0.723857 1.52464e-11 0)
(0.721225 2.01626e-12 0)
(0.718691 8.79219e-13 0)
(0.71627 1.671e-12 0)
(0.713981 1.89791e-12 0)
(0.711847 1.8106e-12 0)
(0.709888 1.71874e-12 0)
(0.708128 1.65186e-12 0)
(0.706591 1.5688e-12 0)
(0.7053 1.53841e-12 0)
(0.704276 1.86947e-12 0)
(0.703534 2.60447e-12 0)
(0.703082 -8.93853e-12 0)
(0.702919 3.2164e-11 0)
(0.703031 -6.47281e-11 0)
(0.703389 1.18171e-10 0)
(0.703953 -1.83752e-10 0)
(0.704667 2.69506e-10 0)
(0.705448 -3.6551e-10 0)
(0.706181 4.76319e-10 0)
(0.706549 -5.91501e-10 0)
(0.706595 7.14498e-10 0)
(0.706596 -8.37921e-10 0)
(0.706596 9.6693e-10 0)
(0.706596 -1.09647e-09 0)
(0.706596 1.23151e-09 0)
(0.706596 -1.36761e-09 0)
(0.706596 1.50921e-09 0)
(0.706596 -1.65233e-09 0)
(0.706596 1.80095e-09 0)
(0.706596 -1.95151e-09 0)
(0.706596 2.10757e-09 0)
(0.706596 -2.26592e-09 0)
(0.706596 2.42979e-09 0)
(0.706596 -2.59627e-09 0)
(0.706596 2.76825e-09 0)
(0.706596 -2.94317e-09 0)
(0.706596 3.12354e-09 0)
(0.706596 -3.30715e-09 0)
(0.706596 3.49617e-09 0)
(0.706596 -3.6887e-09 0)
(0.706596 3.88661e-09 0)
(0.706596 -4.08826e-09 0)
(0.706596 4.29525e-09 0)
(0.706596 -4.50621e-09 0)
(0.706596 4.72244e-09 0)
(0.706596 -4.94287e-09 0)
(0.706596 5.1685e-09 0)
(0.706596 -5.39852e-09 0)
(0.706596 5.63368e-09 0)
(0.706596 -5.87341e-09 0)
(0.706596 6.1182e-09 0)
(0.706596 -6.3677e-09 0)
(0.706596 6.62222e-09 0)
(0.706596 -6.88154e-09 0)
(0.706596 7.14586e-09 0)
(0.706596 -7.41501e-09 0)
(0.706596 7.68916e-09 0)
(0.706596 -7.96815e-09 0)
(0.706596 8.2521e-09 0)
(0.706596 -8.54088e-09 0)
(0.706596 8.83458e-09 0)
(0.706596 -9.13306e-09 0)
(0.706596 9.43639e-09 0)
(0.706596 -9.74441e-09 0)
(0.706596 1.00572e-08 0)
(0.706596 -1.03746e-08 0)
(0.706596 9.39096e-09 0)
(0.706596 -9.50006e-09 0)
(0.706596 9.60812e-09 0)
(0.706596 -9.71491e-09 0)
(0.706596 9.82066e-09 0)
(0.706596 -9.92509e-09 0)
(0.706596 1.00285e-08 0)
(0.706596 -1.01305e-08 0)
(0.706596 1.02315e-08 0)
(0.706596 -1.03311e-08 0)
(0.706596 1.04296e-08 0)
(0.706596 -1.05266e-08 0)
(0.706596 1.06226e-08 0)
(0.706596 -1.07171e-08 0)
(0.706596 1.08105e-08 0)
(0.706596 -1.09023e-08 0)
(0.706596 1.09931e-08 0)
(0.706596 -1.10821e-08 0)
(0.706596 1.11702e-08 0)
(0.706596 -1.12561e-08 0)
(0.706596 1.13419e-08 0)
(0.706596 -1.14244e-08 0)
(0.706596 1.15079e-08 0)
(0.706596 -1.15869e-08 0)
(0.706596 1.16678e-08 0)
(0.706596 -1.17432e-08 0)
(0.706596 1.18216e-08 0)
(0.706596 -1.18931e-08 0)
(0.706596 1.19688e-08 0)
(0.706596 -1.20364e-08 0)
(0.706596 1.21092e-08 0)
(0.706596 -1.21726e-08 0)
(0.706596 1.22425e-08 0)
(0.706596 -1.23015e-08 0)
(0.706596 1.23682e-08 0)
(0.706596 -1.24224e-08 0)
(0.706596 1.24862e-08 0)
(0.706596 -1.2535e-08 0)
(0.706596 1.25954e-08 0)
(0.706596 -1.26384e-08 0)
(0.706596 1.26952e-08 0)
(0.706596 -1.27321e-08 0)
(0.706596 1.27845e-08 0)
(0.706596 -1.28142e-08 0)
(0.706596 1.28622e-08 0)
(0.706596 -1.28837e-08 0)
(0.706596 1.29252e-08 0)
(0.706596 -1.29373e-08 0)
(0.706596 1.29692e-08 0)
(0.706596 -1.29693e-08 0)
)
;

boundaryField
{
    inandouthalf11
    {
        type            cyclic;
    }
    inandouthalf12
    {
        type            cyclic;
    }
    inandouthalf21
    {
        type            cyclic;
    }
    inandouthalf22
    {
        type            cyclic;
    }
    inandouthalf31
    {
        type            cyclic;
    }
    inandouthalf32
    {
        type            cyclic;
    }
    inandouthalf41
    {
        type            cyclic;
    }
    inandouthalf42
    {
        type            cyclic;
    }
    top
    {
        type            symmetryPlane;
    }
    walls
    {
        type            calculated;
        value           uniform (0 0 0);
    }
    frontAndBackPlanes
    {
        type            empty;
    }
}


// ************************************************************************* //
