/*--------------------------------*- C++ -*----------------------------------*\
| =========                 |                                                 |
| \\      /  F ield         | OpenFOAM: The Open Source CFD Toolbox           |
|  \\    /   O peration     | Version:  2.4.x                                 |
|   \\  /    A nd           | Web:      www.OpenFOAM.org                      |
|    \\/     M anipulation  |                                                 |
\*---------------------------------------------------------------------------*/
FoamFile
{
    version     2.0;
    format      ascii;
    class       volVectorField;
    location    "8.05";
    object      Ub_0;
}
// * * * * * * * * * * * * * * * * * * * * * * * * * * * * * * * * * * * * * //

dimensions      [0 1 -1 0 0 0 0];

internalField   nonuniform List<vector> 
360
(
(0.000270133 3.18765e-08 0)
(0.000268713 1.13918e-07 0)
(0.000268515 2.10535e-07 0)
(0.000268729 3.01271e-07 0)
(0.000268847 3.91699e-07 0)
(0.0002689 4.84696e-07 0)
(0.000268958 5.79168e-07 0)
(0.000269027 6.73892e-07 0)
(0.000269097 7.68452e-07 0)
(0.000269167 8.62805e-07 0)
(0.000269239 9.56956e-07 0)
(0.00026931 1.05084e-06 0)
(0.000269381 1.14436e-06 0)
(0.000269453 1.23744e-06 0)
(0.000269524 1.33001e-06 0)
(0.000269597 1.42206e-06 0)
(0.000269669 1.51356e-06 0)
(0.000269742 1.60452e-06 0)
(0.000269815 1.69492e-06 0)
(0.000269889 1.78478e-06 0)
(0.000269963 1.87408e-06 0)
(0.000270037 1.96284e-06 0)
(0.000270112 2.05108e-06 0)
(0.000270187 2.13882e-06 0)
(0.000270262 2.22608e-06 0)
(0.000270338 2.31287e-06 0)
(0.000270414 2.39923e-06 0)
(0.000270491 2.48519e-06 0)
(0.000270569 2.57077e-06 0)
(0.000270646 2.656e-06 0)
(0.000270724 2.74091e-06 0)
(0.000270804 2.82554e-06 0)
(0.000270882 2.90989e-06 0)
(0.000270963 2.99401e-06 0)
(0.000271043 3.07791e-06 0)
(0.000271124 3.16163e-06 0)
(0.000271206 3.24516e-06 0)
(0.000271288 3.32855e-06 0)
(0.000271372 3.41182e-06 0)
(0.000271455 3.49495e-06 0)
(0.00027154 3.57799e-06 0)
(0.000271625 3.66094e-06 0)
(0.00027171 3.74379e-06 0)
(0.000271798 3.82657e-06 0)
(0.000271885 3.90928e-06 0)
(0.000271973 3.99193e-06 0)
(0.000272062 4.07451e-06 0)
(0.000272151 4.157e-06 0)
(0.000272242 4.23941e-06 0)
(0.000272334 4.32176e-06 0)
(0.000272426 4.40402e-06 0)
(0.000272519 4.48619e-06 0)
(0.000272613 4.56826e-06 0)
(0.000272709 4.65023e-06 0)
(0.000272804 4.73206e-06 0)
(0.000272902 4.81378e-06 0)
(0.000272999 4.89533e-06 0)
(0.000273098 4.97671e-06 0)
(0.000273198 5.0579e-06 0)
(0.000273298 5.13884e-06 0)
(0.000273401 5.21957e-06 0)
(0.000273503 5.30004e-06 0)
(0.000273608 5.38027e-06 0)
(0.000273713 5.46023e-06 0)
(0.00027382 5.53989e-06 0)
(0.000273927 5.61922e-06 0)
(0.000274036 5.6982e-06 0)
(0.000274146 5.7768e-06 0)
(0.000274257 5.85498e-06 0)
(0.000274369 5.93269e-06 0)
(0.000274483 6.00993e-06 0)
(0.000274599 6.08673e-06 0)
(0.000274715 6.16301e-06 0)
(0.000274833 6.23879e-06 0)
(0.000274953 6.31405e-06 0)
(0.000275074 6.38879e-06 0)
(0.000275197 6.46295e-06 0)
(0.000275321 6.53649e-06 0)
(0.000275447 6.60938e-06 0)
(0.000275574 6.68159e-06 0)
(0.000275703 6.75308e-06 0)
(0.000275834 6.82386e-06 0)
(0.000275967 6.8939e-06 0)
(0.000276102 6.96322e-06 0)
(0.000276239 7.0318e-06 0)
(0.000276377 7.09964e-06 0)
(0.000276518 7.16672e-06 0)
(0.000276661 7.233e-06 0)
(0.000276807 7.29846e-06 0)
(0.000276954 7.36307e-06 0)
(0.000277104 7.42679e-06 0)
(0.000277256 7.48961e-06 0)
(0.000277412 7.55153e-06 0)
(0.000277569 7.61254e-06 0)
(0.00027773 7.67265e-06 0)
(0.000277893 7.73186e-06 0)
(0.00027806 7.79017e-06 0)
(0.000278229 7.84757e-06 0)
(0.000278402 7.90405e-06 0)
(0.000278578 7.95961e-06 0)
(0.000278758 8.01422e-06 0)
(0.000278941 8.06789e-06 0)
(0.000279129 8.1206e-06 0)
(0.00027932 8.17235e-06 0)
(0.000279515 8.22313e-06 0)
(0.000279715 8.27295e-06 0)
(0.000279919 8.32181e-06 0)
(0.000280127 8.36973e-06 0)
(0.000280341 8.41671e-06 0)
(0.00028056 8.46279e-06 0)
(0.000280785 8.508e-06 0)
(0.000281015 8.55239e-06 0)
(0.000281251 8.59601e-06 0)
(0.000281493 8.63894e-06 0)
(0.000281742 8.68125e-06 0)
(0.000281997 8.72303e-06 0)
(0.00028226 8.76439e-06 0)
(0.00028253 8.80542e-06 0)
(0.000282808 8.84623e-06 0)
(0.000283094 8.88692e-06 0)
(0.000283389 8.92757e-06 0)
(0.000283694 8.96825e-06 0)
(0.000284007 9.00898e-06 0)
(0.000284332 9.04976e-06 0)
(0.000284667 9.09051e-06 0)
(0.000285013 9.13113e-06 0)
(0.000285372 9.17143e-06 0)
(0.000285745 9.2112e-06 0)
(0.000286134 9.25018e-06 0)
(0.000286538 9.28806e-06 0)
(0.00028696 9.32448e-06 0)
(0.000287399 9.35904e-06 0)
(0.000287859 9.3914e-06 0)
(0.000288344 9.42133e-06 0)
(0.000288858 9.44885e-06 0)
(0.000289401 9.47399e-06 0)
(0.00028997 9.49676e-06 0)
(0.000290574 9.5172e-06 0)
(0.000291243 9.5355e-06 0)
(0.000292011 9.55204e-06 0)
(0.000292843 9.56585e-06 0)
(0.000293648 9.57115e-06 0)
(0.000294618 9.56727e-06 0)
(0.000295874 9.55336e-06 0)
(0.00029745 9.5139e-06 0)
(0.000300507 9.86069e-06 0)
(0.000305274 5.04124e-06 0)
(0.000570709 2.77684e-05 0)
(0.0706794 -0.000253139 0)
(0.207924 -0.00119441 0)
(0.316534 -0.000926871 0)
(0.404603 -0.000890665 0)
(0.478284 -0.00079683 0)
(0.540954 -0.00068552 0)
(0.594834 -0.000571252 0)
(0.641474 -0.000461042 0)
(0.681981 -0.000359808 0)
(0.717141 -0.000271199 0)
(0.747491 -0.000197299 0)
(0.77338 -0.000138574 0)
(0.795033 -9.40881e-05 0)
(0.812647 -6.19303e-05 0)
(0.826496 -3.97482e-05 0)
(0.837008 -2.51879e-05 0)
(0.84475 -1.60838e-05 0)
(0.850328 -1.05688e-05 0)
(0.854293 -7.22191e-06 0)
(0.857079 -5.12168e-06 0)
(0.859009 -3.74245e-06 0)
(0.86031 -2.79884e-06 0)
(0.861141 -2.13201e-06 0)
(0.861611 -1.64846e-06 0)
(0.861799 -1.29039e-06 0)
(0.86176 -1.0206e-06 0)
(0.861536 -8.14462e-07 0)
(0.861157 -6.55134e-07 0)
(0.860646 -5.30832e-07 0)
(0.86002 -4.33115e-07 0)
(0.859294 -3.55823e-07 0)
(0.85848 -2.94384e-07 0)
(0.857587 -2.45355e-07 0)
(0.856622 -2.06108e-07 0)
(0.855593 -1.74619e-07 0)
(0.854505 -1.49311e-07 0)
(0.853362 -1.28946e-07 0)
(0.852171 -1.12545e-07 0)
(0.850934 -9.93282e-08 0)
(0.849654 -8.86711e-08 0)
(0.848336 -8.00717e-08 0)
(0.846983 -7.31245e-08 0)
(0.845596 -6.75008e-08 0)
(0.844178 -6.29332e-08 0)
(0.842732 -5.92033e-08 0)
(0.84126 -5.6132e-08 0)
(0.839764 -5.35719e-08 0)
(0.838246 -5.14009e-08 0)
(0.836708 -4.95178e-08 0)
(0.835151 -4.78379e-08 0)
(0.833577 -4.62907e-08 0)
(0.831987 -4.48185e-08 0)
(0.830384 -4.33755e-08 0)
(0.828751 -4.19118e-08 0)
(0.827072 -4.03833e-08 0)
(0.825348 -3.87657e-08 0)
(0.823576 -3.70417e-08 0)
(0.821758 -3.52025e-08 0)
(0.819892 -3.32492e-08 0)
(0.817978 -3.11917e-08 0)
(0.816016 -2.90479e-08 0)
(0.814006 -2.68422e-08 0)
(0.811948 -2.46043e-08 0)
(0.809841 -2.23682e-08 0)
(0.807685 -2.01699e-08 0)
(0.805481 -1.80435e-08 0)
(0.803228 -1.60158e-08 0)
(0.800928 -1.41085e-08 0)
(0.79858 -1.23398e-08 0)
(0.796185 -1.07206e-08 0)
(0.793744 -9.25265e-09 0)
(0.791257 -7.93327e-09 0)
(0.788725 -6.75935e-09 0)
(0.786149 -5.72553e-09 0)
(0.783531 -4.82184e-09 0)
(0.780871 -4.03671e-09 0)
(0.778172 -3.36075e-09 0)
(0.775434 -2.78403e-09 0)
(0.772661 -2.29513e-09 0)
(0.769854 -1.88376e-09 0)
(0.767015 -1.54054e-09 0)
(0.764148 -1.2559e-09 0)
(0.761256 -1.02033e-09 0)
(0.758342 -8.27132e-10 0)
(0.755409 -6.73314e-10 0)
(0.752462 -5.5123e-10 0)
(0.749507 -4.39571e-10 0)
(0.746547 -3.24516e-10 0)
(0.743589 -2.24939e-10 0)
(0.74064 -1.57745e-10 0)
(0.737707 -1.12801e-10 0)
(0.734797 -7.89907e-11 0)
(0.731921 -5.12877e-11 0)
(0.729087 -3.20638e-11 0)
(0.726308 -8.81739e-13 0)
(0.723596 1.55342e-11 0)
(0.720965 2.27439e-12 0)
(0.71843 1.13069e-12 0)
(0.71601 1.91476e-12 0)
(0.713722 2.13189e-12 0)
(0.711587 2.03468e-12 0)
(0.709628 1.9329e-12 0)
(0.707869 1.85588e-12 0)
(0.706332 1.76243e-12 0)
(0.705042 1.72169e-12 0)
(0.704018 2.04256e-12 0)
(0.703277 2.77081e-12 0)
(0.702826 -8.80197e-12 0)
(0.702664 3.23305e-11 0)
(0.702776 -6.46418e-11 0)
(0.703135 1.18346e-10 0)
(0.703699 -1.83721e-10 0)
(0.704413 2.69689e-10 0)
(0.705194 -3.65531e-10 0)
(0.705927 4.76505e-10 0)
(0.706295 -5.91564e-10 0)
(0.70634 7.14681e-10 0)
(0.706342 -8.38014e-10 0)
(0.706342 9.67116e-10 0)
(0.706342 -1.09659e-09 0)
(0.706342 1.2317e-09 0)
(0.706342 -1.36775e-09 0)
(0.706342 1.50941e-09 0)
(0.706342 -1.6525e-09 0)
(0.706342 1.80116e-09 0)
(0.706342 -1.9517e-09 0)
(0.706342 2.1078e-09 0)
(0.706342 -2.26614e-09 0)
(0.706342 2.43003e-09 0)
(0.706342 -2.59651e-09 0)
(0.706342 2.76851e-09 0)
(0.706342 -2.94344e-09 0)
(0.706342 3.12381e-09 0)
(0.706342 -3.30744e-09 0)
(0.706342 3.49647e-09 0)
(0.706342 -3.68902e-09 0)
(0.706342 3.88692e-09 0)
(0.706342 -4.08861e-09 0)
(0.706342 4.29559e-09 0)
(0.706342 -4.50659e-09 0)
(0.706342 4.72281e-09 0)
(0.706342 -4.94327e-09 0)
(0.706342 5.16889e-09 0)
(0.706342 -5.39895e-09 0)
(0.706342 5.6341e-09 0)
(0.706342 -5.87386e-09 0)
(0.706342 6.11865e-09 0)
(0.706342 -6.36819e-09 0)
(0.706342 6.6227e-09 0)
(0.706342 -6.88207e-09 0)
(0.706342 7.14636e-09 0)
(0.706342 -7.41559e-09 0)
(0.706342 7.68968e-09 0)
(0.706342 -7.96877e-09 0)
(0.706342 8.25265e-09 0)
(0.706342 -8.54155e-09 0)
(0.706342 8.83515e-09 0)
(0.706342 -9.13377e-09 0)
(0.706342 9.43699e-09 0)
(0.706342 -9.74518e-09 0)
(0.706342 1.00578e-08 0)
(0.706342 -1.03754e-08 0)
(0.706342 9.39152e-09 0)
(0.706342 -9.50081e-09 0)
(0.706342 9.60868e-09 0)
(0.706342 -9.71568e-09 0)
(0.706342 9.82122e-09 0)
(0.706342 -9.92589e-09 0)
(0.706342 1.0029e-08 0)
(0.706342 -1.01313e-08 0)
(0.706342 1.02321e-08 0)
(0.706342 -1.03319e-08 0)
(0.706342 1.04302e-08 0)
(0.706342 -1.05275e-08 0)
(0.706342 1.06232e-08 0)
(0.706342 -1.0718e-08 0)
(0.706342 1.08111e-08 0)
(0.706342 -1.09032e-08 0)
(0.706342 1.09936e-08 0)
(0.706342 -1.1083e-08 0)
(0.706342 1.11706e-08 0)
(0.706342 -1.12575e-08 0)
(0.706342 1.13417e-08 0)
(0.706342 -1.14264e-08 0)
(0.706342 1.15071e-08 0)
(0.706342 -1.15894e-08 0)
(0.706342 1.16665e-08 0)
(0.706342 -1.17463e-08 0)
(0.706342 1.18197e-08 0)
(0.706342 -1.18968e-08 0)
(0.706342 1.19663e-08 0)
(0.706342 -1.20407e-08 0)
(0.706342 1.21061e-08 0)
(0.706342 -1.21776e-08 0)
(0.706342 1.22387e-08 0)
(0.706342 -1.23072e-08 0)
(0.706342 1.23637e-08 0)
(0.706342 -1.24292e-08 0)
(0.706342 1.24804e-08 0)
(0.706342 -1.25429e-08 0)
(0.706342 1.25884e-08 0)
(0.706342 -1.26477e-08 0)
(0.706342 1.2687e-08 0)
(0.706342 -1.27423e-08 0)
(0.706342 1.2775e-08 0)
(0.706342 -1.28266e-08 0)
(0.706342 1.28505e-08 0)
(0.706342 -1.28975e-08 0)
(0.706342 1.29124e-08 0)
(0.706342 -1.29524e-08 0)
(0.706342 1.29551e-08 0)
(0.706342 -1.29778e-08 0)
)
;

boundaryField
{
    inandouthalf11
    {
        type            cyclic;
    }
    inandouthalf12
    {
        type            cyclic;
    }
    inandouthalf21
    {
        type            cyclic;
    }
    inandouthalf22
    {
        type            cyclic;
    }
    inandouthalf31
    {
        type            cyclic;
    }
    inandouthalf32
    {
        type            cyclic;
    }
    inandouthalf41
    {
        type            cyclic;
    }
    inandouthalf42
    {
        type            cyclic;
    }
    top
    {
        type            symmetryPlane;
    }
    walls
    {
        type            fixedValue;
        value           uniform (0 0 0);
    }
    frontAndBackPlanes
    {
        type            empty;
    }
}


// ************************************************************************* //
