/*--------------------------------*- C++ -*----------------------------------*\
| =========                 |                                                 |
| \\      /  F ield         | OpenFOAM: The Open Source CFD Toolbox           |
|  \\    /   O peration     | Version:  2.4.x                                 |
|   \\  /    A nd           | Web:      www.OpenFOAM.org                      |
|    \\/     M anipulation  |                                                 |
\*---------------------------------------------------------------------------*/
FoamFile
{
    version     2.0;
    format      ascii;
    class       volVectorField;
    location    "8.05";
    object      Ur;
}
// * * * * * * * * * * * * * * * * * * * * * * * * * * * * * * * * * * * * * //

dimensions      [0 1 -1 0 0 0 0];

internalField   nonuniform List<vector> 
360
(
(0.000270117 3.1873e-08 0)
(0.00026868 1.90043e-07 0)
(0.000268462 3.47706e-07 0)
(0.000268659 4.92248e-07 0)
(0.00026876 6.39523e-07 0)
(0.000268794 7.92171e-07 0)
(0.000268835 9.46918e-07 0)
(0.000268885 1.10184e-06 0)
(0.000268937 1.25647e-06 0)
(0.00026899 1.4108e-06 0)
(0.000269043 1.56482e-06 0)
(0.000269096 1.71842e-06 0)
(0.00026915 1.87144e-06 0)
(0.000269204 2.02374e-06 0)
(0.000269258 2.17522e-06 0)
(0.000269314 2.32585e-06 0)
(0.000269369 2.47561e-06 0)
(0.000269425 2.62449e-06 0)
(0.000269482 2.77247e-06 0)
(0.000269539 2.91957e-06 0)
(0.000269596 3.06578e-06 0)
(0.000269654 3.21111e-06 0)
(0.000269713 3.3556e-06 0)
(0.000269772 3.49928e-06 0)
(0.000269832 3.64218e-06 0)
(0.000269892 3.78435e-06 0)
(0.000269952 3.92582e-06 0)
(0.000270014 4.06664e-06 0)
(0.000270076 4.20686e-06 0)
(0.000270138 4.34653e-06 0)
(0.000270201 4.48567e-06 0)
(0.000270266 4.62437e-06 0)
(0.00027033 4.76263e-06 0)
(0.000270395 4.90053e-06 0)
(0.000270461 5.03809e-06 0)
(0.000270527 5.17536e-06 0)
(0.000270594 5.31235e-06 0)
(0.000270662 5.44911e-06 0)
(0.000270731 5.5857e-06 0)
(0.0002708 5.72208e-06 0)
(0.000270871 5.85832e-06 0)
(0.000270941 5.99444e-06 0)
(0.000271013 6.13041e-06 0)
(0.000271086 6.26628e-06 0)
(0.000271159 6.40205e-06 0)
(0.000271233 6.53774e-06 0)
(0.000271308 6.67335e-06 0)
(0.000271383 6.80882e-06 0)
(0.00027146 6.94416e-06 0)
(0.000271538 7.07944e-06 0)
(0.000271616 7.21459e-06 0)
(0.000271696 7.34962e-06 0)
(0.000271776 7.4845e-06 0)
(0.000271858 7.61924e-06 0)
(0.00027194 7.75377e-06 0)
(0.000272024 7.88814e-06 0)
(0.000272108 8.02225e-06 0)
(0.000272193 8.15611e-06 0)
(0.00027228 8.28968e-06 0)
(0.000272367 8.42286e-06 0)
(0.000272457 8.55571e-06 0)
(0.000272546 8.68817e-06 0)
(0.000272638 8.82026e-06 0)
(0.00027273 8.95193e-06 0)
(0.000272823 9.08315e-06 0)
(0.000272918 9.21384e-06 0)
(0.000273014 9.34399e-06 0)
(0.000273112 9.47353e-06 0)
(0.000273211 9.60241e-06 0)
(0.00027331 9.73055e-06 0)
(0.000273412 9.85796e-06 0)
(0.000273516 9.98465e-06 0)
(0.00027362 1.01105e-05 0)
(0.000273727 1.02356e-05 0)
(0.000273834 1.03599e-05 0)
(0.000273944 1.04833e-05 0)
(0.000274055 1.06059e-05 0)
(0.000274168 1.07274e-05 0)
(0.000274282 1.08479e-05 0)
(0.000274399 1.09673e-05 0)
(0.000274517 1.10856e-05 0)
(0.000274637 1.12028e-05 0)
(0.000274759 1.13187e-05 0)
(0.000274884 1.14336e-05 0)
(0.00027501 1.15472e-05 0)
(0.000275139 1.16597e-05 0)
(0.00027527 1.17709e-05 0)
(0.000275403 1.18809e-05 0)
(0.000275538 1.19896e-05 0)
(0.000275676 1.20969e-05 0)
(0.000275817 1.22028e-05 0)
(0.00027596 1.23073e-05 0)
(0.000276106 1.24103e-05 0)
(0.000276254 1.25119e-05 0)
(0.000276406 1.2612e-05 0)
(0.000276561 1.27108e-05 0)
(0.000276719 1.2808e-05 0)
(0.00027688 1.29039e-05 0)
(0.000277045 1.29983e-05 0)
(0.000277213 1.30912e-05 0)
(0.000277385 1.31826e-05 0)
(0.000277561 1.32726e-05 0)
(0.00027774 1.3361e-05 0)
(0.000277924 1.34478e-05 0)
(0.000278112 1.35332e-05 0)
(0.000278305 1.3617e-05 0)
(0.000278502 1.36994e-05 0)
(0.000278704 1.37802e-05 0)
(0.000278911 1.38596e-05 0)
(0.000279124 1.39375e-05 0)
(0.000279342 1.40141e-05 0)
(0.000279566 1.40895e-05 0)
(0.000279796 1.41636e-05 0)
(0.000280032 1.42367e-05 0)
(0.000280275 1.43088e-05 0)
(0.000280525 1.43802e-05 0)
(0.000280782 1.4451e-05 0)
(0.000281047 1.45213e-05 0)
(0.00028132 1.45914e-05 0)
(0.000281601 1.46614e-05 0)
(0.000281891 1.47314e-05 0)
(0.00028219 1.48016e-05 0)
(0.000282499 1.48721e-05 0)
(0.000282818 1.49427e-05 0)
(0.000283148 1.50135e-05 0)
(0.00028349 1.50842e-05 0)
(0.000283845 1.51546e-05 0)
(0.000284214 1.52243e-05 0)
(0.000284598 1.52928e-05 0)
(0.000284999 1.53598e-05 0)
(0.000285418 1.54246e-05 0)
(0.000285854 1.54865e-05 0)
(0.000286312 1.5545e-05 0)
(0.000286794 1.55998e-05 0)
(0.000287307 1.56509e-05 0)
(0.000287848 1.56984e-05 0)
(0.000288417 1.57423e-05 0)
(0.00028902 1.57829e-05 0)
(0.000289689 1.58207e-05 0)
(0.000290457 1.58565e-05 0)
(0.00029129 1.58883e-05 0)
(0.000292096 1.59078e-05 0)
(0.000293067 1.59127e-05 0)
(0.000294324 1.59029e-05 0)
(0.000295899 1.58647e-05 0)
(0.000298956 1.62037e-05 0)
(0.000303724 1.14444e-05 0)
(0.000570133 3.39773e-05 0)
(0.00767017 -0.000548564 0)
(0.0164069 -0.00417159 0)
(0.015612 -0.00503288 0)
(0.0141264 -0.00577321 0)
(0.0132167 -0.00638605 0)
(0.0128464 -0.00695514 0)
(0.0129978 -0.00749999 0)
(0.0137044 -0.00802503 0)
(0.0150313 -0.00852596 0)
(0.0170429 -0.00899059 0)
(0.0197509 -0.00939961 0)
(0.0230525 -0.00972564 0)
(0.0266919 -0.00992951 0)
(0.0302866 -0.00995829 0)
(0.0334391 -0.00976086 0)
(0.035879 -0.0093256 0)
(0.0375409 -0.00870268 0)
(0.0385325 -0.00797874 0)
(0.0390386 -0.00723304 0)
(0.0392399 -0.0065155 0)
(0.0392755 -0.00584949 0)
(0.0392396 -0.00524261 0)
(0.0391905 -0.00469491 0)
(0.0391613 -0.00420324 0)
(0.0391689 -0.00376336 0)
(0.0392201 -0.00337083 0)
(0.0393153 -0.00302138 0)
(0.0394514 -0.00271108 0)
(0.0396233 -0.00243633 0)
(0.039825 -0.00219391 0)
(0.0400498 -0.00198091 0)
(0.0402912 -0.00179469 0)
(0.0405427 -0.00163288 0)
(0.0407983 -0.00149335 0)
(0.0410522 -0.00137417 0)
(0.041299 -0.00127358 0)
(0.0415337 -0.00118999 0)
(0.0417516 -0.00112197 0)
(0.0419485 -0.00106821 0)
(0.0421202 -0.00102751 0)
(0.0422632 -0.000998779 0)
(0.0423739 -0.00098102 0)
(0.0424491 -0.000973315 0)
(0.0424858 -0.000974821 0)
(0.0424811 -0.000984754 0)
(0.0424325 -0.00100238 0)
(0.0423374 -0.001027 0)
(0.0421934 -0.00105794 0)
(0.0419983 -0.00109454 0)
(0.04175 -0.00113615 0)
(0.0414463 -0.0011821 0)
(0.0410854 -0.00123173 0)
(0.0406653 -0.00128434 0)
(0.0401798 -0.00133985 0)
(0.0396228 -0.0013982 0)
(0.0389932 -0.00145876 0)
(0.0382897 -0.00152083 0)
(0.0375115 -0.00158366 0)
(0.0366577 -0.00164646 0)
(0.0357276 -0.00170848 0)
(0.0347209 -0.00176895 0)
(0.0336375 -0.00182718 0)
(0.0324775 -0.0018825 0)
(0.0312414 -0.00193434 0)
(0.02993 -0.00198223 0)
(0.0285441 -0.00202584 0)
(0.0270851 -0.00206495 0)
(0.0255543 -0.00209939 0)
(0.0239535 -0.00212906 0)
(0.022284 -0.00215404 0)
(0.0205478 -0.00217439 0)
(0.0187466 -0.00219016 0)
(0.0168826 -0.00220141 0)
(0.0149574 -0.00220836 0)
(0.0129726 -0.00221134 0)
(0.0109303 -0.00221065 0)
(0.00883199 -0.00220676 0)
(0.00667899 -0.00220059 0)
(0.00447251 -0.00219335 0)
(0.00221362 -0.00218678 0)
(-9.69744e-05 -0.00218322 0)
(-0.00245877 -0.00218477 0)
(-0.00487214 -0.00219271 0)
(-0.00733805 -0.00220727 0)
(-0.00986172 -0.00223021 0)
(-0.0124537 -0.00226585 0)
(-0.0151279 -0.00232318 0)
(-0.0178854 -0.00238018 0)
(-0.0206558 -0.0024192 0)
(0.00702169 -0.0024171 0)
(0.00752969 -0.00238909 0)
(0.00753706 -0.00233923 0)
(0.00752091 -0.00303374 0)
(0.00758266 -0.00131682 0)
(0.00738592 -0.00642166 0)
(0.00662668 0.0207444 0)
(0.00562787 0.0395971 0)
(0.00586039 0.0395589 0)
(0.00579069 0.0395606 0)
(0.00574737 0.0395573 0)
(0.0056963 0.0395539 0)
(0.00564083 0.0395498 0)
(0.00558072 0.0395451 0)
(0.00551637 0.0395398 0)
(0.00544868 0.0395341 0)
(0.00537991 0.0395281 0)
(0.00532107 0.0395216 0)
(0.00523023 0.0395165 0)
(0.00516842 0.0395114 0)
(0.005118 0.039506 0)
(0.00507021 0.0395018 0)
(0.0050352 0.0394982 0)
(0.00501513 0.0394947 0)
(0.00500778 0.0394907 0)
(0.00505322 0.0394834 0)
(0.0051318 0.0394758 0)
(0.00514345 0.039473 0)
(0.00514384 0.0394727 0)
(0.00514385 0.0394727 0)
(0.00514385 0.0394727 0)
(0.00514385 0.0394727 0)
(0.00514385 0.0394727 0)
(0.00514385 0.0394727 0)
(0.00514385 0.0394727 0)
(0.00514385 0.0394727 0)
(0.00514385 0.0394727 0)
(0.00514385 0.0394727 0)
(0.00514385 0.0394727 0)
(0.00514385 0.0394727 0)
(0.00514385 0.0394727 0)
(0.00514385 0.0394727 0)
(0.00514385 0.0394727 0)
(0.00514385 0.0394727 0)
(0.00514385 0.0394727 0)
(0.00514385 0.0394727 0)
(0.00514385 0.0394727 0)
(0.00514385 0.0394727 0)
(0.00514385 0.0394727 0)
(0.00514385 0.0394727 0)
(0.00514385 0.0394727 0)
(0.00514385 0.0394727 0)
(0.00514385 0.0394727 0)
(0.00514385 0.0394727 0)
(0.00514385 0.0394727 0)
(0.00514385 0.0394727 0)
(0.00514385 0.0394727 0)
(0.00514385 0.0394727 0)
(0.00514385 0.0394727 0)
(0.00514385 0.0394727 0)
(0.00514385 0.0394727 0)
(0.00514385 0.0394727 0)
(0.00514385 0.0394727 0)
(0.00514385 0.0394727 0)
(0.00514385 0.0394727 0)
(0.00514385 0.0394727 0)
(0.00514385 0.0394727 0)
(0.00514385 0.0394727 0)
(0.00514385 0.0394727 0)
(0.00514385 0.0394727 0)
(0.00514385 0.0394727 0)
(0.00514385 0.0394727 0)
(0.00514385 0.0394727 0)
(0.00514385 0.0394727 0)
(0.00514385 0.0394727 0)
(0.00514385 0.0394727 0)
(0.00514385 0.0394727 0)
(0.00514385 0.0394727 0)
(0.00514385 0.0394727 0)
(0.00514385 0.0394727 0)
(0.00514385 0.0394727 0)
(0.00514385 0.0394727 0)
(0.00514385 0.0394727 0)
(0.00514385 0.0394727 0)
(0.00514385 0.0394727 0)
(0.00514385 0.0394727 0)
(0.00514385 0.0394727 0)
(0.00514385 0.0394727 0)
(0.00514385 0.0394727 0)
(0.00514385 0.0394727 0)
(0.00514385 0.0394727 0)
(0.00514385 0.0394727 0)
(0.00514385 0.0394727 0)
(0.00514385 0.0394727 0)
(0.00514385 0.0394727 0)
(0.00514385 0.0394727 0)
(0.00514385 0.0394727 0)
(0.00514385 0.0394727 0)
(0.00514385 0.0394727 0)
(0.00514385 0.0394727 0)
(0.00514385 0.0394727 0)
(0.00514385 0.0394727 0)
(0.00514385 0.0394727 0)
(0.00514385 0.0394727 0)
(0.00514385 0.0394727 0)
(0.00514385 0.0394727 0)
(0.00514385 0.0394727 0)
(0.00514385 0.0394727 0)
(0.00514385 0.0394727 0)
(0.00514385 0.0394727 0)
(0.00514385 0.0394727 0)
(0.00514385 0.0394727 0)
(0.00514385 0.0394727 0)
(0.00514385 0.0394727 0)
(0.00514385 0.0394727 0)
(0.00514385 0.0394727 0)
(0.00514385 0.0394727 0)
(0.00514385 0.0394727 0)
(0.00514385 0.0394727 0)
(0.0051439 0.0394725 0)
(0.00514534 0.039464 0)
(0.00518022 0.0391176 0)
(0.00598661 0.0223492 0)
)
;

boundaryField
{
    inandouthalf11
    {
        type            cyclic;
    }
    inandouthalf12
    {
        type            cyclic;
    }
    inandouthalf21
    {
        type            cyclic;
    }
    inandouthalf22
    {
        type            cyclic;
    }
    inandouthalf31
    {
        type            cyclic;
    }
    inandouthalf32
    {
        type            cyclic;
    }
    inandouthalf41
    {
        type            cyclic;
    }
    inandouthalf42
    {
        type            cyclic;
    }
    top
    {
        type            symmetryPlane;
    }
    walls
    {
        type            calculated;
        value           uniform (0 0 0);
    }
    frontAndBackPlanes
    {
        type            empty;
    }
}


// ************************************************************************* //
