/*--------------------------------*- C++ -*----------------------------------*\
| =========                 |                                                 |
| \\      /  F ield         | OpenFOAM: The Open Source CFD Toolbox           |
|  \\    /   O peration     | Version:  2.4.x                                 |
|   \\  /    A nd           | Web:      www.OpenFOAM.org                      |
|    \\/     M anipulation  |                                                 |
\*---------------------------------------------------------------------------*/
FoamFile
{
    version     2.0;
    format      ascii;
    class       volScalarField;
    location    "5.1";
    object      alpha;
}
// * * * * * * * * * * * * * * * * * * * * * * * * * * * * * * * * * * * * * //

dimensions      [0 0 0 0 0 0 0];

internalField   nonuniform List<scalar> 
360
(
0.610542
0.611204
0.61134
0.61128
0.611229
0.611204
0.611181
0.611158
0.611134
0.611109
0.611083
0.611057
0.61103
0.611004
0.610978
0.610951
0.610925
0.610897
0.61087
0.610842
0.610815
0.610787
0.610758
0.61073
0.610701
0.610671
0.610642
0.610612
0.610581
0.61055
0.61052
0.610489
0.610459
0.610428
0.610399
0.610369
0.61034
0.610309
0.610277
0.610243
0.610203
0.610159
0.610108
0.610052
0.609997
0.609951
0.609918
0.609896
0.60988
0.609866
0.609852
0.609837
0.609821
0.609804
0.609787
0.609767
0.609747
0.609725
0.609702
0.609678
0.609653
0.609627
0.6096
0.609572
0.609544
0.609515
0.609485
0.609454
0.609422
0.609389
0.609354
0.609318
0.609281
0.609243
0.609204
0.609164
0.609123
0.609081
0.609039
0.608995
0.60895
0.608904
0.608857
0.608809
0.608759
0.608708
0.608656
0.608603
0.608549
0.608494
0.608437
0.60838
0.608321
0.60826
0.608198
0.608135
0.60807
0.608004
0.607936
0.607867
0.607796
0.607723
0.607648
0.607572
0.607494
0.607414
0.607331
0.607247
0.607161
0.607072
0.606981
0.606887
0.60679
0.606691
0.606589
0.606485
0.606377
0.606265
0.606151
0.606032
0.60591
0.605785
0.605655
0.60552
0.605382
0.605238
0.60509
0.604936
0.604775
0.604609
0.604436
0.604255
0.604067
0.603869
0.603658
0.603436
0.603202
0.602954
0.60268
0.602365
0.602023
0.601699
0.601312
0.600811
0.600193
0.59911
0.595607
0.518886
0.309683
0.230097
0.187899
0.154801
0.127069
0.10358
0.0839077
0.0676985
0.0545392
0.0439697
0.0355337
0.0288173
0.0234679
0.0191972
0.015775
0.0130204
0.0107926
0.00898176
0.00750261
0.00628859
0.00528759
0.00445863
0.00376932
0.00319391
0.00271184
0.00230661
0.00196487
0.00167585
0.00143072
0.00122229
0.00104458
0.000892604
0.000762088
0.000649401
0.000551537
0.000466192
0.000391805
0.000327436
0.000272478
0.00022633
0.000188177
0.000156975
0.000131597
0.000110948
9.39615e-05
7.96266e-05
6.72173e-05
5.64543e-05
4.73102e-05
3.97153e-05
3.34656e-05
2.83047e-05
2.40366e-05
2.04906e-05
1.74817e-05
1.4871e-05
1.26726e-05
1.08584e-05
9.26418e-06
7.87514e-06
6.74147e-06
5.76732e-06
4.90529e-06
4.18575e-06
3.5665e-06
3.02458e-06
2.57663e-06
2.18311e-06
1.83379e-06
1.55714e-06
1.31436e-06
1.09554e-06
9.19796e-07
7.6783e-07
6.38084e-07
5.28723e-07
4.31532e-07
3.55417e-07
2.89316e-07
2.3172e-07
1.87245e-07
1.48871e-07
1.17272e-07
9.06711e-08
6.81952e-08
5.1571e-08
4.33019e-08
3.40544e-08
3.0549e-08
2.89171e-08
6.02755e-10
6.54141e-21
4.5847e-21
3.69856e-21
3.30496e-21
2.43377e-21
1.60405e-21
7.56552e-22
3.34066e-22
1.80163e-22
1.14622e-22
8.31544e-23
6.69698e-23
5.69099e-23
4.7376e-23
3.54584e-23
2.05662e-23
8.20561e-24
3.68485e-24
1.9513e-24
1.16617e-24
7.73249e-25
5.53327e-25
3.81464e-25
2.06281e-25
8.74954e-26
4.2899e-26
2.29175e-26
1.28975e-26
7.4108e-27
3.80388e-27
1.82978e-27
9.20989e-28
4.60987e-28
2.26808e-28
1.09434e-28
5.17349e-29
2.39453e-29
1.08421e-29
4.7983e-30
2.07373e-30
8.74352e-31
3.59289e-31
1.43731e-31
5.591e-32
2.11212e-32
7.73826e-33
2.74555e-33
9.4186e-34
3.11864e-34
9.94825e-35
3.05097e-35
8.97542e-36
2.52644e-36
6.78567e-37
1.73363e-37
4.19833e-38
9.59915e-39
2.06279e-39
4.14443e-40
7.7376e-41
1.3327e-41
2.09921e-42
2.99184e-43
3.80677e-44
4.24987e-45
4.06692e-46
3.22747e-47
2.0191e-48
9.12132e-50
2.4582e-51
1.73052e-53
9.21973e-57
1.19768e-58
7.72187e-61
1.7548e-71
1.99507e-82
1.6265e-93
9.80175e-105
4.9492e-116
2.02004e-127
7.38185e-139
8.63001e-148
2.71616e-158
2.97566e-166
8.49288e-177
1.02366e-184
3.51572e-195
3.52127e-203
1.53628e-213
1.2123e-221
1.00921e-231
4.21894e-240
6.65505e-250
1.49261e-258
3.32619e-268
5.36507e-277
1.57623e-286
1.95756e-295
6.94332e-305
7.26171e-314
2.71109e-319
6.80328e-321
7.09478e-321
6.08689e-321
8.5424e-321
0
0
0
0
0
0
0
0
0
0
0
0
0
0
0
0
)
;

boundaryField
{
    inandouthalf11
    {
        type            cyclic;
    }
    inandouthalf12
    {
        type            cyclic;
    }
    inandouthalf21
    {
        type            cyclic;
    }
    inandouthalf22
    {
        type            cyclic;
    }
    inandouthalf31
    {
        type            cyclic;
    }
    inandouthalf32
    {
        type            cyclic;
    }
    inandouthalf41
    {
        type            cyclic;
    }
    inandouthalf42
    {
        type            cyclic;
    }
    top
    {
        type            symmetryPlane;
    }
    walls
    {
        type            zeroGradient;
    }
    frontAndBackPlanes
    {
        type            empty;
    }
}


// ************************************************************************* //
