/*--------------------------------*- C++ -*----------------------------------*\
| =========                 |                                                 |
| \\      /  F ield         | OpenFOAM: The Open Source CFD Toolbox           |
|  \\    /   O peration     | Version:  2.4.x                                 |
|   \\  /    A nd           | Web:      www.OpenFOAM.org                      |
|    \\/     M anipulation  |                                                 |
\*---------------------------------------------------------------------------*/
FoamFile
{
    version     2.0;
    format      ascii;
    class       volVectorField;
    location    "5.1";
    object      ddt0(Ua);
}
// * * * * * * * * * * * * * * * * * * * * * * * * * * * * * * * * * * * * * //

dimensions      [0 1 -2 0 0 0 0];

internalField   nonuniform List<vector> 
360
(
(-2.11378e-35 -7.63656e-33 0)
(8.88365e-09 3.81255e-08 0)
(2.24939e-08 9.27786e-08 0)
(3.48126e-08 1.3691e-07 0)
(4.61184e-08 1.75967e-07 0)
(5.76026e-08 2.15801e-07 0)
(6.98184e-08 2.58732e-07 0)
(8.27576e-08 3.04479e-07 0)
(9.62104e-08 3.51903e-07 0)
(1.10031e-07 4.00289e-07 0)
(1.24219e-07 4.49674e-07 0)
(1.38847e-07 5.00403e-07 0)
(1.53976e-07 5.52729e-07 0)
(1.69624e-07 6.06684e-07 0)
(1.85781e-07 6.62163e-07 0)
(2.02449e-07 7.19128e-07 0)
(2.19668e-07 7.77715e-07 0)
(2.37522e-07 8.38242e-07 0)
(2.56144e-07 9.01212e-07 0)
(2.75713e-07 9.67327e-07 0)
(2.96442e-07 1.0374e-06 0)
(3.18563e-07 1.1123e-06 0)
(3.42293e-07 1.19287e-06 0)
(3.67759e-07 1.27953e-06 0)
(3.94915e-07 1.37207e-06 0)
(4.23447e-07 1.46917e-06 0)
(4.52689e-07 1.56819e-06 0)
(4.81589e-07 1.665e-06 0)
(5.08746e-07 1.75419e-06 0)
(5.32608e-07 1.8298e-06 0)
(5.5187e-07 1.88687e-06 0)
(5.66028e-07 1.92354e-06 0)
(5.75946e-07 1.94312e-06 0)
(5.84293e-07 1.95558e-06 0)
(5.95697e-07 1.97792e-06 0)
(6.16688e-07 2.03364e-06 0)
(6.55669e-07 2.15236e-06 0)
(7.2318e-07 2.37059e-06 0)
(8.32436e-07 2.734e-06 0)
(9.99082e-07 3.29716e-06 0)
(1.23699e-06 4.11161e-06 0)
(1.54213e-06 5.1735e-06 0)
(1.8548e-06 6.29113e-06 0)
(2.01957e-06 6.92812e-06 0)
(1.83908e-06 6.3599e-06 0)
(1.29472e-06 4.47695e-06 0)
(6.65368e-07 2.27542e-06 0)
(2.44984e-07 8.20529e-07 0)
(6.6724e-08 2.17066e-07 0)
(1.45982e-08 4.51612e-08 0)
(2.80248e-09 7.29935e-09 0)
(3.99882e-10 -2.12662e-10 0)
(-1.08496e-10 -1.76423e-09 0)
(-2.29634e-10 -2.12621e-09 0)
(-2.611e-10 -2.21864e-09 0)
(-2.67114e-10 -2.23609e-09 0)
(-2.6314e-10 -2.2247e-09 0)
(-2.52901e-10 -2.19556e-09 0)
(-2.36888e-10 -2.15037e-09 0)
(-2.14905e-10 -2.08901e-09 0)
(-1.87136e-10 -2.01249e-09 0)
(-1.54613e-10 -1.92421e-09 0)
(-1.19142e-10 -1.82953e-09 0)
(-8.28246e-11 -1.73433e-09 0)
(-4.74705e-11 -1.64343e-09 0)
(-1.41966e-11 -1.55953e-09 0)
(1.66524e-11 -1.48318e-09 0)
(4.53311e-11 -1.41339e-09 0)
(7.24348e-11 -1.34835e-09 0)
(9.86907e-11 -1.28606e-09 0)
(1.24832e-10 -1.22458e-09 0)
(1.51515e-10 -1.16222e-09 0)
(1.79272e-10 -1.09772e-09 0)
(2.08515e-10 -1.03012e-09 0)
(2.39546e-10 -9.58788e-10 0)
(2.72542e-10 -8.83372e-10 0)
(3.07561e-10 -8.03841e-10 0)
(3.44572e-10 -7.20385e-10 0)
(3.83499e-10 -6.33271e-10 0)
(4.24254e-10 -5.4279e-10 0)
(4.66756e-10 -4.49207e-10 0)
(5.10957e-10 -3.52706e-10 0)
(5.56849e-10 -2.53368e-10 0)
(6.04445e-10 -1.51226e-10 0)
(6.5376e-10 -4.63087e-11 0)
(7.04795e-10 6.13218e-11 0)
(7.57523e-10 1.71539e-10 0)
(8.11876e-10 2.84138e-10 0)
(8.67756e-10 3.98841e-10 0)
(9.25047e-10 5.15355e-10 0)
(9.83636e-10 6.33394e-10 0)
(1.04342e-09 7.52712e-10 0)
(1.10434e-09 8.73126e-10 0)
(1.16633e-09 9.94517e-10 0)
(1.22939e-09 1.11681e-09 0)
(1.29349e-09 1.23996e-09 0)
(1.35865e-09 1.36392e-09 0)
(1.42485e-09 1.48866e-09 0)
(1.49209e-09 1.61411e-09 0)
(1.56035e-09 1.74021e-09 0)
(1.62961e-09 1.86686e-09 0)
(1.69984e-09 1.99399e-09 0)
(1.77103e-09 2.12149e-09 0)
(1.84313e-09 2.24927e-09 0)
(1.91611e-09 2.37723e-09 0)
(1.98995e-09 2.50525e-09 0)
(2.06461e-09 2.63323e-09 0)
(2.14005e-09 2.76105e-09 0)
(2.21623e-09 2.88859e-09 0)
(2.29313e-09 3.01575e-09 0)
(2.37071e-09 3.14243e-09 0)
(2.44895e-09 3.26852e-09 0)
(2.52786e-09 3.39397e-09 0)
(2.60743e-09 3.5187e-09 0)
(2.68769e-09 3.64269e-09 0)
(2.7687e-09 3.76595e-09 0)
(2.85054e-09 3.88849e-09 0)
(2.93332e-09 4.01038e-09 0)
(3.01718e-09 4.13172e-09 0)
(3.10231e-09 4.25262e-09 0)
(3.18891e-09 4.37322e-09 0)
(3.27718e-09 4.49362e-09 0)
(3.36734e-09 4.61388e-09 0)
(3.45952e-09 4.73397e-09 0)
(3.55382e-09 4.85373e-09 0)
(3.65019e-09 4.97284e-09 0)
(3.74844e-09 5.09076e-09 0)
(3.8482e-09 5.20678e-09 0)
(3.94888e-09 5.31994e-09 0)
(4.04965e-09 5.42912e-09 0)
(4.14942e-09 5.533e-09 0)
(4.24703e-09 5.63027e-09 0)
(4.34142e-09 5.7199e-09 0)
(4.43197e-09 5.80145e-09 0)
(4.51858e-09 5.87509e-09 0)
(4.6015e-09 5.94128e-09 0)
(4.68121e-09 6.0005e-09 0)
(4.75844e-09 6.0533e-09 0)
(4.8341e-09 6.1005e-09 0)
(4.90798e-09 6.14252e-09 0)
(4.97597e-09 6.1776e-09 0)
(5.02993e-09 6.20156e-09 0)
(5.06473e-09 6.21385e-09 0)
(5.08273e-09 6.21839e-09 0)
(5.09076e-09 6.21907e-09 0)
(5.09533e-09 6.21799e-09 0)
(5.10157e-09 6.21594e-09 0)
(0.0260468 5.878e-05 0)
(0.0587568 -0.000169218 0)
(0.0592508 -6.10913e-06 0)
(0.0625444 -0.000150429 0)
(0.0680969 -0.00018851 0)
(0.0745706 -0.000238187 0)
(0.0813011 -0.000287233 0)
(0.0879322 -0.00034422 0)
(0.0942669 -0.000409988 0)
(0.100204 -0.000484902 0)
(0.105703 -0.00056926 0)
(0.110761 -0.000663175 0)
(0.115394 -0.000766584 0)
(0.119627 -0.000879199 0)
(0.123484 -0.00100112 0)
(0.12699 -0.00113147 0)
(0.130163 -0.0012689 0)
(0.133019 -0.00141259 0)
(0.135572 -0.00156171 0)
(0.137828 -0.00171542 0)
(0.139795 -0.00187298 0)
(0.141472 -0.00203383 0)
(0.14286 -0.0021975 0)
(0.143955 -0.00236352 0)
(0.144751 -0.00253125 0)
(0.145243 -0.00269975 0)
(0.145427 -0.00286767 0)
(0.145298 -0.0030331 0)
(0.144857 -0.00319361 0)
(0.144105 -0.00334617 0)
(0.143049 -0.0034866 0)
(0.141699 -0.00360781 0)
(0.140072 -0.00369643 0)
(0.13819 -0.00372915 0)
(0.136086 -0.00367227 0)
(0.133804 -0.00348843 0)
(0.131401 -0.00315119 0)
(0.12894 -0.00266141 0)
(0.126489 -0.00205484 0)
(0.124105 -0.00139397 0)
(0.12183 -0.00074756 0)
(0.119685 -0.000170098 0)
(0.117676 0.000308157 0)
(0.115797 0.000679187 0)
(0.114035 0.000951588 0)
(0.112381 0.00114754 0)
(0.110835 0.00129736 0)
(0.109403 0.00142615 0)
(0.108094 0.00154236 0)
(0.106906 0.00164098 0)
(0.105829 0.00171583 0)
(0.10485 0.00176694 0)
(0.103958 0.0017989 0)
(0.10314 0.00181558 0)
(0.102377 0.00181983 0)
(0.10166 0.00181679 0)
(0.100988 0.00181131 0)
(0.100352 0.00180151 0)
(0.0997436 0.00178662 0)
(0.0991675 0.00177348 0)
(0.0986214 0.00176358 0)
(0.0980915 0.00175164 0)
(0.0975776 0.00174016 0)
(0.0970833 0.00173339 0)
(0.0966005 0.00172859 0)
(0.0961267 0.00172602 0)
(0.0956613 0.0017272 0)
(0.0951976 0.00172963 0)
(0.0947398 0.00173631 0)
(0.0942863 0.00174863 0)
(0.0938226 0.00175967 0)
(0.0933557 0.00177282 0)
(0.0928921 0.00179368 0)
(0.0924187 0.00181602 0)
(0.091935 0.00183936 0)
(0.0914449 0.00186681 0)
(0.0909496 0.00189917 0)
(0.0904487 0.00193824 0)
(0.0899339 0.00197872 0)
(0.0894118 0.00202349 0)
(0.0888861 0.00207819 0)
(0.0883479 0.00213482 0)
(0.0878034 0.00219525 0)
(0.087261 0.00226574 0)
(0.0867272 0.0023499 0)
(0.0862045 0.00245338 0)
(0.0856677 0.00253972 0)
(0.0851259 0.00255942 0)
(0.0846322 0.00251345 0)
(0.0840205 0.00233495 0)
(-0.013747 -0.0592742 0)
(-0.00966913 0.0561785 0)
(-0.00991535 0.0183742 0)
(-0.0110252 -0.00173775 0)
(-0.0115793 0.000229128 0)
(-0.0120269 3.78019e-05 0)
(-0.0122188 4.4916e-05 0)
(-0.0120912 2.94015e-05 0)
(-0.011536 6.01013e-06 0)
(-0.010659 -3.82519e-05 0)
(-0.00634988 -0.000137247 0)
(0.00030826 -0.00015338 0)
(0.00337934 -5.76077e-05 0)
(0.00356659 -3.60658e-06 0)
(0.00356989 1.67589e-07 0)
(0.00356972 -2.52536e-09 0)
(0.00356975 9.48123e-09 0)
(0.00356976 7.87468e-09 0)
(0.00356977 8.94387e-09 0)
(0.00356978 7.86182e-09 0)
(0.00356978 8.98543e-09 0)
(0.00356979 7.81472e-09 0)
(0.00356979 9.02359e-09 0)
(0.00356979 7.76208e-09 0)
(0.0035698 9.0618e-09 0)
(0.0035698 7.70307e-09 0)
(0.0035698 9.10028e-09 0)
(0.0035698 7.63508e-09 0)
(0.0035698 9.13664e-09 0)
(0.0035698 7.55737e-09 0)
(0.0035698 9.17306e-09 0)
(0.0035698 7.46974e-09 0)
(0.0035698 9.12281e-09 0)
(0.0035698 7.6316e-09 0)
(0.0035698 9.03308e-09 0)
(0.0035698 7.45604e-09 0)
(0.0035698 9.14737e-09 0)
(0.0035698 7.35734e-09 0)
(0.0035698 9.20194e-09 0)
(0.0035698 7.28264e-09 0)
(0.0035698 9.26472e-09 0)
(0.0035698 7.20296e-09 0)
(0.0035698 9.3372e-09 0)
(0.0035698 7.12104e-09 0)
(0.0035698 9.40851e-09 0)
(0.0035698 7.03311e-09 0)
(0.0035698 9.49081e-09 0)
(0.0035698 6.95171e-09 0)
(0.0035698 9.58843e-09 0)
(0.0035698 6.87882e-09 0)
(0.0035698 9.70592e-09 0)
(0.0035698 6.81158e-09 0)
(0.0035698 9.83175e-09 0)
(0.0035698 6.74407e-09 0)
(0.0035698 9.9726e-09 0)
(0.0035698 6.68727e-09 0)
(0.0035698 1.01304e-08 0)
(0.0035698 6.63731e-09 0)
(0.0035698 1.02982e-08 0)
(0.0035698 6.56505e-09 0)
(0.0035698 1.04361e-08 0)
(0.0035698 6.44952e-09 0)
(0.0035698 1.05515e-08 0)
(0.0035698 6.32411e-09 0)
(0.0035698 1.06727e-08 0)
(0.0035698 6.19638e-09 0)
(0.0035698 1.08015e-08 0)
(0.0035698 6.06726e-09 0)
(0.0035698 1.09321e-08 0)
(0.0035698 5.93286e-09 0)
(0.0035698 1.10656e-08 0)
(0.0035698 5.80103e-09 0)
(0.0035698 1.12183e-08 0)
(0.0035698 6.03646e-09 0)
(0.0035698 1.09175e-08 0)
(0.0035698 6.02675e-09 0)
(0.0035698 1.09334e-08 0)
(0.0035698 6.01244e-09 0)
(0.0035698 1.09467e-08 0)
(0.0035698 5.99856e-09 0)
(0.0035698 1.09618e-08 0)
(0.0035698 5.98617e-09 0)
(0.0035698 1.09784e-08 0)
(0.0035698 5.97324e-09 0)
(0.0035698 1.09903e-08 0)
(0.0035698 5.95845e-09 0)
(0.0035698 1.10031e-08 0)
(0.0035698 5.94569e-09 0)
(0.0035698 1.10124e-08 0)
(0.0035698 5.93055e-09 0)
(0.0035698 1.1016e-08 0)
(0.0035698 5.88282e-09 0)
(0.0035698 1.09379e-08 0)
(0.0035698 5.76239e-09 0)
(0.0035698 1.0846e-08 0)
(0.0035698 5.65988e-09 0)
(0.0035698 1.07684e-08 0)
(0.0035698 5.58376e-09 0)
(0.0035698 1.07368e-08 0)
(0.0035698 5.54027e-09 0)
(0.0035698 1.06967e-08 0)
(0.0035698 5.49447e-09 0)
(0.0035698 1.06983e-08 0)
(0.0035698 5.51004e-09 0)
(0.0035698 1.07383e-08 0)
(0.0035698 5.53735e-09 0)
(0.0035698 1.07703e-08 0)
(0.0035698 5.58013e-09 0)
(0.0035698 1.08537e-08 0)
(0.0035698 5.59433e-09 0)
(0.0035698 1.07183e-08 0)
(0.0035698 5.33322e-09 0)
(0.0035698 1.03563e-08 0)
(0.0035698 4.66004e-09 0)
(0.0035698 9.19543e-09 0)
(0.0035698 3.23451e-09 0)
(0.0035698 7.65803e-09 0)
(0.0035698 1.03061e-09 0)
(0.0035698 4.39771e-09 0)
(0.0035698 -8.94689e-09 0)
(0.00356976 -8.49866e-07 0)
(0.00356895 -7.84642e-05 0)
(0.00355076 -8.39442e-05 0)
)
;

boundaryField
{
    inandouthalf11
    {
        type            cyclic;
    }
    inandouthalf12
    {
        type            cyclic;
    }
    inandouthalf21
    {
        type            cyclic;
    }
    inandouthalf22
    {
        type            cyclic;
    }
    inandouthalf31
    {
        type            cyclic;
    }
    inandouthalf32
    {
        type            cyclic;
    }
    inandouthalf41
    {
        type            cyclic;
    }
    inandouthalf42
    {
        type            cyclic;
    }
    top
    {
        type            symmetryPlane;
    }
    walls
    {
        type            calculated;
        value           uniform (0 0 0);
    }
    frontAndBackPlanes
    {
        type            empty;
    }
}


// ************************************************************************* //
