/*--------------------------------*- C++ -*----------------------------------*\
| =========                 |                                                 |
| \\      /  F ield         | OpenFOAM: The Open Source CFD Toolbox           |
|  \\    /   O peration     | Version:  2.4.x                                 |
|   \\  /    A nd           | Web:      www.OpenFOAM.org                      |
|    \\/     M anipulation  |                                                 |
\*---------------------------------------------------------------------------*/
FoamFile
{
    version     2.0;
    format      ascii;
    class       volScalarField;
    location    "5.1";
    object      ddt0(((1.5*(alpha+1e-08))*rho),Theta);
}
// * * * * * * * * * * * * * * * * * * * * * * * * * * * * * * * * * * * * * //

dimensions      [1 -1 -3 0 0 0 0];

internalField   nonuniform List<scalar> 
360
(
-5.92517e-21
-2.77509e-20
-2.59856e-20
-2.0011e-20
-1.93569e-20
-2.09568e-20
-2.28359e-20
-2.41774e-20
-2.49697e-20
-2.56049e-20
-2.64025e-20
-2.7407e-20
-2.85062e-20
-2.95825e-20
-3.06155e-20
-3.16826e-20
-3.28907e-20
-3.43464e-20
-3.6168e-20
-3.84562e-20
-4.12807e-20
-4.4684e-20
-4.85823e-20
-5.26909e-20
-5.64994e-20
-5.92383e-20
-5.99521e-20
-5.7635e-20
-5.15133e-20
-4.1621e-20
-2.93399e-20
-1.74743e-20
-9.8476e-21
-1.04666e-20
-2.28806e-20
-5.06265e-20
-9.91769e-20
-1.79502e-19
-3.12474e-19
-5.3068e-19
-8.57396e-19
-1.19814e-18
-1.12383e-18
-3.64586e-20
1.51267e-18
1.77543e-18
8.50061e-19
1.90025e-19
2.13569e-20
1.38387e-21
6.66593e-23
3.60218e-24
3.24816e-25
4.06799e-26
-6.27223e-27
-1.94502e-26
-2.57162e-26
-3.10072e-26
-3.54651e-26
-4.07218e-26
-4.53601e-26
-4.87506e-26
-5.09916e-26
-5.15464e-26
-5.12098e-26
-5.04804e-26
-5.00719e-26
-4.99517e-26
-5.01452e-26
-5.1418e-26
-5.33807e-26
-5.48209e-26
-5.67637e-26
-5.91681e-26
-6.13328e-26
-6.34488e-26
-6.53118e-26
-6.75432e-26
-6.96909e-26
-7.18164e-26
-7.40391e-26
-7.64768e-26
-7.88492e-26
-8.1143e-26
-8.35439e-26
-8.57143e-26
-8.7965e-26
-9.00352e-26
-9.20618e-26
-9.40891e-26
-9.61364e-26
-9.81034e-26
-1.0014e-25
-1.02261e-25
-1.04326e-25
-1.06418e-25
-1.08551e-25
-1.10692e-25
-1.12901e-25
-1.1512e-25
-1.17344e-25
-1.19606e-25
-1.21879e-25
-1.24296e-25
-1.2675e-25
-1.29184e-25
-1.31693e-25
-1.3434e-25
-1.36946e-25
-1.39685e-25
-1.42531e-25
-1.45466e-25
-1.48525e-25
-1.51775e-25
-1.55062e-25
-1.58543e-25
-1.62241e-25
-1.66177e-25
-1.70309e-25
-1.74731e-25
-1.79363e-25
-1.84254e-25
-1.89423e-25
-1.94789e-25
-2.004e-25
-2.0622e-25
-2.12254e-25
-2.18638e-25
-2.25246e-25
-2.31915e-25
-2.38023e-25
8.80978e-23
1.73649e-17
2.99181e-17
-1.51861e-16
-2.3675e-15
-2.25013e-14
-2.01565e-13
-1.90271e-12
-1.99441e-11
-2.39362e-10
-3.36086e-09
-5.63256e-08
-1.17339e-06
-4.89781e-05
-0.00330971
-0.070511
-0.789122
-1.14608
-0.593507
-0.387514
-0.279743
-0.203686
-0.145769
-0.102173
-0.0700813
-0.0466892
-0.0295825
-0.016963
-0.0075928
-0.000642429
0.00445587
0.00811177
0.0106347
0.0122702
0.0132106
0.0136148
0.0136096
0.0132995
0.0127671
0.0120794
0.0112888
0.0104371
0.0095571
0.00867392
0.00780695
0.00697084
0.00617641
0.00543092
0.00473888
0.00410206
0.00352043
0.00299293
0.00251887
0.00209836
0.00173208
0.00141991
0.0011597
0.000946831
0.000774869
0.000636817
0.000526013
0.000436227
0.000361862
0.000298974
0.000245804
0.000201723
0.000165917
0.000137056
0.000113698
9.47501e-05
7.92856e-05
6.64014e-05
5.54506e-05
4.63879e-05
3.90158e-05
3.26712e-05
2.72534e-05
2.28877e-05
1.9202e-05
1.60093e-05
1.33839e-05
1.11653e-05
9.26382e-06
7.71416e-06
6.38263e-06
5.22983e-06
4.32611e-06
3.55221e-06
2.87583e-06
2.34075e-06
1.89051e-06
1.51653e-06
1.20981e-06
9.48049e-07
7.46914e-07
5.79385e-07
4.40327e-07
3.35534e-07
2.49933e-07
1.82849e-07
1.29864e-07
8.84199e-08
5.88223e-08
4.03702e-08
2.3038e-08
0
0
0
0
0
0
0
0
0
0
0
0
0
0
0
0
0
0
0
0
0
0
0
0
0
0
0
0
0
0
0
0
0
0
0
0
0
0
0
0
0
0
0
0
0
0
0
0
0
0
0
0
0
0
0
0
0
0
0
0
0
0
0
0
0
0
0
0
0
0
0
0
0
0
0
0
0
0
0
0
0
0
0
0
0
0
0
0
0
0
0
0
0
0
0
0
0
0
0
0
0
0
0
0
0
0
0
0
0
0
0
0
0
0
0
0
0
0
0
0
0
0
0
0
)
;

boundaryField
{
    inandouthalf11
    {
        type            cyclic;
    }
    inandouthalf12
    {
        type            cyclic;
    }
    inandouthalf21
    {
        type            cyclic;
    }
    inandouthalf22
    {
        type            cyclic;
    }
    inandouthalf31
    {
        type            cyclic;
    }
    inandouthalf32
    {
        type            cyclic;
    }
    inandouthalf41
    {
        type            cyclic;
    }
    inandouthalf42
    {
        type            cyclic;
    }
    top
    {
        type            symmetryPlane;
    }
    walls
    {
        type            calculated;
        value           uniform -5.92517e-21;
    }
    frontAndBackPlanes
    {
        type            empty;
    }
}


// ************************************************************************* //
