/*--------------------------------*- C++ -*----------------------------------*\
| =========                 |                                                 |
| \\      /  F ield         | OpenFOAM: The Open Source CFD Toolbox           |
|  \\    /   O peration     | Version:  2.4.x                                 |
|   \\  /    A nd           | Web:      www.OpenFOAM.org                      |
|    \\/     M anipulation  |                                                 |
\*---------------------------------------------------------------------------*/
FoamFile
{
    version     2.0;
    format      ascii;
    class       volScalarField;
    location    "5.1";
    object      ddt0(alpha);
}
// * * * * * * * * * * * * * * * * * * * * * * * * * * * * * * * * * * * * * //

dimensions      [0 0 -1 0 0 0 0];

internalField   nonuniform List<scalar> 
360
(
0.000152961
0.000260579
0.000240832
0.000223064
0.000224328
0.000230479
0.000234589
0.000236497
0.000237352
0.000238418
0.000240043
0.000241962
0.000243969
0.000245798
0.000247483
0.000249137
0.000250823
0.000252548
0.00025432
0.000256284
0.000258296
0.000260673
0.000263388
0.000266485
0.000269926
0.000273562
0.000277117
0.000280343
0.000282586
0.000283314
0.000282089
0.00027897
0.000273945
0.000268505
0.00026364
0.000261843
0.00026555
0.000278158
0.00030362
0.000345918
0.000409455
0.000491262
0.00057199
0.0006081
0.000548022
0.000391628
0.000211228
8.3977e-05
2.48476e-05
5.6578e-06
9.37666e-07
-6.89607e-08
-2.95071e-07
-3.63873e-07
-4.0659e-07
-4.37635e-07
-4.63245e-07
-4.94035e-07
-5.0997e-07
-5.39707e-07
-5.61922e-07
-5.76725e-07
-5.93972e-07
-6.04229e-07
-6.18108e-07
-6.361e-07
-6.59918e-07
-6.82734e-07
-7.04565e-07
-7.36708e-07
-7.73279e-07
-7.92635e-07
-8.16801e-07
-8.44251e-07
-8.6567e-07
-8.83465e-07
-8.97888e-07
-9.19218e-07
-9.4173e-07
-9.63212e-07
-9.87617e-07
-1.01587e-06
-1.04283e-06
-1.06956e-06
-1.09555e-06
-1.12081e-06
-1.14492e-06
-1.16793e-06
-1.19242e-06
-1.21805e-06
-1.24455e-06
-1.27307e-06
-1.30331e-06
-1.33428e-06
-1.36607e-06
-1.39853e-06
-1.43151e-06
-1.46515e-06
-1.49977e-06
-1.53552e-06
-1.57252e-06
-1.61098e-06
-1.65095e-06
-1.69241e-06
-1.73545e-06
-1.78017e-06
-1.82668e-06
-1.87511e-06
-1.92561e-06
-1.9783e-06
-2.03329e-06
-2.0907e-06
-2.15064e-06
-2.21324e-06
-2.27862e-06
-2.34691e-06
-2.41828e-06
-2.49289e-06
-2.57094e-06
-2.65263e-06
-2.73814e-06
-2.82765e-06
-2.92136e-06
-3.0196e-06
-3.12313e-06
-3.23336e-06
-3.35229e-06
-3.4818e-06
-3.62213e-06
-3.77106e-06
-3.92663e-06
-4.09573e-06
-4.29916e-06
-4.55163e-06
-4.82794e-06
-5.08844e-06
-5.37187e-06
-5.83146e-06
-6.58298e-06
-7.32953e-06
-7.43947e-06
-7.95232e-06
-9.9365e-06
-1.25269e-05
-1.90295e-05
-7.35518e-05
0.000626267
0.123568
0.0350434
-0.00464451
-0.0149553
-0.0195282
-0.0214208
-0.0213987
-0.0199814
-0.0177048
-0.0150576
-0.0124007
-0.00995382
-0.00781965
-0.00602414
-0.00455011
-0.00335997
-0.00241117
-0.00166222
-0.00107589
-0.000620562
-0.000269977
-2.76187e-06
0.000198377
0.000347287
0.000455055
0.000530521
0.000580727
0.000611281
0.000626625
0.000630329
0.000625449
0.000614977
0.00060213
0.000590048
0.000580656
0.000573149
0.000563348
0.000545091
0.000513432
0.000467592
0.000411515
0.000351762
0.000294402
0.000243297
0.000200624
0.000167604
0.000143448
0.000124668
0.00010748
9.06342e-05
7.50741e-05
6.18804e-05
5.10863e-05
4.2077e-05
3.46945e-05
2.90511e-05
2.43015e-05
1.98238e-05
1.64299e-05
1.40401e-05
1.16122e-05
9.4732e-06
8.05322e-06
6.78108e-06
5.60576e-06
4.74675e-06
3.95699e-06
3.2831e-06
2.82817e-06
2.33304e-06
1.88883e-06
1.63604e-06
1.36759e-06
1.10791e-06
9.2892e-07
7.68989e-07
6.4637e-07
5.29767e-07
4.23031e-07
3.57427e-07
2.87614e-07
2.26634e-07
1.85721e-07
1.496e-07
1.21889e-07
9.41428e-08
5.93376e-08
3.9792e-08
2.91774e-08
3.30148e-08
7.45985e-08
9.89587e-09
1.27471e-20
-4.96225e-20
-2.03438e-20
-2.14286e-20
-2.83872e-20
-2.76369e-20
-2.23068e-20
-7.62967e-21
-3.07396e-21
-1.41732e-21
-7.09557e-22
-3.82116e-22
-2.78399e-22
-2.9785e-22
-3.64829e-22
-4.11909e-22
-1.91956e-22
-6.88893e-23
-2.96268e-23
-1.44344e-23
-7.44989e-24
-4.65415e-24
-4.03071e-24
-3.71781e-24
-1.54483e-24
-6.54282e-25
-3.1968e-25
-1.63743e-25
-9.3981e-26
-5.85613e-26
-2.68248e-26
-1.32809e-26
-6.66163e-27
-3.29346e-27
-1.59721e-27
-7.58965e-28
-3.53093e-28
-1.607e-28
-7.14869e-29
-3.10549e-29
-1.31616e-29
-5.43642e-30
-2.18608e-30
-8.54792e-31
-3.24597e-31
-1.19545e-31
-4.26364e-32
-1.4703e-32
-4.89396e-33
-1.56936e-33
-4.83841e-34
-1.43092e-34
-4.04926e-35
-1.09339e-35
-2.80845e-36
-6.83804e-37
-1.57199e-37
-3.39666e-38
-6.86228e-39
-1.28838e-39
-2.23171e-40
-3.53566e-41
-5.06891e-42
-6.48868e-43
-7.28924e-44
-7.02082e-45
-5.60983e-46
-3.53539e-47
-1.61033e-48
-4.38437e-50
-3.15636e-52
-1.79452e-55
-2.35424e-57
-1.53274e-59
-3.40037e-70
-3.7779e-81
-3.02076e-92
-1.78674e-103
-8.87902e-115
-3.57374e-126
-1.29906e-137
-1.71278e-146
-5.32371e-157
-5.90633e-165
-1.66939e-175
-2.03185e-183
-6.93245e-194
-6.98931e-202
-3.03765e-212
-2.40628e-220
-1.99988e-230
-8.37388e-239
-1.31948e-248
-2.96254e-257
-6.59911e-267
-1.06483e-275
-3.12734e-285
-3.8853e-294
-1.37791e-303
-1.44121e-312
-2.12992e-320
0
0
0
0
0
0
0
0
0
0
0
0
0
0
0
0
0
0
0
0
)
;

boundaryField
{
    inandouthalf11
    {
        type            cyclic;
    }
    inandouthalf12
    {
        type            cyclic;
    }
    inandouthalf21
    {
        type            cyclic;
    }
    inandouthalf22
    {
        type            cyclic;
    }
    inandouthalf31
    {
        type            cyclic;
    }
    inandouthalf32
    {
        type            cyclic;
    }
    inandouthalf41
    {
        type            cyclic;
    }
    inandouthalf42
    {
        type            cyclic;
    }
    top
    {
        type            symmetryPlane;
    }
    walls
    {
        type            calculated;
        value           uniform 0.000152961;
    }
    frontAndBackPlanes
    {
        type            empty;
    }
}


// ************************************************************************* //
