/*--------------------------------*- C++ -*----------------------------------*\
| =========                 |                                                 |
| \\      /  F ield         | OpenFOAM: The Open Source CFD Toolbox           |
|  \\    /   O peration     | Version:  2.4.x                                 |
|   \\  /    A nd           | Web:      www.OpenFOAM.org                      |
|    \\/     M anipulation  |                                                 |
\*---------------------------------------------------------------------------*/
FoamFile
{
    version     2.0;
    format      ascii;
    class       surfaceScalarField;
    location    "5.1";
    object      ddt0(phia);
}
// * * * * * * * * * * * * * * * * * * * * * * * * * * * * * * * * * * * * * //

dimensions      [0 3 -2 0 0 0 0];

internalField   nonuniform List<scalar> 
359
(
7.4865e-14
2.66295e-13
4.57321e-13
6.24662e-13
7.83408e-13
9.49121e-13
1.12647e-12
1.31286e-12
1.50441e-12
1.69989e-12
1.90014e-12
2.10624e-12
2.31883e-12
2.53771e-12
2.76259e-12
2.99368e-12
3.23191e-12
3.47893e-12
3.73705e-12
4.00949e-12
4.29939e-12
4.61034e-12
4.9448e-12
5.30319e-12
5.68246e-12
6.07472e-12
6.46631e-12
6.83834e-12
7.16796e-12
7.43336e-12
7.62082e-12
7.73345e-12
7.79745e-12
7.86718e-12
8.02328e-12
8.37229e-12
9.04633e-12
1.02096e-11
1.20637e-11
1.48178e-11
1.85683e-11
2.29222e-11
2.64292e-11
2.65823e-11
2.16899e-11
1.35068e-11
6.18499e-12
2.07291e-12
5.24212e-13
1.0488e-13
1.41781e-14
-3.95365e-15
-7.78063e-15
-8.68972e-15
-8.90944e-15
-8.92158e-15
-8.84051e-15
-8.69184e-15
-8.47871e-15
-8.20304e-15
-7.87336e-15
-7.5075e-15
-7.1277e-15
-6.75553e-15
-6.40589e-15
-6.08541e-15
-5.79313e-15
-5.52348e-15
-5.26881e-15
-5.02129e-15
-4.7736e-15
-4.51983e-15
-4.2557e-15
-3.97781e-15
-3.68434e-15
-3.37441e-15
-3.04845e-15
-2.70731e-15
-2.35213e-15
-1.98398e-15
-1.60383e-15
-1.21215e-15
-8.09185e-16
-3.95073e-16
3.00271e-17
4.65716e-16
9.11355e-16
1.36596e-15
1.82839e-15
2.2975e-15
2.77222e-15
3.25168e-15
3.73529e-15
4.22265e-15
4.71354e-15
5.20776e-15
5.70517e-15
6.20555e-15
6.70864e-15
7.21414e-15
7.7217e-15
8.23096e-15
8.74153e-15
9.253e-15
9.76496e-15
1.0277e-14
1.07885e-14
1.12993e-14
1.18087e-14
1.23164e-14
1.28219e-14
1.3325e-14
1.38253e-14
1.43228e-14
1.48173e-14
1.53089e-14
1.57977e-14
1.62842e-14
1.67687e-14
1.72517e-14
1.77337e-14
1.8215e-14
1.86957e-14
1.91754e-14
1.96531e-14
2.01272e-14
2.05951e-14
2.10534e-14
2.14981e-14
2.19242e-14
2.23265e-14
2.27004e-14
2.30427e-14
2.3353e-14
2.36327e-14
2.38836e-14
2.41078e-14
2.43078e-14
2.44856e-14
2.46395e-14
2.47594e-14
2.48309e-14
2.48642e-14
2.48753e-14
2.48754e-14
2.48586e-14
9.20865e-11
-2.09604e-10
1.94523e-10
-5.76482e-10
-6.53968e-10
-8.62015e-10
-1.04492e-09
-1.25942e-09
-1.50611e-09
-1.78818e-09
-2.10701e-09
-2.46367e-09
-2.85885e-09
-3.29128e-09
-3.76027e-09
-4.26481e-09
-4.80045e-09
-5.36255e-09
-5.9483e-09
-6.55401e-09
-7.17657e-09
-7.81333e-09
-8.46235e-09
-9.12168e-09
-9.78911e-09
-1.04615e-08
-1.11343e-08
-1.1801e-08
-1.24528e-08
-1.30782e-08
-1.36623e-08
-1.41824e-08
-1.45992e-08
-1.48421e-08
-1.47999e-08
-1.43299e-08
-1.32993e-08
-1.16498e-08
-9.45116e-09
-6.90335e-09
-4.27642e-09
-1.823e-09
2.88006e-10
1.98571e-09
3.27232e-09
4.20332e-09
4.88386e-09
5.43607e-09
5.93181e-09
6.36923e-09
6.71836e-09
6.96735e-09
7.13061e-09
7.2299e-09
7.27328e-09
7.27036e-09
7.25238e-09
7.23121e-09
7.17854e-09
7.11257e-09
7.07579e-09
7.03688e-09
6.97878e-09
6.94559e-09
6.92841e-09
6.90575e-09
6.90665e-09
6.91806e-09
6.92488e-09
6.97043e-09
7.02489e-09
7.05644e-09
7.13153e-09
7.22552e-09
7.30616e-09
7.41402e-09
7.52874e-09
7.67236e-09
7.84152e-09
7.99456e-09
8.20322e-09
8.43166e-09
8.65328e-09
8.92357e-09
9.22373e-09
9.59109e-09
1.00102e-08
1.02007e-08
1.01693e-08
9.98001e-09
-1.10254e-07
-7.50424e-09
1.65295e-07
1.13621e-08
-3.05464e-09
5.40547e-10
1.69384e-10
1.55661e-10
8.4554e-11
-4.9614e-11
-1.81688e-10
-9.16977e-10
-4.41043e-10
2.22446e-12
1.91869e-12
4.72278e-13
3.23536e-14
1.79585e-14
5.07195e-14
1.62836e-14
5.12517e-14
1.58107e-14
5.17061e-14
1.52913e-14
5.21901e-14
1.47152e-14
5.27052e-14
1.40862e-14
5.32246e-14
1.34102e-14
5.37382e-14
1.27082e-14
5.40609e-14
1.2443e-14
5.42816e-14
1.22132e-14
5.40666e-14
1.19038e-14
5.44294e-14
1.14404e-14
5.48432e-14
1.09701e-14
5.52462e-14
1.05626e-14
5.55973e-14
1.01682e-14
5.59181e-14
9.86045e-15
5.62344e-14
9.65141e-15
5.65497e-14
9.57156e-15
5.68121e-14
9.57961e-15
5.70139e-14
9.73938e-15
5.71815e-14
1.00354e-14
5.72999e-14
1.04303e-14
5.71725e-14
1.07978e-14
5.67613e-14
1.12362e-14
5.62331e-14
1.18022e-14
5.55932e-14
1.25069e-14
5.48384e-14
1.33066e-14
5.39799e-14
1.42025e-14
5.31027e-14
1.52693e-14
5.21127e-14
1.61189e-14
5.1268e-14
1.69615e-14
5.04395e-14
1.77704e-14
4.96431e-14
1.85649e-14
4.88703e-14
1.93536e-14
4.80919e-14
2.0117e-14
4.73172e-14
2.08883e-14
4.65462e-14
2.16352e-14
4.57729e-14
2.23456e-14
4.47703e-14
2.26377e-14
4.35976e-14
2.2995e-14
4.24988e-14
2.33958e-14
4.15613e-14
2.40129e-14
4.06629e-14
2.45257e-14
3.98453e-14
2.52991e-14
3.9251e-14
2.61593e-14
3.86595e-14
2.69592e-14
3.8247e-14
2.79984e-14
3.7361e-14
2.77636e-14
3.55415e-14
2.66581e-14
3.1293e-14
2.1589e-14
2.49806e-14
1.55957e-14
1.35472e-14
-1.03292e-14
-1.7164e-12
-1.58627e-10
4.16284e-09
)
;

boundaryField
{
    inandouthalf11
    {
        type            cyclic;
        value           nonuniform List<scalar> 
100
(
2.11378e-41
-8.88365e-15
-2.24939e-14
-3.48126e-14
-4.61184e-14
-5.76026e-14
-6.98184e-14
-8.27576e-14
-9.62104e-14
-1.10031e-13
-1.24219e-13
-1.38847e-13
-1.53976e-13
-1.69624e-13
-1.85781e-13
-2.02449e-13
-2.19668e-13
-2.37522e-13
-2.56144e-13
-2.75713e-13
-2.96442e-13
-3.18563e-13
-3.42293e-13
-3.67759e-13
-3.94915e-13
-4.23447e-13
-4.52689e-13
-4.81589e-13
-5.08746e-13
-5.32608e-13
-5.5187e-13
-5.66028e-13
-5.75946e-13
-5.84293e-13
-5.95697e-13
-6.16688e-13
-6.55669e-13
-7.2318e-13
-8.32436e-13
-9.99082e-13
-1.23699e-12
-1.54213e-12
-1.8548e-12
-2.01957e-12
-1.83908e-12
-1.29472e-12
-6.65368e-13
-2.44984e-13
-6.6724e-14
-1.45982e-14
-2.80248e-15
-3.99882e-16
1.08496e-16
2.29634e-16
2.611e-16
2.67114e-16
2.6314e-16
2.52901e-16
2.36888e-16
2.14905e-16
1.87136e-16
1.54613e-16
1.19142e-16
8.28246e-17
4.74705e-17
1.41966e-17
-1.66524e-17
-4.53311e-17
-7.24348e-17
-9.86907e-17
-1.24832e-16
-1.51515e-16
-1.79272e-16
-2.08515e-16
-2.39546e-16
-2.72542e-16
-3.07561e-16
-3.44572e-16
-3.83499e-16
-4.24254e-16
-4.66756e-16
-5.10957e-16
-5.56849e-16
-6.04445e-16
-6.5376e-16
-7.04795e-16
-7.57523e-16
-8.11876e-16
-8.67756e-16
-9.25047e-16
-9.83636e-16
-1.04342e-15
-1.10434e-15
-1.16633e-15
-1.22939e-15
-1.29349e-15
-1.35865e-15
-1.42485e-15
-1.49209e-15
-1.56035e-15
)
;
    }
    inandouthalf12
    {
        type            cyclic;
        value           nonuniform List<scalar> 
100
(
-2.11378e-41
8.88365e-15
2.24939e-14
3.48126e-14
4.61184e-14
5.76026e-14
6.98184e-14
8.27576e-14
9.62104e-14
1.10031e-13
1.24219e-13
1.38847e-13
1.53976e-13
1.69624e-13
1.85781e-13
2.02449e-13
2.19668e-13
2.37522e-13
2.56144e-13
2.75713e-13
2.96442e-13
3.18563e-13
3.42293e-13
3.67759e-13
3.94915e-13
4.23447e-13
4.52689e-13
4.81589e-13
5.08746e-13
5.32608e-13
5.5187e-13
5.66028e-13
5.75946e-13
5.84293e-13
5.95697e-13
6.16688e-13
6.55669e-13
7.2318e-13
8.32436e-13
9.99082e-13
1.23699e-12
1.54213e-12
1.8548e-12
2.01957e-12
1.83908e-12
1.29472e-12
6.65368e-13
2.44984e-13
6.6724e-14
1.45982e-14
2.80248e-15
3.99882e-16
-1.08496e-16
-2.29634e-16
-2.611e-16
-2.67114e-16
-2.6314e-16
-2.52901e-16
-2.36888e-16
-2.14905e-16
-1.87136e-16
-1.54613e-16
-1.19142e-16
-8.28246e-17
-4.74705e-17
-1.41966e-17
1.66524e-17
4.53311e-17
7.24348e-17
9.86907e-17
1.24832e-16
1.51515e-16
1.79272e-16
2.08515e-16
2.39546e-16
2.72542e-16
3.07561e-16
3.44572e-16
3.83499e-16
4.24254e-16
4.66756e-16
5.10957e-16
5.56849e-16
6.04445e-16
6.5376e-16
7.04795e-16
7.57523e-16
8.11876e-16
8.67756e-16
9.25047e-16
9.83636e-16
1.04342e-15
1.10434e-15
1.16633e-15
1.22939e-15
1.29349e-15
1.35865e-15
1.42485e-15
1.49209e-15
1.56035e-15
)
;
    }
    inandouthalf21
    {
        type            cyclic;
        value           nonuniform List<scalar> 
100
(
-1.62961e-15
-1.69984e-15
-1.77103e-15
-1.84313e-15
-1.91611e-15
-1.98995e-15
-2.06461e-15
-2.14005e-15
-2.21623e-15
-2.29313e-15
-2.37071e-15
-2.44895e-15
-2.52786e-15
-2.60743e-15
-2.68769e-15
-2.7687e-15
-2.85054e-15
-2.93332e-15
-3.01718e-15
-3.10231e-15
-3.18891e-15
-3.27718e-15
-3.36734e-15
-3.45952e-15
-3.55382e-15
-3.65019e-15
-3.74844e-15
-3.8482e-15
-3.94888e-15
-4.04965e-15
-4.14942e-15
-4.24703e-15
-4.34142e-15
-4.43197e-15
-4.51858e-15
-4.6015e-15
-4.68121e-15
-4.75844e-15
-4.8341e-15
-4.90798e-15
-4.97597e-15
-5.02993e-15
-5.06473e-15
-5.08273e-15
-5.09076e-15
-5.09533e-15
-5.10157e-15
-2.60468e-08
-5.87568e-08
-5.92508e-08
-6.25444e-08
-6.80969e-08
-7.45706e-08
-8.13011e-08
-8.79322e-08
-9.42669e-08
-1.00204e-07
-1.05703e-07
-1.10761e-07
-1.15394e-07
-1.19627e-07
-1.23484e-07
-1.2699e-07
-1.30163e-07
-1.33019e-07
-1.35572e-07
-1.37828e-07
-1.39795e-07
-1.41472e-07
-1.4286e-07
-1.43955e-07
-1.44751e-07
-1.45243e-07
-1.45427e-07
-1.45298e-07
-1.44857e-07
-1.44105e-07
-1.43049e-07
-1.41699e-07
-1.40072e-07
-1.3819e-07
-1.36086e-07
-1.33804e-07
-1.31401e-07
-1.2894e-07
-1.26489e-07
-1.24105e-07
-1.2183e-07
-1.19685e-07
-1.17676e-07
-1.15797e-07
-1.14035e-07
-1.12381e-07
-1.10835e-07
-1.09403e-07
-1.08094e-07
-1.06906e-07
-1.05829e-07
-1.0485e-07
-1.03958e-07
)
;
    }
    inandouthalf22
    {
        type            cyclic;
        value           nonuniform List<scalar> 
100
(
1.62961e-15
1.69984e-15
1.77103e-15
1.84313e-15
1.91611e-15
1.98995e-15
2.06461e-15
2.14005e-15
2.21623e-15
2.29313e-15
2.37071e-15
2.44895e-15
2.52786e-15
2.60743e-15
2.68769e-15
2.7687e-15
2.85054e-15
2.93332e-15
3.01718e-15
3.10231e-15
3.18891e-15
3.27718e-15
3.36734e-15
3.45952e-15
3.55382e-15
3.65019e-15
3.74844e-15
3.8482e-15
3.94888e-15
4.04965e-15
4.14942e-15
4.24703e-15
4.34142e-15
4.43197e-15
4.51858e-15
4.6015e-15
4.68121e-15
4.75844e-15
4.8341e-15
4.90798e-15
4.97597e-15
5.02993e-15
5.06473e-15
5.08273e-15
5.09076e-15
5.09533e-15
5.10157e-15
2.60468e-08
5.87568e-08
5.92508e-08
6.25444e-08
6.80969e-08
7.45706e-08
8.13011e-08
8.79322e-08
9.42669e-08
1.00204e-07
1.05703e-07
1.10761e-07
1.15394e-07
1.19627e-07
1.23484e-07
1.2699e-07
1.30163e-07
1.33019e-07
1.35572e-07
1.37828e-07
1.39795e-07
1.41472e-07
1.4286e-07
1.43955e-07
1.44751e-07
1.45243e-07
1.45427e-07
1.45298e-07
1.44857e-07
1.44105e-07
1.43049e-07
1.41699e-07
1.40072e-07
1.3819e-07
1.36086e-07
1.33804e-07
1.31401e-07
1.2894e-07
1.26489e-07
1.24105e-07
1.2183e-07
1.19685e-07
1.17676e-07
1.15797e-07
1.14035e-07
1.12381e-07
1.10835e-07
1.09403e-07
1.08094e-07
1.06906e-07
1.05829e-07
1.0485e-07
1.03958e-07
)
;
    }
    inandouthalf31
    {
        type            cyclic;
        value           nonuniform List<scalar> 
110
(
-1.0314e-07
-1.04456e-07
-1.05829e-07
-1.07263e-07
-1.08751e-07
-1.10286e-07
-1.11875e-07
-1.13517e-07
-1.15198e-07
-1.16921e-07
-1.1869e-07
-1.20497e-07
-1.22339e-07
-1.24218e-07
-1.26125e-07
-1.28066e-07
-1.3004e-07
-1.32027e-07
-1.34037e-07
-1.36078e-07
-1.38133e-07
-1.40199e-07
-1.42282e-07
-1.44384e-07
-1.46503e-07
-1.48626e-07
-1.50762e-07
-1.52918e-07
-1.55077e-07
-1.57249e-07
-1.5945e-07
-1.61691e-07
-1.63979e-07
-1.66265e-07
-1.68567e-07
-1.70991e-07
-1.73201e-07
2.89134e-08
2.07494e-08
2.17096e-08
2.46296e-08
2.63924e-08
2.79691e-08
2.89921e-08
2.92717e-08
2.84945e-08
2.68626e-08
1.63277e-08
-8.08727e-10
-9.04573e-09
-9.74075e-09
-9.94765e-09
-1.01491e-08
-1.03552e-08
-1.05654e-08
-1.07799e-08
-1.09987e-08
-1.12219e-08
-1.14497e-08
-1.16821e-08
-1.19193e-08
-1.21612e-08
-1.24081e-08
-1.26599e-08
-1.29169e-08
-1.31791e-08
-1.34466e-08
-1.37195e-08
-1.3998e-08
-1.42821e-08
-1.4572e-08
-1.48677e-08
-1.51695e-08
-1.54774e-08
-1.57916e-08
-1.61121e-08
-1.64391e-08
-1.67728e-08
-1.71132e-08
-1.74606e-08
-1.7815e-08
-1.81766e-08
-1.85455e-08
-1.8922e-08
-1.9306e-08
-1.96979e-08
-2.00977e-08
-2.05056e-08
-2.09218e-08
-2.13465e-08
-2.17798e-08
-2.22218e-08
-2.26729e-08
-2.31331e-08
-2.36026e-08
-2.40817e-08
-2.45705e-08
-2.50692e-08
-2.5578e-08
-2.60972e-08
-2.66269e-08
-2.71674e-08
-2.77188e-08
-2.82814e-08
-2.88555e-08
-2.94411e-08
-3.00387e-08
-3.06484e-08
-3.12705e-08
-3.19052e-08
)
;
    }
    inandouthalf32
    {
        type            cyclic;
        value           nonuniform List<scalar> 
110
(
1.0314e-07
1.04456e-07
1.05829e-07
1.07263e-07
1.08751e-07
1.10286e-07
1.11875e-07
1.13517e-07
1.15198e-07
1.16921e-07
1.1869e-07
1.20497e-07
1.22339e-07
1.24218e-07
1.26125e-07
1.28066e-07
1.3004e-07
1.32027e-07
1.34037e-07
1.36078e-07
1.38133e-07
1.40199e-07
1.42282e-07
1.44384e-07
1.46503e-07
1.48626e-07
1.50762e-07
1.52918e-07
1.55077e-07
1.57249e-07
1.5945e-07
1.61691e-07
1.63979e-07
1.66265e-07
1.68567e-07
1.70991e-07
1.73201e-07
-2.89134e-08
-2.07494e-08
-2.17096e-08
-2.46296e-08
-2.63924e-08
-2.79691e-08
-2.89921e-08
-2.92717e-08
-2.84945e-08
-2.68626e-08
-1.63277e-08
8.08727e-10
9.04573e-09
9.74075e-09
9.94765e-09
1.01491e-08
1.03552e-08
1.05654e-08
1.07799e-08
1.09987e-08
1.12219e-08
1.14497e-08
1.16821e-08
1.19193e-08
1.21612e-08
1.24081e-08
1.26599e-08
1.29169e-08
1.31791e-08
1.34466e-08
1.37195e-08
1.3998e-08
1.42821e-08
1.4572e-08
1.48677e-08
1.51695e-08
1.54774e-08
1.57916e-08
1.61121e-08
1.64391e-08
1.67728e-08
1.71132e-08
1.74606e-08
1.7815e-08
1.81766e-08
1.85455e-08
1.8922e-08
1.9306e-08
1.96979e-08
2.00977e-08
2.05056e-08
2.09218e-08
2.13465e-08
2.17798e-08
2.22218e-08
2.26729e-08
2.31331e-08
2.36026e-08
2.40817e-08
2.45705e-08
2.50692e-08
2.5578e-08
2.60972e-08
2.66269e-08
2.71674e-08
2.77188e-08
2.82814e-08
2.88555e-08
2.94411e-08
3.00387e-08
3.06484e-08
3.12705e-08
3.19052e-08
)
;
    }
    inandouthalf41
    {
        type            cyclic;
        value           nonuniform List<scalar> 
50
(
-2.85584e-08
-2.85584e-08
-2.85584e-08
-2.85584e-08
-2.85584e-08
-2.85584e-08
-2.85584e-08
-2.85584e-08
-2.85584e-08
-2.85584e-08
-2.85584e-08
-2.85584e-08
-2.85584e-08
-2.85584e-08
-2.85584e-08
-2.85584e-08
-2.85584e-08
-2.85584e-08
-2.85584e-08
-2.85584e-08
-2.85584e-08
-2.85584e-08
-2.85584e-08
-2.85584e-08
-2.85584e-08
-2.85584e-08
-2.85584e-08
-2.85584e-08
-2.85584e-08
-2.85584e-08
-2.85584e-08
-2.85584e-08
-2.85584e-08
-2.85584e-08
-2.85584e-08
-2.85584e-08
-2.85584e-08
-2.85584e-08
-2.85584e-08
-2.85584e-08
-2.85584e-08
-2.85584e-08
-2.85584e-08
-2.85584e-08
-2.85584e-08
-2.85584e-08
-2.85584e-08
-2.85581e-08
-2.85516e-08
-2.8406e-08
)
;
    }
    inandouthalf42
    {
        type            cyclic;
        value           nonuniform List<scalar> 
50
(
2.85584e-08
2.85584e-08
2.85584e-08
2.85584e-08
2.85584e-08
2.85584e-08
2.85584e-08
2.85584e-08
2.85584e-08
2.85584e-08
2.85584e-08
2.85584e-08
2.85584e-08
2.85584e-08
2.85584e-08
2.85584e-08
2.85584e-08
2.85584e-08
2.85584e-08
2.85584e-08
2.85584e-08
2.85584e-08
2.85584e-08
2.85584e-08
2.85584e-08
2.85584e-08
2.85584e-08
2.85584e-08
2.85584e-08
2.85584e-08
2.85584e-08
2.85584e-08
2.85584e-08
2.85584e-08
2.85584e-08
2.85584e-08
2.85584e-08
2.85584e-08
2.85584e-08
2.85584e-08
2.85584e-08
2.85584e-08
2.85584e-08
2.85584e-08
2.85584e-08
2.85584e-08
2.85584e-08
2.85581e-08
2.85516e-08
2.8406e-08
)
;
    }
    top
    {
        type            symmetryPlane;
        value           uniform 0;
    }
    walls
    {
        type            calculated;
        value           uniform 0;
    }
    frontAndBackPlanes
    {
        type            empty;
        value           nonuniform 0();
    }
}


// ************************************************************************* //
