/*--------------------------------*- C++ -*----------------------------------*\
| =========                 |                                                 |
| \\      /  F ield         | OpenFOAM: The Open Source CFD Toolbox           |
|  \\    /   O peration     | Version:  2.4.x                                 |
|   \\  /    A nd           | Web:      www.OpenFOAM.org                      |
|    \\/     M anipulation  |                                                 |
\*---------------------------------------------------------------------------*/
FoamFile
{
    version     2.0;
    format      ascii;
    class       volScalarField;
    location    "5.1";
    object      epsilon_0;
}
// * * * * * * * * * * * * * * * * * * * * * * * * * * * * * * * * * * * * * //

dimensions      [0 2 -3 0 0 0 0];

internalField   nonuniform List<scalar> 
360
(
1.60309e-27
1e-20
1e-20
1e-20
1e-20
1e-20
1e-20
1e-20
1e-20
1e-20
1e-20
1e-20
1e-20
1e-20
1e-20
1e-20
1e-20
1e-20
1e-20
1e-20
1e-20
1e-20
1e-20
1e-20
1e-20
1e-20
1e-20
1e-20
1e-20
1e-20
1e-20
1e-20
1e-20
1e-20
1e-20
1e-20
1e-20
1e-20
1e-20
1e-20
1e-20
1e-20
1e-20
1e-20
1e-20
1e-20
1e-20
1e-20
1e-20
1e-20
1e-20
1e-20
1e-20
1e-20
1e-20
1e-20
1e-20
1e-20
1e-20
1e-20
1e-20
1e-20
1e-20
1e-20
1e-20
1e-20
1e-20
1e-20
1e-20
1e-20
1e-20
1e-20
1e-20
1e-20
1e-20
1e-20
1e-20
1e-20
1e-20
1e-20
1e-20
1e-20
1e-20
1e-20
1e-20
1e-20
1e-20
1e-20
1e-20
1e-20
1e-20
1e-20
1e-20
1e-20
1e-20
1e-20
1e-20
1e-20
1e-20
1e-20
1e-20
1e-20
1e-20
1e-20
1e-20
1e-20
1e-20
1e-20
1e-20
1e-20
1e-20
1e-20
1e-20
1e-20
1e-20
1e-20
1e-20
1e-20
1e-20
1e-20
1e-20
1e-20
1e-20
1e-20
1e-20
1e-20
1e-20
1e-20
1e-20
1e-20
1e-20
1e-20
3.2763e-20
1.84995e-19
1.15638e-18
7.84261e-18
5.87e-17
4.93956e-16
4.75613e-15
5.32426e-14
7.02898e-13
1.10913e-11
2.11948e-10
4.95835e-09
1.43196e-07
5.13865e-06
0.000226407
0.00891153
0.10042
0.175852
0.184948
0.177861
0.16596
0.152983
0.140364
0.128653
0.118012
0.108439
0.0998576
0.0921648
0.085255
0.0790289
0.0733972
0.068282
0.0636161
0.059342
0.0554109
0.051781
0.0484169
0.0452884
0.0423695
0.0396383
0.0370759
0.0346658
0.0323943
0.0302493
0.0282205
0.0262991
0.0244775
0.0227492
0.0211088
0.0195515
0.0180736
0.0166718
0.0153435
0.0140864
0.012899
0.0117798
0.0107277
0.00974181
0.00882133
0.00796542
0.0071732
0.00644365
0.00577549
0.00516718
0.00461679
0.00412205
0.00368024
0.0032883
0.00294283
0.00263708
0.00236607
0.00212782
0.00191997
0.00173993
0.00158498
0.00145238
0.00133947
0.00124371
0.00116278
0.00109456
0.00103718
0.000988979
0.000948485
0.000914426
0.000885682
0.000861274
0.000840336
0.000822103
0.000805892
0.000791091
0.000777149
0.000763565
0.000749887
0.000735702
0.000720638
0.000704356
0.000686554
0.000666964
0.000645354
0.000621528
0.000595328
0.00056664
0.000535393
0.000501569
0.000465209
0.000426421
0.000385392
0.000342401
0.000297842
0.000252244
0.000206308
0.000160947
0.000117355
7.70951e-05
4.22462e-05
1.5495e-05
2.1657e-06
7.25584e-08
1.16582e-09
1.69671e-11
2.33162e-13
3.02832e-15
3.71941e-17
4.39757e-19
1.34471e-20
1e-20
1e-20
1e-20
1e-20
1e-20
1e-20
1e-20
1e-20
1e-20
1e-20
1e-20
1e-20
1e-20
1e-20
1e-20
1e-20
1e-20
1e-20
1e-20
1e-20
1e-20
1e-20
1e-20
1e-20
1e-20
1e-20
1e-20
1e-20
1e-20
1e-20
1e-20
1e-20
1e-20
1e-20
1e-20
1e-20
1e-20
1e-20
1e-20
1e-20
1e-20
1e-20
1e-20
1e-20
1e-20
1e-20
1e-20
1e-20
1e-20
1e-20
1e-20
1e-20
1e-20
1e-20
1e-20
1e-20
1e-20
1e-20
1e-20
1e-20
1e-20
1e-20
1e-20
1e-20
1e-20
1e-20
1e-20
1e-20
1e-20
1e-20
1e-20
1e-20
1e-20
1e-20
1e-20
1e-20
1e-20
1e-20
1e-20
1e-20
1e-20
1e-20
1e-20
1e-20
1e-20
1e-20
1e-20
1e-20
1e-20
1e-20
1e-20
1e-20
1e-20
1e-20
1e-20
1e-20
1e-20
1e-20
1e-20
1e-20
1e-20
1e-20
1e-20
)
;

boundaryField
{
    inandouthalf11
    {
        type            cyclic;
    }
    inandouthalf12
    {
        type            cyclic;
    }
    inandouthalf21
    {
        type            cyclic;
    }
    inandouthalf22
    {
        type            cyclic;
    }
    inandouthalf31
    {
        type            cyclic;
    }
    inandouthalf32
    {
        type            cyclic;
    }
    inandouthalf41
    {
        type            cyclic;
    }
    inandouthalf42
    {
        type            cyclic;
    }
    top
    {
        type            symmetryPlane;
    }
    walls
    {
        type            zeroGradient;
    }
    frontAndBackPlanes
    {
        type            empty;
    }
}


// ************************************************************************* //
