/*--------------------------------*- C++ -*----------------------------------*\
| =========                 |                                                 |
| \\      /  F ield         | OpenFOAM: The Open Source CFD Toolbox           |
|  \\    /   O peration     | Version:  2.4.x                                 |
|   \\  /    A nd           | Web:      www.OpenFOAM.org                      |
|    \\/     M anipulation  |                                                 |
\*---------------------------------------------------------------------------*/
FoamFile
{
    version     2.0;
    format      ascii;
    class       volScalarField;
    location    "5.1";
    object      epsilon;
}
// * * * * * * * * * * * * * * * * * * * * * * * * * * * * * * * * * * * * * //

dimensions      [0 2 -3 0 0 0 0];

internalField   nonuniform List<scalar> 
360
(
1e-20
1e-20
1e-20
1e-20
1e-20
1e-20
1e-20
1e-20
1e-20
1e-20
1e-20
1e-20
1e-20
1e-20
1e-20
1e-20
1e-20
1e-20
1e-20
1e-20
1e-20
1e-20
1e-20
1e-20
1e-20
1e-20
1e-20
1e-20
1e-20
1e-20
1e-20
1e-20
1e-20
1e-20
1e-20
1e-20
1e-20
1e-20
1e-20
1e-20
1e-20
1e-20
1e-20
1e-20
1e-20
1e-20
1e-20
1e-20
1e-20
1e-20
1e-20
1e-20
1e-20
1e-20
1e-20
1e-20
1e-20
1e-20
1e-20
1e-20
1e-20
1e-20
1e-20
1e-20
1e-20
1e-20
1e-20
1e-20
1e-20
1e-20
1e-20
1e-20
1e-20
1e-20
1e-20
1e-20
1e-20
1e-20
1e-20
1e-20
1e-20
1e-20
1e-20
1e-20
1e-20
1e-20
1e-20
1e-20
1e-20
1e-20
1e-20
1e-20
1e-20
1e-20
1e-20
1e-20
1e-20
1e-20
1e-20
1e-20
1e-20
1e-20
1e-20
1e-20
1e-20
1e-20
1e-20
1e-20
1e-20
1e-20
1e-20
1e-20
1e-20
1e-20
1e-20
1e-20
1e-20
1e-20
1e-20
1e-20
1e-20
1e-20
1e-20
1e-20
1e-20
1e-20
1e-20
1e-20
1e-20
1e-20
1e-20
1e-20
3.27648e-20
1.84995e-19
1.15631e-18
7.84179e-18
5.86918e-17
4.93873e-16
4.7552e-15
5.32309e-14
7.02729e-13
1.10884e-11
2.11887e-10
4.95681e-09
1.43148e-07
5.1368e-06
0.000226321
0.00890864
0.100405
0.175843
0.184939
0.177853
0.165952
0.152975
0.140357
0.128646
0.118006
0.108434
0.0998529
0.0921606
0.0852514
0.0790258
0.0733945
0.0682797
0.0636142
0.0593405
0.0554098
0.0517802
0.0484165
0.0452882
0.0423697
0.0396388
0.0370765
0.0346667
0.0323955
0.0302507
0.0282221
0.0263008
0.0244794
0.0227513
0.021111
0.0195539
0.0180761
0.0166743
0.015346
0.014089
0.0129016
0.0117824
0.0107303
0.00974443
0.00882389
0.00796791
0.0071756
0.00644594
0.00577766
0.0051692
0.00461867
0.00412377
0.0036818
0.0032897
0.00294407
0.00263817
0.00236702
0.00212862
0.00192064
0.00174049
0.00158543
0.00145274
0.00133974
0.00124391
0.00116292
0.00109466
0.00103723
0.000988991
0.000948467
0.000914382
0.000885618
0.000861192
0.00084024
0.000821996
0.000805777
0.000790971
0.000777025
0.000763439
0.000749761
0.000735578
0.000720517
0.000704239
0.000686443
0.00066686
0.000645258
0.00062144
0.00059525
0.000566572
0.000535335
0.000501523
0.000465175
0.000426399
0.000385381
0.000342402
0.000297854
0.000252266
0.000206339
0.000160986
0.000117398
7.71393e-05
4.22865e-05
1.55249e-05
2.17423e-06
7.29937e-08
1.17326e-09
1.70775e-11
2.34707e-13
3.04874e-15
3.74493e-17
4.42771e-19
1.34789e-20
1e-20
1e-20
1e-20
1e-20
1e-20
1e-20
1e-20
1e-20
1e-20
1e-20
1e-20
1e-20
1e-20
1e-20
1e-20
1e-20
1e-20
1e-20
1e-20
1e-20
1e-20
1e-20
1e-20
1e-20
1e-20
1e-20
1e-20
1e-20
1e-20
1e-20
1e-20
1e-20
1e-20
1e-20
1e-20
1e-20
1e-20
1e-20
1e-20
1e-20
1e-20
1e-20
1e-20
1e-20
1e-20
1e-20
1e-20
1e-20
1e-20
1e-20
1e-20
1e-20
1e-20
1e-20
1e-20
1e-20
1e-20
1e-20
1e-20
1e-20
1e-20
1e-20
1e-20
1e-20
1e-20
1e-20
1e-20
1e-20
1e-20
1e-20
1e-20
1e-20
1e-20
1e-20
1e-20
1e-20
1e-20
1e-20
1e-20
1e-20
1e-20
1e-20
1e-20
1e-20
1e-20
1e-20
1e-20
1e-20
1e-20
1e-20
1e-20
1e-20
1e-20
1e-20
1e-20
1e-20
1e-20
1e-20
1e-20
1e-20
1e-20
1e-20
1e-20
)
;

boundaryField
{
    inandouthalf11
    {
        type            cyclic;
    }
    inandouthalf12
    {
        type            cyclic;
    }
    inandouthalf21
    {
        type            cyclic;
    }
    inandouthalf22
    {
        type            cyclic;
    }
    inandouthalf31
    {
        type            cyclic;
    }
    inandouthalf32
    {
        type            cyclic;
    }
    inandouthalf41
    {
        type            cyclic;
    }
    inandouthalf42
    {
        type            cyclic;
    }
    top
    {
        type            symmetryPlane;
    }
    walls
    {
        type            zeroGradient;
    }
    frontAndBackPlanes
    {
        type            empty;
    }
}


// ************************************************************************* //
