/*--------------------------------*- C++ -*----------------------------------*\
| =========                 |                                                 |
| \\      /  F ield         | OpenFOAM: The Open Source CFD Toolbox           |
|  \\    /   O peration     | Version:  2.4.x                                 |
|   \\  /    A nd           | Web:      www.OpenFOAM.org                      |
|    \\/     M anipulation  |                                                 |
\*---------------------------------------------------------------------------*/
FoamFile
{
    version     2.0;
    format      ascii;
    class       volVectorField;
    location    "5.1";
    object      gradPf;
}
// * * * * * * * * * * * * * * * * * * * * * * * * * * * * * * * * * * * * * //

dimensions      [0 1 -2 0 0 0 0];

internalField   nonuniform List<vector> 
360
(
(0 48.0351 0)
(0 59.0877 0)
(0 6.14026 0)
(0 -9.08428 0)
(-1.67338e-14 -6.1601 0)
(-1.67344e-14 -3.81756 0)
(-3.34701e-14 -3.67296 0)
(0 -3.7741 0)
(-3.34727e-14 -3.82992 0)
(0 -3.95944 0)
(-3.34755e-14 -4.01242 0)
(0 -4.00269 0)
(-3.34784e-14 -3.97753 0)
(0 -3.94749 0)
(0 -3.94982 0)
(0 -3.96562 0)
(0 -3.96969 0)
(-3.34857e-14 -3.96215 0)
(0 -3.97603 0)
(0 -3.96451 0)
(0 -3.95743 0)
(-1.67459e-14 -3.98076 0)
(0 -3.98491 0)
(0 -3.99872 0)
(0 -4.0143 0)
(-3.34981e-14 -4.01926 0)
(0 -4.04501 0)
(0 -4.06612 0)
(0 -4.05025 0)
(0 -4.02285 0)
(0 -4.00393 0)
(0 -3.92276 0)
(0 -3.86223 0)
(0 -3.79584 0)
(0 -3.7055 0)
(1.67573e-14 -3.67529 0)
(0 -3.6985 0)
(0 -3.8437 0)
(0 -4.02791 0)
(0 -4.40376 0)
(0 -4.97179 0)
(0 -5.55508 0)
(1.67645e-14 -6.13678 0)
(0 -6.27942 0)
(0 -5.64081 0)
(0 -4.39755 0)
(0 -2.97714 0)
(0 -2.0045 0)
(0 -1.64522 0)
(0 -1.51926 0)
(1.67715e-14 -1.53477 0)
(0 -1.63652 0)
(0 -1.73689 0)
(0 -1.8302 0)
(0 -1.95896 0)
(0 -2.07351 0)
(0 -2.17425 0)
(0 -2.30376 0)
(0 -2.36715 0)
(0 -2.49429 0)
(0 -2.58765 0)
(0 -2.64573 0)
(0 -2.71267 0)
(0 -2.74455 0)
(0 -2.78832 0)
(0 -2.84529 0)
(0 -2.92319 0)
(0 -2.99294 0)
(0 -3.05561 0)
(0 -3.15855 0)
(0 -3.27698 0)
(0 -3.32204 0)
(0 -3.38434 0)
(0 -3.4582 0)
(0 -3.50517 0)
(0 -3.5363 0)
(0 -3.55228 0)
(0 -3.59309 0)
(0 -3.63594 0)
(0 -3.67248 0)
(0 -3.71717 0)
(0 -3.77311 0)
(0 -3.82121 0)
(0 -3.86539 0)
(0 -3.90398 0)
(0 -3.93695 0)
(0 -3.9631 0)
(0 -3.9826 0)
(0 -4.00412 0)
(0 -4.02626 0)
(0 -4.04797 0)
(0 -4.07272 0)
(0 -4.09928 0)
(0 -4.12443 0)
(0 -4.14833 0)
(0 -4.17047 0)
(0 -4.19032 0)
(0 -4.20819 0)
(0 -4.22491 0)
(0 -4.24071 0)
(0 -4.25575 0)
(0 -4.27039 0)
(0 -4.2845 0)
(0 -4.29781 0)
(0 -4.31034 0)
(0 -4.32209 0)
(0 -4.33304 0)
(0 -4.34325 0)
(0 -4.35276 0)
(0 -4.36152 0)
(0 -4.36946 0)
(0 -4.37649 0)
(0 -4.38251 0)
(0 -4.38741 0)
(0 -4.39106 0)
(0 -4.39336 0)
(0 -4.39418 0)
(0 -4.39343 0)
(0 -4.39101 0)
(0 -4.38681 0)
(0 -4.38065 0)
(0 -4.3723 0)
(0 -4.36153 0)
(0 -4.34828 0)
(0 -4.333 0)
(0 -4.31681 0)
(0 -4.30129 0)
(0 -4.28742 0)
(0 -4.27397 0)
(0 -4.25704 0)
(0 -4.23362 0)
(0 -4.21002 0)
(0 -4.20428 0)
(0 -4.22452 0)
(0 -4.24183 0)
(0 -4.22088 0)
(0 -4.19403 0)
(0 -4.266 0)
(0 -4.48291 0)
(0 -4.61749 0)
(0 -4.32393 0)
(0 -4.2184 0)
(0 -4.75785 0)
(0 -5.30337 0)
(0 -6.6597 0)
(0 -11.3921 0)
(0 -13.1235 0)
(0 -6.43573 0)
(0 0 0)
(0 0 0)
(0 0 0)
(0 0 0)
(0 0 0)
(0 0 0)
(0 0 0)
(0 0 0)
(0 0 0)
(0 0 0)
(0 0 0)
(0 0 0)
(0 0 0)
(0 0 0)
(0 0 0)
(0 0 0)
(0 0 0)
(0 0 0)
(0 0 0)
(0 0 0)
(0 0 0)
(0 0 0)
(0 0 0)
(0 0 0)
(0 0 0)
(0 0 0)
(0 0 0)
(0 0 0)
(0 0 0)
(0 0 0)
(0 0 0)
(0 0 0)
(0 0 0)
(0 0 0)
(0 0 0)
(0 0 0)
(0 0 0)
(0 0 0)
(0 0 0)
(0 0 0)
(0 0 0)
(0 0 0)
(0 0 0)
(0 0 0)
(0 0 0)
(0 0 0)
(0 0 0)
(0 0 0)
(0 0 0)
(0 0 0)
(0 0 0)
(0 0 0)
(0 0 0)
(0 0 0)
(0 0 0)
(0 0 0)
(0 0 0)
(0 0 0)
(0 0 0)
(0 0 0)
(0 0 0)
(0 0 0)
(0 0 0)
(0 0 0)
(0 0 0)
(0 0 0)
(0 0 0)
(0 0 0)
(0 0 0)
(0 0 0)
(0 0 0)
(0 0 0)
(0 0 0)
(0 0 0)
(0 0 0)
(0 0 0)
(0 0 0)
(0 0 0)
(0 0 0)
(0 0 0)
(0 0 0)
(0 0 0)
(0 0 0)
(0 0 0)
(0 0 0)
(0 0 0)
(0 0 0)
(0 0 0)
(0 0 0)
(0 0 0)
(0 0 0)
(0 0 0)
(0 0 0)
(0 0 0)
(0 0 0)
(0 0 0)
(0 0 0)
(0 0 0)
(0 0 0)
(0 0 0)
(0 0 0)
(0 0 0)
(0 0 0)
(0 0 0)
(0 0 0)
(0 0 0)
(0 0 0)
(0 0 0)
(0 0 0)
(0 0 0)
(0 0 0)
(0 0 0)
(0 0 0)
(0 0 0)
(0 0 0)
(0 0 0)
(0 0 0)
(0 0 0)
(0 0 0)
(0 0 0)
(0 0 0)
(0 0 0)
(0 0 0)
(0 0 0)
(0 0 0)
(0 0 0)
(0 0 0)
(0 0 0)
(0 0 0)
(0 0 0)
(0 0 0)
(0 0 0)
(0 0 0)
(0 0 0)
(0 0 0)
(0 0 0)
(0 0 0)
(0 0 0)
(0 0 0)
(0 0 0)
(0 0 0)
(0 0 0)
(0 0 0)
(0 0 0)
(0 0 0)
(0 0 0)
(0 0 0)
(0 0 0)
(0 0 0)
(0 0 0)
(0 0 0)
(0 0 0)
(0 0 0)
(0 0 0)
(0 0 0)
(0 0 0)
(0 0 0)
(0 0 0)
(0 0 0)
(0 0 0)
(0 0 0)
(0 0 0)
(0 0 0)
(0 0 0)
(0 0 0)
(0 0 0)
(0 0 0)
(0 0 0)
(0 0 0)
(0 0 0)
(0 0 0)
(0 0 0)
(0 0 0)
(0 0 0)
(0 0 0)
(0 0 0)
(0 0 0)
(0 0 0)
(0 0 0)
(0 0 0)
(0 0 0)
(0 0 0)
(0 0 0)
(0 0 0)
(0 0 0)
(0 0 0)
(0 0 0)
(0 0 0)
(0 0 0)
(0 0 0)
(0 0 0)
(0 0 0)
(0 0 0)
(0 0 0)
(0 0 0)
(0 0 0)
(0 0 0)
(0 0 0)
(0 0 0)
(0 0 0)
(0 0 0)
(0 0 0)
(0 0 0)
(0 0 0)
(0 0 0)
(0 0 0)
(0 0 0)
(0 0 0)
(0 0 0)
(0 0 0)
(0 0 0)
(0 0 0)
)
;

boundaryField
{
    inandouthalf11
    {
        type            cyclic;
    }
    inandouthalf12
    {
        type            cyclic;
    }
    inandouthalf21
    {
        type            cyclic;
    }
    inandouthalf22
    {
        type            cyclic;
    }
    inandouthalf31
    {
        type            cyclic;
    }
    inandouthalf32
    {
        type            cyclic;
    }
    inandouthalf41
    {
        type            cyclic;
    }
    inandouthalf42
    {
        type            cyclic;
    }
    top
    {
        type            symmetryPlane;
    }
    walls
    {
        type            calculated;
        value           uniform (0 0 0);
    }
    frontAndBackPlanes
    {
        type            empty;
    }
}


// ************************************************************************* //
