/*--------------------------------*- C++ -*----------------------------------*\
| =========                 |                                                 |
| \\      /  F ield         | OpenFOAM: The Open Source CFD Toolbox           |
|  \\    /   O peration     | Version:  2.4.x                                 |
|   \\  /    A nd           | Web:      www.OpenFOAM.org                      |
|    \\/     M anipulation  |                                                 |
\*---------------------------------------------------------------------------*/
FoamFile
{
    version     2.0;
    format      ascii;
    class       volScalarField;
    location    "5.1";
    object      k_0;
}
// * * * * * * * * * * * * * * * * * * * * * * * * * * * * * * * * * * * * * //

dimensions      [0 2 -2 0 0 0 0];

internalField   nonuniform List<scalar> 
360
(
1e-20
1e-20
1e-20
1e-20
1e-20
1e-20
1e-20
1e-20
1e-20
1e-20
1e-20
1e-20
1e-20
1e-20
1e-20
1e-20
1e-20
1e-20
1e-20
1e-20
1e-20
1e-20
1e-20
1e-20
1e-20
1e-20
1e-20
1e-20
1e-20
1e-20
1e-20
1e-20
1e-20
1e-20
1e-20
1e-20
1e-20
1e-20
1e-20
1e-20
1e-20
1e-20
1e-20
1e-20
1e-20
1e-20
1e-20
1e-20
1e-20
1e-20
1e-20
1e-20
1e-20
1e-20
1e-20
1e-20
1e-20
1e-20
1e-20
1e-20
1e-20
1e-20
1e-20
1e-20
1e-20
1e-20
1e-20
1e-20
1e-20
1e-20
1e-20
1e-20
1e-20
1e-20
1e-20
1e-20
1e-20
1e-20
1e-20
1e-20
1e-20
1e-20
1e-20
1e-20
1e-20
1e-20
1e-20
1e-20
1e-20
1e-20
1e-20
1e-20
1e-20
1e-20
1e-20
1e-20
1e-20
1e-20
1e-20
1e-20
1e-20
1e-20
1e-20
1e-20
1e-20
1e-20
1e-20
1e-20
1e-20
1e-20
1e-20
1e-20
1e-20
1e-20
1e-20
1e-20
1e-20
1e-20
1e-20
1e-20
1e-20
1e-20
1e-20
1e-20
1e-20
1e-20
1e-20
1e-20
1e-20
1e-20
1e-20
1e-20
2.25631e-20
1.11343e-19
6.13688e-19
3.61739e-18
2.3175e-17
1.64531e-16
1.31966e-15
1.21716e-14
1.31053e-13
1.66994e-12
2.55662e-11
4.7636e-10
1.09015e-08
3.08817e-07
1.06875e-05
0.000326437
0.00293478
0.00562097
0.0069022
0.00763566
0.0080904
0.00838205
0.00857047
0.00868865
0.00875556
0.00878264
0.00877728
0.00874459
0.00868841
0.00861177
0.00851718
0.00840674
0.00828227
0.00814534
0.00799734
0.00783947
0.00767281
0.00749831
0.00731685
0.0071292
0.00693609
0.00673819
0.00653613
0.0063305
0.00612187
0.00591081
0.00569787
0.00548359
0.00526854
0.00505327
0.00483837
0.00462445
0.00441211
0.00420201
0.00399481
0.00379117
0.0035918
0.00339741
0.00320872
0.00302645
0.00285131
0.00268396
0.00252506
0.00237514
0.00223469
0.00210405
0.00198342
0.00187287
0.00177232
0.0016806
0.00159687
0.00152112
0.00145321
0.00139283
0.00133957
0.00129292
0.00125231
0.00121714
0.0011868
0.0011607
0.00113826
0.00111893
0.0011022
0.00108759
0.00107466
0.00106299
0.00105219
0.00104189
0.00103175
0.00102143
0.00101063
0.000999033
0.000986364
0.000972347
0.000956723
0.000939244
0.000919678
0.000897805
0.000873422
0.000846341
0.000816396
0.000783439
0.000747348
0.000708028
0.000665419
0.000619501
0.000570306
0.000517928
0.000462541
0.000404426
0.000344005
0.000281897
0.000219009
0.000156695
9.70384e-05
4.33533e-05
7.75055e-06
2.9889e-07
4.83367e-09
6.9958e-11
9.56103e-13
1.23529e-14
1.5093e-16
1.75212e-18
2.77773e-20
1e-20
1e-20
1e-20
1e-20
1e-20
1e-20
1e-20
1e-20
1e-20
1e-20
1e-20
1e-20
1e-20
1e-20
1e-20
1e-20
1e-20
1e-20
1e-20
1e-20
1e-20
1e-20
1e-20
1e-20
1e-20
1e-20
1e-20
1e-20
1e-20
1e-20
1e-20
1e-20
1e-20
1e-20
1e-20
1e-20
1e-20
1e-20
1e-20
1e-20
1e-20
1e-20
1e-20
1e-20
1e-20
1e-20
1e-20
1e-20
1e-20
1e-20
1e-20
1e-20
1e-20
1e-20
1e-20
1e-20
1e-20
1e-20
1e-20
1e-20
1e-20
1e-20
1e-20
1e-20
1e-20
1e-20
1e-20
1e-20
1e-20
1e-20
1e-20
1e-20
1e-20
1e-20
1e-20
1e-20
1e-20
1e-20
1e-20
1e-20
1e-20
1e-20
1e-20
1e-20
1e-20
1e-20
1e-20
1e-20
1e-20
1e-20
1e-20
1e-20
1e-20
1e-20
1e-20
1e-20
1e-20
1e-20
1e-20
1e-20
1e-20
1e-20
1e-20
)
;

boundaryField
{
    inandouthalf11
    {
        type            cyclic;
    }
    inandouthalf12
    {
        type            cyclic;
    }
    inandouthalf21
    {
        type            cyclic;
    }
    inandouthalf22
    {
        type            cyclic;
    }
    inandouthalf31
    {
        type            cyclic;
    }
    inandouthalf32
    {
        type            cyclic;
    }
    inandouthalf41
    {
        type            cyclic;
    }
    inandouthalf42
    {
        type            cyclic;
    }
    top
    {
        type            symmetryPlane;
    }
    walls
    {
        type            zeroGradient;
    }
    frontAndBackPlanes
    {
        type            empty;
    }
}


// ************************************************************************* //
