/*--------------------------------*- C++ -*----------------------------------*\
| =========                 |                                                 |
| \\      /  F ield         | OpenFOAM: The Open Source CFD Toolbox           |
|  \\    /   O peration     | Version:  2.4.x                                 |
|   \\  /    A nd           | Web:      www.OpenFOAM.org                      |
|    \\/     M anipulation  |                                                 |
\*---------------------------------------------------------------------------*/
FoamFile
{
    version     2.0;
    format      ascii;
    class       volScalarField;
    location    "5.1";
    object      nutb;
}
// * * * * * * * * * * * * * * * * * * * * * * * * * * * * * * * * * * * * * //

dimensions      [0 2 -1 0 0 0 0];

internalField   nonuniform List<scalar> 
360
(
9e-22
9e-22
9e-22
9e-22
9e-22
9e-22
9e-22
9e-22
9e-22
9e-22
9e-22
9e-22
9e-22
9e-22
9e-22
9e-22
9e-22
9e-22
9e-22
9e-22
9e-22
9e-22
9e-22
9e-22
9e-22
9e-22
9e-22
9e-22
9e-22
9e-22
9e-22
9e-22
9e-22
9e-22
9e-22
9e-22
9e-22
9e-22
9e-22
9e-22
9e-22
9e-22
9e-22
9e-22
9e-22
9e-22
9e-22
9e-22
9e-22
9e-22
9e-22
9e-22
9e-22
9e-22
9e-22
9e-22
9e-22
9e-22
9e-22
9e-22
9e-22
9e-22
9e-22
9e-22
9e-22
9e-22
9e-22
9e-22
9e-22
9e-22
9e-22
9e-22
9e-22
9e-22
9e-22
9e-22
9e-22
9e-22
9e-22
9e-22
9e-22
9e-22
9e-22
9e-22
9e-22
9e-22
9e-22
9e-22
9e-22
9e-22
9e-22
9e-22
9e-22
9e-22
9e-22
9e-22
9e-22
9e-22
9e-22
9e-22
9e-22
9e-22
9e-22
9e-22
9e-22
9e-22
9e-22
9e-22
9e-22
9e-22
9e-22
9e-22
9e-22
9e-22
9e-22
9e-22
9e-22
9e-22
9e-22
9e-22
9e-22
9e-22
9e-22
9e-22
9e-22
9e-22
9e-22
9e-22
9e-22
9e-22
9e-22
9e-22
1.39866e-21
6.03169e-21
2.93114e-20
1.50159e-19
8.23387e-19
4.93168e-18
3.29495e-17
2.50385e-16
2.19866e-15
2.26239e-14
2.77487e-13
4.11778e-12
7.46726e-11
1.6698e-09
4.53904e-08
1.0759e-06
7.71843e-06
1.61697e-05
2.31824e-05
2.95019e-05
3.54957e-05
4.13334e-05
4.70976e-05
5.28122e-05
5.84643e-05
6.402e-05
6.94373e-05
7.46741e-05
7.96926e-05
8.44614e-05
8.89555e-05
9.31562e-05
9.70502e-05
0.000100629
0.000103888
0.000106825
0.000109442
0.000111741
0.000113728
0.00011541
0.000116793
0.000117887
0.000118701
0.000119246
0.000119534
0.000119576
0.000119385
0.000118976
0.000118362
0.000117561
0.000116588
0.000115462
0.000114202
0.000112829
0.000111364
0.000109829
0.00010825
0.000106651
0.00010506
0.000103506
0.000102019
0.000100629
9.93692e-05
9.827e-05
9.73606e-05
9.66673e-05
9.62116e-05
9.6009e-05
9.6068e-05
9.6395e-05
9.6995e-05
9.78645e-05
9.8989e-05
0.000100342
0.000101887
0.000103578
0.000105365
0.000107193
0.00010901
0.000110766
0.000112417
0.000113926
0.000115265
0.000116411
0.000117348
0.000118068
0.000118564
0.000118834
0.000118876
0.000118691
0.000118278
0.000117636
0.000116764
0.000115657
0.000114311
0.00011272
0.000110875
0.000108768
0.000106388
0.000103723
0.000100761
9.74885e-05
9.38915e-05
8.99553e-05
8.5665e-05
8.10051e-05
7.59604e-05
7.05156e-05
6.46556e-05
5.8366e-05
5.16335e-05
4.44464e-05
3.67956e-05
2.86752e-05
2.00734e-05
1.09314e-05
2.50486e-06
1.11475e-07
1.81549e-09
2.61334e-11
3.55248e-13
4.56629e-15
5.55088e-17
6.32815e-19
5.20224e-21
9e-22
9e-22
9e-22
9e-22
9e-22
9e-22
9e-22
9e-22
9e-22
9e-22
9e-22
9e-22
9e-22
9e-22
9e-22
9e-22
9e-22
9e-22
9e-22
9e-22
9e-22
9e-22
9e-22
9e-22
9e-22
9e-22
9e-22
9e-22
9e-22
9e-22
9e-22
9e-22
9e-22
9e-22
9e-22
9e-22
9e-22
9e-22
9e-22
9e-22
9e-22
9e-22
9e-22
9e-22
9e-22
9e-22
9e-22
9e-22
9e-22
9e-22
9e-22
9e-22
9e-22
9e-22
9e-22
9e-22
9e-22
9e-22
9e-22
9e-22
9e-22
9e-22
9e-22
9e-22
9e-22
9e-22
9e-22
9e-22
9e-22
9e-22
9e-22
9e-22
9e-22
9e-22
9e-22
9e-22
9e-22
9e-22
9e-22
9e-22
9e-22
9e-22
9e-22
9e-22
9e-22
9e-22
9e-22
9e-22
9e-22
9e-22
9e-22
9e-22
9e-22
9e-22
9e-22
9e-22
9e-22
9e-22
9e-22
9e-22
9e-22
9e-22
9e-22
)
;

boundaryField
{
    inandouthalf11
    {
        type            cyclic;
    }
    inandouthalf12
    {
        type            cyclic;
    }
    inandouthalf21
    {
        type            cyclic;
    }
    inandouthalf22
    {
        type            cyclic;
    }
    inandouthalf31
    {
        type            cyclic;
    }
    inandouthalf32
    {
        type            cyclic;
    }
    inandouthalf41
    {
        type            cyclic;
    }
    inandouthalf42
    {
        type            cyclic;
    }
    top
    {
        type            symmetryPlane;
    }
    walls
    {
        type            calculated;
        value           uniform 0;
    }
    frontAndBackPlanes
    {
        type            empty;
    }
}


// ************************************************************************* //
