/*--------------------------------*- C++ -*----------------------------------*\
| =========                 |                                                 |
| \\      /  F ield         | OpenFOAM: The Open Source CFD Toolbox           |
|  \\    /   O peration     | Version:  2.4.x                                 |
|   \\  /    A nd           | Web:      www.OpenFOAM.org                      |
|    \\/     M anipulation  |                                                 |
\*---------------------------------------------------------------------------*/
FoamFile
{
    version     2.0;
    format      ascii;
    class       volScalarField;
    location    "5.1";
    object      p;
}
// * * * * * * * * * * * * * * * * * * * * * * * * * * * * * * * * * * * * * //

dimensions      [1 -1 -2 0 0 0 0];

internalField   nonuniform List<scalar> 
360
(
4900.03
4895.12
4890.22
4885.31
4880.4
4875.49
4870.58
4865.66
4860.75
4855.83
4850.92
4846
4841.08
4836.16
4831.24
4826.32
4821.4
4816.47
4811.54
4806.62
4801.69
4796.76
4791.83
4786.89
4781.96
4777.03
4772.09
4767.15
4762.21
4757.27
4752.33
4747.39
4742.44
4737.5
4732.55
4727.6
4722.65
4717.7
4712.75
4707.79
4702.84
4697.88
4692.92
4687.96
4682.99
4678.02
4673.05
4668.08
4663.11
4658.14
4653.16
4648.19
4643.22
4638.25
4633.27
4628.3
4623.33
4618.36
4613.39
4608.42
4603.44
4598.47
4593.5
4588.53
4583.56
4578.58
4573.61
4568.64
4563.67
4558.7
4553.73
4548.75
4543.78
4538.81
4533.84
4528.87
4523.9
4518.92
4513.95
4508.98
4504.01
4499.04
4494.07
4489.1
4484.12
4479.15
4474.18
4469.21
4464.24
4459.27
4454.3
4449.33
4444.36
4439.39
4434.41
4429.44
4424.47
4419.5
4414.53
4409.56
4404.59
4399.62
4394.65
4389.68
4384.71
4379.74
4374.77
4369.8
4364.83
4359.86
4354.89
4349.92
4344.95
4339.98
4335.01
4330.04
4325.07
4320.1
4315.13
4310.16
4305.19
4300.22
4295.25
4290.28
4285.32
4280.35
4275.38
4270.41
4265.44
4260.47
4255.5
4250.54
4245.57
4240.6
4235.63
4230.66
4225.7
4220.73
4215.76
4210.8
4205.83
4200.86
4195.9
4190.93
4185.97
4181
4176.03
4170.66
4161.83
4153.83
4147.24
4141.15
4135.33
4129.7
4124.2
4118.83
4113.55
4108.35
4103.23
4098.16
4093.14
4088.15
4083.21
4078.29
4073.39
4068.52
4063.66
4058.82
4053.99
4049.17
4044.36
4039.55
4034.76
4029.97
4025.18
4020.4
4015.63
4010.85
4006.08
4001.32
3996.55
3991.78
3987.02
3982.25
3977.48
3972.72
3967.95
3963.17
3958.4
3953.62
3948.84
3944.06
3939.27
3934.48
3929.68
3924.87
3920.06
3915.24
3910.42
3905.58
3900.75
3895.85
3890.85
3885.75
3880.53
3875.2
3869.76
3864.2
3858.52
3852.73
3846.81
3840.77
3834.6
3828.31
3821.89
3815.33
3808.64
3801.82
3794.85
3787.75
3780.49
3773.1
3765.55
3757.85
3749.99
3741.97
3733.79
3725.45
3716.94
3708.26
3699.4
3690.36
3681.15
3671.74
3662.15
3652.37
3642.38
3632.2
3621.81
3611.21
3600.4
3589.37
3578.12
3566.64
3554.92
3542.97
3530.77
3518.32
3505.6
3492.61
3479.35
3465.82
3452.01
3437.92
3423.55
3408.88
3393.92
3378.66
3363.08
3347.19
3330.97
3314.43
3297.55
3280.33
3262.76
3244.83
3226.54
3207.87
3188.83
3169.4
3149.58
3129.35
3108.72
3087.66
3066.18
3044.26
3021.9
2999.08
2975.8
2952.05
2927.81
2903.09
2877.86
2852.12
2825.86
2799.06
2771.72
2743.82
2715.36
2686.32
2656.7
2626.47
2595.62
2564.15
2532.05
2499.29
2465.86
2431.76
2396.96
2361.46
2325.24
2288.28
2250.57
2212.1
2172.85
2132.8
2091.93
2050.24
2007.7
1964.3
1922.76
1883.52
1844.28
1805.04
1765.8
1726.56
1687.32
1648.08
1608.84
1569.6
1530.36
1491.12
1451.88
1412.64
1373.4
1334.16
1294.92
1255.68
1216.44
1177.2
1137.96
1098.72
1059.48
1020.24
981
941.76
902.52
863.28
824.04
784.8
745.56
706.32
667.08
627.84
588.6
549.36
510.12
470.88
431.64
392.4
353.16
313.92
274.68
235.44
196.2
156.96
117.72
78.48
39.24
-2.23371e-07
)
;

boundaryField
{
    inandouthalf11
    {
        type            cyclic;
    }
    inandouthalf12
    {
        type            cyclic;
    }
    inandouthalf21
    {
        type            cyclic;
    }
    inandouthalf22
    {
        type            cyclic;
    }
    inandouthalf31
    {
        type            cyclic;
    }
    inandouthalf32
    {
        type            cyclic;
    }
    inandouthalf41
    {
        type            cyclic;
    }
    inandouthalf42
    {
        type            cyclic;
    }
    top
    {
        type            symmetryPlane;
    }
    walls
    {
        type            slip;
    }
    frontAndBackPlanes
    {
        type            empty;
    }
}


// ************************************************************************* //
