/*--------------------------------*- C++ -*----------------------------------*\
| =========                 |                                                 |
| \\      /  F ield         | OpenFOAM: The Open Source CFD Toolbox           |
|  \\    /   O peration     | Version:  2.4.x                                 |
|   \\  /    A nd           | Web:      www.OpenFOAM.org                      |
|    \\/     M anipulation  |                                                 |
\*---------------------------------------------------------------------------*/
FoamFile
{
    version     2.0;
    format      ascii;
    class       volScalarField;
    location    "5.1";
    object      pa;
}
// * * * * * * * * * * * * * * * * * * * * * * * * * * * * * * * * * * * * * //

dimensions      [1 -1 -2 0 0 0 0];

internalField   nonuniform List<scalar> 
360
(
2.89702e-16
2.92492e-16
2.92609e-16
2.9228e-16
2.92164e-16
2.92143e-16
2.92108e-16
2.92052e-16
2.9199e-16
2.91926e-16
2.91863e-16
2.91803e-16
2.91743e-16
2.91682e-16
2.91619e-16
2.91556e-16
2.91492e-16
2.91428e-16
2.91364e-16
2.913e-16
2.91237e-16
2.91176e-16
2.91118e-16
2.91062e-16
2.91008e-16
2.90955e-16
2.90902e-16
2.90844e-16
2.90777e-16
2.90696e-16
2.90597e-16
2.90479e-16
2.9035e-16
2.90213e-16
2.90088e-16
2.89988e-16
2.89936e-16
2.8996e-16
2.90107e-16
2.90458e-16
2.91125e-16
2.92201e-16
2.93467e-16
2.93992e-16
2.92687e-16
2.90158e-16
2.88305e-16
2.87639e-16
2.87489e-16
2.87437e-16
2.87398e-16
2.87355e-16
2.8731e-16
2.87261e-16
2.87211e-16
2.87154e-16
2.87097e-16
2.87034e-16
2.86969e-16
2.86902e-16
2.86829e-16
2.86756e-16
2.86679e-16
2.866e-16
2.8652e-16
2.86438e-16
2.86352e-16
2.86264e-16
2.86173e-16
2.8608e-16
2.85981e-16
2.85878e-16
2.85774e-16
2.85666e-16
2.85555e-16
2.85441e-16
2.85326e-16
2.85208e-16
2.85087e-16
2.84964e-16
2.84838e-16
2.84708e-16
2.84575e-16
2.84438e-16
2.84298e-16
2.84155e-16
2.84009e-16
2.83859e-16
2.83707e-16
2.83552e-16
2.83393e-16
2.83231e-16
2.83066e-16
2.82896e-16
2.82723e-16
2.82546e-16
2.82364e-16
2.82179e-16
2.8199e-16
2.81796e-16
2.81598e-16
2.81395e-16
2.81188e-16
2.80975e-16
2.80758e-16
2.80536e-16
2.80307e-16
2.80074e-16
2.79834e-16
2.79589e-16
2.79336e-16
2.79078e-16
2.78812e-16
2.78539e-16
2.78259e-16
2.77971e-16
2.77674e-16
2.77369e-16
2.77056e-16
2.76733e-16
2.764e-16
2.76057e-16
2.75703e-16
2.75338e-16
2.74962e-16
2.74573e-16
2.74171e-16
2.73755e-16
2.73324e-16
2.72876e-16
2.72411e-16
2.71929e-16
6.12184e-16
3.01465e-15
1.65788e-14
9.74896e-14
6.22964e-13
4.41034e-12
3.52622e-11
3.24034e-10
3.47464e-09
4.41002e-08
6.72652e-07
1.26362e-05
0.000397662
0.0271694
0.806106
5.48484
5.08136
4.51542
3.67297
2.9175
2.29769
1.80419
1.41741
1.11661
0.883264
0.702041
0.560829
0.450278
0.363264
0.29439
0.239569
0.195698
0.16041
0.131891
0.108742
0.089875
0.0744432
0.0617792
0.0513558
0.0427538
0.0356378
0.0297386
0.0248386
0.0207615
0.0173639
0.0145282
0.0121579
0.0101726
0.00850483
0.00709798
0.00590574
0.0048921
0.004031
0.00330432
0.00269844
0.00220071
0.00179736
0.00147349
0.00121451
0.00100715
0.000839286
0.000700095
0.000581913
0.000481365
0.000397406
0.000328716
0.000272964
0.000227536
0.000190447
0.000159995
0.000134477
0.000112657
9.45055e-05
7.96753e-05
6.68513e-05
5.58539e-05
4.69638e-05
3.94355e-05
3.28961e-05
2.75072e-05
2.29456e-05
1.90306e-05
1.5837e-05
1.30912e-05
1.07134e-05
8.84918e-06
7.2533e-06
5.85942e-06
4.75748e-06
3.83125e-06
3.06284e-06
2.43359e-06
1.89751e-06
1.48649e-06
1.14498e-06
8.62322e-07
6.50214e-07
4.77745e-07
3.43461e-07
2.38295e-07
1.57019e-07
1.00276e-07
6.67237e-08
3.6219e-08
0
0
0
0
0
0
0
0
0
0
0
0
0
0
0
0
0
0
0
0
0
0
0
0
0
0
0
0
0
0
0
0
0
0
0
0
0
0
0
0
0
0
0
0
0
0
0
0
0
0
0
0
0
0
0
0
0
0
0
0
0
0
0
0
0
0
0
0
0
0
0
0
0
0
0
0
0
0
0
0
0
0
0
0
0
0
0
0
0
0
0
0
0
0
0
0
0
0
0
0
0
0
0
0
0
0
0
0
0
0
0
0
0
0
0
0
0
0
0
0
0
0
0
0
)
;

boundaryField
{
    inandouthalf11
    {
        type            cyclic;
    }
    inandouthalf12
    {
        type            cyclic;
    }
    inandouthalf21
    {
        type            cyclic;
    }
    inandouthalf22
    {
        type            cyclic;
    }
    inandouthalf31
    {
        type            cyclic;
    }
    inandouthalf32
    {
        type            cyclic;
    }
    inandouthalf41
    {
        type            cyclic;
    }
    inandouthalf42
    {
        type            cyclic;
    }
    top
    {
        type            symmetryPlane;
    }
    walls
    {
        type            calculated;
        value           uniform 2.89702e-16;
    }
    frontAndBackPlanes
    {
        type            empty;
    }
}


// ************************************************************************* //
