/*--------------------------------*- C++ -*----------------------------------*\
| =========                 |                                                 |
| \\      /  F ield         | OpenFOAM: The Open Source CFD Toolbox           |
|  \\    /   O peration     | Version:  2.4.x                                 |
|   \\  /    A nd           | Web:      www.OpenFOAM.org                      |
|    \\/     M anipulation  |                                                 |
\*---------------------------------------------------------------------------*/
FoamFile
{
    version     2.0;
    format      ascii;
    class       surfaceScalarField;
    location    "5.1";
    object      phia_0;
}
// * * * * * * * * * * * * * * * * * * * * * * * * * * * * * * * * * * * * * //

dimensions      [0 3 -1 0 0 0 0];

internalField   nonuniform List<scalar> 
359
(
-5.00195e-13
-1.35285e-12
-2.14096e-12
-2.87082e-12
-3.60501e-12
-4.35931e-12
-5.12711e-12
-5.90123e-12
-6.6782e-12
-7.45874e-12
-8.24467e-12
-9.03695e-12
-9.83586e-12
-1.06408e-11
-1.14514e-11
-1.22674e-11
-1.30891e-11
-1.39164e-11
-1.47497e-11
-1.55894e-11
-1.64359e-11
-1.72901e-11
-1.81534e-11
-1.90269e-11
-1.99117e-11
-2.08086e-11
-2.17172e-11
-2.26364e-11
-2.35632e-11
-2.44924e-11
-2.54177e-11
-2.63329e-11
-2.72317e-11
-2.81128e-11
-2.8978e-11
-2.98373e-11
-3.07088e-11
-3.16218e-11
-3.26182e-11
-3.37534e-11
-3.50971e-11
-3.67093e-11
-3.8587e-11
-4.05842e-11
-4.23853e-11
-4.36738e-11
-4.43698e-11
-4.46473e-11
-4.47302e-11
-4.47499e-11
-4.4754e-11
-4.47549e-11
-4.47552e-11
-4.47553e-11
-4.47553e-11
-4.47553e-11
-4.47554e-11
-4.47554e-11
-4.47554e-11
-4.47554e-11
-4.47555e-11
-4.47555e-11
-4.47556e-11
-4.47557e-11
-4.47557e-11
-4.47558e-11
-4.47559e-11
-4.4756e-11
-4.4756e-11
-4.47561e-11
-4.47562e-11
-4.47562e-11
-4.47563e-11
-4.47564e-11
-4.47565e-11
-4.47565e-11
-4.47566e-11
-4.47567e-11
-4.47568e-11
-4.47569e-11
-4.47569e-11
-4.4757e-11
-4.47571e-11
-4.47572e-11
-4.47573e-11
-4.47574e-11
-4.47575e-11
-4.47576e-11
-4.47577e-11
-4.47578e-11
-4.47579e-11
-4.4758e-11
-4.47581e-11
-4.47582e-11
-4.47584e-11
-4.47585e-11
-4.47586e-11
-4.47587e-11
-4.47588e-11
-4.47589e-11
-4.47591e-11
-4.47592e-11
-4.47593e-11
-4.47594e-11
-4.47596e-11
-4.47597e-11
-4.47598e-11
-4.47599e-11
-4.476e-11
-4.47602e-11
-4.47603e-11
-4.47604e-11
-4.47605e-11
-4.47606e-11
-4.47608e-11
-4.47609e-11
-4.4761e-11
-4.47611e-11
-4.47612e-11
-4.47613e-11
-4.47615e-11
-4.47616e-11
-4.47617e-11
-4.47618e-11
-4.47619e-11
-4.4762e-11
-4.47621e-11
-4.47623e-11
-4.47624e-11
-4.47625e-11
-4.47626e-11
-4.47627e-11
-4.47627e-11
-4.47628e-11
-4.47629e-11
-4.4763e-11
-4.4763e-11
-4.47631e-11
-4.47631e-11
-4.47631e-11
-4.47632e-11
-4.47632e-11
-4.47632e-11
-4.47632e-11
-4.47632e-11
-4.47632e-11
-5.44256e-11
-7.41969e-10
-1.27891e-09
-1.60719e-09
-1.78573e-09
-1.89399e-09
-1.9431e-09
-1.93388e-09
-1.86439e-09
-1.73298e-09
-1.539e-09
-1.283e-09
-9.66382e-10
-5.91151e-10
-1.59636e-10
3.25712e-10
8.62373e-10
1.4479e-09
2.07995e-09
2.75626e-09
3.47464e-09
4.23295e-09
5.02906e-09
5.86083e-09
6.72607e-09
7.62249e-09
8.54766e-09
9.49892e-09
1.04734e-08
1.14677e-08
1.24783e-08
1.35006e-08
1.45289e-08
1.55543e-08
1.65628e-08
1.75333e-08
1.84378e-08
1.92449e-08
1.99269e-08
2.04676e-08
2.08667e-08
2.1139e-08
2.13092e-08
2.14054e-08
2.14537e-08
2.14763e-08
2.14879e-08
2.14926e-08
2.14862e-08
2.14636e-08
2.14244e-08
2.13723e-08
2.13114e-08
2.12447e-08
2.11743e-08
2.1102e-08
2.10294e-08
2.09542e-08
2.08775e-08
2.08036e-08
2.07293e-08
2.06514e-08
2.05751e-08
2.04994e-08
2.042e-08
2.03399e-08
2.02583e-08
2.01713e-08
2.00831e-08
1.99913e-08
1.98891e-08
1.97855e-08
1.96775e-08
1.95567e-08
1.94311e-08
1.92963e-08
1.91512e-08
1.89976e-08
1.88238e-08
1.86405e-08
1.8441e-08
1.82143e-08
1.79719e-08
1.77014e-08
1.74005e-08
1.70575e-08
1.66519e-08
1.61785e-08
1.57642e-08
1.52397e-08
1.19622e-08
1.55783e-09
-9.65384e-08
-1.5858e-07
-1.58595e-07
-1.5845e-07
-1.58463e-07
-1.58459e-07
-1.58451e-07
-1.58433e-07
-1.58401e-07
-1.5832e-07
-1.58217e-07
-1.58199e-07
-1.582e-07
-1.582e-07
-1.582e-07
-1.582e-07
-1.582e-07
-1.582e-07
-1.582e-07
-1.582e-07
-1.582e-07
-1.582e-07
-1.582e-07
-1.582e-07
-1.582e-07
-1.582e-07
-1.582e-07
-1.582e-07
-1.582e-07
-1.582e-07
-1.582e-07
-1.582e-07
-1.582e-07
-1.582e-07
-1.582e-07
-1.582e-07
-1.582e-07
-1.582e-07
-1.582e-07
-1.582e-07
-1.582e-07
-1.582e-07
-1.582e-07
-1.582e-07
-1.582e-07
-1.582e-07
-1.582e-07
-1.582e-07
-1.582e-07
-1.582e-07
-1.582e-07
-1.582e-07
-1.582e-07
-1.582e-07
-1.582e-07
-1.582e-07
-1.582e-07
-1.582e-07
-1.582e-07
-1.582e-07
-1.582e-07
-1.582e-07
-1.582e-07
-1.582e-07
-1.582e-07
-1.582e-07
-1.582e-07
-1.582e-07
-1.582e-07
-1.582e-07
-1.582e-07
-1.582e-07
-1.582e-07
-1.582e-07
-1.582e-07
-1.582e-07
-1.582e-07
-1.582e-07
-1.582e-07
-1.582e-07
-1.582e-07
-1.582e-07
-1.582e-07
-1.582e-07
-1.582e-07
-1.582e-07
-1.582e-07
-1.582e-07
-1.582e-07
-1.582e-07
-1.582e-07
-1.582e-07
-1.582e-07
-1.582e-07
-1.582e-07
-1.582e-07
-1.582e-07
-1.582e-07
-1.582e-07
-1.582e-07
-1.582e-07
-1.582e-07
-1.582e-07
-1.582e-07
-1.582e-07
-1.582e-07
-1.582e-07
-1.582e-07
-1.582e-07
-1.582e-07
-1.582e-07
-1.582e-07
-1.582e-07
-1.582e-07
-1.582e-07
-1.582e-07
-1.582e-07
-1.582e-07
-1.58183e-07
-1.57477e-07
-1.32391e-07
)
;

boundaryField
{
    inandouthalf11
    {
        type            cyclic;
        value           nonuniform List<scalar> 
100
(
1.01163e-38
3.81522e-14
8.33918e-14
1.23617e-13
1.63085e-13
2.04015e-13
2.46241e-13
2.89272e-13
3.3285e-13
3.76922e-13
4.21567e-13
4.66878e-13
5.129e-13
5.59633e-13
6.07054e-13
6.55154e-13
7.03944e-13
7.53439e-13
8.03661e-13
8.54639e-13
9.0641e-13
9.59029e-13
1.01258e-12
1.06714e-12
1.12282e-12
1.17968e-12
1.23775e-12
1.29702e-12
1.35737e-12
1.41853e-12
1.48015e-12
1.54179e-12
1.60304e-12
1.66361e-12
1.72351e-12
1.78313e-12
1.84344e-12
1.90607e-12
1.97353e-12
2.04931e-12
2.13802e-12
2.24476e-12
2.37265e-12
2.51723e-12
2.66064e-12
2.77582e-12
2.84584e-12
2.87682e-12
2.88683e-12
2.88933e-12
2.88987e-12
2.88999e-12
2.89002e-12
2.89003e-12
2.89003e-12
2.89003e-12
2.89004e-12
2.89004e-12
2.89004e-12
2.89004e-12
2.89005e-12
2.89005e-12
2.89006e-12
2.89006e-12
2.89007e-12
2.89008e-12
2.89008e-12
2.89009e-12
2.8901e-12
2.8901e-12
2.89011e-12
2.89012e-12
2.89013e-12
2.89013e-12
2.89014e-12
2.89015e-12
2.89016e-12
2.89016e-12
2.89017e-12
2.89018e-12
2.89019e-12
2.8902e-12
2.89021e-12
2.89022e-12
2.89023e-12
2.89024e-12
2.89025e-12
2.89026e-12
2.89027e-12
2.89029e-12
2.8903e-12
2.89031e-12
2.89032e-12
2.89034e-12
2.89035e-12
2.89037e-12
2.89038e-12
2.89039e-12
2.89041e-12
2.89042e-12
)
;
    }
    inandouthalf12
    {
        type            cyclic;
        value           nonuniform List<scalar> 
100
(
-1.01163e-38
-3.81522e-14
-8.33918e-14
-1.23617e-13
-1.63085e-13
-2.04015e-13
-2.46241e-13
-2.89272e-13
-3.3285e-13
-3.76922e-13
-4.21567e-13
-4.66878e-13
-5.129e-13
-5.59633e-13
-6.07054e-13
-6.55154e-13
-7.03944e-13
-7.53439e-13
-8.03661e-13
-8.54639e-13
-9.0641e-13
-9.59029e-13
-1.01258e-12
-1.06714e-12
-1.12282e-12
-1.17968e-12
-1.23775e-12
-1.29702e-12
-1.35737e-12
-1.41853e-12
-1.48015e-12
-1.54179e-12
-1.60304e-12
-1.66361e-12
-1.72351e-12
-1.78313e-12
-1.84344e-12
-1.90607e-12
-1.97353e-12
-2.04931e-12
-2.13802e-12
-2.24476e-12
-2.37265e-12
-2.51723e-12
-2.66064e-12
-2.77582e-12
-2.84584e-12
-2.87682e-12
-2.88683e-12
-2.88933e-12
-2.88987e-12
-2.88999e-12
-2.89002e-12
-2.89003e-12
-2.89003e-12
-2.89003e-12
-2.89004e-12
-2.89004e-12
-2.89004e-12
-2.89004e-12
-2.89005e-12
-2.89005e-12
-2.89006e-12
-2.89006e-12
-2.89007e-12
-2.89008e-12
-2.89008e-12
-2.89009e-12
-2.8901e-12
-2.8901e-12
-2.89011e-12
-2.89012e-12
-2.89013e-12
-2.89013e-12
-2.89014e-12
-2.89015e-12
-2.89016e-12
-2.89016e-12
-2.89017e-12
-2.89018e-12
-2.89019e-12
-2.8902e-12
-2.89021e-12
-2.89022e-12
-2.89023e-12
-2.89024e-12
-2.89025e-12
-2.89026e-12
-2.89027e-12
-2.89029e-12
-2.8903e-12
-2.89031e-12
-2.89032e-12
-2.89034e-12
-2.89035e-12
-2.89037e-12
-2.89038e-12
-2.89039e-12
-2.89041e-12
-2.89042e-12
)
;
    }
    inandouthalf21
    {
        type            cyclic;
        value           nonuniform List<scalar> 
100
(
2.89044e-12
2.89046e-12
2.89047e-12
2.89049e-12
2.8905e-12
2.89052e-12
2.89054e-12
2.89055e-12
2.89057e-12
2.89059e-12
2.8906e-12
2.89062e-12
2.89064e-12
2.89066e-12
2.89068e-12
2.89069e-12
2.89071e-12
2.89073e-12
2.89075e-12
2.89077e-12
2.89079e-12
2.89081e-12
2.89083e-12
2.89085e-12
2.89087e-12
2.89089e-12
2.89091e-12
2.89094e-12
2.89096e-12
2.89098e-12
2.89101e-12
2.89103e-12
2.89105e-12
2.89107e-12
2.89109e-12
2.89111e-12
2.89113e-12
2.89115e-12
2.89116e-12
2.89118e-12
2.8912e-12
2.89121e-12
2.89122e-12
2.89122e-12
2.89122e-12
2.89123e-12
2.89123e-12
2.75422e-09
8.55876e-08
1.8349e-07
2.60686e-07
3.23529e-07
3.75891e-07
4.20316e-07
4.58561e-07
4.91902e-07
5.21294e-07
5.47473e-07
5.71005e-07
5.92334e-07
6.11805e-07
6.29693e-07
6.46216e-07
6.61545e-07
6.75821e-07
6.89158e-07
7.01646e-07
7.13362e-07
7.24367e-07
7.34713e-07
7.44442e-07
7.53591e-07
7.6219e-07
7.70264e-07
7.77835e-07
7.84924e-07
7.91546e-07
7.97719e-07
8.03457e-07
8.08773e-07
8.13683e-07
8.18201e-07
8.22343e-07
8.26126e-07
8.29571e-07
8.32699e-07
8.35533e-07
8.38099e-07
8.4042e-07
8.42518e-07
8.44415e-07
8.46128e-07
8.47675e-07
8.49069e-07
8.50326e-07
8.51462e-07
8.5249e-07
8.53424e-07
8.54277e-07
8.55057e-07
)
;
    }
    inandouthalf22
    {
        type            cyclic;
        value           nonuniform List<scalar> 
100
(
-2.89044e-12
-2.89046e-12
-2.89047e-12
-2.89049e-12
-2.8905e-12
-2.89052e-12
-2.89054e-12
-2.89055e-12
-2.89057e-12
-2.89059e-12
-2.8906e-12
-2.89062e-12
-2.89064e-12
-2.89066e-12
-2.89068e-12
-2.89069e-12
-2.89071e-12
-2.89073e-12
-2.89075e-12
-2.89077e-12
-2.89079e-12
-2.89081e-12
-2.89083e-12
-2.89085e-12
-2.89087e-12
-2.89089e-12
-2.89091e-12
-2.89094e-12
-2.89096e-12
-2.89098e-12
-2.89101e-12
-2.89103e-12
-2.89105e-12
-2.89107e-12
-2.89109e-12
-2.89111e-12
-2.89113e-12
-2.89115e-12
-2.89116e-12
-2.89118e-12
-2.8912e-12
-2.89121e-12
-2.89122e-12
-2.89122e-12
-2.89122e-12
-2.89123e-12
-2.89123e-12
-2.75422e-09
-8.55876e-08
-1.8349e-07
-2.60686e-07
-3.23529e-07
-3.75891e-07
-4.20316e-07
-4.58561e-07
-4.91902e-07
-5.21294e-07
-5.47473e-07
-5.71005e-07
-5.92334e-07
-6.11805e-07
-6.29693e-07
-6.46216e-07
-6.61545e-07
-6.75821e-07
-6.89158e-07
-7.01646e-07
-7.13362e-07
-7.24367e-07
-7.34713e-07
-7.44442e-07
-7.53591e-07
-7.6219e-07
-7.70264e-07
-7.77835e-07
-7.84924e-07
-7.91546e-07
-7.97719e-07
-8.03457e-07
-8.08773e-07
-8.13683e-07
-8.18201e-07
-8.22343e-07
-8.26126e-07
-8.29571e-07
-8.32699e-07
-8.35533e-07
-8.38099e-07
-8.4042e-07
-8.42518e-07
-8.44415e-07
-8.46128e-07
-8.47675e-07
-8.49069e-07
-8.50326e-07
-8.51462e-07
-8.5249e-07
-8.53424e-07
-8.54277e-07
-8.55057e-07
)
;
    }
    inandouthalf31
    {
        type            cyclic;
        value           nonuniform List<scalar> 
110
(
8.55778e-07
8.7383e-07
8.92223e-07
9.10966e-07
9.3007e-07
9.49544e-07
9.69397e-07
9.89641e-07
1.01028e-06
1.03134e-06
1.05281e-06
1.07471e-06
1.09705e-06
1.11984e-06
1.1431e-06
1.16682e-06
1.19102e-06
1.21572e-06
1.24091e-06
1.26662e-06
1.29285e-06
1.31962e-06
1.34693e-06
1.37479e-06
1.40322e-06
1.43222e-06
1.46182e-06
1.49201e-06
1.52281e-06
1.55424e-06
1.58629e-06
1.61899e-06
1.65235e-06
1.68638e-06
1.72106e-06
1.75637e-06
1.79245e-06
1.90267e-06
1.9375e-06
1.97204e-06
2.0062e-06
2.04162e-06
2.07764e-06
2.1144e-06
2.15199e-06
2.19054e-06
2.23022e-06
2.27135e-06
2.31528e-06
2.36186e-06
2.40978e-06
2.45869e-06
2.50859e-06
2.55951e-06
2.61146e-06
2.66446e-06
2.71855e-06
2.77372e-06
2.83002e-06
2.88746e-06
2.94607e-06
3.00587e-06
3.06688e-06
3.12913e-06
3.19264e-06
3.25744e-06
3.32356e-06
3.39102e-06
3.45985e-06
3.53007e-06
3.60173e-06
3.67483e-06
3.74942e-06
3.82552e-06
3.90317e-06
3.9824e-06
4.06323e-06
4.1457e-06
4.22985e-06
4.3157e-06
4.4033e-06
4.49267e-06
4.58386e-06
4.6769e-06
4.77183e-06
4.86869e-06
4.96751e-06
5.06834e-06
5.17121e-06
5.27617e-06
5.38326e-06
5.49253e-06
5.60401e-06
5.71776e-06
5.83382e-06
5.95223e-06
6.07304e-06
6.19631e-06
6.32208e-06
6.4504e-06
6.58132e-06
6.71491e-06
6.8512e-06
6.99026e-06
7.13215e-06
7.27691e-06
7.42461e-06
7.57531e-06
7.72907e-06
7.88595e-06
)
;
    }
    inandouthalf32
    {
        type            cyclic;
        value           nonuniform List<scalar> 
110
(
-8.55778e-07
-8.7383e-07
-8.92223e-07
-9.10966e-07
-9.3007e-07
-9.49544e-07
-9.69397e-07
-9.89641e-07
-1.01028e-06
-1.03134e-06
-1.05281e-06
-1.07471e-06
-1.09705e-06
-1.11984e-06
-1.1431e-06
-1.16682e-06
-1.19102e-06
-1.21572e-06
-1.24091e-06
-1.26662e-06
-1.29285e-06
-1.31962e-06
-1.34693e-06
-1.37479e-06
-1.40322e-06
-1.43222e-06
-1.46182e-06
-1.49201e-06
-1.52281e-06
-1.55424e-06
-1.58629e-06
-1.61899e-06
-1.65235e-06
-1.68638e-06
-1.72106e-06
-1.75637e-06
-1.79245e-06
-1.90267e-06
-1.9375e-06
-1.97204e-06
-2.0062e-06
-2.04162e-06
-2.07764e-06
-2.1144e-06
-2.15199e-06
-2.19054e-06
-2.23022e-06
-2.27135e-06
-2.31528e-06
-2.36186e-06
-2.40978e-06
-2.45869e-06
-2.50859e-06
-2.55951e-06
-2.61146e-06
-2.66446e-06
-2.71855e-06
-2.77372e-06
-2.83002e-06
-2.88746e-06
-2.94607e-06
-3.00587e-06
-3.06688e-06
-3.12913e-06
-3.19264e-06
-3.25744e-06
-3.32356e-06
-3.39102e-06
-3.45985e-06
-3.53007e-06
-3.60173e-06
-3.67483e-06
-3.74942e-06
-3.82552e-06
-3.90317e-06
-3.9824e-06
-4.06323e-06
-4.1457e-06
-4.22985e-06
-4.3157e-06
-4.4033e-06
-4.49267e-06
-4.58386e-06
-4.6769e-06
-4.77183e-06
-4.86869e-06
-4.96751e-06
-5.06834e-06
-5.17121e-06
-5.27617e-06
-5.38326e-06
-5.49253e-06
-5.60401e-06
-5.71776e-06
-5.83382e-06
-5.95223e-06
-6.07304e-06
-6.19631e-06
-6.32208e-06
-6.4504e-06
-6.58132e-06
-6.71491e-06
-6.8512e-06
-6.99026e-06
-7.13215e-06
-7.27691e-06
-7.42461e-06
-7.57531e-06
-7.72907e-06
-7.88595e-06
)
;
    }
    inandouthalf41
    {
        type            cyclic;
        value           nonuniform List<scalar> 
50
(
7.05873e-06
7.05873e-06
7.05873e-06
7.05873e-06
7.05873e-06
7.05873e-06
7.05873e-06
7.05873e-06
7.05873e-06
7.05873e-06
7.05873e-06
7.05873e-06
7.05873e-06
7.05873e-06
7.05873e-06
7.05873e-06
7.05873e-06
7.05873e-06
7.05873e-06
7.05873e-06
7.05873e-06
7.05873e-06
7.05873e-06
7.05873e-06
7.05873e-06
7.05873e-06
7.05873e-06
7.05873e-06
7.05873e-06
7.05873e-06
7.05873e-06
7.05873e-06
7.05873e-06
7.05873e-06
7.05873e-06
7.05873e-06
7.05873e-06
7.05873e-06
7.05873e-06
7.05873e-06
7.05873e-06
7.05873e-06
7.05873e-06
7.05873e-06
7.05873e-06
7.05873e-06
7.05873e-06
7.05873e-06
7.05873e-06
7.05875e-06
)
;
    }
    inandouthalf42
    {
        type            cyclic;
        value           nonuniform List<scalar> 
50
(
-7.05873e-06
-7.05873e-06
-7.05873e-06
-7.05873e-06
-7.05873e-06
-7.05873e-06
-7.05873e-06
-7.05873e-06
-7.05873e-06
-7.05873e-06
-7.05873e-06
-7.05873e-06
-7.05873e-06
-7.05873e-06
-7.05873e-06
-7.05873e-06
-7.05873e-06
-7.05873e-06
-7.05873e-06
-7.05873e-06
-7.05873e-06
-7.05873e-06
-7.05873e-06
-7.05873e-06
-7.05873e-06
-7.05873e-06
-7.05873e-06
-7.05873e-06
-7.05873e-06
-7.05873e-06
-7.05873e-06
-7.05873e-06
-7.05873e-06
-7.05873e-06
-7.05873e-06
-7.05873e-06
-7.05873e-06
-7.05873e-06
-7.05873e-06
-7.05873e-06
-7.05873e-06
-7.05873e-06
-7.05873e-06
-7.05873e-06
-7.05873e-06
-7.05873e-06
-7.05873e-06
-7.05873e-06
-7.05873e-06
-7.05875e-06
)
;
    }
    top
    {
        type            symmetryPlane;
        value           uniform 0;
    }
    walls
    {
        type            fixedValue;
        value           uniform 0;
    }
    frontAndBackPlanes
    {
        type            empty;
        value           nonuniform 0();
    }
}


// ************************************************************************* //
