/*--------------------------------*- C++ -*----------------------------------*\
| =========                 |                                                 |
| \\      /  F ield         | OpenFOAM: The Open Source CFD Toolbox           |
|  \\    /   O peration     | Version:  2.4.x                                 |
|   \\  /    A nd           | Web:      www.OpenFOAM.org                      |
|    \\/     M anipulation  |                                                 |
\*---------------------------------------------------------------------------*/
FoamFile
{
    version     2.0;
    format      ascii;
    class       surfaceScalarField;
    location    "5.1";
    object      phia;
}
// * * * * * * * * * * * * * * * * * * * * * * * * * * * * * * * * * * * * * //

dimensions      [0 3 -1 0 0 0 0];

internalField   nonuniform List<scalar> 
359
(
-5.00181e-13
-1.3528e-12
-2.14088e-12
-2.8707e-12
-3.60486e-12
-4.35913e-12
-5.1269e-12
-5.90098e-12
-6.67792e-12
-7.45842e-12
-8.24431e-12
-9.03655e-12
-9.83542e-12
-1.06403e-11
-1.14509e-11
-1.22669e-11
-1.30885e-11
-1.39158e-11
-1.4749e-11
-1.55887e-11
-1.6435e-11
-1.72893e-11
-1.81525e-11
-1.90259e-11
-1.99107e-11
-2.08074e-11
-2.1716e-11
-2.26352e-11
-2.35618e-11
-2.4491e-11
-2.54163e-11
-2.63314e-11
-2.72302e-11
-2.81113e-11
-2.89764e-11
-2.98357e-11
-3.07071e-11
-3.16198e-11
-3.26159e-11
-3.37506e-11
-3.50936e-11
-3.6705e-11
-3.8582e-11
-4.05792e-11
-4.23812e-11
-4.36713e-11
-4.43686e-11
-4.46469e-11
-4.47301e-11
-4.47499e-11
-4.4754e-11
-4.47549e-11
-4.47552e-11
-4.47553e-11
-4.47553e-11
-4.47553e-11
-4.47554e-11
-4.47554e-11
-4.47554e-11
-4.47554e-11
-4.47555e-11
-4.47555e-11
-4.47556e-11
-4.47557e-11
-4.47557e-11
-4.47558e-11
-4.47559e-11
-4.4756e-11
-4.4756e-11
-4.47561e-11
-4.47562e-11
-4.47562e-11
-4.47563e-11
-4.47564e-11
-4.47565e-11
-4.47565e-11
-4.47566e-11
-4.47567e-11
-4.47568e-11
-4.47569e-11
-4.47569e-11
-4.4757e-11
-4.47571e-11
-4.47572e-11
-4.47573e-11
-4.47574e-11
-4.47575e-11
-4.47576e-11
-4.47577e-11
-4.47578e-11
-4.47579e-11
-4.4758e-11
-4.47581e-11
-4.47582e-11
-4.47584e-11
-4.47585e-11
-4.47586e-11
-4.47587e-11
-4.47588e-11
-4.47589e-11
-4.47591e-11
-4.47592e-11
-4.47593e-11
-4.47594e-11
-4.47596e-11
-4.47597e-11
-4.47598e-11
-4.47599e-11
-4.476e-11
-4.47602e-11
-4.47603e-11
-4.47604e-11
-4.47605e-11
-4.47606e-11
-4.47608e-11
-4.47609e-11
-4.4761e-11
-4.47611e-11
-4.47612e-11
-4.47613e-11
-4.47614e-11
-4.47616e-11
-4.47617e-11
-4.47618e-11
-4.47619e-11
-4.4762e-11
-4.47621e-11
-4.47622e-11
-4.47624e-11
-4.47625e-11
-4.47626e-11
-4.47627e-11
-4.47627e-11
-4.47628e-11
-4.47629e-11
-4.47629e-11
-4.4763e-11
-4.47631e-11
-4.47631e-11
-4.47631e-11
-4.47632e-11
-4.47632e-11
-4.47632e-11
-4.47632e-11
-4.47632e-11
-4.47632e-11
-5.44085e-11
-7.42009e-10
-1.27887e-09
-1.6073e-09
-1.78586e-09
-1.89416e-09
-1.9433e-09
-1.93412e-09
-1.86468e-09
-1.73331e-09
-1.5394e-09
-1.28347e-09
-9.66922e-10
-5.91772e-10
-1.60346e-10
3.24907e-10
8.61466e-10
1.44689e-09
2.07883e-09
2.75502e-09
3.47329e-09
4.23147e-09
5.02746e-09
5.85911e-09
6.72422e-09
7.62052e-09
8.54556e-09
9.4967e-09
1.0471e-08
1.14652e-08
1.24757e-08
1.34979e-08
1.45261e-08
1.55515e-08
1.656e-08
1.75306e-08
1.84353e-08
1.92427e-08
1.99251e-08
2.04663e-08
2.08659e-08
2.11387e-08
2.13093e-08
2.14058e-08
2.14543e-08
2.14771e-08
2.14888e-08
2.14936e-08
2.14873e-08
2.14648e-08
2.14257e-08
2.13736e-08
2.13127e-08
2.1246e-08
2.11757e-08
2.11034e-08
2.10308e-08
2.09556e-08
2.08789e-08
2.0805e-08
2.07306e-08
2.06528e-08
2.05764e-08
2.05007e-08
2.04213e-08
2.03412e-08
2.02596e-08
2.01726e-08
2.00844e-08
1.99926e-08
1.98904e-08
1.97869e-08
1.96788e-08
1.95581e-08
1.94325e-08
1.92977e-08
1.91526e-08
1.89991e-08
1.88253e-08
1.8642e-08
1.84426e-08
1.82159e-08
1.79735e-08
1.77031e-08
1.74023e-08
1.70593e-08
1.66538e-08
1.61804e-08
1.57661e-08
1.52416e-08
1.19415e-08
1.5565e-09
-9.65073e-08
-1.58577e-07
-1.58596e-07
-1.5845e-07
-1.58463e-07
-1.58459e-07
-1.58451e-07
-1.58433e-07
-1.58401e-07
-1.58321e-07
-1.58218e-07
-1.58199e-07
-1.582e-07
-1.582e-07
-1.582e-07
-1.582e-07
-1.582e-07
-1.582e-07
-1.582e-07
-1.582e-07
-1.582e-07
-1.582e-07
-1.582e-07
-1.582e-07
-1.582e-07
-1.582e-07
-1.582e-07
-1.582e-07
-1.582e-07
-1.582e-07
-1.582e-07
-1.582e-07
-1.582e-07
-1.582e-07
-1.582e-07
-1.582e-07
-1.582e-07
-1.582e-07
-1.582e-07
-1.582e-07
-1.582e-07
-1.582e-07
-1.582e-07
-1.582e-07
-1.582e-07
-1.582e-07
-1.582e-07
-1.582e-07
-1.582e-07
-1.582e-07
-1.582e-07
-1.582e-07
-1.582e-07
-1.582e-07
-1.582e-07
-1.582e-07
-1.582e-07
-1.582e-07
-1.582e-07
-1.582e-07
-1.582e-07
-1.582e-07
-1.582e-07
-1.582e-07
-1.582e-07
-1.582e-07
-1.582e-07
-1.582e-07
-1.582e-07
-1.582e-07
-1.582e-07
-1.582e-07
-1.582e-07
-1.582e-07
-1.582e-07
-1.582e-07
-1.582e-07
-1.582e-07
-1.582e-07
-1.582e-07
-1.582e-07
-1.582e-07
-1.582e-07
-1.582e-07
-1.582e-07
-1.582e-07
-1.582e-07
-1.582e-07
-1.582e-07
-1.582e-07
-1.582e-07
-1.582e-07
-1.582e-07
-1.582e-07
-1.582e-07
-1.582e-07
-1.582e-07
-1.582e-07
-1.582e-07
-1.582e-07
-1.582e-07
-1.582e-07
-1.582e-07
-1.582e-07
-1.582e-07
-1.582e-07
-1.582e-07
-1.582e-07
-1.582e-07
-1.582e-07
-1.582e-07
-1.582e-07
-1.582e-07
-1.582e-07
-1.582e-07
-1.582e-07
-1.582e-07
-1.582e-07
-1.58183e-07
-1.57477e-07
-1.3239e-07
)
;

boundaryField
{
    inandouthalf11
    {
        type            cyclic;
        value           nonuniform List<scalar> 
100
(
1.01163e-38
3.81505e-14
8.33876e-14
1.2361e-13
1.63077e-13
2.04004e-13
2.46228e-13
2.89256e-13
3.32831e-13
3.76902e-13
4.21543e-13
4.66851e-13
5.12871e-13
5.59601e-13
6.07019e-13
6.55116e-13
7.03903e-13
7.53394e-13
8.03612e-13
8.54587e-13
9.06354e-13
9.58968e-13
1.01251e-12
1.06707e-12
1.12274e-12
1.1796e-12
1.23767e-12
1.29693e-12
1.35727e-12
1.41843e-12
1.48005e-12
1.54169e-12
1.60293e-12
1.6635e-12
1.7234e-12
1.78302e-12
1.84331e-12
1.90593e-12
1.97337e-12
2.04912e-12
2.13778e-12
2.24447e-12
2.3723e-12
2.51685e-12
2.66029e-12
2.77558e-12
2.84572e-12
2.87677e-12
2.88681e-12
2.88932e-12
2.88987e-12
2.88999e-12
2.89002e-12
2.89003e-12
2.89003e-12
2.89003e-12
2.89004e-12
2.89004e-12
2.89004e-12
2.89004e-12
2.89005e-12
2.89005e-12
2.89006e-12
2.89006e-12
2.89007e-12
2.89008e-12
2.89008e-12
2.89009e-12
2.8901e-12
2.8901e-12
2.89011e-12
2.89012e-12
2.89012e-12
2.89013e-12
2.89014e-12
2.89015e-12
2.89016e-12
2.89016e-12
2.89017e-12
2.89018e-12
2.89019e-12
2.8902e-12
2.89021e-12
2.89022e-12
2.89023e-12
2.89024e-12
2.89025e-12
2.89026e-12
2.89027e-12
2.89029e-12
2.8903e-12
2.89031e-12
2.89032e-12
2.89034e-12
2.89035e-12
2.89037e-12
2.89038e-12
2.89039e-12
2.89041e-12
2.89042e-12
)
;
    }
    inandouthalf12
    {
        type            cyclic;
        value           nonuniform List<scalar> 
100
(
-1.01163e-38
-3.81505e-14
-8.33876e-14
-1.2361e-13
-1.63077e-13
-2.04004e-13
-2.46228e-13
-2.89256e-13
-3.32831e-13
-3.76902e-13
-4.21543e-13
-4.66851e-13
-5.12871e-13
-5.59601e-13
-6.07019e-13
-6.55116e-13
-7.03903e-13
-7.53394e-13
-8.03612e-13
-8.54587e-13
-9.06354e-13
-9.58968e-13
-1.01251e-12
-1.06707e-12
-1.12274e-12
-1.1796e-12
-1.23767e-12
-1.29693e-12
-1.35727e-12
-1.41843e-12
-1.48005e-12
-1.54169e-12
-1.60293e-12
-1.6635e-12
-1.7234e-12
-1.78302e-12
-1.84331e-12
-1.90593e-12
-1.97337e-12
-2.04912e-12
-2.13778e-12
-2.24447e-12
-2.3723e-12
-2.51685e-12
-2.66029e-12
-2.77558e-12
-2.84572e-12
-2.87677e-12
-2.88681e-12
-2.88932e-12
-2.88987e-12
-2.88999e-12
-2.89002e-12
-2.89003e-12
-2.89003e-12
-2.89003e-12
-2.89004e-12
-2.89004e-12
-2.89004e-12
-2.89004e-12
-2.89005e-12
-2.89005e-12
-2.89006e-12
-2.89006e-12
-2.89007e-12
-2.89008e-12
-2.89008e-12
-2.89009e-12
-2.8901e-12
-2.8901e-12
-2.89011e-12
-2.89012e-12
-2.89012e-12
-2.89013e-12
-2.89014e-12
-2.89015e-12
-2.89016e-12
-2.89016e-12
-2.89017e-12
-2.89018e-12
-2.89019e-12
-2.8902e-12
-2.89021e-12
-2.89022e-12
-2.89023e-12
-2.89024e-12
-2.89025e-12
-2.89026e-12
-2.89027e-12
-2.89029e-12
-2.8903e-12
-2.89031e-12
-2.89032e-12
-2.89034e-12
-2.89035e-12
-2.89037e-12
-2.89038e-12
-2.89039e-12
-2.89041e-12
-2.89042e-12
)
;
    }
    inandouthalf21
    {
        type            cyclic;
        value           nonuniform List<scalar> 
100
(
2.89044e-12
2.89046e-12
2.89047e-12
2.89049e-12
2.8905e-12
2.89052e-12
2.89054e-12
2.89055e-12
2.89057e-12
2.89059e-12
2.8906e-12
2.89062e-12
2.89064e-12
2.89066e-12
2.89068e-12
2.89069e-12
2.89071e-12
2.89073e-12
2.89075e-12
2.89077e-12
2.89079e-12
2.89081e-12
2.89083e-12
2.89085e-12
2.89087e-12
2.89089e-12
2.89091e-12
2.89094e-12
2.89096e-12
2.89098e-12
2.891e-12
2.89103e-12
2.89105e-12
2.89107e-12
2.89109e-12
2.89111e-12
2.89113e-12
2.89114e-12
2.89116e-12
2.89118e-12
2.8912e-12
2.89121e-12
2.89122e-12
2.89122e-12
2.89122e-12
2.89122e-12
2.89123e-12
2.7493e-09
8.55765e-08
1.83479e-07
2.60674e-07
3.23517e-07
3.75877e-07
4.203e-07
4.58545e-07
4.91884e-07
5.21275e-07
5.47453e-07
5.70984e-07
5.92312e-07
6.11783e-07
6.2967e-07
6.46192e-07
6.6152e-07
6.75796e-07
6.89132e-07
7.0162e-07
7.13335e-07
7.2434e-07
7.34686e-07
7.44415e-07
7.53564e-07
7.62162e-07
7.70236e-07
7.77808e-07
7.84896e-07
7.91519e-07
7.97692e-07
8.0343e-07
8.08747e-07
8.13657e-07
8.18175e-07
8.22318e-07
8.26102e-07
8.29547e-07
8.32675e-07
8.3551e-07
8.38076e-07
8.40397e-07
8.42496e-07
8.44393e-07
8.46107e-07
8.47653e-07
8.49048e-07
8.50306e-07
8.51441e-07
8.5247e-07
8.53404e-07
8.54257e-07
8.55038e-07
)
;
    }
    inandouthalf22
    {
        type            cyclic;
        value           nonuniform List<scalar> 
100
(
-2.89044e-12
-2.89046e-12
-2.89047e-12
-2.89049e-12
-2.8905e-12
-2.89052e-12
-2.89054e-12
-2.89055e-12
-2.89057e-12
-2.89059e-12
-2.8906e-12
-2.89062e-12
-2.89064e-12
-2.89066e-12
-2.89068e-12
-2.89069e-12
-2.89071e-12
-2.89073e-12
-2.89075e-12
-2.89077e-12
-2.89079e-12
-2.89081e-12
-2.89083e-12
-2.89085e-12
-2.89087e-12
-2.89089e-12
-2.89091e-12
-2.89094e-12
-2.89096e-12
-2.89098e-12
-2.891e-12
-2.89103e-12
-2.89105e-12
-2.89107e-12
-2.89109e-12
-2.89111e-12
-2.89113e-12
-2.89114e-12
-2.89116e-12
-2.89118e-12
-2.8912e-12
-2.89121e-12
-2.89122e-12
-2.89122e-12
-2.89122e-12
-2.89122e-12
-2.89123e-12
-2.7493e-09
-8.55765e-08
-1.83479e-07
-2.60674e-07
-3.23517e-07
-3.75877e-07
-4.203e-07
-4.58545e-07
-4.91884e-07
-5.21275e-07
-5.47453e-07
-5.70984e-07
-5.92312e-07
-6.11783e-07
-6.2967e-07
-6.46192e-07
-6.6152e-07
-6.75796e-07
-6.89132e-07
-7.0162e-07
-7.13335e-07
-7.2434e-07
-7.34686e-07
-7.44415e-07
-7.53564e-07
-7.62162e-07
-7.70236e-07
-7.77808e-07
-7.84896e-07
-7.91519e-07
-7.97692e-07
-8.0343e-07
-8.08747e-07
-8.13657e-07
-8.18175e-07
-8.22318e-07
-8.26102e-07
-8.29547e-07
-8.32675e-07
-8.3551e-07
-8.38076e-07
-8.40397e-07
-8.42496e-07
-8.44393e-07
-8.46107e-07
-8.47653e-07
-8.49048e-07
-8.50306e-07
-8.51441e-07
-8.5247e-07
-8.53404e-07
-8.54257e-07
-8.55038e-07
)
;
    }
    inandouthalf31
    {
        type            cyclic;
        value           nonuniform List<scalar> 
110
(
8.55758e-07
8.7381e-07
8.92203e-07
9.10946e-07
9.3005e-07
9.49523e-07
9.69376e-07
9.89619e-07
1.01026e-06
1.03131e-06
1.05279e-06
1.07469e-06
1.09703e-06
1.11982e-06
1.14307e-06
1.16679e-06
1.191e-06
1.21569e-06
1.24089e-06
1.2666e-06
1.29283e-06
1.31959e-06
1.3469e-06
1.37476e-06
1.40319e-06
1.4322e-06
1.46179e-06
1.49198e-06
1.52279e-06
1.55421e-06
1.58626e-06
1.61896e-06
1.65232e-06
1.68635e-06
1.72103e-06
1.75633e-06
1.79242e-06
1.90268e-06
1.9375e-06
1.97205e-06
2.0062e-06
2.04163e-06
2.07764e-06
2.1144e-06
2.15199e-06
2.19054e-06
2.23023e-06
2.27135e-06
2.31528e-06
2.36186e-06
2.40978e-06
2.45869e-06
2.50859e-06
2.55951e-06
2.61146e-06
2.66446e-06
2.71854e-06
2.77372e-06
2.83002e-06
2.88746e-06
2.94607e-06
3.00587e-06
3.06688e-06
3.12913e-06
3.19264e-06
3.25744e-06
3.32356e-06
3.39102e-06
3.45985e-06
3.53007e-06
3.60172e-06
3.67483e-06
3.74942e-06
3.82552e-06
3.90317e-06
3.98239e-06
4.06322e-06
4.1457e-06
4.22984e-06
4.3157e-06
4.4033e-06
4.49267e-06
4.58386e-06
4.6769e-06
4.77183e-06
4.86868e-06
4.96751e-06
5.06833e-06
5.17121e-06
5.27617e-06
5.38326e-06
5.49253e-06
5.60401e-06
5.71776e-06
5.83381e-06
5.95222e-06
6.07304e-06
6.1963e-06
6.32207e-06
6.45039e-06
6.58132e-06
6.7149e-06
6.8512e-06
6.99026e-06
7.13214e-06
7.2769e-06
7.42461e-06
7.57531e-06
7.72906e-06
7.88594e-06
)
;
    }
    inandouthalf32
    {
        type            cyclic;
        value           nonuniform List<scalar> 
110
(
-8.55758e-07
-8.7381e-07
-8.92203e-07
-9.10946e-07
-9.3005e-07
-9.49523e-07
-9.69376e-07
-9.89619e-07
-1.01026e-06
-1.03131e-06
-1.05279e-06
-1.07469e-06
-1.09703e-06
-1.11982e-06
-1.14307e-06
-1.16679e-06
-1.191e-06
-1.21569e-06
-1.24089e-06
-1.2666e-06
-1.29283e-06
-1.31959e-06
-1.3469e-06
-1.37476e-06
-1.40319e-06
-1.4322e-06
-1.46179e-06
-1.49198e-06
-1.52279e-06
-1.55421e-06
-1.58626e-06
-1.61896e-06
-1.65232e-06
-1.68635e-06
-1.72103e-06
-1.75633e-06
-1.79242e-06
-1.90268e-06
-1.9375e-06
-1.97205e-06
-2.0062e-06
-2.04163e-06
-2.07764e-06
-2.1144e-06
-2.15199e-06
-2.19054e-06
-2.23023e-06
-2.27135e-06
-2.31528e-06
-2.36186e-06
-2.40978e-06
-2.45869e-06
-2.50859e-06
-2.55951e-06
-2.61146e-06
-2.66446e-06
-2.71854e-06
-2.77372e-06
-2.83002e-06
-2.88746e-06
-2.94607e-06
-3.00587e-06
-3.06688e-06
-3.12913e-06
-3.19264e-06
-3.25744e-06
-3.32356e-06
-3.39102e-06
-3.45985e-06
-3.53007e-06
-3.60172e-06
-3.67483e-06
-3.74942e-06
-3.82552e-06
-3.90317e-06
-3.98239e-06
-4.06322e-06
-4.1457e-06
-4.22984e-06
-4.3157e-06
-4.4033e-06
-4.49267e-06
-4.58386e-06
-4.6769e-06
-4.77183e-06
-4.86868e-06
-4.96751e-06
-5.06833e-06
-5.17121e-06
-5.27617e-06
-5.38326e-06
-5.49253e-06
-5.60401e-06
-5.71776e-06
-5.83381e-06
-5.95222e-06
-6.07304e-06
-6.1963e-06
-6.32207e-06
-6.45039e-06
-6.58132e-06
-6.7149e-06
-6.8512e-06
-6.99026e-06
-7.13214e-06
-7.2769e-06
-7.42461e-06
-7.57531e-06
-7.72906e-06
-7.88594e-06
)
;
    }
    inandouthalf41
    {
        type            cyclic;
        value           nonuniform List<scalar> 
50
(
7.05872e-06
7.05872e-06
7.05872e-06
7.05872e-06
7.05872e-06
7.05872e-06
7.05872e-06
7.05872e-06
7.05872e-06
7.05872e-06
7.05872e-06
7.05872e-06
7.05872e-06
7.05872e-06
7.05872e-06
7.05872e-06
7.05872e-06
7.05872e-06
7.05872e-06
7.05872e-06
7.05872e-06
7.05872e-06
7.05872e-06
7.05872e-06
7.05872e-06
7.05872e-06
7.05872e-06
7.05872e-06
7.05872e-06
7.05872e-06
7.05872e-06
7.05872e-06
7.05872e-06
7.05872e-06
7.05872e-06
7.05872e-06
7.05872e-06
7.05872e-06
7.05872e-06
7.05872e-06
7.05872e-06
7.05872e-06
7.05872e-06
7.05872e-06
7.05872e-06
7.05872e-06
7.05872e-06
7.05872e-06
7.05872e-06
7.05874e-06
)
;
    }
    inandouthalf42
    {
        type            cyclic;
        value           nonuniform List<scalar> 
50
(
-7.05872e-06
-7.05872e-06
-7.05872e-06
-7.05872e-06
-7.05872e-06
-7.05872e-06
-7.05872e-06
-7.05872e-06
-7.05872e-06
-7.05872e-06
-7.05872e-06
-7.05872e-06
-7.05872e-06
-7.05872e-06
-7.05872e-06
-7.05872e-06
-7.05872e-06
-7.05872e-06
-7.05872e-06
-7.05872e-06
-7.05872e-06
-7.05872e-06
-7.05872e-06
-7.05872e-06
-7.05872e-06
-7.05872e-06
-7.05872e-06
-7.05872e-06
-7.05872e-06
-7.05872e-06
-7.05872e-06
-7.05872e-06
-7.05872e-06
-7.05872e-06
-7.05872e-06
-7.05872e-06
-7.05872e-06
-7.05872e-06
-7.05872e-06
-7.05872e-06
-7.05872e-06
-7.05872e-06
-7.05872e-06
-7.05872e-06
-7.05872e-06
-7.05872e-06
-7.05872e-06
-7.05872e-06
-7.05872e-06
-7.05874e-06
)
;
    }
    top
    {
        type            symmetryPlane;
        value           uniform 0;
    }
    walls
    {
        type            fixedValue;
        value           uniform 0;
    }
    frontAndBackPlanes
    {
        type            empty;
        value           nonuniform 0();
    }
}


// ************************************************************************* //
