/*--------------------------------*- C++ -*----------------------------------*\
| =========                 |                                                 |
| \\      /  F ield         | OpenFOAM: The Open Source CFD Toolbox           |
|  \\    /   O peration     | Version:  2.4.x                                 |
|   \\  /    A nd           | Web:      www.OpenFOAM.org                      |
|    \\/     M anipulation  |                                                 |
\*---------------------------------------------------------------------------*/
FoamFile
{
    version     2.0;
    format      ascii;
    class       volTensorField;
    location    "5.1";
    object      Taus;
}
// * * * * * * * * * * * * * * * * * * * * * * * * * * * * * * * * * * * * * //

dimensions      [0 2 -2 0 0 0 0];

internalField   nonuniform List<tensor> 
360
(
(0 -0.0153427 0 -0.0153427 -0.189471 0 0 0 0)
(0 -0.0211024 0 -0.0211024 -0.227211 0 0 0 0)
(0 -0.0255671 0 -0.0255671 -0.23497 0 0 0 0)
(0 -0.0256488 0 -0.0256488 -0.230861 0 0 0 0)
(7.85348e-18 -0.0250111 0 -0.0250111 -0.22768 0 0 0 0)
(1.51086e-17 -0.0248835 0 -0.0248835 -0.226045 0 0 0 0)
(1.47594e-17 -0.0249226 0 -0.0249226 -0.224566 0 0 0 0)
(0 -0.0249543 0 -0.0249543 -0.222997 0 0 0 0)
(2.87765e-17 -0.024978 0 -0.024978 -0.221439 0 0 0 0)
(0 -0.0249844 0 -0.0249844 -0.219831 0 0 0 0)
(2.80346e-17 -0.0249737 0 -0.0249737 -0.218178 0 0 0 0)
(0 -0.0249607 0 -0.0249607 -0.216532 0 0 0 0)
(2.71619e-17 -0.0249495 0 -0.0249495 -0.214887 0 0 0 0)
(0 -0.0249435 0 -0.0249435 -0.213258 0 0 0 0)
(0 -0.0249395 0 -0.0249395 -0.211634 0 0 0 0)
(0 -0.0249333 0 -0.0249333 -0.210002 0 0 0 0)
(0 -0.0249247 0 -0.0249247 -0.208366 0 0 0 0)
(5.04644e-17 -0.0249163 0 -0.0249163 -0.206731 0 0 0 0)
(0 -0.0249075 0 -0.0249075 -0.205099 0 0 0 0)
(0 -0.0248965 0 -0.0248965 -0.203453 0 0 0 0)
(0 -0.0248892 0 -0.0248892 -0.201829 0 0 0 0)
(4.73277e-17 -0.0248782 0 -0.0248782 -0.200187 0 0 0 0)
(0 -0.024865 0 -0.024865 -0.198544 0 0 0 0)
(0 -0.0248499 0 -0.0248499 -0.196899 0 0 0 0)
(0 -0.0248313 0 -0.0248313 -0.195247 0 0 0 0)
(4.35972e-17 -0.0248104 0 -0.0248104 -0.193591 0 0 0 0)
(0 -0.024787 0 -0.024787 -0.191936 0 0 0 0)
(0 -0.0247572 0 -0.0247572 -0.190262 0 0 0 0)
(0 -0.024727 0 -0.024727 -0.188593 0 0 0 0)
(0 -0.0247004 0 -0.0247004 -0.186932 0 0 0 0)
(0 -0.0246782 0 -0.0246782 -0.185282 0 0 0 0)
(0 -0.0246628 0 -0.0246628 -0.183631 0 0 0 0)
(0 -0.0246655 0 -0.0246655 -0.182037 0 0 0 0)
(0 -0.0246751 0 -0.0246751 -0.180421 0 0 0 0)
(0 -0.0247054 0 -0.0247054 -0.178863 0 0 0 0)
(-8.33492e-17 -0.0247455 0 -0.0247455 -0.1773 0 0 0 0)
(0 -0.0247896 0 -0.0247896 -0.17575 0 0 0 0)
(0 -0.0248162 0 -0.0248162 -0.174163 0 0 0 0)
(0 -0.0248066 0 -0.0248066 -0.172506 0 0 0 0)
(0 -0.0247428 0 -0.0247428 -0.170801 0 0 0 0)
(0 -0.0245712 0 -0.0245712 -0.168908 0 0 0 0)
(0 -0.0242805 0 -0.0242805 -0.166851 0 0 0 0)
(-3.54004e-17 -0.0238731 0 -0.0238731 -0.164615 0 0 0 0)
(0 -0.0233938 0 -0.0233938 -0.16221 0 0 0 0)
(0 -0.0229716 0 -0.0229716 -0.159923 0 0 0 0)
(0 -0.0227234 0 -0.0227234 -0.158004 0 0 0 0)
(0 -0.0227183 0 -0.0227183 -0.156611 0 0 0 0)
(0 -0.0229567 0 -0.0229567 -0.155682 0 0 0 0)
(0 -0.0233556 0 -0.0233556 -0.154907 0 0 0 0)
(0 -0.0238316 0 -0.0238316 -0.154109 0 0 0 0)
(-2.97159e-14 -0.0243568 0 -0.0243568 -0.153265 0 0 0 0)
(0 -0.0248895 0 -0.0248895 -0.152271 0 0 0 0)
(0 -0.0254025 0 -0.0254025 -0.151192 0 0 0 0)
(0 -0.0258356 0 -0.0258356 -0.150048 0 0 0 0)
(0 -0.0261086 0 -0.0261086 -0.148955 0 0 0 0)
(0 -0.0261557 0 -0.0261557 -0.147904 0 0 0 0)
(0 -0.026044 0 -0.026044 -0.146965 0 0 0 0)
(0 -0.025871 0 -0.025871 -0.14602 0 0 0 0)
(0 -0.0257334 0 -0.0257334 -0.145065 0 0 0 0)
(0 -0.0256604 0 -0.0256604 -0.144081 0 0 0 0)
(0 -0.0256339 0 -0.0256339 -0.143007 0 0 0 0)
(0 -0.0256565 0 -0.0256565 -0.14192 0 0 0 0)
(0 -0.0257026 0 -0.0257026 -0.140769 0 0 0 0)
(0 -0.025769 0 -0.025769 -0.139603 0 0 0 0)
(0 -0.0258434 0 -0.0258434 -0.138404 0 0 0 0)
(0 -0.0259177 0 -0.0259177 -0.137188 0 0 0 0)
(0 -0.0259793 0 -0.0259793 -0.135937 0 0 0 0)
(0 -0.026024 0 -0.026024 -0.13466 0 0 0 0)
(0 -0.026051 0 -0.026051 -0.133358 0 0 0 0)
(0 -0.026057 0 -0.026057 -0.13204 0 0 0 0)
(0 -0.0260295 0 -0.0260295 -0.130676 0 0 0 0)
(0 -0.0259796 0 -0.0259796 -0.129284 0 0 0 0)
(0 -0.0259206 0 -0.0259206 -0.127894 0 0 0 0)
(0 -0.0258416 0 -0.0258416 -0.126463 0 0 0 0)
(0 -0.0257527 0 -0.0257527 -0.125027 0 0 0 0)
(0 -0.0256554 0 -0.0256554 -0.123565 0 0 0 0)
(0 -0.0255592 0 -0.0255592 -0.122106 0 0 0 0)
(0 -0.0254595 0 -0.0254595 -0.120631 0 0 0 0)
(0 -0.0253531 0 -0.0253531 -0.119142 0 0 0 0)
(0 -0.0252405 0 -0.0252405 -0.117639 0 0 0 0)
(0 -0.0251223 0 -0.0251223 -0.116125 0 0 0 0)
(0 -0.0249941 0 -0.0249941 -0.114592 0 0 0 0)
(0 -0.0248559 0 -0.0248559 -0.113042 0 0 0 0)
(0 -0.0247097 0 -0.0247097 -0.111477 0 0 0 0)
(0 -0.0245562 0 -0.0245562 -0.109898 0 0 0 0)
(0 -0.0243972 0 -0.0243972 -0.108307 0 0 0 0)
(0 -0.0242338 0 -0.0242338 -0.106704 0 0 0 0)
(0 -0.0240681 0 -0.0240681 -0.105094 0 0 0 0)
(0 -0.0239001 0 -0.0239001 -0.103475 0 0 0 0)
(0 -0.0237289 0 -0.0237289 -0.101848 0 0 0 0)
(0 -0.0235541 0 -0.0235541 -0.100212 0 0 0 0)
(0 -0.0233751 0 -0.0233751 -0.098569 0 0 0 0)
(0 -0.0231905 0 -0.0231905 -0.0969167 0 0 0 0)
(0 -0.0230001 0 -0.0230001 -0.0952561 0 0 0 0)
(0 -0.0228041 0 -0.0228041 -0.0935876 0 0 0 0)
(0 -0.0226028 0 -0.0226028 -0.0919115 0 0 0 0)
(0 -0.0223966 0 -0.0223966 -0.0902287 0 0 0 0)
(0 -0.0221861 0 -0.0221861 -0.0885395 0 0 0 0)
(0 -0.0219715 0 -0.0219715 -0.0868446 0 0 0 0)
(0 -0.0217531 0 -0.0217531 -0.0851441 0 0 0 0)
(0 -0.0215309 0 -0.0215309 -0.0834383 0 0 0 0)
(0 -0.021305 0 -0.021305 -0.0817275 0 0 0 0)
(0 -0.0210754 0 -0.0210754 -0.0800116 0 0 0 0)
(0 -0.0208422 0 -0.0208422 -0.078291 0 0 0 0)
(0 -0.0206054 0 -0.0206054 -0.076566 0 0 0 0)
(0 -0.0203653 0 -0.0203653 -0.0748366 0 0 0 0)
(0 -0.0201219 0 -0.0201219 -0.073103 0 0 0 0)
(0 -0.0198753 0 -0.0198753 -0.0713656 0 0 0 0)
(0 -0.0196258 0 -0.0196258 -0.0696243 0 0 0 0)
(0 -0.0193733 0 -0.0193733 -0.0678794 0 0 0 0)
(0 -0.0191181 0 -0.0191181 -0.066131 0 0 0 0)
(0 -0.0188603 0 -0.0188603 -0.0643791 0 0 0 0)
(0 -0.0186002 0 -0.0186002 -0.062624 0 0 0 0)
(0 -0.0183381 0 -0.0183381 -0.0608656 0 0 0 0)
(0 -0.0180742 0 -0.0180742 -0.0591041 0 0 0 0)
(0 -0.0178089 0 -0.0178089 -0.0573395 0 0 0 0)
(0 -0.0175426 0 -0.0175426 -0.055572 0 0 0 0)
(0 -0.0172757 0 -0.0172757 -0.0538014 0 0 0 0)
(0 -0.0170087 0 -0.0170087 -0.0520278 0 0 0 0)
(0 -0.0167421 0 -0.0167421 -0.0502512 0 0 0 0)
(0 -0.0164761 0 -0.0164761 -0.0484714 0 0 0 0)
(0 -0.0162115 0 -0.0162115 -0.0466885 0 0 0 0)
(0 -0.0159486 0 -0.0159486 -0.0449022 0 0 0 0)
(0 -0.015688 0 -0.015688 -0.0431124 0 0 0 0)
(0 -0.0154302 0 -0.0154302 -0.0413189 0 0 0 0)
(0 -0.0151752 0 -0.0151752 -0.0395212 0 0 0 0)
(0 -0.0149224 0 -0.0149224 -0.0377187 0 0 0 0)
(0 -0.0146709 0 -0.0146709 -0.0359105 0 0 0 0)
(0 -0.0144194 0 -0.0144194 -0.0340954 0 0 0 0)
(0 -0.0141678 0 -0.0141678 -0.0322719 0 0 0 0)
(0 -0.0139179 0 -0.0139179 -0.0304383 0 0 0 0)
(0 -0.0136715 0 -0.0136715 -0.0285924 0 0 0 0)
(0 -0.0134252 0 -0.0134252 -0.0267315 0 0 0 0)
(0 -0.0131677 0 -0.0131677 -0.0248525 0 0 0 0)
(0 -0.0128902 0 -0.0128902 -0.0229527 0 0 0 0)
(0 -0.0126006 0 -0.0126006 -0.0210296 0 0 0 0)
(0 -0.0123108 0 -0.0123108 -0.0190809 0 0 0 0)
(0 -0.011998 0 -0.011998 -0.0171173 0 0 0 0)
(0 -0.0115928 0 -0.0115928 -0.015179 0 0 0 0)
(0 -0.0110551 0 -0.0110551 -0.0132852 0 0 0 0)
(0 -0.0105006 0 -0.0105006 -0.0113619 0 0 0 0)
(0 -0.0100799 0 -0.0100799 -0.00937403 0 0 0 0)
(0 -0.00955487 0 -0.00955487 -0.00718127 0 0 0 0)
(0 -0.0088337 0 -0.0088337 -0.00459736 0 0 0 0)
(0 -0.00793873 0 -0.00793873 -0.000507334 0 0 0 0)
(0 -0.00588708 0 -0.00588708 0.00289367 0 0 0 0)
(0 -0.00265165 0 -0.00265165 -3.40655e-05 0 0 0 0)
(0 -0.00159536 0 -0.00159536 -1.04911e-05 0 0 0 0)
(0 -0.00251161 0 -0.00251161 -9.61621e-06 0 0 0 0)
(0 -0.00256801 0 -0.00256801 -4.20287e-06 0 0 0 0)
(0 -0.00217074 0 -0.00217074 -2.77257e-06 0 0 0 0)
(0 -0.00194212 0 -0.00194212 -1.5892e-06 0 0 0 0)
(0 -0.00183682 0 -0.00183682 -9.04415e-07 0 0 0 0)
(0 -0.0018249 0 -0.0018249 2.02853e-07 0 0 0 0)
(0 -0.00188699 0 -0.00188699 1.83301e-06 0 0 0 0)
(0 -0.00201108 0 -0.00201108 4.21744e-06 0 0 0 0)
(0 -0.00218987 0 -0.00218987 7.64516e-06 0 0 0 0)
(0 -0.00241924 0 -0.00241924 1.24541e-05 0 0 0 0)
(0 -0.00269726 0 -0.00269726 1.90253e-05 0 0 0 0)
(0 -0.00302349 0 -0.00302349 2.77883e-05 0 0 0 0)
(0 -0.00339858 0 -0.00339858 3.92316e-05 0 0 0 0)
(0 -0.00382389 0 -0.00382389 5.39085e-05 0 0 0 0)
(0 -0.00430128 0 -0.00430128 7.24421e-05 0 0 0 0)
(0 -0.00483286 0 -0.00483286 9.55475e-05 0 0 0 0)
(0 -0.00542083 0 -0.00542083 0.000124043 0 0 0 0)
(0 -0.00606735 0 -0.00606735 0.000158852 0 0 0 0)
(0 -0.00677439 0 -0.00677439 0.000201017 0 0 0 0)
(0 -0.00754359 0 -0.00754359 0.000251714 0 0 0 0)
(0 -0.00837616 0 -0.00837616 0.000312258 0 0 0 0)
(0 -0.00927274 0 -0.00927274 0.000384122 0 0 0 0)
(0 -0.0102333 0 -0.0102333 0.000468936 0 0 0 0)
(0 -0.0112569 0 -0.0112569 0.000568497 0 0 0 0)
(0 -0.012342 0 -0.012342 0.000684761 0 0 0 0)
(0 -0.0134858 0 -0.0134858 0.000819833 0 0 0 0)
(0 -0.0146847 0 -0.0146847 0.000975943 0 0 0 0)
(0 -0.0159338 0 -0.0159338 0.00115542 0 0 0 0)
(0 -0.0172276 0 -0.0172276 0.00136058 0 0 0 0)
(0 -0.0185593 0 -0.0185593 0.00159334 0 0 0 0)
(0 -0.0199228 0 -0.0199228 0.00185389 0 0 0 0)
(0 -0.0213141 0 -0.0213141 0.00213792 0 0 0 0)
(0 -0.022736 0 -0.022736 0.00243238 0 0 0 0)
(0 -0.0242038 0 -0.0242038 0.00271134 0 0 0 0)
(0 -0.0257492 0 -0.0257492 0.00293529 0 0 0 0)
(0 -0.027418 0 -0.027418 0.00305675 0 0 0 0)
(0 -0.0292594 0 -0.0292594 0.0030326 0 0 0 0)
(0 -0.0313064 0 -0.0313064 0.00283941 0 0 0 0)
(0 -0.0335576 0 -0.0335576 0.00248556 0 0 0 0)
(0 -0.0359661 0 -0.0359661 0.00201374 0 0 0 0)
(0 -0.038447 0 -0.038447 0.00149129 0 0 0 0)
(0 -0.040897 0 -0.040897 0.000993725 0 0 0 0)
(0 -0.0432115 0 -0.0432115 0.000590389 0 0 0 0)
(0 -0.0453034 0 -0.0453034 0.000326065 0 0 0 0)
(0 -0.0471674 0 -0.0471674 0.000185127 0 0 0 0)
(0 -0.0489487 0 -0.0489487 6.89068e-05 0 0 0 0)
(0 -0.0508727 0 -0.0508727 -0.000154407 0 0 0 0)
(0 -0.0530486 0 -0.0530486 -0.000552796 0 0 0 0)
(0 -0.055386 0 -0.055386 -0.00108857 0 0 0 0)
(0 -0.0577032 0 -0.0577032 -0.00167028 0 0 0 0)
(0 -0.0598765 0 -0.0598765 -0.00223317 0 0 0 0)
(0 -0.0618771 0 -0.0618771 -0.00275991 0 0 0 0)
(0 -0.0636516 0 -0.0636516 -0.0032295 0 0 0 0)
(0 -0.0651252 0 -0.0651252 -0.00361539 0 0 0 0)
(5.72664e-15 -0.0663947 0 -0.0663947 -0.00397042 0 0 0 0)
(0 -0.0676362 0 -0.0676362 -0.00436186 0 0 0 0)
(0 -0.0685759 0 -0.0685759 -0.00469041 0 0 0 0)
(-1.3876e-14 -0.0690341 0 -0.0690341 -0.00490054 0 0 0 0)
(0 -0.0694799 0 -0.0694799 -0.00517864 0 0 0 0)
(1.52919e-14 -0.0698554 0 -0.0698554 -0.00552248 0 0 0 0)
(0 -0.0696799 0 -0.0696799 -0.00573493 0 0 0 0)
(-1.63516e-14 -0.0692716 0 -0.0692716 -0.00592683 0 0 0 0)
(0 -0.0688402 0 -0.0688402 -0.00621707 0 0 0 0)
(0 -0.0680747 0 -0.0680747 -0.00648024 0 0 0 0)
(0 -0.0671245 0 -0.0671245 -0.0067617 0 0 0 0)
(0 -0.0660573 0 -0.0660573 -0.00709096 0 0 0 0)
(0 -0.064654 0 -0.064654 -0.00735745 0 0 0 0)
(0 -0.0632388 0 -0.0632388 -0.00774589 0 0 0 0)
(0 -0.0617991 0 -0.0617991 -0.00823925 0 0 0 0)
(0 -0.059885 0 -0.059885 -0.00852542 0 0 0 0)
(0 -0.0579037 0 -0.0579037 -0.00886272 0 0 0 0)
(1.68097e-14 -0.0560252 0 -0.0560252 -0.00940351 0 0 0 0)
(0 -0.0538768 0 -0.0538768 -0.00984259 0 0 0 0)
(1.60713e-14 -0.0515699 0 -0.0515699 -0.0102294 0 0 0 0)
(0 -0.0491905 0 -0.0491905 -0.0106473 0 0 0 0)
(1.51643e-14 -0.0468116 0 -0.0468116 -0.0111754 0 0 0 0)
(0 -0.0444467 0 -0.0444467 -0.0118159 0 0 0 0)
(0 -0.0418622 0 -0.0418622 -0.0123013 0 0 0 0)
(0 -0.0392772 0 -0.0392772 -0.0128882 0 0 0 0)
(0 -0.0367342 0 -0.0367342 -0.0136439 0 0 0 0)
(-1.23118e-14 -0.0339871 0 -0.0339871 -0.0142294 0 0 0 0)
(-1.16441e-14 -0.0311478 0 -0.0311478 -0.0148071 0 0 0 0)
(0 -0.0283136 0 -0.0283136 -0.0155463 0 0 0 0)
(0 -0.0255451 0 -0.0255451 -0.0166308 0 0 0 0)
(0 -0.022742 0 -0.022742 -0.0180881 0 0 0 0)
(0 -0.0191238 0 -0.0191238 -0.0181385 0 0 0 0)
(0 -0.0143476 0 -0.0143476 -0.0153922 0 0 0 0)
(0 -0.0112806 0 -0.0112806 -0.0149358 0 0 0 0)
(0 -0 0 -0 -0 0 0 0 0)
(0 -0 0 -0 -0 0 0 0 0)
(0 0 0 0 -0 0 0 0 0)
(0 0 0 0 -0 0 0 0 0)
(0 0 0 0 -0 0 0 0 0)
(0 0 0 0 0 0 0 0 0)
(0 0 0 0 -0 0 0 0 0)
(0 0 0 0 0 0 0 0 0)
(-0 0 0 0 0 0 0 0 0)
(0 0 0 0 0 0 0 0 0)
(0 0 0 0 0 0 0 0 0)
(0 0 0 0 0 0 0 0 0)
(0 0 0 0 0 0 0 0 0)
(0 0 0 0 0 0 0 0 0)
(0 0 0 0 0 0 0 0 0)
(0 0 0 0 0 0 0 0 0)
(0 0 0 0 -0 0 0 0 0)
(0 0 0 0 0 0 0 0 0)
(0 0 0 0 -0 0 0 0 0)
(0 0 0 0 0 0 0 0 0)
(0 0 0 0 -0 0 0 0 0)
(0 0 0 0 0 0 0 0 0)
(0 0 0 0 -0 0 0 0 0)
(0 0 0 0 0 0 0 0 0)
(0 0 0 0 -0 0 0 0 0)
(0 0 0 0 0 0 0 0 0)
(0 0 0 0 -0 0 0 0 0)
(0 0 0 0 0 0 0 0 0)
(0 0 0 0 -0 0 0 0 0)
(0 0 0 0 0 0 0 0 0)
(-0 0 0 0 -0 0 0 0 0)
(0 0 0 0 0 0 0 0 0)
(0 0 0 0 -0 0 0 0 0)
(0 0 0 0 -0 0 0 0 0)
(0 0 0 0 0 0 0 0 0)
(0 0 0 0 -0 0 0 0 0)
(0 0 0 0 -0 0 0 0 0)
(0 0 0 0 0 0 0 0 0)
(0 0 0 0 -0 0 0 0 0)
(0 0 0 0 0 0 0 0 0)
(0 0 0 0 -0 0 0 0 0)
(0 0 0 0 0 0 0 0 0)
(0 0 0 0 -0 0 0 0 0)
(0 0 0 0 0 0 0 0 0)
(0 0 0 0 -0 0 0 0 0)
(0 0 0 0 0 0 0 0 0)
(0 0 0 0 -0 0 0 0 0)
(0 0 0 0 0 0 0 0 0)
(0 0 0 0 -0 0 0 0 0)
(0 0 0 0 0 0 0 0 0)
(-0 0 0 0 -0 0 0 0 0)
(0 0 0 0 0 0 0 0 0)
(0 0 0 0 -0 0 0 0 0)
(0 0 0 0 0 0 0 0 0)
(0 0 0 0 -0 0 0 0 0)
(0 0 0 0 0 0 0 0 0)
(0 0 0 0 -0 0 0 0 0)
(0 0 0 0 0 0 0 0 0)
(0 0 0 0 -0 0 0 0 0)
(0 0 0 0 0 0 0 0 0)
(-0 0 0 0 -0 0 0 0 0)
(0 0 0 0 0 0 0 0 0)
(0 0 0 0 -0 0 0 0 0)
(0 -0 0 -0 0 0 0 0 0)
(0 0 0 0 -0 0 0 0 0)
(0 0 0 0 0 0 0 0 0)
(0 -0 0 -0 -0 0 0 0 0)
(0 0 0 0 0 0 0 0 0)
(0 -0 0 -0 -0 0 0 0 0)
(0 -0 0 -0 0 0 0 0 0)
(0 0 0 0 -0 0 0 0 0)
(0 0 0 0 0 0 0 0 0)
(0 -0 0 -0 -0 0 0 0 0)
(0 -0 0 -0 0 0 0 0 0)
(0 -0 0 -0 -0 0 0 0 0)
(0 -0 0 -0 0 0 0 0 0)
(0 -0 0 -0 -0 0 0 0 0)
(0 0 0 0 0 0 0 0 0)
(0 0 0 0 -0 0 0 0 0)
(0 0 0 0 0 0 0 0 0)
(0 -0 0 -0 -0 0 0 0 0)
(0 0 0 0 0 0 0 0 0)
(0 0 0 0 -0 0 0 0 0)
(0 -0 0 -0 0 0 0 0 0)
(0 -0 0 -0 -0 0 0 0 0)
(0 0 0 0 0 0 0 0 0)
(0 0 0 0 -0 0 0 0 0)
(0 0 0 0 0 0 0 0 0)
(0 0 0 0 -0 0 0 0 0)
(0 0 0 0 0 0 0 0 0)
(0 -0 0 -0 -0 0 0 0 0)
(0 0 0 0 0 0 0 0 0)
(0 -0 0 -0 -0 0 0 0 0)
(0 -0 0 -0 0 0 0 0 0)
(0 -0 0 -0 -0 0 0 0 0)
(0 0 0 0 0 0 0 0 0)
(0 0 0 0 -0 0 0 0 0)
(0 0 0 0 0 0 0 0 0)
(0 0 0 0 -0 0 0 0 0)
(0 0 0 0 0 0 0 0 0)
(0 -0 0 -0 -0 0 0 0 0)
(0 -0 0 -0 0 0 0 0 0)
(0 -0 0 -0 -0 0 0 0 0)
(0 -0 0 -0 0 0 0 0 0)
(0 -0 0 -0 -0 0 0 0 0)
(0 0 0 0 0 0 0 0 0)
(0 0 0 0 -0 0 0 0 0)
(0 0 0 0 0 0 0 0 0)
(0 0 0 0 -0 0 0 0 0)
(0 0 0 0 0 0 0 0 0)
(0 0 0 0 -0 0 0 0 0)
(0 0 0 0 0 0 0 0 0)
(0 -0 0 -0 -0 0 0 0 0)
(0 -0 0 -0 0 0 0 0 0)
(0 0 0 0 -0 0 0 0 0)
(0 0 0 0 0 0 0 0 0)
(0 0 0 0 -0 0 0 0 0)
(0 -0 0 -0 0 0 0 0 0)
(0 -0 0 -0 0 0 0 0 0)
(0 -0 0 -0 0 0 0 0 0)
(0 -0 0 -0 0 0 0 0 0)
(0 -0 0 -0 0 0 0 0 0)
(0 -0 0 -0 0 0 0 0 0)
(0 -0 0 -0 0 0 0 0 0)
)
;

boundaryField
{
    inandouthalf11
    {
        type            cyclic;
    }
    inandouthalf12
    {
        type            cyclic;
    }
    inandouthalf21
    {
        type            cyclic;
    }
    inandouthalf22
    {
        type            cyclic;
    }
    inandouthalf31
    {
        type            cyclic;
    }
    inandouthalf32
    {
        type            cyclic;
    }
    inandouthalf41
    {
        type            cyclic;
    }
    inandouthalf42
    {
        type            cyclic;
    }
    top
    {
        type            symmetryPlane;
    }
    walls
    {
        type            zeroGradient;
    }
    frontAndBackPlanes
    {
        type            empty;
    }
}


// ************************************************************************* //
