/*--------------------------------*- C++ -*----------------------------------*\
| =========                 |                                                 |
| \\      /  F ield         | OpenFOAM: The Open Source CFD Toolbox           |
|  \\    /   O peration     | Version:  2.4.x                                 |
|   \\  /    A nd           | Web:      www.OpenFOAM.org                      |
|    \\/     M anipulation  |                                                 |
\*---------------------------------------------------------------------------*/
FoamFile
{
    version     2.0;
    format      ascii;
    class       volScalarField;
    location    "5.1";
    object      Theta_0;
}
// * * * * * * * * * * * * * * * * * * * * * * * * * * * * * * * * * * * * * //

dimensions      [0 2 -2 0 0 0 0];

internalField   nonuniform List<scalar> 
360
(
6.66891e-21
6.68896e-21
6.6826e-21
6.67908e-21
6.67979e-21
6.681e-21
6.68167e-21
6.68198e-21
6.68215e-21
6.68234e-21
6.68263e-21
6.68298e-21
6.68335e-21
6.68369e-21
6.684e-21
6.68432e-21
6.68464e-21
6.68497e-21
6.68531e-21
6.68568e-21
6.68609e-21
6.68655e-21
6.68709e-21
6.68771e-21
6.68841e-21
6.68915e-21
6.6899e-21
6.69057e-21
6.69106e-21
6.69122e-21
6.69098e-21
6.69033e-21
6.68933e-21
6.68822e-21
6.68729e-21
6.68694e-21
6.68771e-21
6.6903e-21
6.69585e-21
6.70625e-21
6.72432e-21
6.75218e-21
6.78482e-21
6.80069e-21
6.77404e-21
6.7186e-21
6.67798e-21
6.664e-21
6.66159e-21
6.66137e-21
6.66135e-21
6.66135e-21
6.66135e-21
6.66135e-21
6.66135e-21
6.66135e-21
6.66135e-21
6.66135e-21
6.66135e-21
6.66135e-21
6.66135e-21
6.66135e-21
6.66135e-21
6.66135e-21
6.66135e-21
6.66135e-21
6.66134e-21
6.66134e-21
6.66134e-21
6.66134e-21
6.66134e-21
6.66134e-21
6.66134e-21
6.66134e-21
6.66134e-21
6.66134e-21
6.66134e-21
6.66134e-21
6.66133e-21
6.66133e-21
6.66133e-21
6.66133e-21
6.66133e-21
6.66133e-21
6.66133e-21
6.66133e-21
6.66133e-21
6.66132e-21
6.66132e-21
6.66132e-21
6.66132e-21
6.66132e-21
6.66132e-21
6.66132e-21
6.66132e-21
6.66131e-21
6.66131e-21
6.66131e-21
6.66131e-21
6.66131e-21
6.66131e-21
6.6613e-21
6.6613e-21
6.6613e-21
6.6613e-21
6.6613e-21
6.6613e-21
6.66129e-21
6.66129e-21
6.66129e-21
6.66129e-21
6.66129e-21
6.66128e-21
6.66128e-21
6.66128e-21
6.66128e-21
6.66127e-21
6.66127e-21
6.66127e-21
6.66127e-21
6.66126e-21
6.66126e-21
6.66126e-21
6.66126e-21
6.66125e-21
6.66125e-21
6.66125e-21
6.66124e-21
6.66124e-21
6.66123e-21
6.66123e-21
6.66127e-21
1.50227e-20
7.41268e-20
4.08524e-19
2.40765e-18
1.5421e-17
1.09444e-16
8.77427e-16
8.08806e-15
8.70214e-14
1.10802e-12
1.6965e-11
3.20276e-10
1.01412e-08
7.00237e-07
2.14943e-05
0.000297261
0.00160251
0.00284143
0.00344007
0.00384119
0.00415061
0.00440891
0.00463129
0.0048228
0.00498489
0.00511832
0.00522422
0.00530427
0.00536057
0.0053954
0.00541104
0.00540967
0.00539331
0.0053638
0.00532278
0.00527177
0.00521211
0.00514506
0.00507176
0.00499328
0.00491062
0.00482471
0.00473642
0.0046466
0.00455601
0.00446536
0.00437534
0.00428654
0.00419949
0.00411465
0.0040324
0.00395301
0.00387664
0.00380338
0.00373319
0.00366599
0.00360162
0.00353994
0.00348077
0.00342394
0.00336929
0.00331666
0.00326586
0.00321673
0.00316907
0.00312268
0.00307738
0.00303302
0.00298945
0.0029461
0.00290245
0.00285839
0.00281383
0.00276866
0.0027228
0.00267615
0.0026286
0.00258007
0.00253046
0.00247967
0.00242761
0.00237416
0.00231923
0.0022627
0.00220445
0.00214437
0.00208232
0.00201814
0.00195169
0.00188279
0.00181123
0.00173678
0.0016592
0.00157816
0.00149331
0.00140421
0.00131031
0.00121092
0.00110512
0.000991685
0.00086881
0.000733699
0.000581434
0.00040132
0
0
0
0
0
0
0
0
0
0
0
0
0
0
0
0
0
0
0
0
0
0
0
0
0
0
0
0
0
0
0
0
0
0
0
0
0
0
0
0
0
0
0
0
0
0
0
0
0
0
0
0
0
0
0
0
0
0
0
0
0
0
0
0
0
0
0
0
0
0
0
0
0
0
0
0
0
0
0
0
0
0
0
0
0
0
0
0
0
0
0
0
0
0
0
0
0
0
0
0
0
0
0
0
0
0
0
0
0
0
0
0
0
0
0
0
0
0
0
0
0
0
0
0
)
;

boundaryField
{
    inandouthalf11
    {
        type            cyclic;
    }
    inandouthalf12
    {
        type            cyclic;
    }
    inandouthalf21
    {
        type            cyclic;
    }
    inandouthalf22
    {
        type            cyclic;
    }
    inandouthalf31
    {
        type            cyclic;
    }
    inandouthalf32
    {
        type            cyclic;
    }
    inandouthalf41
    {
        type            cyclic;
    }
    inandouthalf42
    {
        type            cyclic;
    }
    top
    {
        type            symmetryPlane;
    }
    walls
    {
        type            zeroGradient;
    }
    frontAndBackPlanes
    {
        type            empty;
    }
}


// ************************************************************************* //
