/*--------------------------------*- C++ -*----------------------------------*\
| =========                 |                                                 |
| \\      /  F ield         | OpenFOAM: The Open Source CFD Toolbox           |
|  \\    /   O peration     | Version:  2.4.x                                 |
|   \\  /    A nd           | Web:      www.OpenFOAM.org                      |
|    \\/     M anipulation  |                                                 |
\*---------------------------------------------------------------------------*/
FoamFile
{
    version     2.0;
    format      ascii;
    class       volVectorField;
    location    "5.1";
    object      U;
}
// * * * * * * * * * * * * * * * * * * * * * * * * * * * * * * * * * * * * * //

dimensions      [0 1 -1 0 0 0 0];

internalField   nonuniform List<vector> 
360
(
(3.03236e-07 3.67826e-08 0)
(2.63414e-07 -3.97366e-09 0)
(2.1773e-07 -7.55704e-09 0)
(1.77702e-07 -1.1145e-09 0)
(1.38401e-07 1.17541e-09 0)
(9.75563e-08 7.95198e-10 0)
(5.54053e-08 3.02857e-10 0)
(1.24545e-08 1.2036e-10 0)
(-3.10435e-08 9.16439e-11 0)
(-7.50326e-08 1.48117e-10 0)
(-1.1959e-07 2.17296e-10 0)
(-1.64814e-07 2.42673e-10 0)
(-2.10748e-07 2.3272e-10 0)
(-2.57393e-07 2.08732e-10 0)
(-3.04726e-07 1.94634e-10 0)
(-3.52737e-07 1.95177e-10 0)
(-4.01436e-07 2.00514e-10 0)
(-4.5084e-07 2.08111e-10 0)
(-5.0097e-07 2.16982e-10 0)
(-5.51855e-07 2.37133e-10 0)
(-6.03533e-07 2.57992e-10 0)
(-6.56056e-07 3.02286e-10 0)
(-7.09507e-07 3.5124e-10 0)
(-7.63976e-07 3.97045e-10 0)
(-8.19554e-07 4.3258e-10 0)
(-8.76313e-07 4.46194e-10 0)
(-9.34289e-07 4.2004e-10 0)
(-9.93457e-07 3.44598e-10 0)
(-1.0537e-06 1.8859e-10 0)
(-1.11476e-06 -3.14746e-11 0)
(-1.17627e-06 -2.92627e-10 0)
(-1.23781e-06 -5.25612e-10 0)
(-1.29896e-06 -7.09908e-10 0)
(-1.35943e-06 -6.98661e-10 0)
(-1.41923e-06 -4.9991e-10 0)
(-1.47875e-06 1.90984e-11 0)
(-1.53895e-06 8.9009e-10 0)
(-1.60148e-06 2.19923e-09 0)
(-1.66882e-06 4.05165e-09 0)
(-1.74448e-06 6.43039e-09 0)
(-1.83303e-06 9.18685e-09 0)
(-1.9396e-06 1.09856e-08 0)
(-2.06729e-06 8.90233e-09 0)
(-2.21166e-06 -2.9536e-10 0)
(-2.35489e-06 -1.46893e-08 0)
(-2.46997e-06 -2.37936e-08 0)
(-2.53993e-06 -2.04349e-08 0)
(-2.57088e-06 -1.08227e-08 0)
(-2.58086e-06 -3.80387e-09 0)
(-2.58332e-06 -9.48577e-10 0)
(-2.58381e-06 -2.30363e-10 0)
(-2.58388e-06 -4.89102e-11 0)
(-2.58386e-06 -3.5109e-11 0)
(-2.58381e-06 -7.58001e-12 0)
(-2.58376e-06 -4.19397e-11 0)
(-2.58369e-06 -1.59343e-13 0)
(-2.58363e-06 -3.65497e-11 0)
(-2.58356e-06 -1.25039e-11 0)
(-2.58348e-06 -9.64739e-12 0)
(-2.58341e-06 -4.01712e-11 0)
(-2.58332e-06 3.91302e-12 0)
(-2.58324e-06 -2.62273e-11 0)
(-2.58315e-06 -5.13387e-13 0)
(-2.58307e-06 -1.20206e-11 0)
(-2.58298e-06 -6.40094e-12 0)
(-2.58289e-06 -1.8853e-11 0)
(-2.5828e-06 -1.67599e-11 0)
(-2.5827e-06 -1.64213e-11 0)
(-2.5826e-06 -1.46919e-11 0)
(-2.58249e-06 -3.62652e-11 0)
(-2.58238e-06 -2.34454e-11 0)
(-2.58227e-06 -3.59739e-12 0)
(-2.58215e-06 -3.29666e-11 0)
(-2.58203e-06 -1.02528e-11 0)
(-2.58191e-06 -2.1657e-11 0)
(-2.58178e-06 -3.52074e-12 0)
(-2.58165e-06 -1.53308e-11 0)
(-2.58152e-06 -1.68654e-11 0)
(-2.58138e-06 -1.77027e-11 0)
(-2.58124e-06 -1.50063e-11 0)
(-2.5811e-06 -2.34242e-11 0)
(-2.58095e-06 -2.25404e-11 0)
(-2.5808e-06 -2.11128e-11 0)
(-2.58065e-06 -2.22636e-11 0)
(-2.58049e-06 -1.98566e-11 0)
(-2.58033e-06 -2.09536e-11 0)
(-2.58016e-06 -1.77256e-11 0)
(-2.57999e-06 -1.88456e-11 0)
(-2.57982e-06 -2.0549e-11 0)
(-2.57965e-06 -2.09733e-11 0)
(-2.57947e-06 -2.21635e-11 0)
(-2.57928e-06 -2.4807e-11 0)
(-2.5791e-06 -2.54223e-11 0)
(-2.5789e-06 -2.62129e-11 0)
(-2.57871e-06 -2.69894e-11 0)
(-2.57851e-06 -2.75112e-11 0)
(-2.5783e-06 -2.79859e-11 0)
(-2.57809e-06 -2.87676e-11 0)
(-2.57787e-06 -2.9849e-11 0)
(-2.57765e-06 -3.09063e-11 0)
(-2.57742e-06 -3.22061e-11 0)
(-2.57719e-06 -3.36671e-11 0)
(-2.57695e-06 -3.50296e-11 0)
(-2.5767e-06 -3.6449e-11 0)
(-2.57645e-06 -3.7984e-11 0)
(-2.57619e-06 -3.95834e-11 0)
(-2.57593e-06 -4.13033e-11 0)
(-2.57565e-06 -4.31649e-11 0)
(-2.57537e-06 -4.51356e-11 0)
(-2.57508e-06 -4.72137e-11 0)
(-2.57479e-06 -4.94007e-11 0)
(-2.57448e-06 -5.16899e-11 0)
(-2.57416e-06 -5.40886e-11 0)
(-2.57384e-06 -5.66042e-11 0)
(-2.57351e-06 -5.92391e-11 0)
(-2.57316e-06 -6.20043e-11 0)
(-2.5728e-06 -6.49211e-11 0)
(-2.57244e-06 -6.80098e-11 0)
(-2.57206e-06 -7.12797e-11 0)
(-2.57167e-06 -7.47258e-11 0)
(-2.57126e-06 -7.83259e-11 0)
(-2.57084e-06 -8.20503e-11 0)
(-2.57041e-06 -8.59362e-11 0)
(-2.56996e-06 -9.02183e-11 0)
(-2.5695e-06 -9.54138e-11 0)
(-2.56901e-06 -1.02219e-10 0)
(-2.56852e-06 -1.11043e-10 0)
(-2.568e-06 -1.21185e-10 0)
(-2.56746e-06 -1.3029e-10 0)
(-2.56689e-06 -1.35989e-10 0)
(-2.5663e-06 -1.41239e-10 0)
(-2.56569e-06 -1.59907e-10 0)
(-2.56504e-06 -2.04504e-10 0)
(-2.56436e-06 -2.50865e-10 0)
(-2.56363e-06 -2.47651e-10 0)
(-2.56286e-06 -2.18911e-10 0)
(-2.56204e-06 -2.88587e-10 0)
(-2.56117e-06 -5.47908e-10 0)
(-2.5602e-06 -8.33031e-10 0)
(-2.55909e-06 -5.29686e-10 0)
(-2.55787e-06 3.72671e-10 0)
(-2.55671e-06 -1.2787e-09 0)
(-2.55531e-06 -2.37381e-09 0)
(-2.55349e-06 -2.3477e-09 0)
(-2.55122e-06 -9.64435e-09 0)
(-2.54959e-06 1.075e-07 0)
(-5.03318e-06 -2.26443e-06 0)
(-0.00324812 3.37732e-06 0)
(-0.0918713 3.09958e-05 0)
(-0.190339 -9.33182e-06 0)
(-0.266608 1.47676e-06 0)
(-0.328539 1.08614e-06 0)
(-0.380231 5.37844e-07 0)
(-0.424192 2.47906e-07 0)
(-0.462141 9.47114e-08 0)
(-0.495326 -4.48837e-09 0)
(-0.524683 -6.81952e-08 0)
(-0.550928 -1.0411e-07 0)
(-0.574612 -1.20157e-07 0)
(-0.596169 -1.23393e-07 0)
(-0.615937 -1.19072e-07 0)
(-0.634187 -1.10381e-07 0)
(-0.651137 -9.98001e-08 0)
(-0.66696 -8.89965e-08 0)
(-0.681802 -7.86062e-08 0)
(-0.695779 -6.89655e-08 0)
(-0.708989 -6.02385e-08 0)
(-0.721514 -5.24656e-08 0)
(-0.733423 -4.56087e-08 0)
(-0.744774 -3.95994e-08 0)
(-0.755616 -3.43507e-08 0)
(-0.765991 -2.97772e-08 0)
(-0.775935 -2.57958e-08 0)
(-0.785479 -2.23293e-08 0)
(-0.79465 -1.9313e-08 0)
(-0.803469 -1.66905e-08 0)
(-0.811957 -1.44109e-08 0)
(-0.82013 -1.24161e-08 0)
(-0.828002 -1.06338e-08 0)
(-0.835585 -8.9813e-09 0)
(-0.842889 -7.40085e-09 0)
(-0.84992 -5.9044e-09 0)
(-0.856687 -4.58947e-09 0)
(-0.863193 -3.57463e-09 0)
(-0.869441 -2.88316e-09 0)
(-0.875434 -2.39205e-09 0)
(-0.881171 -1.91846e-09 0)
(-0.886652 -1.36125e-09 0)
(-0.891876 -7.86722e-10 0)
(-0.896841 -3.67752e-10 0)
(-0.901545 -1.62835e-10 0)
(-0.905985 -1.01504e-12 0)
(-0.910158 2.45173e-10 0)
(-0.914061 3.83789e-10 0)
(-0.917694 2.30588e-10 0)
(-0.921053 -1.95414e-11 0)
(-0.924139 -1.08048e-10 0)
(-0.926954 -3.12092e-11 0)
(-0.929501 6.65296e-11 0)
(-0.931784 6.16282e-11 0)
(-0.933811 -2.99923e-12 0)
(-0.935611 4.41353e-11 0)
(-0.9372 1.11372e-10 0)
(-0.93858 -1.45968e-11 0)
(-0.939753 -5.95729e-11 0)
(-0.940725 9.52843e-11 0)
(-0.941504 4.84358e-11 0)
(-0.942097 -7.17353e-11 0)
(-0.942514 2.26093e-11 0)
(-0.942765 4.84277e-11 0)
(-0.942859 -2.79887e-11 0)
(-0.942806 6.91523e-12 0)
(-0.942614 1.85716e-11 0)
(-0.94229 -2.31475e-11 0)
(-0.941841 1.5444e-11 0)
(-0.941273 1.68141e-11 0)
(-0.94059 -3.11634e-11 0)
(-0.939798 1.1315e-11 0)
(-0.938901 1.52411e-11 0)
(-0.937901 -1.68461e-11 0)
(-0.936802 3.57002e-12 0)
(-0.935607 6.83404e-13 0)
(-0.934318 -2.09888e-12 0)
(-0.932939 4.6446e-12 0)
(-0.931472 -8.88611e-12 0)
(-0.929919 2.35034e-12 0)
(-0.928284 1.74285e-12 0)
(-0.926569 -5.85377e-12 0)
(-0.924777 9.497e-13 0)
(-0.922911 -1.53525e-12 0)
(-0.920974 -8.49129e-13 0)
(-0.91897 -1.12596e-13 0)
(-0.916902 -2.07746e-12 0)
(-0.914776 -4.81874e-12 0)
(-0.912594 2.72578e-12 0)
(-0.910363 -7.99516e-12 0)
(-0.908089 4.32839e-13 0)
(-0.905777 5.8569e-11 0)
(-0.903436 9.04872e-12 0)
(-0.901075 5.89357e-12 0)
(-0.898705 4.45497e-12 0)
(-0.896339 -3.42271e-11 0)
(-0.893994 8.08256e-11 0)
(-0.891692 -1.61539e-10 0)
(-0.88946 2.67299e-10 0)
(-0.887337 -4.09715e-10 0)
(-0.885382 5.76008e-10 0)
(-0.883682 -7.72212e-10 0)
(-0.882574 9.81801e-10 0)
(-0.882341 -1.20784e-09 0)
(-0.88233 1.43677e-09 0)
(-0.882329 -1.67596e-09 0)
(-0.882329 1.91686e-09 0)
(-0.882328 -2.16776e-09 0)
(-0.882328 2.42122e-09 0)
(-0.882327 -2.68471e-09 0)
(-0.882327 2.95164e-09 0)
(-0.882327 -3.22864e-09 0)
(-0.882327 3.50994e-09 0)
(-0.882327 -3.80134e-09 0)
(-0.882327 4.09787e-09 0)
(-0.882326 -4.4045e-09 0)
(-0.882326 4.71706e-09 0)
(-0.882326 -5.03968e-09 0)
(-0.882326 5.36901e-09 0)
(-0.882326 -5.70838e-09 0)
(-0.882326 6.05514e-09 0)
(-0.882326 -6.41194e-09 0)
(-0.882326 6.77679e-09 0)
(-0.882326 -7.1517e-09 0)
(-0.882326 7.53522e-09 0)
(-0.882326 -7.92886e-09 0)
(-0.882326 8.33164e-09 0)
(-0.882326 -8.74459e-09 0)
(-0.882326 9.16719e-09 0)
(-0.882326 -9.60004e-09 0)
(-0.882326 1.0043e-08 0)
(-0.882326 -1.04964e-08 0)
(-0.882326 1.09603e-08 0)
(-0.882326 -1.14346e-08 0)
(-0.882326 1.19199e-08 0)
(-0.882326 -1.24158e-08 0)
(-0.882326 1.29231e-08 0)
(-0.882326 -1.34411e-08 0)
(-0.882326 1.39708e-08 0)
(-0.882326 -1.45113e-08 0)
(-0.882326 1.50639e-08 0)
(-0.882326 -1.56275e-08 0)
(-0.882326 1.62034e-08 0)
(-0.882326 -1.67906e-08 0)
(-0.882326 1.73902e-08 0)
(-0.882326 -1.80014e-08 0)
(-0.882326 1.86252e-08 0)
(-0.882326 -1.9261e-08 0)
(-0.882326 1.99094e-08 0)
(-0.882326 -2.057e-08 0)
(-0.882326 2.12435e-08 0)
(-0.882326 -2.19294e-08 0)
(-0.882326 2.26284e-08 0)
(-0.882326 -2.334e-08 0)
(-0.882326 2.40648e-08 0)
(-0.882326 -2.48024e-08 0)
(-0.882326 2.55534e-08 0)
(-0.882326 -2.63174e-08 0)
(-0.882326 2.70948e-08 0)
(-0.882326 -2.78853e-08 0)
(-0.882326 2.86895e-08 0)
(-0.882326 -2.95068e-08 0)
(-0.882326 3.03377e-08 0)
(-0.882326 -3.11819e-08 0)
(-0.882326 2.81223e-08 0)
(-0.882326 -2.83423e-08 0)
(-0.882326 2.856e-08 0)
(-0.882326 -2.8775e-08 0)
(-0.882326 2.89876e-08 0)
(-0.882326 -2.91975e-08 0)
(-0.882326 2.94049e-08 0)
(-0.882326 -2.96096e-08 0)
(-0.882326 2.98117e-08 0)
(-0.882326 -3.00111e-08 0)
(-0.882326 3.02078e-08 0)
(-0.882326 -3.04018e-08 0)
(-0.882326 3.0593e-08 0)
(-0.882326 -3.07815e-08 0)
(-0.882326 3.09672e-08 0)
(-0.882326 -3.115e-08 0)
(-0.882326 3.13299e-08 0)
(-0.882326 -3.1507e-08 0)
(-0.882326 3.1681e-08 0)
(-0.882326 -3.18523e-08 0)
(-0.882326 3.20202e-08 0)
(-0.882326 -3.21855e-08 0)
(-0.882326 3.23472e-08 0)
(-0.882326 -3.25064e-08 0)
(-0.882326 3.26616e-08 0)
(-0.882326 -3.28144e-08 0)
(-0.882326 3.2963e-08 0)
(-0.882326 -3.31093e-08 0)
(-0.882326 3.3251e-08 0)
(-0.882326 -3.33905e-08 0)
(-0.882326 3.35251e-08 0)
(-0.882326 -3.36573e-08 0)
(-0.882326 3.37846e-08 0)
(-0.882326 -3.39093e-08 0)
(-0.882326 3.40287e-08 0)
(-0.882326 -3.41455e-08 0)
(-0.882326 3.42567e-08 0)
(-0.882326 -3.4365e-08 0)
(-0.882326 3.44675e-08 0)
(-0.882326 -3.45667e-08 0)
(-0.882326 3.46595e-08 0)
(-0.882326 -3.47489e-08 0)
(-0.882326 3.48311e-08 0)
(-0.882326 -3.49095e-08 0)
(-0.882326 3.49796e-08 0)
(-0.882326 -3.50455e-08 0)
(-0.882326 3.51006e-08 0)
(-0.882326 -3.51514e-08 0)
(-0.882326 3.51859e-08 0)
(-0.882326 -3.52138e-08 0)
)
;

boundaryField
{
    inandouthalf11
    {
        type            cyclic;
    }
    inandouthalf12
    {
        type            cyclic;
    }
    inandouthalf21
    {
        type            cyclic;
    }
    inandouthalf22
    {
        type            cyclic;
    }
    inandouthalf31
    {
        type            cyclic;
    }
    inandouthalf32
    {
        type            cyclic;
    }
    inandouthalf41
    {
        type            cyclic;
    }
    inandouthalf42
    {
        type            cyclic;
    }
    top
    {
        type            symmetryPlane;
    }
    walls
    {
        type            calculated;
        value           uniform (0 0 0);
    }
    frontAndBackPlanes
    {
        type            empty;
    }
}


// ************************************************************************* //
