/*--------------------------------*- C++ -*----------------------------------*\
| =========                 |                                                 |
| \\      /  F ield         | OpenFOAM: The Open Source CFD Toolbox           |
|  \\    /   O peration     | Version:  2.4.x                                 |
|   \\  /    A nd           | Web:      www.OpenFOAM.org                      |
|    \\/     M anipulation  |                                                 |
\*---------------------------------------------------------------------------*/
FoamFile
{
    version     2.0;
    format      ascii;
    class       volVectorField;
    location    "5.1";
    object      Ur;
}
// * * * * * * * * * * * * * * * * * * * * * * * * * * * * * * * * * * * * * //

dimensions      [0 1 -1 0 0 0 0];

internalField   nonuniform List<vector> 
360
(
(7.78611e-07 9.44455e-08 0)
(7.75636e-07 5.95663e-07 0)
(7.74757e-07 1.13561e-06 0)
(7.75139e-07 1.61338e-06 0)
(7.75464e-07 2.08023e-06 0)
(7.75626e-07 2.55913e-06 0)
(7.75767e-07 3.04907e-06 0)
(7.75919e-07 3.54485e-06 0)
(7.76071e-07 4.04324e-06 0)
(7.7623e-07 4.54349e-06 0)
(7.76394e-07 5.04653e-06 0)
(7.7656e-07 5.55333e-06 0)
(7.76726e-07 6.0643e-06 0)
(7.76892e-07 6.57929e-06 0)
(7.77059e-07 7.09794e-06 0)
(7.77227e-07 7.62005e-06 0)
(7.77397e-07 8.14563e-06 0)
(7.77569e-07 8.67477e-06 0)
(7.77741e-07 9.20754e-06 0)
(7.77917e-07 9.74422e-06 0)
(7.7809e-07 1.0285e-05 0)
(7.78267e-07 1.08304e-05 0)
(7.78446e-07 1.1381e-05 0)
(7.78625e-07 1.19378e-05 0)
(7.78807e-07 1.25013e-05 0)
(7.78991e-07 1.30724e-05 0)
(7.79177e-07 1.3651e-05 0)
(7.79367e-07 1.42368e-05 0)
(7.79559e-07 1.48284e-05 0)
(7.79753e-07 1.54233e-05 0)
(7.79948e-07 1.60177e-05 0)
(7.80146e-07 1.66075e-05 0)
(7.80339e-07 1.71885e-05 0)
(7.80535e-07 1.77583e-05 0)
(7.80724e-07 1.83169e-05 0)
(7.80911e-07 1.88678e-05 0)
(7.81091e-07 1.94201e-05 0)
(7.81271e-07 1.99886e-05 0)
(7.81451e-07 2.05961e-05 0)
(7.81627e-07 2.12735e-05 0)
(7.81819e-07 2.20612e-05 0)
(7.82031e-07 2.30029e-05 0)
(7.82288e-07 2.41218e-05 0)
(7.82633e-07 2.53759e-05 0)
(7.83064e-07 2.66145e-05 0)
(7.83521e-07 2.76181e-05 0)
(7.83893e-07 2.8247e-05 0)
(7.84121e-07 2.85415e-05 0)
(7.84258e-07 2.86442e-05 0)
(7.84364e-07 2.86713e-05 0)
(7.84455e-07 2.86765e-05 0)
(7.84555e-07 2.86768e-05 0)
(7.84659e-07 2.8676e-05 0)
(7.84772e-07 2.86748e-05 0)
(7.84888e-07 2.86735e-05 0)
(7.85018e-07 2.86722e-05 0)
(7.8515e-07 2.86706e-05 0)
(7.85295e-07 2.86691e-05 0)
(7.85446e-07 2.86674e-05 0)
(7.85601e-07 2.86656e-05 0)
(7.8577e-07 2.86639e-05 0)
(7.8594e-07 2.86619e-05 0)
(7.8612e-07 2.866e-05 0)
(7.86301e-07 2.8658e-05 0)
(7.86488e-07 2.8656e-05 0)
(7.86679e-07 2.86539e-05 0)
(7.86877e-07 2.86518e-05 0)
(7.87082e-07 2.86495e-05 0)
(7.87293e-07 2.86472e-05 0)
(7.87511e-07 2.86448e-05 0)
(7.87741e-07 2.86423e-05 0)
(7.8798e-07 2.86398e-05 0)
(7.88222e-07 2.86371e-05 0)
(7.88476e-07 2.86344e-05 0)
(7.88734e-07 2.86315e-05 0)
(7.89001e-07 2.86287e-05 0)
(7.89271e-07 2.86257e-05 0)
(7.89546e-07 2.86227e-05 0)
(7.89829e-07 2.86196e-05 0)
(7.90118e-07 2.86165e-05 0)
(7.90414e-07 2.86132e-05 0)
(7.90719e-07 2.86099e-05 0)
(7.91032e-07 2.86066e-05 0)
(7.91353e-07 2.86031e-05 0)
(7.91683e-07 2.85995e-05 0)
(7.9202e-07 2.85958e-05 0)
(7.92366e-07 2.85921e-05 0)
(7.92718e-07 2.85883e-05 0)
(7.93078e-07 2.85844e-05 0)
(7.93446e-07 2.85804e-05 0)
(7.93821e-07 2.85764e-05 0)
(7.94205e-07 2.85722e-05 0)
(7.94599e-07 2.8568e-05 0)
(7.95001e-07 2.85637e-05 0)
(7.95414e-07 2.85592e-05 0)
(7.95836e-07 2.85547e-05 0)
(7.96268e-07 2.855e-05 0)
(7.96711e-07 2.85453e-05 0)
(7.97164e-07 2.85404e-05 0)
(7.97628e-07 2.85354e-05 0)
(7.98103e-07 2.85303e-05 0)
(7.98589e-07 2.85251e-05 0)
(7.99088e-07 2.85198e-05 0)
(7.99599e-07 2.85143e-05 0)
(8.00123e-07 2.85087e-05 0)
(8.0066e-07 2.85029e-05 0)
(8.01212e-07 2.8497e-05 0)
(8.01778e-07 2.8491e-05 0)
(8.02359e-07 2.84848e-05 0)
(8.02956e-07 2.84784e-05 0)
(8.0357e-07 2.84719e-05 0)
(8.04201e-07 2.84652e-05 0)
(8.0485e-07 2.84583e-05 0)
(8.05517e-07 2.84512e-05 0)
(8.06205e-07 2.84439e-05 0)
(8.06913e-07 2.84363e-05 0)
(8.07643e-07 2.84286e-05 0)
(8.08395e-07 2.84206e-05 0)
(8.09171e-07 2.84124e-05 0)
(8.09972e-07 2.8404e-05 0)
(8.10798e-07 2.83952e-05 0)
(8.11652e-07 2.83862e-05 0)
(8.12535e-07 2.8377e-05 0)
(8.13448e-07 2.83674e-05 0)
(8.14392e-07 2.83574e-05 0)
(8.15369e-07 2.83472e-05 0)
(8.16382e-07 2.83366e-05 0)
(8.17434e-07 2.83256e-05 0)
(8.18529e-07 2.83141e-05 0)
(8.19668e-07 2.83023e-05 0)
(8.20856e-07 2.82899e-05 0)
(8.22093e-07 2.82771e-05 0)
(8.23386e-07 2.82636e-05 0)
(8.2475e-07 2.82493e-05 0)
(8.26201e-07 2.82344e-05 0)
(8.27739e-07 2.82186e-05 0)
(8.29354e-07 2.82019e-05 0)
(8.31072e-07 2.81837e-05 0)
(8.32977e-07 2.81635e-05 0)
(8.35168e-07 2.8142e-05 0)
(8.37546e-07 2.81202e-05 0)
(8.39815e-07 2.80931e-05 0)
(8.42526e-07 2.80631e-05 0)
(8.46053e-07 2.80279e-05 0)
(8.50413e-07 2.79664e-05 0)
(8.52179e-07 2.81831e-05 0)
(-5.29671e-06 2.20735e-05 0)
(-0.0010368 6.69479e-05 0)
(-0.00911861 0.000468701 0)
(-0.00890951 0.00047471 0)
(-0.00730769 0.000538502 0)
(-0.00594205 0.000550556 0)
(-0.00498822 0.000553896 0)
(-0.00434131 0.000544743 0)
(-0.00392581 0.0005223 0)
(-0.0036923 0.000486215 0)
(-0.00360455 0.000436333 0)
(-0.00363468 0.000372581 0)
(-0.00376181 0.000295018 0)
(-0.00397134 0.000203845 0)
(-0.00425416 9.93827e-05 0)
(-0.00460556 -1.7985e-05 0)
(-0.00502429 -0.000147807 0)
(-0.00551168 -0.000289599 0)
(-0.00607098 -0.000442882 0)
(-0.00670681 -0.000607176 0)
(-0.0074247 -0.000782002 0)
(-0.00823081 -0.000966878 0)
(-0.0091316 -0.00116132 0)
(-0.0101337 -0.00136484 0)
(-0.0112434 -0.00157691 0)
(-0.0124671 -0.00179702 0)
(-0.0138104 -0.00202459 0)
(-0.0152783 -0.002259 0)
(-0.0168751 -0.00249956 0)
(-0.018604 -0.00274553 0)
(-0.0204673 -0.00299606 0)
(-0.0224655 -0.00325019 0)
(-0.024598 -0.00350671 0)
(-0.0268623 -0.00376391 0)
(-0.0292538 -0.00401903 0)
(-0.0317657 -0.00426767 0)
(-0.0343883 -0.00450354 0)
(-0.0371086 -0.00471888 0)
(-0.0399101 -0.00490594 0)
(-0.0427727 -0.00505898 0)
(-0.0456732 -0.00517585 0)
(-0.0485869 -0.00525854 0)
(-0.0514886 -0.00531226 0)
(-0.0543538 -0.00534391 0)
(-0.0571595 -0.00536051 0)
(-0.0598848 -0.00536833 0)
(-0.0625103 -0.00537204 0)
(-0.0650186 -0.00537393 0)
(-0.0673925 -0.00537377 0)
(-0.0696156 -0.00537018 0)
(-0.0716731 -0.00536239 0)
(-0.0735527 -0.00535079 0)
(-0.075246 -0.00533644 0)
(-0.076748 -0.00532027 0)
(-0.0780576 -0.00530297 0)
(-0.0791881 -0.00528505 0)
(-0.0801467 -0.00526686 0)
(-0.0809296 -0.00524831 0)
(-0.0815361 -0.00522931 0)
(-0.0819691 -0.00521047 0)
(-0.0822331 -0.0051919 0)
(-0.0823329 -0.0051729 0)
(-0.082276 -0.00515365 0)
(-0.0820708 -0.00513461 0)
(-0.0817244 -0.00511526 0)
(-0.081244 -0.00509539 0)
(-0.0806369 -0.00507516 0)
(-0.0799087 -0.00505412 0)
(-0.0790655 -0.0050323 0)
(-0.0781126 -0.0050098 0)
(-0.0770527 -0.00498559 0)
(-0.0758903 -0.00495992 0)
(-0.0746307 -0.00493346 0)
(-0.0732749 -0.00490497 0)
(-0.0718259 -0.00487421 0)
(-0.0702878 -0.00484165 0)
(-0.0686628 -0.00480679 0)
(-0.066954 -0.00476953 0)
(-0.0651628 -0.00472872 0)
(-0.0632924 -0.00468417 0)
(-0.0613472 -0.00463644 0)
(-0.0593281 -0.00458338 0)
(-0.0572392 -0.00452481 0)
(-0.0550855 -0.00446096 0)
(-0.0528701 -0.0043901 0)
(-0.0505966 -0.00431036 0)
(-0.0482674 -0.004217 0)
(-0.0458882 -0.00410558 0)
(-0.0434801 -0.00398953 0)
(-0.0410643 -0.00388469 0)
(-0.0385768 -0.00372586 0)
(-0.00114087 -0.00363491 0)
(-0.0005683 0.00442384 0)
(-0.000391391 0.0386667 0)
(-0.000649059 0.0396879 0)
(-0.00060787 0.0396088 0)
(-0.000595183 0.0396157 0)
(-0.000572112 0.0396151 0)
(-0.000540368 0.0396137 0)
(-0.00049603 0.0396104 0)
(-0.000434671 0.039604 0)
(-0.000346604 0.0395888 0)
(-6.64916e-05 0.0395674 0)
(1.04524e-05 0.039553 0)
(1.39254e-05 0.0395501 0)
(1.40319e-05 0.0395501 0)
(1.40655e-05 0.0395501 0)
(1.40875e-05 0.0395501 0)
(1.41053e-05 0.0395501 0)
(1.41195e-05 0.0395501 0)
(1.41307e-05 0.0395501 0)
(1.41396e-05 0.0395501 0)
(1.41466e-05 0.0395501 0)
(1.41522e-05 0.0395501 0)
(1.41565e-05 0.0395501 0)
(1.41598e-05 0.0395501 0)
(1.41625e-05 0.0395501 0)
(1.41645e-05 0.0395501 0)
(1.4166e-05 0.0395501 0)
(1.41672e-05 0.0395501 0)
(1.41681e-05 0.0395501 0)
(1.41688e-05 0.0395501 0)
(1.41693e-05 0.0395501 0)
(1.41696e-05 0.0395501 0)
(1.41699e-05 0.0395501 0)
(1.41701e-05 0.0395501 0)
(1.41704e-05 0.0395501 0)
(1.41705e-05 0.0395501 0)
(1.41705e-05 0.0395501 0)
(1.41706e-05 0.0395501 0)
(1.41706e-05 0.0395501 0)
(1.41706e-05 0.0395501 0)
(1.41707e-05 0.0395501 0)
(1.41707e-05 0.0395501 0)
(1.41707e-05 0.0395501 0)
(1.41707e-05 0.0395501 0)
(1.41707e-05 0.0395501 0)
(1.41707e-05 0.0395501 0)
(1.41707e-05 0.0395501 0)
(1.41707e-05 0.0395501 0)
(1.41707e-05 0.0395501 0)
(1.41707e-05 0.0395501 0)
(1.41707e-05 0.0395501 0)
(1.41707e-05 0.0395501 0)
(1.41707e-05 0.0395501 0)
(1.41707e-05 0.0395501 0)
(1.41707e-05 0.0395501 0)
(1.41707e-05 0.0395501 0)
(1.41707e-05 0.0395501 0)
(1.41707e-05 0.0395501 0)
(1.41707e-05 0.0395501 0)
(1.41707e-05 0.0395501 0)
(1.41707e-05 0.0395501 0)
(1.41707e-05 0.0395501 0)
(1.41707e-05 0.0395501 0)
(1.41707e-05 0.0395501 0)
(1.41707e-05 0.0395501 0)
(1.41707e-05 0.0395501 0)
(1.41707e-05 0.0395501 0)
(1.41707e-05 0.0395501 0)
(1.41707e-05 0.0395501 0)
(1.41707e-05 0.0395501 0)
(1.41707e-05 0.0395501 0)
(1.41707e-05 0.0395501 0)
(1.41707e-05 0.0395501 0)
(1.41707e-05 0.0395501 0)
(1.41707e-05 0.0395501 0)
(1.41707e-05 0.0395501 0)
(1.41707e-05 0.0395501 0)
(1.41707e-05 0.0395501 0)
(1.41707e-05 0.0395501 0)
(1.41707e-05 0.0395501 0)
(1.41707e-05 0.0395501 0)
(1.41707e-05 0.0395501 0)
(1.41707e-05 0.0395501 0)
(1.41707e-05 0.0395501 0)
(1.41707e-05 0.0395501 0)
(1.41707e-05 0.0395501 0)
(1.41707e-05 0.0395501 0)
(1.41707e-05 0.0395501 0)
(1.41707e-05 0.0395501 0)
(1.41707e-05 0.0395501 0)
(1.41707e-05 0.0395501 0)
(1.41707e-05 0.0395501 0)
(1.41707e-05 0.0395501 0)
(1.41707e-05 0.0395501 0)
(1.41707e-05 0.0395501 0)
(1.41707e-05 0.0395501 0)
(1.41707e-05 0.0395501 0)
(1.41707e-05 0.0395501 0)
(1.41707e-05 0.0395501 0)
(1.41707e-05 0.0395501 0)
(1.41707e-05 0.0395501 0)
(1.41707e-05 0.0395501 0)
(1.41707e-05 0.0395501 0)
(1.41707e-05 0.0395501 0)
(1.41707e-05 0.0395501 0)
(1.41707e-05 0.0395501 0)
(1.41707e-05 0.0395501 0)
(1.41707e-05 0.0395501 0)
(1.41707e-05 0.0395501 0)
(1.41707e-05 0.0395501 0)
(1.41707e-05 0.0395501 0)
(1.41707e-05 0.0395501 0)
(1.41707e-05 0.0395501 0)
(1.41707e-05 0.0395501 0)
(1.41707e-05 0.0395501 0)
(1.41707e-05 0.03955 0)
(1.41707e-05 0.0395501 0)
(1.41707e-05 0.03955 0)
(1.41708e-05 0.0395499 0)
(1.41744e-05 0.0395414 0)
(1.42643e-05 0.039197 0)
(1.64215e-05 0.0225004 0)
)
;

boundaryField
{
    inandouthalf11
    {
        type            cyclic;
    }
    inandouthalf12
    {
        type            cyclic;
    }
    inandouthalf21
    {
        type            cyclic;
    }
    inandouthalf22
    {
        type            cyclic;
    }
    inandouthalf31
    {
        type            cyclic;
    }
    inandouthalf32
    {
        type            cyclic;
    }
    inandouthalf41
    {
        type            cyclic;
    }
    inandouthalf42
    {
        type            cyclic;
    }
    top
    {
        type            symmetryPlane;
    }
    walls
    {
        type            calculated;
        value           uniform (0 0 0);
    }
    frontAndBackPlanes
    {
        type            empty;
    }
}


// ************************************************************************* //
