/*--------------------------------*- C++ -*----------------------------------*\
| =========                 |                                                 |
| \\      /  F ield         | OpenFOAM: The Open Source CFD Toolbox           |
|  \\    /   O peration     | Version:  2.4.x                                 |
|   \\  /    A nd           | Web:      www.OpenFOAM.org                      |
|    \\/     M anipulation  |                                                 |
\*---------------------------------------------------------------------------*/
FoamFile
{
    version     2.0;
    format      ascii;
    class       volScalarField;
    location    "3.85";
    object      alpha_0;
}
// * * * * * * * * * * * * * * * * * * * * * * * * * * * * * * * * * * * * * //

dimensions      [0 0 0 0 0 0 0];

internalField   nonuniform List<scalar> 
360
(
0.610319
0.610798
0.610956
0.610928
0.610881
0.610847
0.610815
0.610786
0.610759
0.610732
0.610703
0.610673
0.610642
0.610611
0.610581
0.610551
0.610521
0.610491
0.610461
0.610432
0.610402
0.610371
0.610338
0.6103
0.610258
0.610209
0.610156
0.610102
0.610058
0.610027
0.61001
0.61
0.609996
0.609991
0.609987
0.609982
0.609978
0.609972
0.609966
0.609961
0.609954
0.609947
0.60994
0.609931
0.609922
0.609912
0.609902
0.609891
0.609879
0.609865
0.609852
0.609837
0.609821
0.609804
0.609787
0.609767
0.609747
0.609725
0.609702
0.609678
0.609653
0.609627
0.6096
0.609572
0.609544
0.609515
0.609485
0.609454
0.609422
0.609389
0.609354
0.609318
0.609282
0.609243
0.609204
0.609164
0.609123
0.609082
0.609039
0.608995
0.608951
0.608905
0.608858
0.608809
0.60876
0.608709
0.608657
0.608604
0.60855
0.608494
0.608438
0.60838
0.608321
0.608261
0.608199
0.608136
0.608071
0.608005
0.607937
0.607867
0.607796
0.607724
0.607649
0.607573
0.607495
0.607415
0.607333
0.607248
0.607162
0.607073
0.606982
0.606888
0.606792
0.606693
0.606591
0.606486
0.606378
0.606267
0.606153
0.606035
0.605913
0.605787
0.605657
0.605523
0.605384
0.605241
0.605093
0.604939
0.604779
0.604613
0.60444
0.60426
0.604072
0.603874
0.603664
0.603441
0.603208
0.602961
0.602687
0.602373
0.602033
0.601709
0.601325
0.600826
0.600216
0.599197
0.59664
0.59466
0.449212
0.262865
0.192387
0.150265
0.117659
0.0907404
0.0685841
0.0507805
0.0368827
0.026324
0.018493
0.0128069
0.00875129
0.00589958
0.00392742
0.0026102
0.00177677
0.00126793
0.000952423
0.000746583
0.000604551
0.000501673
0.000424131
0.000363769
0.000315529
0.000276128
0.000243345
0.000215622
0.00019183
0.000171131
0.000152848
0.00013644
0.000121475
0.000107586
9.44762e-05
8.19355e-05
6.98873e-05
5.84501e-05
4.79788e-05
3.89916e-05
3.19093e-05
2.6715e-05
2.28734e-05
1.97105e-05
1.68982e-05
1.44896e-05
1.25467e-05
1.09401e-05
9.52859e-06
8.30213e-06
7.27879e-06
6.42193e-06
5.67105e-06
4.97316e-06
4.34732e-06
3.84607e-06
3.42647e-06
2.99475e-06
2.57622e-06
2.26513e-06
2.02399e-06
1.74707e-06
1.49444e-06
1.32051e-06
1.15141e-06
9.79167e-07
8.55376e-07
7.46684e-07
6.24308e-07
5.32069e-07
4.70869e-07
3.95369e-07
3.2362e-07
2.80861e-07
2.35102e-07
1.93212e-07
1.64616e-07
1.32759e-07
1.08098e-07
9.2269e-08
7.14961e-08
5.63665e-08
4.65106e-08
3.56712e-08
3.16085e-08
2.94198e-08
2.67025e-08
2.12326e-08
1.08929e-08
1.9579e-09
1.73116e-12
1.32161e-15
1.10338e-15
1.01412e-15
9.3919e-16
8.71025e-16
7.18142e-16
5.08776e-16
3.17631e-16
2.41104e-16
2.09199e-16
1.92652e-16
1.77011e-16
1.50707e-16
1.09686e-16
6.58462e-17
4.74994e-17
4.00845e-17
3.62548e-17
3.25248e-17
2.61682e-17
1.65667e-17
8.34461e-18
5.2663e-18
3.8941e-18
3.05321e-18
1.95485e-18
6.98227e-19
2.55036e-19
1.1339e-19
5.67168e-20
3.00841e-20
1.66186e-20
9.44359e-21
5.22434e-21
2.67456e-21
1.35593e-21
7.00868e-22
3.58784e-22
1.76913e-22
8.64015e-23
4.12738e-23
1.92509e-23
8.75505e-24
3.87704e-24
1.66941e-24
6.97929e-25
2.8286e-25
1.10951e-25
4.20466e-26
1.53656e-26
5.40372e-27
1.8247e-27
5.90172e-28
1.82335e-28
5.36481e-29
1.49815e-29
3.95558e-30
9.83152e-31
2.28878e-31
4.96159e-32
9.94655e-33
1.82881e-33
3.05297e-34
4.5694e-35
6.03301e-36
6.87609e-37
6.56242e-38
5.00865e-39
2.82778e-40
1.0036e-41
1.23153e-43
2.8616e-46
4.88558e-48
4.13789e-50
6.15699e-61
4.64067e-72
2.67286e-83
1.11284e-94
4.18458e-106
1.31968e-117
5.41974e-129
4.62856e-137
1.08893e-147
1.59367e-155
3.5586e-166
5.48239e-174
1.52838e-184
1.88553e-192
6.9128e-203
6.48977e-211
4.75295e-221
2.25342e-229
3.18581e-239
7.93397e-248
1.61266e-257
2.83177e-266
7.63974e-276
1.02439e-284
3.37046e-294
3.76115e-303
1.44335e-312
1.13635e-321
7.09478e-321
6.08689e-321
8.5424e-321
0
0
0
0
0
0
0
0
0
0
0
0
0
0
0
0
)
;

boundaryField
{
    inandouthalf11
    {
        type            cyclic;
    }
    inandouthalf12
    {
        type            cyclic;
    }
    inandouthalf21
    {
        type            cyclic;
    }
    inandouthalf22
    {
        type            cyclic;
    }
    inandouthalf31
    {
        type            cyclic;
    }
    inandouthalf32
    {
        type            cyclic;
    }
    inandouthalf41
    {
        type            cyclic;
    }
    inandouthalf42
    {
        type            cyclic;
    }
    top
    {
        type            symmetryPlane;
    }
    walls
    {
        type            zeroGradient;
    }
    frontAndBackPlanes
    {
        type            empty;
    }
}


// ************************************************************************* //
