/*--------------------------------*- C++ -*----------------------------------*\
| =========                 |                                                 |
| \\      /  F ield         | OpenFOAM: The Open Source CFD Toolbox           |
|  \\    /   O peration     | Version:  2.4.x                                 |
|   \\  /    A nd           | Web:      www.OpenFOAM.org                      |
|    \\/     M anipulation  |                                                 |
\*---------------------------------------------------------------------------*/
FoamFile
{
    version     2.0;
    format      ascii;
    class       volScalarField;
    location    "3.85";
    object      alpha;
}
// * * * * * * * * * * * * * * * * * * * * * * * * * * * * * * * * * * * * * //

dimensions      [0 0 0 0 0 0 0];

internalField   nonuniform List<scalar> 
360
(
0.610319
0.610798
0.610956
0.610928
0.610881
0.610847
0.610815
0.610786
0.610759
0.610732
0.610703
0.610673
0.610642
0.610611
0.610581
0.610551
0.610521
0.610491
0.610461
0.610432
0.610402
0.610371
0.610338
0.6103
0.610258
0.610209
0.610156
0.610102
0.610058
0.610027
0.61001
0.61
0.609996
0.609991
0.609987
0.609982
0.609978
0.609972
0.609966
0.609961
0.609954
0.609947
0.60994
0.609931
0.609922
0.609912
0.609902
0.609891
0.609879
0.609865
0.609852
0.609837
0.609821
0.609804
0.609787
0.609767
0.609747
0.609725
0.609702
0.609678
0.609653
0.609627
0.6096
0.609572
0.609544
0.609515
0.609485
0.609454
0.609422
0.609389
0.609354
0.609318
0.609282
0.609243
0.609204
0.609164
0.609123
0.609082
0.609039
0.608995
0.608951
0.608905
0.608858
0.608809
0.60876
0.608709
0.608657
0.608604
0.60855
0.608494
0.608438
0.60838
0.608321
0.608261
0.608199
0.608136
0.608071
0.608005
0.607937
0.607867
0.607796
0.607724
0.607649
0.607573
0.607495
0.607415
0.607333
0.607248
0.607162
0.607073
0.606982
0.606888
0.606792
0.606693
0.606591
0.606486
0.606378
0.606267
0.606153
0.606035
0.605913
0.605787
0.605657
0.605523
0.605384
0.605241
0.605093
0.604939
0.604779
0.604613
0.60444
0.60426
0.604072
0.603874
0.603664
0.603441
0.603208
0.602961
0.602687
0.602373
0.602033
0.601709
0.601325
0.600826
0.600216
0.599197
0.596639
0.594657
0.449072
0.262832
0.192392
0.150279
0.117677
0.0907599
0.0686036
0.0507989
0.0368993
0.0263384
0.018505
0.0128166
0.00875893
0.00590545
0.00393175
0.00261314
0.00177859
0.00126898
0.000953038
0.000746952
0.000604778
0.000501816
0.000424222
0.000363826
0.000315564
0.000276148
0.000243356
0.000215626
0.000191829
0.000171127
0.000152843
0.000136434
0.000121469
0.00010758
9.44705e-05
8.19307e-05
6.98836e-05
5.84476e-05
4.79772e-05
3.89907e-05
3.19089e-05
2.67148e-05
2.28732e-05
1.97103e-05
1.6898e-05
1.44895e-05
1.25466e-05
1.094e-05
9.52846e-06
8.302e-06
7.27866e-06
6.42181e-06
5.67093e-06
4.97303e-06
4.3472e-06
3.84597e-06
3.42637e-06
2.99464e-06
2.57612e-06
2.26505e-06
2.02391e-06
1.74699e-06
1.49438e-06
1.32046e-06
1.15135e-06
9.79119e-07
8.55339e-07
7.46645e-07
6.2427e-07
5.32044e-07
4.70845e-07
3.95341e-07
3.236e-07
2.80845e-07
2.35085e-07
1.93199e-07
1.64604e-07
1.32747e-07
1.0809e-07
9.22611e-08
7.14876e-08
5.63607e-08
4.65045e-08
3.56686e-08
3.16076e-08
2.94191e-08
2.67e-08
2.12267e-08
1.08831e-08
1.95472e-09
1.71726e-12
1.31914e-15
1.10245e-15
1.01356e-15
9.38705e-16
8.70292e-16
7.16964e-16
5.07368e-16
3.16879e-16
2.40815e-16
2.09054e-16
1.92557e-16
1.7689e-16
1.50517e-16
1.09429e-16
6.56881e-17
4.7441e-17
4.00552e-17
3.62355e-17
3.24996e-17
2.61291e-17
1.65185e-17
8.32217e-18
5.2569e-18
3.88909e-18
3.04891e-18
1.94888e-18
6.95068e-19
2.54095e-19
1.13037e-19
5.65578e-20
3.00056e-20
1.65788e-20
9.42203e-21
5.21179e-21
2.66746e-21
1.35248e-21
6.99126e-22
3.57879e-22
1.76459e-22
8.61785e-23
4.11664e-23
1.92003e-23
8.73183e-24
3.86666e-24
1.6649e-24
6.96023e-25
2.82079e-25
1.10642e-25
4.19283e-26
1.53219e-26
5.38821e-27
1.81942e-27
5.88445e-28
1.81796e-28
5.34879e-29
1.49363e-29
3.94354e-30
9.8013e-31
2.28168e-31
4.94604e-32
9.91507e-33
1.82296e-33
3.04311e-34
4.5545e-35
6.01314e-36
6.8532e-37
6.54033e-38
4.9916e-39
2.81803e-40
1.00008e-41
1.22709e-43
2.85065e-46
4.86664e-48
4.12164e-50
6.1328e-61
4.62242e-72
2.66237e-83
1.10847e-94
4.1682e-106
1.31449e-117
5.39846e-129
4.61039e-137
1.08466e-147
1.58741e-155
3.54462e-166
5.46087e-174
1.52237e-184
1.87813e-192
6.88567e-203
6.46429e-211
4.73429e-221
2.24458e-229
3.1733e-239
7.90282e-248
1.60633e-257
2.82065e-266
7.60975e-276
1.02036e-284
3.35723e-294
3.74638e-303
1.43768e-312
1.14129e-321
7.09478e-321
6.08689e-321
8.5424e-321
0
0
0
0
0
0
0
0
0
0
0
0
0
0
0
0
)
;

boundaryField
{
    inandouthalf11
    {
        type            cyclic;
    }
    inandouthalf12
    {
        type            cyclic;
    }
    inandouthalf21
    {
        type            cyclic;
    }
    inandouthalf22
    {
        type            cyclic;
    }
    inandouthalf31
    {
        type            cyclic;
    }
    inandouthalf32
    {
        type            cyclic;
    }
    inandouthalf41
    {
        type            cyclic;
    }
    inandouthalf42
    {
        type            cyclic;
    }
    top
    {
        type            symmetryPlane;
    }
    walls
    {
        type            zeroGradient;
    }
    frontAndBackPlanes
    {
        type            empty;
    }
}


// ************************************************************************* //
