/*--------------------------------*- C++ -*----------------------------------*\
| =========                 |                                                 |
| \\      /  F ield         | OpenFOAM: The Open Source CFD Toolbox           |
|  \\    /   O peration     | Version:  2.4.x                                 |
|   \\  /    A nd           | Web:      www.OpenFOAM.org                      |
|    \\/     M anipulation  |                                                 |
\*---------------------------------------------------------------------------*/
FoamFile
{
    version     2.0;
    format      ascii;
    class       volScalarField;
    location    "3.85";
    object      ddt0(epsilon);
}
// * * * * * * * * * * * * * * * * * * * * * * * * * * * * * * * * * * * * * //

dimensions      [0 2 -4 0 0 0 0];

internalField   nonuniform List<scalar> 
360
(
0
0
0
0
0
0
0
0
0
0
0
0
0
0
0
0
0
0
0
0
0
0
0
0
0
0
0
0
0
0
0
0
0
0
0
0
0
0
0
0
0
0
0
0
0
0
0
0
0
0
0
0
0
0
0
0
0
0
0
0
0
0
0
0
0
0
0
0
0
0
0
0
0
0
0
0
0
0
0
0
0
0
0
0
0
0
0
0
0
0
0
0
0
0
0
0
0
0
0
0
0
0
0
0
0
0
0
0
0
0
0
0
0
0
0
0
0
0
0
0
0
0
0
0
0
0
0
0
0
-1.78327e-91
-9.27539e-20
-2.53656e-19
-6.08243e-19
-1.32656e-18
-2.60114e-18
-4.39998e-18
-5.01929e-18
1.41452e-17
3.73952e-16
6.32245e-15
1.16953e-13
2.44618e-12
5.86969e-11
1.6394e-09
5.40437e-08
2.13271e-06
0.000101957
0.00568011
0.178306
0.37579
0.0187919
0.0152378
0.0519784
0.0899539
0.121384
0.145106
0.161513
0.171147
0.174294
0.170972
0.161173
0.145303
0.124634
0.101448
0.07853
0.0582297
0.041765
0.0292233
0.0200219
0.0133791
0.00858374
0.00508481
0.00248764
0.000520163
-0.00100239
-0.00220526
-0.00317383
-0.00396691
-0.00462548
-0.00517852
-0.00564679
-0.00604538
-0.00638545
-0.00667534
-0.0069214
-0.00712856
-0.00730068
-0.00744084
-0.00755155
-0.00763489
-0.00769262
-0.00772623
-0.00773701
-0.00772612
-0.00769458
-0.00764333
-0.00757323
-0.00748507
-0.00737962
-0.00725759
-0.00711967
-0.00696498
-0.00679183
-0.00659995
-0.00638908
-0.00615899
-0.00590953
-0.00564059
-0.00535215
-0.00504426
-0.00471711
-0.004371
-0.00400642
-0.00362403
-0.00322472
-0.00280968
-0.0023804
-0.00193879
-0.0014872
-0.00102859
-0.000566563
-0.000105592
0.000348847
0.000790012
0.00120959
0.00159729
0.00194033
0.00222266
0.0024239
0.00251729
0.00246601
0.00222029
0.00173952
0.000705943
5.67474e-05
9.60453e-07
1.21185e-08
1.44471e-10
1.63573e-12
1.75983e-14
1.7994e-16
1.7365e-18
0
0
0
0
0
0
0
0
0
0
0
0
0
0
0
0
0
0
0
0
0
0
0
0
0
0
0
0
0
0
0
0
0
0
0
0
0
0
0
0
0
0
0
0
0
0
0
0
0
0
0
0
0
0
0
0
0
0
0
0
0
0
0
0
0
0
0
0
0
0
0
0
0
0
0
0
0
0
0
0
0
0
0
0
0
0
0
0
0
0
0
0
0
0
0
0
0
0
0
0
0
0
0
0
0
0
0
0
0
0
0
0
0
0
0
0
0
0
)
;

boundaryField
{
    inandouthalf11
    {
        type            cyclic;
    }
    inandouthalf12
    {
        type            cyclic;
    }
    inandouthalf21
    {
        type            cyclic;
    }
    inandouthalf22
    {
        type            cyclic;
    }
    inandouthalf31
    {
        type            cyclic;
    }
    inandouthalf32
    {
        type            cyclic;
    }
    inandouthalf41
    {
        type            cyclic;
    }
    inandouthalf42
    {
        type            cyclic;
    }
    top
    {
        type            symmetryPlane;
    }
    walls
    {
        type            calculated;
        value           uniform 0;
    }
    frontAndBackPlanes
    {
        type            empty;
    }
}


// ************************************************************************* //
