/*--------------------------------*- C++ -*----------------------------------*\
| =========                 |                                                 |
| \\      /  F ield         | OpenFOAM: The Open Source CFD Toolbox           |
|  \\    /   O peration     | Version:  2.4.x                                 |
|   \\  /    A nd           | Web:      www.OpenFOAM.org                      |
|    \\/     M anipulation  |                                                 |
\*---------------------------------------------------------------------------*/
FoamFile
{
    version     2.0;
    format      ascii;
    class       volVectorField;
    location    "3.85";
    object      ddt0(Ua);
}
// * * * * * * * * * * * * * * * * * * * * * * * * * * * * * * * * * * * * * //

dimensions      [0 1 -2 0 0 0 0];

internalField   nonuniform List<vector> 
360
(
(5.30649e-34 -1.2188e-32 0)
(2.71766e-08 7.5408e-08 0)
(8.14289e-08 2.54567e-07 0)
(1.34027e-07 4.15869e-07 0)
(1.79433e-07 5.49538e-07 0)
(2.21434e-07 6.73138e-07 0)
(2.64117e-07 8.03433e-07 0)
(3.0947e-07 9.48342e-07 0)
(3.57043e-07 1.10547e-06 0)
(4.05106e-07 1.26751e-06 0)
(4.51918e-07 1.42784e-06 0)
(4.96013e-07 1.5812e-06 0)
(5.35907e-07 1.72215e-06 0)
(5.69959e-07 1.84429e-06 0)
(5.96766e-07 1.9417e-06 0)
(6.16064e-07 2.01269e-06 0)
(6.29675e-07 2.06364e-06 0)
(6.42149e-07 2.11166e-06 0)
(6.60927e-07 2.18535e-06 0)
(6.9612e-07 2.32418e-06 0)
(7.60185e-07 2.57737e-06 0)
(8.67671e-07 3.00368e-06 0)
(1.03427e-06 3.66965e-06 0)
(1.27186e-06 4.63339e-06 0)
(1.57251e-06 5.88577e-06 0)
(1.87388e-06 7.20965e-06 0)
(2.02438e-06 8.00796e-06 0)
(1.83514e-06 7.45868e-06 0)
(1.28386e-06 5.36676e-06 0)
(6.32589e-07 2.77796e-06 0)
(1.73505e-07 9.3956e-07 0)
(-4.2209e-08 8.4758e-08 0)
(-1.17838e-07 -2.09295e-07 0)
(-1.40591e-07 -2.95934e-07 0)
(-1.47158e-07 -3.20556e-07 0)
(-1.4891e-07 -3.2723e-07 0)
(-1.49014e-07 -3.28034e-07 0)
(-1.48332e-07 -3.26281e-07 0)
(-1.47086e-07 -3.22908e-07 0)
(-1.45351e-07 -3.18282e-07 0)
(-1.4322e-07 -3.12769e-07 0)
(-1.40849e-07 -3.0685e-07 0)
(-1.38418e-07 -3.01016e-07 0)
(-1.36067e-07 -2.95606e-07 0)
(-1.3386e-07 -2.90736e-07 0)
(-1.3179e-07 -2.86349e-07 0)
(-1.29805e-07 -2.82286e-07 0)
(-1.2784e-07 -2.78379e-07 0)
(-1.25833e-07 -2.7448e-07 0)
(-1.23735e-07 -2.7048e-07 0)
(-1.21512e-07 -2.66313e-07 0)
(-1.19142e-07 -2.61949e-07 0)
(-1.16616e-07 -2.57375e-07 0)
(-1.13929e-07 -2.52593e-07 0)
(-1.11081e-07 -2.47614e-07 0)
(-1.08072e-07 -2.42445e-07 0)
(-1.04906e-07 -2.37096e-07 0)
(-1.01582e-07 -2.31575e-07 0)
(-9.81025e-08 -2.25887e-07 0)
(-9.44702e-08 -2.20042e-07 0)
(-9.06869e-08 -2.14042e-07 0)
(-8.67571e-08 -2.07895e-07 0)
(-8.26891e-08 -2.01618e-07 0)
(-7.84939e-08 -1.95227e-07 0)
(-7.4183e-08 -1.88743e-07 0)
(-6.97643e-08 -1.82177e-07 0)
(-6.52378e-08 -1.75532e-07 0)
(-6.05948e-08 -1.68793e-07 0)
(-5.58187e-08 -1.61936e-07 0)
(-5.08858e-08 -1.5493e-07 0)
(-4.57654e-08 -1.4773e-07 0)
(-4.04256e-08 -1.4029e-07 0)
(-3.48406e-08 -1.3258e-07 0)
(-2.89918e-08 -1.24576e-07 0)
(-2.28681e-08 -1.16267e-07 0)
(-1.647e-08 -1.07657e-07 0)
(-9.809e-09 -9.87663e-08 0)
(-2.90352e-09 -8.96268e-08 0)
(4.22845e-09 -8.02649e-08 0)
(1.15732e-08 -7.07013e-08 0)
(1.9123e-08 -6.09483e-08 0)
(2.68787e-08 -5.10067e-08 0)
(3.4849e-08 -4.08655e-08 0)
(4.30466e-08 -3.05094e-08 0)
(5.14848e-08 -1.99229e-08 0)
(6.01738e-08 -9.09501e-09 0)
(6.91184e-08 1.97777e-09 0)
(7.83162e-08 1.32896e-08 0)
(8.7759e-08 2.48264e-08 0)
(9.74343e-08 3.657e-08 0)
(1.07329e-07 4.85015e-08 0)
(1.17431e-07 6.06033e-08 0)
(1.27731e-07 7.28627e-08 0)
(1.38223e-07 8.52711e-08 0)
(1.48904e-07 9.78235e-08 0)
(1.59772e-07 1.10516e-07 0)
(1.70826e-07 1.23346e-07 0)
(1.82063e-07 1.36307e-07 0)
(1.93479e-07 1.49394e-07 0)
(2.0507e-07 1.62598e-07 0)
(2.16828e-07 1.75908e-07 0)
(2.28746e-07 1.89314e-07 0)
(2.40814e-07 2.02803e-07 0)
(2.53025e-07 2.16363e-07 0)
(2.65367e-07 2.2998e-07 0)
(2.77831e-07 2.43639e-07 0)
(2.90407e-07 2.57328e-07 0)
(3.03083e-07 2.71031e-07 0)
(3.15851e-07 2.84736e-07 0)
(3.28702e-07 2.9843e-07 0)
(3.4163e-07 3.12105e-07 0)
(3.54633e-07 3.25754e-07 0)
(3.67712e-07 3.39374e-07 0)
(3.80872e-07 3.52967e-07 0)
(3.94124e-07 3.66539e-07 0)
(4.07487e-07 3.80104e-07 0)
(4.20985e-07 3.93678e-07 0)
(4.34648e-07 4.07285e-07 0)
(4.48515e-07 4.20952e-07 0)
(4.62627e-07 4.34708e-07 0)
(4.77032e-07 4.48583e-07 0)
(4.91772e-07 4.62601e-07 0)
(5.06889e-07 4.7678e-07 0)
(5.22409e-07 4.91121e-07 0)
(5.38345e-07 5.05605e-07 0)
(5.54683e-07 5.20189e-07 0)
(5.71387e-07 5.34806e-07 0)
(5.8839e-07 5.49362e-07 0)
(6.05598e-07 5.63744e-07 0)
(6.22888e-07 5.77816e-07 0)
(6.40118e-07 5.91433e-07 0)
(6.57135e-07 6.04446e-07 0)
(6.73815e-07 6.16737e-07 0)
(6.90092e-07 6.28244e-07 0)
(7.0596e-07 6.38968e-07 0)
(7.21428e-07 6.48916e-07 0)
(7.36475e-07 6.58056e-07 0)
(7.51052e-07 6.66334e-07 0)
(7.65068e-07 6.7373e-07 0)
(7.78218e-07 6.80199e-07 0)
(7.89654e-07 6.85444e-07 0)
(7.98191e-07 6.88932e-07 0)
(8.0345e-07 6.90736e-07 0)
(8.06166e-07 6.91495e-07 0)
(8.0745e-07 6.91744e-07 0)
(8.08275e-07 6.91792e-07 0)
(8.09565e-07 6.92132e-07 0)
(8.54955e-07 7.0523e-07 0)
(-0.174305 9.11093e-08 0)
(-0.284494 -0.00310523 0)
(-0.201732 -0.00689003 0)
(-0.153393 -0.00803505 0)
(-0.12781 -0.00875076 0)
(-0.116032 -0.00936331 0)
(-0.113804 -0.00988813 0)
(-0.119139 -0.0102592 0)
(-0.131163 -0.0103883 0)
(-0.149539 -0.0101646 0)
(-0.173959 -0.00944112 0)
(-0.203679 -0.00794745 0)
(-0.23719 -0.00510242 0)
(-0.272107 -0.00010194 0)
(-0.305471 0.00708734 0)
(-0.334722 0.0146889 0)
(-0.358887 0.0204063 0)
(-0.378583 0.0235047 0)
(-0.39492 0.0246836 0)
(-0.408784 0.0248645 0)
(-0.420773 0.0246201 0)
(-0.431294 0.0242265 0)
(-0.440638 0.0238058 0)
(-0.449024 0.0234113 0)
(-0.456621 0.0230583 0)
(-0.463572 0.0227564 0)
(-0.469979 0.0224926 0)
(-0.475944 0.0222752 0)
(-0.481505 0.0221394 0)
(-0.485677 0.0213954 0)
(-0.49014 0.0212498 0)
(-0.49416 0.0210782 0)
(-0.497904 0.0209208 0)
(-0.501385 0.0207974 0)
(-0.50461 0.0206977 0)
(-0.507589 0.0206357 0)
(-0.510341 0.0206092 0)
(-0.512891 0.020623 0)
(-0.515268 0.0206713 0)
(-0.517502 0.0207473 0)
(-0.519619 0.0208403 0)
(-0.521634 0.0209411 0)
(-0.523551 0.0210424 0)
(-0.525376 0.0211385 0)
(-0.527118 0.0212257 0)
(-0.528791 0.0213025 0)
(-0.530401 0.0213681 0)
(-0.531952 0.0214209 0)
(-0.533448 0.0214579 0)
(-0.534897 0.021477 0)
(-0.536302 0.0214765 0)
(-0.537666 0.0214538 0)
(-0.538988 0.021405 0)
(-0.540286 0.0213237 0)
(-0.541588 0.0212199 0)
(-0.542896 0.0211197 0)
(-0.5442 0.0210296 0)
(-0.545495 0.0209438 0)
(-0.546803 0.0208635 0)
(-0.548137 0.0207926 0)
(-0.549472 0.0207278 0)
(-0.550801 0.0206631 0)
(-0.552156 0.0206027 0)
(-0.553541 0.0205512 0)
(-0.554928 0.0205032 0)
(-0.556336 0.0204578 0)
(-0.557778 0.0204212 0)
(-0.559226 0.0203899 0)
(-0.560687 0.0203583 0)
(-0.56221 0.0203372 0)
(-0.563757 0.0203299 0)
(-0.565286 0.0203205 0)
(-0.566858 0.0203128 0)
(-0.568492 0.0203218 0)
(-0.570129 0.0203367 0)
(-0.571795 0.0203537 0)
(-0.573487 0.0203807 0)
(-0.575173 0.0204042 0)
(-0.576912 0.0204303 0)
(-0.578658 0.0204672 0)
(-0.580325 0.0204768 0)
(-0.582008 0.0204614 0)
(-0.583649 0.0204242 0)
(-0.585337 0.0203691 0)
(-0.58719 0.0203554 0)
(-0.588958 0.0203818 0)
(-0.590466 0.0204204 0)
(-0.591621 0.0204401 0)
(-0.592199 0.0203865 0)
(-0.592578 0.0201785 0)
(-0.643054 -5.94801e-05 0)
(-0.643053 -5.93571e-05 0)
(-0.643053 -5.93659e-05 0)
(-0.643053 -5.9359e-05 0)
(-0.643053 -5.93582e-05 0)
(-0.643053 -5.93511e-05 0)
(-0.643053 -5.93511e-05 0)
(-0.643052 -5.9346e-05 0)
(-0.643052 -5.93471e-05 0)
(-0.643052 -5.93426e-05 0)
(-0.643052 -5.93443e-05 0)
(-0.643052 -5.93402e-05 0)
(-0.643052 -5.93425e-05 0)
(-0.643052 -5.93386e-05 0)
(-0.643052 -5.93413e-05 0)
(-0.643052 -5.93375e-05 0)
(-0.643052 -5.93405e-05 0)
(-0.643052 -5.93368e-05 0)
(-0.643052 -5.93401e-05 0)
(-0.643052 -5.93363e-05 0)
(-0.643052 -5.93398e-05 0)
(-0.643052 -5.9336e-05 0)
(-0.643052 -5.93397e-05 0)
(-0.643052 -5.93357e-05 0)
(-0.643052 -5.93397e-05 0)
(-0.643052 -5.93355e-05 0)
(-0.643052 -5.93397e-05 0)
(-0.643052 -5.93354e-05 0)
(-0.643052 -5.93396e-05 0)
(-0.643052 -5.93357e-05 0)
(-0.643052 -5.93392e-05 0)
(-0.643052 -5.93357e-05 0)
(-0.643052 -5.93396e-05 0)
(-0.643052 -5.93354e-05 0)
(-0.643052 -5.93397e-05 0)
(-0.643052 -5.93353e-05 0)
(-0.643052 -5.93398e-05 0)
(-0.643052 -5.93352e-05 0)
(-0.643052 -5.93399e-05 0)
(-0.643052 -5.9335e-05 0)
(-0.643052 -5.934e-05 0)
(-0.643052 -5.93349e-05 0)
(-0.643052 -5.93402e-05 0)
(-0.643052 -5.93347e-05 0)
(-0.643052 -5.93403e-05 0)
(-0.643052 -5.93346e-05 0)
(-0.643052 -5.93405e-05 0)
(-0.643052 -5.93345e-05 0)
(-0.643052 -5.93406e-05 0)
(-0.643052 -5.93343e-05 0)
(-0.643052 -5.93407e-05 0)
(-0.643052 -5.93342e-05 0)
(-0.643052 -5.93409e-05 0)
(-0.643052 -5.9334e-05 0)
(-0.643052 -5.93411e-05 0)
(-0.643052 -5.93338e-05 0)
(-0.643052 -5.93412e-05 0)
(-0.643052 -5.93336e-05 0)
(-0.643052 -5.93414e-05 0)
(-0.643052 -5.93335e-05 0)
(-0.643052 -5.93416e-05 0)
(-0.643052 -5.93333e-05 0)
(-0.643052 -5.93417e-05 0)
(-0.643052 -5.93331e-05 0)
(-0.643052 -5.93419e-05 0)
(-0.643052 -5.93329e-05 0)
(-0.643052 -5.93421e-05 0)
(-0.643052 -5.93327e-05 0)
(-0.643052 -5.93423e-05 0)
(-0.643052 -5.93325e-05 0)
(-0.643052 -5.93425e-05 0)
(-0.643052 -5.93323e-05 0)
(-0.643052 -5.9342e-05 0)
(-0.643052 -5.93329e-05 0)
(-0.643052 -5.9342e-05 0)
(-0.643052 -5.9333e-05 0)
(-0.643052 -5.93419e-05 0)
(-0.643052 -5.9333e-05 0)
(-0.643052 -5.93419e-05 0)
(-0.643052 -5.9333e-05 0)
(-0.643052 -5.93418e-05 0)
(-0.643052 -5.93331e-05 0)
(-0.643052 -5.93418e-05 0)
(-0.643052 -5.93332e-05 0)
(-0.643052 -5.93418e-05 0)
(-0.643052 -5.93333e-05 0)
(-0.643052 -5.93417e-05 0)
(-0.643052 -5.93334e-05 0)
(-0.643052 -5.93417e-05 0)
(-0.643052 -5.93335e-05 0)
(-0.643052 -5.93416e-05 0)
(-0.643052 -5.93337e-05 0)
(-0.643052 -5.93416e-05 0)
(-0.643052 -5.9334e-05 0)
(-0.643052 -5.93416e-05 0)
(-0.643052 -5.93343e-05 0)
(-0.643052 -5.93417e-05 0)
(-0.643052 -5.93347e-05 0)
(-0.643052 -5.9342e-05 0)
(-0.643052 -5.93357e-05 0)
(-0.643052 -5.93414e-05 0)
(-0.643052 -5.93359e-05 0)
(-0.643052 -5.93417e-05 0)
(-0.643052 -5.93364e-05 0)
(-0.643052 -5.9342e-05 0)
(-0.643052 -5.93369e-05 0)
(-0.643052 -5.93425e-05 0)
(-0.643052 -5.93375e-05 0)
(-0.643052 -5.9343e-05 0)
(-0.643052 -5.93381e-05 0)
(-0.643052 -5.93435e-05 0)
(-0.643052 -5.93386e-05 0)
(-0.643052 -5.93438e-05 0)
(-0.643052 -5.93391e-05 0)
(-0.643052 -5.93442e-05 0)
(-0.643052 -5.9339e-05 0)
(-0.643052 -5.93437e-05 0)
(-0.643052 -5.93392e-05 0)
(-0.643052 -5.93466e-05 0)
(-0.643053 -5.94057e-05 0)
(-0.64308 -6.08129e-05 0)
(-0.64369 -0.000117535 0)
)
;

boundaryField
{
    inandouthalf11
    {
        type            cyclic;
    }
    inandouthalf12
    {
        type            cyclic;
    }
    inandouthalf21
    {
        type            cyclic;
    }
    inandouthalf22
    {
        type            cyclic;
    }
    inandouthalf31
    {
        type            cyclic;
    }
    inandouthalf32
    {
        type            cyclic;
    }
    inandouthalf41
    {
        type            cyclic;
    }
    inandouthalf42
    {
        type            cyclic;
    }
    top
    {
        type            symmetryPlane;
    }
    walls
    {
        type            calculated;
        value           uniform (0 0 0);
    }
    frontAndBackPlanes
    {
        type            empty;
    }
}


// ************************************************************************* //
