/*--------------------------------*- C++ -*----------------------------------*\
| =========                 |                                                 |
| \\      /  F ield         | OpenFOAM: The Open Source CFD Toolbox           |
|  \\    /   O peration     | Version:  2.4.x                                 |
|   \\  /    A nd           | Web:      www.OpenFOAM.org                      |
|    \\/     M anipulation  |                                                 |
\*---------------------------------------------------------------------------*/
FoamFile
{
    version     2.0;
    format      ascii;
    class       volScalarField;
    location    "3.85";
    object      nutb;
}
// * * * * * * * * * * * * * * * * * * * * * * * * * * * * * * * * * * * * * //

dimensions      [0 2 -1 0 0 0 0];

internalField   nonuniform List<scalar> 
360
(
9e-22
9e-22
9e-22
9e-22
9e-22
9e-22
9e-22
9e-22
9e-22
9e-22
9e-22
9e-22
9e-22
9e-22
9e-22
9e-22
9e-22
9e-22
9e-22
9e-22
9e-22
9e-22
9e-22
9e-22
9e-22
9e-22
9e-22
9e-22
9e-22
9e-22
9e-22
9e-22
9e-22
9e-22
9e-22
9e-22
9e-22
9e-22
9e-22
9e-22
9e-22
9e-22
9e-22
9e-22
9e-22
9e-22
9e-22
9e-22
9e-22
9e-22
9e-22
9e-22
9e-22
9e-22
9e-22
9e-22
9e-22
9e-22
9e-22
9e-22
9e-22
9e-22
9e-22
9e-22
9e-22
9e-22
9e-22
9e-22
9e-22
9e-22
9e-22
9e-22
9e-22
9e-22
9e-22
9e-22
9e-22
9e-22
9e-22
9e-22
9e-22
9e-22
9e-22
9e-22
9e-22
9e-22
9e-22
9e-22
9e-22
9e-22
9e-22
9e-22
9e-22
9e-22
9e-22
9e-22
9e-22
9e-22
9e-22
9e-22
9e-22
9e-22
9e-22
9e-22
9e-22
9e-22
9e-22
9e-22
9e-22
9e-22
9e-22
9e-22
9e-22
9e-22
9e-22
9e-22
9e-22
9e-22
9e-22
9e-22
9e-22
9e-22
9e-22
9e-22
9e-22
9e-22
9e-22
9e-22
9e-22
9e-22
2.46834e-21
5.51577e-21
1.1312e-20
2.11e-20
3.49408e-20
4.78451e-20
4.33036e-20
2.96845e-20
1.5304e-19
1.77703e-18
2.33796e-17
3.42274e-16
5.65057e-15
1.06775e-13
2.34041e-12
6.03625e-11
1.85696e-09
6.56678e-08
1.67347e-06
8.94626e-06
1.59317e-05
2.10993e-05
2.51461e-05
2.83574e-05
3.08943e-05
3.2868e-05
3.43611e-05
3.54517e-05
3.62323e-05
3.68261e-05
3.73985e-05
3.81643e-05
3.93811e-05
4.13198e-05
4.42111e-05
4.81853e-05
5.32331e-05
5.92083e-05
6.58683e-05
7.2934e-05
8.01416e-05
8.72734e-05
9.41687e-05
0.000100721
0.000106867
0.00011258
0.000117855
0.000122702
0.000127144
0.000131203
0.000134909
0.000138287
0.000141362
0.000144159
0.000146698
0.000148997
0.000151073
0.000152938
0.000154603
0.000156077
0.000157368
0.000158481
0.000159424
0.000160201
0.000160817
0.000161276
0.00016158
0.000161733
0.000161737
0.000161594
0.000161306
0.000160871
0.000160277
0.000159518
0.000158584
0.000157467
0.000156159
0.000154649
0.000152928
0.000150985
0.00014881
0.000146391
0.000143718
0.000140777
0.000137556
0.000134043
0.000130224
0.000126086
0.000121616
0.000116798
0.000111618
0.000106063
0.000100116
9.37634e-05
8.69906e-05
7.97832e-05
7.21275e-05
6.40106e-05
5.54212e-05
4.63497e-05
3.67877e-05
2.67269e-05
1.61877e-05
5.23122e-06
3.66881e-07
5.85015e-09
7.21603e-11
8.42211e-13
9.34136e-15
9.8503e-17
9.87585e-19
9.56079e-21
9.2893e-22
9e-22
9e-22
9e-22
9e-22
9e-22
9e-22
9e-22
9e-22
9e-22
9e-22
9e-22
9e-22
9e-22
9e-22
9e-22
9e-22
9e-22
9e-22
9e-22
9e-22
9e-22
9e-22
9e-22
9e-22
9e-22
9e-22
9e-22
9e-22
9e-22
9e-22
9e-22
9e-22
9e-22
9e-22
9e-22
9e-22
9e-22
9e-22
9e-22
9e-22
9e-22
9e-22
9e-22
9e-22
9e-22
9e-22
9e-22
9e-22
9e-22
9e-22
9e-22
9e-22
9e-22
9e-22
9e-22
9e-22
9e-22
9e-22
9e-22
9e-22
9e-22
9e-22
9e-22
9e-22
9e-22
9e-22
9e-22
9e-22
9e-22
9e-22
9e-22
9e-22
9e-22
9e-22
9e-22
9e-22
9e-22
9e-22
9e-22
9e-22
9e-22
9e-22
9e-22
9e-22
9e-22
9e-22
9e-22
9e-22
9e-22
9e-22
9e-22
9e-22
9e-22
9e-22
9e-22
9e-22
9e-22
9e-22
9e-22
9e-22
9e-22
9e-22
9e-22
9e-22
9e-22
9e-22
9e-22
9e-22
9e-22
9e-22
9e-22
9e-22
9e-22
9e-22
9e-22
9e-22
9e-22
)
;

boundaryField
{
    inandouthalf11
    {
        type            cyclic;
    }
    inandouthalf12
    {
        type            cyclic;
    }
    inandouthalf21
    {
        type            cyclic;
    }
    inandouthalf22
    {
        type            cyclic;
    }
    inandouthalf31
    {
        type            cyclic;
    }
    inandouthalf32
    {
        type            cyclic;
    }
    inandouthalf41
    {
        type            cyclic;
    }
    inandouthalf42
    {
        type            cyclic;
    }
    top
    {
        type            symmetryPlane;
    }
    walls
    {
        type            calculated;
        value           uniform 0;
    }
    frontAndBackPlanes
    {
        type            empty;
    }
}


// ************************************************************************* //
