/*--------------------------------*- C++ -*----------------------------------*\
| =========                 |                                                 |
| \\      /  F ield         | OpenFOAM: The Open Source CFD Toolbox           |
|  \\    /   O peration     | Version:  2.4.x                                 |
|   \\  /    A nd           | Web:      www.OpenFOAM.org                      |
|    \\/     M anipulation  |                                                 |
\*---------------------------------------------------------------------------*/
FoamFile
{
    version     2.0;
    format      ascii;
    class       volScalarField;
    location    "3.85";
    object      p;
}
// * * * * * * * * * * * * * * * * * * * * * * * * * * * * * * * * * * * * * //

dimensions      [1 -1 -2 0 0 0 0];

internalField   nonuniform List<scalar> 
360
(
4896.88
4891.97
4887.07
4882.16
4877.24
4872.33
4867.41
4862.5
4857.58
4852.65
4847.73
4842.8
4837.88
4832.95
4828.01
4823.08
4818.14
4813.2
4808.26
4803.32
4798.38
4793.43
4788.48
4783.53
4778.58
4773.62
4768.66
4763.7
4758.73
4753.77
4748.79
4743.82
4738.85
4733.88
4728.91
4723.94
4718.97
4713.99
4709.02
4704.05
4699.08
4694.11
4689.14
4684.16
4679.19
4674.22
4669.25
4664.28
4659.31
4654.33
4649.36
4644.39
4639.42
4634.45
4629.48
4624.5
4619.53
4614.56
4609.59
4604.62
4599.65
4594.68
4589.7
4584.73
4579.76
4574.79
4569.82
4564.85
4559.87
4554.9
4549.93
4544.96
4539.99
4535.02
4530.05
4525.07
4520.1
4515.13
4510.16
4505.19
4500.22
4495.25
4490.28
4485.3
4480.33
4475.36
4470.39
4465.42
4460.45
4455.48
4450.51
4445.53
4440.56
4435.59
4430.62
4425.65
4420.68
4415.71
4410.74
4405.77
4400.8
4395.82
4390.85
4385.88
4380.91
4375.94
4370.97
4366
4361.03
4356.06
4351.09
4346.12
4341.15
4336.18
4331.21
4326.24
4321.27
4316.3
4311.33
4306.36
4301.39
4296.42
4291.45
4286.48
4281.51
4276.54
4271.57
4266.6
4261.63
4256.66
4251.69
4246.72
4241.75
4236.78
4231.81
4226.85
4221.88
4216.91
4211.94
4206.97
4202
4197.04
4192.07
4187.1
4182.14
4177.17
4172.2
4167.24
4161.39
4152.86
4145.61
4139.58
4134.03
4128.78
4123.72
4118.81
4114.01
4109.29
4104.63
4100
4095.38
4090.76
4086.11
4081.42
4076.7
4071.93
4067.12
4062.29
4057.42
4052.54
4047.64
4042.74
4037.83
4032.91
4027.99
4023.06
4018.13
4013.21
4008.28
4003.35
3998.42
3993.49
3988.56
3983.63
3978.71
3973.78
3968.86
3963.93
3959.01
3954.09
3949.17
3944.25
3939.34
3934.42
3929.51
3924.6
3919.69
3914.78
3909.88
3904.97
3900.07
3895.12
3890.08
3884.93
3879.68
3874.32
3868.86
3863.29
3857.62
3851.82
3845.92
3839.89
3833.75
3827.49
3821.1
3814.58
3807.94
3801.16
3794.25
3787.2
3780.01
3772.68
3765.21
3757.58
3749.8
3741.87
3733.77
3725.51
3717.09
3708.49
3699.71
3690.75
3681.6
3672.24
3662.65
3652.84
3642.83
3632.61
3622.19
3611.56
3600.71
3589.64
3578.35
3566.83
3555.07
3543.08
3530.84
3518.35
3505.61
3492.61
3479.35
3465.82
3452.01
3437.92
3423.55
3408.88
3393.92
3378.66
3363.08
3347.19
3330.97
3314.43
3297.55
3280.33
3262.76
3244.83
3226.54
3207.87
3188.83
3169.4
3149.58
3129.35
3108.72
3087.66
3066.18
3044.26
3021.9
2999.08
2975.8
2952.05
2927.81
2903.09
2877.86
2852.12
2825.86
2799.06
2771.72
2743.82
2715.36
2686.32
2656.7
2626.47
2595.62
2564.15
2532.05
2499.29
2465.86
2431.76
2396.96
2361.46
2325.24
2288.28
2250.57
2212.1
2172.85
2132.8
2091.93
2050.24
2007.7
1964.3
1922.76
1883.52
1844.28
1805.04
1765.8
1726.56
1687.32
1648.08
1608.84
1569.6
1530.36
1491.12
1451.88
1412.64
1373.4
1334.16
1294.92
1255.68
1216.44
1177.2
1137.96
1098.72
1059.48
1020.24
981
941.76
902.52
863.28
824.04
784.8
745.56
706.32
667.08
627.84
588.6
549.36
510.12
470.88
431.64
392.4
353.16
313.92
274.68
235.44
196.2
156.96
117.72
78.48
39.24
2.15682e-07
)
;

boundaryField
{
    inandouthalf11
    {
        type            cyclic;
    }
    inandouthalf12
    {
        type            cyclic;
    }
    inandouthalf21
    {
        type            cyclic;
    }
    inandouthalf22
    {
        type            cyclic;
    }
    inandouthalf31
    {
        type            cyclic;
    }
    inandouthalf32
    {
        type            cyclic;
    }
    inandouthalf41
    {
        type            cyclic;
    }
    inandouthalf42
    {
        type            cyclic;
    }
    top
    {
        type            symmetryPlane;
    }
    walls
    {
        type            slip;
    }
    frontAndBackPlanes
    {
        type            empty;
    }
}


// ************************************************************************* //
