/*--------------------------------*- C++ -*----------------------------------*\
| =========                 |                                                 |
| \\      /  F ield         | OpenFOAM: The Open Source CFD Toolbox           |
|  \\    /   O peration     | Version:  2.4.x                                 |
|   \\  /    A nd           | Web:      www.OpenFOAM.org                      |
|    \\/     M anipulation  |                                                 |
\*---------------------------------------------------------------------------*/
FoamFile
{
    version     2.0;
    format      ascii;
    class       surfaceScalarField;
    location    "3.85";
    object      phia;
}
// * * * * * * * * * * * * * * * * * * * * * * * * * * * * * * * * * * * * * //

dimensions      [0 3 -1 0 0 0 0];

internalField   nonuniform List<scalar> 
359
(
-7.26913e-13
-2.15197e-12
-3.54191e-12
-4.80302e-12
-6.02579e-12
-7.27022e-12
-8.55155e-12
-9.86172e-12
-1.1186e-11
-1.25178e-11
-1.38583e-11
-1.52095e-11
-1.65716e-11
-1.79388e-11
-1.93025e-11
-2.06539e-11
-2.19868e-11
-2.32998e-11
-2.45994e-11
-2.59035e-11
-2.72413e-11
-2.86593e-11
-3.02203e-11
-3.1999e-11
-3.40601e-11
-3.64006e-11
-3.88614e-11
-4.11033e-11
-4.27639e-11
-4.37242e-11
-4.41558e-11
-4.43138e-11
-4.4366e-11
-4.43841e-11
-4.43917e-11
-4.43959e-11
-4.4399e-11
-4.44018e-11
-4.44048e-11
-4.44082e-11
-4.44122e-11
-4.44168e-11
-4.44218e-11
-4.44271e-11
-4.44325e-11
-4.44379e-11
-4.44433e-11
-4.44485e-11
-4.44538e-11
-4.4459e-11
-4.44642e-11
-4.44695e-11
-4.44749e-11
-4.44805e-11
-4.44863e-11
-4.44922e-11
-4.44984e-11
-4.45047e-11
-4.45113e-11
-4.45182e-11
-4.45252e-11
-4.45324e-11
-4.45398e-11
-4.45473e-11
-4.45549e-11
-4.45625e-11
-4.45703e-11
-4.45782e-11
-4.45862e-11
-4.45944e-11
-4.46029e-11
-4.46116e-11
-4.46207e-11
-4.463e-11
-4.46398e-11
-4.46498e-11
-4.46602e-11
-4.46709e-11
-4.46817e-11
-4.46929e-11
-4.47042e-11
-4.47158e-11
-4.47276e-11
-4.47396e-11
-4.4752e-11
-4.47646e-11
-4.47775e-11
-4.47907e-11
-4.48041e-11
-4.48178e-11
-4.48316e-11
-4.48457e-11
-4.48599e-11
-4.48743e-11
-4.48889e-11
-4.49036e-11
-4.49185e-11
-4.49335e-11
-4.49486e-11
-4.49639e-11
-4.49793e-11
-4.49947e-11
-4.50103e-11
-4.50259e-11
-4.50416e-11
-4.50573e-11
-4.5073e-11
-4.50888e-11
-4.51045e-11
-4.51202e-11
-4.51358e-11
-4.51515e-11
-4.5167e-11
-4.51825e-11
-4.5198e-11
-4.52134e-11
-4.52288e-11
-4.52442e-11
-4.52596e-11
-4.5275e-11
-4.52905e-11
-4.53061e-11
-4.53217e-11
-4.53375e-11
-4.53532e-11
-4.53689e-11
-4.53846e-11
-4.53999e-11
-4.54149e-11
-4.54294e-11
-4.54432e-11
-4.54561e-11
-4.54682e-11
-4.54792e-11
-4.54893e-11
-4.54985e-11
-4.55067e-11
-4.5514e-11
-4.55204e-11
-4.55258e-11
-4.55299e-11
-4.55322e-11
-4.55334e-11
-4.55338e-11
-4.55339e-11
-4.55334e-11
-4.55375e-11
-9.7552e-12
3.81097e-09
7.5898e-09
9.79876e-09
1.14707e-08
1.30201e-08
1.45775e-08
1.61759e-08
1.78029e-08
1.9421e-08
2.09654e-08
2.23444e-08
2.3429e-08
2.40245e-08
2.3832e-08
2.25272e-08
2.0095e-08
1.69901e-08
1.37521e-08
1.06999e-08
7.96867e-09
5.59834e-09
3.58321e-09
1.89874e-09
5.15093e-10
-5.97032e-10
-1.46452e-09
-2.11154e-09
-2.56052e-09
-2.82819e-09
-2.93696e-09
-2.91185e-09
-2.77274e-09
-2.54455e-09
-2.25592e-09
-1.9393e-09
-1.63021e-09
-1.3648e-09
-1.175e-09
-1.08132e-09
-1.08537e-09
-1.16698e-09
-1.29345e-09
-1.43926e-09
-1.59771e-09
-1.77237e-09
-1.96173e-09
-2.15767e-09
-2.35563e-09
-2.55662e-09
-2.75993e-09
-2.96151e-09
-3.1577e-09
-3.34701e-09
-3.53431e-09
-3.71972e-09
-3.89862e-09
-4.06739e-09
-4.23498e-09
-4.41144e-09
-4.58707e-09
-4.75113e-09
-4.92369e-09
-5.11148e-09
-5.29401e-09
-5.47968e-09
-5.68633e-09
-5.89545e-09
-6.10538e-09
-6.34757e-09
-6.61107e-09
-6.86638e-09
-7.15118e-09
-7.48757e-09
-7.82869e-09
-8.2064e-09
-8.63509e-09
-9.08352e-09
-9.59864e-09
-1.01733e-08
-1.07706e-08
-1.14628e-08
-1.22354e-08
-1.30595e-08
-1.3953e-08
-1.48114e-08
-1.55675e-08
-1.61991e-08
-1.6706e-08
-1.7309e-08
-8.72189e-08
-1.5812e-07
-1.5812e-07
-1.5812e-07
-1.5812e-07
-1.5812e-07
-1.5812e-07
-1.5812e-07
-1.5812e-07
-1.5812e-07
-1.5812e-07
-1.5812e-07
-1.5812e-07
-1.5812e-07
-1.5812e-07
-1.5812e-07
-1.5812e-07
-1.5812e-07
-1.5812e-07
-1.5812e-07
-1.5812e-07
-1.5812e-07
-1.5812e-07
-1.5812e-07
-1.5812e-07
-1.5812e-07
-1.5812e-07
-1.5812e-07
-1.5812e-07
-1.5812e-07
-1.5812e-07
-1.5812e-07
-1.5812e-07
-1.5812e-07
-1.5812e-07
-1.5812e-07
-1.5812e-07
-1.5812e-07
-1.5812e-07
-1.5812e-07
-1.5812e-07
-1.5812e-07
-1.5812e-07
-1.5812e-07
-1.5812e-07
-1.5812e-07
-1.5812e-07
-1.5812e-07
-1.5812e-07
-1.5812e-07
-1.5812e-07
-1.5812e-07
-1.5812e-07
-1.5812e-07
-1.5812e-07
-1.5812e-07
-1.5812e-07
-1.5812e-07
-1.5812e-07
-1.5812e-07
-1.5812e-07
-1.5812e-07
-1.5812e-07
-1.5812e-07
-1.5812e-07
-1.5812e-07
-1.5812e-07
-1.5812e-07
-1.5812e-07
-1.5812e-07
-1.5812e-07
-1.5812e-07
-1.5812e-07
-1.5812e-07
-1.5812e-07
-1.5812e-07
-1.5812e-07
-1.5812e-07
-1.5812e-07
-1.5812e-07
-1.5812e-07
-1.5812e-07
-1.5812e-07
-1.5812e-07
-1.5812e-07
-1.5812e-07
-1.5812e-07
-1.5812e-07
-1.5812e-07
-1.5812e-07
-1.5812e-07
-1.5812e-07
-1.5812e-07
-1.5812e-07
-1.5812e-07
-1.5812e-07
-1.5812e-07
-1.5812e-07
-1.5812e-07
-1.5812e-07
-1.5812e-07
-1.5812e-07
-1.5812e-07
-1.5812e-07
-1.5812e-07
-1.5812e-07
-1.5812e-07
-1.5812e-07
-1.5812e-07
-1.5812e-07
-1.5812e-07
-1.5812e-07
-1.5812e-07
-1.5812e-07
-1.5812e-07
-1.5812e-07
-1.5812e-07
-1.5812e-07
-1.5812e-07
-1.58102e-07
-1.57395e-07
-1.3248e-07
)
;

boundaryField
{
    inandouthalf11
    {
        type            cyclic;
        value           nonuniform List<scalar> 
100
(
1.11957e-38
7.01581e-14
1.65002e-13
2.50619e-13
3.30843e-13
4.11331e-13
4.93979e-13
5.78791e-13
6.6501e-13
7.51925e-13
8.39338e-13
9.27378e-13
1.01613e-12
1.10541e-12
1.19474e-12
1.28353e-12
1.37127e-12
1.4577e-12
1.543e-12
1.62793e-12
1.714e-12
1.80365e-12
1.90035e-12
2.00854e-12
2.13291e-12
2.276e-12
2.43316e-12
2.58742e-12
2.71319e-12
2.79341e-12
2.83254e-12
2.84765e-12
2.85275e-12
2.85449e-12
2.85519e-12
2.85555e-12
2.8558e-12
2.85602e-12
2.85625e-12
2.85652e-12
2.85685e-12
2.85725e-12
2.85771e-12
2.85822e-12
2.85876e-12
2.85933e-12
2.8599e-12
2.86048e-12
2.86107e-12
2.86167e-12
2.86228e-12
2.86291e-12
2.86357e-12
2.86425e-12
2.86497e-12
2.86573e-12
2.86653e-12
2.86737e-12
2.86826e-12
2.86918e-12
2.87016e-12
2.87117e-12
2.87223e-12
2.87332e-12
2.87444e-12
2.87558e-12
2.87676e-12
2.87796e-12
2.8792e-12
2.88047e-12
2.88179e-12
2.88317e-12
2.88461e-12
2.88612e-12
2.8877e-12
2.88935e-12
2.89107e-12
2.89286e-12
2.8947e-12
2.8966e-12
2.89856e-12
2.90057e-12
2.90264e-12
2.90477e-12
2.90696e-12
2.90922e-12
2.91155e-12
2.91395e-12
2.91641e-12
2.91894e-12
2.92152e-12
2.92417e-12
2.92686e-12
2.92961e-12
2.93241e-12
2.93526e-12
2.93817e-12
2.94112e-12
2.94412e-12
2.94717e-12
)
;
    }
    inandouthalf12
    {
        type            cyclic;
        value           nonuniform List<scalar> 
100
(
-1.11957e-38
-7.01581e-14
-1.65002e-13
-2.50619e-13
-3.30843e-13
-4.11331e-13
-4.93979e-13
-5.78791e-13
-6.6501e-13
-7.51925e-13
-8.39338e-13
-9.27378e-13
-1.01613e-12
-1.10541e-12
-1.19474e-12
-1.28353e-12
-1.37127e-12
-1.4577e-12
-1.543e-12
-1.62793e-12
-1.714e-12
-1.80365e-12
-1.90035e-12
-2.00854e-12
-2.13291e-12
-2.276e-12
-2.43316e-12
-2.58742e-12
-2.71319e-12
-2.79341e-12
-2.83254e-12
-2.84765e-12
-2.85275e-12
-2.85449e-12
-2.85519e-12
-2.85555e-12
-2.8558e-12
-2.85602e-12
-2.85625e-12
-2.85652e-12
-2.85685e-12
-2.85725e-12
-2.85771e-12
-2.85822e-12
-2.85876e-12
-2.85933e-12
-2.8599e-12
-2.86048e-12
-2.86107e-12
-2.86167e-12
-2.86228e-12
-2.86291e-12
-2.86357e-12
-2.86425e-12
-2.86497e-12
-2.86573e-12
-2.86653e-12
-2.86737e-12
-2.86826e-12
-2.86918e-12
-2.87016e-12
-2.87117e-12
-2.87223e-12
-2.87332e-12
-2.87444e-12
-2.87558e-12
-2.87676e-12
-2.87796e-12
-2.8792e-12
-2.88047e-12
-2.88179e-12
-2.88317e-12
-2.88461e-12
-2.88612e-12
-2.8877e-12
-2.88935e-12
-2.89107e-12
-2.89286e-12
-2.8947e-12
-2.8966e-12
-2.89856e-12
-2.90057e-12
-2.90264e-12
-2.90477e-12
-2.90696e-12
-2.90922e-12
-2.91155e-12
-2.91395e-12
-2.91641e-12
-2.91894e-12
-2.92152e-12
-2.92417e-12
-2.92686e-12
-2.92961e-12
-2.93241e-12
-2.93526e-12
-2.93817e-12
-2.94112e-12
-2.94412e-12
-2.94717e-12
)
;
    }
    inandouthalf21
    {
        type            cyclic;
        value           nonuniform List<scalar> 
100
(
2.95027e-12
2.95341e-12
2.9566e-12
2.95982e-12
2.96308e-12
2.96638e-12
2.96971e-12
2.97307e-12
2.97646e-12
2.97987e-12
2.98331e-12
2.98677e-12
2.99025e-12
2.99376e-12
2.99728e-12
3.00084e-12
3.00443e-12
3.00807e-12
3.01175e-12
3.01548e-12
3.01929e-12
3.02317e-12
3.02714e-12
3.0312e-12
3.03535e-12
3.0396e-12
3.04393e-12
3.04832e-12
3.05275e-12
3.05718e-12
3.06158e-12
3.06589e-12
3.07009e-12
3.07415e-12
3.07806e-12
3.08183e-12
3.08547e-12
3.08897e-12
3.09233e-12
3.09551e-12
3.09831e-12
3.10046e-12
3.10184e-12
3.10257e-12
3.10293e-12
3.10315e-12
3.10346e-12
3.10864e-12
2.7603e-08
1.35177e-07
2.41884e-07
3.26566e-07
3.9547e-07
4.52807e-07
5.01199e-07
5.42382e-07
5.7755e-07
6.07542e-07
6.32958e-07
6.54258e-07
6.7184e-07
6.86106e-07
6.97506e-07
7.06536e-07
7.13691e-07
7.19394e-07
7.23961e-07
7.27625e-07
7.30557e-07
7.32888e-07
7.3472e-07
7.36135e-07
7.37198e-07
7.37965e-07
7.3848e-07
7.38781e-07
7.38901e-07
7.38871e-07
7.38718e-07
7.38454e-07
7.38101e-07
7.37676e-07
7.37194e-07
7.36669e-07
7.36112e-07
7.35531e-07
7.34936e-07
7.3433e-07
7.33718e-07
7.33106e-07
7.32498e-07
7.31897e-07
7.31303e-07
7.30718e-07
7.30141e-07
7.29573e-07
7.29017e-07
7.2847e-07
7.27933e-07
7.27409e-07
)
;
    }
    inandouthalf22
    {
        type            cyclic;
        value           nonuniform List<scalar> 
100
(
-2.95027e-12
-2.95341e-12
-2.9566e-12
-2.95982e-12
-2.96308e-12
-2.96638e-12
-2.96971e-12
-2.97307e-12
-2.97646e-12
-2.97987e-12
-2.98331e-12
-2.98677e-12
-2.99025e-12
-2.99376e-12
-2.99728e-12
-3.00084e-12
-3.00443e-12
-3.00807e-12
-3.01175e-12
-3.01548e-12
-3.01929e-12
-3.02317e-12
-3.02714e-12
-3.0312e-12
-3.03535e-12
-3.0396e-12
-3.04393e-12
-3.04832e-12
-3.05275e-12
-3.05718e-12
-3.06158e-12
-3.06589e-12
-3.07009e-12
-3.07415e-12
-3.07806e-12
-3.08183e-12
-3.08547e-12
-3.08897e-12
-3.09233e-12
-3.09551e-12
-3.09831e-12
-3.10046e-12
-3.10184e-12
-3.10257e-12
-3.10293e-12
-3.10315e-12
-3.10346e-12
-3.10864e-12
-2.7603e-08
-1.35177e-07
-2.41884e-07
-3.26566e-07
-3.9547e-07
-4.52807e-07
-5.01199e-07
-5.42382e-07
-5.7755e-07
-6.07542e-07
-6.32958e-07
-6.54258e-07
-6.7184e-07
-6.86106e-07
-6.97506e-07
-7.06536e-07
-7.13691e-07
-7.19394e-07
-7.23961e-07
-7.27625e-07
-7.30557e-07
-7.32888e-07
-7.3472e-07
-7.36135e-07
-7.37198e-07
-7.37965e-07
-7.3848e-07
-7.38781e-07
-7.38901e-07
-7.38871e-07
-7.38718e-07
-7.38454e-07
-7.38101e-07
-7.37676e-07
-7.37194e-07
-7.36669e-07
-7.36112e-07
-7.35531e-07
-7.34936e-07
-7.3433e-07
-7.33718e-07
-7.33106e-07
-7.32498e-07
-7.31897e-07
-7.31303e-07
-7.30718e-07
-7.30141e-07
-7.29573e-07
-7.29017e-07
-7.2847e-07
-7.27933e-07
-7.27409e-07
)
;
    }
    inandouthalf31
    {
        type            cyclic;
        value           nonuniform List<scalar> 
110
(
7.26901e-07
7.4114e-07
7.55658e-07
7.70459e-07
7.85554e-07
8.00943e-07
8.16625e-07
8.32605e-07
8.48898e-07
8.65503e-07
8.82415e-07
8.99644e-07
9.17201e-07
9.3508e-07
9.53286e-07
9.71835e-07
9.90714e-07
1.00992e-06
1.02948e-06
1.0494e-06
1.06964e-06
1.09023e-06
1.11119e-06
1.13248e-06
1.15413e-06
1.17614e-06
1.19848e-06
1.2212e-06
1.24427e-06
1.26766e-06
1.29141e-06
1.31554e-06
1.34012e-06
1.36539e-06
1.39146e-06
1.41837e-06
1.44607e-06
1.47393e-06
1.32942e-06
1.35639e-06
1.38391e-06
1.41198e-06
1.44063e-06
1.46987e-06
1.49969e-06
1.53013e-06
1.56118e-06
1.59286e-06
1.62519e-06
1.65817e-06
1.69183e-06
1.72616e-06
1.7612e-06
1.79695e-06
1.83342e-06
1.87063e-06
1.9086e-06
1.94734e-06
1.98686e-06
2.02719e-06
2.06834e-06
2.11032e-06
2.15315e-06
2.19685e-06
2.24144e-06
2.28694e-06
2.33336e-06
2.38072e-06
2.42904e-06
2.47834e-06
2.52865e-06
2.57997e-06
2.63234e-06
2.68577e-06
2.74028e-06
2.7959e-06
2.85265e-06
2.91055e-06
2.96963e-06
3.02991e-06
3.0914e-06
3.15415e-06
3.21817e-06
3.28349e-06
3.35014e-06
3.41814e-06
3.48752e-06
3.5583e-06
3.63053e-06
3.70422e-06
3.7794e-06
3.85612e-06
3.93439e-06
4.01424e-06
4.09572e-06
4.17885e-06
4.26367e-06
4.35021e-06
4.43851e-06
4.5286e-06
4.62052e-06
4.7143e-06
4.80999e-06
4.90762e-06
5.00723e-06
5.10887e-06
5.21256e-06
5.31837e-06
5.42631e-06
5.53645e-06
)
;
    }
    inandouthalf32
    {
        type            cyclic;
        value           nonuniform List<scalar> 
110
(
-7.26901e-07
-7.4114e-07
-7.55658e-07
-7.70459e-07
-7.85554e-07
-8.00943e-07
-8.16625e-07
-8.32605e-07
-8.48898e-07
-8.65503e-07
-8.82415e-07
-8.99644e-07
-9.17201e-07
-9.3508e-07
-9.53286e-07
-9.71835e-07
-9.90714e-07
-1.00992e-06
-1.02948e-06
-1.0494e-06
-1.06964e-06
-1.09023e-06
-1.11119e-06
-1.13248e-06
-1.15413e-06
-1.17614e-06
-1.19848e-06
-1.2212e-06
-1.24427e-06
-1.26766e-06
-1.29141e-06
-1.31554e-06
-1.34012e-06
-1.36539e-06
-1.39146e-06
-1.41837e-06
-1.44607e-06
-1.47393e-06
-1.32942e-06
-1.35639e-06
-1.38391e-06
-1.41198e-06
-1.44063e-06
-1.46987e-06
-1.49969e-06
-1.53013e-06
-1.56118e-06
-1.59286e-06
-1.62519e-06
-1.65817e-06
-1.69183e-06
-1.72616e-06
-1.7612e-06
-1.79695e-06
-1.83342e-06
-1.87063e-06
-1.9086e-06
-1.94734e-06
-1.98686e-06
-2.02719e-06
-2.06834e-06
-2.11032e-06
-2.15315e-06
-2.19685e-06
-2.24144e-06
-2.28694e-06
-2.33336e-06
-2.38072e-06
-2.42904e-06
-2.47834e-06
-2.52865e-06
-2.57997e-06
-2.63234e-06
-2.68577e-06
-2.74028e-06
-2.7959e-06
-2.85265e-06
-2.91055e-06
-2.96963e-06
-3.02991e-06
-3.0914e-06
-3.15415e-06
-3.21817e-06
-3.28349e-06
-3.35014e-06
-3.41814e-06
-3.48752e-06
-3.5583e-06
-3.63053e-06
-3.70422e-06
-3.7794e-06
-3.85612e-06
-3.93439e-06
-4.01424e-06
-4.09572e-06
-4.17885e-06
-4.26367e-06
-4.35021e-06
-4.43851e-06
-4.5286e-06
-4.62052e-06
-4.7143e-06
-4.80999e-06
-4.90762e-06
-5.00723e-06
-5.10887e-06
-5.21256e-06
-5.31837e-06
-5.42631e-06
-5.53645e-06
)
;
    }
    inandouthalf41
    {
        type            cyclic;
        value           nonuniform List<scalar> 
50
(
4.95569e-06
4.95569e-06
4.95569e-06
4.95569e-06
4.95569e-06
4.95569e-06
4.95569e-06
4.95569e-06
4.95569e-06
4.95569e-06
4.95569e-06
4.95569e-06
4.95569e-06
4.95569e-06
4.95569e-06
4.95569e-06
4.95569e-06
4.95569e-06
4.95569e-06
4.95569e-06
4.95569e-06
4.95569e-06
4.95569e-06
4.95569e-06
4.95569e-06
4.95569e-06
4.95569e-06
4.95569e-06
4.95569e-06
4.95569e-06
4.95569e-06
4.95569e-06
4.95569e-06
4.95569e-06
4.95569e-06
4.95569e-06
4.95569e-06
4.95569e-06
4.95569e-06
4.95569e-06
4.95569e-06
4.95569e-06
4.95569e-06
4.95569e-06
4.95569e-06
4.95569e-06
4.95569e-06
4.95568e-06
4.95554e-06
4.95216e-06
)
;
    }
    inandouthalf42
    {
        type            cyclic;
        value           nonuniform List<scalar> 
50
(
-4.95569e-06
-4.95569e-06
-4.95569e-06
-4.95569e-06
-4.95569e-06
-4.95569e-06
-4.95569e-06
-4.95569e-06
-4.95569e-06
-4.95569e-06
-4.95569e-06
-4.95569e-06
-4.95569e-06
-4.95569e-06
-4.95569e-06
-4.95569e-06
-4.95569e-06
-4.95569e-06
-4.95569e-06
-4.95569e-06
-4.95569e-06
-4.95569e-06
-4.95569e-06
-4.95569e-06
-4.95569e-06
-4.95569e-06
-4.95569e-06
-4.95569e-06
-4.95569e-06
-4.95569e-06
-4.95569e-06
-4.95569e-06
-4.95569e-06
-4.95569e-06
-4.95569e-06
-4.95569e-06
-4.95569e-06
-4.95569e-06
-4.95569e-06
-4.95569e-06
-4.95569e-06
-4.95569e-06
-4.95569e-06
-4.95569e-06
-4.95569e-06
-4.95569e-06
-4.95569e-06
-4.95568e-06
-4.95554e-06
-4.95216e-06
)
;
    }
    top
    {
        type            symmetryPlane;
        value           uniform 0;
    }
    walls
    {
        type            fixedValue;
        value           uniform 0;
    }
    frontAndBackPlanes
    {
        type            empty;
        value           nonuniform 0();
    }
}


// ************************************************************************* //
