/*--------------------------------*- C++ -*----------------------------------*\
| =========                 |                                                 |
| \\      /  F ield         | OpenFOAM: The Open Source CFD Toolbox           |
|  \\    /   O peration     | Version:  2.4.x                                 |
|   \\  /    A nd           | Web:      www.OpenFOAM.org                      |
|    \\/     M anipulation  |                                                 |
\*---------------------------------------------------------------------------*/
FoamFile
{
    version     2.0;
    format      ascii;
    class       surfaceScalarField;
    location    "3.85";
    object      phib_0;
}
// * * * * * * * * * * * * * * * * * * * * * * * * * * * * * * * * * * * * * //

dimensions      [0 3 -1 0 0 0 0];

internalField   nonuniform List<scalar> 
359
(
1.13968e-12
3.37856e-12
5.56233e-12
7.54165e-12
9.46002e-12
1.14121e-11
1.34217e-11
1.54762e-11
1.75524e-11
1.964e-11
2.17404e-11
2.38572e-11
2.59903e-11
2.8131e-11
3.02655e-11
3.23803e-11
3.44654e-11
3.6519e-11
3.85512e-11
4.05899e-11
4.26809e-11
4.48971e-11
4.73363e-11
5.0115e-11
5.3334e-11
5.69874e-11
6.08259e-11
6.43194e-11
6.69042e-11
6.83967e-11
6.90663e-11
6.93107e-11
6.93907e-11
6.94177e-11
6.94283e-11
6.94336e-11
6.94369e-11
6.94396e-11
6.94426e-11
6.94462e-11
6.94503e-11
6.94554e-11
6.94609e-11
6.94666e-11
6.94723e-11
6.94779e-11
6.94832e-11
6.94882e-11
6.94926e-11
6.94968e-11
6.95008e-11
6.95047e-11
6.95084e-11
6.9512e-11
6.95155e-11
6.9519e-11
6.95225e-11
6.95259e-11
6.95295e-11
6.95329e-11
6.95364e-11
6.95399e-11
6.95435e-11
6.9547e-11
6.95505e-11
6.9554e-11
6.95572e-11
6.95603e-11
6.95633e-11
6.95663e-11
6.95691e-11
6.95721e-11
6.95752e-11
6.95786e-11
6.95821e-11
6.9586e-11
6.95901e-11
6.95944e-11
6.95988e-11
6.96032e-11
6.96076e-11
6.9612e-11
6.96165e-11
6.96209e-11
6.96255e-11
6.96301e-11
6.96348e-11
6.96397e-11
6.96446e-11
6.96495e-11
6.96544e-11
6.96592e-11
6.96638e-11
6.96683e-11
6.96726e-11
6.96768e-11
6.96807e-11
6.96844e-11
6.96879e-11
6.9691e-11
6.96939e-11
6.96963e-11
6.96984e-11
6.97001e-11
6.97012e-11
6.97018e-11
6.97018e-11
6.97012e-11
6.96999e-11
6.96979e-11
6.96951e-11
6.96915e-11
6.9687e-11
6.96816e-11
6.96753e-11
6.9668e-11
6.96597e-11
6.96505e-11
6.96403e-11
6.96291e-11
6.96168e-11
6.96035e-11
6.95891e-11
6.95736e-11
6.95567e-11
6.95384e-11
6.95183e-11
6.94963e-11
6.94718e-11
6.94447e-11
6.94145e-11
6.93809e-11
6.93434e-11
6.93011e-11
6.92539e-11
6.9202e-11
6.91451e-11
6.9081e-11
6.9006e-11
6.89199e-11
6.88305e-11
6.87325e-11
6.86079e-11
6.84501e-11
6.82183e-11
6.77117e-11
6.70823e-11
1.07215e-11
-2.10782e-09
-2.23807e-09
-2.02708e-09
-1.77535e-09
-1.51534e-09
-1.26246e-09
-1.0272e-09
-8.16474e-10
-6.34066e-10
-4.8075e-10
-3.55357e-10
-2.55352e-10
-1.77305e-10
-1.17665e-10
-7.38504e-11
-4.41437e-11
-2.58774e-11
-1.52628e-11
-9.08058e-12
-5.37367e-12
-3.08743e-12
-1.65056e-12
-7.40861e-13
-1.6869e-13
1.82103e-13
3.85204e-13
4.88803e-13
5.25389e-13
5.16533e-13
4.78616e-13
4.23713e-13
3.598e-13
2.93396e-13
2.29642e-13
1.72556e-13
1.25039e-13
8.86681e-14
6.34365e-14
4.77721e-14
3.9097e-14
3.47269e-14
3.25168e-14
3.10343e-14
2.95857e-14
2.81129e-14
2.67804e-14
2.557e-14
2.43144e-14
2.29767e-14
2.16653e-14
2.04353e-14
1.92269e-14
1.7946e-14
1.65911e-14
1.53471e-14
1.42757e-14
1.3151e-14
1.18813e-14
1.0755e-14
9.90735e-15
9.02492e-15
8.04156e-15
7.25012e-15
6.59593e-15
5.88728e-15
5.26181e-15
4.76578e-15
4.22687e-15
3.70882e-15
3.35147e-15
3.00926e-15
2.60452e-15
2.29444e-15
2.05014e-15
1.78671e-15
1.57272e-15
1.37765e-15
1.18183e-15
1.04389e-15
9.06176e-16
7.56035e-16
6.51628e-16
5.58299e-16
4.90015e-16
4.71892e-16
4.56286e-16
4.07323e-16
2.87201e-16
1.2928e-16
1.02995e-16
1.62621e-17
1.56127e-17
1.50641e-17
1.45512e-17
1.40054e-17
1.34851e-17
1.29405e-17
1.24258e-17
1.18859e-17
1.13559e-17
1.08221e-17
1.03129e-17
9.78467e-18
9.27793e-18
8.75522e-18
8.25106e-18
7.73495e-18
7.23548e-18
6.73095e-18
6.24137e-18
5.75134e-18
5.27715e-18
4.80966e-18
4.36104e-18
3.92917e-18
3.52658e-18
3.15393e-18
2.81322e-18
2.53595e-18
2.24302e-18
1.97168e-18
1.72007e-18
1.48547e-18
1.26744e-18
1.06144e-18
8.7371e-19
7.02181e-19
5.5086e-19
4.02811e-19
2.7783e-19
1.62565e-19
6.40023e-20
-5.90458e-20
-1.59541e-19
-2.52417e-19
-3.09832e-19
-3.81744e-19
-4.11747e-19
-4.00432e-19
-3.85356e-19
-4.14063e-19
-4.07384e-19
-3.96458e-19
-3.42918e-19
-3.13267e-19
-2.50267e-19
-1.90818e-19
-1.2295e-19
-1.99254e-19
-2.04118e-19
-2.17618e-19
-2.17692e-19
-2.34645e-19
-2.37578e-19
-2.42056e-19
-2.33415e-19
-2.47865e-19
-2.51353e-19
-2.54484e-19
-2.44652e-19
-2.4501e-19
-2.32536e-19
-2.21791e-19
-2.06579e-19
-2.04797e-19
-1.99644e-19
-1.95104e-19
-1.86668e-19
-1.8051e-19
-1.7192e-19
-1.63898e-19
-1.54851e-19
-1.47941e-19
-1.40893e-19
-1.33882e-19
-1.27911e-19
-1.22527e-19
-1.19567e-19
-1.18424e-19
-1.24626e-19
-1.45931e-19
-1.79095e-19
-2.1483e-19
-2.63436e-19
-3.04048e-19
-3.61362e-19
-4.18961e-19
-4.90985e-19
-5.44633e-19
-6.13392e-19
-6.83016e-19
-7.68805e-19
-8.52257e-19
-9.39667e-19
-1.0328e-18
-1.12164e-18
-1.2843e-18
-1.41598e-18
-1.5503e-18
-1.63168e-18
-1.7559e-18
-1.79676e-18
-1.84666e-18
-2.00675e-18
-1.88406e-18
-1.81853e-18
-1.75221e-18
-2.08357e-18
-1.23442e-18
-2.28617e-18
-4.73675e-18
)
;

boundaryField
{
    inandouthalf11
    {
        type            cyclic;
        value           nonuniform List<scalar> 
100
(
1.35966e-10
1.35721e-10
1.35635e-10
1.35753e-10
1.35887e-10
1.36006e-10
1.36124e-10
1.36243e-10
1.36359e-10
1.36477e-10
1.36598e-10
1.3672e-10
1.36845e-10
1.36969e-10
1.37093e-10
1.37216e-10
1.37338e-10
1.37459e-10
1.37578e-10
1.37697e-10
1.37817e-10
1.37942e-10
1.38077e-10
1.38228e-10
1.38401e-10
1.386e-10
1.38818e-10
1.39034e-10
1.3921e-10
1.39325e-10
1.39384e-10
1.3941e-10
1.3942e-10
1.39428e-10
1.39433e-10
1.39438e-10
1.39444e-10
1.3945e-10
1.39458e-10
1.39464e-10
1.39472e-10
1.39481e-10
1.3949e-10
1.395e-10
1.39511e-10
1.39523e-10
1.39535e-10
1.39548e-10
1.39562e-10
1.39579e-10
1.39595e-10
1.39613e-10
1.39631e-10
1.39652e-10
1.39673e-10
1.39696e-10
1.3972e-10
1.39746e-10
1.39773e-10
1.39801e-10
1.39832e-10
1.39862e-10
1.39895e-10
1.39928e-10
1.39961e-10
1.39996e-10
1.40031e-10
1.40068e-10
1.40106e-10
1.40146e-10
1.40187e-10
1.4023e-10
1.40274e-10
1.4032e-10
1.40366e-10
1.40415e-10
1.40463e-10
1.40513e-10
1.40564e-10
1.40617e-10
1.4067e-10
1.40726e-10
1.40782e-10
1.4084e-10
1.409e-10
1.40961e-10
1.41024e-10
1.41088e-10
1.41153e-10
1.4122e-10
1.41288e-10
1.41358e-10
1.41429e-10
1.41502e-10
1.41577e-10
1.41653e-10
1.41731e-10
1.41812e-10
1.41894e-10
1.41978e-10
)
;
    }
    inandouthalf12
    {
        type            cyclic;
        value           nonuniform List<scalar> 
100
(
-1.35966e-10
-1.35721e-10
-1.35635e-10
-1.35753e-10
-1.35887e-10
-1.36006e-10
-1.36124e-10
-1.36243e-10
-1.36359e-10
-1.36477e-10
-1.36598e-10
-1.3672e-10
-1.36845e-10
-1.36969e-10
-1.37093e-10
-1.37216e-10
-1.37338e-10
-1.37459e-10
-1.37578e-10
-1.37697e-10
-1.37817e-10
-1.37942e-10
-1.38077e-10
-1.38228e-10
-1.38401e-10
-1.386e-10
-1.38818e-10
-1.39034e-10
-1.3921e-10
-1.39325e-10
-1.39384e-10
-1.3941e-10
-1.3942e-10
-1.39428e-10
-1.39433e-10
-1.39438e-10
-1.39444e-10
-1.3945e-10
-1.39458e-10
-1.39464e-10
-1.39472e-10
-1.39481e-10
-1.3949e-10
-1.395e-10
-1.39511e-10
-1.39523e-10
-1.39535e-10
-1.39548e-10
-1.39562e-10
-1.39579e-10
-1.39595e-10
-1.39613e-10
-1.39631e-10
-1.39652e-10
-1.39673e-10
-1.39696e-10
-1.3972e-10
-1.39746e-10
-1.39773e-10
-1.39801e-10
-1.39832e-10
-1.39862e-10
-1.39895e-10
-1.39928e-10
-1.39961e-10
-1.39996e-10
-1.40031e-10
-1.40068e-10
-1.40106e-10
-1.40146e-10
-1.40187e-10
-1.4023e-10
-1.40274e-10
-1.4032e-10
-1.40366e-10
-1.40415e-10
-1.40463e-10
-1.40513e-10
-1.40564e-10
-1.40617e-10
-1.4067e-10
-1.40726e-10
-1.40782e-10
-1.4084e-10
-1.409e-10
-1.40961e-10
-1.41024e-10
-1.41088e-10
-1.41153e-10
-1.4122e-10
-1.41288e-10
-1.41358e-10
-1.41429e-10
-1.41502e-10
-1.41577e-10
-1.41653e-10
-1.41731e-10
-1.41812e-10
-1.41894e-10
-1.41978e-10
)
;
    }
    inandouthalf21
    {
        type            cyclic;
        value           nonuniform List<scalar> 
100
(
1.42063e-10
1.42151e-10
1.42242e-10
1.42334e-10
1.42429e-10
1.42526e-10
1.42625e-10
1.42727e-10
1.42832e-10
1.4294e-10
1.4305e-10
1.43164e-10
1.4328e-10
1.434e-10
1.43524e-10
1.43651e-10
1.43781e-10
1.43916e-10
1.44055e-10
1.44199e-10
1.44347e-10
1.44499e-10
1.44657e-10
1.4482e-10
1.44989e-10
1.45164e-10
1.45345e-10
1.45533e-10
1.45728e-10
1.45931e-10
1.46142e-10
1.46362e-10
1.46591e-10
1.46833e-10
1.4709e-10
1.47361e-10
1.47647e-10
1.47949e-10
1.48284e-10
1.48668e-10
1.49086e-10
1.49483e-10
1.49954e-10
1.50566e-10
1.51319e-10
1.52584e-10
1.55858e-10
2.21301e-10
3.04751e-08
1.49233e-07
2.55369e-07
3.38028e-07
4.05705e-07
4.62469e-07
5.10862e-07
5.52616e-07
5.88958e-07
6.20768e-07
6.48667e-07
6.73083e-07
6.94296e-07
7.12479e-07
7.27757e-07
7.40262e-07
7.50193e-07
7.57842e-07
7.63572e-07
7.67757e-07
7.70739e-07
7.72799e-07
7.74152e-07
7.74961e-07
7.75341e-07
7.75378e-07
7.75135e-07
7.74657e-07
7.73978e-07
7.73127e-07
7.72123e-07
7.70984e-07
7.69722e-07
7.68351e-07
7.66878e-07
7.65314e-07
7.63664e-07
7.61936e-07
7.60135e-07
7.58268e-07
7.56338e-07
7.5435e-07
7.52309e-07
7.50218e-07
7.48081e-07
7.45901e-07
7.43681e-07
7.41425e-07
7.39135e-07
7.36813e-07
7.34463e-07
7.32085e-07
)
;
    }
    inandouthalf22
    {
        type            cyclic;
        value           nonuniform List<scalar> 
100
(
-1.42063e-10
-1.42151e-10
-1.42242e-10
-1.42334e-10
-1.42429e-10
-1.42526e-10
-1.42625e-10
-1.42727e-10
-1.42832e-10
-1.4294e-10
-1.4305e-10
-1.43164e-10
-1.4328e-10
-1.434e-10
-1.43524e-10
-1.43651e-10
-1.43781e-10
-1.43916e-10
-1.44055e-10
-1.44199e-10
-1.44347e-10
-1.44499e-10
-1.44657e-10
-1.4482e-10
-1.44989e-10
-1.45164e-10
-1.45345e-10
-1.45533e-10
-1.45728e-10
-1.45931e-10
-1.46142e-10
-1.46362e-10
-1.46591e-10
-1.46833e-10
-1.4709e-10
-1.47361e-10
-1.47647e-10
-1.47949e-10
-1.48284e-10
-1.48668e-10
-1.49086e-10
-1.49483e-10
-1.49954e-10
-1.50566e-10
-1.51319e-10
-1.52584e-10
-1.55858e-10
-2.21301e-10
-3.04751e-08
-1.49233e-07
-2.55369e-07
-3.38028e-07
-4.05705e-07
-4.62469e-07
-5.10862e-07
-5.52616e-07
-5.88958e-07
-6.20768e-07
-6.48667e-07
-6.73083e-07
-6.94296e-07
-7.12479e-07
-7.27757e-07
-7.40262e-07
-7.50193e-07
-7.57842e-07
-7.63572e-07
-7.67757e-07
-7.70739e-07
-7.72799e-07
-7.74152e-07
-7.74961e-07
-7.75341e-07
-7.75378e-07
-7.75135e-07
-7.74657e-07
-7.73978e-07
-7.73127e-07
-7.72123e-07
-7.70984e-07
-7.69722e-07
-7.68351e-07
-7.66878e-07
-7.65314e-07
-7.63664e-07
-7.61936e-07
-7.60135e-07
-7.58268e-07
-7.56338e-07
-7.5435e-07
-7.52309e-07
-7.50218e-07
-7.48081e-07
-7.45901e-07
-7.43681e-07
-7.41425e-07
-7.39135e-07
-7.36813e-07
-7.34463e-07
-7.32085e-07
)
;
    }
    inandouthalf31
    {
        type            cyclic;
        value           nonuniform List<scalar> 
110
(
7.29686e-07
7.41999e-07
7.54437e-07
7.66998e-07
7.79681e-07
7.92484e-07
8.05404e-07
8.18441e-07
8.31591e-07
8.44854e-07
8.58227e-07
8.71709e-07
8.85298e-07
8.98994e-07
9.12795e-07
9.26701e-07
9.40713e-07
9.54831e-07
9.69059e-07
9.83399e-07
9.97857e-07
1.01244e-06
1.02716e-06
1.04202e-06
1.05705e-06
1.07227e-06
1.0877e-06
1.1034e-06
1.11941e-06
1.1358e-06
1.15269e-06
1.17023e-06
1.18868e-06
1.20865e-06
1.23181e-06
1.25671e-06
1.28219e-06
1.30819e-06
1.33473e-06
1.3618e-06
1.38943e-06
1.41762e-06
1.44639e-06
1.47573e-06
1.50568e-06
1.53623e-06
1.56741e-06
1.59922e-06
1.63168e-06
1.66479e-06
1.69858e-06
1.73305e-06
1.76823e-06
1.80412e-06
1.84074e-06
1.8781e-06
1.91622e-06
1.95511e-06
1.99479e-06
2.03528e-06
2.07659e-06
2.11874e-06
2.16175e-06
2.20562e-06
2.25039e-06
2.29607e-06
2.34267e-06
2.39022e-06
2.43874e-06
2.48824e-06
2.53874e-06
2.59027e-06
2.64285e-06
2.69649e-06
2.75122e-06
2.80706e-06
2.86404e-06
2.92217e-06
2.98148e-06
3.042e-06
3.10374e-06
3.16674e-06
3.23102e-06
3.2966e-06
3.36351e-06
3.43178e-06
3.50144e-06
3.57251e-06
3.64502e-06
3.719e-06
3.79449e-06
3.87151e-06
3.95009e-06
4.03027e-06
4.11207e-06
4.19553e-06
4.28069e-06
4.36758e-06
4.45623e-06
4.54668e-06
4.63896e-06
4.73312e-06
4.82919e-06
4.92721e-06
5.02722e-06
5.12926e-06
5.23337e-06
5.33959e-06
5.44797e-06
5.55855e-06
)
;
    }
    inandouthalf32
    {
        type            cyclic;
        value           nonuniform List<scalar> 
110
(
-7.29686e-07
-7.41999e-07
-7.54437e-07
-7.66998e-07
-7.79681e-07
-7.92484e-07
-8.05404e-07
-8.18441e-07
-8.31591e-07
-8.44854e-07
-8.58227e-07
-8.71709e-07
-8.85298e-07
-8.98994e-07
-9.12795e-07
-9.26701e-07
-9.40713e-07
-9.54831e-07
-9.69059e-07
-9.83399e-07
-9.97857e-07
-1.01244e-06
-1.02716e-06
-1.04202e-06
-1.05705e-06
-1.07227e-06
-1.0877e-06
-1.1034e-06
-1.11941e-06
-1.1358e-06
-1.15269e-06
-1.17023e-06
-1.18868e-06
-1.20865e-06
-1.23181e-06
-1.25671e-06
-1.28219e-06
-1.30819e-06
-1.33473e-06
-1.3618e-06
-1.38943e-06
-1.41762e-06
-1.44639e-06
-1.47573e-06
-1.50568e-06
-1.53623e-06
-1.56741e-06
-1.59922e-06
-1.63168e-06
-1.66479e-06
-1.69858e-06
-1.73305e-06
-1.76823e-06
-1.80412e-06
-1.84074e-06
-1.8781e-06
-1.91622e-06
-1.95511e-06
-1.99479e-06
-2.03528e-06
-2.07659e-06
-2.11874e-06
-2.16175e-06
-2.20562e-06
-2.25039e-06
-2.29607e-06
-2.34267e-06
-2.39022e-06
-2.43874e-06
-2.48824e-06
-2.53874e-06
-2.59027e-06
-2.64285e-06
-2.69649e-06
-2.75122e-06
-2.80706e-06
-2.86404e-06
-2.92217e-06
-2.98148e-06
-3.042e-06
-3.10374e-06
-3.16674e-06
-3.23102e-06
-3.2966e-06
-3.36351e-06
-3.43178e-06
-3.50144e-06
-3.57251e-06
-3.64502e-06
-3.719e-06
-3.79449e-06
-3.87151e-06
-3.95009e-06
-4.03027e-06
-4.11207e-06
-4.19553e-06
-4.28069e-06
-4.36758e-06
-4.45623e-06
-4.54668e-06
-4.63896e-06
-4.73312e-06
-4.82919e-06
-4.92721e-06
-5.02722e-06
-5.12926e-06
-5.23337e-06
-5.33959e-06
-5.44797e-06
-5.55855e-06
)
;
    }
    inandouthalf41
    {
        type            cyclic;
        value           nonuniform List<scalar> 
50
(
4.97547e-06
4.97547e-06
4.97547e-06
4.97547e-06
4.97547e-06
4.97547e-06
4.97547e-06
4.97547e-06
4.97547e-06
4.97547e-06
4.97547e-06
4.97547e-06
4.97547e-06
4.97547e-06
4.97547e-06
4.97547e-06
4.97547e-06
4.97547e-06
4.97547e-06
4.97547e-06
4.97547e-06
4.97547e-06
4.97547e-06
4.97547e-06
4.97547e-06
4.97547e-06
4.97547e-06
4.97547e-06
4.97547e-06
4.97547e-06
4.97547e-06
4.97547e-06
4.97547e-06
4.97547e-06
4.97547e-06
4.97547e-06
4.97547e-06
4.97547e-06
4.97547e-06
4.97547e-06
4.97547e-06
4.97547e-06
4.97547e-06
4.97547e-06
4.97547e-06
4.97547e-06
4.97547e-06
4.97547e-06
4.97547e-06
4.97547e-06
)
;
    }
    inandouthalf42
    {
        type            cyclic;
        value           nonuniform List<scalar> 
50
(
-4.97547e-06
-4.97547e-06
-4.97547e-06
-4.97547e-06
-4.97547e-06
-4.97547e-06
-4.97547e-06
-4.97547e-06
-4.97547e-06
-4.97547e-06
-4.97547e-06
-4.97547e-06
-4.97547e-06
-4.97547e-06
-4.97547e-06
-4.97547e-06
-4.97547e-06
-4.97547e-06
-4.97547e-06
-4.97547e-06
-4.97547e-06
-4.97547e-06
-4.97547e-06
-4.97547e-06
-4.97547e-06
-4.97547e-06
-4.97547e-06
-4.97547e-06
-4.97547e-06
-4.97547e-06
-4.97547e-06
-4.97547e-06
-4.97547e-06
-4.97547e-06
-4.97547e-06
-4.97547e-06
-4.97547e-06
-4.97547e-06
-4.97547e-06
-4.97547e-06
-4.97547e-06
-4.97547e-06
-4.97547e-06
-4.97547e-06
-4.97547e-06
-4.97547e-06
-4.97547e-06
-4.97547e-06
-4.97547e-06
-4.97547e-06
)
;
    }
    top
    {
        type            symmetryPlane;
        value           uniform 0;
    }
    walls
    {
        type            fixedValue;
        value           uniform 0;
    }
    frontAndBackPlanes
    {
        type            empty;
        value           nonuniform 0();
    }
}


// ************************************************************************* //
