/*--------------------------------*- C++ -*----------------------------------*\
| =========                 |                                                 |
| \\      /  F ield         | OpenFOAM: The Open Source CFD Toolbox           |
|  \\    /   O peration     | Version:  2.4.x                                 |
|   \\  /    A nd           | Web:      www.OpenFOAM.org                      |
|    \\/     M anipulation  |                                                 |
\*---------------------------------------------------------------------------*/
FoamFile
{
    version     2.0;
    format      ascii;
    class       volScalarField;
    location    "3.85";
    object      Theta;
}
// * * * * * * * * * * * * * * * * * * * * * * * * * * * * * * * * * * * * * //

dimensions      [0 2 -2 0 0 0 0];

internalField   nonuniform List<scalar> 
360
(
6.67802e-21
6.73488e-21
6.72954e-21
6.7152e-21
6.71284e-21
6.71512e-21
6.7183e-21
6.72082e-21
6.72217e-21
6.72287e-21
6.72364e-21
6.72465e-21
6.72564e-21
6.72612e-21
6.72578e-21
6.7246e-21
6.72286e-21
6.72103e-21
6.71984e-21
6.72021e-21
6.72336e-21
6.73106e-21
6.74594e-21
6.7714e-21
6.80949e-21
6.85271e-21
6.87271e-21
6.83547e-21
6.756e-21
6.69281e-21
6.6677e-21
6.66221e-21
6.66145e-21
6.66137e-21
6.66136e-21
6.66136e-21
6.66136e-21
6.66136e-21
6.66136e-21
6.66136e-21
6.66136e-21
6.66136e-21
6.66136e-21
6.66136e-21
6.66136e-21
6.66136e-21
6.66136e-21
6.66136e-21
6.66136e-21
6.66136e-21
6.66135e-21
6.66135e-21
6.66135e-21
6.66135e-21
6.66135e-21
6.66135e-21
6.66135e-21
6.66135e-21
6.66135e-21
6.66135e-21
6.66135e-21
6.66135e-21
6.66135e-21
6.66135e-21
6.66135e-21
6.66135e-21
6.66135e-21
6.66135e-21
6.66135e-21
6.66135e-21
6.66135e-21
6.66135e-21
6.66134e-21
6.66134e-21
6.66134e-21
6.66134e-21
6.66134e-21
6.66134e-21
6.66134e-21
6.66134e-21
6.66134e-21
6.66134e-21
6.66134e-21
6.66134e-21
6.66134e-21
6.66133e-21
6.66133e-21
6.66133e-21
6.66133e-21
6.66133e-21
6.66133e-21
6.66133e-21
6.66133e-21
6.66133e-21
6.66133e-21
6.66132e-21
6.66132e-21
6.66132e-21
6.66132e-21
6.66125e-21
0
0
0
0
0
0
0
0
0
0
0
0
0
0
0
6.66129e-21
6.66129e-21
6.66128e-21
6.66128e-21
6.66128e-21
6.66128e-21
6.66127e-21
6.66127e-21
6.66127e-21
6.66127e-21
6.66126e-21
6.66126e-21
6.66126e-21
6.66125e-21
6.66502e-21
1.46813e-20
3.30624e-20
6.92748e-20
1.32694e-19
2.28387e-19
3.41676e-19
4.26151e-19
6.54e-19
4.86579e-18
6.69046e-17
1.04435e-15
1.83204e-14
3.65947e-13
8.45104e-12
2.37437e-10
1.6058e-08
1.48353e-06
3.88495e-05
0.000537823
0.00216593
0.00329305
0.00381459
0.00407378
0.00419462
0.00422132
0.00417379
0.00406495
0.00390905
0.00372243
0.00352174
0.00332242
0.0031364
0.00297049
0.00282643
0.00270254
0.00259607
0.00250434
0.00242515
0.0023566
0.00229712
0.00224533
0.00220007
0.00216033
0.00212524
0.00209408
0.0020662
0.00204105
0.00201814
0.00199708
0.0019775
0.0019591
0.00194161
0.00192479
0.00190847
0.00189247
0.00187666
0.00186093
0.00184519
0.00182939
0.00181347
0.00179743
0.00178122
0.00176485
0.0017483
0.00173157
0.00171465
0.00169755
0.00168026
0.00166278
0.00164512
0.00162728
0.00160907
0.0015903
0.00157096
0.00155102
0.00153046
0.00150926
0.00148739
0.00146482
0.00144153
0.00141749
0.00139265
0.001367
0.00134047
0.00131304
0.00128466
0.00125527
0.00122481
0.00119322
0.00116043
0.00112637
0.00109092
0.001054
0.00101549
0.00097525
0.000933118
0.000888909
0.000842399
0.000793323
0.00074134
0.000686023
0.000626823
0.00056301
0.000493585
0.000417018
0.00033058
0.000228236
0
0
0
0
0
0
0
0
0
0
0
0
0
0
0
0
0
0
0
0
0
0
0
0
0
0
0
0
0
0
0
0
0
0
0
0
0
0
0
0
0
0
0
0
0
0
0
0
0
0
0
0
0
0
0
0
0
0
0
0
0
0
0
0
0
0
0
0
0
0
0
0
0
0
0
0
0
0
0
0
0
0
0
0
0
0
0
0
0
0
0
0
0
0
0
0
0
0
0
0
0
0
0
0
0
0
0
0
0
0
0
0
0
0
0
0
0
0
0
0
0
0
0
)
;

boundaryField
{
    inandouthalf11
    {
        type            cyclic;
    }
    inandouthalf12
    {
        type            cyclic;
    }
    inandouthalf21
    {
        type            cyclic;
    }
    inandouthalf22
    {
        type            cyclic;
    }
    inandouthalf31
    {
        type            cyclic;
    }
    inandouthalf32
    {
        type            cyclic;
    }
    inandouthalf41
    {
        type            cyclic;
    }
    inandouthalf42
    {
        type            cyclic;
    }
    top
    {
        type            symmetryPlane;
    }
    walls
    {
        type            zeroGradient;
    }
    frontAndBackPlanes
    {
        type            empty;
    }
}


// ************************************************************************* //
