/*--------------------------------*- C++ -*----------------------------------*\
| =========                 |                                                 |
| \\      /  F ield         | OpenFOAM: The Open Source CFD Toolbox           |
|  \\    /   O peration     | Version:  2.4.x                                 |
|   \\  /    A nd           | Web:      www.OpenFOAM.org                      |
|    \\/     M anipulation  |                                                 |
\*---------------------------------------------------------------------------*/
FoamFile
{
    version     2.0;
    format      ascii;
    class       volVectorField;
    location    "3.85";
    object      Ua_0;
}
// * * * * * * * * * * * * * * * * * * * * * * * * * * * * * * * * * * * * * //

dimensions      [0 1 -1 0 0 0 0];

internalField   nonuniform List<vector> 
360
(
(-1.11958e-32 -7.51212e-32 0)
(-7.01636e-08 -3.49373e-07 0)
(-1.65019e-07 -7.30219e-07 0)
(-2.50646e-07 -1.05043e-06 0)
(-3.30879e-07 -1.35297e-06 0)
(-4.11375e-07 -1.65965e-06 0)
(-4.94032e-07 -1.97568e-06 0)
(-5.78853e-07 -2.30051e-06 0)
(-6.65081e-07 -2.63057e-06 0)
(-7.52006e-07 -2.9628e-06 0)
(-8.39428e-07 -3.29669e-06 0)
(-9.27477e-07 -3.63306e-06 0)
(-1.01624e-06 -3.97243e-06 0)
(-1.10553e-06 -4.31409e-06 0)
(-1.19486e-06 -4.65606e-06 0)
(-1.28365e-06 -4.99598e-06 0)
(-1.37139e-06 -5.3318e-06 0)
(-1.45783e-06 -5.66241e-06 0)
(-1.54313e-06 -5.9883e-06 0)
(-1.62806e-06 -6.31235e-06 0)
(-1.71415e-06 -6.64028e-06 0)
(-1.80382e-06 -6.98142e-06 0)
(-1.90055e-06 -7.34947e-06 0)
(-2.00879e-06 -7.7622e-06 0)
(-2.13322e-06 -8.23929e-06 0)
(-2.27637e-06 -8.79349e-06 0)
(-2.43356e-06 -9.41025e-06 0)
(-2.58779e-06 -1.00243e-05 0)
(-2.71344e-06 -1.053e-05 0)
(-2.79353e-06 -1.08531e-05 0)
(-2.83258e-06 -1.10094e-05 0)
(-2.84764e-06 -1.10686e-05 0)
(-2.85272e-06 -1.10882e-05 0)
(-2.85446e-06 -1.10947e-05 0)
(-2.85516e-06 -1.10972e-05 0)
(-2.85552e-06 -1.10985e-05 0)
(-2.85577e-06 -1.10993e-05 0)
(-2.85599e-06 -1.11e-05 0)
(-2.85622e-06 -1.11007e-05 0)
(-2.85649e-06 -1.11015e-05 0)
(-2.85683e-06 -1.11025e-05 0)
(-2.85722e-06 -1.11035e-05 0)
(-2.85768e-06 -1.11047e-05 0)
(-2.85819e-06 -1.1106e-05 0)
(-2.85874e-06 -1.11074e-05 0)
(-2.8593e-06 -1.11087e-05 0)
(-2.85988e-06 -1.11101e-05 0)
(-2.86046e-06 -1.11114e-05 0)
(-2.86105e-06 -1.11127e-05 0)
(-2.86164e-06 -1.1114e-05 0)
(-2.86226e-06 -1.11153e-05 0)
(-2.86289e-06 -1.11167e-05 0)
(-2.86354e-06 -1.1118e-05 0)
(-2.86423e-06 -1.11194e-05 0)
(-2.86495e-06 -1.11208e-05 0)
(-2.86571e-06 -1.11222e-05 0)
(-2.86651e-06 -1.11238e-05 0)
(-2.86735e-06 -1.11253e-05 0)
(-2.86824e-06 -1.11269e-05 0)
(-2.86917e-06 -1.11286e-05 0)
(-2.87014e-06 -1.11304e-05 0)
(-2.87116e-06 -1.11321e-05 0)
(-2.87221e-06 -1.1134e-05 0)
(-2.8733e-06 -1.11358e-05 0)
(-2.87442e-06 -1.11377e-05 0)
(-2.87557e-06 -1.11396e-05 0)
(-2.87674e-06 -1.11416e-05 0)
(-2.87795e-06 -1.11435e-05 0)
(-2.87919e-06 -1.11455e-05 0)
(-2.88046e-06 -1.11475e-05 0)
(-2.88179e-06 -1.11496e-05 0)
(-2.88316e-06 -1.11518e-05 0)
(-2.88461e-06 -1.1154e-05 0)
(-2.88612e-06 -1.11563e-05 0)
(-2.8877e-06 -1.11587e-05 0)
(-2.88935e-06 -1.11612e-05 0)
(-2.89107e-06 -1.11637e-05 0)
(-2.89286e-06 -1.11663e-05 0)
(-2.8947e-06 -1.1169e-05 0)
(-2.89661e-06 -1.11718e-05 0)
(-2.89856e-06 -1.11746e-05 0)
(-2.90057e-06 -1.11775e-05 0)
(-2.90264e-06 -1.11804e-05 0)
(-2.90477e-06 -1.11834e-05 0)
(-2.90697e-06 -1.11864e-05 0)
(-2.90923e-06 -1.11896e-05 0)
(-2.91156e-06 -1.11927e-05 0)
(-2.91396e-06 -1.1196e-05 0)
(-2.91643e-06 -1.11993e-05 0)
(-2.91896e-06 -1.12027e-05 0)
(-2.92154e-06 -1.12062e-05 0)
(-2.92419e-06 -1.12097e-05 0)
(-2.92689e-06 -1.12132e-05 0)
(-2.92964e-06 -1.12168e-05 0)
(-2.93244e-06 -1.12204e-05 0)
(-2.9353e-06 -1.12241e-05 0)
(-2.9382e-06 -1.12278e-05 0)
(-2.94116e-06 -1.12315e-05 0)
(-2.94416e-06 -1.12353e-05 0)
(-2.94722e-06 -1.12391e-05 0)
(-2.95032e-06 -1.12429e-05 0)
(-2.95346e-06 -1.12468e-05 0)
(-2.95665e-06 -1.12507e-05 0)
(-2.95987e-06 -1.12546e-05 0)
(-2.96314e-06 -1.12585e-05 0)
(-2.96644e-06 -1.12624e-05 0)
(-2.96977e-06 -1.12663e-05 0)
(-2.97313e-06 -1.12703e-05 0)
(-2.97652e-06 -1.12742e-05 0)
(-2.97994e-06 -1.12781e-05 0)
(-2.98338e-06 -1.12821e-05 0)
(-2.98684e-06 -1.1286e-05 0)
(-2.99032e-06 -1.12899e-05 0)
(-2.99383e-06 -1.12938e-05 0)
(-2.99736e-06 -1.12976e-05 0)
(-3.00092e-06 -1.13015e-05 0)
(-3.00452e-06 -1.13053e-05 0)
(-3.00815e-06 -1.13092e-05 0)
(-3.01183e-06 -1.1313e-05 0)
(-3.01557e-06 -1.13169e-05 0)
(-3.01938e-06 -1.13208e-05 0)
(-3.02327e-06 -1.13247e-05 0)
(-3.02724e-06 -1.13286e-05 0)
(-3.0313e-06 -1.13325e-05 0)
(-3.03546e-06 -1.13364e-05 0)
(-3.03971e-06 -1.13404e-05 0)
(-3.04404e-06 -1.13443e-05 0)
(-3.04844e-06 -1.13482e-05 0)
(-3.05287e-06 -1.1352e-05 0)
(-3.05731e-06 -1.13557e-05 0)
(-3.0617e-06 -1.13592e-05 0)
(-3.06602e-06 -1.13626e-05 0)
(-3.07022e-06 -1.13657e-05 0)
(-3.07428e-06 -1.13686e-05 0)
(-3.0782e-06 -1.13713e-05 0)
(-3.08198e-06 -1.13737e-05 0)
(-3.08562e-06 -1.13758e-05 0)
(-3.08912e-06 -1.13778e-05 0)
(-3.09248e-06 -1.13795e-05 0)
(-3.09566e-06 -1.1381e-05 0)
(-3.09847e-06 -1.13822e-05 0)
(-3.10062e-06 -1.1383e-05 0)
(-3.102e-06 -1.13834e-05 0)
(-3.10273e-06 -1.13836e-05 0)
(-3.10309e-06 -1.13836e-05 0)
(-3.10331e-06 -1.13836e-05 0)
(-3.10363e-06 -1.13836e-05 0)
(-3.10881e-06 -1.13846e-05 0)
(-0.0275683 7.81413e-05 0)
(-0.13512 0.00150889 0)
(-0.241844 0.00227382 0)
(-0.326535 0.0026926 0)
(-0.395444 0.00307258 0)
(-0.452784 0.00345539 0)
(-0.501177 0.0038497 0)
(-0.542358 0.00425427 0)
(-0.577524 0.00466248 0)
(-0.607512 0.00506193 0)
(-0.632924 0.0054347 0)
(-0.654218 0.00575559 0)
(-0.671793 0.00598286 0)
(-0.686052 0.00604456 0)
(-0.697445 0.00585123 0)
(-0.706469 0.00536378 0)
(-0.71362 0.00464955 0)
(-0.719319 0.00383815 0)
(-0.723883 0.00303881 0)
(-0.727544 0.00230931 0)
(-0.730473 0.00166979 0)
(-0.732802 0.00112218 0)
(-0.734632 0.000661246 0)
(-0.736045 0.000279499 0)
(-0.737107 -3.0741e-05 0)
(-0.737872 -0.000276585 0)
(-0.738386 -0.00046444 0)
(-0.738686 -0.000600026 0)
(-0.738805 -0.000688869 0)
(-0.738775 -0.000733594 0)
(-0.73862 -0.000742989 0)
(-0.738355 -0.000720933 0)
(-0.738002 -0.000673281 0)
(-0.737576 -0.000606714 0)
(-0.737094 -0.000528911 0)
(-0.736568 -0.000448499 0)
(-0.73601 -0.000374727 0)
(-0.735429 -0.000316514 0)
(-0.734833 -0.000280756 0)
(-0.734227 -0.000270205 0)
(-0.733615 -0.000282129 0)
(-0.733002 -0.000309397 0)
(-0.732393 -0.000344364 0)
(-0.731792 -0.000382892 0)
(-0.731199 -0.000424745 0)
(-0.730612 -0.000470406 0)
(-0.730035 -0.000518775 0)
(-0.729467 -0.000568211 0)
(-0.72891 -0.000618208 0)
(-0.728363 -0.000668864 0)
(-0.727827 -0.000719637 0)
(-0.727302 -0.000769494 0)
(-0.726791 -0.000817724 0)
(-0.726286 -0.00086482 0)
(-0.725781 -0.00091149 0)
(-0.725276 -0.000957072 0)
(-0.724774 -0.00100038 0)
(-0.724272 -0.00104219 0)
(-0.723762 -0.00108513 0)
(-0.723244 -0.00112918 0)
(-0.722727 -0.00117157 0)
(-0.722205 -0.00121344 0)
(-0.721668 -0.00125834 0)
(-0.721122 -0.00130466 0)
(-0.720569 -0.00135063 0)
(-0.72 -0.00139952 0)
(-0.719416 -0.00145141 0)
(-0.718824 -0.0015036 0)
(-0.71821 -0.00155988 0)
(-0.717568 -0.00162322 0)
(-0.716915 -0.00168807 0)
(-0.716247 -0.00175493 0)
(-0.715541 -0.00183231 0)
(-0.714805 -0.0019173 0)
(-0.714049 -0.00200676 0)
(-0.713256 -0.00210729 0)
(-0.712432 -0.00221673 0)
(-0.711573 -0.00233646 0)
(-0.710663 -0.00247328 0)
(-0.709727 -0.0026194 0)
(-0.708753 -0.00277876 0)
(-0.707708 -0.00296301 0)
(-0.706626 -0.00316291 0)
(-0.705506 -0.00337978 0)
(-0.704392 -0.00360527 0)
(-0.703396 -0.00380992 0)
(-0.702566 -0.00398351 0)
(-0.701907 -0.00412544 0)
(-0.701378 -0.00423712 0)
(-0.700668 -0.00443001 0)
(-0.619375 -0.0395302 0)
(-0.619368 -0.0395299 0)
(-0.619363 -0.03953 0)
(-0.619358 -0.03953 0)
(-0.619353 -0.03953 0)
(-0.61935 -0.03953 0)
(-0.619347 -0.03953 0)
(-0.619344 -0.03953 0)
(-0.619342 -0.03953 0)
(-0.619341 -0.03953 0)
(-0.619339 -0.03953 0)
(-0.619338 -0.03953 0)
(-0.619337 -0.03953 0)
(-0.619336 -0.03953 0)
(-0.619336 -0.03953 0)
(-0.619335 -0.03953 0)
(-0.619335 -0.03953 0)
(-0.619334 -0.03953 0)
(-0.619334 -0.03953 0)
(-0.619334 -0.03953 0)
(-0.619334 -0.03953 0)
(-0.619334 -0.03953 0)
(-0.619334 -0.03953 0)
(-0.619333 -0.03953 0)
(-0.619333 -0.03953 0)
(-0.619333 -0.03953 0)
(-0.619333 -0.03953 0)
(-0.619333 -0.03953 0)
(-0.619333 -0.03953 0)
(-0.619333 -0.03953 0)
(-0.619333 -0.03953 0)
(-0.619333 -0.03953 0)
(-0.619333 -0.03953 0)
(-0.619333 -0.03953 0)
(-0.619333 -0.03953 0)
(-0.619333 -0.03953 0)
(-0.619333 -0.03953 0)
(-0.619333 -0.03953 0)
(-0.619333 -0.03953 0)
(-0.619333 -0.03953 0)
(-0.619333 -0.03953 0)
(-0.619333 -0.03953 0)
(-0.619333 -0.03953 0)
(-0.619333 -0.03953 0)
(-0.619333 -0.03953 0)
(-0.619333 -0.03953 0)
(-0.619333 -0.03953 0)
(-0.619333 -0.03953 0)
(-0.619333 -0.03953 0)
(-0.619333 -0.03953 0)
(-0.619333 -0.03953 0)
(-0.619333 -0.03953 0)
(-0.619333 -0.03953 0)
(-0.619333 -0.03953 0)
(-0.619333 -0.03953 0)
(-0.619333 -0.03953 0)
(-0.619333 -0.03953 0)
(-0.619333 -0.03953 0)
(-0.619333 -0.03953 0)
(-0.619333 -0.03953 0)
(-0.619333 -0.03953 0)
(-0.619333 -0.03953 0)
(-0.619333 -0.03953 0)
(-0.619333 -0.03953 0)
(-0.619333 -0.03953 0)
(-0.619333 -0.03953 0)
(-0.619333 -0.03953 0)
(-0.619333 -0.03953 0)
(-0.619333 -0.03953 0)
(-0.619333 -0.03953 0)
(-0.619333 -0.03953 0)
(-0.619333 -0.03953 0)
(-0.619333 -0.03953 0)
(-0.619333 -0.03953 0)
(-0.619333 -0.03953 0)
(-0.619333 -0.03953 0)
(-0.619333 -0.03953 0)
(-0.619333 -0.03953 0)
(-0.619333 -0.03953 0)
(-0.619333 -0.03953 0)
(-0.619333 -0.03953 0)
(-0.619333 -0.03953 0)
(-0.619333 -0.03953 0)
(-0.619333 -0.03953 0)
(-0.619333 -0.03953 0)
(-0.619333 -0.03953 0)
(-0.619333 -0.03953 0)
(-0.619333 -0.03953 0)
(-0.619333 -0.03953 0)
(-0.619333 -0.03953 0)
(-0.619333 -0.03953 0)
(-0.619333 -0.03953 0)
(-0.619333 -0.03953 0)
(-0.619333 -0.03953 0)
(-0.619333 -0.03953 0)
(-0.619333 -0.03953 0)
(-0.619333 -0.03953 0)
(-0.619333 -0.03953 0)
(-0.619333 -0.03953 0)
(-0.619333 -0.03953 0)
(-0.619333 -0.03953 0)
(-0.619333 -0.03953 0)
(-0.619333 -0.03953 0)
(-0.619333 -0.03953 0)
(-0.619333 -0.03953 0)
(-0.619333 -0.03953 0)
(-0.619333 -0.03953 0)
(-0.619333 -0.03953 0)
(-0.619333 -0.03953 0)
(-0.619333 -0.03953 0)
(-0.619333 -0.03953 0)
(-0.619333 -0.03953 0)
(-0.619333 -0.03953 0)
(-0.619333 -0.03953 0)
(-0.619333 -0.03953 0)
(-0.619333 -0.03953 0)
(-0.619333 -0.03953 0)
(-0.619333 -0.03953 0)
(-0.619333 -0.0395298 0)
(-0.619332 -0.0395213 0)
(-0.619314 -0.0391762 0)
(-0.618892 -0.0224601 0)
)
;

boundaryField
{
    inandouthalf11
    {
        type            cyclic;
    }
    inandouthalf12
    {
        type            cyclic;
    }
    inandouthalf21
    {
        type            cyclic;
    }
    inandouthalf22
    {
        type            cyclic;
    }
    inandouthalf31
    {
        type            cyclic;
    }
    inandouthalf32
    {
        type            cyclic;
    }
    inandouthalf41
    {
        type            cyclic;
    }
    inandouthalf42
    {
        type            cyclic;
    }
    top
    {
        type            symmetryPlane;
    }
    walls
    {
        type            fixedValue;
        value           uniform (0 0 0);
    }
    frontAndBackPlanes
    {
        type            empty;
    }
}


// ************************************************************************* //
