/*--------------------------------*- C++ -*----------------------------------*\
| =========                 |                                                 |
| \\      /  F ield         | OpenFOAM: The Open Source CFD Toolbox           |
|  \\    /   O peration     | Version:  2.4.x                                 |
|   \\  /    A nd           | Web:      www.OpenFOAM.org                      |
|    \\/     M anipulation  |                                                 |
\*---------------------------------------------------------------------------*/
FoamFile
{
    version     2.0;
    format      ascii;
    class       volScalarField;
    location    "7.5";
    object      alpha;
}
// * * * * * * * * * * * * * * * * * * * * * * * * * * * * * * * * * * * * * //

dimensions      [0 0 0 0 0 0 0];

internalField   nonuniform List<scalar> 
360
(
0.610801
0.611621
0.611721
0.611636
0.611591
0.611575
0.611557
0.611534
0.611512
0.611488
0.611465
0.611442
0.611418
0.611394
0.61137
0.611346
0.611322
0.611297
0.611272
0.611247
0.611222
0.611196
0.61117
0.611144
0.611118
0.611092
0.611065
0.611038
0.61101
0.610983
0.610955
0.610927
0.610899
0.61087
0.610841
0.610812
0.610782
0.610752
0.610722
0.610692
0.61066
0.610629
0.610598
0.610566
0.610534
0.610501
0.610468
0.610435
0.610402
0.610367
0.610333
0.610298
0.610263
0.610227
0.610191
0.610155
0.610118
0.61008
0.610043
0.610005
0.609966
0.609927
0.609887
0.609847
0.609806
0.609765
0.609723
0.60968
0.609638
0.609594
0.60955
0.609505
0.60946
0.609414
0.609367
0.60932
0.609272
0.609223
0.609174
0.609123
0.609072
0.609021
0.608968
0.608914
0.60886
0.608804
0.608748
0.608691
0.608633
0.608574
0.608513
0.608452
0.608389
0.608326
0.608261
0.608195
0.608127
0.608058
0.607988
0.607916
0.607843
0.607768
0.607691
0.607613
0.607533
0.607451
0.607367
0.607281
0.607193
0.607102
0.60701
0.606915
0.606817
0.606717
0.606613
0.606507
0.606398
0.606286
0.60617
0.606051
0.605928
0.605802
0.605671
0.605536
0.605397
0.605253
0.605103
0.604948
0.604787
0.604619
0.604445
0.604263
0.604073
0.603872
0.60366
0.603435
0.6032
0.60295
0.602673
0.602357
0.602015
0.601687
0.601293
0.600783
0.600146
0.598926
0.596149
0.595973
0.594298
0.579375
0.167159
0.0493442
0.0205892
0.0107421
0.00665904
0.00463975
0.0034704
0.00271719
0.00219786
0.00182206
0.0015393
0.00131994
0.00114578
0.00100464
0.00088829
0.000790928
0.000708402
0.000637664
0.000576433
0.000522975
0.00047595
0.000434313
0.000397235
0.00036405
0.000334222
0.00030731
0.000282949
0.000260836
0.000240714
0.000222366
0.000205603
0.000190265
0.000176209
0.000163311
0.000151461
0.000140561
0.000130524
0.00012127
0.000112728
0.000104834
9.75286e-05
9.07605e-05
8.44818e-05
7.86498e-05
7.32257e-05
6.81741e-05
6.3462e-05
5.90595e-05
5.49388e-05
5.10741e-05
4.7441e-05
4.3983e-05
4.06564e-05
3.74557e-05
3.43783e-05
3.14217e-05
2.85866e-05
2.58756e-05
2.32952e-05
2.08526e-05
1.85561e-05
1.6413e-05
1.44274e-05
1.26049e-05
1.09511e-05
9.46255e-06
8.13233e-06
6.95602e-06
5.92441e-06
5.02511e-06
4.24352e-06
3.56833e-06
2.99067e-06
2.49626e-06
2.07453e-06
1.71766e-06
1.41649e-06
1.16261e-06
9.50073e-07
7.71281e-07
6.24286e-07
4.9897e-07
3.99124e-07
3.14302e-07
2.62016e-07
1.95031e-07
1.32367e-07
1.03066e-07
6.74046e-08
4.53598e-08
2.40029e-08
1.4911e-08
2.69612e-09
6.30822e-20
7.45182e-31
3.30463e-37
2.72631e-37
1.99543e-37
1.08404e-37
4.37494e-38
2.15162e-38
1.22664e-38
7.79575e-39
5.4033e-39
3.63465e-39
1.87098e-39
8.2352e-40
4.24612e-40
2.36592e-40
1.39197e-40
7.77775e-41
3.69276e-41
1.86042e-41
9.59536e-42
4.89304e-42
2.42485e-42
1.19276e-42
5.76845e-43
2.74143e-43
1.27956e-43
5.86209e-44
2.63439e-44
1.16054e-44
5.00826e-45
2.11566e-45
8.74176e-46
3.53012e-46
1.392e-46
5.35483e-47
2.00761e-47
7.32795e-48
2.60115e-48
8.96819e-49
2.9994e-49
9.71731e-50
3.04497e-50
9.21364e-51
2.68729e-51
7.54029e-52
2.03105e-52
5.23947e-53
1.2911e-53
3.0302e-54
6.75172e-55
1.42298e-55
2.82495e-56
5.25757e-57
9.12263e-58
1.46625e-58
2.16629e-59
2.91489e-60
3.53163e-61
3.79782e-62
3.5578e-63
2.8309e-64
1.84512e-65
9.31172e-67
3.29333e-68
6.49915e-70
1.9955e-72
5.0193e-77
4.47477e-79
1.97844e-81
6.78156e-92
1.1612e-102
1.43094e-113
1.2699e-124
9.60745e-136
5.52593e-147
2.73835e-158
2.30946e-168
9.76614e-179
7.63425e-187
2.90369e-197
2.6259e-205
1.16809e-215
9.03516e-224
4.92704e-234
3.11138e-242
3.12742e-252
1.08831e-260
2.0531e-270
3.89236e-279
1.01307e-288
1.42074e-297
4.81495e-307
5.28635e-316
6.24993e-321
4.57737e-319
2.8055e-319
6.80328e-321
7.09478e-321
6.08689e-321
8.5424e-321
0
0
0
0
0
0
0
0
0
0
0
0
0
0
0
0
)
;

boundaryField
{
    inandouthalf11
    {
        type            cyclic;
    }
    inandouthalf12
    {
        type            cyclic;
    }
    inandouthalf21
    {
        type            cyclic;
    }
    inandouthalf22
    {
        type            cyclic;
    }
    inandouthalf31
    {
        type            cyclic;
    }
    inandouthalf32
    {
        type            cyclic;
    }
    inandouthalf41
    {
        type            cyclic;
    }
    inandouthalf42
    {
        type            cyclic;
    }
    top
    {
        type            symmetryPlane;
    }
    walls
    {
        type            zeroGradient;
    }
    frontAndBackPlanes
    {
        type            empty;
    }
}


// ************************************************************************* //
