/*--------------------------------*- C++ -*----------------------------------*\
| =========                 |                                                 |
| \\      /  F ield         | OpenFOAM: The Open Source CFD Toolbox           |
|  \\    /   O peration     | Version:  2.4.x                                 |
|   \\  /    A nd           | Web:      www.OpenFOAM.org                      |
|    \\/     M anipulation  |                                                 |
\*---------------------------------------------------------------------------*/
FoamFile
{
    version     2.0;
    format      ascii;
    class       volScalarField;
    location    "7.5";
    object      alpha_0;
}
// * * * * * * * * * * * * * * * * * * * * * * * * * * * * * * * * * * * * * //

dimensions      [0 0 0 0 0 0 0];

internalField   nonuniform List<scalar> 
360
(
0.610801
0.611621
0.611721
0.611636
0.611591
0.611575
0.611557
0.611534
0.611512
0.611488
0.611465
0.611442
0.611418
0.611394
0.61137
0.611346
0.611322
0.611297
0.611272
0.611247
0.611222
0.611196
0.61117
0.611144
0.611118
0.611092
0.611065
0.611038
0.61101
0.610983
0.610955
0.610927
0.610899
0.61087
0.610841
0.610812
0.610782
0.610752
0.610722
0.610692
0.61066
0.610629
0.610598
0.610566
0.610534
0.610501
0.610468
0.610435
0.610402
0.610367
0.610333
0.610298
0.610263
0.610227
0.610191
0.610155
0.610118
0.61008
0.610043
0.610005
0.609966
0.609927
0.609887
0.609847
0.609806
0.609765
0.609723
0.60968
0.609638
0.609594
0.60955
0.609505
0.60946
0.609414
0.609367
0.60932
0.609272
0.609223
0.609174
0.609123
0.609072
0.609021
0.608968
0.608914
0.60886
0.608804
0.608748
0.608691
0.608633
0.608573
0.608513
0.608452
0.608389
0.608326
0.608261
0.608195
0.608127
0.608058
0.607988
0.607916
0.607843
0.607768
0.607691
0.607613
0.607533
0.607451
0.607367
0.607281
0.607193
0.607102
0.60701
0.606915
0.606817
0.606717
0.606613
0.606507
0.606398
0.606286
0.60617
0.606051
0.605928
0.605802
0.605671
0.605536
0.605397
0.605253
0.605103
0.604948
0.604787
0.604619
0.604445
0.604263
0.604073
0.603872
0.60366
0.603435
0.6032
0.60295
0.602673
0.602357
0.602015
0.601687
0.601293
0.600783
0.600146
0.598926
0.596149
0.595973
0.594298
0.57941
0.167149
0.0493232
0.0205816
0.0107405
0.0066593
0.00464044
0.0034711
0.00271781
0.0021984
0.00182253
0.0015397
0.00132029
0.00114608
0.00100492
0.000888532
0.000791144
0.000708596
0.000637839
0.000576591
0.000523117
0.000476079
0.00043443
0.000397341
0.000364147
0.00033431
0.000307389
0.000283022
0.000260902
0.000240774
0.000222421
0.000205653
0.000190311
0.000176251
0.000163349
0.000151496
0.000140594
0.000130554
0.000121297
0.000112753
0.000104857
9.75503e-05
9.07806e-05
8.45005e-05
7.86672e-05
7.32419e-05
6.81891e-05
6.34761e-05
5.90727e-05
5.49512e-05
5.10856e-05
4.74519e-05
4.39932e-05
4.0666e-05
3.74647e-05
3.43867e-05
3.14296e-05
2.8594e-05
2.58823e-05
2.33015e-05
2.08583e-05
1.85613e-05
1.64176e-05
1.44315e-05
1.26085e-05
1.09542e-05
9.46525e-06
8.13464e-06
6.95799e-06
5.92607e-06
5.02649e-06
4.24468e-06
3.56928e-06
2.99146e-06
2.49691e-06
2.07506e-06
1.71809e-06
1.41685e-06
1.16289e-06
9.50304e-07
7.71467e-07
6.24435e-07
4.99088e-07
3.99218e-07
3.14369e-07
2.62073e-07
1.95092e-07
1.32413e-07
1.03103e-07
6.74253e-08
4.53732e-08
2.40082e-08
1.49146e-08
2.69638e-09
6.31078e-20
7.45717e-31
3.30988e-37
2.73022e-37
2.00023e-37
1.08912e-37
4.39468e-38
2.15932e-38
1.23022e-38
7.81395e-39
5.41409e-39
3.64361e-39
1.87866e-39
8.26485e-40
4.25947e-40
2.37263e-40
1.39563e-40
7.80192e-41
3.70492e-41
1.8662e-41
9.62448e-42
4.90808e-42
2.43234e-42
1.19645e-42
5.78634e-43
2.74995e-43
1.28354e-43
5.88036e-44
2.64261e-44
1.16416e-44
5.02394e-45
2.1223e-45
8.76923e-46
3.54123e-46
1.39639e-46
5.37174e-47
2.01396e-47
7.35118e-48
2.60942e-48
8.99673e-49
3.00896e-49
9.74835e-50
3.05471e-50
9.24318e-51
2.69593e-51
7.56456e-52
2.0376e-52
5.25641e-53
1.29528e-53
3.04003e-54
6.77368e-55
1.42761e-55
2.83418e-56
5.27479e-57
9.15257e-58
1.47108e-58
2.17344e-59
2.92453e-60
3.54334e-61
3.81044e-62
3.56966e-63
2.84036e-64
1.8513e-65
9.34306e-67
3.30446e-68
6.52122e-70
2.00239e-72
5.0379e-77
4.49146e-79
1.98587e-81
6.80683e-92
1.16549e-102
1.43618e-113
1.2745e-124
9.64189e-136
5.54546e-147
2.74792e-158
2.3181e-168
9.80246e-179
7.66292e-187
2.91448e-197
2.63576e-205
1.17243e-215
9.06909e-224
4.9454e-234
3.12306e-242
3.13901e-252
1.09239e-260
2.06069e-270
3.90695e-279
1.01681e-288
1.42606e-297
4.83268e-307
5.30625e-316
6.24993e-321
4.57737e-319
2.8055e-319
6.80328e-321
7.09478e-321
6.08689e-321
8.5424e-321
0
0
0
0
0
0
0
0
0
0
0
0
0
0
0
0
)
;

boundaryField
{
    inandouthalf11
    {
        type            cyclic;
    }
    inandouthalf12
    {
        type            cyclic;
    }
    inandouthalf21
    {
        type            cyclic;
    }
    inandouthalf22
    {
        type            cyclic;
    }
    inandouthalf31
    {
        type            cyclic;
    }
    inandouthalf32
    {
        type            cyclic;
    }
    inandouthalf41
    {
        type            cyclic;
    }
    inandouthalf42
    {
        type            cyclic;
    }
    top
    {
        type            symmetryPlane;
    }
    walls
    {
        type            zeroGradient;
    }
    frontAndBackPlanes
    {
        type            empty;
    }
}


// ************************************************************************* //
