/*--------------------------------*- C++ -*----------------------------------*\
| =========                 |                                                 |
| \\      /  F ield         | OpenFOAM: The Open Source CFD Toolbox           |
|  \\    /   O peration     | Version:  2.4.x                                 |
|   \\  /    A nd           | Web:      www.OpenFOAM.org                      |
|    \\/     M anipulation  |                                                 |
\*---------------------------------------------------------------------------*/
FoamFile
{
    version     2.0;
    format      ascii;
    class       volVectorField;
    location    "7.5";
    object      ddt0(Ub);
}
// * * * * * * * * * * * * * * * * * * * * * * * * * * * * * * * * * * * * * //

dimensions      [0 1 -2 0 0 0 0];

internalField   nonuniform List<vector> 
360
(
(0.000122918 -1.43747e-08 0)
(0.000122241 -5.27886e-08 0)
(0.000122193 -9.67252e-08 0)
(0.000122323 -1.33628e-07 0)
(0.000122399 -1.67523e-07 0)
(0.000122445 -2.01646e-07 0)
(0.000122497 -2.36799e-07 0)
(0.000122553 -2.73124e-07 0)
(0.000122611 -3.10832e-07 0)
(0.000122668 -3.50215e-07 0)
(0.000122726 -3.91546e-07 0)
(0.000122783 -4.34982e-07 0)
(0.000122841 -4.80579e-07 0)
(0.000122899 -5.2833e-07 0)
(0.000122958 -5.78186e-07 0)
(0.000123016 -6.30101e-07 0)
(0.000123076 -6.84023e-07 0)
(0.000123135 -7.39891e-07 0)
(0.000123195 -7.97637e-07 0)
(0.000123255 -8.57184e-07 0)
(0.000123316 -9.18448e-07 0)
(0.000123378 -9.81363e-07 0)
(0.000123439 -1.04586e-06 0)
(0.000123502 -1.11188e-06 0)
(0.000123565 -1.17936e-06 0)
(0.000123628 -1.24824e-06 0)
(0.000123692 -1.31846e-06 0)
(0.000123757 -1.38999e-06 0)
(0.000123822 -1.46277e-06 0)
(0.000123888 -1.53676e-06 0)
(0.000123955 -1.61191e-06 0)
(0.000124022 -1.6882e-06 0)
(0.00012409 -1.76557e-06 0)
(0.000124158 -1.84399e-06 0)
(0.000124227 -1.92341e-06 0)
(0.000124297 -2.00379e-06 0)
(0.000124368 -2.08505e-06 0)
(0.000124439 -2.16715e-06 0)
(0.000124512 -2.25005e-06 0)
(0.000124584 -2.33364e-06 0)
(0.000124658 -2.41788e-06 0)
(0.000124732 -2.50267e-06 0)
(0.000124807 -2.58791e-06 0)
(0.000124883 -2.67355e-06 0)
(0.000124959 -2.75949e-06 0)
(0.000125036 -2.84564e-06 0)
(0.000125114 -2.93194e-06 0)
(0.000125192 -3.01829e-06 0)
(0.000125272 -3.10463e-06 0)
(0.000125352 -3.19098e-06 0)
(0.000125433 -3.27731e-06 0)
(0.000125514 -3.36361e-06 0)
(0.000125597 -3.44991e-06 0)
(0.00012568 -3.53625e-06 0)
(0.000125763 -3.62265e-06 0)
(0.000125848 -3.70922e-06 0)
(0.000125933 -3.796e-06 0)
(0.000126019 -3.88311e-06 0)
(0.000126106 -3.97069e-06 0)
(0.000126193 -4.05884e-06 0)
(0.000126281 -4.14783e-06 0)
(0.00012637 -4.23781e-06 0)
(0.00012646 -4.32903e-06 0)
(0.00012655 -4.42164e-06 0)
(0.000126641 -4.51577e-06 0)
(0.000126733 -4.61147e-06 0)
(0.000126825 -4.70876e-06 0)
(0.000126919 -4.80761e-06 0)
(0.000127013 -4.90796e-06 0)
(0.000127108 -5.00965e-06 0)
(0.000127204 -5.11261e-06 0)
(0.000127301 -5.2167e-06 0)
(0.000127399 -5.32164e-06 0)
(0.000127497 -5.42717e-06 0)
(0.000127597 -5.53287e-06 0)
(0.000127697 -5.63825e-06 0)
(0.000127798 -5.74266e-06 0)
(0.000127901 -5.84537e-06 0)
(0.000128004 -5.94561e-06 0)
(0.000128108 -6.04263e-06 0)
(0.000128212 -6.13567e-06 0)
(0.000128318 -6.22404e-06 0)
(0.000128423 -6.30714e-06 0)
(0.00012853 -6.38441e-06 0)
(0.000128637 -6.45538e-06 0)
(0.000128744 -6.5196e-06 0)
(0.000128852 -6.57671e-06 0)
(0.00012896 -6.62641e-06 0)
(0.000129069 -6.66851e-06 0)
(0.000129177 -6.70297e-06 0)
(0.000129286 -6.72988e-06 0)
(0.000129395 -6.7495e-06 0)
(0.000129503 -6.76225e-06 0)
(0.000129612 -6.76867e-06 0)
(0.00012972 -6.76943e-06 0)
(0.000129828 -6.76529e-06 0)
(0.000129937 -6.75705e-06 0)
(0.000130045 -6.74558e-06 0)
(0.000130153 -6.73175e-06 0)
(0.000130262 -6.71645e-06 0)
(0.00013037 -6.70053e-06 0)
(0.000130479 -6.68483e-06 0)
(0.000130589 -6.67014e-06 0)
(0.000130699 -6.65722e-06 0)
(0.00013081 -6.64675e-06 0)
(0.000130922 -6.63933e-06 0)
(0.000131035 -6.63553e-06 0)
(0.000131149 -6.6358e-06 0)
(0.000131264 -6.64056e-06 0)
(0.000131381 -6.65013e-06 0)
(0.0001315 -6.66479e-06 0)
(0.000131621 -6.68473e-06 0)
(0.000131744 -6.71011e-06 0)
(0.000131869 -6.74106e-06 0)
(0.000131996 -6.77767e-06 0)
(0.000132127 -6.82006e-06 0)
(0.00013226 -6.86834e-06 0)
(0.000132396 -6.92267e-06 0)
(0.000132536 -6.9833e-06 0)
(0.00013268 -7.05052e-06 0)
(0.000132827 -7.12473e-06 0)
(0.00013298 -7.20638e-06 0)
(0.000133137 -7.29599e-06 0)
(0.000133299 -7.39405e-06 0)
(0.000133468 -7.50091e-06 0)
(0.000133643 -7.61675e-06 0)
(0.000133826 -7.74136e-06 0)
(0.000134018 -7.87407e-06 0)
(0.000134218 -8.01354e-06 0)
(0.000134429 -8.15772e-06 0)
(0.00013465 -8.30376e-06 0)
(0.000134882 -8.44834e-06 0)
(0.000135124 -8.58814e-06 0)
(0.000135379 -8.72064e-06 0)
(0.000135647 -8.84447e-06 0)
(0.000135928 -8.95935e-06 0)
(0.000136221 -9.06594e-06 0)
(0.000136529 -9.16618e-06 0)
(0.000136868 -9.26345e-06 0)
(0.000137256 -9.36091e-06 0)
(0.000137679 -9.45595e-06 0)
(0.000138097 -9.5332e-06 0)
(0.000138585 -9.58201e-06 0)
(0.000139189 -9.59882e-06 0)
(0.000139929 -9.57505e-06 0)
(0.00014141 -8.92478e-06 0)
(0.000141048 -2.57874e-05 0)
(9.03757e-05 -8.94891e-05 0)
(-6.0336e-05 -8.47538e-05 0)
(0.0782956 -0.000347545 0)
(0.251272 -0.00408564 0)
(0.509656 -0.000105628 0)
(0.71244 -0.00107822 0)
(0.833529 4.84165e-05 0)
(0.898351 -8.45538e-05 0)
(0.935271 -5.93672e-05 0)
(0.959039 -3.84795e-05 0)
(0.97633 -2.76897e-05 0)
(0.990235 -2.26639e-05 0)
(1.00223 -1.97742e-05 0)
(1.01307 -1.7759e-05 0)
(1.02314 -1.62188e-05 0)
(1.03265 -1.49215e-05 0)
(1.04172 -1.37662e-05 0)
(1.05041 -1.27061e-05 0)
(1.05876 -1.17234e-05 0)
(1.06679 -1.08114e-05 0)
(1.07451 -9.96708e-06 0)
(1.08194 -9.18812e-06 0)
(1.08909 -8.47206e-06 0)
(1.09596 -7.81597e-06 0)
(1.10257 -7.21636e-06 0)
(1.10892 -6.6694e-06 0)
(1.11502 -6.17103e-06 0)
(1.12089 -5.71712e-06 0)
(1.12652 -5.3036e-06 0)
(1.13194 -4.92656e-06 0)
(1.13714 -4.58229e-06 0)
(1.14214 -4.26737e-06 0)
(1.14694 -3.97866e-06 0)
(1.15156 -3.71334e-06 0)
(1.156 -3.46886e-06 0)
(1.16026 -3.24298e-06 0)
(1.16437 -3.03371e-06 0)
(1.16831 -2.83932e-06 0)
(1.1721 -2.65828e-06 0)
(1.17575 -2.48929e-06 0)
(1.17925 -2.3312e-06 0)
(1.18262 -2.18299e-06 0)
(1.18586 -2.04377e-06 0)
(1.18898 -1.91277e-06 0)
(1.19198 -1.78929e-06 0)
(1.19486 -1.67272e-06 0)
(1.19764 -1.56257e-06 0)
(1.2003 -1.45843e-06 0)
(1.20287 -1.35995e-06 0)
(1.20533 -1.26681e-06 0)
(1.20769 -1.17873e-06 0)
(1.20996 -1.09546e-06 0)
(1.21213 -1.01677e-06 0)
(1.21421 -9.42381e-07 0)
(1.21622 -8.71219e-07 0)
(1.21818 -8.02417e-07 0)
(1.22009 -7.35901e-07 0)
(1.22196 -6.71709e-07 0)
(1.22378 -6.09929e-07 0)
(1.22555 -5.50638e-07 0)
(1.22729 -4.93931e-07 0)
(1.22897 -4.39989e-07 0)
(1.23061 -3.89071e-07 0)
(1.23221 -3.41463e-07 0)
(1.23375 -2.97409e-07 0)
(1.23524 -2.57013e-07 0)
(1.23668 -2.20326e-07 0)
(1.23806 -1.87459e-07 0)
(1.23939 -1.58433e-07 0)
(1.24065 -1.33059e-07 0)
(1.24186 -1.11085e-07 0)
(1.243 -9.22984e-08 0)
(1.24408 -7.64243e-08 0)
(1.24508 -6.30757e-08 0)
(1.24602 -5.18777e-08 0)
(1.24688 -4.25565e-08 0)
(1.24767 -3.48567e-08 0)
(1.24837 -2.85018e-08 0)
(1.24899 -2.3269e-08 0)
(1.24951 -1.89855e-08 0)
(1.24994 -1.54926e-08 0)
(1.25027 -1.26503e-08 0)
(1.25049 -1.03417e-08 0)
(1.2506 -8.47447e-09 0)
(1.25057 -6.94894e-09 0)
(1.25042 -5.66396e-09 0)
(1.25012 -4.654e-09 0)
(1.24966 -4.05182e-09 0)
(1.24904 -3.61873e-09 0)
(1.24823 -2.91866e-09 0)
(1.24722 -2.01544e-09 0)
(1.24599 -1.38289e-09 0)
(1.24453 -1.14587e-09 0)
(1.24283 -1.02809e-09 0)
(1.24086 -9.37367e-10 0)
(1.23863 -8.948e-10 0)
(1.23613 -9.0199e-10 0)
(1.23337 -8.69631e-10 0)
(1.23039 -8.29764e-10 0)
(1.22722 -8.01951e-10 0)
(1.22393 -7.76727e-10 0)
(1.22062 -7.50832e-10 0)
(1.21737 -7.21413e-10 0)
(1.21429 -6.91866e-10 0)
(1.21145 -6.64265e-10 0)
(1.20891 -6.38804e-10 0)
(1.2067 -6.21466e-10 0)
(1.20485 -5.54323e-10 0)
(1.20336 -5.72621e-10 0)
(1.20224 -5.34236e-10 0)
(1.20148 -4.16335e-10 0)
(1.2011 -6.3185e-10 0)
(1.20114 -1.56853e-10 0)
(1.20185 -7.97669e-10 0)
(1.20375 1.20833e-10 0)
(1.20432 -9.52154e-10 0)
(1.20435 3.55987e-10 0)
(1.20435 -1.06668e-09 0)
(1.20435 5.39749e-10 0)
(1.20435 -1.14728e-09 0)
(1.20435 6.86856e-10 0)
(1.20435 -1.21779e-09 0)
(1.20435 8.18863e-10 0)
(1.20435 -1.29627e-09 0)
(1.20435 9.48852e-10 0)
(1.20435 -1.38476e-09 0)
(1.20435 1.08434e-09 0)
(1.20435 -1.48494e-09 0)
(1.20435 1.22231e-09 0)
(1.20435 -1.59396e-09 0)
(1.20435 1.36765e-09 0)
(1.20435 -1.71275e-09 0)
(1.20435 1.51719e-09 0)
(1.20435 -1.83999e-09 0)
(1.20435 1.67397e-09 0)
(1.20435 -1.97461e-09 0)
(1.20435 1.83819e-09 0)
(1.20435 -2.11759e-09 0)
(1.20435 2.00573e-09 0)
(1.20435 -2.27375e-09 0)
(1.20435 2.17799e-09 0)
(1.20435 -2.43836e-09 0)
(1.20435 2.35633e-09 0)
(1.20435 -2.61058e-09 0)
(1.20435 2.54019e-09 0)
(1.20435 -2.79512e-09 0)
(1.20435 2.7276e-09 0)
(1.20435 -2.99599e-09 0)
(1.20435 2.90838e-09 0)
(1.20435 -3.20632e-09 0)
(1.20435 3.12299e-09 0)
(1.20435 -3.39795e-09 0)
(1.20435 3.34576e-09 0)
(1.20435 -3.61027e-09 0)
(1.20435 3.569e-09 0)
(1.20435 -3.83482e-09 0)
(1.20435 3.79662e-09 0)
(1.20435 -4.06909e-09 0)
(1.20435 4.03065e-09 0)
(1.20435 -4.30955e-09 0)
(1.20435 4.27219e-09 0)
(1.20435 -4.54855e-09 0)
(1.20435 4.51891e-09 0)
(1.20435 -4.2084e-09 0)
(1.20435 4.10419e-09 0)
(1.20435 -4.2556e-09 0)
(1.20435 4.1635e-09 0)
(1.20435 -4.31105e-09 0)
(1.20435 4.2284e-09 0)
(1.20435 -4.35712e-09 0)
(1.20435 4.29845e-09 0)
(1.20435 -4.39781e-09 0)
(1.20435 4.37678e-09 0)
(1.20435 -4.43114e-09 0)
(1.20435 4.45634e-09 0)
(1.20435 -4.45973e-09 0)
(1.20435 4.53479e-09 0)
(1.20435 -4.47534e-09 0)
(1.20435 4.62378e-09 0)
(1.20435 -4.48146e-09 0)
(1.20435 4.64549e-09 0)
(1.20435 -4.57363e-09 0)
(1.20435 4.86709e-09 0)
(1.20435 -4.42251e-09 0)
(1.20435 5.10827e-09 0)
(1.20435 -4.22491e-09 0)
(1.20435 5.41655e-09 0)
(1.20435 -3.87151e-09 0)
(1.20435 6.06222e-09 0)
(1.20435 -3.34258e-09 0)
(1.20435 6.43187e-09 0)
(1.20435 -2.98095e-09 0)
(1.20435 7.25569e-09 0)
(1.20435 -1.98851e-09 0)
(1.20435 8.40515e-09 0)
(1.20435 -6.12918e-10 0)
(1.20435 1.02536e-08 0)
(1.20435 1.33232e-09 0)
(1.20435 1.23589e-08 0)
(1.20435 3.61369e-09 0)
(1.20435 1.51381e-08 0)
(1.20435 6.78997e-09 0)
(1.20435 1.85616e-08 0)
(1.20435 1.03353e-08 0)
(1.20435 2.20231e-08 0)
(1.20435 1.52615e-08 0)
(1.20435 2.9913e-08 0)
(1.20435 2.32427e-08 0)
(1.20435 3.54641e-08 0)
(1.20435 2.84354e-08 0)
(1.20435 4.22155e-08 0)
(1.20435 3.47503e-08 0)
(1.20435 2.63148e-08 0)
)
;

boundaryField
{
    inandouthalf11
    {
        type            cyclic;
    }
    inandouthalf12
    {
        type            cyclic;
    }
    inandouthalf21
    {
        type            cyclic;
    }
    inandouthalf22
    {
        type            cyclic;
    }
    inandouthalf31
    {
        type            cyclic;
    }
    inandouthalf32
    {
        type            cyclic;
    }
    inandouthalf41
    {
        type            cyclic;
    }
    inandouthalf42
    {
        type            cyclic;
    }
    top
    {
        type            symmetryPlane;
    }
    walls
    {
        type            calculated;
        value           uniform (0 0 0);
    }
    frontAndBackPlanes
    {
        type            empty;
    }
}


// ************************************************************************* //
