/*--------------------------------*- C++ -*----------------------------------*\
| =========                 |                                                 |
| \\      /  F ield         | OpenFOAM: The Open Source CFD Toolbox           |
|  \\    /   O peration     | Version:  2.4.x                                 |
|   \\  /    A nd           | Web:      www.OpenFOAM.org                      |
|    \\/     M anipulation  |                                                 |
\*---------------------------------------------------------------------------*/
FoamFile
{
    version     2.0;
    format      ascii;
    class       volScalarField;
    location    "7.5";
    object      ddt0(alpha);
}
// * * * * * * * * * * * * * * * * * * * * * * * * * * * * * * * * * * * * * //

dimensions      [0 0 -1 0 0 0 0];

internalField   nonuniform List<scalar> 
360
(
6.38641e-05
9.78357e-05
8.86028e-05
8.32179e-05
8.46489e-05
8.62156e-05
8.64509e-05
8.62172e-05
8.60194e-05
8.59994e-05
8.60864e-05
8.61826e-05
8.62825e-05
8.63749e-05
8.64889e-05
8.66436e-05
8.68367e-05
8.70553e-05
8.72917e-05
8.75637e-05
8.78247e-05
8.81193e-05
8.84236e-05
8.87366e-05
8.90575e-05
8.93796e-05
8.96957e-05
9.00313e-05
9.03588e-05
9.06783e-05
9.09892e-05
9.13193e-05
9.15989e-05
9.19314e-05
9.2208e-05
9.24986e-05
9.27604e-05
9.30315e-05
9.3313e-05
9.35201e-05
9.37803e-05
9.39994e-05
9.41714e-05
9.43887e-05
9.45546e-05
9.47141e-05
9.48579e-05
9.49273e-05
9.50255e-05
9.51526e-05
9.51929e-05
9.52584e-05
9.52805e-05
9.5313e-05
9.52755e-05
9.52839e-05
9.51976e-05
9.5136e-05
9.50285e-05
9.48769e-05
9.48122e-05
9.46933e-05
9.46338e-05
9.45318e-05
9.44239e-05
9.42743e-05
9.41183e-05
9.39307e-05
9.37068e-05
9.3445e-05
9.32394e-05
9.30496e-05
9.2788e-05
9.25747e-05
9.23126e-05
9.20312e-05
9.16263e-05
9.11331e-05
9.05516e-05
8.98878e-05
8.91304e-05
8.83196e-05
8.7458e-05
8.65366e-05
8.55491e-05
8.44701e-05
8.32884e-05
8.19784e-05
8.0541e-05
7.89892e-05
7.73403e-05
7.5618e-05
7.38523e-05
7.20628e-05
7.02638e-05
6.84646e-05
6.66702e-05
6.48838e-05
6.31098e-05
6.13542e-05
5.96236e-05
5.79255e-05
5.62671e-05
5.46541e-05
5.30907e-05
5.15806e-05
5.01265e-05
4.87316e-05
4.73991e-05
4.61331e-05
4.49385e-05
4.38211e-05
4.27881e-05
4.18477e-05
4.10096e-05
4.02845e-05
3.96837e-05
3.92184e-05
3.8898e-05
3.8728e-05
3.87075e-05
3.88258e-05
3.9059e-05
3.93681e-05
3.96984e-05
3.99809e-05
4.01344e-05
4.00653e-05
3.96672e-05
3.8827e-05
3.74558e-05
3.55445e-05
3.32145e-05
3.07036e-05
2.82657e-05
2.60744e-05
2.42742e-05
2.30683e-05
2.25215e-05
2.20039e-05
1.9548e-05
1.23944e-05
2.98793e-06
-5.36219e-06
-1.48754e-05
-6.01375e-05
0.00139188
0.00303678
0.00115228
-0.188018
0.051587
0.110488
0.040045
0.00810967
-0.0013863
-0.00362209
-0.00368447
-0.0032779
-0.00285332
-0.00245726
-0.0021074
-0.00183728
-0.00161404
-0.00142795
-0.00127093
-0.00113665
-0.00102045
-0.000918884
-0.000829372
-0.000749958
-0.000679132
-0.000615709
-0.000558745
-0.000507466
-0.000461235
-0.00041951
-0.00038183
-0.00034779
-0.000317034
-0.000289246
-0.00026414
-0.00024146
-0.000220971
-0.000202463
-0.000185741
-0.000170632
-0.000156976
-0.000144629
-0.000133459
-0.000123346
-0.000114179
-0.000105857
-9.8286e-05
-9.13878e-05
-8.50948e-05
-7.93499e-05
-7.41022e-05
-6.93043e-05
-6.49155e-05
-6.09023e-05
-5.72285e-05
-5.38077e-05
-5.05561e-05
-4.74313e-05
-4.44093e-05
-4.14653e-05
-3.85687e-05
-3.56853e-05
-3.28e-05
-2.99185e-05
-2.70592e-05
-2.42648e-05
-2.15595e-05
-1.89494e-05
-1.64896e-05
-1.42366e-05
-1.21847e-05
-1.03342e-05
-8.70425e-06
-7.29854e-06
-6.09315e-06
-5.04939e-06
-4.16479e-06
-3.42978e-06
-2.80914e-06
-2.28841e-06
-1.86016e-06
-1.50587e-06
-1.21695e-06
-9.75113e-07
-7.84773e-07
-6.23126e-07
-4.93099e-07
-3.51533e-07
-2.98563e-07
-3.23651e-07
-2.45464e-07
-1.94679e-07
-1.09237e-07
-7.04938e-08
-2.83259e-08
-1.88379e-08
-1.4049e-09
-1.00511e-19
-2.03921e-30
-2.7682e-36
-2.05431e-36
-2.52233e-36
-2.67821e-36
-1.04311e-36
-4.06457e-37
-1.89034e-37
-9.60524e-38
-5.69034e-38
-4.7203e-38
-4.04868e-38
-1.56501e-38
-7.04007e-39
-3.5389e-39
-1.92692e-39
-1.27411e-39
-6.41252e-40
-3.04829e-40
-1.53607e-40
-7.93084e-41
-3.95225e-41
-1.94718e-41
-9.43213e-42
-4.48984e-42
-2.09906e-42
-9.63236e-43
-4.33595e-43
-1.91334e-43
-8.27099e-44
-3.49994e-44
-1.44865e-44
-5.86023e-45
-2.31489e-45
-8.92093e-46
-3.35063e-46
-1.22524e-46
-4.35714e-47
-1.50504e-47
-5.04305e-48
-1.63693e-48
-5.13928e-49
-1.5581e-49
-4.55341e-50
-1.28019e-50
-3.45531e-51
-8.93194e-52
-2.20557e-52
-5.18744e-53
-1.15832e-53
-2.4466e-54
-4.86793e-55
-9.08041e-56
-1.57925e-56
-2.54432e-57
-3.76825e-58
-5.08319e-59
-6.17471e-60
-6.65803e-61
-6.25486e-62
-4.99174e-63
-3.26388e-64
-1.65294e-65
-5.86949e-67
-1.16432e-68
-3.63619e-71
-9.81382e-76
-8.80797e-78
-3.92038e-80
-1.33233e-90
-2.25971e-101
-2.7576e-112
-2.41873e-123
-1.81025e-134
-1.02502e-145
-5.01546e-157
-4.55706e-167
-1.91481e-177
-1.51269e-185
-5.68981e-196
-5.20315e-204
-2.28985e-214
-1.79027e-222
-9.67858e-233
-6.16528e-241
-6.11245e-251
-2.15514e-259
-3.99792e-269
-7.69627e-278
-1.96857e-287
-2.80317e-296
-9.34258e-306
-1.04485e-314
3.83889e-320
0
0
0
0
0
0
0
0
0
0
0
0
0
0
0
0
0
0
0
0
0
0
)
;

boundaryField
{
    inandouthalf11
    {
        type            cyclic;
    }
    inandouthalf12
    {
        type            cyclic;
    }
    inandouthalf21
    {
        type            cyclic;
    }
    inandouthalf22
    {
        type            cyclic;
    }
    inandouthalf31
    {
        type            cyclic;
    }
    inandouthalf32
    {
        type            cyclic;
    }
    inandouthalf41
    {
        type            cyclic;
    }
    inandouthalf42
    {
        type            cyclic;
    }
    top
    {
        type            symmetryPlane;
    }
    walls
    {
        type            calculated;
        value           uniform 6.38641e-05;
    }
    frontAndBackPlanes
    {
        type            empty;
    }
}


// ************************************************************************* //
