/*--------------------------------*- C++ -*----------------------------------*\
| =========                 |                                                 |
| \\      /  F ield         | OpenFOAM: The Open Source CFD Toolbox           |
|  \\    /   O peration     | Version:  2.4.x                                 |
|   \\  /    A nd           | Web:      www.OpenFOAM.org                      |
|    \\/     M anipulation  |                                                 |
\*---------------------------------------------------------------------------*/
FoamFile
{
    version     2.0;
    format      ascii;
    class       surfaceScalarField;
    location    "7.5";
    object      ddt0(phib);
}
// * * * * * * * * * * * * * * * * * * * * * * * * * * * * * * * * * * * * * //

dimensions      [0 3 -2 0 0 0 0];

internalField   nonuniform List<scalar> 
359
(
-1.18154e-13
-3.07509e-13
-4.66173e-13
-6.0277e-13
-7.37364e-13
-8.75823e-13
-1.01861e-12
-1.16642e-12
-1.32027e-12
-1.48149e-12
-1.65092e-12
-1.82897e-12
-2.0157e-12
-2.21098e-12
-2.41455e-12
-2.6263e-12
-2.84593e-12
-3.07325e-12
-3.30791e-12
-3.54961e-12
-3.79803e-12
-4.05292e-12
-4.31402e-12
-4.58108e-12
-4.85387e-12
-5.1321e-12
-5.41565e-12
-5.7043e-12
-5.99789e-12
-6.29623e-12
-6.59913e-12
-6.90656e-12
-7.21811e-12
-7.53389e-12
-7.85351e-12
-8.17687e-12
-8.50363e-12
-8.83367e-12
-9.16677e-12
-9.50247e-12
-9.84062e-12
-1.01808e-11
-1.05226e-11
-1.08659e-11
-1.12101e-11
-1.15551e-11
-1.19005e-11
-1.22459e-11
-1.25912e-11
-1.29367e-11
-1.32819e-11
-1.36271e-11
-1.39723e-11
-1.43178e-11
-1.46636e-11
-1.50103e-11
-1.53579e-11
-1.57071e-11
-1.60585e-11
-1.64124e-11
-1.67702e-11
-1.71324e-11
-1.75e-11
-1.78733e-11
-1.8253e-11
-1.8639e-11
-1.90313e-11
-1.94298e-11
-1.9834e-11
-2.02434e-11
-2.06576e-11
-2.10761e-11
-2.14973e-11
-2.19202e-11
-2.23429e-11
-2.27632e-11
-2.31782e-11
-2.35849e-11
-2.39802e-11
-2.4361e-11
-2.47245e-11
-2.5068e-11
-2.53893e-11
-2.56862e-11
-2.5957e-11
-2.62e-11
-2.64138e-11
-2.65976e-11
-2.67507e-11
-2.68732e-11
-2.69659e-11
-2.70302e-11
-2.70679e-11
-2.70816e-11
-2.7074e-11
-2.70484e-11
-2.70081e-11
-2.69567e-11
-2.68975e-11
-2.68342e-11
-2.67702e-11
-2.67086e-11
-2.66527e-11
-2.66053e-11
-2.65689e-11
-2.6546e-11
-2.65385e-11
-2.65482e-11
-2.65766e-11
-2.66248e-11
-2.66938e-11
-2.67844e-11
-2.68969e-11
-2.7032e-11
-2.71899e-11
-2.73711e-11
-2.75762e-11
-2.78058e-11
-2.80612e-11
-2.83437e-11
-2.86549e-11
-2.8997e-11
-2.93719e-11
-2.97815e-11
-3.02269e-11
-3.07082e-11
-3.12239e-11
-3.177e-11
-3.23398e-11
-3.29235e-11
-3.35082e-11
-3.40802e-11
-3.4627e-11
-3.51405e-11
-3.56177e-11
-3.60594e-11
-3.6471e-11
-3.68634e-11
-3.72511e-11
-3.76404e-11
-3.80046e-11
-3.82714e-11
-3.84033e-11
-3.84082e-11
-3.82943e-11
-3.78292e-11
-1.78958e-10
-5.39999e-10
-5.99778e-10
-1.08163e-08
-6.13357e-09
-3.36935e-09
-1.34062e-09
-5.80331e-10
-3.06936e-10
-1.85055e-10
-1.28287e-10
-1.00784e-10
-8.54414e-11
-7.50956e-11
-6.80033e-11
-6.23027e-11
-5.73935e-11
-5.29527e-11
-4.88615e-11
-4.50701e-11
-4.15567e-11
-3.83099e-11
-3.53198e-11
-3.25756e-11
-3.00643e-11
-2.77713e-11
-2.56808e-11
-2.37764e-11
-2.20416e-11
-2.04606e-11
-1.9018e-11
-1.76997e-11
-1.64925e-11
-1.53845e-11
-1.43649e-11
-1.34241e-11
-1.25538e-11
-1.17465e-11
-1.09956e-11
-1.02955e-11
-9.64132e-12
-9.02869e-12
-8.45382e-12
-7.91335e-12
-7.40438e-12
-6.92427e-12
-6.47081e-12
-6.04219e-12
-5.63691e-12
-5.25368e-12
-4.89123e-12
-4.54851e-12
-4.22454e-12
-3.91836e-12
-3.62875e-12
-3.34885e-12
-3.07816e-12
-2.81664e-12
-2.56464e-12
-2.32249e-12
-2.09046e-12
-1.86907e-12
-1.65925e-12
-1.46207e-12
-1.27864e-12
-1.10979e-12
-9.55518e-13
-8.16179e-13
-6.92346e-13
-5.83593e-13
-4.88784e-13
-4.07122e-13
-3.37762e-13
-2.79368e-13
-2.30201e-13
-1.89053e-13
-1.55004e-13
-1.26905e-13
-1.03655e-13
-8.46132e-14
-6.90324e-14
-5.6365e-14
-4.60277e-14
-3.76666e-14
-3.08889e-14
-2.53619e-14
-2.05806e-14
-1.71659e-14
-1.5529e-14
-1.33425e-14
-9.92722e-15
-6.54231e-15
-5.12563e-15
-4.26465e-15
-3.98464e-15
-3.60606e-15
-3.66546e-15
-3.50566e-15
-3.38541e-15
-3.27136e-15
-3.15298e-15
-3.06128e-15
-2.94441e-15
-2.82719e-15
-2.72314e-15
-2.61083e-15
-2.49363e-15
-2.374e-15
-2.26631e-15
-2.14554e-15
-2.03321e-15
-1.90997e-15
-1.79245e-15
-1.68314e-15
-1.56615e-15
-1.46307e-15
-1.36411e-15
-1.27164e-15
-1.17782e-15
-1.1011e-15
-1.01915e-15
-9.57454e-16
-8.98023e-16
-8.42474e-16
-8.04035e-16
-7.60936e-16
-7.12056e-16
-6.78076e-16
-6.47849e-16
-6.1659e-16
-5.79867e-16
-5.51697e-16
-5.2906e-16
-5.12323e-16
-4.77182e-16
-4.4808e-16
-4.23984e-16
-4.01869e-16
-3.79283e-16
-3.6927e-16
-3.55307e-16
-3.59283e-16
-3.3887e-16
-3.22843e-16
-3.18067e-16
-3.30684e-16
-3.13522e-16
-3.35981e-16
-3.60301e-16
-4.65413e-16
-3.60898e-16
-3.33782e-16
-3.08208e-16
-3.17739e-16
-3.00192e-16
-3.01816e-16
-3.05849e-16
-3.16864e-16
-3.13779e-16
-3.16756e-16
-3.20222e-16
-3.07039e-16
-3.09315e-16
-2.8662e-16
-2.68453e-16
-2.32496e-16
-2.44511e-16
-2.39959e-16
-2.30761e-16
-1.90394e-16
-1.83831e-16
-1.45122e-16
-1.03765e-16
-3.28743e-17
-1.08061e-17
4.11624e-17
9.10743e-17
1.77629e-16
2.42201e-16
3.1789e-16
3.82825e-16
3.47547e-16
6.04491e-16
9.14872e-16
1.20742e-15
1.96618e-15
2.11894e-15
3.13308e-15
4.05265e-15
6.15282e-15
5.73824e-15
6.93581e-15
8.02213e-15
1.10201e-14
1.22549e-14
1.561e-14
1.8857e-14
2.38389e-14
2.68874e-14
3.19361e-14
3.69219e-14
4.40323e-14
5.05407e-14
5.7542e-14
6.53578e-14
7.05153e-14
9.24903e-14
1.05779e-13
1.20853e-13
1.21916e-13
1.46702e-13
1.50076e-13
1.6813e-13
)
;

boundaryField
{
    inandouthalf11
    {
        type            cyclic;
        value           nonuniform List<scalar> 
100
(
-1.22918e-10
-1.22241e-10
-1.22193e-10
-1.22323e-10
-1.22399e-10
-1.22445e-10
-1.22497e-10
-1.22553e-10
-1.22611e-10
-1.22668e-10
-1.22726e-10
-1.22783e-10
-1.22841e-10
-1.22899e-10
-1.22958e-10
-1.23016e-10
-1.23076e-10
-1.23135e-10
-1.23195e-10
-1.23255e-10
-1.23316e-10
-1.23378e-10
-1.23439e-10
-1.23502e-10
-1.23565e-10
-1.23628e-10
-1.23692e-10
-1.23757e-10
-1.23822e-10
-1.23888e-10
-1.23955e-10
-1.24022e-10
-1.2409e-10
-1.24158e-10
-1.24227e-10
-1.24297e-10
-1.24368e-10
-1.24439e-10
-1.24512e-10
-1.24584e-10
-1.24658e-10
-1.24732e-10
-1.24807e-10
-1.24883e-10
-1.24959e-10
-1.25036e-10
-1.25114e-10
-1.25192e-10
-1.25272e-10
-1.25352e-10
-1.25433e-10
-1.25514e-10
-1.25597e-10
-1.2568e-10
-1.25763e-10
-1.25848e-10
-1.25933e-10
-1.26019e-10
-1.26106e-10
-1.26193e-10
-1.26281e-10
-1.2637e-10
-1.2646e-10
-1.2655e-10
-1.26641e-10
-1.26733e-10
-1.26825e-10
-1.26919e-10
-1.27013e-10
-1.27108e-10
-1.27204e-10
-1.27301e-10
-1.27399e-10
-1.27497e-10
-1.27597e-10
-1.27697e-10
-1.27798e-10
-1.27901e-10
-1.28004e-10
-1.28108e-10
-1.28212e-10
-1.28318e-10
-1.28423e-10
-1.2853e-10
-1.28637e-10
-1.28744e-10
-1.28852e-10
-1.2896e-10
-1.29069e-10
-1.29177e-10
-1.29286e-10
-1.29395e-10
-1.29503e-10
-1.29612e-10
-1.2972e-10
-1.29828e-10
-1.29937e-10
-1.30045e-10
-1.30153e-10
-1.30262e-10
)
;
    }
    inandouthalf12
    {
        type            cyclic;
        value           nonuniform List<scalar> 
100
(
1.22918e-10
1.22241e-10
1.22193e-10
1.22323e-10
1.22399e-10
1.22445e-10
1.22497e-10
1.22553e-10
1.22611e-10
1.22668e-10
1.22726e-10
1.22783e-10
1.22841e-10
1.22899e-10
1.22958e-10
1.23016e-10
1.23076e-10
1.23135e-10
1.23195e-10
1.23255e-10
1.23316e-10
1.23378e-10
1.23439e-10
1.23502e-10
1.23565e-10
1.23628e-10
1.23692e-10
1.23757e-10
1.23822e-10
1.23888e-10
1.23955e-10
1.24022e-10
1.2409e-10
1.24158e-10
1.24227e-10
1.24297e-10
1.24368e-10
1.24439e-10
1.24512e-10
1.24584e-10
1.24658e-10
1.24732e-10
1.24807e-10
1.24883e-10
1.24959e-10
1.25036e-10
1.25114e-10
1.25192e-10
1.25272e-10
1.25352e-10
1.25433e-10
1.25514e-10
1.25597e-10
1.2568e-10
1.25763e-10
1.25848e-10
1.25933e-10
1.26019e-10
1.26106e-10
1.26193e-10
1.26281e-10
1.2637e-10
1.2646e-10
1.2655e-10
1.26641e-10
1.26733e-10
1.26825e-10
1.26919e-10
1.27013e-10
1.27108e-10
1.27204e-10
1.27301e-10
1.27399e-10
1.27497e-10
1.27597e-10
1.27697e-10
1.27798e-10
1.27901e-10
1.28004e-10
1.28108e-10
1.28212e-10
1.28318e-10
1.28423e-10
1.2853e-10
1.28637e-10
1.28744e-10
1.28852e-10
1.2896e-10
1.29069e-10
1.29177e-10
1.29286e-10
1.29395e-10
1.29503e-10
1.29612e-10
1.2972e-10
1.29828e-10
1.29937e-10
1.30045e-10
1.30153e-10
1.30262e-10
)
;
    }
    inandouthalf21
    {
        type            cyclic;
        value           nonuniform List<scalar> 
100
(
-1.3037e-10
-1.30479e-10
-1.30589e-10
-1.30699e-10
-1.3081e-10
-1.30922e-10
-1.31035e-10
-1.31149e-10
-1.31264e-10
-1.31381e-10
-1.315e-10
-1.31621e-10
-1.31744e-10
-1.31869e-10
-1.31996e-10
-1.32127e-10
-1.3226e-10
-1.32396e-10
-1.32536e-10
-1.3268e-10
-1.32827e-10
-1.3298e-10
-1.33137e-10
-1.33299e-10
-1.33468e-10
-1.33643e-10
-1.33826e-10
-1.34018e-10
-1.34218e-10
-1.34429e-10
-1.3465e-10
-1.34882e-10
-1.35124e-10
-1.35379e-10
-1.35647e-10
-1.35928e-10
-1.36221e-10
-1.36529e-10
-1.36868e-10
-1.37256e-10
-1.37679e-10
-1.38097e-10
-1.38585e-10
-1.39189e-10
-1.39929e-10
-1.4141e-10
-1.41048e-10
-9.03757e-11
6.0336e-11
-7.82956e-08
-2.51272e-07
-5.09656e-07
-7.1244e-07
-8.33529e-07
-8.98351e-07
-9.35271e-07
-9.59039e-07
-9.7633e-07
-9.90235e-07
-1.00223e-06
-1.01307e-06
-1.02314e-06
-1.03265e-06
-1.04172e-06
-1.05041e-06
-1.05876e-06
-1.06679e-06
-1.07451e-06
-1.08194e-06
-1.08909e-06
-1.09596e-06
-1.10257e-06
-1.10892e-06
-1.11502e-06
-1.12089e-06
-1.12652e-06
-1.13194e-06
-1.13714e-06
-1.14214e-06
-1.14694e-06
-1.15156e-06
-1.156e-06
-1.16026e-06
-1.16437e-06
-1.16831e-06
-1.1721e-06
-1.17575e-06
-1.17925e-06
-1.18262e-06
-1.18586e-06
-1.18898e-06
-1.19198e-06
-1.19486e-06
-1.19764e-06
-1.2003e-06
-1.20287e-06
-1.20533e-06
-1.20769e-06
-1.20996e-06
-1.21213e-06
)
;
    }
    inandouthalf22
    {
        type            cyclic;
        value           nonuniform List<scalar> 
100
(
1.3037e-10
1.30479e-10
1.30589e-10
1.30699e-10
1.3081e-10
1.30922e-10
1.31035e-10
1.31149e-10
1.31264e-10
1.31381e-10
1.315e-10
1.31621e-10
1.31744e-10
1.31869e-10
1.31996e-10
1.32127e-10
1.3226e-10
1.32396e-10
1.32536e-10
1.3268e-10
1.32827e-10
1.3298e-10
1.33137e-10
1.33299e-10
1.33468e-10
1.33643e-10
1.33826e-10
1.34018e-10
1.34218e-10
1.34429e-10
1.3465e-10
1.34882e-10
1.35124e-10
1.35379e-10
1.35647e-10
1.35928e-10
1.36221e-10
1.36529e-10
1.36868e-10
1.37256e-10
1.37679e-10
1.38097e-10
1.38585e-10
1.39189e-10
1.39929e-10
1.4141e-10
1.41048e-10
9.03757e-11
-6.0336e-11
7.82956e-08
2.51272e-07
5.09656e-07
7.1244e-07
8.33529e-07
8.98351e-07
9.35271e-07
9.59039e-07
9.7633e-07
9.90235e-07
1.00223e-06
1.01307e-06
1.02314e-06
1.03265e-06
1.04172e-06
1.05041e-06
1.05876e-06
1.06679e-06
1.07451e-06
1.08194e-06
1.08909e-06
1.09596e-06
1.10257e-06
1.10892e-06
1.11502e-06
1.12089e-06
1.12652e-06
1.13194e-06
1.13714e-06
1.14214e-06
1.14694e-06
1.15156e-06
1.156e-06
1.16026e-06
1.16437e-06
1.16831e-06
1.1721e-06
1.17575e-06
1.17925e-06
1.18262e-06
1.18586e-06
1.18898e-06
1.19198e-06
1.19486e-06
1.19764e-06
1.2003e-06
1.20287e-06
1.20533e-06
1.20769e-06
1.20996e-06
1.21213e-06
)
;
    }
    inandouthalf31
    {
        type            cyclic;
        value           nonuniform List<scalar> 
110
(
-1.21421e-06
-1.24091e-06
-1.26813e-06
-1.29591e-06
-1.32423e-06
-1.35312e-06
-1.38259e-06
-1.41265e-06
-1.4433e-06
-1.47457e-06
-1.50644e-06
-1.53894e-06
-1.57208e-06
-1.60585e-06
-1.64028e-06
-1.67536e-06
-1.71112e-06
-1.74754e-06
-1.78465e-06
-1.82245e-06
-1.86095e-06
-1.90015e-06
-1.94006e-06
-1.98069e-06
-2.02203e-06
-2.06409e-06
-2.10687e-06
-2.15038e-06
-2.1946e-06
-2.23954e-06
-2.28518e-06
-2.33153e-06
-2.37856e-06
-2.42625e-06
-2.47459e-06
-2.52355e-06
-2.57311e-06
-2.62321e-06
-2.67382e-06
-2.7249e-06
-2.77641e-06
-2.82828e-06
-2.8805e-06
-2.93303e-06
-2.98589e-06
-3.03911e-06
-3.09281e-06
-3.14714e-06
-3.20232e-06
-3.25863e-06
-3.31635e-06
-3.37575e-06
-3.43705e-06
-3.50042e-06
-3.56599e-06
-3.63386e-06
-3.70416e-06
-3.77697e-06
-3.85242e-06
-3.93075e-06
-4.01289e-06
-4.10081e-06
-4.18602e-06
-4.27108e-06
-4.35777e-06
-4.44623e-06
-4.53647e-06
-4.62855e-06
-4.7225e-06
-4.81835e-06
-4.91615e-06
-5.01594e-06
-5.11775e-06
-5.22162e-06
-5.32761e-06
-5.43574e-06
-5.54608e-06
-5.65865e-06
-5.7735e-06
-5.89069e-06
-6.01025e-06
-6.13225e-06
-6.25671e-06
-6.38371e-06
-6.51328e-06
-6.64548e-06
-6.78037e-06
-6.91799e-06
-7.05841e-06
-7.20168e-06
-7.34785e-06
-7.49699e-06
-7.64916e-06
-7.80442e-06
-7.96283e-06
-8.12445e-06
-8.28936e-06
-8.45761e-06
-8.62928e-06
-8.80443e-06
-8.98313e-06
-9.16547e-06
-9.3515e-06
-9.54131e-06
-9.73498e-06
-9.93257e-06
-1.01342e-05
-1.03399e-05
-1.05497e-05
-1.07639e-05
)
;
    }
    inandouthalf32
    {
        type            cyclic;
        value           nonuniform List<scalar> 
110
(
1.21421e-06
1.24091e-06
1.26813e-06
1.29591e-06
1.32423e-06
1.35312e-06
1.38259e-06
1.41265e-06
1.4433e-06
1.47457e-06
1.50644e-06
1.53894e-06
1.57208e-06
1.60585e-06
1.64028e-06
1.67536e-06
1.71112e-06
1.74754e-06
1.78465e-06
1.82245e-06
1.86095e-06
1.90015e-06
1.94006e-06
1.98069e-06
2.02203e-06
2.06409e-06
2.10687e-06
2.15038e-06
2.1946e-06
2.23954e-06
2.28518e-06
2.33153e-06
2.37856e-06
2.42625e-06
2.47459e-06
2.52355e-06
2.57311e-06
2.62321e-06
2.67382e-06
2.7249e-06
2.77641e-06
2.82828e-06
2.8805e-06
2.93303e-06
2.98589e-06
3.03911e-06
3.09281e-06
3.14714e-06
3.20232e-06
3.25863e-06
3.31635e-06
3.37575e-06
3.43705e-06
3.50042e-06
3.56599e-06
3.63386e-06
3.70416e-06
3.77697e-06
3.85242e-06
3.93075e-06
4.01289e-06
4.10081e-06
4.18602e-06
4.27108e-06
4.35777e-06
4.44623e-06
4.53647e-06
4.62855e-06
4.7225e-06
4.81835e-06
4.91615e-06
5.01594e-06
5.11775e-06
5.22162e-06
5.32761e-06
5.43574e-06
5.54608e-06
5.65865e-06
5.7735e-06
5.89069e-06
6.01025e-06
6.13225e-06
6.25671e-06
6.38371e-06
6.51328e-06
6.64548e-06
6.78037e-06
6.91799e-06
7.05841e-06
7.20168e-06
7.34785e-06
7.49699e-06
7.64916e-06
7.80442e-06
7.96283e-06
8.12445e-06
8.28936e-06
8.45761e-06
8.62928e-06
8.80443e-06
8.98313e-06
9.16547e-06
9.3515e-06
9.54131e-06
9.73498e-06
9.93257e-06
1.01342e-05
1.03399e-05
1.05497e-05
1.07639e-05
)
;
    }
    inandouthalf41
    {
        type            cyclic;
        value           nonuniform List<scalar> 
50
(
-9.63477e-06
-9.63477e-06
-9.63477e-06
-9.63477e-06
-9.63477e-06
-9.63477e-06
-9.63477e-06
-9.63477e-06
-9.63477e-06
-9.63477e-06
-9.63477e-06
-9.63477e-06
-9.63477e-06
-9.63477e-06
-9.63477e-06
-9.63477e-06
-9.63477e-06
-9.63477e-06
-9.63477e-06
-9.63477e-06
-9.63477e-06
-9.63477e-06
-9.63477e-06
-9.63477e-06
-9.63477e-06
-9.63477e-06
-9.63477e-06
-9.63477e-06
-9.63477e-06
-9.63477e-06
-9.63477e-06
-9.63477e-06
-9.63477e-06
-9.63477e-06
-9.63477e-06
-9.63477e-06
-9.63477e-06
-9.63477e-06
-9.63477e-06
-9.63477e-06
-9.63477e-06
-9.63477e-06
-9.63477e-06
-9.63477e-06
-9.63477e-06
-9.63477e-06
-9.63477e-06
-9.63477e-06
-9.63477e-06
-9.63477e-06
)
;
    }
    inandouthalf42
    {
        type            cyclic;
        value           nonuniform List<scalar> 
50
(
9.63477e-06
9.63477e-06
9.63477e-06
9.63477e-06
9.63477e-06
9.63477e-06
9.63477e-06
9.63477e-06
9.63477e-06
9.63477e-06
9.63477e-06
9.63477e-06
9.63477e-06
9.63477e-06
9.63477e-06
9.63477e-06
9.63477e-06
9.63477e-06
9.63477e-06
9.63477e-06
9.63477e-06
9.63477e-06
9.63477e-06
9.63477e-06
9.63477e-06
9.63477e-06
9.63477e-06
9.63477e-06
9.63477e-06
9.63477e-06
9.63477e-06
9.63477e-06
9.63477e-06
9.63477e-06
9.63477e-06
9.63477e-06
9.63477e-06
9.63477e-06
9.63477e-06
9.63477e-06
9.63477e-06
9.63477e-06
9.63477e-06
9.63477e-06
9.63477e-06
9.63477e-06
9.63477e-06
9.63477e-06
9.63477e-06
9.63477e-06
)
;
    }
    top
    {
        type            symmetryPlane;
        value           uniform 0;
    }
    walls
    {
        type            calculated;
        value           uniform 0;
    }
    frontAndBackPlanes
    {
        type            empty;
        value           nonuniform 0();
    }
}


// ************************************************************************* //
