/*--------------------------------*- C++ -*----------------------------------*\
| =========                 |                                                 |
| \\      /  F ield         | OpenFOAM: The Open Source CFD Toolbox           |
|  \\    /   O peration     | Version:  2.4.x                                 |
|   \\  /    A nd           | Web:      www.OpenFOAM.org                      |
|    \\/     M anipulation  |                                                 |
\*---------------------------------------------------------------------------*/
FoamFile
{
    version     2.0;
    format      ascii;
    class       volScalarField;
    location    "7.5";
    object      k;
}
// * * * * * * * * * * * * * * * * * * * * * * * * * * * * * * * * * * * * * //

dimensions      [0 2 -2 0 0 0 0];

internalField   nonuniform List<scalar> 
360
(
1e-20
1e-20
1e-20
1e-20
1e-20
1e-20
1e-20
1e-20
1e-20
1e-20
1e-20
1e-20
1e-20
1e-20
1e-20
1e-20
1e-20
1e-20
1e-20
1e-20
1e-20
1e-20
1e-20
1e-20
1e-20
1e-20
1e-20
1e-20
1e-20
1e-20
1e-20
1e-20
1e-20
1e-20
1e-20
1e-20
1e-20
1e-20
1e-20
1e-20
1e-20
1e-20
1e-20
1e-20
1e-20
1e-20
1e-20
1e-20
1e-20
1e-20
1e-20
1e-20
1e-20
1e-20
1e-20
1e-20
1e-20
1e-20
1e-20
1e-20
1e-20
1e-20
1e-20
1e-20
1e-20
1e-20
1e-20
1e-20
1e-20
1e-20
1e-20
1e-20
1e-20
1e-20
1e-20
1e-20
1e-20
1e-20
1e-20
1e-20
1e-20
1e-20
1e-20
1e-20
1e-20
1e-20
1e-20
1e-20
1e-20
1e-20
1e-20
1e-20
1e-20
1e-20
1e-20
1e-20
1e-20
1e-20
1e-20
1e-20
1e-20
1e-20
1e-20
1e-20
1e-20
1e-20
1e-20
1e-20
1e-20
1e-20
1e-20
1e-20
1e-20
1e-20
1e-20
1e-20
1e-20
1e-20
1e-20
1e-20
1e-20
1e-20
1e-20
1e-20
1e-20
1e-20
1e-20
1e-20
1e-20
1e-20
1e-20
1e-20
1e-20
1.40858e-20
5.09534e-20
2.16405e-19
9.83795e-19
4.70757e-18
2.30632e-17
1.1198e-16
5.26308e-16
2.42568e-15
1.24173e-14
9.02708e-14
1.06336e-12
1.88068e-11
4.55183e-10
1.41506e-08
5.64299e-07
2.78153e-05
0.000858779
0.00174053
0.00175994
0.00183819
0.00196503
0.00210963
0.00225875
0.00240778
0.00255497
0.00269956
0.00284109
0.00297922
0.00311362
0.00324401
0.00337013
0.00349174
0.00360863
0.00372066
0.00382766
0.00392956
0.00402627
0.00411775
0.00420398
0.00428498
0.00436076
0.00443136
0.00449685
0.00455729
0.00461276
0.00466335
0.00470916
0.00475029
0.00478684
0.00481893
0.00484667
0.00487017
0.00488956
0.00490495
0.00491645
0.00492419
0.00492829
0.00492885
0.00492601
0.00491987
0.00491054
0.00489815
0.0048828
0.00486459
0.00484365
0.00482007
0.00479396
0.00476514
0.00473328
0.00469834
0.00466025
0.00461898
0.00457446
0.00452666
0.00447552
0.004421
0.00436307
0.00430167
0.0042368
0.0041684
0.00409647
0.00402098
0.00394192
0.0038593
0.00377311
0.00368337
0.0035901
0.00349335
0.00339317
0.00328962
0.00318278
0.00307276
0.00295968
0.00284369
0.00272495
0.00260368
0.00248011
0.00235452
0.00222721
0.00209856
0.00196896
0.0018389
0.00170889
0.00157953
0.00145148
0.00132546
0.00120228
0.00108279
0.000967873
0.00085846
0.000755447
0.000659666
0.000571815
0.000492382
0.00042158
0.00035929
0.000305047
0.00025808
0.000217387
0.000181852
0.000150361
0.000121909
9.56967e-05
7.12117e-05
4.83234e-05
2.74483e-05
9.84115e-06
1.17583e-06
3.92438e-08
8.83769e-10
1.85471e-11
3.67366e-13
6.86521e-15
1.21001e-16
2.01612e-18
3.86218e-20
1e-20
1e-20
1e-20
1e-20
1e-20
1e-20
1e-20
1e-20
1e-20
1e-20
1e-20
1e-20
1e-20
1e-20
1e-20
1e-20
1e-20
1e-20
1e-20
1e-20
1e-20
1e-20
1e-20
1e-20
1e-20
1e-20
1e-20
1e-20
1e-20
1e-20
1e-20
1e-20
1e-20
1e-20
1e-20
1e-20
1e-20
1e-20
1e-20
1e-20
1e-20
1e-20
1e-20
1e-20
1e-20
1e-20
1e-20
1e-20
1e-20
1e-20
1e-20
1e-20
1e-20
1e-20
1e-20
1e-20
1e-20
1e-20
1e-20
1e-20
1e-20
1e-20
1e-20
1e-20
1e-20
1e-20
1e-20
1e-20
1e-20
1e-20
1e-20
1e-20
1e-20
1e-20
1e-20
1e-20
1e-20
1e-20
1e-20
1e-20
1e-20
1e-20
1e-20
1e-20
1e-20
1e-20
1e-20
1e-20
1e-20
1e-20
)
;

boundaryField
{
    inandouthalf11
    {
        type            cyclic;
    }
    inandouthalf12
    {
        type            cyclic;
    }
    inandouthalf21
    {
        type            cyclic;
    }
    inandouthalf22
    {
        type            cyclic;
    }
    inandouthalf31
    {
        type            cyclic;
    }
    inandouthalf32
    {
        type            cyclic;
    }
    inandouthalf41
    {
        type            cyclic;
    }
    inandouthalf42
    {
        type            cyclic;
    }
    top
    {
        type            symmetryPlane;
    }
    walls
    {
        type            zeroGradient;
    }
    frontAndBackPlanes
    {
        type            empty;
    }
}


// ************************************************************************* //
