/*--------------------------------*- C++ -*----------------------------------*\
| =========                 |                                                 |
| \\      /  F ield         | OpenFOAM: The Open Source CFD Toolbox           |
|  \\    /   O peration     | Version:  2.4.x                                 |
|   \\  /    A nd           | Web:      www.OpenFOAM.org                      |
|    \\/     M anipulation  |                                                 |
\*---------------------------------------------------------------------------*/
FoamFile
{
    version     2.0;
    format      ascii;
    class       volScalarField;
    location    "7.5";
    object      k_0;
}
// * * * * * * * * * * * * * * * * * * * * * * * * * * * * * * * * * * * * * //

dimensions      [0 2 -2 0 0 0 0];

internalField   nonuniform List<scalar> 
360
(
1e-20
1e-20
1e-20
1e-20
1e-20
1e-20
1e-20
1e-20
1e-20
1e-20
1e-20
1e-20
1e-20
1e-20
1e-20
1e-20
1e-20
1e-20
1e-20
1e-20
1e-20
1e-20
1e-20
1e-20
1e-20
1e-20
1e-20
1e-20
1e-20
1e-20
1e-20
1e-20
1e-20
1e-20
1e-20
1e-20
1e-20
1e-20
1e-20
1e-20
1e-20
1e-20
1e-20
1e-20
1e-20
1e-20
1e-20
1e-20
1e-20
1e-20
1e-20
1e-20
1e-20
1e-20
1e-20
1e-20
1e-20
1e-20
1e-20
1e-20
1e-20
1e-20
1e-20
1e-20
1e-20
1e-20
1e-20
1e-20
1e-20
1e-20
1e-20
1e-20
1e-20
1e-20
1e-20
1e-20
1e-20
1e-20
1e-20
1e-20
1e-20
1e-20
1e-20
1e-20
1e-20
1e-20
1e-20
1e-20
1e-20
1e-20
1e-20
1e-20
1e-20
1e-20
1e-20
1e-20
1e-20
1e-20
1e-20
1e-20
1e-20
1e-20
1e-20
1e-20
1e-20
1e-20
1e-20
1e-20
1e-20
1e-20
1e-20
1e-20
1e-20
1e-20
1e-20
1e-20
1e-20
1e-20
1e-20
1e-20
1e-20
1e-20
1e-20
1e-20
1e-20
1e-20
1e-20
1e-20
1e-20
1e-20
1e-20
1e-20
1e-20
1.40891e-20
5.09662e-20
2.16453e-19
9.84034e-19
4.70943e-18
2.30798e-17
1.12115e-16
5.2727e-16
2.43165e-15
1.24514e-14
9.04757e-14
1.06487e-12
1.88201e-11
4.55241e-10
1.41452e-08
5.63824e-07
2.77804e-05
0.000857886
0.0017391
0.00175904
0.00183774
0.00196487
0.00210964
0.00225891
0.00240804
0.00255533
0.00270001
0.00284163
0.00297982
0.00311428
0.00324473
0.00337089
0.00349254
0.00360948
0.00372153
0.00382856
0.00393047
0.00402719
0.00411868
0.00420492
0.00428592
0.00436169
0.00443229
0.00449777
0.0045582
0.00461366
0.00466424
0.00471003
0.00475114
0.00478767
0.00481974
0.00484746
0.00487095
0.00489031
0.00490567
0.00491716
0.00492487
0.00492895
0.00492949
0.00492662
0.00492045
0.00491111
0.00489869
0.00488331
0.00486508
0.00484412
0.00482052
0.00479439
0.00476554
0.00473366
0.00469869
0.00466058
0.00461928
0.00457474
0.00452692
0.00447575
0.00442121
0.00436326
0.00430184
0.00423694
0.00416852
0.00409657
0.00402106
0.00394198
0.00385933
0.00377312
0.00368336
0.00359008
0.00349331
0.00339311
0.00328954
0.00318268
0.00307265
0.00295955
0.00284354
0.0027248
0.00260351
0.00247993
0.00235432
0.00222701
0.00209834
0.00196874
0.00183867
0.00170866
0.0015793
0.00145125
0.00132524
0.00120206
0.00108257
0.000967668
0.000858267
0.000755269
0.000659505
0.000571672
0.000492259
0.000421476
0.000359204
0.000304979
0.000258026
0.000217346
0.000181821
0.000150336
0.000121889
9.56799e-05
7.11967e-05
4.83095e-05
2.74358e-05
9.83164e-06
1.17357e-06
3.91447e-08
8.81468e-10
1.84979e-11
3.66372e-13
6.84625e-15
1.20659e-16
2.01033e-18
3.85307e-20
1e-20
1e-20
1e-20
1e-20
1e-20
1e-20
1e-20
1e-20
1e-20
1e-20
1e-20
1e-20
1e-20
1e-20
1e-20
1e-20
1e-20
1e-20
1e-20
1e-20
1e-20
1e-20
1e-20
1e-20
1e-20
1e-20
1e-20
1e-20
1e-20
1e-20
1e-20
1e-20
1e-20
1e-20
1e-20
1e-20
1e-20
1e-20
1e-20
1e-20
1e-20
1e-20
1e-20
1e-20
1e-20
1e-20
1e-20
1e-20
1e-20
1e-20
1e-20
1e-20
1e-20
1e-20
1e-20
1e-20
1e-20
1e-20
1e-20
1e-20
1e-20
1e-20
1e-20
1e-20
1e-20
1e-20
1e-20
1e-20
1e-20
1e-20
1e-20
1e-20
1e-20
1e-20
1e-20
1e-20
1e-20
1e-20
1e-20
1e-20
1e-20
1e-20
1e-20
1e-20
1e-20
1e-20
1e-20
1e-20
1e-20
1e-20
)
;

boundaryField
{
    inandouthalf11
    {
        type            cyclic;
    }
    inandouthalf12
    {
        type            cyclic;
    }
    inandouthalf21
    {
        type            cyclic;
    }
    inandouthalf22
    {
        type            cyclic;
    }
    inandouthalf31
    {
        type            cyclic;
    }
    inandouthalf32
    {
        type            cyclic;
    }
    inandouthalf41
    {
        type            cyclic;
    }
    inandouthalf42
    {
        type            cyclic;
    }
    top
    {
        type            symmetryPlane;
    }
    walls
    {
        type            zeroGradient;
    }
    frontAndBackPlanes
    {
        type            empty;
    }
}


// ************************************************************************* //
