/*--------------------------------*- C++ -*----------------------------------*\
| =========                 |                                                 |
| \\      /  F ield         | OpenFOAM: The Open Source CFD Toolbox           |
|  \\    /   O peration     | Version:  2.4.x                                 |
|   \\  /    A nd           | Web:      www.OpenFOAM.org                      |
|    \\/     M anipulation  |                                                 |
\*---------------------------------------------------------------------------*/
FoamFile
{
    version     2.0;
    format      ascii;
    class       volScalarField;
    location    "7.5";
    object      p;
}
// * * * * * * * * * * * * * * * * * * * * * * * * * * * * * * * * * * * * * //

dimensions      [1 -1 -2 0 0 0 0];

internalField   nonuniform List<scalar> 
360
(
4888.91
4884.01
4879.1
4874.19
4869.29
4864.38
4859.47
4854.57
4849.66
4844.75
4839.84
4834.93
4830.02
4825.11
4820.2
4815.29
4810.37
4805.46
4800.55
4795.64
4790.72
4785.81
4780.89
4775.98
4771.06
4766.15
4761.23
4756.32
4751.4
4746.48
4741.56
4736.65
4731.73
4726.81
4721.89
4716.97
4712.05
4707.13
4702.2
4697.28
4692.36
4687.44
4682.51
4677.59
4672.66
4667.74
4662.81
4657.89
4652.96
4648.04
4643.11
4638.18
4633.25
4628.33
4623.4
4618.47
4613.54
4608.61
4603.68
4598.74
4593.81
4588.88
4583.95
4579.01
4574.08
4569.15
4564.21
4559.28
4554.34
4549.41
4544.47
4539.53
4534.6
4529.66
4524.72
4519.78
4514.84
4509.9
4504.97
4500.03
4495.08
4490.14
4485.2
4480.26
4475.32
4470.38
4465.43
4460.49
4455.55
4450.6
4445.66
4440.71
4435.77
4430.82
4425.88
4420.93
4415.98
4411.04
4406.09
4401.14
4396.19
4391.25
4386.3
4381.35
4376.4
4371.45
4366.5
4361.55
4356.6
4351.65
4346.71
4341.76
4336.81
4331.85
4326.9
4321.95
4317
4312.05
4307.1
4302.15
4297.2
4292.25
4287.3
4282.34
4277.39
4272.44
4267.49
4262.54
4257.58
4252.63
4247.68
4242.73
4237.77
4232.82
4227.87
4222.91
4217.96
4213.01
4208.06
4203.1
4198.15
4193.2
4188.25
4183.29
4178.34
4173.39
4168.44
4163.48
4158.52
4153.51
4147.52
4141.65
4136.58
4131.53
4126.49
4121.45
4116.42
4111.39
4106.37
4101.35
4096.34
4091.33
4086.33
4081.33
4076.33
4071.34
4066.35
4061.37
4056.39
4051.41
4046.44
4041.47
4036.5
4031.54
4026.58
4021.63
4016.68
4011.73
4006.79
4001.85
3996.91
3991.97
3987.04
3982.12
3977.19
3972.27
3967.35
3962.43
3957.52
3952.61
3947.7
3942.8
3937.89
3932.99
3928.09
3923.19
3918.3
3913.41
3908.51
3903.62
3898.74
3893.8
3888.77
3883.63
3878.39
3873.05
3867.6
3862.04
3856.37
3850.59
3844.69
3838.68
3832.54
3826.28
3819.89
3813.38
3806.73
3799.95
3793.04
3785.99
3778.79
3771.45
3763.96
3756.32
3748.52
3740.57
3732.46
3724.18
3715.74
3707.12
3698.33
3689.36
3680.21
3670.87
3661.34
3651.61
3641.69
3631.56
3621.22
3610.68
3599.91
3588.92
3577.7
3566.25
3554.57
3542.64
3530.46
3518.02
3505.33
3492.37
3479.14
3465.64
3451.86
3437.8
3423.45
3408.8
3393.86
3378.61
3363.05
3347.17
3330.97
3314.43
3297.55
3280.33
3262.76
3244.83
3226.54
3207.87
3188.83
3169.4
3149.58
3129.35
3108.72
3087.66
3066.18
3044.26
3021.9
2999.08
2975.8
2952.05
2927.81
2903.09
2877.86
2852.12
2825.86
2799.06
2771.72
2743.82
2715.36
2686.32
2656.7
2626.47
2595.62
2564.15
2532.05
2499.29
2465.86
2431.76
2396.96
2361.46
2325.24
2288.28
2250.57
2212.1
2172.85
2132.8
2091.93
2050.24
2007.7
1964.3
1922.76
1883.52
1844.28
1805.04
1765.8
1726.56
1687.32
1648.08
1608.84
1569.6
1530.36
1491.12
1451.88
1412.64
1373.4
1334.16
1294.92
1255.68
1216.44
1177.2
1137.96
1098.72
1059.48
1020.24
981
941.76
902.52
863.28
824.04
784.8
745.56
706.32
667.08
627.84
588.6
549.36
510.12
470.88
431.64
392.4
353.16
313.92
274.68
235.44
196.2
156.96
117.72
78.48
39.24
4.11324e-07
)
;

boundaryField
{
    inandouthalf11
    {
        type            cyclic;
    }
    inandouthalf12
    {
        type            cyclic;
    }
    inandouthalf21
    {
        type            cyclic;
    }
    inandouthalf22
    {
        type            cyclic;
    }
    inandouthalf31
    {
        type            cyclic;
    }
    inandouthalf32
    {
        type            cyclic;
    }
    inandouthalf41
    {
        type            cyclic;
    }
    inandouthalf42
    {
        type            cyclic;
    }
    top
    {
        type            symmetryPlane;
    }
    walls
    {
        type            slip;
    }
    frontAndBackPlanes
    {
        type            empty;
    }
}


// ************************************************************************* //
