/*--------------------------------*- C++ -*----------------------------------*\
| =========                 |                                                 |
| \\      /  F ield         | OpenFOAM: The Open Source CFD Toolbox           |
|  \\    /   O peration     | Version:  2.4.x                                 |
|   \\  /    A nd           | Web:      www.OpenFOAM.org                      |
|    \\/     M anipulation  |                                                 |
\*---------------------------------------------------------------------------*/
FoamFile
{
    version     2.0;
    format      ascii;
    class       volTensorField;
    location    "7.5";
    object      Taus;
}
// * * * * * * * * * * * * * * * * * * * * * * * * * * * * * * * * * * * * * //

dimensions      [0 2 -2 0 0 0 0];

internalField   nonuniform List<tensor> 
360
(
(0 0.0074514 0 0.0074514 -0.205181 0 0 0 0)
(0 0.0106931 0 0.0106931 -0.258298 0 0 0 0)
(0 0.0126969 0 0.0126969 -0.26553 0 0 0 0)
(0 0.0120358 0 0.0120358 -0.259235 0 0 0 0)
(-5.84516e-18 0.0113563 0 0.0113563 -0.255966 0 0 0 0)
(-5.69051e-18 0.0110208 0 0.0110208 -0.254825 0 0 0 0)
(-1.1313e-17 0.0107325 0 0.0107325 -0.253566 0 0 0 0)
(0 0.0104133 0 0.0104133 -0.252005 0 0 0 0)
(-1.12326e-17 0.0100871 0 0.0100871 -0.250411 0 0 0 0)
(0 0.00976428 0 0.00976428 -0.2488 0 0 0 0)
(-1.10778e-17 0.00944665 0 0.00944665 -0.247178 0 0 0 0)
(0 0.00913626 0 0.00913626 -0.245573 0 0 0 0)
(-1.0907e-17 0.00883205 0 0.00883205 -0.243966 0 0 0 0)
(0 0.00853368 0 0.00853368 -0.242362 0 0 0 0)
(0 0.00824041 0 0.00824041 -0.240753 0 0 0 0)
(0 0.0079517 0 0.0079517 -0.239134 0 0 0 0)
(0 0.00766783 0 0.00766783 -0.23751 0 0 0 0)
(-1.04482e-17 0.00738921 0 0.00738921 -0.235887 0 0 0 0)
(0 0.00711547 0 0.00711547 -0.234263 0 0 0 0)
(0 0.00684614 0 0.00684614 -0.232624 0 0 0 0)
(0 0.00658219 0 0.00658219 -0.230999 0 0 0 0)
(-2.00661e-17 0.00632239 0 0.00632239 -0.229359 0 0 0 0)
(0 0.00606706 0 0.00606706 -0.227718 0 0 0 0)
(0 0.00581625 0 0.00581625 -0.226075 0 0 0 0)
(0 0.00556969 0 0.00556969 -0.224427 0 0 0 0)
(-1.92089e-17 0.00532754 0 0.00532754 -0.222776 0 0 0 0)
(0 0.00508972 0 0.00508972 -0.221128 0 0 0 0)
(0 0.00485561 0 0.00485561 -0.219467 0 0 0 0)
(0 0.00462569 0 0.00462569 -0.217806 0 0 0 0)
(0 0.00439999 0 0.00439999 -0.216146 0 0 0 0)
(0 0.00417806 0 0.00417806 -0.214483 0 0 0 0)
(0 0.00395983 0 0.00395983 -0.212805 0 0 0 0)
(0 0.00374592 0 0.00374592 -0.211148 0 0 0 0)
(0 0.00353504 0 0.00353504 -0.209458 0 0 0 0)
(0 0.00332834 0 0.00332834 -0.207788 0 0 0 0)
(3.43118e-17 0.00312518 0 0.00312518 -0.206103 0 0 0 0)
(0 0.00292578 0 0.00292578 -0.204426 0 0 0 0)
(0 0.0027296 0 0.0027296 -0.202737 0 0 0 0)
(0 0.00253688 0 0.00253688 -0.201037 0 0 0 0)
(0 0.00234814 0 0.00234814 -0.199365 0 0 0 0)
(0 0.00216217 0 0.00216217 -0.197654 0 0 0 0)
(0 0.00197981 0 0.00197981 -0.195956 0 0 0 0)
(3.17358e-17 0.00180104 0 0.00180104 -0.194271 0 0 0 0)
(0 0.00162512 0 0.00162512 -0.192554 0 0 0 0)
(0 0.00145265 0 0.00145265 -0.190855 0 0 0 0)
(0 0.00128329 0 0.00128329 -0.189145 0 0 0 0)
(0 0.00111712 0 0.00111712 -0.187426 0 0 0 0)
(0 0.000954355 0 0.000954355 -0.185732 0 0 0 0)
(0 0.000794479 0 0.000794479 -0.184015 0 0 0 0)
(0 0.000637584 0 0.000637584 -0.182281 0 0 0 0)
(1.4576e-17 0.000483898 0 0.000483898 -0.180577 0 0 0 0)
(0 0.000333119 0 0.000333119 -0.178849 0 0 0 0)
(0 0.0001853 0 0.0001853 -0.177128 0 0 0 0)
(0 4.0406e-05 0 4.0406e-05 -0.175396 0 0 0 0)
(0 -0.000101603 0 -0.000101603 -0.173681 0 0 0 0)
(0 -0.000240727 0 -0.000240727 -0.171935 0 0 0 0)
(0 -0.00037706 0 -0.00037706 -0.170217 0 0 0 0)
(0 -0.000510517 0 -0.000510517 -0.168474 0 0 0 0)
(0 -0.000641228 0 -0.000641228 -0.16674 0 0 0 0)
(0 -0.000769284 0 -0.000769284 -0.165018 0 0 0 0)
(0 -0.000894457 0 -0.000894457 -0.163263 0 0 0 0)
(0 -0.00101723 0 -0.00101723 -0.161533 0 0 0 0)
(0 -0.0011374 0 -0.0011374 -0.15978 0 0 0 0)
(0 -0.00125527 0 -0.00125527 -0.158037 0 0 0 0)
(0 -0.00137084 0 -0.00137084 -0.156289 0 0 0 0)
(0 -0.00148418 0 -0.00148418 -0.154545 0 0 0 0)
(0 -0.00159514 0 -0.00159514 -0.152792 0 0 0 0)
(0 -0.00170383 0 -0.00170383 -0.151037 0 0 0 0)
(0 -0.00181049 0 -0.00181049 -0.149286 0 0 0 0)
(0 -0.00191515 0 -0.00191515 -0.147543 0 0 0 0)
(0 -0.00201716 0 -0.00201716 -0.145778 0 0 0 0)
(0 -0.00211713 0 -0.00211713 -0.14401 0 0 0 0)
(0 -0.00221577 0 -0.00221577 -0.142264 0 0 0 0)
(0 -0.0023121 0 -0.0023121 -0.140494 0 0 0 0)
(0 -0.00240657 0 -0.00240657 -0.138731 0 0 0 0)
(0 -0.00249907 0 -0.00249907 -0.136956 0 0 0 0)
(0 -0.0025901 0 -0.0025901 -0.135193 0 0 0 0)
(0 -0.00267912 0 -0.00267912 -0.133427 0 0 0 0)
(0 -0.00276575 0 -0.00276575 -0.131656 0 0 0 0)
(0 -0.00284999 0 -0.00284999 -0.129884 0 0 0 0)
(0 -0.00293191 0 -0.00293191 -0.128116 0 0 0 0)
(0 -0.00301098 0 -0.00301098 -0.126342 0 0 0 0)
(0 -0.00308714 0 -0.00308714 -0.124565 0 0 0 0)
(0 -0.00316042 0 -0.00316042 -0.122787 0 0 0 0)
(0 -0.00323068 0 -0.00323068 -0.121006 0 0 0 0)
(0 -0.0032978 0 -0.0032978 -0.119224 0 0 0 0)
(0 -0.00336154 0 -0.00336154 -0.11744 0 0 0 0)
(0 -0.00342177 0 -0.00342177 -0.115658 0 0 0 0)
(0 -0.00347812 0 -0.00347812 -0.113875 0 0 0 0)
(0 -0.00353008 0 -0.00353008 -0.112091 0 0 0 0)
(0 -0.00357733 0 -0.00357733 -0.110306 0 0 0 0)
(0 -0.00361954 0 -0.00361954 -0.10852 0 0 0 0)
(0 -0.00365633 0 -0.00365633 -0.106732 0 0 0 0)
(0 -0.00368754 0 -0.00368754 -0.104942 0 0 0 0)
(0 -0.00371307 0 -0.00371307 -0.10315 0 0 0 0)
(0 -0.00373288 0 -0.00373288 -0.101357 0 0 0 0)
(0 -0.00374697 0 -0.00374697 -0.099562 0 0 0 0)
(0 -0.00375533 0 -0.00375533 -0.0977662 0 0 0 0)
(0 -0.00375799 0 -0.00375799 -0.0959696 0 0 0 0)
(0 -0.00375495 0 -0.00375495 -0.094172 0 0 0 0)
(0 -0.00374626 0 -0.00374626 -0.0923735 0 0 0 0)
(0 -0.00373201 0 -0.00373201 -0.0905741 0 0 0 0)
(0 -0.00371233 0 -0.00371233 -0.0887736 0 0 0 0)
(0 -0.00368742 0 -0.00368742 -0.086972 0 0 0 0)
(0 -0.00365756 0 -0.00365756 -0.0851695 0 0 0 0)
(0 -0.00362305 0 -0.00362305 -0.0833661 0 0 0 0)
(0 -0.00358428 0 -0.00358428 -0.0815619 0 0 0 0)
(0 -0.00354168 0 -0.00354168 -0.0797571 0 0 0 0)
(0 -0.00349575 0 -0.00349575 -0.0779516 0 0 0 0)
(0 -0.00344704 0 -0.00344704 -0.0761455 0 0 0 0)
(0 -0.00339621 0 -0.00339621 -0.074339 0 0 0 0)
(0 -0.00334402 0 -0.00334402 -0.0725323 0 0 0 0)
(0 -0.00329133 0 -0.00329133 -0.0707253 0 0 0 0)
(0 -0.00323912 0 -0.00323912 -0.0689185 0 0 0 0)
(0 -0.00318852 0 -0.00318852 -0.067112 0 0 0 0)
(0 -0.00314078 0 -0.00314078 -0.0653061 0 0 0 0)
(0 -0.0030973 0 -0.0030973 -0.0635011 0 0 0 0)
(0 -0.00305959 0 -0.00305959 -0.0616972 0 0 0 0)
(0 -0.00302923 0 -0.00302923 -0.0598947 0 0 0 0)
(0 -0.0030078 0 -0.0030078 -0.058094 0 0 0 0)
(0 -0.00299681 0 -0.00299681 -0.0562952 0 0 0 0)
(0 -0.0029976 0 -0.0029976 -0.0544988 0 0 0 0)
(0 -0.00301122 0 -0.00301122 -0.0527049 0 0 0 0)
(0 -0.00303836 0 -0.00303836 -0.0509141 0 0 0 0)
(0 -0.00307921 0 -0.00307921 -0.0491264 0 0 0 0)
(0 -0.00313347 0 -0.00313347 -0.0473417 0 0 0 0)
(0 -0.00320023 0 -0.00320023 -0.0455595 0 0 0 0)
(0 -0.00327796 0 -0.00327796 -0.0437783 0 0 0 0)
(0 -0.00336473 0 -0.00336473 -0.0419968 0 0 0 0)
(0 -0.00345852 0 -0.00345852 -0.0402146 0 0 0 0)
(0 -0.0035577 0 -0.0035577 -0.0384338 0 0 0 0)
(0 -0.00366088 0 -0.00366088 -0.0366568 0 0 0 0)
(0 -0.00376559 0 -0.00376559 -0.0348809 0 0 0 0)
(0 -0.00386749 0 -0.00386749 -0.0330956 0 0 0 0)
(0 -0.003964 0 -0.003964 -0.0312929 0 0 0 0)
(0 -0.00406032 0 -0.00406032 -0.0294827 0 0 0 0)
(0 -0.00416533 0 -0.00416533 -0.0276786 0 0 0 0)
(0 -0.00427301 0 -0.00427301 -0.0258634 0 0 0 0)
(0 -0.00434854 0 -0.00434854 -0.023983 0 0 0 0)
(0 -0.00436251 0 -0.00436251 -0.0220028 0 0 0 0)
(0 -0.00436356 0 -0.00436356 -0.0200224 0 0 0 0)
(0 -0.00440597 0 -0.00440597 -0.0182262 0 0 0 0)
(0 -0.00432723 0 -0.00432723 -0.0163168 0 0 0 0)
(0 -0.00398175 0 -0.00398175 -0.0142908 0 0 0 0)
(0 -0.00309808 0 -0.00309808 -0.0125029 0 0 0 0)
(0 0.00122715 0 0.00122715 -0.00991641 0 0 0 0)
(0 0.00227938 0 0.00227938 -0.00335093 0 0 0 0)
(0 0.00274794 0 0.00274794 -0.00140917 0 0 0 0)
(0 0.00193269 0 0.00193269 -1.20422e-05 0 0 0 0)
(0 0.00108117 0 0.00108117 9.06278e-06 0 0 0 0)
(0 0.000945937 0 0.000945937 7.44694e-06 0 0 0 0)
(0 0.00219316 0 0.00219316 -2.8782e-05 0 0 0 0)
(0 0.00236339 0 0.00236339 -0.000220821 0 0 0 0)
(0 0.00236618 0 0.00236618 -0.000467222 0 0 0 0)
(0 0.00215548 0 0.00215548 -0.000672511 0 0 0 0)
(0 0.00176647 0 0.00176647 -0.000802278 0 0 0 0)
(0 0.00124547 0 0.00124547 -0.000886145 0 0 0 0)
(0 0.00061161 0 0.00061161 -0.000966042 0 0 0 0)
(0 -0.000121146 0 -0.000121146 -0.00102769 0 0 0 0)
(0 -0.000968503 0 -0.000968503 -0.00108383 0 0 0 0)
(0 -0.00193849 0 -0.00193849 -0.00114293 0 0 0 0)
(0 -0.00300768 0 -0.00300768 -0.00116272 0 0 0 0)
(0 -0.00418486 0 -0.00418486 -0.0011586 0 0 0 0)
(0 -0.00546863 0 -0.00546863 -0.00112786 0 0 0 0)
(0 -0.00685738 0 -0.00685738 -0.00107224 0 0 0 0)
(0 -0.00834939 0 -0.00834939 -0.000994334 0 0 0 0)
(0 -0.00994307 0 -0.00994307 -0.000897625 0 0 0 0)
(0 -0.0116369 0 -0.0116369 -0.000786042 0 0 0 0)
(0 -0.0134294 0 -0.0134294 -0.000663699 0 0 0 0)
(0 -0.0153193 0 -0.0153193 -0.00053467 0 0 0 0)
(0 -0.0173052 0 -0.0173052 -0.000402827 0 0 0 0)
(0 -0.0193856 0 -0.0193856 -0.000271703 0 0 0 0)
(0 -0.0215588 0 -0.0215588 -0.000144392 0 0 0 0)
(0 -0.0238227 0 -0.0238227 -2.34679e-05 0 0 0 0)
(0 -0.0261749 0 -0.0261749 8.90729e-05 0 0 0 0)
(0 -0.0286124 0 -0.0286124 0.000191852 0 0 0 0)
(0 -0.0311313 0 -0.0311313 0.000284135 0 0 0 0)
(0 -0.0337269 0 -0.0337269 0.000365835 0 0 0 0)
(0 -0.0363939 0 -0.0363939 0.000437512 0 0 0 0)
(0 -0.0391256 0 -0.0391256 0.000500345 0 0 0 0)
(0 -0.0419144 0 -0.0419144 0.000556107 0 0 0 0)
(0 -0.0447516 0 -0.0447516 0.000607111 0 0 0 0)
(0 -0.0476272 0 -0.0476272 0.000656157 0 0 0 0)
(0 -0.0505304 0 -0.0505304 0.000706462 0 0 0 0)
(0 -0.0534489 0 -0.0534489 0.000761585 0 0 0 0)
(0 -0.0563696 0 -0.0563696 0.000825337 0 0 0 0)
(0 -0.0592784 0 -0.0592784 0.00090169 0 0 0 0)
(0 -0.0621604 0 -0.0621604 0.000994685 0 0 0 0)
(0 -0.065 0 -0.065 0.00110835 0 0 0 0)
(0 -0.067781 0 -0.067781 0.00124664 0 0 0 0)
(0 -0.0704865 0 -0.0704865 0.00141347 0 0 0 0)
(0 -0.0730992 0 -0.0730992 0.00161275 0 0 0 0)
(0 -0.0756009 0 -0.0756009 0.00184845 0 0 0 0)
(0 -0.0779726 0 -0.0779726 0.00212461 0 0 0 0)
(0 -0.080195 0 -0.080195 0.00244521 0 0 0 0)
(0 -0.0822485 0 -0.0822485 0.00281399 0 0 0 0)
(0 -0.0841135 0 -0.0841135 0.00323424 0 0 0 0)
(0 -0.0857708 0 -0.0857708 0.00370872 0 0 0 0)
(0 -0.0872017 0 -0.0872017 0.00423961 0 0 0 0)
(0 -0.0883885 0 -0.0883885 0.00482808 0 0 0 0)
(0 -0.0893306 0 -0.0893306 0.00547388 0 0 0 0)
(0 -0.0901295 0 -0.0901295 0.00618219 0 0 0 0)
(-7.52613e-16 -0.0908991 0 -0.0908991 0.00696035 0 0 0 0)
(0 -0.09167 0 -0.09167 0.00781133 0 0 0 0)
(0 -0.0924553 0 -0.0924553 0.00873699 0 0 0 0)
(8.51882e-16 -0.0932735 0 -0.0932735 0.00973549 0 0 0 0)
(0 -0.0941417 0 -0.0941417 0.0107983 0 0 0 0)
(-9.32255e-16 -0.0950763 0 -0.0950763 0.0119087 0 0 0 0)
(0 -0.0960827 0 -0.0960827 0.0130415 0 0 0 0)
(1.02563e-15 -0.0971618 0 -0.0971618 0.0141664 0 0 0 0)
(0 -0.0983029 0 -0.0983029 0.0152531 0 0 0 0)
(0 -0.0994902 0 -0.0994902 0.0162743 0 0 0 0)
(0 -0.100708 0 -0.100708 0.0172082 0 0 0 0)
(1.24528e-15 -0.101912 0 -0.101912 0.0180431 0 0 0 0)
(0 -0.103032 0 -0.103032 0.0187741 0 0 0 0)
(0 -0.104026 0 -0.104026 0.0193962 0 0 0 0)
(0 -0.104852 0 -0.104852 0.0199061 0 0 0 0)
(0 -0.10543 0 -0.10543 0.020308 0 0 0 0)
(0 -0.105693 0 -0.105693 0.02061 0 0 0 0)
(-1.53918e-15 -0.105609 0 -0.105609 0.0208106 0 0 0 0)
(0 -0.105178 0 -0.105178 0.0209023 0 0 0 0)
(-1.58354e-15 -0.104356 0 -0.104356 0.0208902 0 0 0 0)
(0 -0.103078 0 -0.103078 0.020783 0 0 0 0)
(-1.58818e-15 -0.10136 0 -0.10136 0.0205741 0 0 0 0)
(0 -0.099187 0 -0.099187 0.0202567 0 0 0 0)
(0 -0.0964917 0 -0.0964917 0.0198402 0 0 0 0)
(0 -0.0932372 0 -0.0932372 0.019323 0 0 0 0)
(0 -0.0893818 0 -0.0893818 0.0186985 0 0 0 0)
(1.427e-15 -0.0848665 0 -0.0848665 0.0179455 0 0 0 0)
(1.36731e-15 -0.0795839 0 -0.0795839 0.0170733 0 0 0 0)
(0 -0.0734313 0 -0.0734313 0.016026 0 0 0 0)
(0 -0.0662818 0 -0.0662818 0.0147935 0 0 0 0)
(0 -0.0577884 0 -0.0577884 0.0133081 0 0 0 0)
(0 -0.0470533 0 -0.0470533 0.0123149 0 0 0 0)
(0 -0.033952 0 -0.033952 0.0114501 0 0 0 0)
(0 -0.0258769 0 -0.0258769 0.00939227 0 0 0 0)
(0 -0 0 -0 0 0 0 0 0)
(0 -0 0 -0 0 0 0 0 0)
(0 -0 0 -0 0 0 0 0 0)
(0 -0 0 -0 -0 0 0 0 0)
(0 -0 0 -0 0 0 0 0 0)
(0 -0 0 -0 0 0 0 0 0)
(0 -0 0 -0 -0 0 0 0 0)
(0 -0 0 -0 -0 0 0 0 0)
(-0 -0 0 -0 -0 0 0 0 0)
(0 -0 0 -0 0 0 0 0 0)
(0 -0 0 -0 0 0 0 0 0)
(0 -0 0 -0 0 0 0 0 0)
(0 -0 0 -0 0 0 0 0 0)
(0 -0 0 -0 0 0 0 0 0)
(0 0 0 0 0 0 0 0 0)
(0 0 0 0 0 0 0 0 0)
(0 0 0 0 0 0 0 0 0)
(0 0 0 0 0 0 0 0 0)
(0 0 0 0 0 0 0 0 0)
(0 0 0 0 0 0 0 0 0)
(0 0 0 0 0 0 0 0 0)
(0 0 0 0 0 0 0 0 0)
(0 0 0 0 0 0 0 0 0)
(0 0 0 0 0 0 0 0 0)
(0 0 0 0 0 0 0 0 0)
(0 0 0 0 0 0 0 0 0)
(0 0 0 0 0 0 0 0 0)
(0 0 0 0 0 0 0 0 0)
(0 0 0 0 0 0 0 0 0)
(0 0 0 0 -0 0 0 0 0)
(0 0 0 0 -0 0 0 0 0)
(0 0 0 0 0 0 0 0 0)
(0 0 0 0 -0 0 0 0 0)
(0 0 0 0 0 0 0 0 0)
(0 0 0 0 -0 0 0 0 0)
(0 0 0 0 0 0 0 0 0)
(0 0 0 0 -0 0 0 0 0)
(0 0 0 0 -0 0 0 0 0)
(0 0 0 0 0 0 0 0 0)
(0 0 0 0 0 0 0 0 0)
(0 0 0 0 -0 0 0 0 0)
(0 0 0 0 0 0 0 0 0)
(0 0 0 0 -0 0 0 0 0)
(0 0 0 0 0 0 0 0 0)
(0 0 0 0 -0 0 0 0 0)
(0 0 0 0 0 0 0 0 0)
(0 0 0 0 -0 0 0 0 0)
(0 0 0 0 0 0 0 0 0)
(0 0 0 0 -0 0 0 0 0)
(0 0 0 0 0 0 0 0 0)
(-0 0 0 0 -0 0 0 0 0)
(0 0 0 0 0 0 0 0 0)
(0 0 0 0 -0 0 0 0 0)
(0 0 0 0 0 0 0 0 0)
(0 -0 0 -0 -0 0 0 0 0)
(0 0 0 0 0 0 0 0 0)
(0 -0 0 -0 -0 0 0 0 0)
(0 0 0 0 0 0 0 0 0)
(0 -0 0 -0 -0 0 0 0 0)
(0 0 0 0 0 0 0 0 0)
(-0 -0 0 -0 -0 0 0 0 0)
(0 0 0 0 0 0 0 0 0)
(0 -0 0 -0 -0 0 0 0 0)
(0 0 0 0 0 0 0 0 0)
(0 -0 0 -0 -0 0 0 0 0)
(0 0 0 0 0 0 0 0 0)
(0 -0 0 -0 -0 0 0 0 0)
(0 0 0 0 0 0 0 0 0)
(0 -0 0 -0 -0 0 0 0 0)
(0 0 0 0 0 0 0 0 0)
(0 -0 0 -0 -0 0 0 0 0)
(0 0 0 0 0 0 0 0 0)
(0 -0 0 -0 -0 0 0 0 0)
(0 0 0 0 0 0 0 0 0)
(0 -0 0 -0 -0 0 0 0 0)
(0 0 0 0 0 0 0 0 0)
(0 -0 0 -0 -0 0 0 0 0)
(0 0 0 0 0 0 0 0 0)
(0 -0 0 -0 -0 0 0 0 0)
(0 0 0 0 0 0 0 0 0)
(0 -0 0 -0 -0 0 0 0 0)
(0 0 0 0 0 0 0 0 0)
(0 -0 0 -0 -0 0 0 0 0)
(0 0 0 0 0 0 0 0 0)
(0 -0 0 -0 -0 0 0 0 0)
(0 0 0 0 0 0 0 0 0)
(0 -0 0 -0 -0 0 0 0 0)
(0 0 0 0 0 0 0 0 0)
(0 -0 0 -0 -0 0 0 0 0)
(0 0 0 0 0 0 0 0 0)
(0 -0 0 -0 -0 0 0 0 0)
(0 0 0 0 0 0 0 0 0)
(0 -0 0 -0 -0 0 0 0 0)
(0 0 0 0 0 0 0 0 0)
(0 -0 0 -0 -0 0 0 0 0)
(0 0 0 0 0 0 0 0 0)
(0 -0 0 -0 -0 0 0 0 0)
(0 0 0 0 0 0 0 0 0)
(0 -0 0 -0 -0 0 0 0 0)
(0 0 0 0 0 0 0 0 0)
(0 -0 0 -0 -0 0 0 0 0)
(0 0 0 0 0 0 0 0 0)
(0 -0 0 -0 -0 0 0 0 0)
(0 0 0 0 0 0 0 0 0)
(0 -0 0 -0 -0 0 0 0 0)
(0 0 0 0 0 0 0 0 0)
(0 -0 0 -0 -0 0 0 0 0)
(0 0 0 0 0 0 0 0 0)
(0 -0 0 -0 -0 0 0 0 0)
(0 0 0 0 0 0 0 0 0)
(0 -0 0 -0 -0 0 0 0 0)
(0 0 0 0 0 0 0 0 0)
(0 -0 0 -0 -0 0 0 0 0)
(0 0 0 0 0 0 0 0 0)
(0 -0 0 -0 -0 0 0 0 0)
(0 0 0 0 0 0 0 0 0)
(0 -0 0 -0 -0 0 0 0 0)
(0 -0 0 -0 0 0 0 0 0)
(0 -0 0 -0 0 0 0 0 0)
(0 -0 0 -0 0 0 0 0 0)
(0 -0 0 -0 0 0 0 0 0)
(0 -0 0 -0 0 0 0 0 0)
(0 -0 0 -0 0 0 0 0 0)
(0 -0 0 -0 0 0 0 0 0)
)
;

boundaryField
{
    inandouthalf11
    {
        type            cyclic;
    }
    inandouthalf12
    {
        type            cyclic;
    }
    inandouthalf21
    {
        type            cyclic;
    }
    inandouthalf22
    {
        type            cyclic;
    }
    inandouthalf31
    {
        type            cyclic;
    }
    inandouthalf32
    {
        type            cyclic;
    }
    inandouthalf41
    {
        type            cyclic;
    }
    inandouthalf42
    {
        type            cyclic;
    }
    top
    {
        type            symmetryPlane;
    }
    walls
    {
        type            zeroGradient;
    }
    frontAndBackPlanes
    {
        type            empty;
    }
}


// ************************************************************************* //
