/*--------------------------------*- C++ -*----------------------------------*\
| =========                 |                                                 |
| \\      /  F ield         | OpenFOAM: The Open Source CFD Toolbox           |
|  \\    /   O peration     | Version:  2.4.x                                 |
|   \\  /    A nd           | Web:      www.OpenFOAM.org                      |
|    \\/     M anipulation  |                                                 |
\*---------------------------------------------------------------------------*/
FoamFile
{
    version     2.0;
    format      ascii;
    class       volScalarField;
    location    "7.5";
    object      Theta;
}
// * * * * * * * * * * * * * * * * * * * * * * * * * * * * * * * * * * * * * //

dimensions      [0 2 -2 0 0 0 0];

internalField   nonuniform List<scalar> 
360
(
6.66264e-21
6.66546e-21
6.66414e-21
6.6638e-21
6.66398e-21
6.6641e-21
6.6641e-21
6.66408e-21
6.66407e-21
6.66407e-21
6.66408e-21
6.66408e-21
6.66409e-21
6.66409e-21
6.6641e-21
6.66411e-21
6.66412e-21
6.66413e-21
6.66415e-21
6.66416e-21
6.66418e-21
6.6642e-21
6.66422e-21
6.66424e-21
6.66426e-21
6.66428e-21
6.6643e-21
6.66432e-21
6.66434e-21
6.66436e-21
6.66438e-21
6.6644e-21
6.66442e-21
6.66444e-21
6.66446e-21
6.66448e-21
6.66449e-21
6.66451e-21
6.66453e-21
6.66454e-21
6.66456e-21
6.66457e-21
6.66459e-21
6.6646e-21
6.66461e-21
6.66462e-21
6.66463e-21
6.66464e-21
6.66464e-21
6.66465e-21
6.66465e-21
6.66466e-21
6.66466e-21
6.66466e-21
6.66466e-21
6.66466e-21
6.66465e-21
6.66465e-21
6.66464e-21
6.66463e-21
6.66462e-21
6.66462e-21
6.66461e-21
6.6646e-21
6.6646e-21
6.66459e-21
6.66457e-21
6.66456e-21
6.66455e-21
6.66453e-21
6.66452e-21
6.6645e-21
6.66449e-21
6.66447e-21
6.66445e-21
6.66443e-21
6.66441e-21
6.66437e-21
6.66434e-21
6.66429e-21
6.66424e-21
6.66419e-21
6.66414e-21
6.66408e-21
6.66402e-21
6.66395e-21
6.66388e-21
6.6638e-21
6.66371e-21
6.66362e-21
6.66353e-21
6.66343e-21
6.66334e-21
6.66324e-21
6.66315e-21
6.66306e-21
6.66297e-21
6.66288e-21
6.6628e-21
6.66272e-21
6.66264e-21
6.66257e-21
6.6625e-21
6.66243e-21
6.66237e-21
6.66231e-21
6.66225e-21
6.6622e-21
6.66215e-21
6.66211e-21
6.66207e-21
6.66203e-21
6.662e-21
6.66197e-21
6.66194e-21
6.66192e-21
6.6619e-21
6.66188e-21
6.66187e-21
6.66187e-21
6.66187e-21
6.66187e-21
6.66188e-21
6.66189e-21
6.66189e-21
6.6619e-21
6.66191e-21
6.66191e-21
6.66189e-21
6.66187e-21
6.66183e-21
6.66178e-21
6.66172e-21
9.38546e-21
3.39473e-20
1.44158e-19
6.55296e-19
3.13587e-18
1.53672e-17
7.46446e-17
3.51001e-16
1.61813e-15
8.27808e-15
6.00524e-14
7.05458e-13
1.24617e-11
3.19902e-10
2.53741e-08
2.21944e-06
5.55788e-05
0.000503786
0.00112192
0.00124378
0.00131296
0.00138345
0.00146002
0.00154113
0.00162477
0.00170933
0.00179362
0.00187679
0.00195818
0.00203734
0.00211389
0.00218758
0.00225819
0.00232557
0.0023896
0.0024502
0.00250731
0.00256089
0.00261093
0.00265743
0.0027004
0.00273987
0.00277589
0.00280849
0.00283773
0.00286369
0.00288642
0.002906
0.00292253
0.00293607
0.00294672
0.00295457
0.00295972
0.00296225
0.00296227
0.00295987
0.00295516
0.00294822
0.00293916
0.00292807
0.00291505
0.00290021
0.00288362
0.0028654
0.00284562
0.00282437
0.00280175
0.00277784
0.00275247
0.00272539
0.0026966
0.0026661
0.00263388
0.00259993
0.00256423
0.00252676
0.0024875
0.00244642
0.00240348
0.00235863
0.00231182
0.002263
0.00221209
0.00215902
0.0021037
0.00204603
0.00198588
0.00192313
0.00185762
0.00178917
0.00171756
0.00164256
0.00156386
0.00148112
0.0013939
0.00130168
0.00120377
0.00109927
0.00098695
0.000865045
0.000730778
0.000579275
0.000399906
0
0
0
0
0
0
0
0
0
0
0
0
0
0
0
0
0
0
0
0
0
0
0
0
0
0
0
0
0
0
0
0
0
0
0
0
0
0
0
0
0
0
0
0
0
0
0
0
0
0
0
0
0
0
0
0
0
0
0
0
0
0
0
0
0
0
0
0
0
0
0
0
0
0
0
0
0
0
0
0
0
0
0
0
0
0
0
0
0
0
0
0
0
0
0
0
0
0
0
0
0
0
0
0
0
0
0
0
0
0
0
0
0
0
0
0
0
0
0
0
0
0
0
0
)
;

boundaryField
{
    inandouthalf11
    {
        type            cyclic;
    }
    inandouthalf12
    {
        type            cyclic;
    }
    inandouthalf21
    {
        type            cyclic;
    }
    inandouthalf22
    {
        type            cyclic;
    }
    inandouthalf31
    {
        type            cyclic;
    }
    inandouthalf32
    {
        type            cyclic;
    }
    inandouthalf41
    {
        type            cyclic;
    }
    inandouthalf42
    {
        type            cyclic;
    }
    top
    {
        type            symmetryPlane;
    }
    walls
    {
        type            zeroGradient;
    }
    frontAndBackPlanes
    {
        type            empty;
    }
}


// ************************************************************************* //
