/*--------------------------------*- C++ -*----------------------------------*\
| =========                 |                                                 |
| \\      /  F ield         | OpenFOAM: The Open Source CFD Toolbox           |
|  \\    /   O peration     | Version:  2.4.x                                 |
|   \\  /    A nd           | Web:      www.OpenFOAM.org                      |
|    \\/     M anipulation  |                                                 |
\*---------------------------------------------------------------------------*/
FoamFile
{
    version     2.0;
    format      ascii;
    class       volScalarField;
    location    "7.5";
    object      Theta_0;
}
// * * * * * * * * * * * * * * * * * * * * * * * * * * * * * * * * * * * * * //

dimensions      [0 2 -2 0 0 0 0];

internalField   nonuniform List<scalar> 
360
(
6.66264e-21
6.66546e-21
6.66414e-21
6.6638e-21
6.66398e-21
6.6641e-21
6.6641e-21
6.66408e-21
6.66407e-21
6.66407e-21
6.66408e-21
6.66408e-21
6.66409e-21
6.66409e-21
6.6641e-21
6.66411e-21
6.66412e-21
6.66413e-21
6.66415e-21
6.66416e-21
6.66418e-21
6.6642e-21
6.66422e-21
6.66424e-21
6.66426e-21
6.66428e-21
6.6643e-21
6.66432e-21
6.66434e-21
6.66436e-21
6.66438e-21
6.6644e-21
6.66442e-21
6.66444e-21
6.66446e-21
6.66448e-21
6.66449e-21
6.66451e-21
6.66453e-21
6.66454e-21
6.66456e-21
6.66457e-21
6.66459e-21
6.6646e-21
6.66461e-21
6.66462e-21
6.66463e-21
6.66464e-21
6.66464e-21
6.66465e-21
6.66465e-21
6.66466e-21
6.66466e-21
6.66466e-21
6.66466e-21
6.66466e-21
6.66465e-21
6.66465e-21
6.66464e-21
6.66463e-21
6.66462e-21
6.66462e-21
6.66461e-21
6.6646e-21
6.6646e-21
6.66459e-21
6.66458e-21
6.66456e-21
6.66455e-21
6.66453e-21
6.66452e-21
6.6645e-21
6.66449e-21
6.66447e-21
6.66445e-21
6.66443e-21
6.66441e-21
6.66437e-21
6.66434e-21
6.66429e-21
6.66424e-21
6.66419e-21
6.66414e-21
6.66408e-21
6.66402e-21
6.66395e-21
6.66388e-21
6.6638e-21
6.66371e-21
6.66362e-21
6.66353e-21
6.66343e-21
6.66334e-21
6.66324e-21
6.66315e-21
6.66306e-21
6.66297e-21
6.66288e-21
6.6628e-21
6.66272e-21
6.66264e-21
6.66257e-21
6.6625e-21
6.66243e-21
6.66237e-21
6.66231e-21
6.66225e-21
6.6622e-21
6.66216e-21
6.66211e-21
6.66207e-21
6.66203e-21
6.662e-21
6.66197e-21
6.66194e-21
6.66192e-21
6.6619e-21
6.66188e-21
6.66187e-21
6.66187e-21
6.66187e-21
6.66187e-21
6.66188e-21
6.66189e-21
6.6619e-21
6.6619e-21
6.66191e-21
6.66191e-21
6.6619e-21
6.66187e-21
6.66183e-21
6.66178e-21
6.66172e-21
9.38768e-21
3.39558e-20
1.44189e-19
6.55454e-19
3.13711e-18
1.53782e-17
7.47346e-17
3.51642e-16
1.62211e-15
8.30082e-15
6.0189e-14
7.06466e-13
1.24705e-11
3.19892e-10
2.53302e-08
2.21573e-06
5.55014e-05
0.000503287
0.00112098
0.00124294
0.00131233
0.001383
0.00145973
0.00154097
0.00162473
0.00170938
0.00179376
0.00187699
0.00195845
0.00203766
0.00211426
0.00218799
0.00225863
0.00232605
0.00239011
0.00245073
0.00250786
0.00256146
0.00261151
0.00265802
0.00270101
0.00274049
0.00277651
0.00280911
0.00283836
0.00286432
0.00288705
0.00290664
0.00292316
0.0029367
0.00294735
0.0029552
0.00296034
0.00296287
0.00296288
0.00296048
0.00295576
0.00294881
0.00293975
0.00292865
0.00291563
0.00290078
0.00288419
0.00286596
0.00284617
0.00282492
0.00280229
0.00277838
0.00275299
0.00272591
0.00269711
0.00266661
0.00263438
0.00260042
0.00256471
0.00252723
0.00248797
0.00244688
0.00240392
0.00235907
0.00231225
0.00226342
0.0022125
0.00215942
0.00210409
0.0020464
0.00198625
0.00192348
0.00185796
0.00178949
0.00171787
0.00164285
0.00156414
0.00148139
0.00139416
0.00130192
0.00120399
0.00109947
0.000987129
0.000865202
0.000730911
0.00057938
0.000399978
0
0
0
0
0
0
0
0
0
0
0
0
0
0
0
0
0
0
0
0
0
0
0
0
0
0
0
0
0
0
0
0
0
0
0
0
0
0
0
0
0
0
0
0
0
0
0
0
0
0
0
0
0
0
0
0
0
0
0
0
0
0
0
0
0
0
0
0
0
0
0
0
0
0
0
0
0
0
0
0
0
0
0
0
0
0
0
0
0
0
0
0
0
0
0
0
0
0
0
0
0
0
0
0
0
0
0
0
0
0
0
0
0
0
0
0
0
0
0
0
0
0
0
0
)
;

boundaryField
{
    inandouthalf11
    {
        type            cyclic;
    }
    inandouthalf12
    {
        type            cyclic;
    }
    inandouthalf21
    {
        type            cyclic;
    }
    inandouthalf22
    {
        type            cyclic;
    }
    inandouthalf31
    {
        type            cyclic;
    }
    inandouthalf32
    {
        type            cyclic;
    }
    inandouthalf41
    {
        type            cyclic;
    }
    inandouthalf42
    {
        type            cyclic;
    }
    top
    {
        type            symmetryPlane;
    }
    walls
    {
        type            zeroGradient;
    }
    frontAndBackPlanes
    {
        type            empty;
    }
}


// ************************************************************************* //
