/*--------------------------------*- C++ -*----------------------------------*\
| =========                 |                                                 |
| \\      /  F ield         | OpenFOAM: The Open Source CFD Toolbox           |
|  \\    /   O peration     | Version:  2.4.x                                 |
|   \\  /    A nd           | Web:      www.OpenFOAM.org                      |
|    \\/     M anipulation  |                                                 |
\*---------------------------------------------------------------------------*/
FoamFile
{
    version     2.0;
    format      ascii;
    class       volVectorField;
    location    "7.5";
    object      U;
}
// * * * * * * * * * * * * * * * * * * * * * * * * * * * * * * * * * * * * * //

dimensions      [0 1 -1 0 0 0 0];

internalField   nonuniform List<vector> 
360
(
(9.92472e-05 1.56305e-08 0)
(9.85318e-05 -3.12286e-09 0)
(9.84307e-05 -2.99291e-09 0)
(9.85287e-05 -3.9967e-11 0)
(9.85842e-05 4.97292e-10 0)
(9.8608e-05 1.19906e-10 0)
(9.86334e-05 -5.17152e-11 0)
(9.86633e-05 -4.33727e-11 0)
(9.86938e-05 -1.50783e-11 0)
(9.87245e-05 2.33731e-12 0)
(9.87554e-05 1.00346e-11 0)
(9.87861e-05 9.50741e-12 0)
(9.88169e-05 8.19022e-12 0)
(9.88476e-05 8.99568e-12 0)
(9.88785e-05 1.2914e-11 0)
(9.89095e-05 1.8253e-11 0)
(9.89407e-05 2.24337e-11 0)
(9.8972e-05 2.54972e-11 0)
(9.90033e-05 2.76384e-11 0)
(9.9035e-05 3.04373e-11 0)
(9.90665e-05 3.08594e-11 0)
(9.90984e-05 3.36045e-11 0)
(9.91303e-05 3.53158e-11 0)
(9.91624e-05 3.59201e-11 0)
(9.91947e-05 3.62736e-11 0)
(9.92271e-05 3.64975e-11 0)
(9.92596e-05 3.63786e-11 0)
(9.92924e-05 3.77292e-11 0)
(9.93254e-05 3.67176e-11 0)
(9.93584e-05 3.57506e-11 0)
(9.93917e-05 3.44613e-11 0)
(9.94253e-05 3.62438e-11 0)
(9.94587e-05 3.17543e-11 0)
(9.94929e-05 3.54613e-11 0)
(9.95268e-05 3.04418e-11 0)
(9.95612e-05 3.03626e-11 0)
(9.95956e-05 2.89149e-11 0)
(9.96304e-05 2.82293e-11 0)
(9.96656e-05 2.94829e-11 0)
(9.97004e-05 2.15582e-11 0)
(9.97361e-05 2.52702e-11 0)
(9.97718e-05 2.23836e-11 0)
(9.98074e-05 1.56921e-11 0)
(9.98439e-05 2.08303e-11 0)
(9.98803e-05 1.56701e-11 0)
(9.9917e-05 1.18898e-11 0)
(9.99542e-05 1.08389e-11 0)
(9.99911e-05 3.29422e-12 0)
(0.000100029 5.45504e-12 0)
(0.000100067 1.00132e-11 0)
(0.000100105 -1.96594e-12 0)
(0.000100144 4.91271e-13 0)
(0.000100182 -4.273e-12 0)
(0.000100222 -2.92018e-12 0)
(0.000100261 -1.28953e-11 0)
(0.000100301 -6.54239e-12 0)
(0.000100341 -1.87993e-11 0)
(0.000100382 -1.72766e-11 0)
(0.000100423 -1.97328e-11 0)
(0.000100464 -2.75242e-11 0)
(0.000100506 -1.34406e-11 0)
(0.000100548 -2.17331e-11 0)
(0.000100591 -1.54858e-11 0)
(0.000100634 -2.13411e-11 0)
(0.000100677 -2.29142e-11 0)
(0.000100721 -2.8477e-11 0)
(0.000100766 -2.98191e-11 0)
(0.000100811 -3.40984e-11 0)
(0.000100856 -3.71855e-11 0)
(0.000100902 -4.27836e-11 0)
(0.000100949 -3.53561e-11 0)
(0.000100996 -3.08007e-11 0)
(0.000101044 -4.53744e-11 0)
(0.000101092 -3.70353e-11 0)
(0.000101141 -4.59418e-11 0)
(0.000101191 -4.92975e-11 0)
(0.000101242 -6.73773e-11 0)
(0.000101293 -7.93758e-11 0)
(0.000101344 -8.98213e-11 0)
(0.000101397 -9.91622e-11 0)
(0.00010145 -1.11755e-10 0)
(0.000101504 -1.17728e-10 0)
(0.000101559 -1.23589e-10 0)
(0.000101615 -1.32462e-10 0)
(0.000101672 -1.41628e-10 0)
(0.00010173 -1.55006e-10 0)
(0.000101788 -1.68693e-10 0)
(0.000101848 -1.85806e-10 0)
(0.000101909 -2.0228e-10 0)
(0.000101971 -2.1584e-10 0)
(0.000102034 -2.26987e-10 0)
(0.000102098 -2.35508e-10 0)
(0.000102163 -2.39804e-10 0)
(0.00010223 -2.42128e-10 0)
(0.000102299 -2.43167e-10 0)
(0.000102369 -2.43287e-10 0)
(0.00010244 -2.42935e-10 0)
(0.000102513 -2.42315e-10 0)
(0.000102588 -2.4121e-10 0)
(0.000102664 -2.39249e-10 0)
(0.000102742 -2.36501e-10 0)
(0.000102822 -2.32909e-10 0)
(0.000102904 -2.28445e-10 0)
(0.000102989 -2.23401e-10 0)
(0.000103075 -2.17965e-10 0)
(0.000103163 -2.12186e-10 0)
(0.000103254 -2.06128e-10 0)
(0.000103348 -1.99773e-10 0)
(0.000103443 -1.93031e-10 0)
(0.000103542 -1.85812e-10 0)
(0.000103643 -1.78007e-10 0)
(0.000103748 -1.69476e-10 0)
(0.000103855 -1.60072e-10 0)
(0.000103965 -1.49636e-10 0)
(0.000104079 -1.38018e-10 0)
(0.000104196 -1.25113e-10 0)
(0.000104317 -1.10908e-10 0)
(0.000104442 -9.5528e-11 0)
(0.00010457 -7.93158e-11 0)
(0.000104703 -6.2913e-11 0)
(0.000104839 -4.734e-11 0)
(0.000104981 -3.40329e-11 0)
(0.000105127 -2.48297e-11 0)
(0.000105277 -2.18654e-11 0)
(0.000105433 -2.73604e-11 0)
(0.000105595 -4.3385e-11 0)
(0.000105762 -7.16871e-11 0)
(0.000105936 -1.13507e-10 0)
(0.000106116 -1.69004e-10 0)
(0.000106305 -2.36197e-10 0)
(0.000106501 -3.10327e-10 0)
(0.000106706 -3.85477e-10 0)
(0.00010692 -4.52637e-10 0)
(0.000107147 -4.88338e-10 0)
(0.000107389 -4.64758e-10 0)
(0.000107645 -4.05766e-10 0)
(0.000107914 -3.87989e-10 0)
(0.0001082 -4.68243e-10 0)
(0.000108518 -5.89217e-10 0)
(0.000108884 -4.94874e-10 0)
(0.00010928 -3.32856e-10 0)
(0.000109661 -2.04136e-09 0)
(0.000110125 -2.83556e-09 0)
(0.000110733 -2.62349e-09 0)
(0.000111499 -9.57559e-09 0)
(0.000112985 -3.0782e-08 0)
(0.000116424 3.74152e-07 0)
(0.000118964 4.02316e-07 0)
(0.000134671 9.44131e-07 0)
(0.00257107 -7.84525e-06 0)
(0.102698 -5.6614e-05 0)
(0.182608 1.38253e-05 0)
(0.214634 1.08748e-06 0)
(0.229069 2.5167e-06 0)
(0.235917 9.33261e-07 0)
(0.239292 3.81589e-07 0)
(0.24087 1.74106e-07 0)
(0.24139 9.57869e-08 0)
(0.241216 4.77054e-08 0)
(0.240545 4.08352e-08 0)
(0.239497 2.1439e-08 0)
(0.23815 1.47093e-08 0)
(0.236558 1.02634e-08 0)
(0.234762 7.09023e-09 0)
(0.232792 4.86032e-09 0)
(0.230674 3.32069e-09 0)
(0.228427 2.25465e-09 0)
(0.226068 1.50945e-09 0)
(0.223613 9.86933e-10 0)
(0.221074 6.21464e-10 0)
(0.218461 3.67879e-10 0)
(0.215785 1.93921e-10 0)
(0.213054 7.67664e-11 0)
(0.210275 -2.05638e-14 0)
(0.207455 -4.83331e-11 0)
(0.204601 -7.67355e-11 0)
(0.201717 -9.14716e-11 0)
(0.198808 -9.70476e-11 0)
(0.195879 -9.6737e-11 0)
(0.192934 -9.28402e-11 0)
(0.189976 -8.70138e-11 0)
(0.187008 -8.03649e-11 0)
(0.184033 -7.36565e-11 0)
(0.181055 -6.73446e-11 0)
(0.178075 -6.17176e-11 0)
(0.175095 -5.69031e-11 0)
(0.172119 -5.29722e-11 0)
(0.169146 -4.99111e-11 0)
(0.16618 -4.76701e-11 0)
(0.163222 -4.60988e-11 0)
(0.160273 -4.49875e-11 0)
(0.157335 -4.40865e-11 0)
(0.154408 -4.32766e-11 0)
(0.151494 -4.26641e-11 0)
(0.148595 -4.24968e-11 0)
(0.14571 -4.27651e-11 0)
(0.142841 -4.30009e-11 0)
(0.139989 -4.28766e-11 0)
(0.137155 -4.30499e-11 0)
(0.134338 -4.4475e-11 0)
(0.131541 -4.63909e-11 0)
(0.128734 -4.82612e-11 0)
(0.125891 -4.98196e-11 0)
(0.123012 -4.96901e-11 0)
(0.120098 -5.26928e-11 0)
(0.117148 -5.37333e-11 0)
(0.114162 -5.49437e-11 0)
(0.111143 -5.21395e-11 0)
(0.10809 -5.12239e-11 0)
(0.105003 -4.80429e-11 0)
(0.101885 -4.57768e-11 0)
(0.0987349 -4.67258e-11 0)
(0.0955548 -4.19251e-11 0)
(0.0923458 -3.29138e-11 0)
(0.089109 -3.40383e-11 0)
(0.0858459 -3.46679e-11 0)
(0.0825582 -2.6873e-11 0)
(0.0792477 -2.34001e-11 0)
(0.0759163 -2.22069e-11 0)
(0.0725662 -2.27284e-11 0)
(0.0691997 -1.83837e-11 0)
(0.0658195 -1.17286e-11 0)
(0.0624286 -1.41626e-11 0)
(0.0590299 -1.21433e-11 0)
(0.0556271 -7.77065e-12 0)
(0.052224 -7.12903e-12 0)
(0.0488248 -6.64954e-12 0)
(0.0454342 -4.15731e-12 0)
(0.0420573 -4.93582e-12 0)
(0.0386999 -1.53303e-14 0)
(0.0353684 -6.5862e-12 0)
(0.0320696 1.79196e-12 0)
(0.0288114 -5.61259e-12 0)
(0.0256023 2.22177e-11 0)
(0.022452 -2.35599e-11 0)
(0.0193711 -1.83841e-12 0)
(0.0163713 -4.7776e-12 0)
(0.0134656 3.10222e-11 0)
(0.0106686 -7.52817e-11 0)
(0.00799591 8.51602e-11 0)
(0.00546485 -7.12788e-11 0)
(0.00309397 5.49683e-11 0)
(0.000902991 4.72254e-12 0)
(-0.00108767 1.8889e-11 0)
(-0.00285752 -8.99612e-13 0)
(-0.00438702 1.7681e-13 0)
(-0.00565894 1.58825e-12 0)
(-0.00665995 1.74301e-12 0)
(-0.00738227 1.58423e-12 0)
(-0.00782509 1.43388e-12 0)
(-0.00799522 1.2429e-12 0)
(-0.00790685 1.52394e-12 0)
(-0.00758056 6.4814e-12 0)
(-0.00704204 -1.91184e-11 0)
(-0.00632113 5.02026e-11 0)
(-0.00545165 -9.22522e-11 0)
(-0.00447187 1.56046e-10 0)
(-0.00342568 -2.33004e-10 0)
(-0.00236492 3.30798e-10 0)
(-0.00135557 -4.39704e-10 0)
(-0.000489911 5.6417e-10 0)
(-5.95868e-05 -6.93828e-10 0)
(-2.66942e-06 8.31999e-10 0)
(-6.88477e-07 -9.71255e-10 0)
(-6.03635e-07 1.11656e-09 0)
(-5.71212e-07 -1.26304e-09 0)
(-5.47279e-07 1.41542e-09 0)
(-5.29234e-07 -1.56948e-09 0)
(-5.15701e-07 1.72949e-09 0)
(-5.05617e-07 -1.89161e-09 0)
(-4.98148e-07 2.05975e-09 0)
(-4.92654e-07 -2.2304e-09 0)
(-4.88639e-07 2.40712e-09 0)
(-4.85725e-07 -2.5867e-09 0)
(-4.83623e-07 2.77244e-09 0)
(-4.82118e-07 -2.96133e-09 0)
(-4.8105e-07 3.15644e-09 0)
(-4.80297e-07 -3.35499e-09 0)
(-4.79769e-07 3.5598e-09 0)
(-4.79402e-07 -3.76833e-09 0)
(-4.79148e-07 3.98313e-09 0)
(-4.78975e-07 -4.20192e-09 0)
(-4.78858e-07 4.427e-09 0)
(-4.78779e-07 -4.65629e-09 0)
(-4.78727e-07 4.89189e-09 0)
(-4.78692e-07 -5.13192e-09 0)
(-4.78669e-07 5.37826e-09 0)
(-4.78654e-07 -5.62926e-09 0)
(-4.78645e-07 5.88649e-09 0)
(-4.78639e-07 -6.14865e-09 0)
(-4.78635e-07 6.41699e-09 0)
(-4.78632e-07 -6.69045e-09 0)
(-4.78631e-07 6.97004e-09 0)
(-4.7863e-07 -7.25497e-09 0)
(-4.7863e-07 7.54593e-09 0)
(-4.78628e-07 -7.84244e-09 0)
(-4.78628e-07 8.14487e-09 0)
(-4.78629e-07 -8.45301e-09 0)
(-4.78629e-07 8.76712e-09 0)
(-4.78629e-07 -9.08692e-09 0)
(-4.78628e-07 9.41271e-09 0)
(-4.78628e-07 -9.74423e-09 0)
(-4.78628e-07 1.00817e-08 0)
(-4.78629e-07 -1.04249e-08 0)
(-4.78629e-07 1.07741e-08 0)
(-4.78628e-07 -1.1129e-08 0)
(-4.78628e-07 1.14898e-08 0)
(-4.78629e-07 -1.18561e-08 0)
(-4.78628e-07 1.22284e-08 0)
(-4.78628e-07 -1.26061e-08 0)
(-4.78628e-07 1.14036e-08 0)
(-4.78629e-07 -1.15285e-08 0)
(-4.78629e-07 1.16522e-08 0)
(-4.78628e-07 -1.17745e-08 0)
(-4.78629e-07 1.18956e-08 0)
(-4.78628e-07 -1.20152e-08 0)
(-4.78628e-07 1.21336e-08 0)
(-4.78629e-07 -1.22504e-08 0)
(-4.78628e-07 1.23661e-08 0)
(-4.78628e-07 -1.24801e-08 0)
(-4.78629e-07 1.25929e-08 0)
(-4.78629e-07 -1.27041e-08 0)
(-4.78629e-07 1.2814e-08 0)
(-4.78628e-07 -1.29222e-08 0)
(-4.78629e-07 1.30292e-08 0)
(-4.78628e-07 -1.31343e-08 0)
(-4.78629e-07 1.32383e-08 0)
(-4.78629e-07 -1.33404e-08 0)
(-4.78628e-07 1.34411e-08 0)
(-4.78629e-07 -1.35397e-08 0)
(-4.78628e-07 1.36378e-08 0)
(-4.78629e-07 -1.37326e-08 0)
(-4.78629e-07 1.38279e-08 0)
(-4.78629e-07 -1.39188e-08 0)
(-4.78628e-07 1.40111e-08 0)
(-4.78629e-07 -1.4098e-08 0)
(-4.78628e-07 1.41873e-08 0)
(-4.78629e-07 -1.42699e-08 0)
(-4.78628e-07 1.4356e-08 0)
(-4.78629e-07 -1.44343e-08 0)
(-4.7863e-07 1.4517e-08 0)
(-4.78632e-07 -1.45906e-08 0)
(-4.7863e-07 1.46698e-08 0)
(-4.78629e-07 -1.47386e-08 0)
(-4.78628e-07 1.48141e-08 0)
(-4.78629e-07 -1.48774e-08 0)
(-4.78628e-07 1.49495e-08 0)
(-4.78628e-07 -1.50067e-08 0)
(-4.78628e-07 1.5075e-08 0)
(-4.78628e-07 -1.51256e-08 0)
(-4.78629e-07 1.51897e-08 0)
(-4.78628e-07 -1.52334e-08 0)
(-4.78628e-07 1.52926e-08 0)
(-4.78628e-07 -1.53275e-08 0)
(-4.78628e-07 1.53826e-08 0)
(-4.78628e-07 -1.54075e-08 0)
(-4.78629e-07 1.54555e-08 0)
(-4.78629e-07 -1.54686e-08 0)
(-4.78628e-07 1.55073e-08 0)
(-4.78629e-07 -1.55068e-08 0)
)
;

boundaryField
{
    inandouthalf11
    {
        type            cyclic;
    }
    inandouthalf12
    {
        type            cyclic;
    }
    inandouthalf21
    {
        type            cyclic;
    }
    inandouthalf22
    {
        type            cyclic;
    }
    inandouthalf31
    {
        type            cyclic;
    }
    inandouthalf32
    {
        type            cyclic;
    }
    inandouthalf41
    {
        type            cyclic;
    }
    inandouthalf42
    {
        type            cyclic;
    }
    top
    {
        type            symmetryPlane;
    }
    walls
    {
        type            calculated;
        value           uniform (0 0 0);
    }
    frontAndBackPlanes
    {
        type            empty;
    }
}


// ************************************************************************* //
