/*--------------------------------*- C++ -*----------------------------------*\
| =========                 |                                                 |
| \\      /  F ield         | OpenFOAM: The Open Source CFD Toolbox           |
|  \\    /   O peration     | Version:  2.4.x                                 |
|   \\  /    A nd           | Web:      www.OpenFOAM.org                      |
|    \\/     M anipulation  |                                                 |
\*---------------------------------------------------------------------------*/
FoamFile
{
    version     2.0;
    format      ascii;
    class       volVectorField;
    location    "7.5";
    object      Ua;
}
// * * * * * * * * * * * * * * * * * * * * * * * * * * * * * * * * * * * * * //

dimensions      [0 1 -1 0 0 0 0];

internalField   nonuniform List<vector> 
360
(
(5.28468e-33 -1.00322e-31 0)
(7.01491e-09 -9.65811e-08 0)
(1.43409e-08 -1.73205e-07 0)
(2.06055e-08 -2.38691e-07 0)
(2.67118e-08 -3.06433e-07 0)
(3.28667e-08 -3.76871e-07 0)
(3.89341e-08 -4.47735e-07 0)
(4.48408e-08 -5.18321e-07 0)
(5.05839e-08 -5.887e-07 0)
(5.61755e-08 -6.59012e-07 0)
(6.16255e-08 -7.29373e-07 0)
(6.69388e-08 -7.99827e-07 0)
(7.21165e-08 -8.70368e-07 0)
(7.71594e-08 -9.40988e-07 0)
(8.20688e-08 -1.01169e-06 0)
(8.68475e-08 -1.08251e-06 0)
(9.14982e-08 -1.15348e-06 0)
(9.60234e-08 -1.22462e-06 0)
(1.00425e-07 -1.29596e-06 0)
(1.04704e-07 -1.36751e-06 0)
(1.08861e-07 -1.43929e-06 0)
(1.12898e-07 -1.5113e-06 0)
(1.16815e-07 -1.58356e-06 0)
(1.20612e-07 -1.65608e-06 0)
(1.24291e-07 -1.72887e-06 0)
(1.27851e-07 -1.80192e-06 0)
(1.31293e-07 -1.87525e-06 0)
(1.34615e-07 -1.94885e-06 0)
(1.37818e-07 -2.02272e-06 0)
(1.40902e-07 -2.09688e-06 0)
(1.43867e-07 -2.17129e-06 0)
(1.46711e-07 -2.24598e-06 0)
(1.49435e-07 -2.32092e-06 0)
(1.52039e-07 -2.39612e-06 0)
(1.54521e-07 -2.47158e-06 0)
(1.56881e-07 -2.54728e-06 0)
(1.59119e-07 -2.62321e-06 0)
(1.61235e-07 -2.69937e-06 0)
(1.63227e-07 -2.77577e-06 0)
(1.65096e-07 -2.85238e-06 0)
(1.66841e-07 -2.92918e-06 0)
(1.68462e-07 -3.00619e-06 0)
(1.69957e-07 -3.08338e-06 0)
(1.71327e-07 -3.16072e-06 0)
(1.72571e-07 -3.23824e-06 0)
(1.73689e-07 -3.3159e-06 0)
(1.7468e-07 -3.3937e-06 0)
(1.75545e-07 -3.4716e-06 0)
(1.76282e-07 -3.54956e-06 0)
(1.76892e-07 -3.62764e-06 0)
(1.77375e-07 -3.70579e-06 0)
(1.7773e-07 -3.784e-06 0)
(1.77958e-07 -3.86226e-06 0)
(1.78058e-07 -3.94055e-06 0)
(1.7803e-07 -4.01885e-06 0)
(1.77875e-07 -4.09716e-06 0)
(1.77592e-07 -4.17544e-06 0)
(1.77181e-07 -4.25368e-06 0)
(1.76644e-07 -4.33185e-06 0)
(1.75979e-07 -4.40993e-06 0)
(1.75189e-07 -4.48793e-06 0)
(1.74271e-07 -4.56587e-06 0)
(1.73226e-07 -4.64375e-06 0)
(1.72054e-07 -4.72159e-06 0)
(1.70754e-07 -4.79935e-06 0)
(1.69327e-07 -4.87702e-06 0)
(1.67773e-07 -4.95458e-06 0)
(1.66091e-07 -5.03202e-06 0)
(1.64282e-07 -5.1093e-06 0)
(1.62346e-07 -5.18639e-06 0)
(1.60284e-07 -5.2633e-06 0)
(1.58093e-07 -5.34008e-06 0)
(1.55774e-07 -5.41668e-06 0)
(1.53326e-07 -5.4931e-06 0)
(1.50749e-07 -5.56936e-06 0)
(1.48042e-07 -5.64542e-06 0)
(1.45207e-07 -5.72122e-06 0)
(1.42247e-07 -5.79667e-06 0)
(1.39164e-07 -5.87169e-06 0)
(1.35963e-07 -5.94623e-06 0)
(1.32647e-07 -6.0202e-06 0)
(1.2922e-07 -6.09354e-06 0)
(1.25687e-07 -6.16622e-06 0)
(1.22051e-07 -6.23819e-06 0)
(1.18316e-07 -6.30941e-06 0)
(1.14489e-07 -6.3798e-06 0)
(1.10577e-07 -6.4493e-06 0)
(1.06589e-07 -6.5178e-06 0)
(1.02536e-07 -6.58519e-06 0)
(9.84292e-08 -6.65138e-06 0)
(9.42798e-08 -6.71627e-06 0)
(9.00992e-08 -6.7798e-06 0)
(8.58979e-08 -6.84193e-06 0)
(8.16854e-08 -6.90261e-06 0)
(7.74703e-08 -6.96184e-06 0)
(7.32609e-08 -7.01963e-06 0)
(6.90647e-08 -7.07596e-06 0)
(6.48891e-08 -7.13085e-06 0)
(6.07413e-08 -7.18431e-06 0)
(5.66278e-08 -7.23634e-06 0)
(5.25546e-08 -7.28697e-06 0)
(4.85269e-08 -7.33621e-06 0)
(4.45491e-08 -7.38411e-06 0)
(4.0625e-08 -7.43069e-06 0)
(3.67572e-08 -7.476e-06 0)
(3.29477e-08 -7.52008e-06 0)
(2.91979e-08 -7.56297e-06 0)
(2.5508e-08 -7.60473e-06 0)
(2.18777e-08 -7.64539e-06 0)
(1.83054e-08 -7.68503e-06 0)
(1.47886e-08 -7.72369e-06 0)
(1.13234e-08 -7.76144e-06 0)
(7.90461e-09 -7.79835e-06 0)
(4.5251e-09 -7.83449e-06 0)
(1.17582e-09 -7.86993e-06 0)
(-2.15464e-09 -7.90478e-06 0)
(-5.4804e-09 -7.93914e-06 0)
(-8.81875e-09 -7.9731e-06 0)
(-1.21904e-08 -8.00679e-06 0)
(-1.562e-08 -8.04034e-06 0)
(-1.91361e-08 -8.07387e-06 0)
(-2.2771e-08 -8.1075e-06 0)
(-2.65605e-08 -8.14136e-06 0)
(-3.05425e-08 -8.17551e-06 0)
(-3.47559e-08 -8.21002e-06 0)
(-3.92379e-08 -8.24488e-06 0)
(-4.40215e-08 -8.28002e-06 0)
(-4.91316e-08 -8.3153e-06 0)
(-5.45798e-08 -8.35052e-06 0)
(-6.03574e-08 -8.38536e-06 0)
(-6.64295e-08 -8.41941e-06 0)
(-7.27351e-08 -8.45222e-06 0)
(-7.92026e-08 -8.48336e-06 0)
(-8.57759e-08 -8.51262e-06 0)
(-9.24332e-08 -8.53997e-06 0)
(-9.91908e-08 -8.56557e-06 0)
(-1.06113e-07 -8.58964e-06 0)
(-1.13358e-07 -8.61264e-06 0)
(-1.21223e-07 -8.63537e-06 0)
(-1.30009e-07 -8.65856e-06 0)
(-1.39464e-07 -8.68137e-06 0)
(-1.4821e-07 -8.70031e-06 0)
(-1.54547e-07 -8.71256e-06 0)
(-1.57814e-07 -8.71842e-06 0)
(-1.58783e-07 -8.72017e-06 0)
(-1.58924e-07 -8.72066e-06 0)
(-1.5853e-07 -8.72119e-06 0)
(2.14722e-06 -1.04158e-05 0)
(1.46332e-05 -1.25139e-05 0)
(0.00230607 -1.75934e-05 0)
(0.0846921 0.000342386 0)
(0.160079 0.000603446 0)
(0.191789 -0.000360361 0)
(0.207526 -0.00161311 0)
(0.216103 -0.00276087 0)
(0.220942 -0.00370595 0)
(0.223573 -0.00445708 0)
(0.224781 -0.00507167 0)
(0.225012 -0.00559369 0)
(0.224555 -0.00602625 0)
(0.223554 -0.00640933 0)
(0.222143 -0.00673741 0)
(0.220408 -0.00701737 0)
(0.218414 -0.00725366 0)
(0.216208 -0.00745052 0)
(0.21383 -0.00761205 0)
(0.21131 -0.00774219 0)
(0.208674 -0.00784478 0)
(0.205943 -0.00792346 0)
(0.203135 -0.00798164 0)
(0.200266 -0.00802251 0)
(0.19735 -0.00804897 0)
(0.194398 -0.00806364 0)
(0.191421 -0.00806883 0)
(0.188428 -0.00806658 0)
(0.185429 -0.00805863 0)
(0.182429 -0.00804646 0)
(0.179437 -0.00803129 0)
(0.176459 -0.00801409 0)
(0.173501 -0.00799561 0)
(0.170568 -0.00797642 0)
(0.167665 -0.00795689 0)
(0.164796 -0.00793726 0)
(0.161966 -0.00791764 0)
(0.159179 -0.007898 0)
(0.156438 -0.00787826 0)
(0.153748 -0.00785824 0)
(0.15111 -0.00783773 0)
(0.148528 -0.00781647 0)
(0.146005 -0.0077942 0)
(0.143543 -0.00777063 0)
(0.141144 -0.00774547 0)
(0.138812 -0.00771845 0)
(0.136548 -0.00768929 0)
(0.134355 -0.00765772 0)
(0.132233 -0.0076235 0)
(0.130186 -0.0075864 0)
(0.128214 -0.00754623 0)
(0.12632 -0.00750282 0)
(0.124504 -0.00745604 0)
(0.122769 -0.00740584 0)
(0.121098 -0.00735164 0)
(0.119475 -0.0072928 0)
(0.117901 -0.00722919 0)
(0.116377 -0.00716076 0)
(0.114903 -0.00708748 0)
(0.11348 -0.00700946 0)
(0.112105 -0.00692694 0)
(0.110781 -0.00684035 0)
(0.109504 -0.00675029 0)
(0.108273 -0.00665752 0)
(0.107088 -0.00656285 0)
(0.105946 -0.00646711 0)
(0.104844 -0.00637107 0)
(0.10378 -0.00627535 0)
(0.102751 -0.00618037 0)
(0.101754 -0.00608647 0)
(0.100786 -0.00599386 0)
(0.0998448 -0.00590256 0)
(0.0989266 -0.00581251 0)
(0.0980288 -0.00572363 0)
(0.0971489 -0.00563587 0)
(0.0962846 -0.00554905 0)
(0.095434 -0.00546298 0)
(0.0945954 -0.0053776 0)
(0.0937676 -0.00529281 0)
(0.0929503 -0.00520847 0)
(0.0921439 -0.00512455 0)
(0.0913497 -0.00504103 0)
(0.0905698 -0.00495812 0)
(0.0898092 -0.00487577 0)
(0.089073 -0.00479477 0)
(0.0883716 -0.00471532 0)
(0.0877202 -0.00463897 0)
(0.0871593 -0.0045565 0)
(0.0867234 -0.00447064 0)
(0.0862307 -0.00438811 0)
(0.00610441 -0.00296114 0)
(0.00338621 -0.00371905 0)
(0.000670146 1.88972e-05 0)
(-0.00169637 -0.00437776 0)
(-0.00409743 0.00313677 0)
(-0.00624655 -0.00446174 0)
(-0.0066798 -0.0329236 0)
(-0.00804752 -0.0396106 0)
(-0.00966687 -0.0395575 0)
(-0.0108426 -0.039554 0)
(-0.0117675 -0.039546 0)
(-0.0124237 -0.0395383 0)
(-0.012771 -0.0395323 0)
(-0.0128738 -0.0395267 0)
(-0.0127318 -0.039521 0)
(-0.0123515 -0.0395169 0)
(-0.0117681 -0.0395137 0)
(-0.0110114 -0.0395112 0)
(-0.0101156 -0.0395093 0)
(-0.00911944 -0.0395078 0)
(-0.00806752 -0.0395062 0)
(-0.00701252 -0.0395041 0)
(-0.00601505 -0.039501 0)
(-0.00521302 -0.0394939 0)
(-0.00487651 -0.0394858 0)
(-0.00483435 -0.0394827 0)
(-0.00483291 -0.0394823 0)
(-0.00483283 -0.0394823 0)
(-0.0048328 -0.0394823 0)
(-0.00483278 -0.0394823 0)
(-0.00483276 -0.0394823 0)
(-0.00483275 -0.0394823 0)
(-0.00483274 -0.0394823 0)
(-0.00483273 -0.0394823 0)
(-0.00483273 -0.0394823 0)
(-0.00483272 -0.0394823 0)
(-0.00483272 -0.0394823 0)
(-0.00483272 -0.0394823 0)
(-0.00483272 -0.0394823 0)
(-0.00483272 -0.0394823 0)
(-0.00483272 -0.0394823 0)
(-0.00483272 -0.0394823 0)
(-0.00483272 -0.0394823 0)
(-0.00483272 -0.0394823 0)
(-0.00483272 -0.0394823 0)
(-0.00483271 -0.0394823 0)
(-0.00483272 -0.0394823 0)
(-0.00483271 -0.0394823 0)
(-0.00483272 -0.0394823 0)
(-0.00483271 -0.0394823 0)
(-0.00483272 -0.0394823 0)
(-0.00483271 -0.0394823 0)
(-0.00483272 -0.0394823 0)
(-0.00483271 -0.0394823 0)
(-0.00483272 -0.0394823 0)
(-0.00483271 -0.0394823 0)
(-0.00483272 -0.0394823 0)
(-0.00483271 -0.0394823 0)
(-0.00483272 -0.0394823 0)
(-0.00483271 -0.0394823 0)
(-0.00483272 -0.0394823 0)
(-0.00483271 -0.0394823 0)
(-0.00483272 -0.0394823 0)
(-0.00483271 -0.0394823 0)
(-0.00483272 -0.0394823 0)
(-0.00483271 -0.0394823 0)
(-0.00483272 -0.0394823 0)
(-0.00483271 -0.0394823 0)
(-0.00483272 -0.0394823 0)
(-0.00483271 -0.0394823 0)
(-0.00483272 -0.0394823 0)
(-0.00483271 -0.0394823 0)
(-0.00483272 -0.0394823 0)
(-0.00483271 -0.0394823 0)
(-0.00483272 -0.0394823 0)
(-0.00483271 -0.0394823 0)
(-0.00483272 -0.0394823 0)
(-0.00483271 -0.0394823 0)
(-0.00483272 -0.0394823 0)
(-0.00483271 -0.0394823 0)
(-0.00483272 -0.0394823 0)
(-0.00483271 -0.0394823 0)
(-0.00483272 -0.0394823 0)
(-0.00483271 -0.0394823 0)
(-0.00483272 -0.0394823 0)
(-0.00483271 -0.0394823 0)
(-0.00483272 -0.0394823 0)
(-0.00483271 -0.0394823 0)
(-0.00483272 -0.0394823 0)
(-0.00483271 -0.0394823 0)
(-0.00483272 -0.0394823 0)
(-0.00483271 -0.0394823 0)
(-0.00483272 -0.0394823 0)
(-0.00483271 -0.0394823 0)
(-0.00483272 -0.0394823 0)
(-0.00483271 -0.0394823 0)
(-0.00483272 -0.0394823 0)
(-0.00483271 -0.0394823 0)
(-0.00483272 -0.0394823 0)
(-0.00483271 -0.0394823 0)
(-0.00483272 -0.0394823 0)
(-0.00483271 -0.0394823 0)
(-0.00483272 -0.0394823 0)
(-0.00483271 -0.0394823 0)
(-0.00483272 -0.0394823 0)
(-0.00483271 -0.0394823 0)
(-0.00483272 -0.0394823 0)
(-0.00483271 -0.0394823 0)
(-0.00483272 -0.0394823 0)
(-0.00483271 -0.0394823 0)
(-0.00483272 -0.0394823 0)
(-0.00483271 -0.0394823 0)
(-0.00483272 -0.0394823 0)
(-0.00483271 -0.0394823 0)
(-0.00483272 -0.0394823 0)
(-0.00483271 -0.0394823 0)
(-0.00483272 -0.0394823 0)
(-0.00483271 -0.0394823 0)
(-0.00483272 -0.0394823 0)
(-0.00483277 -0.0394821 0)
(-0.0048341 -0.0394736 0)
(-0.00486672 -0.0391276 0)
(-0.00562315 -0.0223682 0)
)
;

boundaryField
{
    inandouthalf11
    {
        type            cyclic;
    }
    inandouthalf12
    {
        type            cyclic;
    }
    inandouthalf21
    {
        type            cyclic;
    }
    inandouthalf22
    {
        type            cyclic;
    }
    inandouthalf31
    {
        type            cyclic;
    }
    inandouthalf32
    {
        type            cyclic;
    }
    inandouthalf41
    {
        type            cyclic;
    }
    inandouthalf42
    {
        type            cyclic;
    }
    top
    {
        type            symmetryPlane;
    }
    walls
    {
        type            fixedValue;
        value           uniform (0 0 0);
    }
    frontAndBackPlanes
    {
        type            empty;
    }
}


// ************************************************************************* //
