/*--------------------------------*- C++ -*----------------------------------*\
| =========                 |                                                 |
| \\      /  F ield         | OpenFOAM: The Open Source CFD Toolbox           |
|  \\    /   O peration     | Version:  2.4.x                                 |
|   \\  /    A nd           | Web:      www.OpenFOAM.org                      |
|    \\/     M anipulation  |                                                 |
\*---------------------------------------------------------------------------*/
FoamFile
{
    version     2.0;
    format      ascii;
    class       volVectorField;
    location    "7.5";
    object      Ub;
}
// * * * * * * * * * * * * * * * * * * * * * * * * * * * * * * * * * * * * * //

dimensions      [0 1 -1 0 0 0 0];

internalField   nonuniform List<vector> 
360
(
(0.000255004 4.01607e-08 0)
(0.000253689 1.44056e-07 0)
(0.000253483 2.65172e-07 0)
(0.00025367 3.75813e-07 0)
(0.000253773 4.8379e-07 0)
(0.000253814 5.93691e-07 0)
(0.000253858 7.04772e-07 0)
(0.000253912 8.15846e-07 0)
(0.000253966 9.26622e-07 0)
(0.000254021 1.03724e-06 0)
(0.000254077 1.14789e-06 0)
(0.000254132 1.25864e-06 0)
(0.000254188 1.36951e-06 0)
(0.000254243 1.48048e-06 0)
(0.000254299 1.59157e-06 0)
(0.000254356 1.70282e-06 0)
(0.000254413 1.81428e-06 0)
(0.00025447 1.92598e-06 0)
(0.000254528 2.03796e-06 0)
(0.000254586 2.15026e-06 0)
(0.000254644 2.26287e-06 0)
(0.000254703 2.37583e-06 0)
(0.000254762 2.48916e-06 0)
(0.000254821 2.60287e-06 0)
(0.000254881 2.71696e-06 0)
(0.000254942 2.83145e-06 0)
(0.000255002 2.94634e-06 0)
(0.000255064 3.06162e-06 0)
(0.000255126 3.17732e-06 0)
(0.000255188 3.29341e-06 0)
(0.00025525 3.40988e-06 0)
(0.000255314 3.52675e-06 0)
(0.000255377 3.64398e-06 0)
(0.000255442 3.7616e-06 0)
(0.000255506 3.87958e-06 0)
(0.000255571 3.99791e-06 0)
(0.000255637 4.11656e-06 0)
(0.000255703 4.23554e-06 0)
(0.00025577 4.35486e-06 0)
(0.000255837 4.47446e-06 0)
(0.000255906 4.59435e-06 0)
(0.000255974 4.71451e-06 0)
(0.000256043 4.8349e-06 0)
(0.000256113 4.95553e-06 0)
(0.000256184 5.07636e-06 0)
(0.000256255 5.19739e-06 0)
(0.000256327 5.31859e-06 0)
(0.000256399 5.43988e-06 0)
(0.000256472 5.56127e-06 0)
(0.000256547 5.68279e-06 0)
(0.000256621 5.80436e-06 0)
(0.000256696 5.92599e-06 0)
(0.000256772 6.04764e-06 0)
(0.00025685 6.16931e-06 0)
(0.000256927 6.29093e-06 0)
(0.000257006 6.41252e-06 0)
(0.000257085 6.53401e-06 0)
(0.000257165 6.65539e-06 0)
(0.000257246 6.77663e-06 0)
(0.000257327 6.89765e-06 0)
(0.000257411 7.01854e-06 0)
(0.000257494 7.13923e-06 0)
(0.000257579 7.25981e-06 0)
(0.000257665 7.38023e-06 0)
(0.000257752 7.5005e-06 0)
(0.000257839 7.62055e-06 0)
(0.000257928 7.74038e-06 0)
(0.000258019 7.85994e-06 0)
(0.00025811 7.97921e-06 0)
(0.000258201 8.09812e-06 0)
(0.000258295 8.2167e-06 0)
(0.00025839 8.335e-06 0)
(0.000258486 8.45293e-06 0)
(0.000258583 8.57055e-06 0)
(0.000258682 8.6878e-06 0)
(0.000258783 8.80468e-06 0)
(0.000258884 8.92106e-06 0)
(0.000258987 9.03683e-06 0)
(0.000259091 9.15186e-06 0)
(0.000259197 9.26606e-06 0)
(0.000259305 9.37929e-06 0)
(0.000259414 9.49148e-06 0)
(0.000259525 9.60255e-06 0)
(0.000259638 9.71243e-06 0)
(0.000259753 9.82104e-06 0)
(0.00025987 9.92827e-06 0)
(0.000259989 1.0034e-05 0)
(0.000260109 1.01381e-05 0)
(0.000260232 1.02404e-05 0)
(0.000260357 1.03407e-05 0)
(0.000260485 1.0439e-05 0)
(0.000260614 1.0535e-05 0)
(0.000260747 1.06287e-05 0)
(0.000260882 1.07201e-05 0)
(0.00026102 1.08092e-05 0)
(0.00026116 1.08959e-05 0)
(0.000261304 1.09802e-05 0)
(0.000261451 1.10622e-05 0)
(0.000261601 1.11418e-05 0)
(0.000261754 1.12191e-05 0)
(0.000261911 1.12942e-05 0)
(0.000262071 1.13669e-05 0)
(0.000262236 1.14375e-05 0)
(0.000262404 1.15059e-05 0)
(0.000262576 1.15722e-05 0)
(0.000262753 1.16364e-05 0)
(0.000262934 1.16987e-05 0)
(0.00026312 1.17591e-05 0)
(0.00026331 1.18176e-05 0)
(0.000263506 1.18744e-05 0)
(0.000263707 1.19295e-05 0)
(0.000263914 1.19831e-05 0)
(0.000264126 1.20351e-05 0)
(0.000264345 1.20858e-05 0)
(0.00026457 1.21353e-05 0)
(0.000264802 1.21837e-05 0)
(0.00026504 1.22311e-05 0)
(0.000265286 1.22776e-05 0)
(0.00026554 1.23236e-05 0)
(0.000265801 1.23691e-05 0)
(0.000266071 1.24143e-05 0)
(0.00026635 1.24595e-05 0)
(0.000266637 1.25047e-05 0)
(0.000266934 1.25501e-05 0)
(0.000267242 1.25957e-05 0)
(0.00026756 1.26415e-05 0)
(0.000267889 1.26873e-05 0)
(0.000268231 1.27331e-05 0)
(0.000268588 1.27782e-05 0)
(0.000268959 1.28224e-05 0)
(0.000269346 1.28649e-05 0)
(0.000269749 1.2905e-05 0)
(0.000270172 1.29421e-05 0)
(0.000270618 1.29757e-05 0)
(0.000271092 1.30059e-05 0)
(0.000271595 1.30328e-05 0)
(0.000272122 1.30566e-05 0)
(0.000272683 1.30778e-05 0)
(0.000273305 1.30968e-05 0)
(0.00027402 1.31149e-05 0)
(0.000274794 1.31311e-05 0)
(0.000275538 1.31375e-05 0)
(0.000276438 1.31324e-05 0)
(0.000277613 1.31138e-05 0)
(0.000279089 1.30643e-05 0)
(0.000281942 1.29458e-05 0)
(0.000288519 1.38003e-05 0)
(0.000291279 1.63599e-05 0)
(0.00031051 2.06582e-05 0)
(0.00293607 5.58198e-06 0)
(0.106312 -0.000136697 0)
(0.183777 -1.67792e-05 0)
(0.215114 8.68588e-06 0)
(0.229303 2.00604e-05 0)
(0.23605 1.94475e-05 0)
(0.239377 1.76582e-05 0)
(0.24093 1.56965e-05 0)
(0.241436 1.39143e-05 0)
(0.241251 1.2369e-05 0)
(0.240574 1.10412e-05 0)
(0.239522 9.90259e-06 0)
(0.238171 8.91944e-06 0)
(0.236577 8.05983e-06 0)
(0.234779 7.30178e-06 0)
(0.232807 6.62898e-06 0)
(0.230687 6.02867e-06 0)
(0.228439 5.49073e-06 0)
(0.226079 5.00704e-06 0)
(0.223623 4.57097e-06 0)
(0.221083 4.177e-06 0)
(0.21847 3.8205e-06 0)
(0.215793 3.49749e-06 0)
(0.213061 3.20451e-06 0)
(0.210282 2.93853e-06 0)
(0.207462 2.69688e-06 0)
(0.204607 2.47718e-06 0)
(0.201722 2.27729e-06 0)
(0.198813 2.0953e-06 0)
(0.195884 1.92947e-06 0)
(0.192938 1.77825e-06 0)
(0.18998 1.64023e-06 0)
(0.187011 1.51412e-06 0)
(0.184037 1.39879e-06 0)
(0.181058 1.29318e-06 0)
(0.178078 1.19636e-06 0)
(0.175098 1.10748e-06 0)
(0.172121 1.02577e-06 0)
(0.169148 9.50545e-07 0)
(0.166182 8.81186e-07 0)
(0.163224 8.17133e-07 0)
(0.160275 7.57888e-07 0)
(0.157336 7.03003e-07 0)
(0.154409 6.5208e-07 0)
(0.151496 6.04766e-07 0)
(0.148596 5.60741e-07 0)
(0.145711 5.19718e-07 0)
(0.142842 4.81436e-07 0)
(0.13999 4.4566e-07 0)
(0.137155 4.12176e-07 0)
(0.134339 3.80786e-07 0)
(0.131541 3.51311e-07 0)
(0.128735 3.23313e-07 0)
(0.125892 2.96461e-07 0)
(0.123013 2.70735e-07 0)
(0.120098 2.4613e-07 0)
(0.117148 2.22654e-07 0)
(0.114162 2.00328e-07 0)
(0.111143 1.79191e-07 0)
(0.10809 1.593e-07 0)
(0.105003 1.40716e-07 0)
(0.101885 1.23494e-07 0)
(0.0987348 1.07671e-07 0)
(0.0955547 9.32627e-08 0)
(0.0923456 8.02746e-08 0)
(0.0891088 6.86888e-08 0)
(0.0858458 5.84479e-08 0)
(0.0825581 4.94707e-08 0)
(0.0792476 4.16703e-08 0)
(0.0759162 3.49472e-08 0)
(0.072566 2.91859e-08 0)
(0.0691996 2.42701e-08 0)
(0.0658194 2.0099e-08 0)
(0.0624285 1.65812e-08 0)
(0.0590298 1.36249e-08 0)
(0.055627 1.11482e-08 0)
(0.0522239 9.08413e-09 0)
(0.0488247 7.37112e-09 0)
(0.0454341 5.95369e-09 0)
(0.0420573 4.78441e-09 0)
(0.0386999 3.82409e-09 0)
(0.0353683 3.03729e-09 0)
(0.0320696 2.39424e-09 0)
(0.0288114 1.87639e-09 0)
(0.0256023 1.48026e-09 0)
(0.022452 1.17032e-09 0)
(0.0193711 8.70074e-10 0)
(0.0163713 5.76063e-10 0)
(0.0134656 3.36215e-10 0)
(0.0106686 1.75399e-10 0)
(0.00799591 8.4303e-11 0)
(0.00546485 3.38e-11 0)
(0.00309397 8.19599e-12 0)
(0.000902991 1.67519e-11 0)
(-0.00108767 1.8889e-11 0)
(-0.00285752 -8.99612e-13 0)
(-0.00438702 1.7681e-13 0)
(-0.00565894 1.58825e-12 0)
(-0.00665995 1.74301e-12 0)
(-0.00738227 1.58423e-12 0)
(-0.00782509 1.43388e-12 0)
(-0.00799522 1.2429e-12 0)
(-0.00790685 1.52394e-12 0)
(-0.00758056 6.4814e-12 0)
(-0.00704204 -1.91184e-11 0)
(-0.00632113 5.02026e-11 0)
(-0.00545165 -9.22522e-11 0)
(-0.00447187 1.56046e-10 0)
(-0.00342568 -2.33004e-10 0)
(-0.00236492 3.30798e-10 0)
(-0.00135557 -4.39704e-10 0)
(-0.000489911 5.6417e-10 0)
(-5.95868e-05 -6.93828e-10 0)
(-2.66942e-06 8.31999e-10 0)
(-6.88477e-07 -9.71255e-10 0)
(-6.03635e-07 1.11656e-09 0)
(-5.71212e-07 -1.26304e-09 0)
(-5.47279e-07 1.41542e-09 0)
(-5.29234e-07 -1.56948e-09 0)
(-5.15701e-07 1.72949e-09 0)
(-5.05617e-07 -1.89161e-09 0)
(-4.98148e-07 2.05975e-09 0)
(-4.92654e-07 -2.2304e-09 0)
(-4.88639e-07 2.40712e-09 0)
(-4.85725e-07 -2.5867e-09 0)
(-4.83623e-07 2.77244e-09 0)
(-4.82118e-07 -2.96133e-09 0)
(-4.8105e-07 3.15644e-09 0)
(-4.80297e-07 -3.35499e-09 0)
(-4.79769e-07 3.5598e-09 0)
(-4.79402e-07 -3.76833e-09 0)
(-4.79148e-07 3.98313e-09 0)
(-4.78975e-07 -4.20192e-09 0)
(-4.78858e-07 4.427e-09 0)
(-4.78779e-07 -4.65629e-09 0)
(-4.78727e-07 4.89189e-09 0)
(-4.78692e-07 -5.13192e-09 0)
(-4.78669e-07 5.37826e-09 0)
(-4.78654e-07 -5.62926e-09 0)
(-4.78645e-07 5.88649e-09 0)
(-4.78639e-07 -6.14865e-09 0)
(-4.78635e-07 6.41699e-09 0)
(-4.78632e-07 -6.69045e-09 0)
(-4.78631e-07 6.97004e-09 0)
(-4.7863e-07 -7.25497e-09 0)
(-4.7863e-07 7.54593e-09 0)
(-4.78628e-07 -7.84244e-09 0)
(-4.78628e-07 8.14487e-09 0)
(-4.78629e-07 -8.45301e-09 0)
(-4.78629e-07 8.76712e-09 0)
(-4.78629e-07 -9.08692e-09 0)
(-4.78628e-07 9.41271e-09 0)
(-4.78628e-07 -9.74423e-09 0)
(-4.78628e-07 1.00817e-08 0)
(-4.78629e-07 -1.04249e-08 0)
(-4.78629e-07 1.07741e-08 0)
(-4.78628e-07 -1.1129e-08 0)
(-4.78628e-07 1.14898e-08 0)
(-4.78629e-07 -1.18561e-08 0)
(-4.78628e-07 1.22284e-08 0)
(-4.78628e-07 -1.26061e-08 0)
(-4.78628e-07 1.14036e-08 0)
(-4.78629e-07 -1.15285e-08 0)
(-4.78629e-07 1.16522e-08 0)
(-4.78628e-07 -1.17745e-08 0)
(-4.78629e-07 1.18956e-08 0)
(-4.78628e-07 -1.20152e-08 0)
(-4.78628e-07 1.21336e-08 0)
(-4.78629e-07 -1.22504e-08 0)
(-4.78628e-07 1.23661e-08 0)
(-4.78628e-07 -1.24801e-08 0)
(-4.78629e-07 1.25929e-08 0)
(-4.78629e-07 -1.27041e-08 0)
(-4.78629e-07 1.2814e-08 0)
(-4.78628e-07 -1.29222e-08 0)
(-4.78629e-07 1.30292e-08 0)
(-4.78628e-07 -1.31343e-08 0)
(-4.78629e-07 1.32383e-08 0)
(-4.78629e-07 -1.33404e-08 0)
(-4.78628e-07 1.34411e-08 0)
(-4.78629e-07 -1.35397e-08 0)
(-4.78628e-07 1.36378e-08 0)
(-4.78629e-07 -1.37326e-08 0)
(-4.78629e-07 1.38279e-08 0)
(-4.78629e-07 -1.39188e-08 0)
(-4.78628e-07 1.40111e-08 0)
(-4.78629e-07 -1.4098e-08 0)
(-4.78628e-07 1.41873e-08 0)
(-4.78629e-07 -1.42699e-08 0)
(-4.78628e-07 1.4356e-08 0)
(-4.78629e-07 -1.44343e-08 0)
(-4.7863e-07 1.4517e-08 0)
(-4.78632e-07 -1.45906e-08 0)
(-4.7863e-07 1.46698e-08 0)
(-4.78629e-07 -1.47386e-08 0)
(-4.78628e-07 1.48141e-08 0)
(-4.78629e-07 -1.48774e-08 0)
(-4.78628e-07 1.49495e-08 0)
(-4.78628e-07 -1.50067e-08 0)
(-4.78628e-07 1.5075e-08 0)
(-4.78628e-07 -1.51256e-08 0)
(-4.78629e-07 1.51897e-08 0)
(-4.78628e-07 -1.52334e-08 0)
(-4.78628e-07 1.52926e-08 0)
(-4.78628e-07 -1.53275e-08 0)
(-4.78628e-07 1.53826e-08 0)
(-4.78628e-07 -1.54075e-08 0)
(-4.78629e-07 1.54555e-08 0)
(-4.78629e-07 -1.54686e-08 0)
(-4.78628e-07 1.55073e-08 0)
(-4.78629e-07 -1.55068e-08 0)
)
;

boundaryField
{
    inandouthalf11
    {
        type            cyclic;
    }
    inandouthalf12
    {
        type            cyclic;
    }
    inandouthalf21
    {
        type            cyclic;
    }
    inandouthalf22
    {
        type            cyclic;
    }
    inandouthalf31
    {
        type            cyclic;
    }
    inandouthalf32
    {
        type            cyclic;
    }
    inandouthalf41
    {
        type            cyclic;
    }
    inandouthalf42
    {
        type            cyclic;
    }
    top
    {
        type            symmetryPlane;
    }
    walls
    {
        type            fixedValue;
        value           uniform (0 0 0);
    }
    frontAndBackPlanes
    {
        type            empty;
    }
}


// ************************************************************************* //
