/*--------------------------------*- C++ -*----------------------------------*\
| =========                 |                                                 |
| \\      /  F ield         | OpenFOAM: The Open Source CFD Toolbox           |
|  \\    /   O peration     | Version:  2.4.x                                 |
|   \\  /    A nd           | Web:      www.OpenFOAM.org                      |
|    \\/     M anipulation  |                                                 |
\*---------------------------------------------------------------------------*/
FoamFile
{
    version     2.0;
    format      ascii;
    class       volScalarField;
    location    "7.45";
    object      ddt0(alpha);
}
// * * * * * * * * * * * * * * * * * * * * * * * * * * * * * * * * * * * * * //

dimensions      [0 0 -1 0 0 0 0];

internalField   nonuniform List<scalar> 
360
(
6.49631e-05
9.96033e-05
9.01008e-05
8.45245e-05
8.59456e-05
8.75557e-05
8.78373e-05
8.76535e-05
8.75144e-05
8.75635e-05
8.77271e-05
8.79026e-05
8.80817e-05
8.82513e-05
8.84403e-05
8.8668e-05
8.8932e-05
8.9219e-05
8.95208e-05
8.98561e-05
9.0177e-05
9.05296e-05
9.08898e-05
9.12565e-05
9.16293e-05
9.20014e-05
9.23657e-05
9.27488e-05
9.31221e-05
9.34858e-05
9.38395e-05
9.42118e-05
9.45307e-05
9.49031e-05
9.52161e-05
9.55419e-05
9.58362e-05
9.61382e-05
9.64488e-05
9.66796e-05
9.6963e-05
9.72008e-05
9.73868e-05
9.76172e-05
9.77914e-05
9.79563e-05
9.8103e-05
9.81707e-05
9.82679e-05
9.83954e-05
9.84336e-05
9.84997e-05
9.85231e-05
9.85606e-05
9.85292e-05
9.85503e-05
9.84783e-05
9.84382e-05
9.83574e-05
9.82386e-05
9.82185e-05
9.815e-05
9.81505e-05
9.81121e-05
9.8071e-05
9.79876e-05
9.78965e-05
9.77691e-05
9.75984e-05
9.73812e-05
9.72138e-05
9.70515e-05
9.67998e-05
9.65815e-05
9.62912e-05
9.59567e-05
9.54661e-05
9.48547e-05
9.41226e-05
9.32774e-05
9.23099e-05
9.12653e-05
9.01499e-05
8.89584e-05
8.76883e-05
8.63175e-05
8.4839e-05
8.32318e-05
8.15021e-05
7.96693e-05
7.77569e-05
7.57943e-05
7.38166e-05
7.18473e-05
6.99039e-05
6.79971e-05
6.6133e-05
6.43147e-05
6.25459e-05
6.0831e-05
5.9175e-05
5.7583e-05
5.60596e-05
5.46076e-05
5.32286e-05
5.19229e-05
5.06905e-05
4.95313e-05
4.84458e-05
4.74354e-05
4.65024e-05
4.56505e-05
4.48851e-05
4.42134e-05
4.36444e-05
4.31894e-05
4.2861e-05
4.26725e-05
4.26363e-05
4.27614e-05
4.30505e-05
4.34954e-05
4.40731e-05
4.47419e-05
4.54402e-05
4.60869e-05
4.65825e-05
4.68083e-05
4.66259e-05
4.58863e-05
4.4468e-05
4.23493e-05
3.9672e-05
3.6725e-05
3.38205e-05
3.11788e-05
2.89963e-05
2.75493e-05
2.69499e-05
2.64686e-05
2.37678e-05
1.56288e-05
4.89516e-06
-4.69141e-06
-1.51487e-05
-6.31488e-05
0.002457
0.00640398
0.00213941
-0.0645008
0.0215888
0.0568585
0.0125029
-0.00236492
-0.0052622
-0.004899
-0.00406923
-0.00340884
-0.00289891
-0.00248039
-0.00216804
-0.00191553
-0.00170636
-0.00152897
-0.00137571
-0.00124145
-0.00112265
-0.00101674
-0.000921842
-0.000836482
-0.000759508
-0.000689977
-0.000627103
-0.000570217
-0.000518738
-0.000472155
-0.000430012
-0.000391898
-0.00035744
-0.000326297
-0.000298159
-0.000272741
-0.00024978
-0.00022904
-0.000210302
-0.000193368
-0.000178059
-0.000164211
-0.000151677
-0.000140323
-0.000130025
-0.000120671
-0.000112156
-0.000104388
-9.72888e-05
-9.07921e-05
-8.48423e-05
-7.93875e-05
-7.43803e-05
-6.97826e-05
-6.55619e-05
-6.16337e-05
-5.79079e-05
-5.43264e-05
-5.08513e-05
-4.74555e-05
-4.41126e-05
-4.07893e-05
-3.74677e-05
-3.41552e-05
-3.0869e-05
-2.76577e-05
-2.4562e-05
-2.15836e-05
-1.87651e-05
-1.61785e-05
-1.38311e-05
-1.17157e-05
-9.84702e-06
-8.23441e-06
-6.85948e-06
-5.67496e-06
-4.66887e-06
-3.83481e-06
-3.13556e-06
-2.54941e-06
-2.06777e-06
-1.67048e-06
-1.34794e-06
-1.07823e-06
-8.66174e-07
-6.8739e-07
-5.48441e-07
-3.91015e-07
-3.13526e-07
-3.38832e-07
-2.86429e-07
-2.32041e-07
-1.20085e-07
-8.14853e-08
-2.82268e-08
-2.10282e-08
-4.36316e-10
2.63683e-19
5.90853e-30
-7.20273e-36
-3.70638e-36
-2.43244e-36
-2.50529e-36
-2.94669e-36
-1.61689e-36
-5.81301e-37
-2.59747e-37
-1.30434e-37
-7.21675e-38
-5.42322e-38
-4.6321e-38
-1.91604e-38
-8.62928e-39
-4.33675e-39
-2.34079e-39
-1.46838e-39
-7.13216e-40
-3.49668e-40
-1.76453e-40
-8.8822e-41
-4.38171e-41
-2.12536e-41
-1.01308e-41
-4.74282e-42
-2.17946e-42
-9.8245e-43
-4.34146e-43
-1.87942e-43
-7.9645e-44
-3.30142e-44
-1.33751e-44
-5.29132e-45
-2.04223e-45
-7.68224e-46
-2.81357e-46
-1.00213e-46
-3.46707e-47
-1.16362e-47
-3.78318e-48
-1.18973e-48
-3.61305e-49
-1.05768e-49
-2.97883e-50
-8.05414e-51
-2.08571e-51
-5.15961e-52
-1.21577e-52
-2.71984e-53
-5.75584e-54
-1.14747e-54
-2.14471e-55
-3.73768e-56
-6.03442e-57
-8.95657e-58
-1.21089e-58
-1.47431e-59
-1.59353e-60
-1.5008e-61
-1.20092e-62
-7.87476e-64
-4.00058e-65
-1.42573e-66
-2.84148e-68
-9.01111e-71
-2.59753e-75
-2.34668e-77
-1.05142e-79
-3.59781e-90
-6.1483e-101
-7.54292e-112
-6.67207e-123
-5.01888e-134
-2.8793e-145
-1.4203e-156
-1.22561e-166
-5.16255e-177
-4.05696e-185
-1.53747e-195
-1.39545e-203
-6.17859e-214
-4.8014e-222
-2.60601e-232
-1.65345e-240
-1.65195e-250
-5.78197e-259
-1.08309e-268
-2.06673e-277
-5.34289e-287
-7.53711e-296
-2.53696e-305
-2.81152e-314
-1.01086e-320
0
0
0
0
0
0
0
0
0
0
0
0
0
0
0
0
0
0
0
0
0
0
)
;

boundaryField
{
    inandouthalf11
    {
        type            cyclic;
    }
    inandouthalf12
    {
        type            cyclic;
    }
    inandouthalf21
    {
        type            cyclic;
    }
    inandouthalf22
    {
        type            cyclic;
    }
    inandouthalf31
    {
        type            cyclic;
    }
    inandouthalf32
    {
        type            cyclic;
    }
    inandouthalf41
    {
        type            cyclic;
    }
    inandouthalf42
    {
        type            cyclic;
    }
    top
    {
        type            symmetryPlane;
    }
    walls
    {
        type            calculated;
        value           uniform 6.49631e-05;
    }
    frontAndBackPlanes
    {
        type            empty;
    }
}


// ************************************************************************* //
