/*--------------------------------*- C++ -*----------------------------------*\
| =========                 |                                                 |
| \\      /  F ield         | OpenFOAM: The Open Source CFD Toolbox           |
|  \\    /   O peration     | Version:  2.4.x                                 |
|   \\  /    A nd           | Web:      www.OpenFOAM.org                      |
|    \\/     M anipulation  |                                                 |
\*---------------------------------------------------------------------------*/
FoamFile
{
    version     2.0;
    format      ascii;
    class       volVectorField;
    location    "7.45";
    object      ddt0(Ub);
}
// * * * * * * * * * * * * * * * * * * * * * * * * * * * * * * * * * * * * * //

dimensions      [0 1 -2 0 0 0 0];

internalField   nonuniform List<vector> 
360
(
(0.000136534 -1.45996e-08 0)
(0.00013579 -5.38411e-08 0)
(0.000135731 -9.93222e-08 0)
(0.000135872 -1.38424e-07 0)
(0.000135953 -1.75096e-07 0)
(0.000136002 -2.12461e-07 0)
(0.000136056 -2.51205e-07 0)
(0.000136116 -2.91354e-07 0)
(0.000136176 -3.33031e-07 0)
(0.000136237 -3.76458e-07 0)
(0.000136298 -4.21857e-07 0)
(0.000136359 -4.69349e-07 0)
(0.00013642 -5.18941e-07 0)
(0.000136482 -5.7059e-07 0)
(0.000136544 -6.24232e-07 0)
(0.000136607 -6.79798e-07 0)
(0.00013667 -7.37229e-07 0)
(0.000136734 -7.96464e-07 0)
(0.000136798 -8.57427e-07 0)
(0.000136863 -9.20057e-07 0)
(0.000136929 -9.84276e-07 0)
(0.000136995 -1.05002e-06 0)
(0.000137061 -1.11725e-06 0)
(0.000137128 -1.1859e-06 0)
(0.000137197 -1.25593e-06 0)
(0.000137265 -1.32729e-06 0)
(0.000137335 -1.39995e-06 0)
(0.000137405 -1.47387e-06 0)
(0.000137476 -1.54903e-06 0)
(0.000137547 -1.6254e-06 0)
(0.00013762 -1.70292e-06 0)
(0.000137693 -1.78158e-06 0)
(0.000137767 -1.86133e-06 0)
(0.000137842 -1.94216e-06 0)
(0.000137917 -2.02401e-06 0)
(0.000137994 -2.10682e-06 0)
(0.000138071 -2.19054e-06 0)
(0.000138149 -2.27511e-06 0)
(0.000138229 -2.36047e-06 0)
(0.000138308 -2.44651e-06 0)
(0.000138389 -2.53317e-06 0)
(0.000138471 -2.62035e-06 0)
(0.000138553 -2.70792e-06 0)
(0.000138637 -2.79582e-06 0)
(0.000138721 -2.88393e-06 0)
(0.000138807 -2.97217e-06 0)
(0.000138893 -3.06046e-06 0)
(0.00013898 -3.14869e-06 0)
(0.000139068 -3.23683e-06 0)
(0.000139157 -3.32492e-06 0)
(0.000139246 -3.41293e-06 0)
(0.000139337 -3.50092e-06 0)
(0.000139428 -3.58893e-06 0)
(0.000139521 -3.67705e-06 0)
(0.000139613 -3.76535e-06 0)
(0.000139708 -3.85401e-06 0)
(0.000139803 -3.94312e-06 0)
(0.000139899 -4.03287e-06 0)
(0.000139996 -4.12343e-06 0)
(0.000140093 -4.21496e-06 0)
(0.000140192 -4.30776e-06 0)
(0.000140291 -4.40204e-06 0)
(0.000140392 -4.49804e-06 0)
(0.000140493 -4.59591e-06 0)
(0.000140596 -4.69572e-06 0)
(0.0001407 -4.79747e-06 0)
(0.000140805 -4.90106e-06 0)
(0.00014091 -5.00635e-06 0)
(0.000141017 -5.11309e-06 0)
(0.000141125 -5.22095e-06 0)
(0.000141235 -5.32964e-06 0)
(0.000141345 -5.43878e-06 0)
(0.000141456 -5.54785e-06 0)
(0.000141569 -5.6563e-06 0)
(0.000141682 -5.76343e-06 0)
(0.000141797 -5.86849e-06 0)
(0.000141912 -5.97053e-06 0)
(0.000142029 -6.06858e-06 0)
(0.000142146 -6.16168e-06 0)
(0.000142265 -6.2489e-06 0)
(0.000142383 -6.32942e-06 0)
(0.000142503 -6.40257e-06 0)
(0.000142622 -6.46782e-06 0)
(0.000142742 -6.52478e-06 0)
(0.000142862 -6.57323e-06 0)
(0.000142982 -6.61307e-06 0)
(0.000143103 -6.64436e-06 0)
(0.000143223 -6.66729e-06 0)
(0.000143343 -6.68224e-06 0)
(0.000143463 -6.68973e-06 0)
(0.000143582 -6.69048e-06 0)
(0.000143702 -6.68533e-06 0)
(0.000143821 -6.67526e-06 0)
(0.00014394 -6.66136e-06 0)
(0.000144059 -6.64476e-06 0)
(0.000144177 -6.62662e-06 0)
(0.000144296 -6.60812e-06 0)
(0.000144415 -6.5904e-06 0)
(0.000144534 -6.57457e-06 0)
(0.000144654 -6.56166e-06 0)
(0.000144775 -6.55264e-06 0)
(0.000144896 -6.54839e-06 0)
(0.000145018 -6.54969e-06 0)
(0.000145142 -6.55724e-06 0)
(0.000145267 -6.57166e-06 0)
(0.000145393 -6.59347e-06 0)
(0.000145522 -6.62308e-06 0)
(0.000145652 -6.66084e-06 0)
(0.000145785 -6.70701e-06 0)
(0.00014592 -6.76176e-06 0)
(0.000146058 -6.8252e-06 0)
(0.000146199 -6.89737e-06 0)
(0.000146343 -6.97825e-06 0)
(0.000146491 -7.06777e-06 0)
(0.000146642 -7.16585e-06 0)
(0.000146797 -7.2724e-06 0)
(0.000146956 -7.38734e-06 0)
(0.000147119 -7.51063e-06 0)
(0.000147287 -7.64232e-06 0)
(0.000147461 -7.78253e-06 0)
(0.00014764 -7.93151e-06 0)
(0.000147825 -8.08956e-06 0)
(0.000148017 -8.25704e-06 0)
(0.000148216 -8.43428e-06 0)
(0.000148423 -8.62146e-06 0)
(0.000148639 -8.81849e-06 0)
(0.000148865 -9.0248e-06 0)
(0.000149102 -9.23916e-06 0)
(0.00014935 -9.45949e-06 0)
(0.000149611 -9.68263e-06 0)
(0.000149884 -9.90433e-06 0)
(0.000150169 -1.01197e-05 0)
(0.000150466 -1.03237e-05 0)
(0.000150775 -1.0513e-05 0)
(0.000151099 -1.06855e-05 0)
(0.000151435 -1.0841e-05 0)
(0.000151783 -1.0981e-05 0)
(0.000152148 -1.11086e-05 0)
(0.000152547 -1.12291e-05 0)
(0.000153 -1.1348e-05 0)
(0.000153494 -1.14642e-05 0)
(0.00015398 -1.15603e-05 0)
(0.000154539 -1.16232e-05 0)
(0.00015522 -1.16475e-05 0)
(0.000156044 -1.16236e-05 0)
(0.000157677 -1.15358e-05 0)
(0.000155467 -9.85615e-06 0)
(0.000157191 -1.39692e-05 0)
(0.000320667 -5.50619e-05 0)
(0.0136033 -2.53576e-05 0)
(0.267008 -0.000751802 0)
(0.56805 -0.00100314 0)
(0.740866 6.80311e-05 0)
(0.828137 -1.87969e-05 0)
(0.874119 -1.20096e-05 0)
(0.902503 -8.66219e-06 0)
(0.922965 -1.14046e-05 0)
(0.939524 -1.58678e-05 0)
(0.953915 -1.9187e-05 0)
(0.96695 -2.0586e-05 0)
(0.979034 -2.06573e-05 0)
(0.99038 -2.00961e-05 0)
(1.00111 -1.91901e-05 0)
(1.01129 -1.80838e-05 0)
(1.02097 -1.68819e-05 0)
(1.03019 -1.5659e-05 0)
(1.03898 -1.44628e-05 0)
(1.04735 -1.33215e-05 0)
(1.05535 -1.22505e-05 0)
(1.06297 -1.12567e-05 0)
(1.07025 -1.03418e-05 0)
(1.07721 -9.50419e-06 0)
(1.08385 -8.74002e-06 0)
(1.0902 -8.0444e-06 0)
(1.09627 -7.41184e-06 0)
(1.10207 -6.83673e-06 0)
(1.10762 -6.31355e-06 0)
(1.11293 -5.83707e-06 0)
(1.11802 -5.40242e-06 0)
(1.12288 -5.00516e-06 0)
(1.12754 -4.64128e-06 0)
(1.132 -4.30721e-06 0)
(1.13628 -3.99979e-06 0)
(1.14037 -3.71623e-06 0)
(1.14429 -3.45409e-06 0)
(1.14805 -3.21123e-06 0)
(1.15165 -2.98581e-06 0)
(1.1551 -2.7762e-06 0)
(1.1584 -2.58097e-06 0)
(1.16157 -2.39888e-06 0)
(1.16461 -2.22879e-06 0)
(1.16752 -2.06972e-06 0)
(1.17031 -1.92078e-06 0)
(1.17298 -1.78119e-06 0)
(1.17555 -1.65031e-06 0)
(1.17801 -1.5276e-06 0)
(1.18036 -1.41258e-06 0)
(1.18261 -1.3048e-06 0)
(1.18476 -1.20388e-06 0)
(1.18682 -1.10947e-06 0)
(1.18878 -1.02122e-06 0)
(1.19067 -9.37874e-07 0)
(1.1925 -8.58367e-07 0)
(1.19429 -7.82494e-07 0)
(1.19602 -7.1016e-07 0)
(1.19771 -6.41365e-07 0)
(1.19936 -5.76099e-07 0)
(1.20096 -5.14323e-07 0)
(1.20251 -4.56049e-07 0)
(1.20402 -4.01385e-07 0)
(1.20547 -3.50534e-07 0)
(1.20688 -3.03713e-07 0)
(1.20824 -2.61014e-07 0)
(1.20954 -2.2241e-07 0)
(1.21079 -1.87937e-07 0)
(1.21198 -1.57623e-07 0)
(1.21312 -1.31284e-07 0)
(1.21419 -1.08608e-07 0)
(1.2152 -8.93222e-08 0)
(1.21615 -7.31406e-08 0)
(1.21703 -5.96626e-08 0)
(1.21784 -4.84576e-08 0)
(1.21857 -3.92041e-08 0)
(1.21923 -3.16327e-08 0)
(1.2198 -2.5445e-08 0)
(1.22029 -2.03932e-08 0)
(1.22068 -1.62935e-08 0)
(1.22098 -1.29858e-08 0)
(1.22118 -1.03201e-08 0)
(1.22126 -8.1755e-09 0)
(1.22123 -6.46159e-09 0)
(1.22107 -5.08218e-09 0)
(1.22076 -3.92127e-09 0)
(1.22031 -2.98078e-09 0)
(1.21969 -2.43965e-09 0)
(1.2189 -2.1675e-09 0)
(1.21791 -1.61187e-09 0)
(1.21672 -6.8271e-10 0)
(1.2153 -6.84292e-11 0)
(1.21364 6.98048e-11 0)
(1.21172 1.42747e-10 0)
(1.20954 1.67048e-10 0)
(1.2071 1.74295e-10 0)
(1.20439 1.24917e-10 0)
(1.20145 1.13499e-10 0)
(1.1983 1.21878e-10 0)
(1.19502 1.11493e-10 0)
(1.19169 1.02817e-10 0)
(1.18838 9.50011e-11 0)
(1.18521 8.81226e-11 0)
(1.18225 8.29899e-11 0)
(1.17957 7.53615e-11 0)
(1.1772 7.3281e-11 0)
(1.17517 2.73928e-11 0)
(1.17349 1.1124e-10 0)
(1.17216 -7.73635e-12 0)
(1.17118 7.85837e-11 0)
(1.17056 8.25608e-11 0)
(1.1703 -9.92375e-11 0)
(1.17044 2.95517e-10 0)
(1.17145 -3.51227e-10 0)
(1.17327 5.34275e-10 0)
(1.17365 -5.81938e-10 0)
(1.17366 7.27552e-10 0)
(1.17366 -7.59011e-10 0)
(1.17366 8.54983e-10 0)
(1.17366 -8.94996e-10 0)
(1.17366 9.49071e-10 0)
(1.17366 -1.01247e-09 0)
(1.17366 1.03799e-09 0)
(1.17366 -1.13173e-09 0)
(1.17366 1.13622e-09 0)
(1.17366 -1.25498e-09 0)
(1.17366 1.23988e-09 0)
(1.17366 -1.3885e-09 0)
(1.17366 1.35476e-09 0)
(1.17366 -1.52414e-09 0)
(1.17366 1.48181e-09 0)
(1.17366 -1.66198e-09 0)
(1.17366 1.62503e-09 0)
(1.17366 -1.8028e-09 0)
(1.17366 1.76691e-09 0)
(1.17366 -1.962e-09 0)
(1.17366 1.91856e-09 0)
(1.17366 -2.12154e-09 0)
(1.17366 2.08071e-09 0)
(1.17366 -2.28544e-09 0)
(1.17366 2.25987e-09 0)
(1.17366 -2.4504e-09 0)
(1.17366 2.44218e-09 0)
(1.17366 -2.62654e-09 0)
(1.17366 2.63877e-09 0)
(1.17366 -2.80502e-09 0)
(1.17366 2.84235e-09 0)
(1.17366 -2.98622e-09 0)
(1.17366 3.07307e-09 0)
(1.17366 -3.16753e-09 0)
(1.17366 3.28017e-09 0)
(1.17366 -3.38937e-09 0)
(1.17366 3.49985e-09 0)
(1.17366 -3.60567e-09 0)
(1.17366 3.73278e-09 0)
(1.17366 -3.82866e-09 0)
(1.17366 3.9795e-09 0)
(1.17366 -4.05716e-09 0)
(1.17366 4.22952e-09 0)
(1.17366 -4.29608e-09 0)
(1.17366 4.4823e-09 0)
(1.17366 -4.53801e-09 0)
(1.17366 4.73489e-09 0)
(1.17366 -4.19378e-09 0)
(1.17366 4.29902e-09 0)
(1.17366 -4.24717e-09 0)
(1.17366 4.3604e-09 0)
(1.17366 -4.29999e-09 0)
(1.17366 4.42294e-09 0)
(1.17366 -4.35539e-09 0)
(1.17366 4.48514e-09 0)
(1.17366 -4.41326e-09 0)
(1.17366 4.54436e-09 0)
(1.17366 -4.46868e-09 0)
(1.17366 4.6029e-09 0)
(1.17366 -4.52103e-09 0)
(1.17366 4.66357e-09 0)
(1.17366 -4.56898e-09 0)
(1.17366 4.73402e-09 0)
(1.17366 -4.61057e-09 0)
(1.17366 4.83542e-09 0)
(1.17366 -4.56729e-09 0)
(1.17366 4.9343e-09 0)
(1.17366 -4.52683e-09 0)
(1.17366 5.10308e-09 0)
(1.17366 -4.4737e-09 0)
(1.17366 5.24963e-09 0)
(1.17366 -4.42959e-09 0)
(1.17366 5.37782e-09 0)
(1.17366 -4.40576e-09 0)
(1.17366 5.4716e-09 0)
(1.17366 -4.41099e-09 0)
(1.17366 5.54476e-09 0)
(1.17366 -4.43661e-09 0)
(1.17366 5.57806e-09 0)
(1.17366 -4.50453e-09 0)
(1.17366 5.61626e-09 0)
(1.17366 -4.54437e-09 0)
(1.17366 5.54599e-09 0)
(1.17366 -4.67435e-09 0)
(1.17366 5.56187e-09 0)
(1.17366 -4.71219e-09 0)
(1.17366 5.55018e-09 0)
(1.17366 -4.80809e-09 0)
(1.17366 5.58037e-09 0)
(1.17366 -4.70394e-09 0)
(1.17366 5.80869e-09 0)
(1.17366 -4.51066e-09 0)
(1.17366 5.91465e-09 0)
(1.17366 -4.44862e-09 0)
(1.17366 6.09973e-09 0)
(1.17366 -4.88239e-09 0)
(1.17366 5.13111e-09 0)
)
;

boundaryField
{
    inandouthalf11
    {
        type            cyclic;
    }
    inandouthalf12
    {
        type            cyclic;
    }
    inandouthalf21
    {
        type            cyclic;
    }
    inandouthalf22
    {
        type            cyclic;
    }
    inandouthalf31
    {
        type            cyclic;
    }
    inandouthalf32
    {
        type            cyclic;
    }
    inandouthalf41
    {
        type            cyclic;
    }
    inandouthalf42
    {
        type            cyclic;
    }
    top
    {
        type            symmetryPlane;
    }
    walls
    {
        type            calculated;
        value           uniform (0 0 0);
    }
    frontAndBackPlanes
    {
        type            empty;
    }
}


// ************************************************************************* //
