/*--------------------------------*- C++ -*----------------------------------*\
| =========                 |                                                 |
| \\      /  F ield         | OpenFOAM: The Open Source CFD Toolbox           |
|  \\    /   O peration     | Version:  2.4.x                                 |
|   \\  /    A nd           | Web:      www.OpenFOAM.org                      |
|    \\/     M anipulation  |                                                 |
\*---------------------------------------------------------------------------*/
FoamFile
{
    version     2.0;
    format      ascii;
    class       surfaceScalarField;
    location    "7.45";
    object      ddt0(phib);
}
// * * * * * * * * * * * * * * * * * * * * * * * * * * * * * * * * * * * * * //

dimensions      [0 3 -2 0 0 0 0];

internalField   nonuniform List<scalar> 
359
(
-1.20141e-13
-3.14171e-13
-4.80344e-13
-6.26986e-13
-7.73735e-13
-9.25972e-13
-1.08371e-12
-1.24716e-12
-1.41713e-12
-1.59458e-12
-1.78031e-12
-1.97452e-12
-2.17706e-12
-2.38771e-12
-2.6062e-12
-2.83223e-12
-3.06564e-12
-3.30612e-12
-3.55336e-12
-3.80715e-12
-4.06712e-12
-4.33313e-12
-4.60496e-12
-4.88233e-12
-5.16516e-12
-5.45325e-12
-5.74642e-12
-6.04462e-12
-6.34771e-12
-6.65552e-12
-6.96789e-12
-7.28479e-12
-7.60594e-12
-7.93138e-12
-8.26075e-12
-8.59389e-12
-8.93052e-12
-9.27044e-12
-9.61338e-12
-9.95883e-12
-1.03066e-11
-1.06563e-11
-1.10072e-11
-1.13594e-11
-1.17122e-11
-1.20653e-11
-1.24184e-11
-1.27712e-11
-1.31236e-11
-1.34758e-11
-1.38278e-11
-1.41797e-11
-1.45318e-11
-1.48846e-11
-1.52383e-11
-1.55938e-11
-1.59513e-11
-1.63117e-11
-1.66758e-11
-1.70441e-11
-1.74181e-11
-1.77984e-11
-1.81861e-11
-1.85814e-11
-1.89846e-11
-1.93954e-11
-1.98133e-11
-2.02377e-11
-2.06672e-11
-2.11006e-11
-2.15366e-11
-2.19737e-11
-2.24093e-11
-2.28412e-11
-2.32664e-11
-2.36816e-11
-2.40828e-11
-2.4466e-11
-2.48275e-11
-2.51638e-11
-2.54718e-11
-2.5749e-11
-2.59937e-11
-2.62047e-11
-2.63813e-11
-2.65234e-11
-2.66315e-11
-2.67069e-11
-2.67511e-11
-2.67668e-11
-2.67571e-11
-2.67256e-11
-2.66766e-11
-2.66144e-11
-2.65437e-11
-2.64693e-11
-2.63957e-11
-2.63276e-11
-2.62691e-11
-2.62243e-11
-2.6197e-11
-2.61904e-11
-2.62074e-11
-2.62508e-11
-2.63228e-11
-2.64252e-11
-2.65597e-11
-2.67274e-11
-2.69291e-11
-2.71655e-11
-2.74367e-11
-2.77428e-11
-2.80837e-11
-2.84591e-11
-2.88684e-11
-2.93115e-11
-2.9788e-11
-3.02979e-11
-3.08416e-11
-3.14197e-11
-3.20335e-11
-3.26842e-11
-3.33734e-11
-3.41022e-11
-3.48709e-11
-3.56785e-11
-3.65215e-11
-3.73936e-11
-3.82843e-11
-3.91787e-11
-4.0058e-11
-4.09015e-11
-4.16912e-11
-4.24157e-11
-4.30711e-11
-4.36601e-11
-4.41916e-11
-4.46833e-11
-4.51582e-11
-4.56312e-11
-4.6079e-11
-4.64161e-11
-4.65926e-11
-4.66107e-11
-4.64775e-11
-4.58119e-11
-3.51079e-11
-8.50687e-11
-2.72905e-10
-1.64062e-09
-3.76041e-09
-1.19853e-09
-2.70348e-10
-7.11915e-11
-3.0927e-11
-3.81096e-11
-5.48623e-11
-7.10915e-11
-8.01741e-11
-8.22949e-11
-8.13973e-11
-7.85582e-11
-7.45439e-11
-6.99232e-11
-6.50737e-11
-6.02378e-11
-5.55649e-11
-5.11415e-11
-4.70127e-11
-4.31961e-11
-3.96916e-11
-3.64883e-11
-3.3569e-11
-3.09129e-11
-2.84977e-11
-2.63012e-11
-2.4302e-11
-2.24797e-11
-2.08159e-11
-1.92936e-11
-1.78977e-11
-1.66147e-11
-1.54327e-11
-1.43413e-11
-1.33312e-11
-1.23946e-11
-1.15245e-11
-1.07148e-11
-9.96011e-12
-9.25573e-12
-8.59738e-12
-7.98135e-12
-7.40424e-12
-6.86327e-12
-6.35605e-12
-5.88057e-12
-5.43498e-12
-5.01757e-12
-4.62684e-12
-4.26146e-12
-3.91998e-12
-3.59432e-12
-3.28352e-12
-2.98697e-12
-2.70459e-12
-2.43643e-12
-2.18231e-12
-1.94213e-12
-1.71615e-12
-1.50495e-12
-1.30943e-12
-1.1304e-12
-9.67769e-13
-8.21351e-13
-6.91637e-13
-5.78389e-13
-4.803e-13
-3.96217e-13
-3.25202e-13
-2.65935e-13
-2.16544e-13
-1.75492e-13
-1.41823e-13
-1.14336e-13
-9.17872e-14
-7.34649e-14
-5.86187e-14
-4.66926e-14
-3.70256e-14
-2.9306e-14
-2.31041e-14
-1.81514e-14
-1.37949e-14
-1.05407e-14
-9.28461e-15
-8.03956e-15
-4.83039e-15
-1.18118e-15
-1.30939e-16
5.93379e-16
5.7212e-16
7.27975e-16
5.24955e-16
5.13854e-16
5.04042e-16
4.49609e-16
4.32e-16
3.89896e-16
3.7162e-16
3.35079e-16
3.13555e-16
2.69672e-16
2.5673e-16
2.21681e-16
2.17702e-16
2.00831e-16
1.91473e-16
1.64168e-16
1.5527e-16
1.38335e-16
1.3024e-16
1.16181e-16
1.12959e-16
8.56608e-17
6.92367e-17
2.56413e-17
9.34147e-18
-2.61464e-17
-5.03873e-17
-7.974e-17
-1.03538e-16
-1.2097e-16
-1.5025e-16
-1.72812e-16
-1.94943e-16
-2.08713e-16
-2.21515e-16
-2.20385e-16
-2.20846e-16
-2.04145e-16
-2.24268e-16
-2.35307e-16
-2.4732e-16
-2.43139e-16
-2.50091e-16
-2.41924e-16
-2.26633e-16
-1.99546e-16
-2.02735e-16
-1.82076e-16
-1.69408e-16
-1.30399e-16
-1.32465e-16
-8.68986e-17
-4.59364e-17
4.35036e-17
-1.97152e-18
-7.95481e-20
-5.21179e-18
1.5455e-17
2.34917e-17
4.0514e-17
5.85514e-17
8.64162e-17
1.00352e-16
1.11203e-16
1.27413e-16
1.36426e-16
1.47689e-16
1.52944e-16
1.53909e-16
1.54973e-16
1.71803e-16
1.79202e-16
1.872e-16
1.94127e-16
2.03029e-16
2.01988e-16
2.0377e-16
2.05288e-16
2.11151e-16
2.19137e-16
2.27444e-16
2.4408e-16
2.57655e-16
2.99955e-16
3.59293e-16
4.94709e-16
6.5575e-16
8.74297e-16
1.1024e-15
1.311e-15
1.53442e-15
1.70115e-15
1.85939e-15
1.99247e-15
2.10185e-15
2.19158e-15
2.25844e-15
2.28929e-15
2.25648e-15
2.22916e-15
2.16844e-15
2.17808e-15
1.92637e-15
1.84133e-15
1.71944e-15
1.76219e-15
1.65761e-15
1.61026e-15
1.58086e-15
1.21638e-15
2.43303e-15
2.76402e-15
3.26145e-15
2.1616e-15
4.02205e-15
2.8159e-15
2.60026e-15
)
;

boundaryField
{
    inandouthalf11
    {
        type            cyclic;
        value           nonuniform List<scalar> 
100
(
-1.36534e-10
-1.3579e-10
-1.35731e-10
-1.35872e-10
-1.35953e-10
-1.36002e-10
-1.36056e-10
-1.36116e-10
-1.36176e-10
-1.36237e-10
-1.36298e-10
-1.36359e-10
-1.3642e-10
-1.36482e-10
-1.36544e-10
-1.36607e-10
-1.3667e-10
-1.36734e-10
-1.36798e-10
-1.36863e-10
-1.36929e-10
-1.36995e-10
-1.37061e-10
-1.37128e-10
-1.37197e-10
-1.37265e-10
-1.37335e-10
-1.37405e-10
-1.37476e-10
-1.37547e-10
-1.3762e-10
-1.37693e-10
-1.37767e-10
-1.37842e-10
-1.37917e-10
-1.37994e-10
-1.38071e-10
-1.38149e-10
-1.38229e-10
-1.38308e-10
-1.38389e-10
-1.38471e-10
-1.38553e-10
-1.38637e-10
-1.38721e-10
-1.38807e-10
-1.38893e-10
-1.3898e-10
-1.39068e-10
-1.39157e-10
-1.39246e-10
-1.39337e-10
-1.39428e-10
-1.39521e-10
-1.39613e-10
-1.39708e-10
-1.39803e-10
-1.39899e-10
-1.39996e-10
-1.40093e-10
-1.40192e-10
-1.40291e-10
-1.40392e-10
-1.40493e-10
-1.40596e-10
-1.407e-10
-1.40805e-10
-1.4091e-10
-1.41017e-10
-1.41125e-10
-1.41235e-10
-1.41345e-10
-1.41456e-10
-1.41569e-10
-1.41682e-10
-1.41797e-10
-1.41912e-10
-1.42029e-10
-1.42146e-10
-1.42265e-10
-1.42383e-10
-1.42503e-10
-1.42622e-10
-1.42742e-10
-1.42862e-10
-1.42982e-10
-1.43103e-10
-1.43223e-10
-1.43343e-10
-1.43463e-10
-1.43582e-10
-1.43702e-10
-1.43821e-10
-1.4394e-10
-1.44059e-10
-1.44177e-10
-1.44296e-10
-1.44415e-10
-1.44534e-10
-1.44654e-10
)
;
    }
    inandouthalf12
    {
        type            cyclic;
        value           nonuniform List<scalar> 
100
(
1.36534e-10
1.3579e-10
1.35731e-10
1.35872e-10
1.35953e-10
1.36002e-10
1.36056e-10
1.36116e-10
1.36176e-10
1.36237e-10
1.36298e-10
1.36359e-10
1.3642e-10
1.36482e-10
1.36544e-10
1.36607e-10
1.3667e-10
1.36734e-10
1.36798e-10
1.36863e-10
1.36929e-10
1.36995e-10
1.37061e-10
1.37128e-10
1.37197e-10
1.37265e-10
1.37335e-10
1.37405e-10
1.37476e-10
1.37547e-10
1.3762e-10
1.37693e-10
1.37767e-10
1.37842e-10
1.37917e-10
1.37994e-10
1.38071e-10
1.38149e-10
1.38229e-10
1.38308e-10
1.38389e-10
1.38471e-10
1.38553e-10
1.38637e-10
1.38721e-10
1.38807e-10
1.38893e-10
1.3898e-10
1.39068e-10
1.39157e-10
1.39246e-10
1.39337e-10
1.39428e-10
1.39521e-10
1.39613e-10
1.39708e-10
1.39803e-10
1.39899e-10
1.39996e-10
1.40093e-10
1.40192e-10
1.40291e-10
1.40392e-10
1.40493e-10
1.40596e-10
1.407e-10
1.40805e-10
1.4091e-10
1.41017e-10
1.41125e-10
1.41235e-10
1.41345e-10
1.41456e-10
1.41569e-10
1.41682e-10
1.41797e-10
1.41912e-10
1.42029e-10
1.42146e-10
1.42265e-10
1.42383e-10
1.42503e-10
1.42622e-10
1.42742e-10
1.42862e-10
1.42982e-10
1.43103e-10
1.43223e-10
1.43343e-10
1.43463e-10
1.43582e-10
1.43702e-10
1.43821e-10
1.4394e-10
1.44059e-10
1.44177e-10
1.44296e-10
1.44415e-10
1.44534e-10
1.44654e-10
)
;
    }
    inandouthalf21
    {
        type            cyclic;
        value           nonuniform List<scalar> 
100
(
-1.44775e-10
-1.44896e-10
-1.45018e-10
-1.45142e-10
-1.45267e-10
-1.45393e-10
-1.45522e-10
-1.45652e-10
-1.45785e-10
-1.4592e-10
-1.46058e-10
-1.46199e-10
-1.46343e-10
-1.46491e-10
-1.46642e-10
-1.46797e-10
-1.46956e-10
-1.47119e-10
-1.47287e-10
-1.47461e-10
-1.4764e-10
-1.47825e-10
-1.48017e-10
-1.48216e-10
-1.48423e-10
-1.48639e-10
-1.48865e-10
-1.49102e-10
-1.4935e-10
-1.49611e-10
-1.49884e-10
-1.50169e-10
-1.50466e-10
-1.50775e-10
-1.51099e-10
-1.51435e-10
-1.51783e-10
-1.52148e-10
-1.52547e-10
-1.53e-10
-1.53494e-10
-1.5398e-10
-1.54539e-10
-1.5522e-10
-1.56044e-10
-1.57677e-10
-1.55467e-10
-1.57191e-10
-3.20667e-10
-1.36033e-08
-2.67008e-07
-5.6805e-07
-7.40866e-07
-8.28137e-07
-8.74119e-07
-9.02503e-07
-9.22965e-07
-9.39524e-07
-9.53915e-07
-9.6695e-07
-9.79034e-07
-9.9038e-07
-1.00111e-06
-1.01129e-06
-1.02097e-06
-1.03019e-06
-1.03898e-06
-1.04735e-06
-1.05535e-06
-1.06297e-06
-1.07025e-06
-1.07721e-06
-1.08385e-06
-1.0902e-06
-1.09627e-06
-1.10207e-06
-1.10762e-06
-1.11293e-06
-1.11802e-06
-1.12288e-06
-1.12754e-06
-1.132e-06
-1.13628e-06
-1.14037e-06
-1.14429e-06
-1.14805e-06
-1.15165e-06
-1.1551e-06
-1.1584e-06
-1.16157e-06
-1.16461e-06
-1.16752e-06
-1.17031e-06
-1.17298e-06
-1.17555e-06
-1.17801e-06
-1.18036e-06
-1.18261e-06
-1.18476e-06
-1.18682e-06
)
;
    }
    inandouthalf22
    {
        type            cyclic;
        value           nonuniform List<scalar> 
100
(
1.44775e-10
1.44896e-10
1.45018e-10
1.45142e-10
1.45267e-10
1.45393e-10
1.45522e-10
1.45652e-10
1.45785e-10
1.4592e-10
1.46058e-10
1.46199e-10
1.46343e-10
1.46491e-10
1.46642e-10
1.46797e-10
1.46956e-10
1.47119e-10
1.47287e-10
1.47461e-10
1.4764e-10
1.47825e-10
1.48017e-10
1.48216e-10
1.48423e-10
1.48639e-10
1.48865e-10
1.49102e-10
1.4935e-10
1.49611e-10
1.49884e-10
1.50169e-10
1.50466e-10
1.50775e-10
1.51099e-10
1.51435e-10
1.51783e-10
1.52148e-10
1.52547e-10
1.53e-10
1.53494e-10
1.5398e-10
1.54539e-10
1.5522e-10
1.56044e-10
1.57677e-10
1.55467e-10
1.57191e-10
3.20667e-10
1.36033e-08
2.67008e-07
5.6805e-07
7.40866e-07
8.28137e-07
8.74119e-07
9.02503e-07
9.22965e-07
9.39524e-07
9.53915e-07
9.6695e-07
9.79034e-07
9.9038e-07
1.00111e-06
1.01129e-06
1.02097e-06
1.03019e-06
1.03898e-06
1.04735e-06
1.05535e-06
1.06297e-06
1.07025e-06
1.07721e-06
1.08385e-06
1.0902e-06
1.09627e-06
1.10207e-06
1.10762e-06
1.11293e-06
1.11802e-06
1.12288e-06
1.12754e-06
1.132e-06
1.13628e-06
1.14037e-06
1.14429e-06
1.14805e-06
1.15165e-06
1.1551e-06
1.1584e-06
1.16157e-06
1.16461e-06
1.16752e-06
1.17031e-06
1.17298e-06
1.17555e-06
1.17801e-06
1.18036e-06
1.18261e-06
1.18476e-06
1.18682e-06
)
;
    }
    inandouthalf31
    {
        type            cyclic;
        value           nonuniform List<scalar> 
110
(
-1.18878e-06
-1.21484e-06
-1.24141e-06
-1.2685e-06
-1.29613e-06
-1.32431e-06
-1.35304e-06
-1.38234e-06
-1.41223e-06
-1.4427e-06
-1.47376e-06
-1.50543e-06
-1.53771e-06
-1.57062e-06
-1.60415e-06
-1.63832e-06
-1.67314e-06
-1.70861e-06
-1.74475e-06
-1.78155e-06
-1.81902e-06
-1.85717e-06
-1.89601e-06
-1.93553e-06
-1.97575e-06
-2.01666e-06
-2.05826e-06
-2.10055e-06
-2.14353e-06
-2.18719e-06
-2.23152e-06
-2.27651e-06
-2.32214e-06
-2.3684e-06
-2.41525e-06
-2.46266e-06
-2.51062e-06
-2.55906e-06
-2.60796e-06
-2.65726e-06
-2.70691e-06
-2.75689e-06
-2.80716e-06
-2.85772e-06
-2.90859e-06
-2.95987e-06
-3.01168e-06
-3.06422e-06
-3.11775e-06
-3.17254e-06
-3.22885e-06
-3.28691e-06
-3.3469e-06
-3.40895e-06
-3.47317e-06
-3.53965e-06
-3.60849e-06
-3.67977e-06
-3.75361e-06
-3.83026e-06
-3.9114e-06
-3.99699e-06
-4.07941e-06
-4.16226e-06
-4.24674e-06
-4.33294e-06
-4.42088e-06
-4.51062e-06
-4.60217e-06
-4.69558e-06
-4.79089e-06
-4.88813e-06
-4.98735e-06
-5.08858e-06
-5.19186e-06
-5.29724e-06
-5.40476e-06
-5.51447e-06
-5.62639e-06
-5.74059e-06
-5.85711e-06
-5.976e-06
-6.09729e-06
-6.22105e-06
-6.34732e-06
-6.47616e-06
-6.60761e-06
-6.74172e-06
-6.87856e-06
-7.01818e-06
-7.16063e-06
-7.30597e-06
-7.45426e-06
-7.60556e-06
-7.75994e-06
-7.91744e-06
-8.07815e-06
-8.24211e-06
-8.4094e-06
-8.58009e-06
-8.75425e-06
-8.93193e-06
-9.11323e-06
-9.2982e-06
-9.48693e-06
-9.67949e-06
-9.87596e-06
-1.00764e-05
-1.02809e-05
-1.04896e-05
)
;
    }
    inandouthalf32
    {
        type            cyclic;
        value           nonuniform List<scalar> 
110
(
1.18878e-06
1.21484e-06
1.24141e-06
1.2685e-06
1.29613e-06
1.32431e-06
1.35304e-06
1.38234e-06
1.41223e-06
1.4427e-06
1.47376e-06
1.50543e-06
1.53771e-06
1.57062e-06
1.60415e-06
1.63832e-06
1.67314e-06
1.70861e-06
1.74475e-06
1.78155e-06
1.81902e-06
1.85717e-06
1.89601e-06
1.93553e-06
1.97575e-06
2.01666e-06
2.05826e-06
2.10055e-06
2.14353e-06
2.18719e-06
2.23152e-06
2.27651e-06
2.32214e-06
2.3684e-06
2.41525e-06
2.46266e-06
2.51062e-06
2.55906e-06
2.60796e-06
2.65726e-06
2.70691e-06
2.75689e-06
2.80716e-06
2.85772e-06
2.90859e-06
2.95987e-06
3.01168e-06
3.06422e-06
3.11775e-06
3.17254e-06
3.22885e-06
3.28691e-06
3.3469e-06
3.40895e-06
3.47317e-06
3.53965e-06
3.60849e-06
3.67977e-06
3.75361e-06
3.83026e-06
3.9114e-06
3.99699e-06
4.07941e-06
4.16226e-06
4.24674e-06
4.33294e-06
4.42088e-06
4.51062e-06
4.60217e-06
4.69558e-06
4.79089e-06
4.88813e-06
4.98735e-06
5.08858e-06
5.19186e-06
5.29724e-06
5.40476e-06
5.51447e-06
5.62639e-06
5.74059e-06
5.85711e-06
5.976e-06
6.09729e-06
6.22105e-06
6.34732e-06
6.47616e-06
6.60761e-06
6.74172e-06
6.87856e-06
7.01818e-06
7.16063e-06
7.30597e-06
7.45426e-06
7.60556e-06
7.75994e-06
7.91744e-06
8.07815e-06
8.24211e-06
8.4094e-06
8.58009e-06
8.75425e-06
8.93193e-06
9.11323e-06
9.2982e-06
9.48693e-06
9.67949e-06
9.87596e-06
1.00764e-05
1.02809e-05
1.04896e-05
)
;
    }
    inandouthalf41
    {
        type            cyclic;
        value           nonuniform List<scalar> 
50
(
-9.38927e-06
-9.38927e-06
-9.38927e-06
-9.38927e-06
-9.38927e-06
-9.38927e-06
-9.38927e-06
-9.38927e-06
-9.38927e-06
-9.38927e-06
-9.38927e-06
-9.38927e-06
-9.38927e-06
-9.38927e-06
-9.38927e-06
-9.38927e-06
-9.38927e-06
-9.38927e-06
-9.38927e-06
-9.38927e-06
-9.38927e-06
-9.38927e-06
-9.38927e-06
-9.38927e-06
-9.38927e-06
-9.38927e-06
-9.38927e-06
-9.38927e-06
-9.38927e-06
-9.38927e-06
-9.38927e-06
-9.38927e-06
-9.38927e-06
-9.38927e-06
-9.38927e-06
-9.38927e-06
-9.38927e-06
-9.38927e-06
-9.38927e-06
-9.38927e-06
-9.38927e-06
-9.38927e-06
-9.38927e-06
-9.38927e-06
-9.38927e-06
-9.38927e-06
-9.38927e-06
-9.38927e-06
-9.38927e-06
-9.38927e-06
)
;
    }
    inandouthalf42
    {
        type            cyclic;
        value           nonuniform List<scalar> 
50
(
9.38927e-06
9.38927e-06
9.38927e-06
9.38927e-06
9.38927e-06
9.38927e-06
9.38927e-06
9.38927e-06
9.38927e-06
9.38927e-06
9.38927e-06
9.38927e-06
9.38927e-06
9.38927e-06
9.38927e-06
9.38927e-06
9.38927e-06
9.38927e-06
9.38927e-06
9.38927e-06
9.38927e-06
9.38927e-06
9.38927e-06
9.38927e-06
9.38927e-06
9.38927e-06
9.38927e-06
9.38927e-06
9.38927e-06
9.38927e-06
9.38927e-06
9.38927e-06
9.38927e-06
9.38927e-06
9.38927e-06
9.38927e-06
9.38927e-06
9.38927e-06
9.38927e-06
9.38927e-06
9.38927e-06
9.38927e-06
9.38927e-06
9.38927e-06
9.38927e-06
9.38927e-06
9.38927e-06
9.38927e-06
9.38927e-06
9.38927e-06
)
;
    }
    top
    {
        type            symmetryPlane;
        value           uniform 0;
    }
    walls
    {
        type            calculated;
        value           uniform 0;
    }
    frontAndBackPlanes
    {
        type            empty;
        value           nonuniform 0();
    }
}


// ************************************************************************* //
