/*--------------------------------*- C++ -*----------------------------------*\
| =========                 |                                                 |
| \\      /  F ield         | OpenFOAM: The Open Source CFD Toolbox           |
|  \\    /   O peration     | Version:  2.4.x                                 |
|   \\  /    A nd           | Web:      www.OpenFOAM.org                      |
|    \\/     M anipulation  |                                                 |
\*---------------------------------------------------------------------------*/
FoamFile
{
    version     2.0;
    format      ascii;
    class       volScalarField;
    location    "7.45";
    object      epsilon_0;
}
// * * * * * * * * * * * * * * * * * * * * * * * * * * * * * * * * * * * * * //

dimensions      [0 2 -3 0 0 0 0];

internalField   nonuniform List<scalar> 
360
(
1.60309e-27
1e-20
1e-20
1e-20
1e-20
1e-20
1e-20
1e-20
1e-20
1e-20
1e-20
1e-20
1e-20
1e-20
1e-20
1e-20
1e-20
1e-20
1e-20
1e-20
1e-20
1e-20
1e-20
1e-20
1e-20
1e-20
1e-20
1e-20
1e-20
1e-20
1e-20
1e-20
1e-20
1e-20
1e-20
1e-20
1e-20
1e-20
1e-20
1e-20
1e-20
1e-20
1e-20
1e-20
1e-20
1e-20
1e-20
1e-20
1e-20
1e-20
1e-20
1e-20
1e-20
1e-20
1e-20
1e-20
1e-20
1e-20
1e-20
1e-20
1e-20
1e-20
1e-20
1e-20
1e-20
1e-20
1e-20
1e-20
1e-20
1e-20
1e-20
1e-20
1e-20
1e-20
1e-20
1e-20
1e-20
1e-20
1e-20
1e-20
1e-20
1e-20
1e-20
1e-20
1e-20
1e-20
1e-20
1e-20
1e-20
1e-20
1e-20
1e-20
1e-20
1e-20
1e-20
1e-20
1e-20
1e-20
1e-20
1e-20
1e-20
1e-20
1e-20
1e-20
1e-20
1e-20
1e-20
1e-20
1e-20
1e-20
1e-20
1e-20
1e-20
1e-20
1e-20
1e-20
1e-20
1e-20
1e-20
1e-20
1e-20
1e-20
1e-20
1e-20
1e-20
1e-20
1e-20
1e-20
1e-20
1e-20
1e-20
1e-20
1e-20
1.67734e-20
6.70006e-20
3.08193e-19
1.53904e-18
8.35781e-18
4.87475e-17
2.98216e-16
1.88279e-15
1.24481e-14
9.25615e-14
8.78662e-13
1.18935e-11
2.3245e-10
6.21675e-09
2.16157e-07
9.72012e-06
0.000545432
0.0189822
0.0202011
0.0118608
0.00856678
0.0072361
0.0066848
0.00649097
0.00648237
0.00657777
0.00673396
0.00692571
0.00713718
0.00735784
0.00758048
0.00779998
0.00801269
0.00821597
0.00840793
0.00858726
0.00875304
0.00890471
0.00904194
0.00916462
0.00927279
0.00936661
0.00944633
0.00951229
0.00956488
0.00960453
0.0096317
0.00964688
0.00965057
0.00964329
0.00962554
0.00959784
0.0095607
0.00951463
0.00946011
0.00939763
0.00932766
0.00925067
0.00916709
0.00907738
0.00898193
0.00888116
0.00877546
0.00866521
0.00855076
0.00843247
0.00831067
0.00818568
0.00805652
0.00792202
0.00778227
0.00763737
0.00748741
0.00733252
0.0071728
0.00700839
0.00683942
0.00666605
0.00648842
0.00630672
0.00612111
0.00593182
0.00573903
0.00554298
0.00534392
0.0051421
0.00493781
0.00473134
0.00452303
0.00431323
0.0041023
0.00389065
0.00367872
0.00346697
0.0032559
0.00304604
0.00283797
0.0026323
0.0024297
0.00223084
0.00203649
0.0018474
0.0016644
0.00148833
0.00132006
0.00116045
0.00101038
0.000870645
0.000742004
0.000625082
0.000520339
0.000428015
0.000348076
0.000280174
0.000223629
0.000177444
0.000140374
0.000111012
8.79097e-05
6.96881e-05
5.51212e-05
4.31933e-05
3.31277e-05
2.4397e-05
1.67253e-05
1.00855e-05
4.71097e-06
1.1698e-06
8.99015e-08
2.51066e-09
5.58872e-11
1.16717e-12
2.29788e-14
4.26351e-16
7.45989e-18
1.3007e-19
1.04804e-20
1e-20
1e-20
1e-20
1e-20
1e-20
1e-20
1e-20
1e-20
1e-20
1e-20
1e-20
1e-20
1e-20
1e-20
1e-20
1e-20
1e-20
1e-20
1e-20
1e-20
1e-20
1e-20
1e-20
1e-20
1e-20
1e-20
1e-20
1e-20
1e-20
1e-20
1e-20
1e-20
1e-20
1e-20
1e-20
1e-20
1e-20
1e-20
1e-20
1e-20
1e-20
1e-20
1e-20
1e-20
1e-20
1e-20
1e-20
1e-20
1e-20
1e-20
1e-20
1e-20
1e-20
1e-20
1e-20
1e-20
1e-20
1e-20
1e-20
1e-20
1e-20
1e-20
1e-20
1e-20
1e-20
1e-20
1e-20
1e-20
1e-20
1e-20
1e-20
1e-20
1e-20
1e-20
1e-20
1e-20
1e-20
1e-20
1e-20
1e-20
1e-20
1e-20
1e-20
1e-20
1e-20
1e-20
1e-20
1e-20
1e-20
1e-20
)
;

boundaryField
{
    inandouthalf11
    {
        type            cyclic;
    }
    inandouthalf12
    {
        type            cyclic;
    }
    inandouthalf21
    {
        type            cyclic;
    }
    inandouthalf22
    {
        type            cyclic;
    }
    inandouthalf31
    {
        type            cyclic;
    }
    inandouthalf32
    {
        type            cyclic;
    }
    inandouthalf41
    {
        type            cyclic;
    }
    inandouthalf42
    {
        type            cyclic;
    }
    top
    {
        type            symmetryPlane;
    }
    walls
    {
        type            zeroGradient;
    }
    frontAndBackPlanes
    {
        type            empty;
    }
}


// ************************************************************************* //
