/*--------------------------------*- C++ -*----------------------------------*\
| =========                 |                                                 |
| \\      /  F ield         | OpenFOAM: The Open Source CFD Toolbox           |
|  \\    /   O peration     | Version:  2.4.x                                 |
|   \\  /    A nd           | Web:      www.OpenFOAM.org                      |
|    \\/     M anipulation  |                                                 |
\*---------------------------------------------------------------------------*/
FoamFile
{
    version     2.0;
    format      ascii;
    class       volVectorField;
    location    "7.45";
    object      gradPs;
}
// * * * * * * * * * * * * * * * * * * * * * * * * * * * * * * * * * * * * * //

dimensions      [0 1 -2 0 0 0 0];

internalField   nonuniform List<vector> 
360
(
(0 1.54508e-18 0)
(0 1.68647e-18 0)
(0 -1.83962e-20 0)
(0 -2.39004e-19 0)
(-1.45057e-32 -1.0318e-19 0)
(-2.90122e-32 -5.79053e-20 0)
(-1.45065e-32 -7.21707e-20 0)
(0 -8.1439e-20 0)
(-1.45076e-32 -8.27206e-20 0)
(0 -8.34872e-20 0)
(-2.90174e-32 -8.36263e-20 0)
(0 -8.37462e-20 0)
(-1.45098e-32 -8.42722e-20 0)
(0 -8.48236e-20 0)
(0 -8.56435e-20 0)
(0 -8.64791e-20 0)
(0 -8.70977e-20 0)
(-1.45127e-32 -8.76228e-20 0)
(0 -8.85652e-20 0)
(0 -8.91558e-20 0)
(0 -8.97911e-20 0)
(-1.45151e-32 -9.08203e-20 0)
(0 -9.15057e-20 0)
(0 -9.23563e-20 0)
(0 -9.32441e-20 0)
(-1.45176e-32 -9.39259e-20 0)
(0 -9.49402e-20 0)
(0 -9.60094e-20 0)
(0 -9.67337e-20 0)
(0 -9.76025e-20 0)
(0 -9.89147e-20 0)
(0 -9.95082e-20 0)
(0 -1.00713e-19 0)
(0 -1.01949e-19 0)
(0 -1.02673e-19 0)
(1.45242e-32 -1.03802e-19 0)
(0 -1.04827e-19 0)
(0 -1.06492e-19 0)
(0 -1.06925e-19 0)
(0 -1.08226e-19 0)
(0 -1.10076e-19 0)
(0 -1.1033e-19 0)
(1.45293e-32 -1.11996e-19 0)
(0 -1.13492e-19 0)
(0 -1.14377e-19 0)
(0 -1.16226e-19 0)
(0 -1.16921e-19 0)
(0 -1.1802e-19 0)
(0 -1.20508e-19 0)
(0 -1.21268e-19 0)
(1.45356e-32 -1.22328e-19 0)
(0 -1.2419e-19 0)
(0 -1.25664e-19 0)
(0 -1.26806e-19 0)
(0 -1.28649e-19 0)
(0 -1.30125e-19 0)
(0 -1.31486e-19 0)
(0 -1.33555e-19 0)
(0 -1.34216e-19 0)
(0 -1.36467e-19 0)
(0 -1.38147e-19 0)
(0 -1.39516e-19 0)
(0 -1.41578e-19 0)
(0 -1.43068e-19 0)
(0 -1.44849e-19 0)
(0 -1.46785e-19 0)
(0 -1.49053e-19 0)
(0 -1.50918e-19 0)
(0 -1.52349e-19 0)
(0 -1.54793e-19 0)
(0 -1.5779e-19 0)
(0 -1.59015e-19 0)
(0 -1.61261e-19 0)
(0 -1.64193e-19 0)
(0 -1.66763e-19 0)
(0 -1.69297e-19 0)
(0 -1.71609e-19 0)
(0 -1.74737e-19 0)
(0 -1.77804e-19 0)
(0 -1.80536e-19 0)
(0 -1.83472e-19 0)
(0 -1.86763e-19 0)
(0 -1.89857e-19 0)
(0 -1.93044e-19 0)
(0 -1.96324e-19 0)
(0 -1.99715e-19 0)
(0 -2.03131e-19 0)
(0 -2.065e-19 0)
(0 -2.10071e-19 0)
(0 -2.13702e-19 0)
(0 -2.17319e-19 0)
(0 -2.21078e-19 0)
(0 -2.24958e-19 0)
(0 -2.28876e-19 0)
(0 -2.32898e-19 0)
(0 -2.37038e-19 0)
(0 -2.41292e-19 0)
(0 -2.45687e-19 0)
(0 -2.50262e-19 0)
(0 -2.5503e-19 0)
(0 -2.6e-19 0)
(0 -2.65201e-19 0)
(0 -2.70638e-19 0)
(0 -2.76311e-19 0)
(0 -2.82236e-19 0)
(0 -2.88427e-19 0)
(0 -2.94897e-19 0)
(0 -3.01664e-19 0)
(0 -3.08744e-19 0)
(0 -3.1615e-19 0)
(0 -3.23893e-19 0)
(0 -3.31988e-19 0)
(0 -3.40445e-19 0)
(0 -3.49277e-19 0)
(0 -3.58497e-19 0)
(0 -3.6812e-19 0)
(0 -3.78165e-19 0)
(0 -3.88655e-19 0)
(0 -3.9962e-19 0)
(0 -4.11097e-19 0)
(0 -4.2313e-19 0)
(0 -4.35768e-19 0)
(0 -4.49075e-19 0)
(0 -4.63143e-19 0)
(0 -4.78133e-19 0)
(0 -4.94302e-19 0)
(0 -5.11997e-19 0)
(0 -5.31536e-19 0)
(0 -5.5297e-19 0)
(0 -5.75888e-19 0)
(0 -5.99773e-19 0)
(0 -6.24946e-19 0)
(0 8.47658e-17 0)
(0 7.55299e-16 0)
(0 3.62293e-15 0)
(0 1.65628e-14 0)
(0 8.13538e-14 0)
(0 4.26688e-13 0)
(0 2.31796e-12 0)
(0 1.26268e-11 0)
(0 6.82751e-11 0)
(0 3.87534e-10 0)
(0 2.6728e-09 0)
(0 2.62858e-08 0)
(0 3.82902e-07 0)
(0 7.93468e-06 0)
(0 0.000393471 0)
(0 0.0322358 0)
(0 0.807186 0)
(0 0.177896 0)
(0 -2.60388 0)
(0 -2.24783 0)
(0 -1.77565 0)
(0 -1.193 0)
(0 -0.872111 0)
(0 -0.696877 0)
(0 -0.597521 0)
(0 -0.53326 0)
(0 -0.488476 0)
(0 -0.456298 0)
(0 -0.432226 0)
(0 -0.414417 0)
(0 -0.401517 0)
(0 -0.392484 0)
(0 -0.386569 0)
(0 -0.383183 0)
(0 -0.381849 0)
(0 -0.382173 0)
(0 -0.383821 0)
(0 -0.386504 0)
(0 -0.389969 0)
(0 -0.393995 0)
(0 -0.398383 0)
(0 -0.402956 0)
(0 -0.407558 0)
(0 -0.412053 0)
(0 -0.416322 0)
(0 -0.420267 0)
(0 -0.423805 0)
(0 -0.426874 0)
(0 -0.429427 0)
(0 -0.431434 0)
(0 -0.432881 0)
(0 -0.433767 0)
(0 -0.434107 0)
(0 -0.433926 0)
(0 -0.433262 0)
(0 -0.432162 0)
(0 -0.430681 0)
(0 -0.428878 0)
(0 -0.426806 0)
(0 -0.424512 0)
(0 -0.422031 0)
(0 -0.41939 0)
(0 -0.416632 0)
(0 -0.413817 0)
(0 -0.411028 0)
(0 -0.408346 0)
(0 -0.405852 0)
(0 -0.403663 0)
(0 -0.401909 0)
(0 -0.400673 0)
(-1.75589e-16 -0.399887 0)
(0 -0.399341 0)
(0 -0.398855 0)
(2.02142e-16 -0.398285 0)
(0 -0.397361 0)
(-2.24276e-16 -0.395618 0)
(0 -0.392472 0)
(1.25421e-16 -0.387431 0)
(0 -0.379973 0)
(0 -0.369904 0)
(0 -0.357094 0)
(7.9517e-17 -0.340951 0)
(0 -0.321492 0)
(0 -0.299718 0)
(0 -0.276039 0)
(0 -0.250694 0)
(0 -0.224642 0)
(-5.40023e-17 -0.198994 0)
(0 -0.174436 0)
(-5.77872e-17 -0.150879 0)
(0 -0.12884 0)
(0 -0.109043 0)
(0 -0.0912545 0)
(0 -0.0754232 0)
(0 -0.0617446 0)
(0 -0.0500224 0)
(7.88356e-18 -0.0401612 0)
(7.8635e-18 -0.0318184 0)
(0 -0.025023 0)
(0 -0.0194201 0)
(0 -0.014876 0)
(0 -0.0108316 0)
(0 -0.00815946 0)
(0 -0.00814429 0)
(0 -0.00427765 0)
(0 0 0)
(0 0 0)
(0 0 0)
(0 0 0)
(0 0 0)
(0 0 0)
(0 0 0)
(0 0 0)
(0 0 0)
(0 0 0)
(0 0 0)
(0 0 0)
(0 0 0)
(0 0 0)
(0 0 0)
(0 0 0)
(0 0 0)
(0 0 0)
(0 0 0)
(0 0 0)
(0 0 0)
(0 0 0)
(0 0 0)
(0 0 0)
(0 0 0)
(0 0 0)
(0 0 0)
(0 0 0)
(0 0 0)
(0 0 0)
(0 0 0)
(0 0 0)
(0 0 0)
(0 0 0)
(0 0 0)
(0 0 0)
(0 0 0)
(0 0 0)
(0 0 0)
(0 0 0)
(0 0 0)
(0 0 0)
(0 0 0)
(0 0 0)
(0 0 0)
(0 0 0)
(0 0 0)
(0 0 0)
(0 0 0)
(0 0 0)
(0 0 0)
(0 0 0)
(0 0 0)
(0 0 0)
(0 0 0)
(0 0 0)
(0 0 0)
(0 0 0)
(0 0 0)
(0 0 0)
(0 0 0)
(0 0 0)
(0 0 0)
(0 0 0)
(0 0 0)
(0 0 0)
(0 0 0)
(0 0 0)
(0 0 0)
(0 0 0)
(0 0 0)
(0 0 0)
(0 0 0)
(0 0 0)
(0 0 0)
(0 0 0)
(0 0 0)
(0 0 0)
(0 0 0)
(0 0 0)
(0 0 0)
(0 0 0)
(0 0 0)
(0 0 0)
(0 0 0)
(0 0 0)
(0 0 0)
(0 0 0)
(0 0 0)
(0 0 0)
(0 0 0)
(0 0 0)
(0 0 0)
(0 0 0)
(0 0 0)
(0 0 0)
(0 0 0)
(0 0 0)
(0 0 0)
(0 0 0)
(0 0 0)
(0 0 0)
(0 0 0)
(0 0 0)
(0 0 0)
(0 0 0)
(0 0 0)
(0 0 0)
(0 0 0)
(0 0 0)
(0 0 0)
(0 0 0)
(0 0 0)
(0 0 0)
(0 0 0)
(0 0 0)
(0 0 0)
(0 0 0)
(0 0 0)
(0 0 0)
(0 0 0)
(0 0 0)
(0 0 0)
)
;

boundaryField
{
    inandouthalf11
    {
        type            cyclic;
    }
    inandouthalf12
    {
        type            cyclic;
    }
    inandouthalf21
    {
        type            cyclic;
    }
    inandouthalf22
    {
        type            cyclic;
    }
    inandouthalf31
    {
        type            cyclic;
    }
    inandouthalf32
    {
        type            cyclic;
    }
    inandouthalf41
    {
        type            cyclic;
    }
    inandouthalf42
    {
        type            cyclic;
    }
    top
    {
        type            symmetryPlane;
    }
    walls
    {
        type            calculated;
        value           uniform (0 0 0);
    }
    frontAndBackPlanes
    {
        type            empty;
    }
}


// ************************************************************************* //
