/*--------------------------------*- C++ -*----------------------------------*\
| =========                 |                                                 |
| \\      /  F ield         | OpenFOAM: The Open Source CFD Toolbox           |
|  \\    /   O peration     | Version:  2.4.x                                 |
|   \\  /    A nd           | Web:      www.OpenFOAM.org                      |
|    \\/     M anipulation  |                                                 |
\*---------------------------------------------------------------------------*/
FoamFile
{
    version     2.0;
    format      ascii;
    class       volScalarField;
    location    "7.45";
    object      k;
}
// * * * * * * * * * * * * * * * * * * * * * * * * * * * * * * * * * * * * * //

dimensions      [0 2 -2 0 0 0 0];

internalField   nonuniform List<scalar> 
360
(
1e-20
1e-20
1e-20
1e-20
1e-20
1e-20
1e-20
1e-20
1e-20
1e-20
1e-20
1e-20
1e-20
1e-20
1e-20
1e-20
1e-20
1e-20
1e-20
1e-20
1e-20
1e-20
1e-20
1e-20
1e-20
1e-20
1e-20
1e-20
1e-20
1e-20
1e-20
1e-20
1e-20
1e-20
1e-20
1e-20
1e-20
1e-20
1e-20
1e-20
1e-20
1e-20
1e-20
1e-20
1e-20
1e-20
1e-20
1e-20
1e-20
1e-20
1e-20
1e-20
1e-20
1e-20
1e-20
1e-20
1e-20
1e-20
1e-20
1e-20
1e-20
1e-20
1e-20
1e-20
1e-20
1e-20
1e-20
1e-20
1e-20
1e-20
1e-20
1e-20
1e-20
1e-20
1e-20
1e-20
1e-20
1e-20
1e-20
1e-20
1e-20
1e-20
1e-20
1e-20
1e-20
1e-20
1e-20
1e-20
1e-20
1e-20
1e-20
1e-20
1e-20
1e-20
1e-20
1e-20
1e-20
1e-20
1e-20
1e-20
1e-20
1e-20
1e-20
1e-20
1e-20
1e-20
1e-20
1e-20
1e-20
1e-20
1e-20
1e-20
1e-20
1e-20
1e-20
1e-20
1e-20
1e-20
1e-20
1e-20
1e-20
1e-20
1e-20
1e-20
1e-20
1e-20
1e-20
1e-20
1e-20
1e-20
1e-20
1e-20
1e-20
1.5044e-20
5.47407e-20
2.29964e-19
1.03933e-18
5.07657e-18
2.65162e-17
1.43814e-16
7.84161e-16
4.2502e-15
2.41737e-14
1.66453e-13
1.63116e-12
2.38585e-11
4.91949e-10
1.32308e-08
4.61277e-07
2.01622e-05
0.000636405
0.00138041
0.00154764
0.00173556
0.00193135
0.00212397
0.0023109
0.00249186
0.00266691
0.00283606
0.00299924
0.00315634
0.00330722
0.00345176
0.00358984
0.0037214
0.00384639
0.0039648
0.00407665
0.00418197
0.00428084
0.00437333
0.00445954
0.0045396
0.00461361
0.00468173
0.00474408
0.00480082
0.00485209
0.00489804
0.00493884
0.00497463
0.00500557
0.00503181
0.0050535
0.0050708
0.00508386
0.00509282
0.00509782
0.00509901
0.00509653
0.00509051
0.00508108
0.00506839
0.00505255
0.00503368
0.00501192
0.00498738
0.00496018
0.00493042
0.00489823
0.00486335
0.00482543
0.0047844
0.00474024
0.0046929
0.00464233
0.0045885
0.00453136
0.00447088
0.00440704
0.00433979
0.00426912
0.00419501
0.00411743
0.00403639
0.00395187
0.00386389
0.00377246
0.0036776
0.00357934
0.00347774
0.00337285
0.00326476
0.00315355
0.00303935
0.00292229
0.00280254
0.00268028
0.00255575
0.00242919
0.00230091
0.00217125
0.00204061
0.00190942
0.00177819
0.00164749
0.00151795
0.00139027
0.00126522
0.00114362
0.00102636
0.000914334
0.000808448
0.000709551
0.000618383
0.000535501
0.000461212
0.00039551
0.00033805
0.000288167
0.000244938
0.000207285
0.000174083
0.000144271
0.000116942
9.14232e-05
6.73426e-05
4.47228e-05
2.41751e-05
7.48015e-06
6.91959e-07
2.00612e-08
4.43115e-10
9.17264e-12
1.79084e-13
3.29679e-15
5.72166e-17
9.41537e-19
2.19577e-20
1e-20
1e-20
1e-20
1e-20
1e-20
1e-20
1e-20
1e-20
1e-20
1e-20
1e-20
1e-20
1e-20
1e-20
1e-20
1e-20
1e-20
1e-20
1e-20
1e-20
1e-20
1e-20
1e-20
1e-20
1e-20
1e-20
1e-20
1e-20
1e-20
1e-20
1e-20
1e-20
1e-20
1e-20
1e-20
1e-20
1e-20
1e-20
1e-20
1e-20
1e-20
1e-20
1e-20
1e-20
1e-20
1e-20
1e-20
1e-20
1e-20
1e-20
1e-20
1e-20
1e-20
1e-20
1e-20
1e-20
1e-20
1e-20
1e-20
1e-20
1e-20
1e-20
1e-20
1e-20
1e-20
1e-20
1e-20
1e-20
1e-20
1e-20
1e-20
1e-20
1e-20
1e-20
1e-20
1e-20
1e-20
1e-20
1e-20
1e-20
1e-20
1e-20
1e-20
1e-20
1e-20
1e-20
1e-20
1e-20
1e-20
1e-20
)
;

boundaryField
{
    inandouthalf11
    {
        type            cyclic;
    }
    inandouthalf12
    {
        type            cyclic;
    }
    inandouthalf21
    {
        type            cyclic;
    }
    inandouthalf22
    {
        type            cyclic;
    }
    inandouthalf31
    {
        type            cyclic;
    }
    inandouthalf32
    {
        type            cyclic;
    }
    inandouthalf41
    {
        type            cyclic;
    }
    inandouthalf42
    {
        type            cyclic;
    }
    top
    {
        type            symmetryPlane;
    }
    walls
    {
        type            zeroGradient;
    }
    frontAndBackPlanes
    {
        type            empty;
    }
}


// ************************************************************************* //
