/*--------------------------------*- C++ -*----------------------------------*\
| =========                 |                                                 |
| \\      /  F ield         | OpenFOAM: The Open Source CFD Toolbox           |
|  \\    /   O peration     | Version:  2.4.x                                 |
|   \\  /    A nd           | Web:      www.OpenFOAM.org                      |
|    \\/     M anipulation  |                                                 |
\*---------------------------------------------------------------------------*/
FoamFile
{
    version     2.0;
    format      ascii;
    class       volScalarField;
    location    "7.45";
    object      nutb;
}
// * * * * * * * * * * * * * * * * * * * * * * * * * * * * * * * * * * * * * //

dimensions      [0 2 -1 0 0 0 0];

internalField   nonuniform List<scalar> 
360
(
9e-22
9e-22
9e-22
9e-22
9e-22
9e-22
9e-22
9e-22
9e-22
9e-22
9e-22
9e-22
9e-22
9e-22
9e-22
9e-22
9e-22
9e-22
9e-22
9e-22
9e-22
9e-22
9e-22
9e-22
9e-22
9e-22
9e-22
9e-22
9e-22
9e-22
9e-22
9e-22
9e-22
9e-22
9e-22
9e-22
9e-22
9e-22
9e-22
9e-22
9e-22
9e-22
9e-22
9e-22
9e-22
9e-22
9e-22
9e-22
9e-22
9e-22
9e-22
9e-22
9e-22
9e-22
9e-22
9e-22
9e-22
9e-22
9e-22
9e-22
9e-22
9e-22
9e-22
9e-22
9e-22
9e-22
9e-22
9e-22
9e-22
9e-22
9e-22
9e-22
9e-22
9e-22
9e-22
9e-22
9e-22
9e-22
9e-22
9e-22
9e-22
9e-22
9e-22
9e-22
9e-22
9e-22
9e-22
9e-22
9e-22
9e-22
9e-22
9e-22
9e-22
9e-22
9e-22
9e-22
9e-22
9e-22
9e-22
9e-22
9e-22
9e-22
9e-22
9e-22
9e-22
9e-22
9e-22
9e-22
9e-22
9e-22
9e-22
9e-22
9e-22
9e-22
9e-22
9e-22
9e-22
9e-22
9e-22
9e-22
9e-22
9e-22
9e-22
9e-22
9e-22
9e-22
9e-22
9e-22
9e-22
9e-22
9e-22
9e-22
9e-22
1.21472e-21
4.02643e-21
1.54474e-20
6.31828e-20
2.77593e-19
1.2987e-18
6.24667e-18
2.94286e-17
1.30816e-16
5.69247e-16
2.84267e-15
2.01561e-14
2.2049e-13
3.50305e-12
7.28329e-11
1.96762e-09
6.6959e-08
1.9164e-06
8.46993e-06
1.81416e-05
3.16069e-05
4.63606e-05
6.07152e-05
7.40373e-05
8.62163e-05
9.73352e-05
0.000107531
0.000116939
0.000125679
0.000133847
0.000141522
0.000148766
0.000155627
0.000162143
0.000168347
0.000174261
0.000179908
0.000185302
0.000190459
0.000195389
0.000200103
0.000204609
0.000208915
0.000213027
0.000216951
0.000220692
0.000224256
0.000227646
0.000230866
0.000233921
0.000236813
0.000239546
0.000242124
0.000244549
0.000246823
0.00024895
0.000250932
0.000252772
0.000254472
0.000256034
0.000257461
0.000258755
0.000259918
0.000260952
0.00026186
0.000262642
0.000263302
0.000263841
0.000264265
0.000264574
0.000264764
0.000264828
0.000264761
0.000264557
0.00026421
0.000263714
0.000263062
0.000262248
0.000261266
0.000260109
0.000258769
0.000257241
0.000255516
0.000253589
0.000251452
0.000249098
0.00024652
0.000243711
0.000240666
0.000237377
0.000233839
0.000230047
0.000225996
0.000221681
0.0002171
0.00021225
0.00020713
0.000201742
0.000196088
0.000190173
0.000184004
0.000177593
0.000170953
0.000164102
0.000157066
0.000149873
0.000142558
0.000135163
0.000127737
0.000120333
0.000113012
0.000105829
9.88396e-05
9.2083e-05
8.55778e-05
7.93129e-05
7.32446e-05
6.73028e-05
6.14053e-05
5.54782e-05
4.94712e-05
4.33619e-05
3.71471e-05
3.08278e-05
2.43978e-05
1.78425e-05
1.11587e-05
4.29949e-06
4.78312e-07
1.43905e-08
3.15387e-10
6.47071e-12
1.25275e-13
2.28804e-15
3.93854e-17
6.11737e-19
4.13884e-21
9e-22
9e-22
9e-22
9e-22
9e-22
9e-22
9e-22
9e-22
9e-22
9e-22
9e-22
9e-22
9e-22
9e-22
9e-22
9e-22
9e-22
9e-22
9e-22
9e-22
9e-22
9e-22
9e-22
9e-22
9e-22
9e-22
9e-22
9e-22
9e-22
9e-22
9e-22
9e-22
9e-22
9e-22
9e-22
9e-22
9e-22
9e-22
9e-22
9e-22
9e-22
9e-22
9e-22
9e-22
9e-22
9e-22
9e-22
9e-22
9e-22
9e-22
9e-22
9e-22
9e-22
9e-22
9e-22
9e-22
9e-22
9e-22
9e-22
9e-22
9e-22
9e-22
9e-22
9e-22
9e-22
9e-22
9e-22
9e-22
9e-22
9e-22
9e-22
9e-22
9e-22
9e-22
9e-22
9e-22
9e-22
9e-22
9e-22
9e-22
9e-22
9e-22
9e-22
9e-22
9e-22
9e-22
9e-22
9e-22
9e-22
9e-22
)
;

boundaryField
{
    inandouthalf11
    {
        type            cyclic;
    }
    inandouthalf12
    {
        type            cyclic;
    }
    inandouthalf21
    {
        type            cyclic;
    }
    inandouthalf22
    {
        type            cyclic;
    }
    inandouthalf31
    {
        type            cyclic;
    }
    inandouthalf32
    {
        type            cyclic;
    }
    inandouthalf41
    {
        type            cyclic;
    }
    inandouthalf42
    {
        type            cyclic;
    }
    top
    {
        type            symmetryPlane;
    }
    walls
    {
        type            calculated;
        value           uniform 0;
    }
    frontAndBackPlanes
    {
        type            empty;
    }
}


// ************************************************************************* //
