/*--------------------------------*- C++ -*----------------------------------*\
| =========                 |                                                 |
| \\      /  F ield         | OpenFOAM: The Open Source CFD Toolbox           |
|  \\    /   O peration     | Version:  2.4.x                                 |
|   \\  /    A nd           | Web:      www.OpenFOAM.org                      |
|    \\/     M anipulation  |                                                 |
\*---------------------------------------------------------------------------*/
FoamFile
{
    version     2.0;
    format      ascii;
    class       volScalarField;
    location    "7.45";
    object      pa;
}
// * * * * * * * * * * * * * * * * * * * * * * * * * * * * * * * * * * * * * //

dimensions      [1 -1 -2 0 0 0 0];

internalField   nonuniform List<scalar> 
360
(
2.90169e-16
2.9267e-16
2.92902e-16
2.9264e-16
2.92515e-16
2.92473e-16
2.92421e-16
2.92356e-16
2.92289e-16
2.92222e-16
2.92154e-16
2.92086e-16
2.92018e-16
2.9195e-16
2.91881e-16
2.91811e-16
2.9174e-16
2.9167e-16
2.91598e-16
2.91526e-16
2.91454e-16
2.91381e-16
2.91307e-16
2.91233e-16
2.91157e-16
2.91082e-16
2.91005e-16
2.90928e-16
2.9085e-16
2.90771e-16
2.90692e-16
2.90611e-16
2.90531e-16
2.90448e-16
2.90366e-16
2.90282e-16
2.90198e-16
2.90112e-16
2.90025e-16
2.89939e-16
2.8985e-16
2.89761e-16
2.89672e-16
2.8958e-16
2.89488e-16
2.89395e-16
2.893e-16
2.89206e-16
2.89109e-16
2.89011e-16
2.88913e-16
2.88813e-16
2.88712e-16
2.8861e-16
2.88507e-16
2.88401e-16
2.88297e-16
2.88189e-16
2.88081e-16
2.87972e-16
2.8786e-16
2.87749e-16
2.87635e-16
2.8752e-16
2.87403e-16
2.87286e-16
2.87166e-16
2.87045e-16
2.86922e-16
2.86799e-16
2.86672e-16
2.86544e-16
2.86415e-16
2.86283e-16
2.8615e-16
2.86014e-16
2.85877e-16
2.85737e-16
2.85595e-16
2.8545e-16
2.85303e-16
2.85154e-16
2.85002e-16
2.84848e-16
2.8469e-16
2.84531e-16
2.84368e-16
2.84203e-16
2.84035e-16
2.83864e-16
2.8369e-16
2.83514e-16
2.83334e-16
2.83151e-16
2.82965e-16
2.82776e-16
2.82583e-16
2.82387e-16
2.82187e-16
2.81984e-16
2.81776e-16
2.81565e-16
2.81349e-16
2.81129e-16
2.80904e-16
2.80675e-16
2.8044e-16
2.802e-16
2.79954e-16
2.79703e-16
2.79446e-16
2.79182e-16
2.78912e-16
2.78635e-16
2.7835e-16
2.78058e-16
2.77759e-16
2.77451e-16
2.77134e-16
2.76809e-16
2.76474e-16
2.76129e-16
2.75774e-16
2.75408e-16
2.75031e-16
2.74641e-16
2.74238e-16
2.7382e-16
2.73386e-16
2.72934e-16
2.72463e-16
2.71973e-16
2.71463e-16
4.07668e-16
1.48016e-15
6.20335e-15
2.79661e-14
1.36248e-13
7.09746e-13
3.83828e-12
2.08656e-11
1.12762e-10
6.38787e-10
4.37174e-09
4.24884e-08
6.13346e-07
1.26363e-05
0.00062212
0.050903
1.27169
0.326591
0.125466
0.0576766
0.0343241
0.0240138
0.0184703
0.0150102
0.0126402
0.0109135
0.00959306
0.00854747
0.00769524
0.00698353
0.00637704
0.00585135
0.00538913
0.00497782
0.00460811
0.00427303
0.00396724
0.00368665
0.00342801
0.00318878
0.0029669
0.00276069
0.00256876
0.00238994
0.00222324
0.00206778
0.00192279
0.00178757
0.00166149
0.00154396
0.00143442
0.00133237
0.00123732
0.00114881
0.00106639
0.000989653
0.000918204
0.000851669
0.000789696
0.000731961
0.000678159
0.000628009
0.000581248
0.000537627
0.000496912
0.000458882
0.000423331
0.000390062
0.000358572
0.000328472
0.000299716
0.000272289
0.000246172
0.00022137
0.000197894
0.000175786
0.000155096
0.000135876
0.000118176
0.000102009
8.73844e-05
7.43158e-05
6.27572e-05
5.26184e-05
4.38213e-05
3.62643e-05
2.98257e-05
2.43676e-05
1.97698e-05
1.59389e-05
1.2758e-05
1.01287e-05
7.97512e-06
6.22233e-06
4.80163e-06
3.66139e-06
2.74632e-06
2.02907e-06
1.45544e-06
1.01998e-06
6.74584e-07
4.45519e-07
2.34721e-07
0
0
0
0
0
0
0
0
0
0
0
0
0
0
0
0
0
0
0
0
0
0
0
0
0
0
0
0
0
0
0
0
0
0
0
0
0
0
0
0
0
0
0
0
0
0
0
0
0
0
0
0
0
0
0
0
0
0
0
0
0
0
0
0
0
0
0
0
0
0
0
0
0
0
0
0
0
0
0
0
0
0
0
0
0
0
0
0
0
0
0
0
0
0
0
0
0
0
0
0
0
0
0
0
0
0
0
0
0
0
0
0
0
0
0
0
0
0
0
0
0
0
0
0
)
;

boundaryField
{
    inandouthalf11
    {
        type            cyclic;
    }
    inandouthalf12
    {
        type            cyclic;
    }
    inandouthalf21
    {
        type            cyclic;
    }
    inandouthalf22
    {
        type            cyclic;
    }
    inandouthalf31
    {
        type            cyclic;
    }
    inandouthalf32
    {
        type            cyclic;
    }
    inandouthalf41
    {
        type            cyclic;
    }
    inandouthalf42
    {
        type            cyclic;
    }
    top
    {
        type            symmetryPlane;
    }
    walls
    {
        type            calculated;
        value           uniform 2.90169e-16;
    }
    frontAndBackPlanes
    {
        type            empty;
    }
}


// ************************************************************************* //
