/*--------------------------------*- C++ -*----------------------------------*\
| =========                 |                                                 |
| \\      /  F ield         | OpenFOAM: The Open Source CFD Toolbox           |
|  \\    /   O peration     | Version:  2.4.x                                 |
|   \\  /    A nd           | Web:      www.OpenFOAM.org                      |
|    \\/     M anipulation  |                                                 |
\*---------------------------------------------------------------------------*/
FoamFile
{
    version     2.0;
    format      ascii;
    class       volTensorField;
    location    "7.45";
    object      Taus;
}
// * * * * * * * * * * * * * * * * * * * * * * * * * * * * * * * * * * * * * //

dimensions      [0 2 -2 0 0 0 0];

internalField   nonuniform List<tensor> 
360
(
(0 0.00565226 0 0.00565226 -0.205169 0 0 0 0)
(0 0.00807184 0 0.00807184 -0.25822 0 0 0 0)
(0 0.00950913 0 0.00950913 -0.265589 0 0 0 0)
(0 0.00893235 0 0.00893235 -0.259299 0 0 0 0)
(-2.87893e-18 0.00834643 0 0.00834643 -0.256 0 0 0 0)
(-2.80196e-18 0.00801817 0 0.00801817 -0.254844 0 0 0 0)
(-5.5675e-18 0.00772572 0 0.00772572 -0.253577 0 0 0 0)
(0 0.00741209 0 0.00741209 -0.25201 0 0 0 0)
(-1.10406e-17 0.00709503 0 0.00709503 -0.250408 0 0 0 0)
(0 0.00678194 0 0.00678194 -0.248789 0 0 0 0)
(-5.43489e-18 0.00647419 0 0.00647419 -0.247159 0 0 0 0)
(0 0.00617315 0 0.00617315 -0.245546 0 0 0 0)
(-1.06827e-17 0.00587803 0 0.00587803 -0.24393 0 0 0 0)
(0 0.00558855 0 0.00558855 -0.242318 0 0 0 0)
(0 0.0053042 0 0.0053042 -0.240701 0 0 0 0)
(0 0.0050246 0 0.0050246 -0.239075 0 0 0 0)
(0 0.00474991 0 0.00474991 -0.237443 0 0 0 0)
(-1.01916e-17 0.00448038 0 0.00448038 -0.235812 0 0 0 0)
(0 0.00421573 0 0.00421573 -0.23418 0 0 0 0)
(0 0.00395566 0 0.00395566 -0.232534 0 0 0 0)
(0 0.0037007 0 0.0037007 -0.230901 0 0 0 0)
(-9.76145e-18 0.00345011 0 0.00345011 -0.229253 0 0 0 0)
(0 0.00320406 0 0.00320406 -0.227605 0 0 0 0)
(0 0.00296254 0 0.00296254 -0.225955 0 0 0 0)
(0 0.00272537 0 0.00272537 -0.224299 0 0 0 0)
(-9.32511e-18 0.00249261 0 0.00249261 -0.222642 0 0 0 0)
(0 0.00226418 0 0.00226418 -0.220987 0 0 0 0)
(0 0.00203978 0 0.00203978 -0.219318 0 0 0 0)
(0 0.00181959 0 0.00181959 -0.217651 0 0 0 0)
(0 0.00160357 0 0.00160357 -0.215984 0 0 0 0)
(0 0.00139153 0 0.00139153 -0.214314 0 0 0 0)
(0 0.00118342 0 0.00118342 -0.21263 0 0 0 0)
(0 0.000979393 0 0.000979393 -0.210967 0 0 0 0)
(0 0.000779059 0 0.000779059 -0.20927 0 0 0 0)
(0 0.00058268 0 0.00058268 -0.207594 0 0 0 0)
(8.29668e-18 0.000390074 0 0.000390074 -0.205903 0 0 0 0)
(0 0.00020123 0 0.00020123 -0.204221 0 0 0 0)
(0 1.60705e-05 0 1.60705e-05 -0.202526 0 0 0 0)
(0 -0.000165395 0 -0.000165395 -0.200819 0 0 0 0)
(0 -0.000343286 0 -0.000343286 -0.199142 0 0 0 0)
(0 -0.000517495 0 -0.000517495 -0.197426 0 0 0 0)
(0 -0.000688162 0 -0.000688162 -0.195723 0 0 0 0)
(1.53252e-17 -0.000855412 0 -0.000855412 -0.194032 0 0 0 0)
(0 -0.00101896 0 -0.00101896 -0.192311 0 0 0 0)
(0 -0.00117914 0 -0.00117914 -0.190607 0 0 0 0)
(0 -0.00133581 0 -0.00133581 -0.188892 0 0 0 0)
(0 -0.001489 0 -0.001489 -0.187169 0 0 0 0)
(0 -0.00163915 0 -0.00163915 -0.18547 0 0 0 0)
(0 -0.00178557 0 -0.00178557 -0.183749 0 0 0 0)
(0 -0.00192835 0 -0.00192835 -0.182011 0 0 0 0)
(1.40747e-17 -0.00206837 0 -0.00206837 -0.180303 0 0 0 0)
(0 -0.00220488 0 -0.00220488 -0.178571 0 0 0 0)
(0 -0.00233814 0 -0.00233814 -0.176847 0 0 0 0)
(0 -0.00246815 0 -0.00246815 -0.175111 0 0 0 0)
(0 -0.00259525 0 -0.00259525 -0.173391 0 0 0 0)
(0 -0.00271873 0 -0.00271873 -0.171643 0 0 0 0)
(0 -0.00283964 0 -0.00283964 -0.169921 0 0 0 0)
(0 -0.00295702 0 -0.00295702 -0.168175 0 0 0 0)
(0 -0.00307169 0 -0.00307169 -0.166438 0 0 0 0)
(0 -0.00318374 0 -0.00318374 -0.164713 0 0 0 0)
(0 -0.00329199 0 -0.00329199 -0.162955 0 0 0 0)
(0 -0.00339803 0 -0.00339803 -0.161222 0 0 0 0)
(0 -0.00350093 0 -0.00350093 -0.159467 0 0 0 0)
(0 -0.00360149 0 -0.00360149 -0.157721 0 0 0 0)
(0 -0.0036996 0 -0.0036996 -0.15597 0 0 0 0)
(0 -0.00379541 0 -0.00379541 -0.154223 0 0 0 0)
(0 -0.00388846 0 -0.00388846 -0.152468 0 0 0 0)
(0 -0.00397901 0 -0.00397901 -0.150712 0 0 0 0)
(0 -0.0040676 0 -0.0040676 -0.148958 0 0 0 0)
(0 -0.00415415 0 -0.00415415 -0.147213 0 0 0 0)
(0 -0.00423713 0 -0.00423713 -0.145447 0 0 0 0)
(0 -0.00431775 0 -0.00431775 -0.143677 0 0 0 0)
(0 -0.00439729 0 -0.00439729 -0.141929 0 0 0 0)
(0 -0.00447365 0 -0.00447365 -0.140158 0 0 0 0)
(0 -0.00454769 0 -0.00454769 -0.138394 0 0 0 0)
(0 -0.00461913 0 -0.00461913 -0.136618 0 0 0 0)
(0 -0.00468892 0 -0.00468892 -0.134854 0 0 0 0)
(0 -0.0047561 0 -0.0047561 -0.133088 0 0 0 0)
(0 -0.00482004 0 -0.00482004 -0.131317 0 0 0 0)
(0 -0.00488081 0 -0.00488081 -0.129546 0 0 0 0)
(0 -0.0049385 0 -0.0049385 -0.127778 0 0 0 0)
(0 -0.00499223 0 -0.00499223 -0.126005 0 0 0 0)
(0 -0.00504188 0 -0.00504188 -0.124229 0 0 0 0)
(0 -0.00508749 0 -0.00508749 -0.122452 0 0 0 0)
(0 -0.00512883 0 -0.00512883 -0.120673 0 0 0 0)
(0 -0.00516578 0 -0.00516578 -0.118894 0 0 0 0)
(0 -0.00519803 0 -0.00519803 -0.117113 0 0 0 0)
(0 -0.00522552 0 -0.00522552 -0.115333 0 0 0 0)
(0 -0.00524779 0 -0.00524779 -0.113554 0 0 0 0)
(0 -0.00526425 0 -0.00526425 -0.111773 0 0 0 0)
(0 -0.00527456 0 -0.00527456 -0.109993 0 0 0 0)
(0 -0.00527836 0 -0.00527836 -0.108212 0 0 0 0)
(0 -0.00527523 0 -0.00527523 -0.106428 0 0 0 0)
(0 -0.00526507 0 -0.00526507 -0.104644 0 0 0 0)
(0 -0.00524787 0 -0.00524787 -0.102857 0 0 0 0)
(0 -0.00522371 0 -0.00522371 -0.10107 0 0 0 0)
(0 -0.00519271 0 -0.00519271 -0.0992811 0 0 0 0)
(0 -0.00515508 0 -0.00515508 -0.0974918 0 0 0 0)
(0 -0.00511099 0 -0.00511099 -0.0957019 0 0 0 0)
(0 -0.00506065 0 -0.00506065 -0.0939113 0 0 0 0)
(0 -0.00500431 0 -0.00500431 -0.09212 0 0 0 0)
(0 -0.00494229 0 -0.00494229 -0.0903279 0 0 0 0)
(0 -0.00487494 0 -0.00487494 -0.0885348 0 0 0 0)
(0 -0.00480272 0 -0.00480272 -0.0867407 0 0 0 0)
(0 -0.00472615 0 -0.00472615 -0.0849457 0 0 0 0)
(0 -0.0046458 0 -0.0046458 -0.0831499 0 0 0 0)
(0 -0.00456228 0 -0.00456228 -0.0813531 0 0 0 0)
(0 -0.00447626 0 -0.00447626 -0.0795555 0 0 0 0)
(0 -0.00438845 0 -0.00438845 -0.0777571 0 0 0 0)
(0 -0.00429961 0 -0.00429961 -0.075958 0 0 0 0)
(0 -0.00421058 0 -0.00421058 -0.0741581 0 0 0 0)
(0 -0.00412223 0 -0.00412223 -0.0723577 0 0 0 0)
(0 -0.00403554 0 -0.00403554 -0.0705567 0 0 0 0)
(0 -0.00395159 0 -0.00395159 -0.0687554 0 0 0 0)
(0 -0.00387151 0 -0.00387151 -0.0669541 0 0 0 0)
(0 -0.00379659 0 -0.00379659 -0.0651528 0 0 0 0)
(0 -0.00372818 0 -0.00372818 -0.0633519 0 0 0 0)
(0 -0.0036677 0 -0.0036677 -0.0615515 0 0 0 0)
(0 -0.00361666 0 -0.00361666 -0.0597521 0 0 0 0)
(0 -0.00357649 0 -0.00357649 -0.0579538 0 0 0 0)
(0 -0.00354857 0 -0.00354857 -0.0561568 0 0 0 0)
(0 -0.00353407 0 -0.00353407 -0.0543614 0 0 0 0)
(0 -0.00353388 0 -0.00353388 -0.0525679 0 0 0 0)
(0 -0.00354849 0 -0.00354849 -0.0507767 0 0 0 0)
(0 -0.00357795 0 -0.00357795 -0.0489879 0 0 0 0)
(0 -0.00362175 0 -0.00362175 -0.0472016 0 0 0 0)
(0 -0.00367878 0 -0.00367878 -0.0454169 0 0 0 0)
(0 -0.00374732 0 -0.00374732 -0.0436327 0 0 0 0)
(0 -0.00382521 0 -0.00382521 -0.0418477 0 0 0 0)
(0 -0.00391028 0 -0.00391028 -0.0400616 0 0 0 0)
(0 -0.00400086 0 -0.00400086 -0.0382765 0 0 0 0)
(0 -0.00409551 0 -0.00409551 -0.0364946 0 0 0 0)
(0 -0.0041915 0 -0.0041915 -0.0347135 0 0 0 0)
(0 -0.00428391 0 -0.00428391 -0.0329227 0 0 0 0)
(0 -0.00436972 0 -0.00436972 -0.0311142 0 0 0 0)
(0 -0.00445433 0 -0.00445433 -0.0292975 0 0 0 0)
(0 -0.00454697 0 -0.00454697 -0.0274857 0 0 0 0)
(0 -0.00464062 0 -0.00464062 -0.0256621 0 0 0 0)
(0 -0.00469781 0 -0.00469781 -0.023775 0 0 0 0)
(0 -0.00468853 0 -0.00468853 -0.021792 0 0 0 0)
(0 -0.00466731 0 -0.00466731 -0.0198083 0 0 0 0)
(0 -0.00469355 0 -0.00469355 -0.0180041 0 0 0 0)
(0 -0.00459757 0 -0.00459757 -0.0160905 0 0 0 0)
(0 -0.00423729 0 -0.00423729 -0.0140674 0 0 0 0)
(0 -0.0034019 0 -0.0034019 -0.0122641 0 0 0 0)
(0 0.000786285 0 0.000786285 -0.0100552 0 0 0 0)
(0 0.00207796 0 0.00207796 -0.00357154 0 0 0 0)
(0 0.00249725 0 0.00249725 -0.00182202 0 0 0 0)
(0 0.00188723 0 0.00188723 -0.000153456 0 0 0 0)
(0 0.000940874 0 0.000940874 3.71299e-06 0 0 0 0)
(0 0.000709139 0 0.000709139 2.17078e-08 0 0 0 0)
(0 0.00170708 0 0.00170708 -5.04927e-05 0 0 0 0)
(0 0.00168163 0 0.00168163 -0.000208437 0 0 0 0)
(0 0.00151972 0 0.00151972 -0.000356671 0 0 0 0)
(0 0.00122176 0 0.00122176 -0.000505947 0 0 0 0)
(0 0.000804186 0 0.000804186 -0.000642959 0 0 0 0)
(0 0.000277767 0 0.000277767 -0.000781192 0 0 0 0)
(0 -0.000352195 0 -0.000352195 -0.000915069 0 0 0 0)
(0 -0.00109651 0 -0.00109651 -0.00103827 0 0 0 0)
(0 -0.00196049 0 -0.00196049 -0.00114796 0 0 0 0)
(0 -0.00292852 0 -0.00292852 -0.00121904 0 0 0 0)
(0 -0.00400491 0 -0.00400491 -0.00125582 0 0 0 0)
(0 -0.00518738 0 -0.00518738 -0.00125822 0 0 0 0)
(0 -0.00647358 0 -0.00647358 -0.00122904 0 0 0 0)
(0 -0.00786131 0 -0.00786131 -0.00117227 0 0 0 0)
(0 -0.00934864 0 -0.00934864 -0.00109265 0 0 0 0)
(0 -0.010934 0 -0.010934 -0.000995163 0 0 0 0)
(0 -0.0126159 0 -0.0126159 -0.00088479 0 0 0 0)
(0 -0.0143934 0 -0.0143934 -0.000766293 0 0 0 0)
(0 -0.0162653 0 -0.0162653 -0.00064408 0 0 0 0)
(0 -0.0182306 0 -0.0182306 -0.000522099 0 0 0 0)
(0 -0.0202884 0 -0.0202884 -0.000403762 0 0 0 0)
(0 -0.0224371 0 -0.0224371 -0.000291879 0 0 0 0)
(0 -0.0246751 0 -0.0246751 -0.000188616 0 0 0 0)
(0 -0.0270002 0 -0.0270002 -9.54579e-05 0 0 0 0)
(0 -0.0294095 0 -0.0294095 -1.31936e-05 0 0 0 0)
(0 -0.0318995 0 -0.0318995 5.80954e-05 0 0 0 0)
(0 -0.0344656 0 -0.0344656 0.000119026 0 0 0 0)
(0 -0.0371023 0 -0.0371023 0.000170893 0 0 0 0)
(0 -0.0398034 0 -0.0398034 0.000215641 0 0 0 0)
(0 -0.0425611 0 -0.0425611 0.000255821 0 0 0 0)
(0 -0.0453667 0 -0.0453667 0.000294542 0 0 0 0)
(0 -0.0482104 0 -0.0482104 0.000335406 0 0 0 0)
(0 -0.0510812 0 -0.0510812 0.000382441 0 0 0 0)
(0 -0.0539671 0 -0.0539671 0.000440028 0 0 0 0)
(0 -0.0568549 0 -0.0568549 0.000512811 0 0 0 0)
(0 -0.0597307 0 -0.0597307 0.000605616 0 0 0 0)
(0 -0.0625797 0 -0.0625797 0.000723351 0 0 0 0)
(0 -0.0653863 0 -0.0653863 0.000870923 0 0 0 0)
(0 -0.0681346 0 -0.0681346 0.00105317 0 0 0 0)
(0 -0.0708082 0 -0.0708082 0.00127482 0 0 0 0)
(0 -0.0733903 0 -0.0733903 0.00154055 0 0 0 0)
(0 -0.0758634 0 -0.0758634 0.00185505 0 0 0 0)
(0 -0.0782094 0 -0.0782094 0.00222305 0 0 0 0)
(0 -0.0804098 0 -0.0804098 0.0026493 0 0 0 0)
(0 -0.0824455 0 -0.0824455 0.00313837 0 0 0 0)
(0 -0.0842978 0 -0.0842978 0.00369437 0 0 0 0)
(0 -0.085948 0 -0.085948 0.00432076 0 0 0 0)
(0 -0.0873781 0 -0.0873781 0.00502011 0 0 0 0)
(0 -0.0885707 0 -0.0885707 0.00579372 0 0 0 0)
(0 -0.0895247 0 -0.0895247 0.0066405 0 0 0 0)
(0 -0.0903385 0 -0.0903385 0.00756519 0 0 0 0)
(-3.65794e-16 -0.0911234 0 -0.0911234 0.00857217 0 0 0 0)
(0 -0.0919123 0 -0.0919123 0.00965556 0 0 0 0)
(0 -0.0927201 0 -0.0927201 0.0108044 0 0 0 0)
(4.13898e-16 -0.0935661 0 -0.0935661 0.0120014 0 0 0 0)
(0 -0.0944684 0 -0.0944684 0.0132228 0 0 0 0)
(-4.53054e-16 -0.0954466 0 -0.0954466 0.0144422 0 0 0 0)
(0 -0.0965093 0 -0.0965093 0.0156333 0 0 0 0)
(4.99029e-16 -0.0976605 0 -0.0976605 0.016773 0 0 0 0)
(0 -0.0988929 0 -0.0988929 0.0178419 0 0 0 0)
(0 -0.10019 0 -0.10019 0.0188228 0 0 0 0)
(0 -0.10154 0 -0.10154 0.0197006 0 0 0 0)
(6.09904e-16 -0.10291 0 -0.10291 0.0204662 0 0 0 0)
(0 -0.10423 0 -0.10423 0.0211167 0 0 0 0)
(0 -0.105442 0 -0.105442 0.0216499 0 0 0 0)
(0 -0.106509 0 -0.106509 0.0220632 0 0 0 0)
(0 -0.107351 0 -0.107351 0.022359 0 0 0 0)
(0 -0.107891 0 -0.107891 0.0225467 0 0 0 0)
(0 -0.108074 0 -0.108074 0.0226284 0 0 0 0)
(0 -0.107895 0 -0.107895 0.0225974 0 0 0 0)
(-7.94416e-16 -0.107322 0 -0.107322 0.0224554 0 0 0 0)
(0 -0.106273 0 -0.106273 0.0222115 0 0 0 0)
(0 -0.10475 0 -0.10475 0.0218629 0 0 0 0)
(0 -0.102745 0 -0.102745 0.0214007 0 0 0 0)
(0 -0.100191 0 -0.100191 0.0208313 0 0 0 0)
(0 -0.0970379 0 -0.0970379 0.0201547 0 0 0 0)
(0 -0.0932394 0 -0.0932394 0.0193662 0 0 0 0)
(7.2569e-16 -0.0887341 0 -0.0887341 0.0184409 0 0 0 0)
(0 -0.083412 0 -0.083412 0.0173878 0 0 0 0)
(0 -0.0771525 0 -0.0771525 0.016151 0 0 0 0)
(0 -0.0698352 0 -0.0698352 0.0147196 0 0 0 0)
(0 -0.0611887 0 -0.0611887 0.012942 0 0 0 0)
(0 -0.050277 0 -0.050277 0.0115211 0 0 0 0)
(0 -0.0365684 0 -0.0365684 0.0105355 0 0 0 0)
(0 -0.0279358 0 -0.0279358 0.00876875 0 0 0 0)
(0 -0 0 -0 0 0 0 0 0)
(0 -0 0 -0 0 0 0 0 0)
(0 -0 0 -0 0 0 0 0 0)
(0 -0 0 -0 -0 0 0 0 0)
(0 -0 0 -0 0 0 0 0 0)
(0 -0 0 -0 0 0 0 0 0)
(0 -0 0 -0 -0 0 0 0 0)
(0 -0 0 -0 -0 0 0 0 0)
(-0 -0 0 -0 -0 0 0 0 0)
(0 -0 0 -0 0 0 0 0 0)
(0 -0 0 -0 0 0 0 0 0)
(0 -0 0 -0 0 0 0 0 0)
(0 -0 0 -0 0 0 0 0 0)
(0 -0 0 -0 0 0 0 0 0)
(0 0 0 0 0 0 0 0 0)
(0 0 0 0 0 0 0 0 0)
(0 0 0 0 0 0 0 0 0)
(0 0 0 0 0 0 0 0 0)
(0 0 0 0 0 0 0 0 0)
(0 0 0 0 0 0 0 0 0)
(0 0 0 0 0 0 0 0 0)
(0 0 0 0 0 0 0 0 0)
(0 0 0 0 0 0 0 0 0)
(0 0 0 0 0 0 0 0 0)
(0 0 0 0 0 0 0 0 0)
(0 0 0 0 0 0 0 0 0)
(0 0 0 0 0 0 0 0 0)
(0 0 0 0 0 0 0 0 0)
(0 0 0 0 0 0 0 0 0)
(0 0 0 0 0 0 0 0 0)
(-0 0 0 0 -0 0 0 0 0)
(0 0 0 0 0 0 0 0 0)
(0 0 0 0 -0 0 0 0 0)
(0 0 0 0 0 0 0 0 0)
(0 0 0 0 -0 0 0 0 0)
(0 0 0 0 0 0 0 0 0)
(0 0 0 0 -0 0 0 0 0)
(0 0 0 0 -0 0 0 0 0)
(0 0 0 0 0 0 0 0 0)
(0 0 0 0 0 0 0 0 0)
(0 0 0 0 -0 0 0 0 0)
(0 0 0 0 0 0 0 0 0)
(0 0 0 0 -0 0 0 0 0)
(0 0 0 0 0 0 0 0 0)
(0 0 0 0 -0 0 0 0 0)
(0 0 0 0 0 0 0 0 0)
(0 0 0 0 -0 0 0 0 0)
(0 0 0 0 0 0 0 0 0)
(0 0 0 0 -0 0 0 0 0)
(0 0 0 0 0 0 0 0 0)
(-0 0 0 0 -0 0 0 0 0)
(0 0 0 0 0 0 0 0 0)
(0 0 0 0 -0 0 0 0 0)
(0 0 0 0 0 0 0 0 0)
(0 -0 0 -0 -0 0 0 0 0)
(0 0 0 0 0 0 0 0 0)
(0 -0 0 -0 -0 0 0 0 0)
(0 0 0 0 0 0 0 0 0)
(0 -0 0 -0 -0 0 0 0 0)
(0 0 0 0 0 0 0 0 0)
(-0 -0 0 -0 -0 0 0 0 0)
(0 0 0 0 0 0 0 0 0)
(0 -0 0 -0 -0 0 0 0 0)
(0 0 0 0 0 0 0 0 0)
(0 -0 0 -0 -0 0 0 0 0)
(0 0 0 0 0 0 0 0 0)
(0 -0 0 -0 -0 0 0 0 0)
(0 0 0 0 0 0 0 0 0)
(0 -0 0 -0 -0 0 0 0 0)
(0 0 0 0 0 0 0 0 0)
(0 -0 0 -0 -0 0 0 0 0)
(0 0 0 0 0 0 0 0 0)
(0 -0 0 -0 -0 0 0 0 0)
(0 0 0 0 0 0 0 0 0)
(0 -0 0 -0 -0 0 0 0 0)
(0 0 0 0 0 0 0 0 0)
(0 -0 0 -0 -0 0 0 0 0)
(0 0 0 0 0 0 0 0 0)
(0 -0 0 -0 -0 0 0 0 0)
(0 0 0 0 0 0 0 0 0)
(0 -0 0 -0 -0 0 0 0 0)
(0 0 0 0 0 0 0 0 0)
(0 -0 0 -0 -0 0 0 0 0)
(0 0 0 0 0 0 0 0 0)
(0 -0 0 -0 -0 0 0 0 0)
(0 0 0 0 0 0 0 0 0)
(0 -0 0 -0 -0 0 0 0 0)
(0 0 0 0 0 0 0 0 0)
(0 -0 0 -0 -0 0 0 0 0)
(0 0 0 0 0 0 0 0 0)
(0 -0 0 -0 -0 0 0 0 0)
(0 0 0 0 0 0 0 0 0)
(0 -0 0 -0 -0 0 0 0 0)
(0 0 0 0 0 0 0 0 0)
(0 -0 0 -0 -0 0 0 0 0)
(0 0 0 0 0 0 0 0 0)
(0 -0 0 -0 -0 0 0 0 0)
(0 0 0 0 0 0 0 0 0)
(0 -0 0 -0 -0 0 0 0 0)
(0 0 0 0 0 0 0 0 0)
(0 -0 0 -0 -0 0 0 0 0)
(0 0 0 0 0 0 0 0 0)
(0 -0 0 -0 -0 0 0 0 0)
(0 0 0 0 0 0 0 0 0)
(0 -0 0 -0 -0 0 0 0 0)
(0 0 0 0 0 0 0 0 0)
(0 -0 0 -0 -0 0 0 0 0)
(0 0 0 0 0 0 0 0 0)
(0 -0 0 -0 -0 0 0 0 0)
(0 0 0 0 0 0 0 0 0)
(0 -0 0 -0 -0 0 0 0 0)
(0 0 0 0 0 0 0 0 0)
(0 -0 0 -0 -0 0 0 0 0)
(0 0 0 0 0 0 0 0 0)
(0 -0 0 -0 -0 0 0 0 0)
(0 0 0 0 0 0 0 0 0)
(0 -0 0 -0 -0 0 0 0 0)
(0 -0 0 -0 0 0 0 0 0)
(0 -0 0 -0 0 0 0 0 0)
(0 -0 0 -0 0 0 0 0 0)
(0 -0 0 -0 0 0 0 0 0)
(0 -0 0 -0 0 0 0 0 0)
(0 -0 0 -0 0 0 0 0 0)
(0 -0 0 -0 0 0 0 0 0)
)
;

boundaryField
{
    inandouthalf11
    {
        type            cyclic;
    }
    inandouthalf12
    {
        type            cyclic;
    }
    inandouthalf21
    {
        type            cyclic;
    }
    inandouthalf22
    {
        type            cyclic;
    }
    inandouthalf31
    {
        type            cyclic;
    }
    inandouthalf32
    {
        type            cyclic;
    }
    inandouthalf41
    {
        type            cyclic;
    }
    inandouthalf42
    {
        type            cyclic;
    }
    top
    {
        type            symmetryPlane;
    }
    walls
    {
        type            zeroGradient;
    }
    frontAndBackPlanes
    {
        type            empty;
    }
}


// ************************************************************************* //
