/*--------------------------------*- C++ -*----------------------------------*\
| =========                 |                                                 |
| \\      /  F ield         | OpenFOAM: The Open Source CFD Toolbox           |
|  \\    /   O peration     | Version:  2.4.x                                 |
|   \\  /    A nd           | Web:      www.OpenFOAM.org                      |
|    \\/     M anipulation  |                                                 |
\*---------------------------------------------------------------------------*/
FoamFile
{
    version     2.0;
    format      ascii;
    class       volScalarField;
    location    "7.45";
    object      tmf;
}
// * * * * * * * * * * * * * * * * * * * * * * * * * * * * * * * * * * * * * //

dimensions      [0 0 0 0 0 0 0];

internalField   nonuniform List<scalar> 
360
(
0.999206
0.999209
0.999209
0.999209
0.999209
0.999209
0.999209
0.999209
0.999209
0.999209
0.999209
0.999209
0.999208
0.999208
0.999208
0.999208
0.999208
0.999208
0.999208
0.999208
0.999208
0.999208
0.999208
0.999208
0.999207
0.999207
0.999207
0.999207
0.999207
0.999207
0.999207
0.999207
0.999207
0.999207
0.999207
0.999206
0.999206
0.999206
0.999206
0.999206
0.999206
0.999206
0.999206
0.999206
0.999206
0.999205
0.999205
0.999205
0.999205
0.999205
0.999205
0.999205
0.999205
0.999204
0.999204
0.999204
0.999204
0.999204
0.999204
0.999204
0.999204
0.999203
0.999203
0.999203
0.999203
0.999203
0.999203
0.999203
0.999203
0.999202
0.999202
0.999202
0.999202
0.999202
0.999202
0.999201
0.999201
0.999201
0.999201
0.999201
0.999201
0.9992
0.9992
0.9992
0.9992
0.9992
0.9992
0.999199
0.999199
0.999199
0.999199
0.999199
0.999198
0.999198
0.999198
0.999198
0.999197
0.999197
0.999197
0.999197
0.999197
0.999196
0.999196
0.999196
0.999195
0.999195
0.999195
0.999195
0.999194
0.999194
0.999194
0.999193
0.999193
0.999193
0.999192
0.999192
0.999192
0.999191
0.999191
0.99919
0.99919
0.99919
0.999189
0.999189
0.999188
0.999188
0.999187
0.999187
0.999186
0.999186
0.999185
0.999184
0.999184
0.999089
0.999
0.998904
0.998787
0.998651
0.998492
0.998297
0.998027
0.997592
0.996849
0.995649
0.993977
0.991913
0.989392
0.986281
0.982221
0.976343
0.874793
0.913411
0.949669
0.965872
0.973332
0.977234
0.979516
0.980969
0.981953
0.982658
0.983184
0.983591
0.983915
0.984182
0.984407
0.984602
0.984775
0.98493
0.985072
0.985204
0.985327
0.985444
0.985555
0.98566
0.985762
0.985858
0.985951
0.98604
0.986125
0.986205
0.986282
0.986354
0.986421
0.986483
0.986541
0.986593
0.98664
0.98668
0.986715
0.986743
0.986765
0.98678
0.986787
0.986787
0.98678
0.986765
0.986744
0.986716
0.986684
0.98665
0.986619
0.986598
0.986599
0.986638
0.986732
0.986897
0.987134
0.987433
0.987778
0.98815
0.988534
0.988922
0.989305
0.98968
0.990044
0.990398
0.990739
0.991069
0.991386
0.991693
0.991988
0.992274
0.992549
0.992816
0.993074
0.993325
0.993568
0.993805
0.994037
0.994263
0.994485
0.994703
0.994918
0.99513
0.995342
0.995553
0.99576
0.992836
0.993154
0.993342
0.993777
0.994032
0.994395
0.996071
0.9965
0.996733
0.996962
0.997184
0.997394
0.997588
0.997762
0.997914
0.998046
0.998159
0.99826
0.998353
0.998448
0.998556
0.998688
0.998866
0.99909
0.999243
0.99927
0.999265
0.999258
0.999252
0.999246
0.99924
0.999194
0.997222
0.994199
0.994199
0.994199
0.994199
0.994199
0.994199
0.994199
0.994199
0.994199
0.994199
0.994199
0.994199
0.994199
0.994199
0.994199
0.994199
0.994199
0.994199
0.994199
0.994199
0.994199
0.994199
0.994199
0.994199
0.994199
0.994199
0.994199
0.994199
0.994199
0.994199
0.994199
0.994199
0.994199
0.994199
0.994199
0.994199
0.994199
0.994199
0.994199
0.994199
0.994199
0.994199
0.994199
0.994199
0.994199
0.994199
0.994199
0.994199
0.994199
0.994199
0.994199
0.994199
0.994199
0.994199
0.994199
0.994199
0.994199
0.994199
0.994199
0.994199
0.994199
0.994199
0.994199
0.994199
0.994199
0.994199
0.994199
0.994199
0.994199
0.994199
0.994199
0.994199
0.994199
0.994199
0.994199
0.994199
0.994199
0.994199
0.994199
0.994199
0.994199
0.994199
0.994199
0.994199
0.994199
0.994199
0.994199
0.994199
0.994184
0.993277
)
;

boundaryField
{
    inandouthalf11
    {
        type            cyclic;
    }
    inandouthalf12
    {
        type            cyclic;
    }
    inandouthalf21
    {
        type            cyclic;
    }
    inandouthalf22
    {
        type            cyclic;
    }
    inandouthalf31
    {
        type            cyclic;
    }
    inandouthalf32
    {
        type            cyclic;
    }
    inandouthalf41
    {
        type            cyclic;
    }
    inandouthalf42
    {
        type            cyclic;
    }
    top
    {
        type            symmetryPlane;
    }
    walls
    {
        type            calculated;
        value           uniform 0;
    }
    frontAndBackPlanes
    {
        type            empty;
    }
}


// ************************************************************************* //
