/*--------------------------------*- C++ -*----------------------------------*\
| =========                 |                                                 |
| \\      /  F ield         | OpenFOAM: The Open Source CFD Toolbox           |
|  \\    /   O peration     | Version:  2.4.x                                 |
|   \\  /    A nd           | Web:      www.OpenFOAM.org                      |
|    \\/     M anipulation  |                                                 |
\*---------------------------------------------------------------------------*/
FoamFile
{
    version     2.0;
    format      ascii;
    class       volVectorField;
    location    "7.45";
    object      U;
}
// * * * * * * * * * * * * * * * * * * * * * * * * * * * * * * * * * * * * * //

dimensions      [0 1 -1 0 0 0 0];

internalField   nonuniform List<vector> 
360
(
(9.67229e-05 1.58955e-08 0)
(9.60261e-05 -3.17836e-09 0)
(9.59255e-05 -3.05436e-09 0)
(9.60194e-05 -5.03397e-11 0)
(9.60722e-05 5.04254e-10 0)
(9.6094e-05 1.26345e-10 0)
(9.61174e-05 -4.62394e-11 0)
(9.61451e-05 -3.68914e-11 0)
(9.61733e-05 -7.19637e-12 0)
(9.62017e-05 1.13684e-11 0)
(9.62304e-05 1.97179e-11 0)
(9.62588e-05 1.93003e-11 0)
(9.62873e-05 1.77926e-11 0)
(9.63157e-05 1.82967e-11 0)
(9.63443e-05 2.19301e-11 0)
(9.6373e-05 2.70051e-11 0)
(9.64019e-05 3.08829e-11 0)
(9.64308e-05 3.36085e-11 0)
(9.64598e-05 3.53896e-11 0)
(9.64891e-05 3.78563e-11 0)
(9.65182e-05 3.79109e-11 0)
(9.65476e-05 4.03886e-11 0)
(9.65771e-05 4.18367e-11 0)
(9.66067e-05 4.2174e-11 0)
(9.66365e-05 4.22769e-11 0)
(9.66664e-05 4.22754e-11 0)
(9.66964e-05 4.19554e-11 0)
(9.67266e-05 4.31656e-11 0)
(9.6757e-05 4.19471e-11 0)
(9.67874e-05 4.07849e-11 0)
(9.6818e-05 3.92951e-11 0)
(9.6849e-05 4.09695e-11 0)
(9.68797e-05 3.61818e-11 0)
(9.69111e-05 3.98181e-11 0)
(9.69423e-05 3.44312e-11 0)
(9.69739e-05 3.41152e-11 0)
(9.70054e-05 3.23874e-11 0)
(9.70374e-05 3.141e-11 0)
(9.70697e-05 3.23868e-11 0)
(9.71016e-05 2.38755e-11 0)
(9.71344e-05 2.73402e-11 0)
(9.71671e-05 2.39762e-11 0)
(9.71998e-05 1.66952e-11 0)
(9.72332e-05 2.16408e-11 0)
(9.72665e-05 1.59675e-11 0)
(9.73002e-05 1.1732e-11 0)
(9.73343e-05 1.03697e-11 0)
(9.73681e-05 2.4319e-12 0)
(9.74025e-05 4.64593e-12 0)
(9.74376e-05 9.41937e-12 0)
(9.74722e-05 -2.82439e-12 0)
(9.75076e-05 -4.89769e-14 0)
(9.75431e-05 -4.64668e-12 0)
(9.75791e-05 -2.82049e-12 0)
(9.7615e-05 -1.26211e-11 0)
(9.76519e-05 -5.44656e-12 0)
(9.76884e-05 -1.74234e-11 0)
(9.77258e-05 -1.50603e-11 0)
(9.77633e-05 -1.66948e-11 0)
(9.78009e-05 -2.37522e-11 0)
(9.78396e-05 -8.13311e-12 0)
(9.7878e-05 -1.57438e-11 0)
(9.79173e-05 -8.48196e-12 0)
(9.79568e-05 -1.40053e-11 0)
(9.79968e-05 -1.53785e-11 0)
(9.80371e-05 -2.1161e-11 0)
(9.8078e-05 -2.28495e-11 0)
(9.81194e-05 -2.78706e-11 0)
(9.81611e-05 -3.18866e-11 0)
(9.82031e-05 -3.86663e-11 0)
(9.82461e-05 -3.22005e-11 0)
(9.82898e-05 -2.90662e-11 0)
(9.83333e-05 -4.61502e-11 0)
(9.83781e-05 -3.98725e-11 0)
(9.84232e-05 -5.19278e-11 0)
(9.84692e-05 -5.86884e-11 0)
(9.85155e-05 -8.10226e-11 0)
(9.85625e-05 -9.71444e-11 0)
(9.86102e-05 -1.11563e-10 0)
(9.86588e-05 -1.24581e-10 0)
(9.87079e-05 -1.40582e-10 0)
(9.8758e-05 -1.49262e-10 0)
(9.88089e-05 -1.57338e-10 0)
(9.88607e-05 -1.68037e-10 0)
(9.89135e-05 -1.78527e-10 0)
(9.89673e-05 -1.92827e-10 0)
(9.9022e-05 -2.06828e-10 0)
(9.90778e-05 -2.23698e-10 0)
(9.91346e-05 -2.39199e-10 0)
(9.91925e-05 -2.50979e-10 0)
(9.92517e-05 -2.59598e-10 0)
(9.93121e-05 -2.6493e-10 0)
(9.93738e-05 -2.65429e-10 0)
(9.9437e-05 -2.63532e-10 0)
(9.95017e-05 -2.60059e-10 0)
(9.95679e-05 -2.55501e-10 0)
(9.96356e-05 -2.50424e-10 0)
(9.9705e-05 -2.45136e-10 0)
(9.97761e-05 -2.39509e-10 0)
(9.98489e-05 -2.33235e-10 0)
(9.99236e-05 -2.26445e-10 0)
(0.0001 -2.19124e-10 0)
(0.000100079 -2.11267e-10 0)
(0.000100159 -2.03192e-10 0)
(0.000100242 -1.95102e-10 0)
(0.000100327 -1.87051e-10 0)
(0.000100414 -1.79105e-10 0)
(0.000100504 -1.71238e-10 0)
(0.000100596 -1.63345e-10 0)
(0.000100691 -1.5531e-10 0)
(0.000100789 -1.46989e-10 0)
(0.000100889 -1.38196e-10 0)
(0.000100993 -1.28719e-10 0)
(0.000101099 -1.18322e-10 0)
(0.000101209 -1.06758e-10 0)
(0.000101322 -9.38146e-11 0)
(0.000101439 -7.93606e-11 0)
(0.000101559 -6.34111e-11 0)
(0.000101683 -4.62186e-11 0)
(0.000101811 -2.83876e-11 0)
(0.000101943 -1.09847e-11 0)
(0.00010208 4.38706e-12 0)
(0.00010222 1.55729e-11 0)
(0.000102366 1.9961e-11 0)
(0.000102517 1.47106e-11 0)
(0.000102672 -2.97889e-12 0)
(0.000102834 -3.5669e-11 0)
(0.000103001 -8.54745e-11 0)
(0.000103175 -1.53346e-10 0)
(0.000103356 -2.37506e-10 0)
(0.000103546 -3.31884e-10 0)
(0.000103743 -4.27223e-10 0)
(0.00010395 -5.10301e-10 0)
(0.000104168 -5.54818e-10 0)
(0.000104402 -5.32486e-10 0)
(0.000104649 -4.68028e-10 0)
(0.000104909 -4.38362e-10 0)
(0.000105185 -5.01272e-10 0)
(0.000105493 -6.06647e-10 0)
(0.000105846 -5.14082e-10 0)
(0.000106229 -3.94693e-10 0)
(0.000106598 -2.22833e-09 0)
(0.000107047 -3.07768e-09 0)
(0.000107638 -2.83069e-09 0)
(0.000108384 -9.9735e-09 0)
(0.000109829 -4.26043e-08 0)
(0.000113312 6.10208e-07 0)
(0.000117584 8.00965e-07 0)
(0.000137513 7.44978e-07 0)
(0.000565619 -9.23912e-06 0)
(0.0902146 -1.19877e-05 0)
(0.155925 1.19874e-05 0)
(0.17831 2.8906e-06 0)
(0.187475 1.48414e-06 0)
(0.191556 6.88546e-07 0)
(0.193311 3.09502e-07 0)
(0.193794 1.60053e-07 0)
(0.193476 8.69064e-08 0)
(0.1926 6.38827e-08 0)
(0.191307 3.92025e-08 0)
(0.189689 2.64899e-08 0)
(0.187808 1.82175e-08 0)
(0.185712 1.25774e-08 0)
(0.183435 8.68373e-09 0)
(0.181006 5.99823e-09 0)
(0.178449 4.13731e-09 0)
(0.175782 2.84022e-09 0)
(0.173021 1.93257e-09 0)
(0.170181 1.29724e-09 0)
(0.167272 8.53366e-10 0)
(0.164306 5.44974e-10 0)
(0.161292 3.32472e-10 0)
(0.158237 1.87961e-10 0)
(0.155147 9.14859e-11 0)
(0.15203 2.87213e-11 0)
(0.14889 -1.06128e-11 0)
(0.145733 -3.39236e-11 0)
(0.142562 -4.65156e-11 0)
(0.139382 -5.2195e-11 0)
(0.136196 -5.36133e-11 0)
(0.133006 -5.26446e-11 0)
(0.129817 -5.05295e-11 0)
(0.12663 -4.81054e-11 0)
(0.123447 -4.58608e-11 0)
(0.120271 -4.40956e-11 0)
(0.117104 -4.29251e-11 0)
(0.113946 -4.24103e-11 0)
(0.110801 -4.253e-11 0)
(0.107669 -4.32563e-11 0)
(0.104551 -4.44771e-11 0)
(0.101448 -4.60208e-11 0)
(0.0983627 -4.76139e-11 0)
(0.0952948 -4.90184e-11 0)
(0.0922453 -5.01975e-11 0)
(0.0892153 -5.14295e-11 0)
(0.0862054 -5.30112e-11 0)
(0.0832164 -5.47066e-11 0)
(0.0802488 -5.58298e-11 0)
(0.0773033 -5.6427e-11 0)
(0.0743804 -5.78389e-11 0)
(0.0714805 -6.06198e-11 0)
(0.0685749 -6.47357e-11 0)
(0.0656349 -6.81537e-11 0)
(0.0626611 -6.78538e-11 0)
(0.0596536 -7.06648e-11 0)
(0.0566131 -7.19445e-11 0)
(0.05354 -7.41464e-11 0)
(0.0504349 -7.11015e-11 0)
(0.0472984 -6.91497e-11 0)
(0.0441315 -6.49771e-11 0)
(0.0409349 -5.98333e-11 0)
(0.0377098 -5.96534e-11 0)
(0.0344571 -5.60704e-11 0)
(0.0311783 -4.39958e-11 0)
(0.0278746 -4.11694e-11 0)
(0.0245476 -4.27883e-11 0)
(0.021199 -3.49399e-11 0)
(0.0178307 -2.91597e-11 0)
(0.0144448 -2.62034e-11 0)
(0.0110435 -2.67441e-11 0)
(0.00762934 -2.33832e-11 0)
(0.0042051 -1.47584e-11 0)
(0.000773805 -1.59479e-11 0)
(-0.0026612 -1.48134e-11 0)
(-0.00609625 -9.89094e-12 0)
(-0.00952726 -8.33375e-12 0)
(-0.0129498 -8.00764e-12 0)
(-0.0163588 -5.04587e-12 0)
(-0.0197489 -6.27061e-12 0)
(-0.023114 -5.86487e-14 0)
(-0.0264474 -7.56216e-12 0)
(-0.0297417 1.77663e-12 0)
(-0.0329886 -9.27516e-12 0)
(-0.0361789 2.58381e-11 0)
(-0.0393024 -2.05114e-11 0)
(-0.0423479 -6.90969e-12 0)
(-0.0453029 -9.61771e-12 0)
(-0.0481535 3.67222e-11 0)
(-0.0508845 -8.65079e-11 0)
(-0.0534793 9.55623e-11 0)
(-0.05592 -7.69844e-11 0)
(-0.0581873 5.82291e-11 0)
(-0.0602614 4.24705e-12 0)
(-0.0621219 1.94761e-11 0)
(-0.0637492 -1.2548e-12 0)
(-0.0651253 1.09919e-14 0)
(-0.0662359 1.4605e-12 0)
(-0.0670711 1.61728e-12 0)
(-0.0676278 1.47015e-12 0)
(-0.06791 1.32568e-12 0)
(-0.0679289 1.00295e-12 0)
(-0.0677024 8.96558e-13 0)
(-0.0672534 8.7331e-12 0)
(-0.066609 -2.42804e-11 0)
(-0.0657998 5.85527e-11 0)
(-0.0648598 -1.04631e-10 0)
(-0.0638275 1.72396e-10 0)
(-0.0627469 -2.53722e-10 0)
(-0.0616701 3.55488e-10 0)
(-0.0606653 -4.68284e-10 0)
(-0.0598424 5.95906e-10 0)
(-0.0595056 -7.28372e-10 0)
(-0.0594721 8.68853e-10 0)
(-0.059471 -1.01047e-09 0)
(-0.059471 1.15807e-09 0)
(-0.0594709 -1.30699e-09 0)
(-0.0594709 1.46181e-09 0)
(-0.0594709 -1.61846e-09 0)
(-0.0594709 1.78104e-09 0)
(-0.0594709 -1.94589e-09 0)
(-0.0594709 2.11676e-09 0)
(-0.0594708 -2.29028e-09 0)
(-0.0594708 2.46987e-09 0)
(-0.0594708 -2.65248e-09 0)
(-0.0594708 2.84123e-09 0)
(-0.0594708 -3.0333e-09 0)
(-0.0594708 3.23157e-09 0)
(-0.0594708 -3.43345e-09 0)
(-0.0594708 3.64158e-09 0)
(-0.0594708 -3.85359e-09 0)
(-0.0594708 4.07186e-09 0)
(-0.0594708 -4.29428e-09 0)
(-0.0594708 4.52299e-09 0)
(-0.0594708 -4.75608e-09 0)
(-0.0594708 4.99546e-09 0)
(-0.0594708 -5.23945e-09 0)
(-0.0594708 5.48974e-09 0)
(-0.0594708 -5.74486e-09 0)
(-0.0594708 6.00621e-09 0)
(-0.0594708 -6.27265e-09 0)
(-0.0594708 6.54528e-09 0)
(-0.0594708 -6.82319e-09 0)
(-0.0594708 7.10725e-09 0)
(-0.0594708 -7.39679e-09 0)
(-0.0594708 7.69241e-09 0)
(-0.0594708 -7.99371e-09 0)
(-0.0594708 8.301e-09 0)
(-0.0594708 -8.6141e-09 0)
(-0.0594708 8.93324e-09 0)
(-0.0594708 -9.25821e-09 0)
(-0.0594708 9.58918e-09 0)
(-0.0594708 -9.92608e-09 0)
(-0.0594708 1.02689e-08 0)
(-0.0594708 -1.06177e-08 0)
(-0.0594708 1.09725e-08 0)
(-0.0594708 -1.13331e-08 0)
(-0.0594708 1.16996e-08 0)
(-0.0594708 -1.2072e-08 0)
(-0.0594708 1.24501e-08 0)
(-0.0594708 -1.28341e-08 0)
(-0.0594708 1.16091e-08 0)
(-0.0594708 -1.17357e-08 0)
(-0.0594708 1.18608e-08 0)
(-0.0594708 -1.19848e-08 0)
(-0.0594708 1.21072e-08 0)
(-0.0594708 -1.22284e-08 0)
(-0.0594708 1.23482e-08 0)
(-0.0594708 -1.24666e-08 0)
(-0.0594708 1.25836e-08 0)
(-0.0594708 -1.26992e-08 0)
(-0.0594708 1.28132e-08 0)
(-0.0594708 -1.2926e-08 0)
(-0.0594708 1.3037e-08 0)
(-0.0594708 -1.31468e-08 0)
(-0.0594708 1.32549e-08 0)
(-0.0594708 -1.33616e-08 0)
(-0.0594708 1.34665e-08 0)
(-0.0594708 -1.35701e-08 0)
(-0.0594708 1.36717e-08 0)
(-0.0594708 -1.37724e-08 0)
(-0.0594708 1.38703e-08 0)
(-0.0594708 -1.39682e-08 0)
(-0.0594708 1.40622e-08 0)
(-0.0594708 -1.41572e-08 0)
(-0.0594708 1.42472e-08 0)
(-0.0594708 -1.43392e-08 0)
(-0.0594708 1.4425e-08 0)
(-0.0594708 -1.45139e-08 0)
(-0.0594708 1.45953e-08 0)
(-0.0594708 -1.46809e-08 0)
(-0.0594708 1.47577e-08 0)
(-0.0594708 -1.48399e-08 0)
(-0.0594708 1.49117e-08 0)
(-0.0594708 -1.49904e-08 0)
(-0.0594708 1.5057e-08 0)
(-0.0594708 -1.51322e-08 0)
(-0.0594708 1.51927e-08 0)
(-0.0594708 -1.52643e-08 0)
(-0.0594708 1.53184e-08 0)
(-0.0594708 -1.53861e-08 0)
(-0.0594708 1.54334e-08 0)
(-0.0594708 -1.54961e-08 0)
(-0.0594708 1.55362e-08 0)
(-0.0594708 -1.55939e-08 0)
(-0.0594708 1.56247e-08 0)
(-0.0594708 -1.5676e-08 0)
(-0.0594708 1.56974e-08 0)
(-0.0594708 -1.57392e-08 0)
(-0.0594708 1.5748e-08 0)
(-0.0594708 -1.57715e-08 0)
)
;

boundaryField
{
    inandouthalf11
    {
        type            cyclic;
    }
    inandouthalf12
    {
        type            cyclic;
    }
    inandouthalf21
    {
        type            cyclic;
    }
    inandouthalf22
    {
        type            cyclic;
    }
    inandouthalf31
    {
        type            cyclic;
    }
    inandouthalf32
    {
        type            cyclic;
    }
    inandouthalf41
    {
        type            cyclic;
    }
    inandouthalf42
    {
        type            cyclic;
    }
    top
    {
        type            symmetryPlane;
    }
    walls
    {
        type            calculated;
        value           uniform (0 0 0);
    }
    frontAndBackPlanes
    {
        type            empty;
    }
}


// ************************************************************************* //
