/*--------------------------------*- C++ -*----------------------------------*\
| =========                 |                                                 |
| \\      /  F ield         | OpenFOAM: The Open Source CFD Toolbox           |
|  \\    /   O peration     | Version:  2.4.x                                 |
|   \\  /    A nd           | Web:      www.OpenFOAM.org                      |
|    \\/     M anipulation  |                                                 |
\*---------------------------------------------------------------------------*/
FoamFile
{
    version     2.0;
    format      ascii;
    class       volVectorField;
    location    "7.45";
    object      Ub_0;
}
// * * * * * * * * * * * * * * * * * * * * * * * * * * * * * * * * * * * * * //

dimensions      [0 1 -1 0 0 0 0];

internalField   nonuniform List<vector> 
360
(
(0.00024849 4.08441e-08 0)
(0.000247211 1.4659e-07 0)
(0.000247008 2.69843e-07 0)
(0.000247188 3.82295e-07 0)
(0.000247288 4.91951e-07 0)
(0.000247326 6.03553e-07 0)
(0.000247368 7.16392e-07 0)
(0.000247418 8.29287e-07 0)
(0.00024747 9.41954e-07 0)
(0.000247522 1.05455e-06 0)
(0.000247575 1.16726e-06 0)
(0.000247627 1.28018e-06 0)
(0.00024768 1.39332e-06 0)
(0.000247733 1.50666e-06 0)
(0.000247786 1.62022e-06 0)
(0.000247839 1.73403e-06 0)
(0.000247893 1.84814e-06 0)
(0.000247947 1.96259e-06 0)
(0.000248002 2.07741e-06 0)
(0.000248057 2.19261e-06 0)
(0.000248112 2.30822e-06 0)
(0.000248168 2.42425e-06 0)
(0.000248224 2.54072e-06 0)
(0.00024828 2.65764e-06 0)
(0.000248337 2.77502e-06 0)
(0.000248394 2.89286e-06 0)
(0.000248451 3.01115e-06 0)
(0.000248509 3.12991e-06 0)
(0.000248568 3.24913e-06 0)
(0.000248627 3.3688e-06 0)
(0.000248686 3.48892e-06 0)
(0.000248746 3.60949e-06 0)
(0.000248805 3.73047e-06 0)
(0.000248867 3.85189e-06 0)
(0.000248928 3.97371e-06 0)
(0.000248989 4.09594e-06 0)
(0.000249051 4.21853e-06 0)
(0.000249114 4.34148e-06 0)
(0.000249178 4.46482e-06 0)
(0.000249241 4.58846e-06 0)
(0.000249305 4.71243e-06 0)
(0.00024937 4.8367e-06 0)
(0.000249435 4.96121e-06 0)
(0.000249502 5.08597e-06 0)
(0.000249568 5.21096e-06 0)
(0.000249635 5.33615e-06 0)
(0.000249703 5.46152e-06 0)
(0.000249771 5.58698e-06 0)
(0.00024984 5.71253e-06 0)
(0.000249911 5.83821e-06 0)
(0.000249981 5.96394e-06 0)
(0.000250052 6.08973e-06 0)
(0.000250124 6.21554e-06 0)
(0.000250197 6.34137e-06 0)
(0.000250269 6.46716e-06 0)
(0.000250344 6.59293e-06 0)
(0.000250418 6.71861e-06 0)
(0.000250495 6.84422e-06 0)
(0.000250571 6.9697e-06 0)
(0.000250648 7.09501e-06 0)
(0.000250727 7.22023e-06 0)
(0.000250806 7.34532e-06 0)
(0.000250886 7.47036e-06 0)
(0.000250967 7.59532e-06 0)
(0.000251049 7.72021e-06 0)
(0.000251132 7.84497e-06 0)
(0.000251216 7.96958e-06 0)
(0.000251301 8.09402e-06 0)
(0.000251388 8.21823e-06 0)
(0.000251474 8.34214e-06 0)
(0.000251563 8.46578e-06 0)
(0.000251653 8.58917e-06 0)
(0.000251743 8.71222e-06 0)
(0.000251836 8.83496e-06 0)
(0.000251929 8.95731e-06 0)
(0.000252025 9.07923e-06 0)
(0.000252121 9.20057e-06 0)
(0.000252218 9.32116e-06 0)
(0.000252317 9.44084e-06 0)
(0.000252418 9.55947e-06 0)
(0.00025252 9.67689e-06 0)
(0.000252624 9.79297e-06 0)
(0.000252729 9.90763e-06 0)
(0.000252837 1.00208e-05 0)
(0.000252946 1.01323e-05 0)
(0.000253057 1.0242e-05 0)
(0.00025317 1.03499e-05 0)
(0.000253286 1.04558e-05 0)
(0.000253403 1.05594e-05 0)
(0.000253522 1.06608e-05 0)
(0.000253644 1.07597e-05 0)
(0.000253768 1.0856e-05 0)
(0.000253895 1.09498e-05 0)
(0.000254024 1.1041e-05 0)
(0.000254157 1.11296e-05 0)
(0.000254292 1.12157e-05 0)
(0.00025443 1.12994e-05 0)
(0.000254571 1.13806e-05 0)
(0.000254715 1.14595e-05 0)
(0.000254863 1.1536e-05 0)
(0.000255014 1.16104e-05 0)
(0.000255169 1.16826e-05 0)
(0.000255327 1.17527e-05 0)
(0.00025549 1.18209e-05 0)
(0.000255656 1.18872e-05 0)
(0.000255827 1.19516e-05 0)
(0.000256002 1.20144e-05 0)
(0.000256182 1.20756e-05 0)
(0.000256366 1.21352e-05 0)
(0.000256556 1.21934e-05 0)
(0.000256751 1.22503e-05 0)
(0.000256951 1.23059e-05 0)
(0.000257157 1.23604e-05 0)
(0.000257369 1.24139e-05 0)
(0.000257587 1.24664e-05 0)
(0.000257811 1.25182e-05 0)
(0.000258043 1.25694e-05 0)
(0.000258281 1.26201e-05 0)
(0.000258527 1.26705e-05 0)
(0.000258781 1.27208e-05 0)
(0.000259042 1.27712e-05 0)
(0.000259313 1.2822e-05 0)
(0.000259592 1.28732e-05 0)
(0.00025988 1.29251e-05 0)
(0.000260178 1.29776e-05 0)
(0.000260486 1.30307e-05 0)
(0.000260806 1.30844e-05 0)
(0.000261137 1.31383e-05 0)
(0.000261482 1.3192e-05 0)
(0.000261842 1.32449e-05 0)
(0.000262217 1.32961e-05 0)
(0.000262607 1.33447e-05 0)
(0.000263017 1.339e-05 0)
(0.000263449 1.34313e-05 0)
(0.000263908 1.34686e-05 0)
(0.000264395 1.3502e-05 0)
(0.000264907 1.35317e-05 0)
(0.000265451 1.35583e-05 0)
(0.000266055 1.35827e-05 0)
(0.000266749 1.3606e-05 0)
(0.0002675 1.36273e-05 0)
(0.000268221 1.36379e-05 0)
(0.000269096 1.36354e-05 0)
(0.000270238 1.36179e-05 0)
(0.000271675 1.35672e-05 0)
(0.00027445 1.3418e-05 0)
(0.000281111 1.48743e-05 0)
(0.000285752 2.02251e-05 0)
(0.000307635 2.67125e-05 0)
(0.000893116 1.39594e-05 0)
(0.0934947 -3.97274e-05 0)
(0.156754 1.38599e-05 0)
(0.178535 2.5612e-05 0)
(0.187499 2.48316e-05 0)
(0.191497 2.18701e-05 0)
(0.193211 1.91178e-05 0)
(0.193671 1.68269e-05 0)
(0.193338 1.49469e-05 0)
(0.192452 1.33723e-05 0)
(0.191151 1.20312e-05 0)
(0.189527 1.08717e-05 0)
(0.187641 9.85329e-06 0)
(0.18554 8.94948e-06 0)
(0.18326 8.14187e-06 0)
(0.180827 7.41669e-06 0)
(0.178267 6.76326e-06 0)
(0.175597 6.17301e-06 0)
(0.172834 5.63888e-06 0)
(0.169991 5.1549e-06 0)
(0.167081 4.71596e-06 0)
(0.164113 4.31755e-06 0)
(0.161096 3.95575e-06 0)
(0.158039 3.62701e-06 0)
(0.154948 3.32819e-06 0)
(0.151829 3.05642e-06 0)
(0.148688 2.80914e-06 0)
(0.145529 2.58402e-06 0)
(0.142357 2.37893e-06 0)
(0.139175 2.19195e-06 0)
(0.135988 2.02135e-06 0)
(0.132797 1.86555e-06 0)
(0.129606 1.72311e-06 0)
(0.126418 1.59274e-06 0)
(0.123235 1.47328e-06 0)
(0.120058 1.36366e-06 0)
(0.116889 1.26295e-06 0)
(0.113731 1.17028e-06 0)
(0.110585 1.08488e-06 0)
(0.107451 1.00606e-06 0)
(0.104333 9.33197e-07 0)
(0.10123 8.65736e-07 0)
(0.0981434 8.03176e-07 0)
(0.0950748 7.45072e-07 0)
(0.0920247 6.9103e-07 0)
(0.0889941 6.40695e-07 0)
(0.0859836 5.93753e-07 0)
(0.082994 5.49915e-07 0)
(0.0800259 5.08923e-07 0)
(0.0770799 4.70541e-07 0)
(0.0741565 4.34556e-07 0)
(0.0712562 4.00769e-07 0)
(0.0683501 3.68681e-07 0)
(0.0654098 3.37908e-07 0)
(0.0624355 3.08426e-07 0)
(0.0594277 2.80232e-07 0)
(0.0563868 2.53343e-07 0)
(0.0533133 2.27784e-07 0)
(0.0502078 2.03604e-07 0)
(0.0470711 1.80863e-07 0)
(0.0439039 1.59629e-07 0)
(0.040707 1.39964e-07 0)
(0.0374816 1.2191e-07 0)
(0.0342287 1.05482e-07 0)
(0.0309496 9.06783e-08 0)
(0.0276456 7.74797e-08 0)
(0.0243184 6.58261e-08 0)
(0.0209696 5.56239e-08 0)
(0.0176011 4.677e-08 0)
(0.014215 3.91517e-08 0)
(0.0108136 3.26389e-08 0)
(0.00739929 2.70961e-08 0)
(0.00397491 2.24024e-08 0)
(0.000543492 1.8452e-08 0)
(-0.00289163 1.51406e-08 0)
(-0.00632676 1.23728e-08 0)
(-0.00975785 1.00701e-08 0)
(-0.0131804 8.163e-09 0)
(-0.0165895 6.58831e-09 0)
(-0.0199796 5.29173e-09 0)
(-0.0233448 4.22862e-09 0)
(-0.0266782 3.3593e-09 0)
(-0.0299724 2.6494e-09 0)
(-0.0332192 2.07503e-09 0)
(-0.0364094 1.63388e-09 0)
(-0.0395328 1.2988e-09 0)
(-0.0425782 9.83629e-10 0)
(-0.045533 6.60947e-10 0)
(-0.0483833 3.79191e-10 0)
(-0.0511141 1.91073e-10 0)
(-0.0537086 9.06812e-11 0)
(-0.0561489 3.53928e-11 0)
(-0.0584158 7.26314e-12 0)
(-0.0604894 1.58962e-11 0)
(-0.0623494 1.9754e-11 0)
(-0.0639761 -9.85552e-13 0)
(-0.0653517 2.6754e-13 0)
(-0.0664616 1.70748e-12 0)
(-0.0672962 1.85458e-12 0)
(-0.0678523 1.69781e-12 0)
(-0.0681339 1.54385e-12 0)
(-0.0681522 1.21123e-12 0)
(-0.0679252 1.09511e-12 0)
(-0.0674757 8.92108e-12 0)
(-0.066831 -2.40943e-11 0)
(-0.0660214 5.87127e-11 0)
(-0.0650812 -1.04459e-10 0)
(-0.0640488 1.72543e-10 0)
(-0.062968 -2.53587e-10 0)
(-0.0618912 3.55648e-10 0)
(-0.0608864 -4.68209e-10 0)
(-0.0600637 5.96095e-10 0)
(-0.0597273 -7.2836e-10 0)
(-0.0596938 8.69068e-10 0)
(-0.0596927 -1.01051e-09 0)
(-0.0596927 1.1583e-09 0)
(-0.0596926 -1.30708e-09 0)
(-0.0596926 1.46205e-09 0)
(-0.0596926 -1.61857e-09 0)
(-0.0596926 1.78129e-09 0)
(-0.0596926 -1.94604e-09 0)
(-0.0596926 2.11702e-09 0)
(-0.0596926 -2.29045e-09 0)
(-0.0596925 2.47014e-09 0)
(-0.0596925 -2.65268e-09 0)
(-0.0596925 2.84152e-09 0)
(-0.0596925 -3.03353e-09 0)
(-0.0596925 3.23188e-09 0)
(-0.0596925 -3.43372e-09 0)
(-0.0596925 3.64191e-09 0)
(-0.0596925 -3.85389e-09 0)
(-0.0596925 4.07221e-09 0)
(-0.0596925 -4.29461e-09 0)
(-0.0596925 4.52337e-09 0)
(-0.0596925 -4.75644e-09 0)
(-0.0596925 4.99587e-09 0)
(-0.0596925 -5.23984e-09 0)
(-0.0596925 5.49017e-09 0)
(-0.0596925 -5.74528e-09 0)
(-0.0596925 6.00668e-09 0)
(-0.0596925 -6.27311e-09 0)
(-0.0596925 6.54577e-09 0)
(-0.0596925 -6.82369e-09 0)
(-0.0596925 7.10778e-09 0)
(-0.0596925 -7.39733e-09 0)
(-0.0596925 7.69298e-09 0)
(-0.0596925 -7.99429e-09 0)
(-0.0596925 8.3016e-09 0)
(-0.0596925 -8.61472e-09 0)
(-0.0596925 8.93388e-09 0)
(-0.0596925 -9.25887e-09 0)
(-0.0596925 9.58986e-09 0)
(-0.0596925 -9.92679e-09 0)
(-0.0596925 1.02697e-08 0)
(-0.0596925 -1.06185e-08 0)
(-0.0596925 1.09732e-08 0)
(-0.0596925 -1.13339e-08 0)
(-0.0596925 1.17004e-08 0)
(-0.0596925 -1.20728e-08 0)
(-0.0596925 1.2451e-08 0)
(-0.0596925 -1.2835e-08 0)
(-0.0596925 1.16099e-08 0)
(-0.0596925 -1.17365e-08 0)
(-0.0596925 1.18616e-08 0)
(-0.0596925 -1.19856e-08 0)
(-0.0596925 1.2108e-08 0)
(-0.0596925 -1.22293e-08 0)
(-0.0596925 1.2349e-08 0)
(-0.0596925 -1.24675e-08 0)
(-0.0596925 1.25844e-08 0)
(-0.0596925 -1.27001e-08 0)
(-0.0596925 1.28141e-08 0)
(-0.0596925 -1.29269e-08 0)
(-0.0596925 1.30379e-08 0)
(-0.0596925 -1.31477e-08 0)
(-0.0596925 1.32557e-08 0)
(-0.0596925 -1.33625e-08 0)
(-0.0596925 1.34673e-08 0)
(-0.0596925 -1.35711e-08 0)
(-0.0596925 1.36726e-08 0)
(-0.0596925 -1.37734e-08 0)
(-0.0596925 1.38712e-08 0)
(-0.0596925 -1.39692e-08 0)
(-0.0596925 1.40631e-08 0)
(-0.0596925 -1.41582e-08 0)
(-0.0596925 1.42481e-08 0)
(-0.0596925 -1.43403e-08 0)
(-0.0596925 1.44258e-08 0)
(-0.0596925 -1.45149e-08 0)
(-0.0596925 1.45961e-08 0)
(-0.0596925 -1.4682e-08 0)
(-0.0596925 1.47585e-08 0)
(-0.0596925 -1.4841e-08 0)
(-0.0596925 1.49125e-08 0)
(-0.0596925 -1.49915e-08 0)
(-0.0596925 1.50578e-08 0)
(-0.0596925 -1.51333e-08 0)
(-0.0596925 1.51935e-08 0)
(-0.0596925 -1.52655e-08 0)
(-0.0596925 1.53192e-08 0)
(-0.0596925 -1.53873e-08 0)
(-0.0596925 1.54342e-08 0)
(-0.0596925 -1.54973e-08 0)
(-0.0596925 1.55369e-08 0)
(-0.0596925 -1.55951e-08 0)
(-0.0596925 1.56255e-08 0)
(-0.0596925 -1.56772e-08 0)
(-0.0596925 1.56982e-08 0)
(-0.0596925 -1.57404e-08 0)
(-0.0596925 1.57487e-08 0)
(-0.0596925 -1.57726e-08 0)
)
;

boundaryField
{
    inandouthalf11
    {
        type            cyclic;
    }
    inandouthalf12
    {
        type            cyclic;
    }
    inandouthalf21
    {
        type            cyclic;
    }
    inandouthalf22
    {
        type            cyclic;
    }
    inandouthalf31
    {
        type            cyclic;
    }
    inandouthalf32
    {
        type            cyclic;
    }
    inandouthalf41
    {
        type            cyclic;
    }
    inandouthalf42
    {
        type            cyclic;
    }
    top
    {
        type            symmetryPlane;
    }
    walls
    {
        type            fixedValue;
        value           uniform (0 0 0);
    }
    frontAndBackPlanes
    {
        type            empty;
    }
}


// ************************************************************************* //
