/*--------------------------------*- C++ -*----------------------------------*\
| =========                 |                                                 |
| \\      /  F ield         | OpenFOAM: The Open Source CFD Toolbox           |
|  \\    /   O peration     | Version:  2.4.x                                 |
|   \\  /    A nd           | Web:      www.OpenFOAM.org                      |
|    \\/     M anipulation  |                                                 |
\*---------------------------------------------------------------------------*/
FoamFile
{
    version     2.0;
    format      ascii;
    class       volVectorField;
    location    "7.45";
    object      Ur;
}
// * * * * * * * * * * * * * * * * * * * * * * * * * * * * * * * * * * * * * //

dimensions      [0 1 -1 0 0 0 0];

internalField   nonuniform List<vector> 
360
(
(0.000248516 4.08414e-08 0)
(0.000247232 2.44856e-07 0)
(0.000247022 4.46087e-07 0)
(0.000247198 6.2508e-07 0)
(0.000247293 8.03506e-07 0)
(0.000247327 9.86618e-07 0)
(0.000247364 1.17143e-06 0)
(0.00024741 1.35606e-06 0)
(0.000247458 1.54029e-06 0)
(0.000247506 1.72443e-06 0)
(0.000247555 1.90881e-06 0)
(0.000247604 2.09355e-06 0)
(0.000247653 2.27866e-06 0)
(0.000247702 2.46411e-06 0)
(0.000247752 2.64993e-06 0)
(0.000247802 2.83618e-06 0)
(0.000247853 3.02294e-06 0)
(0.000247905 3.21026e-06 0)
(0.000247956 3.3982e-06 0)
(0.000248009 3.5868e-06 0)
(0.000248062 3.77607e-06 0)
(0.000248115 3.96605e-06 0)
(0.000248169 4.15676e-06 0)
(0.000248223 4.34823e-06 0)
(0.000248278 4.54046e-06 0)
(0.000248334 4.73347e-06 0)
(0.000248389 4.92724e-06 0)
(0.000248446 5.12179e-06 0)
(0.000248503 5.31712e-06 0)
(0.000248561 5.51322e-06 0)
(0.000248619 5.71005e-06 0)
(0.000248678 5.90764e-06 0)
(0.000248737 6.10594e-06 0)
(0.000248797 6.30496e-06 0)
(0.000248858 6.50468e-06 0)
(0.000248919 6.70507e-06 0)
(0.000248981 6.90609e-06 0)
(0.000249043 7.10772e-06 0)
(0.000249107 7.31e-06 0)
(0.00024917 7.51281e-06 0)
(0.000249236 7.71616e-06 0)
(0.000249301 7.92005e-06 0)
(0.000249366 8.12435e-06 0)
(0.000249434 8.3291e-06 0)
(0.000249501 8.53424e-06 0)
(0.000249569 8.73973e-06 0)
(0.000249639 8.94555e-06 0)
(0.000249708 9.15155e-06 0)
(0.000249778 9.35771e-06 0)
(0.000249851 9.56411e-06 0)
(0.000249922 9.77064e-06 0)
(0.000249996 9.97729e-06 0)
(0.000250069 1.0184e-05 0)
(0.000250145 1.03908e-05 0)
(0.00025022 1.05975e-05 0)
(0.000250297 1.08042e-05 0)
(0.000250374 1.10109e-05 0)
(0.000250453 1.12174e-05 0)
(0.000250532 1.14238e-05 0)
(0.000250612 1.16299e-05 0)
(0.000250694 1.18359e-05 0)
(0.000250776 1.20417e-05 0)
(0.00025086 1.22475e-05 0)
(0.000250945 1.24532e-05 0)
(0.000251031 1.26588e-05 0)
(0.000251118 1.28642e-05 0)
(0.000251206 1.30695e-05 0)
(0.000251295 1.32744e-05 0)
(0.000251386 1.34791e-05 0)
(0.000251477 1.36833e-05 0)
(0.00025157 1.38871e-05 0)
(0.000251665 1.40905e-05 0)
(0.00025176 1.42934e-05 0)
(0.000251858 1.44959e-05 0)
(0.000251957 1.46978e-05 0)
(0.000252057 1.4899e-05 0)
(0.000252159 1.50993e-05 0)
(0.000252262 1.52985e-05 0)
(0.000252366 1.54962e-05 0)
(0.000252473 1.56922e-05 0)
(0.000252581 1.58863e-05 0)
(0.00025269 1.60782e-05 0)
(0.000252802 1.62679e-05 0)
(0.000252916 1.64551e-05 0)
(0.000253031 1.66397e-05 0)
(0.000253149 1.68215e-05 0)
(0.000253268 1.70003e-05 0)
(0.000253389 1.71759e-05 0)
(0.000253513 1.73479e-05 0)
(0.000253639 1.75161e-05 0)
(0.000253767 1.76803e-05 0)
(0.000253897 1.78405e-05 0)
(0.00025403 1.79965e-05 0)
(0.000254165 1.81483e-05 0)
(0.000254304 1.82959e-05 0)
(0.000254445 1.84395e-05 0)
(0.000254589 1.85791e-05 0)
(0.000254736 1.87148e-05 0)
(0.000254886 1.88466e-05 0)
(0.000255039 1.89748e-05 0)
(0.000255196 1.90994e-05 0)
(0.000255356 1.92205e-05 0)
(0.000255519 1.93384e-05 0)
(0.000255687 1.9453e-05 0)
(0.000255858 1.95647e-05 0)
(0.000256034 1.96734e-05 0)
(0.000256214 1.97795e-05 0)
(0.000256399 1.9883e-05 0)
(0.000256588 1.9984e-05 0)
(0.000256782 2.00828e-05 0)
(0.000256981 2.01796e-05 0)
(0.000257186 2.02743e-05 0)
(0.000257396 2.03674e-05 0)
(0.000257613 2.04588e-05 0)
(0.000257835 2.05489e-05 0)
(0.000258064 2.06378e-05 0)
(0.0002583 2.07258e-05 0)
(0.000258543 2.08132e-05 0)
(0.000258793 2.09003e-05 0)
(0.000259051 2.09873e-05 0)
(0.000259317 2.10748e-05 0)
(0.000259592 2.11629e-05 0)
(0.000259876 2.12519e-05 0)
(0.00026017 2.13422e-05 0)
(0.000260474 2.14338e-05 0)
(0.000260788 2.15268e-05 0)
(0.000261114 2.16208e-05 0)
(0.000261452 2.17154e-05 0)
(0.000261805 2.181e-05 0)
(0.000262172 2.19036e-05 0)
(0.000262555 2.19947e-05 0)
(0.000262954 2.20819e-05 0)
(0.000263372 2.21639e-05 0)
(0.000263812 2.22397e-05 0)
(0.000264281 2.23092e-05 0)
(0.000264777 2.23726e-05 0)
(0.000265298 2.24306e-05 0)
(0.000265851 2.24841e-05 0)
(0.000266465 2.25349e-05 0)
(0.00026717 2.25853e-05 0)
(0.000267933 2.26332e-05 0)
(0.000268666 2.26661e-05 0)
(0.000269549 2.26783e-05 0)
(0.000270696 2.26679e-05 0)
(0.000272134 2.26194e-05 0)
(0.00027491 2.24708e-05 0)
(0.00028157 2.39281e-05 0)
(0.000282343 3.26015e-05 0)
(0.0002864 4.36831e-05 0)
(0.000564441 3.96614e-05 0)
(0.0200512 -0.000167862 0)
(0.0207482 3.72997e-05 0)
(0.0188527 0.00117436 0)
(0.0169158 0.00219441 0)
(0.0154674 0.00309192 0)
(0.0145446 0.00386535 0)
(0.0140198 0.00453838 0)
(0.0137675 0.00514261 0)
(0.0136846 0.00567607 0)
(0.0137366 0.00615815 0)
(0.0138702 0.00658289 0)
(0.0140574 0.00695239 0)
(0.0142787 0.0072694 0)
(0.0145203 0.00753771 0)
(0.0147721 0.00776171 0)
(0.0150264 0.00794605 0)
(0.0152775 0.00809547 0)
(0.0155206 0.00821452 0)
(0.0157518 0.00830755 0)
(0.0159679 0.00837858 0)
(0.016166 0.00843125 0)
(0.0163436 0.00846885 0)
(0.0164982 0.00849428 0)
(0.0166278 0.00851005 0)
(0.0167301 0.00851832 0)
(0.0168033 0.0085209 0)
(0.0168455 0.00851928 0)
(0.0168549 0.00851466 0)
(0.0168297 0.00850795 0)
(0.0167684 0.00849984 0)
(0.0166692 0.00849079 0)
(0.0165306 0.00848108 0)
(0.0163513 0.00847084 0)
(0.0161296 0.00846007 0)
(0.0158644 0.00844863 0)
(0.0155542 0.00843634 0)
(0.0151977 0.00842292 0)
(0.0147939 0.00840806 0)
(0.0143415 0.00839142 0)
(0.0138393 0.00837264 0)
(0.0132864 0.00835136 0)
(0.0126817 0.00832722 0)
(0.0120241 0.0082999 0)
(0.0113127 0.00826905 0)
(0.0105467 0.00823438 0)
(0.00972505 0.00819561 0)
(0.008847 0.00815246 0)
(0.00791171 0.00810473 0)
(0.00691843 0.00805222 0)
(0.00586641 0.00799482 0)
(0.00475493 0.00793247 0)
(0.00357195 0.0078645 0)
(0.00230526 0.00779012 0)
(0.000954462 0.00770929 0)
(-0.000480638 0.00762212 0)
(-0.00199994 0.0075289 0)
(-0.00360301 0.00743014 0)
(-0.00528907 0.00732657 0)
(-0.00705689 0.0072191 0)
(-0.00890483 0.00710877 0)
(-0.0108308 0.00699662 0)
(-0.0128323 0.00688367 0)
(-0.0149061 0.00677086 0)
(-0.0170486 0.00665902 0)
(-0.0192559 0.00654879 0)
(-0.0215235 0.0064406 0)
(-0.0238466 0.00633473 0)
(-0.0262203 0.00623134 0)
(-0.0286391 0.00613042 0)
(-0.031098 0.00603181 0)
(-0.0335914 0.00593535 0)
(-0.0361136 0.00584092 0)
(-0.0386591 0.00574831 0)
(-0.0412225 0.00565726 0)
(-0.0437981 0.00556766 0)
(-0.0463805 0.00547938 0)
(-0.0489647 0.00539229 0)
(-0.051546 0.00530636 0)
(-0.0541201 0.00522158 0)
(-0.056683 0.00513821 0)
(-0.0592329 0.00505629 0)
(-0.0617674 0.00497668 0)
(-0.0642888 0.00489976 0)
(-0.0668009 0.00482823 0)
(-0.0693341 0.00475429 0)
(-0.0719188 0.00467659 0)
(-0.074353 0.00460035 0)
(0.00720234 0.00300625 0)
(0.00711661 0.00379402 0)
(0.0071624 -0.000105965 0)
(0.00699522 0.00441341 0)
(0.00702048 -0.00321749 0)
(0.00698417 0.00415005 0)
(0.00541819 0.0331044 0)
(0.00503789 0.0396046 0)
(0.00511235 0.0395582 0)
(0.00501732 0.0395538 0)
(0.00494962 0.0395456 0)
(0.00486639 0.0395387 0)
(0.00477451 0.0395334 0)
(0.00472799 0.0395269 0)
(0.00466922 0.0395224 0)
(0.00462034 0.0395188 0)
(0.00457997 0.039516 0)
(0.00454857 0.0395139 0)
(0.00452647 0.0395123 0)
(0.00451412 0.0395109 0)
(0.00451226 0.0395094 0)
(0.00452165 0.0395073 0)
(0.0045339 0.0395038 0)
(0.00462098 0.0394957 0)
(0.00469838 0.0394884 0)
(0.00470725 0.039486 0)
(0.00470752 0.0394858 0)
(0.00470753 0.0394858 0)
(0.00470753 0.0394858 0)
(0.00470753 0.0394858 0)
(0.00470753 0.0394858 0)
(0.00470753 0.0394858 0)
(0.00470754 0.0394858 0)
(0.00470754 0.0394858 0)
(0.00470754 0.0394858 0)
(0.00470754 0.0394858 0)
(0.00470754 0.0394858 0)
(0.00470754 0.0394858 0)
(0.00470754 0.0394858 0)
(0.00470754 0.0394858 0)
(0.00470754 0.0394858 0)
(0.00470754 0.0394858 0)
(0.00470754 0.0394858 0)
(0.00470754 0.0394858 0)
(0.00470754 0.0394858 0)
(0.00470754 0.0394858 0)
(0.00470754 0.0394858 0)
(0.00470754 0.0394858 0)
(0.00470754 0.0394858 0)
(0.00470754 0.0394858 0)
(0.00470754 0.0394858 0)
(0.00470754 0.0394858 0)
(0.00470754 0.0394858 0)
(0.00470754 0.0394858 0)
(0.00470754 0.0394858 0)
(0.00470754 0.0394858 0)
(0.00470754 0.0394858 0)
(0.00470754 0.0394858 0)
(0.00470754 0.0394858 0)
(0.00470754 0.0394858 0)
(0.00470754 0.0394858 0)
(0.00470754 0.0394858 0)
(0.00470754 0.0394858 0)
(0.00470754 0.0394858 0)
(0.00470754 0.0394858 0)
(0.00470754 0.0394858 0)
(0.00470754 0.0394858 0)
(0.00470754 0.0394858 0)
(0.00470754 0.0394858 0)
(0.00470754 0.0394858 0)
(0.00470754 0.0394858 0)
(0.00470754 0.0394858 0)
(0.00470754 0.0394858 0)
(0.00470754 0.0394858 0)
(0.00470754 0.0394858 0)
(0.00470754 0.0394858 0)
(0.00470754 0.0394858 0)
(0.00470754 0.0394858 0)
(0.00470754 0.0394858 0)
(0.00470754 0.0394858 0)
(0.00470754 0.0394858 0)
(0.00470754 0.0394858 0)
(0.00470754 0.0394858 0)
(0.00470754 0.0394858 0)
(0.00470754 0.0394858 0)
(0.00470754 0.0394858 0)
(0.00470754 0.0394858 0)
(0.00470754 0.0394858 0)
(0.00470754 0.0394858 0)
(0.00470754 0.0394858 0)
(0.00470754 0.0394858 0)
(0.00470754 0.0394858 0)
(0.00470754 0.0394858 0)
(0.00470754 0.0394858 0)
(0.00470754 0.0394858 0)
(0.00470754 0.0394858 0)
(0.00470754 0.0394858 0)
(0.00470754 0.0394858 0)
(0.00470754 0.0394858 0)
(0.00470754 0.0394858 0)
(0.00470754 0.0394858 0)
(0.00470754 0.0394858 0)
(0.00470754 0.0394858 0)
(0.00470754 0.0394858 0)
(0.00470754 0.0394858 0)
(0.00470754 0.0394858 0)
(0.00470754 0.0394858 0)
(0.00470754 0.0394858 0)
(0.00470754 0.0394858 0)
(0.00470754 0.0394858 0)
(0.00470754 0.0394858 0)
(0.00470754 0.0394858 0)
(0.00470754 0.0394858 0)
(0.00470754 0.0394858 0)
(0.00470754 0.0394858 0)
(0.00470754 0.0394858 0)
(0.00470754 0.0394858 0)
(0.00470754 0.0394858 0)
(0.00470754 0.0394858 0)
(0.00470759 0.0394856 0)
(0.00470889 0.0394771 0)
(0.00474069 0.0391312 0)
(0.00547836 0.0223748 0)
)
;

boundaryField
{
    inandouthalf11
    {
        type            cyclic;
    }
    inandouthalf12
    {
        type            cyclic;
    }
    inandouthalf21
    {
        type            cyclic;
    }
    inandouthalf22
    {
        type            cyclic;
    }
    inandouthalf31
    {
        type            cyclic;
    }
    inandouthalf32
    {
        type            cyclic;
    }
    inandouthalf41
    {
        type            cyclic;
    }
    inandouthalf42
    {
        type            cyclic;
    }
    top
    {
        type            symmetryPlane;
    }
    walls
    {
        type            calculated;
        value           uniform (0 0 0);
    }
    frontAndBackPlanes
    {
        type            empty;
    }
}


// ************************************************************************* //
