/*--------------------------------*- C++ -*----------------------------------*\
| =========                 |                                                 |
| \\      /  F ield         | OpenFOAM: The Open Source CFD Toolbox           |
|  \\    /   O peration     | Version:  2.4.x                                 |
|   \\  /    A nd           | Web:      www.OpenFOAM.org                      |
|    \\/     M anipulation  |                                                 |
\*---------------------------------------------------------------------------*/
FoamFile
{
    version     2.0;
    format      ascii;
    class       volScalarField;
    location    "2.8";
    object      alpha_0;
}
// * * * * * * * * * * * * * * * * * * * * * * * * * * * * * * * * * * * * * //

dimensions      [0 0 0 0 0 0 0];

internalField   nonuniform List<scalar> 
360
(
0.610067
0.610217
0.610312
0.610332
0.610328
0.610302
0.61025
0.610187
0.610129
0.610085
0.610054
0.610037
0.610028
0.610022
0.610019
0.610018
0.610017
0.610016
0.610015
0.610014
0.610013
0.610011
0.61001
0.610008
0.610006
0.610004
0.610002
0.609999
0.609997
0.609994
0.609991
0.609987
0.609985
0.60998
0.609976
0.609972
0.609967
0.609962
0.609956
0.60995
0.609943
0.609936
0.609929
0.60992
0.609911
0.609901
0.60989
0.60988
0.609867
0.609853
0.60984
0.609824
0.609808
0.609791
0.609773
0.609753
0.609732
0.609709
0.609686
0.609662
0.609636
0.60961
0.609582
0.609554
0.609525
0.609496
0.609466
0.609435
0.609402
0.609369
0.609333
0.609296
0.609258
0.609219
0.609179
0.609137
0.609096
0.609053
0.60901
0.608966
0.608921
0.608874
0.608827
0.608778
0.608727
0.608676
0.608623
0.608569
0.608514
0.608458
0.608402
0.608343
0.608284
0.608223
0.608161
0.608097
0.608032
0.607965
0.607897
0.607828
0.607756
0.607683
0.607609
0.607532
0.607454
0.607373
0.607291
0.607207
0.60712
0.607031
0.60694
0.606847
0.60675
0.606652
0.60655
0.606445
0.606338
0.606227
0.606112
0.605994
0.605872
0.605746
0.605615
0.60548
0.605341
0.605196
0.605045
0.604889
0.604726
0.604556
0.60438
0.604196
0.604005
0.603804
0.603592
0.603369
0.603138
0.602895
0.60263
0.602327
0.602001
0.601695
0.601326
0.600838
0.600237
0.599321
0.594775
0.594135
0.590674
0.32062
0.134805
0.0759864
0.0537808
0.0425193
0.0353574
0.0302289
0.0262968
0.0231419
0.020529
0.0183147
0.0164061
0.0147394
0.0132691
0.0119617
0.0107916
0.0097388
0.00878761
0.00792517
0.00714094
0.00642612
0.00577324
0.0051759
0.0046285
0.00412612
0.00366465
0.00324118
0.00285455
0.0025053
0.00219444
0.00192144
0.00168332
0.00147559
0.00129363
0.00113313
0.000990057
0.000860308
0.000739562
0.000623525
0.000509171
0.00039708
0.000292935
0.000205045
0.000138975
9.42067e-05
6.59213e-05
4.84488e-05
3.73588e-05
2.98858e-05
2.45117e-05
2.04613e-05
1.73421e-05
1.48373e-05
1.27008e-05
1.08715e-05
9.41392e-06
8.20136e-06
7.05639e-06
6.07317e-06
5.31165e-06
4.62443e-06
3.98181e-06
3.45565e-06
3.00348e-06
2.58514e-06
2.23844e-06
1.94396e-06
1.6581e-06
1.42376e-06
1.23834e-06
1.05828e-06
9.00614e-07
7.72057e-07
6.56969e-07
5.61092e-07
4.77087e-07
3.9853e-07
3.37207e-07
2.84665e-07
2.35492e-07
1.97418e-07
1.63597e-07
1.34936e-07
1.1086e-07
9.11174e-08
7.42832e-08
5.98371e-08
4.8131e-08
3.86099e-08
3.00219e-08
2.3938e-08
1.7549e-08
6.5312e-08
1.49267e-12
7.12916e-13
6.29191e-13
4.97831e-13
4.30682e-13
3.09292e-13
2.53158e-13
1.89383e-13
1.64531e-13
1.35432e-13
1.18754e-13
8.47602e-14
5.80993e-14
4.38785e-14
3.81703e-14
3.34107e-14
2.59084e-14
1.62288e-14
1.18973e-14
1.00388e-14
8.61234e-15
6.27726e-15
3.8123e-15
2.85796e-15
2.39582e-15
1.90885e-15
1.16126e-15
7.49008e-16
5.86721e-16
4.75314e-16
3.08189e-16
1.80824e-16
1.33175e-16
1.04969e-16
6.78255e-17
4.19492e-17
3.14598e-17
2.18695e-17
1.09195e-17
6.46013e-18
3.41109e-18
1.19081e-18
5.09231e-19
2.22381e-19
9.73504e-20
4.23813e-20
1.8111e-20
7.54976e-21
3.05082e-21
1.18892e-21
4.44819e-22
1.5909e-22
5.41608e-23
1.74755e-23
5.31969e-24
1.52002e-24
4.05334e-25
1.002e-25
2.27809e-26
4.71813e-27
8.79708e-28
1.45465e-28
2.0914e-29
2.54372e-30
2.51302e-31
1.8859e-32
9.41552e-34
2.06515e-35
1.54819e-37
3.59242e-39
4.12882e-41
5.58922e-52
3.79969e-63
1.89346e-74
6.95543e-86
2.24617e-97
7.00317e-109
3.44252e-120
4.61888e-128
9.43474e-139
1.58936e-146
3.19949e-157
5.46725e-165
1.36862e-175
1.88019e-183
6.22323e-194
6.47041e-202
4.22719e-212
2.24228e-220
2.81007e-230
7.85883e-239
1.4337e-248
2.78567e-257
6.81559e-267
1.0004e-275
3.01941e-285
3.63662e-294
1.29549e-303
1.33847e-312
1.73911e-321
6.08689e-321
8.5424e-321
0
0
0
0
0
0
0
0
0
0
0
0
0
0
0
0
)
;

boundaryField
{
    inandouthalf11
    {
        type            cyclic;
    }
    inandouthalf12
    {
        type            cyclic;
    }
    inandouthalf21
    {
        type            cyclic;
    }
    inandouthalf22
    {
        type            cyclic;
    }
    inandouthalf31
    {
        type            cyclic;
    }
    inandouthalf32
    {
        type            cyclic;
    }
    inandouthalf41
    {
        type            cyclic;
    }
    inandouthalf42
    {
        type            cyclic;
    }
    top
    {
        type            symmetryPlane;
    }
    walls
    {
        type            zeroGradient;
    }
    frontAndBackPlanes
    {
        type            empty;
    }
}


// ************************************************************************* //
