/*--------------------------------*- C++ -*----------------------------------*\
| =========                 |                                                 |
| \\      /  F ield         | OpenFOAM: The Open Source CFD Toolbox           |
|  \\    /   O peration     | Version:  2.4.x                                 |
|   \\  /    A nd           | Web:      www.OpenFOAM.org                      |
|    \\/     M anipulation  |                                                 |
\*---------------------------------------------------------------------------*/
FoamFile
{
    version     2.0;
    format      ascii;
    class       volScalarField;
    location    "2.8";
    object      ddt0(alpha);
}
// * * * * * * * * * * * * * * * * * * * * * * * * * * * * * * * * * * * * * //

dimensions      [0 0 -1 0 0 0 0];

internalField   nonuniform List<scalar> 
360
(
0.000414308
0.00121739
0.00161977
0.0015111
0.00121369
0.00097564
0.000829706
0.000720691
0.000590977
0.000429328
0.000268435
0.000147015
7.53298e-05
3.96231e-05
2.34431e-05
1.64817e-05
1.38368e-05
1.33911e-05
1.41518e-05
1.55968e-05
1.7191e-05
1.8656e-05
1.97314e-05
2.03692e-05
2.0627e-05
2.06422e-05
2.05482e-05
2.0481e-05
2.04796e-05
2.05559e-05
2.06951e-05
2.09304e-05
2.11784e-05
2.15042e-05
2.18243e-05
2.21689e-05
2.25191e-05
2.28928e-05
2.33133e-05
2.36992e-05
2.4132e-05
2.45905e-05
2.50515e-05
2.55943e-05
2.61739e-05
2.68016e-05
2.74999e-05
2.82422e-05
2.90987e-05
3.01118e-05
3.11902e-05
3.23899e-05
3.36832e-05
3.51256e-05
3.66698e-05
3.8412e-05
4.02508e-05
4.22382e-05
4.43046e-05
4.6369e-05
4.84804e-05
5.04525e-05
5.2308e-05
5.39494e-05
5.54457e-05
5.68722e-05
5.84093e-05
6.02001e-05
6.2383e-05
6.50386e-05
6.82869e-05
7.20623e-05
7.61171e-05
8.03803e-05
8.45153e-05
8.83347e-05
9.15448e-05
9.41234e-05
9.61378e-05
9.77612e-05
9.91835e-05
0.000100666
0.000102382
0.000104415
0.000106777
0.000109379
0.000112101
0.000114773
0.000117263
0.000119491
0.000121421
0.000123069
0.000124497
0.000125767
0.000126932
0.00012803
0.000129077
0.000130075
0.00013102
0.000131906
0.00013273
0.000133492
0.000134196
0.00013484
0.000135424
0.000135942
0.000136385
0.000136742
0.000137002
0.000137151
0.000137173
0.000137052
0.000136771
0.000136314
0.000135669
0.00013483
0.000133803
0.000132603
0.000131264
0.000129839
0.0001284
0.000127047
0.000125902
0.000125126
0.000124917
0.000125523
0.00012723
0.000130331
0.000135065
0.000141529
0.000149619
0.000159066
0.000169543
0.000180589
0.000191031
0.000198362
0.000199766
0.000194267
0.000181896
0.000159674
0.000122167
7.10636e-05
2.69946e-05
-2.67547e-06
-2.23547e-05
-0.000222665
0.0103425
0.0169245
0.0247428
1.61243
0.22709
-0.163713
-0.212533
-0.199194
-0.175169
-0.151685
-0.131156
-0.113667
-0.0988566
-0.0862887
-0.0755594
-0.066336
-0.0583514
-0.0513942
-0.0452963
-0.0399242
-0.0351699
-0.0309461
-0.0271807
-0.0238141
-0.020796
-0.0180835
-0.0156394
-0.0134303
-0.0114306
-0.0096279
-0.00803152
-0.00666679
-0.0055489
-0.00465105
-0.0039123
-0.00328055
-0.00272586
-0.00222806
-0.00176699
-0.00131943
-0.000858062
-0.000366398
0.00013292
0.00055461
0.000787615
0.000791275
0.000638064
0.000444633
0.000285992
0.000180777
0.000118119
8.17577e-05
5.97214e-05
4.51146e-05
3.49121e-05
2.802e-05
2.30827e-05
1.84995e-05
1.45559e-05
1.23373e-05
1.06855e-05
8.49584e-06
6.82784e-06
6.00418e-06
5.0854e-06
4.12093e-06
3.52473e-06
2.98463e-06
2.4215e-06
2.09989e-06
1.80784e-06
1.41811e-06
1.18629e-06
1.04561e-06
8.54365e-07
6.99473e-07
5.8094e-07
4.7531e-07
4.07545e-07
3.3527e-07
2.62638e-07
2.21435e-07
1.80447e-07
1.41779e-07
1.15871e-07
9.21822e-08
7.21621e-08
5.63766e-08
4.45135e-08
3.43188e-08
2.56996e-08
1.9607e-08
1.43098e-08
1.05283e-08
6.49092e-09
7.12513e-09
-1.07669e-11
-4.1357e-12
-3.49881e-12
-3.1823e-12
-3.12218e-12
-2.56055e-12
-2.03195e-12
-1.08796e-12
-7.79066e-13
-6.50158e-13
-7.0103e-13
-8.26278e-13
-5.87995e-13
-2.21264e-13
-1.34217e-13
-1.53607e-13
-2.25596e-13
-1.6395e-13
-6.5172e-14
-3.81084e-14
-4.26097e-14
-6.00613e-14
-3.14895e-14
-1.46587e-14
-9.94236e-15
-1.26518e-14
-1.26694e-14
-4.75082e-15
-2.65129e-15
-2.63424e-15
-3.05777e-15
-1.28805e-15
-6.78544e-16
-5.70678e-16
-5.87231e-16
-2.61568e-16
-1.65395e-16
-1.83594e-16
-1.04787e-16
-5.83115e-17
-4.68815e-17
-1.59703e-17
-6.52458e-18
-2.7808e-18
-1.19679e-18
-5.20025e-19
-2.23078e-19
-9.38518e-20
-3.84075e-20
-1.51901e-20
-5.77584e-21
-2.10117e-21
-7.27916e-22
-2.39045e-22
-7.40631e-23
-2.15386e-23
-5.84532e-24
-1.47047e-24
-3.40191e-25
-7.16903e-26
-1.36007e-26
-2.28842e-27
-3.34841e-28
-4.14616e-29
-4.17292e-30
-3.19453e-31
-1.63196e-32
-3.7077e-34
-2.94966e-36
-6.96747e-38
-8.1483e-40
-1.10352e-50
-7.50932e-62
-3.73479e-73
-1.3717e-84
-4.41673e-96
-1.37985e-107
-6.78095e-119
-9.11514e-127
-1.85618e-137
-3.13654e-145
-6.30396e-156
-1.07893e-163
-2.69021e-174
-3.71045e-182
-1.22073e-192
-1.27689e-200
-8.30075e-211
-4.42467e-219
-5.51783e-229
-1.55043e-237
-2.81399e-247
-5.49343e-256
-1.33515e-265
-1.97097e-274
-5.90808e-284
-7.15853e-293
-2.53083e-302
-2.62982e-311
1.39475e-320
0
0
0
0
0
0
0
0
0
0
0
0
0
0
0
0
0
0
)
;

boundaryField
{
    inandouthalf11
    {
        type            cyclic;
    }
    inandouthalf12
    {
        type            cyclic;
    }
    inandouthalf21
    {
        type            cyclic;
    }
    inandouthalf22
    {
        type            cyclic;
    }
    inandouthalf31
    {
        type            cyclic;
    }
    inandouthalf32
    {
        type            cyclic;
    }
    inandouthalf41
    {
        type            cyclic;
    }
    inandouthalf42
    {
        type            cyclic;
    }
    top
    {
        type            symmetryPlane;
    }
    walls
    {
        type            calculated;
        value           uniform 0.000414308;
    }
    frontAndBackPlanes
    {
        type            empty;
    }
}


// ************************************************************************* //
