/*--------------------------------*- C++ -*----------------------------------*\
| =========                 |                                                 |
| \\      /  F ield         | OpenFOAM: The Open Source CFD Toolbox           |
|  \\    /   O peration     | Version:  2.4.x                                 |
|   \\  /    A nd           | Web:      www.OpenFOAM.org                      |
|    \\/     M anipulation  |                                                 |
\*---------------------------------------------------------------------------*/
FoamFile
{
    version     2.0;
    format      ascii;
    class       surfaceScalarField;
    location    "2.8";
    object      ddt0(phia);
}
// * * * * * * * * * * * * * * * * * * * * * * * * * * * * * * * * * * * * * //

dimensions      [0 3 -2 0 0 0 0];

internalField   nonuniform List<scalar> 
359
(
1.56634e-11
6.37628e-11
1.25255e-10
1.69091e-10
1.84011e-10
1.75016e-10
1.48425e-10
1.09781e-10
6.70981e-11
2.99871e-11
4.58848e-12
-9.35623e-12
-1.58273e-11
-1.85522e-11
-1.9661e-11
-2.00993e-11
-2.02476e-11
-2.02644e-11
-2.02302e-11
-2.0197e-11
-2.02e-11
-2.02567e-11
-2.03662e-11
-2.05146e-11
-2.0683e-11
-2.08544e-11
-2.10177e-11
-2.11675e-11
-2.13028e-11
-2.14251e-11
-2.15373e-11
-2.16424e-11
-2.17427e-11
-2.18398e-11
-2.19344e-11
-2.20266e-11
-2.21158e-11
-2.22016e-11
-2.22831e-11
-2.23597e-11
-2.24307e-11
-2.24957e-11
-2.25541e-11
-2.26057e-11
-2.265e-11
-2.26867e-11
-2.27152e-11
-2.27348e-11
-2.2745e-11
-2.27448e-11
-2.27332e-11
-2.2709e-11
-2.26709e-11
-2.26174e-11
-2.25467e-11
-2.24568e-11
-2.23458e-11
-2.22114e-11
-2.20516e-11
-2.18646e-11
-2.16488e-11
-2.14036e-11
-2.11283e-11
-2.08233e-11
-2.04886e-11
-2.01237e-11
-1.97268e-11
-1.92946e-11
-1.88223e-11
-1.83041e-11
-1.77328e-11
-1.71022e-11
-1.64083e-11
-1.56493e-11
-1.48281e-11
-1.39513e-11
-1.30297e-11
-1.20752e-11
-1.1099e-11
-1.01094e-11
-9.11098e-12
-8.10411e-12
-7.08573e-12
-6.05073e-12
-4.99318e-12
-3.90792e-12
-2.79128e-12
-1.64207e-12
-4.61333e-13
7.4812e-13
1.9823e-12
3.23687e-12
4.50783e-12
5.79175e-12
7.08585e-12
8.38783e-12
9.69566e-12
1.10075e-11
1.23214e-11
1.36356e-11
1.49483e-11
1.6258e-11
1.75633e-11
1.88629e-11
2.01558e-11
2.14412e-11
2.27185e-11
2.39873e-11
2.52472e-11
2.64982e-11
2.77399e-11
2.89722e-11
3.01946e-11
3.14064e-11
3.26061e-11
3.37918e-11
3.49607e-11
3.61095e-11
3.72337e-11
3.83283e-11
3.93879e-11
4.0406e-11
4.13758e-11
4.22895e-11
4.31382e-11
4.3911e-11
4.45944e-11
4.51704e-11
4.56155e-11
4.59003e-11
4.59917e-11
4.58612e-11
4.5496e-11
4.49162e-11
4.41935e-11
4.34692e-11
4.29519e-11
4.288e-11
4.34624e-11
4.47748e-11
4.65865e-11
4.83077e-11
4.95265e-11
5.01351e-11
5.03016e-11
5.02977e-11
2.24591e-09
5.9992e-09
1.62752e-08
6.51672e-08
1.2176e-07
1.17548e-07
2.93575e-08
-4.27198e-08
-8.99613e-08
-1.18984e-07
-1.36112e-07
-1.45378e-07
-1.49816e-07
-1.51413e-07
-1.51391e-07
-1.50505e-07
-1.49211e-07
-1.47783e-07
-1.46382e-07
-1.45102e-07
-1.43994e-07
-1.43085e-07
-1.42386e-07
-1.41894e-07
-1.41594e-07
-1.41454e-07
-1.41411e-07
-1.41362e-07
-1.41204e-07
-1.40926e-07
-1.40838e-07
-1.41696e-07
-1.44433e-07
-1.49285e-07
-1.55616e-07
-1.62746e-07
-1.70267e-07
-1.77171e-07
-1.85061e-07
-1.91182e-07
-1.95079e-07
-1.95288e-07
-1.90549e-07
-1.80858e-07
-1.68156e-07
-1.55461e-07
-1.4502e-07
-1.37396e-07
-1.32085e-07
-1.28359e-07
-1.25659e-07
-1.23631e-07
-1.22073e-07
-1.20882e-07
-1.19995e-07
-1.19344e-07
-1.18918e-07
-1.18735e-07
-1.18628e-07
-1.18519e-07
-1.18386e-07
-1.18249e-07
-1.18112e-07
-1.17953e-07
-1.17776e-07
-1.17593e-07
-1.17398e-07
-1.17188e-07
-1.16974e-07
-1.16743e-07
-1.16491e-07
-1.16241e-07
-1.15986e-07
-1.15707e-07
-1.15415e-07
-1.15115e-07
-1.14805e-07
-1.14484e-07
-1.1414e-07
-1.13775e-07
-1.13403e-07
-1.13009e-07
-1.1259e-07
-1.12155e-07
-1.11697e-07
-1.11212e-07
-1.10705e-07
-1.10176e-07
-1.09619e-07
-1.09032e-07
-1.08422e-07
-1.07784e-07
-1.07114e-07
-1.06405e-07
-1.05724e-07
-5.32043e-08
4.46445e-11
4.45897e-11
4.46059e-11
4.45892e-11
4.46057e-11
4.45851e-11
4.46067e-11
4.45815e-11
4.4608e-11
4.45783e-11
4.46095e-11
4.45753e-11
4.46113e-11
4.45724e-11
4.46133e-11
4.45694e-11
4.46155e-11
4.45664e-11
4.46178e-11
4.45632e-11
4.46177e-11
4.45644e-11
4.46185e-11
4.45586e-11
4.46248e-11
4.45594e-11
4.46228e-11
4.45579e-11
4.46233e-11
4.45589e-11
4.4619e-11
4.45695e-11
4.45937e-11
4.45762e-11
4.46072e-11
4.45722e-11
4.46101e-11
4.45695e-11
4.46128e-11
4.45667e-11
4.46158e-11
4.45637e-11
4.46191e-11
4.45604e-11
4.46225e-11
4.4557e-11
4.46262e-11
4.45535e-11
4.46299e-11
4.455e-11
4.46338e-11
4.45464e-11
4.46376e-11
4.45427e-11
4.46413e-11
4.45392e-11
4.46449e-11
4.45356e-11
4.46483e-11
4.45323e-11
4.46514e-11
4.45292e-11
4.46543e-11
4.45264e-11
4.46569e-11
4.45239e-11
4.46592e-11
4.45224e-11
4.46602e-11
4.45213e-11
4.46611e-11
4.45207e-11
4.46615e-11
4.45206e-11
4.46614e-11
4.45211e-11
4.46608e-11
4.45221e-11
4.46598e-11
4.45239e-11
4.46582e-11
4.45263e-11
4.46561e-11
4.45295e-11
4.46536e-11
4.45328e-11
4.46508e-11
4.45367e-11
4.46467e-11
4.45405e-11
4.46435e-11
4.45458e-11
4.46412e-11
4.45512e-11
4.46391e-11
4.45571e-11
4.46375e-11
4.45642e-11
4.46367e-11
4.45725e-11
4.4637e-11
4.45824e-11
4.46388e-11
4.45935e-11
4.46418e-11
4.46053e-11
4.46464e-11
4.46178e-11
4.46513e-11
4.46294e-11
4.46615e-11
4.46514e-11
4.46721e-11
4.46627e-11
4.47078e-11
4.52706e-11
7.00172e-11
)
;

boundaryField
{
    inandouthalf11
    {
        type            cyclic;
        value           nonuniform List<scalar> 
100
(
4.40876e-39
-1.4656e-12
-4.68379e-12
-7.67019e-12
-9.13114e-12
-9.10546e-12
-7.99916e-12
-6.13895e-12
-3.88836e-12
-1.75147e-12
-1.6692e-13
7.58191e-13
1.20319e-12
1.39331e-12
1.47091e-12
1.50185e-12
1.51274e-12
1.51427e-12
1.51149e-12
1.50767e-12
1.50536e-12
1.50631e-12
1.51115e-12
1.51943e-12
1.53007e-12
1.54184e-12
1.55379e-12
1.56534e-12
1.57627e-12
1.5866e-12
1.59649e-12
1.60616e-12
1.6158e-12
1.62557e-12
1.63554e-12
1.64576e-12
1.65619e-12
1.66679e-12
1.67751e-12
1.68827e-12
1.69901e-12
1.70969e-12
1.72024e-12
1.73065e-12
1.74087e-12
1.75086e-12
1.7606e-12
1.77002e-12
1.77907e-12
1.78771e-12
1.79585e-12
1.80341e-12
1.81027e-12
1.81633e-12
1.82143e-12
1.82544e-12
1.82817e-12
1.82944e-12
1.82904e-12
1.82679e-12
1.82249e-12
1.81598e-12
1.80715e-12
1.79591e-12
1.78219e-12
1.76593e-12
1.74701e-12
1.72521e-12
1.70021e-12
1.67162e-12
1.63893e-12
1.60165e-12
1.55939e-12
1.51195e-12
1.45944e-12
1.40233e-12
1.34147e-12
1.27792e-12
1.21278e-12
1.14698e-12
1.08115e-12
1.01559e-12
9.50237e-13
8.84798e-13
8.18848e-13
7.51949e-13
6.83747e-13
6.14049e-13
5.42856e-13
4.70345e-13
3.96827e-13
3.2269e-13
2.48339e-13
1.74151e-13
1.00467e-13
2.75833e-14
-4.42299e-14
-1.14722e-13
-1.83649e-13
-2.50777e-13
)
;
    }
    inandouthalf12
    {
        type            cyclic;
        value           nonuniform List<scalar> 
100
(
-4.40876e-39
1.4656e-12
4.68379e-12
7.67019e-12
9.13114e-12
9.10546e-12
7.99916e-12
6.13895e-12
3.88836e-12
1.75147e-12
1.6692e-13
-7.58191e-13
-1.20319e-12
-1.39331e-12
-1.47091e-12
-1.50185e-12
-1.51274e-12
-1.51427e-12
-1.51149e-12
-1.50767e-12
-1.50536e-12
-1.50631e-12
-1.51115e-12
-1.51943e-12
-1.53007e-12
-1.54184e-12
-1.55379e-12
-1.56534e-12
-1.57627e-12
-1.5866e-12
-1.59649e-12
-1.60616e-12
-1.6158e-12
-1.62557e-12
-1.63554e-12
-1.64576e-12
-1.65619e-12
-1.66679e-12
-1.67751e-12
-1.68827e-12
-1.69901e-12
-1.70969e-12
-1.72024e-12
-1.73065e-12
-1.74087e-12
-1.75086e-12
-1.7606e-12
-1.77002e-12
-1.77907e-12
-1.78771e-12
-1.79585e-12
-1.80341e-12
-1.81027e-12
-1.81633e-12
-1.82143e-12
-1.82544e-12
-1.82817e-12
-1.82944e-12
-1.82904e-12
-1.82679e-12
-1.82249e-12
-1.81598e-12
-1.80715e-12
-1.79591e-12
-1.78219e-12
-1.76593e-12
-1.74701e-12
-1.72521e-12
-1.70021e-12
-1.67162e-12
-1.63893e-12
-1.60165e-12
-1.55939e-12
-1.51195e-12
-1.45944e-12
-1.40233e-12
-1.34147e-12
-1.27792e-12
-1.21278e-12
-1.14698e-12
-1.08115e-12
-1.01559e-12
-9.50237e-13
-8.84798e-13
-8.18848e-13
-7.51949e-13
-6.83747e-13
-6.14049e-13
-5.42856e-13
-4.70345e-13
-3.96827e-13
-3.2269e-13
-2.48339e-13
-1.74151e-13
-1.00467e-13
-2.75833e-14
4.42299e-14
1.14722e-13
1.83649e-13
2.50777e-13
)
;
    }
    inandouthalf21
    {
        type            cyclic;
        value           nonuniform List<scalar> 
100
(
-3.15877e-13
-3.78735e-13
-4.39153e-13
-4.96954e-13
-5.51981e-13
-6.04103e-13
-6.53211e-13
-6.99218e-13
-7.42063e-13
-7.81704e-13
-8.18112e-13
-8.51268e-13
-8.81148e-13
-9.07707e-13
-9.30872e-13
-9.5052e-13
-9.66465e-13
-9.78451e-13
-9.86139e-13
-9.89103e-13
-9.86824e-13
-9.7868e-13
-9.63926e-13
-9.41658e-13
-9.1076e-13
-8.69812e-13
-8.16982e-13
-7.49889e-13
-6.65508e-13
-5.60184e-13
-4.2989e-13
-2.70797e-13
-8.00627e-14
1.43209e-13
3.96587e-13
6.72212e-13
9.55791e-13
1.22967e-12
1.47865e-12
1.69102e-12
1.85568e-12
1.96618e-12
2.03144e-12
2.06516e-12
2.07768e-12
2.08038e-12
2.08218e-12
-4.21763e-10
-1.2827e-09
-3.27713e-09
4.7726e-07
6.58228e-07
7.44629e-07
8.03637e-07
8.51223e-07
8.92258e-07
9.28762e-07
9.61848e-07
9.92243e-07
1.02046e-06
1.04689e-06
1.07182e-06
1.09547e-06
1.11801e-06
1.13959e-06
1.16031e-06
1.18025e-06
1.19945e-06
1.21796e-06
1.23579e-06
1.25295e-06
1.26942e-06
1.28518e-06
1.3002e-06
1.31446e-06
1.32791e-06
1.34055e-06
1.35237e-06
1.36338e-06
1.3736e-06
1.38299e-06
1.39148e-06
1.39896e-06
1.40532e-06
1.41046e-06
1.41429e-06
1.41674e-06
1.41783e-06
1.4177e-06
1.41661e-06
1.415e-06
1.41331e-06
1.4119e-06
1.4109e-06
1.41026e-06
1.40983e-06
1.40945e-06
1.40903e-06
1.40856e-06
1.408e-06
)
;
    }
    inandouthalf22
    {
        type            cyclic;
        value           nonuniform List<scalar> 
100
(
3.15877e-13
3.78735e-13
4.39153e-13
4.96954e-13
5.51981e-13
6.04103e-13
6.53211e-13
6.99218e-13
7.42063e-13
7.81704e-13
8.18112e-13
8.51268e-13
8.81148e-13
9.07707e-13
9.30872e-13
9.5052e-13
9.66465e-13
9.78451e-13
9.86139e-13
9.89103e-13
9.86824e-13
9.7868e-13
9.63926e-13
9.41658e-13
9.1076e-13
8.69812e-13
8.16982e-13
7.49889e-13
6.65508e-13
5.60184e-13
4.2989e-13
2.70797e-13
8.00627e-14
-1.43209e-13
-3.96587e-13
-6.72212e-13
-9.55791e-13
-1.22967e-12
-1.47865e-12
-1.69102e-12
-1.85568e-12
-1.96618e-12
-2.03144e-12
-2.06516e-12
-2.07768e-12
-2.08038e-12
-2.08218e-12
4.21763e-10
1.2827e-09
3.27713e-09
-4.7726e-07
-6.58228e-07
-7.44629e-07
-8.03637e-07
-8.51223e-07
-8.92258e-07
-9.28762e-07
-9.61848e-07
-9.92243e-07
-1.02046e-06
-1.04689e-06
-1.07182e-06
-1.09547e-06
-1.11801e-06
-1.13959e-06
-1.16031e-06
-1.18025e-06
-1.19945e-06
-1.21796e-06
-1.23579e-06
-1.25295e-06
-1.26942e-06
-1.28518e-06
-1.3002e-06
-1.31446e-06
-1.32791e-06
-1.34055e-06
-1.35237e-06
-1.36338e-06
-1.3736e-06
-1.38299e-06
-1.39148e-06
-1.39896e-06
-1.40532e-06
-1.41046e-06
-1.41429e-06
-1.41674e-06
-1.41783e-06
-1.4177e-06
-1.41661e-06
-1.415e-06
-1.41331e-06
-1.4119e-06
-1.4109e-06
-1.41026e-06
-1.40983e-06
-1.40945e-06
-1.40903e-06
-1.40856e-06
-1.408e-06
)
;
    }
    inandouthalf31
    {
        type            cyclic;
        value           nonuniform List<scalar> 
110
(
1.40736e-06
1.43516e-06
1.46342e-06
1.49215e-06
1.52134e-06
1.55115e-06
1.58168e-06
1.61288e-06
1.6447e-06
1.6772e-06
1.71044e-06
1.74436e-06
1.77898e-06
1.81433e-06
1.8504e-06
1.8872e-06
1.92479e-06
1.96313e-06
2.00219e-06
2.04206e-06
2.08277e-06
2.12426e-06
2.16656e-06
2.20968e-06
2.25368e-06
2.29857e-06
2.34431e-06
2.39093e-06
2.43849e-06
2.48696e-06
2.53636e-06
2.58671e-06
2.63801e-06
2.69027e-06
2.74352e-06
2.79776e-06
2.85299e-06
2.90922e-06
2.96646e-06
3.0247e-06
3.08384e-06
3.14343e-06
3.04956e-06
3.11146e-06
3.17461e-06
3.23905e-06
3.30479e-06
3.37187e-06
3.44031e-06
3.51014e-06
3.58139e-06
3.65408e-06
3.72825e-06
3.80392e-06
3.88113e-06
3.95991e-06
4.04028e-06
4.12229e-06
4.20596e-06
4.29133e-06
4.37844e-06
4.46731e-06
4.55798e-06
4.6505e-06
4.74489e-06
4.8412e-06
4.93946e-06
5.03972e-06
5.14201e-06
5.24638e-06
5.35287e-06
5.46152e-06
5.57237e-06
5.68548e-06
5.80087e-06
5.91862e-06
6.03875e-06
6.16132e-06
6.28638e-06
6.41397e-06
6.54416e-06
6.67699e-06
6.81252e-06
6.95079e-06
7.09187e-06
7.23582e-06
7.38269e-06
7.53254e-06
7.68543e-06
7.84142e-06
8.00058e-06
8.16297e-06
8.32866e-06
8.49771e-06
8.67019e-06
8.84617e-06
9.02572e-06
9.20892e-06
9.39584e-06
9.58655e-06
9.78113e-06
9.97966e-06
1.01822e-05
1.03889e-05
1.05998e-05
1.08149e-05
1.10344e-05
1.12584e-05
1.14869e-05
1.17201e-05
)
;
    }
    inandouthalf32
    {
        type            cyclic;
        value           nonuniform List<scalar> 
110
(
-1.40736e-06
-1.43516e-06
-1.46342e-06
-1.49215e-06
-1.52134e-06
-1.55115e-06
-1.58168e-06
-1.61288e-06
-1.6447e-06
-1.6772e-06
-1.71044e-06
-1.74436e-06
-1.77898e-06
-1.81433e-06
-1.8504e-06
-1.8872e-06
-1.92479e-06
-1.96313e-06
-2.00219e-06
-2.04206e-06
-2.08277e-06
-2.12426e-06
-2.16656e-06
-2.20968e-06
-2.25368e-06
-2.29857e-06
-2.34431e-06
-2.39093e-06
-2.43849e-06
-2.48696e-06
-2.53636e-06
-2.58671e-06
-2.63801e-06
-2.69027e-06
-2.74352e-06
-2.79776e-06
-2.85299e-06
-2.90922e-06
-2.96646e-06
-3.0247e-06
-3.08384e-06
-3.14343e-06
-3.04956e-06
-3.11146e-06
-3.17461e-06
-3.23905e-06
-3.30479e-06
-3.37187e-06
-3.44031e-06
-3.51014e-06
-3.58139e-06
-3.65408e-06
-3.72825e-06
-3.80392e-06
-3.88113e-06
-3.95991e-06
-4.04028e-06
-4.12229e-06
-4.20596e-06
-4.29133e-06
-4.37844e-06
-4.46731e-06
-4.55798e-06
-4.6505e-06
-4.74489e-06
-4.8412e-06
-4.93946e-06
-5.03972e-06
-5.14201e-06
-5.24638e-06
-5.35287e-06
-5.46152e-06
-5.57237e-06
-5.68548e-06
-5.80087e-06
-5.91862e-06
-6.03875e-06
-6.16132e-06
-6.28638e-06
-6.41397e-06
-6.54416e-06
-6.67699e-06
-6.81252e-06
-6.95079e-06
-7.09187e-06
-7.23582e-06
-7.38269e-06
-7.53254e-06
-7.68543e-06
-7.84142e-06
-8.00058e-06
-8.16297e-06
-8.32866e-06
-8.49771e-06
-8.67019e-06
-8.84617e-06
-9.02572e-06
-9.20892e-06
-9.39584e-06
-9.58655e-06
-9.78113e-06
-9.97966e-06
-1.01822e-05
-1.03889e-05
-1.05998e-05
-1.08149e-05
-1.10344e-05
-1.12584e-05
-1.14869e-05
-1.17201e-05
)
;
    }
    inandouthalf41
    {
        type            cyclic;
        value           nonuniform List<scalar> 
50
(
1.04906e-05
1.04906e-05
1.04906e-05
1.04906e-05
1.04906e-05
1.04906e-05
1.04906e-05
1.04906e-05
1.04906e-05
1.04906e-05
1.04906e-05
1.04906e-05
1.04906e-05
1.04906e-05
1.04906e-05
1.04906e-05
1.04906e-05
1.04906e-05
1.04906e-05
1.04906e-05
1.04906e-05
1.04906e-05
1.04906e-05
1.04906e-05
1.04906e-05
1.04906e-05
1.04906e-05
1.04906e-05
1.04906e-05
1.04906e-05
1.04906e-05
1.04906e-05
1.04906e-05
1.04906e-05
1.04906e-05
1.04906e-05
1.04906e-05
1.04906e-05
1.04906e-05
1.04906e-05
1.04906e-05
1.04906e-05
1.04906e-05
1.04906e-05
1.04906e-05
1.04906e-05
1.04906e-05
1.04906e-05
1.04906e-05
1.04902e-05
)
;
    }
    inandouthalf42
    {
        type            cyclic;
        value           nonuniform List<scalar> 
50
(
-1.04906e-05
-1.04906e-05
-1.04906e-05
-1.04906e-05
-1.04906e-05
-1.04906e-05
-1.04906e-05
-1.04906e-05
-1.04906e-05
-1.04906e-05
-1.04906e-05
-1.04906e-05
-1.04906e-05
-1.04906e-05
-1.04906e-05
-1.04906e-05
-1.04906e-05
-1.04906e-05
-1.04906e-05
-1.04906e-05
-1.04906e-05
-1.04906e-05
-1.04906e-05
-1.04906e-05
-1.04906e-05
-1.04906e-05
-1.04906e-05
-1.04906e-05
-1.04906e-05
-1.04906e-05
-1.04906e-05
-1.04906e-05
-1.04906e-05
-1.04906e-05
-1.04906e-05
-1.04906e-05
-1.04906e-05
-1.04906e-05
-1.04906e-05
-1.04906e-05
-1.04906e-05
-1.04906e-05
-1.04906e-05
-1.04906e-05
-1.04906e-05
-1.04906e-05
-1.04906e-05
-1.04906e-05
-1.04906e-05
-1.04902e-05
)
;
    }
    top
    {
        type            symmetryPlane;
        value           uniform 0;
    }
    walls
    {
        type            calculated;
        value           uniform 0;
    }
    frontAndBackPlanes
    {
        type            empty;
        value           nonuniform 0();
    }
}


// ************************************************************************* //
