/*--------------------------------*- C++ -*----------------------------------*\
| =========                 |                                                 |
| \\      /  F ield         | OpenFOAM: The Open Source CFD Toolbox           |
|  \\    /   O peration     | Version:  2.4.x                                 |
|   \\  /    A nd           | Web:      www.OpenFOAM.org                      |
|    \\/     M anipulation  |                                                 |
\*---------------------------------------------------------------------------*/
FoamFile
{
    version     2.0;
    format      ascii;
    class       volScalarField;
    location    "2.8";
    object      ddt0(((1.5*(alpha+1e-08))*rho),Theta);
}
// * * * * * * * * * * * * * * * * * * * * * * * * * * * * * * * * * * * * * //

dimensions      [1 -1 -3 0 0 0 0];

internalField   nonuniform List<scalar> 
360
(
-3.51539e-18
-3.44914e-17
-6.33336e-17
-4.03161e-17
-1.04333e-17
5.28585e-18
1.25836e-17
1.54919e-17
1.37957e-17
8.58373e-18
3.63809e-18
1.09055e-18
2.59006e-19
5.74921e-20
1.38843e-20
3.86725e-21
1.09371e-21
1.12214e-22
-2.67581e-22
-2.78846e-22
3.88455e-23
5.9223e-22
1.19746e-21
1.66943e-21
1.91635e-21
1.95379e-21
1.85613e-21
1.70078e-21
1.5402e-21
1.40302e-21
1.30189e-21
1.23675e-21
1.20058e-21
1.18386e-21
1.17539e-21
1.1667e-21
1.1532e-21
1.13228e-21
1.10116e-21
1.05878e-21
1.00714e-21
9.46724e-22
8.7837e-22
8.03201e-22
7.19661e-22
6.25852e-22
5.19729e-22
3.98916e-22
2.6026e-22
9.80945e-23
-9.3943e-23
-3.22303e-22
-5.94934e-22
-9.21405e-22
-1.31371e-21
-1.78563e-21
-2.35018e-21
-3.0191e-21
-3.79813e-21
-4.68846e-21
-5.68477e-21
-6.7644e-21
-7.89776e-21
-9.05963e-21
-1.02458e-20
-1.14921e-20
-1.28723e-20
-1.44822e-20
-1.64292e-20
-1.88412e-20
-2.18412e-20
-2.54639e-20
-2.96453e-20
-3.42457e-20
-3.89957e-20
-4.3509e-20
-4.7404e-20
-5.04665e-20
-5.2709e-20
-5.43091e-20
-5.55682e-20
-5.68443e-20
-5.8439e-20
-6.05395e-20
-6.32163e-20
-6.64211e-20
-6.99992e-20
-7.37218e-20
-7.73518e-20
-8.06971e-20
-8.36333e-20
-8.61239e-20
-8.82079e-20
-8.99573e-20
-9.14434e-20
-9.27207e-20
-9.38174e-20
-9.47401e-20
-9.54851e-20
-9.5998e-20
0
0
0
0
0
0
0
0
0
0
0
0
0
0
0
-8.67023e-20
-8.47149e-20
-8.23849e-20
-7.96869e-20
-7.66121e-20
-7.3169e-20
-6.93784e-20
-6.52641e-20
-6.08384e-20
-5.60801e-20
-5.08972e-20
-4.50687e-20
-3.81612e-20
-2.94507e-20
-1.5505e-20
3.55446e-16
2.57763e-15
1.56235e-14
8.09027e-14
3.27392e-13
6.81958e-13
-3.90587e-12
-6.16687e-11
-4.92735e-10
-3.01267e-09
-1.54246e-08
-6.87757e-08
-2.83997e-07
-1.23805e-06
-6.74044e-06
-5.28092e-05
-0.00073569
-0.0186671
-0.368955
-3.29829
-3.65886
-1.96552
-1.27595
-0.991116
-0.849858
-0.763658
-0.700254
-0.647123
-0.598989
-0.553751
-0.510555
-0.469071
-0.429241
-0.3911
-0.354732
-0.320181
-0.287525
-0.256797
-0.228042
-0.201271
-0.176495
-0.153697
-0.132836
-0.113887
-0.096801
-0.0815065
-0.0679725
-0.0561721
-0.0460546
-0.037514
-0.0303861
-0.0244864
-0.0196386
-0.0156838
-0.0124786
-0.00989233
-0.00780182
-0.00609289
-0.00466757
-0.0034612
-0.00245583
-0.00166568
-0.00109791
-0.000724746
-0.000494175
-0.00035421
-0.000266731
-0.000208735
-0.000167802
-0.000137569
-0.000114745
-9.67885e-05
-8.18135e-05
-6.92427e-05
-5.93123e-05
-5.10785e-05
-4.34031e-05
-3.68566e-05
-3.17764e-05
-2.72504e-05
-2.30927e-05
-1.97069e-05
-1.68286e-05
-1.42195e-05
-1.20758e-05
-1.02764e-05
-8.58185e-06
-7.20707e-06
-6.12396e-06
-5.10816e-06
-4.23818e-06
-3.53751e-06
-2.9274e-06
-2.42785e-06
-2.00174e-06
-1.61937e-06
-1.32417e-06
-1.07821e-06
-8.59076e-07
-6.91577e-07
-5.49102e-07
-4.32674e-07
-3.3841e-07
-2.63544e-07
-2.0252e-07
-1.52795e-07
-1.13878e-07
-8.3256e-08
-5.77765e-08
-3.87579e-08
-2.16804e-08
0
0
0
0
0
0
0
0
0
0
0
0
0
0
0
0
0
0
0
0
0
0
0
0
0
0
0
0
0
0
0
0
0
0
0
0
0
0
0
0
0
0
0
0
0
0
0
0
0
0
0
0
0
0
0
0
0
0
0
0
0
0
0
0
0
0
0
0
0
0
0
0
0
0
0
0
0
0
0
0
0
0
0
0
0
0
0
0
0
0
0
0
0
0
0
0
0
0
0
0
0
0
0
0
0
0
0
0
0
0
0
0
0
0
0
0
0
0
0
)
;

boundaryField
{
    inandouthalf11
    {
        type            cyclic;
    }
    inandouthalf12
    {
        type            cyclic;
    }
    inandouthalf21
    {
        type            cyclic;
    }
    inandouthalf22
    {
        type            cyclic;
    }
    inandouthalf31
    {
        type            cyclic;
    }
    inandouthalf32
    {
        type            cyclic;
    }
    inandouthalf41
    {
        type            cyclic;
    }
    inandouthalf42
    {
        type            cyclic;
    }
    top
    {
        type            symmetryPlane;
    }
    walls
    {
        type            calculated;
        value           uniform -3.51539e-18;
    }
    frontAndBackPlanes
    {
        type            empty;
    }
}


// ************************************************************************* //
