/*--------------------------------*- C++ -*----------------------------------*\
| =========                 |                                                 |
| \\      /  F ield         | OpenFOAM: The Open Source CFD Toolbox           |
|  \\    /   O peration     | Version:  2.4.x                                 |
|   \\  /    A nd           | Web:      www.OpenFOAM.org                      |
|    \\/     M anipulation  |                                                 |
\*---------------------------------------------------------------------------*/
FoamFile
{
    version     2.0;
    format      ascii;
    class       volScalarField;
    location    "2.8";
    object      ddt0(epsilon);
}
// * * * * * * * * * * * * * * * * * * * * * * * * * * * * * * * * * * * * * //

dimensions      [0 2 -4 0 0 0 0];

internalField   nonuniform List<scalar> 
360
(
0
0
0
0
0
0
0
0
0
0
0
0
0
0
0
0
0
0
0
0
0
0
0
0
0
0
0
0
0
0
0
0
0
0
0
0
0
0
0
0
0
0
0
0
0
0
0
0
0
0
0
0
0
0
0
0
0
0
0
0
0
0
0
0
0
0
0
0
0
0
0
0
0
0
0
0
0
0
0
0
0
0
0
0
0
0
0
0
0
0
0
0
0
0
0
0
0
0
0
0
0
0
0
0
0
0
0
0
0
0
0
0
0
0
0
0
0
0
0
0
0
0
0
0
0
0
0
0
0
0
2.69823e-19
1.92156e-18
1.13662e-17
5.49216e-17
1.73685e-16
-2.33296e-16
-9.5823e-15
-9.85716e-14
-7.36749e-13
-4.58505e-12
-2.50844e-11
-1.26201e-10
-6.29867e-10
-3.54283e-09
-2.589e-08
-2.71012e-07
-4.28035e-06
-9.35817e-05
-0.00275739
-0.0598299
-0.15002
-0.147359
-0.149754
-0.15399
-0.158705
-0.162857
-0.166225
-0.168825
-0.170718
-0.171963
-0.172606
-0.17268
-0.172212
-0.171219
-0.169719
-0.167722
-0.165242
-0.162287
-0.158869
-0.154996
-0.150676
-0.145919
-0.140733
-0.135128
-0.129113
-0.122698
-0.115895
-0.108715
-0.101173
-0.0932848
-0.0850693
-0.0765468
-0.0677404
-0.058676
-0.0493831
-0.0398959
-0.0302544
-0.0205064
-0.0107094
-0.000933659
0.00873526
0.0181935
0.0273168
0.0359572
0.0439395
0.0510549
0.057052
0.0616243
0.0643887
0.0648485
0.0623377
0.0559636
0.0446065
0.0209631
0.00223765
4.91677e-05
7.43577e-07
1.06242e-08
1.44604e-10
1.87592e-12
2.32029e-14
2.73687e-16
3.06472e-18
1.37858e-20
0
0
0
0
0
0
0
0
0
0
0
0
0
0
0
0
0
0
0
0
0
0
0
0
0
0
0
0
0
0
0
0
0
0
0
0
0
0
0
0
0
0
0
0
0
0
0
0
0
0
0
0
0
0
0
0
0
0
0
0
0
0
0
0
0
0
0
0
0
0
0
0
0
0
0
0
0
0
0
0
0
0
0
0
0
0
0
0
0
0
0
0
0
0
0
0
0
0
0
0
0
0
0
0
0
0
0
0
0
0
0
0
0
0
0
0
0
0
0
0
0
0
0
0
0
0
0
0
0
0
0
0
0
0
0
0
0
0
0
0
0
0
0
0
0
0
)
;

boundaryField
{
    inandouthalf11
    {
        type            cyclic;
    }
    inandouthalf12
    {
        type            cyclic;
    }
    inandouthalf21
    {
        type            cyclic;
    }
    inandouthalf22
    {
        type            cyclic;
    }
    inandouthalf31
    {
        type            cyclic;
    }
    inandouthalf32
    {
        type            cyclic;
    }
    inandouthalf41
    {
        type            cyclic;
    }
    inandouthalf42
    {
        type            cyclic;
    }
    top
    {
        type            symmetryPlane;
    }
    walls
    {
        type            calculated;
        value           uniform 0;
    }
    frontAndBackPlanes
    {
        type            empty;
    }
}


// ************************************************************************* //
