/*--------------------------------*- C++ -*----------------------------------*\
| =========                 |                                                 |
| \\      /  F ield         | OpenFOAM: The Open Source CFD Toolbox           |
|  \\    /   O peration     | Version:  2.4.x                                 |
|   \\  /    A nd           | Web:      www.OpenFOAM.org                      |
|    \\/     M anipulation  |                                                 |
\*---------------------------------------------------------------------------*/
FoamFile
{
    version     2.0;
    format      ascii;
    class       volVectorField;
    location    "2.8";
    object      gradPs;
}
// * * * * * * * * * * * * * * * * * * * * * * * * * * * * * * * * * * * * * //

dimensions      [0 1 -2 0 0 0 0];

internalField   nonuniform List<vector> 
360
(
(0 1.36894e-17 0)
(0 2.69238e-17 0)
(0 8.8728e-18 0)
(0 -1.30285e-17 0)
(-2.90713e-32 -1.41602e-17 0)
(-2.90725e-32 -8.32911e-18 0)
(-2.9075e-32 -4.6848e-18 0)
(0 -3.6571e-18 0)
(-1.45404e-32 -3.52521e-18 0)
(0 -2.87708e-18 0)
(-1.45422e-32 -1.6833e-18 0)
(0 -6.98195e-19 0)
(-2.90856e-32 -2.23156e-19 0)
(0 -6.45278e-20 0)
(0 -2.07836e-20 0)
(0 -8.44274e-21 0)
(0 -4.23233e-21 0)
(-1.45431e-32 -2.41879e-21 0)
(0 -3.22764e-21 0)
(0 -2.87267e-21 0)
(0 -2.94281e-21 0)
(-1.45432e-32 -5.0325e-21 0)
(0 -5.59668e-21 0)
(0 -6.15963e-21 0)
(0 -6.56136e-21 0)
(-2.90867e-32 -6.71712e-21 0)
(0 -8.36448e-21 0)
(0 -9.91131e-21 0)
(0 -9.75589e-21 0)
(0 -9.63893e-21 0)
(0 -1.12227e-20 0)
(0 -1.10982e-20 0)
(0 -1.26744e-20 0)
(0 -1.42584e-20 0)
(0 -1.41511e-20 0)
(1.45441e-32 -1.57136e-20 0)
(0 -1.72488e-20 0)
(0 -2.04736e-20 0)
(0 -2.03461e-20 0)
(0 -2.19378e-20 0)
(0 -2.51798e-20 0)
(0 -2.49832e-20 0)
(1.45452e-32 -2.80976e-20 0)
(0 -3.11418e-20 0)
(0 -3.24767e-20 0)
(0 -3.54566e-20 0)
(0 -3.66236e-20 0)
(0 -3.92712e-20 0)
(0 -4.5073e-20 0)
(0 -4.74469e-20 0)
(2.90946e-32 -4.9781e-20 0)
(0 -5.36486e-20 0)
(0 -5.72362e-20 0)
(0 -6.04933e-20 0)
(0 -6.49807e-20 0)
(0 -6.90372e-20 0)
(0 -7.26359e-20 0)
(0 -7.73316e-20 0)
(0 -7.97642e-20 0)
(0 -8.45122e-20 0)
(0 -8.82727e-20 0)
(0 -9.09316e-20 0)
(0 -9.40441e-20 0)
(0 -9.5992e-20 0)
(0 -9.832e-20 0)
(0 -1.01021e-19 0)
(0 -1.04362e-19 0)
(0 -1.07266e-19 0)
(0 -1.09654e-19 0)
(0 -1.13348e-19 0)
(0 -1.17696e-19 0)
(0 -1.19348e-19 0)
(0 -1.21929e-19 0)
(0 -1.25515e-19 0)
(0 -1.28874e-19 0)
(0 -1.32485e-19 0)
(0 -1.36131e-19 0)
(0 -1.41048e-19 0)
(0 -1.45956e-19 0)
(0 -1.50179e-19 0)
(0 -1.5414e-19 0)
(0 -1.58027e-19 0)
(0 -1.61217e-19 0)
(0 -1.64139e-19 0)
(0 -1.66985e-19 0)
(0 -1.70015e-19 0)
(0 -1.73361e-19 0)
(0 -1.7708e-19 0)
(0 -1.815e-19 0)
(0 -1.86405e-19 0)
(0 -1.9154e-19 0)
(0 -1.96889e-19 0)
(0 -2.02295e-19 0)
(0 -2.07584e-19 0)
(0 -2.1281e-19 0)
(0 -2.18016e-19 0)
(0 -2.23248e-19 0)
(0 -2.28569e-19 0)
(0 -2.35973e-19 0)
(0 -1.75177e-16 0)
(0 -1.75077e-16 0)
(0 0 0)
(0 0 0)
(0 0 0)
(0 0 0)
(0 0 0)
(0 0 0)
(0 0 0)
(0 0 0)
(0 0 0)
(0 0 0)
(0 0 0)
(0 0 0)
(0 0 0)
(0 1.73054e-16 0)
(0 1.72897e-16 0)
(0 -3.79425e-19 0)
(0 -3.91282e-19 0)
(0 -4.03492e-19 0)
(0 -4.16004e-19 0)
(0 -4.28751e-19 0)
(0 -4.41653e-19 0)
(0 -4.54602e-19 0)
(0 -4.67467e-19 0)
(0 -4.80125e-19 0)
(0 -4.92499e-19 0)
(0 -5.046e-19 0)
(0 -5.16501e-19 0)
(0 -5.26836e-19 0)
(0 2.00415e-16 0)
(0 2.43913e-15 0)
(0 1.94488e-14 0)
(0 1.39235e-13 0)
(0 9.24798e-13 0)
(0 5.67613e-12 0)
(0 3.19796e-11 0)
(0 1.64297e-10 0)
(0 7.66155e-10 0)
(0 3.23684e-09 0)
(0 1.23723e-08 0)
(0 4.29869e-08 0)
(0 1.4484e-07 0)
(0 5.62158e-07 0)
(0 3.08277e-06 0)
(0 2.63243e-05 0)
(0 0.00034961 0)
(0 0.00763158 0)
(0 0.160197 0)
(0 0.320052 0)
(0 0.20523 0)
(0 -0.430107 0)
(0 -0.506965 0)
(0 -0.382028 0)
(0 -0.329046 0)
(0 -0.342933 0)
(0 -0.377802 0)
(0 -0.421245 0)
(0 -0.469626 0)
(0 -0.520846 0)
(0 -0.573476 0)
(0 -0.626803 0)
(0 -0.680421 0)
(0 -0.734079 0)
(0 -0.787643 0)
(0 -0.841098 0)
(0 -0.894467 0)
(0 -0.947797 0)
(0 -1.0012 0)
(0 -1.0548 0)
(0 -1.10885 0)
(0 -1.16366 0)
(0 -1.21979 0)
(0 -1.27792 0)
(0 -1.33865 0)
(0 -1.40155 0)
(0 -1.46353 0)
(0 -1.51773 0)
(0 -1.55552 0)
(0 -1.57184 0)
(0 -1.56981 0)
(0 -1.55838 0)
(0 -1.54575 0)
(0 -1.53737 0)
(0 -1.539 0)
(0 -1.56021 0)
(0 -1.61765 0)
(0 -1.73703 0)
(0 -1.9497 0)
(0 -2.278 0)
(0 -2.70848 0)
(0 -3.16765 0)
(0 -3.51998 0)
(0 -3.61161 0)
(0 -3.36974 0)
(0 -2.87592 0)
(0 -2.31945 0)
(0 -1.85253 0)
(0 -1.51579 0)
(0 -1.27882 0)
(0 -1.09652 0)
(0 -0.948794 0)
(0 -0.843167 0)
(-2.06344e-16 -0.765705 0)
(0 -0.672314 0)
(0 -0.572588 0)
(2.42313e-16 -0.52233 0)
(0 -0.487161 0)
(-1.31798e-16 -0.41342 0)
(0 -0.350705 0)
(6.95758e-17 -0.325344 0)
(0 -0.289982 0)
(0 -0.245252 0)
(0 -0.218178 0)
(7.46082e-17 -0.191797 0)
(0 -0.160585 0)
(0 -0.143268 0)
(0 -0.126859 0)
(0 -0.10178 0)
(0 -0.086796 0)
(-1.88169e-17 -0.0780468 0)
(0 -0.0648403 0)
(-1.85561e-17 -0.0538204 0)
(0 -0.0453113 0)
(-9.09065e-18 -0.0374967 0)
(0 -0.0324874 0)
(0 -0.0269948 0)
(0 -0.0212959 0)
(0 -0.0180912 0)
(4.24164e-18 -0.0148603 0)
(0 -0.0117315 0)
(0 -0.00965529 0)
(0 -0.00772622 0)
(0 -0.00608635 0)
(0 -0.00478781 0)
(0 -0.0038132 0)
(0 -0.00296984 0)
(0 -0.00225069 0)
(0 -0.00174269 0)
(0 -0.00130702 0)
(0 -0.000978294 0)
(0 -0.000890846 0)
(0 -0.000444285 0)
(0 0 0)
(0 0 0)
(0 0 0)
(0 0 0)
(0 0 0)
(0 0 0)
(0 0 0)
(0 0 0)
(0 0 0)
(0 0 0)
(0 0 0)
(0 0 0)
(0 0 0)
(0 0 0)
(0 0 0)
(0 0 0)
(0 0 0)
(0 0 0)
(0 0 0)
(0 0 0)
(0 0 0)
(0 0 0)
(0 0 0)
(0 0 0)
(0 0 0)
(0 0 0)
(0 0 0)
(0 0 0)
(0 0 0)
(0 0 0)
(0 0 0)
(0 0 0)
(0 0 0)
(0 0 0)
(0 0 0)
(0 0 0)
(0 0 0)
(0 0 0)
(0 0 0)
(0 0 0)
(0 0 0)
(0 0 0)
(0 0 0)
(0 0 0)
(0 0 0)
(0 0 0)
(0 0 0)
(0 0 0)
(0 0 0)
(0 0 0)
(0 0 0)
(0 0 0)
(0 0 0)
(0 0 0)
(0 0 0)
(0 0 0)
(0 0 0)
(0 0 0)
(0 0 0)
(0 0 0)
(0 0 0)
(0 0 0)
(0 0 0)
(0 0 0)
(0 0 0)
(0 0 0)
(0 0 0)
(0 0 0)
(0 0 0)
(0 0 0)
(0 0 0)
(0 0 0)
(0 0 0)
(0 0 0)
(0 0 0)
(0 0 0)
(0 0 0)
(0 0 0)
(0 0 0)
(0 0 0)
(0 0 0)
(0 0 0)
(0 0 0)
(0 0 0)
(0 0 0)
(0 0 0)
(0 0 0)
(0 0 0)
(0 0 0)
(0 0 0)
(0 0 0)
(0 0 0)
(0 0 0)
(0 0 0)
(0 0 0)
(0 0 0)
(0 0 0)
(0 0 0)
(0 0 0)
(0 0 0)
(0 0 0)
(0 0 0)
(0 0 0)
(0 0 0)
(0 0 0)
(0 0 0)
(0 0 0)
(0 0 0)
(0 0 0)
(0 0 0)
(0 0 0)
(0 0 0)
(0 0 0)
(0 0 0)
(0 0 0)
(0 0 0)
(0 0 0)
(0 0 0)
)
;

boundaryField
{
    inandouthalf11
    {
        type            cyclic;
    }
    inandouthalf12
    {
        type            cyclic;
    }
    inandouthalf21
    {
        type            cyclic;
    }
    inandouthalf22
    {
        type            cyclic;
    }
    inandouthalf31
    {
        type            cyclic;
    }
    inandouthalf32
    {
        type            cyclic;
    }
    inandouthalf41
    {
        type            cyclic;
    }
    inandouthalf42
    {
        type            cyclic;
    }
    top
    {
        type            symmetryPlane;
    }
    walls
    {
        type            calculated;
        value           uniform (0 0 0);
    }
    frontAndBackPlanes
    {
        type            empty;
    }
}


// ************************************************************************* //
