/*--------------------------------*- C++ -*----------------------------------*\
| =========                 |                                                 |
| \\      /  F ield         | OpenFOAM: The Open Source CFD Toolbox           |
|  \\    /   O peration     | Version:  2.4.x                                 |
|   \\  /    A nd           | Web:      www.OpenFOAM.org                      |
|    \\/     M anipulation  |                                                 |
\*---------------------------------------------------------------------------*/
FoamFile
{
    version     2.0;
    format      ascii;
    class       volScalarField;
    location    "2.8";
    object      pa;
}
// * * * * * * * * * * * * * * * * * * * * * * * * * * * * * * * * * * * * * //

dimensions      [1 -1 -2 0 0 0 0];

internalField   nonuniform List<scalar> 
360
(
2.90688e-16
3.12819e-16
3.34226e-16
3.2717e-16
3.13154e-16
3.04267e-16
2.99683e-16
2.96691e-16
2.93769e-16
2.90991e-16
2.89118e-16
2.8827e-16
2.87989e-16
2.87909e-16
2.87885e-16
2.87876e-16
2.87871e-16
2.87869e-16
2.87867e-16
2.87864e-16
2.87863e-16
2.87859e-16
2.87854e-16
2.8785e-16
2.87845e-16
2.87839e-16
2.87834e-16
2.87826e-16
2.87818e-16
2.8781e-16
2.87802e-16
2.87792e-16
2.87784e-16
2.87771e-16
2.87761e-16
2.87748e-16
2.87736e-16
2.8772e-16
2.87703e-16
2.87688e-16
2.87667e-16
2.87647e-16
2.87627e-16
2.87601e-16
2.87576e-16
2.87549e-16
2.87519e-16
2.8749e-16
2.87456e-16
2.87417e-16
2.87379e-16
2.87336e-16
2.87292e-16
2.87244e-16
2.87194e-16
2.87139e-16
2.87083e-16
2.87022e-16
2.86958e-16
2.86893e-16
2.86821e-16
2.8675e-16
2.86675e-16
2.86598e-16
2.86519e-16
2.86439e-16
2.86356e-16
2.86271e-16
2.86183e-16
2.86094e-16
2.86e-16
2.85904e-16
2.85807e-16
2.85707e-16
2.85605e-16
2.85499e-16
2.85391e-16
2.85279e-16
2.85163e-16
2.85043e-16
2.84921e-16
2.84795e-16
2.84666e-16
2.84535e-16
2.84401e-16
2.84265e-16
2.84127e-16
2.83986e-16
2.83841e-16
2.83693e-16
2.83541e-16
2.83384e-16
2.83223e-16
2.83058e-16
2.82889e-16
2.82715e-16
2.82537e-16
2.82355e-16
2.82169e-16
2.81975e-16
0
0
0
0
0
0
0
0
0
0
0
0
0
0
0
2.78164e-16
2.77864e-16
2.77555e-16
2.77236e-16
2.76907e-16
2.76568e-16
2.76218e-16
2.75859e-16
2.75489e-16
2.75109e-16
2.74718e-16
2.74319e-16
2.73909e-16
2.73491e-16
2.73065e-16
5.94576e-16
4.17965e-15
3.17349e-14
2.27045e-13
1.51151e-12
9.30627e-12
5.26454e-11
2.71908e-10
1.27673e-09
5.44113e-09
2.10253e-08
7.40194e-08
2.51975e-07
9.69841e-07
5.16051e-06
4.28426e-05
0.000560421
0.0120716
0.25279
0.513057
0.427342
0.359346
0.325288
0.304933
0.288238
0.272823
0.257994
0.243486
0.229209
0.215164
0.201387
0.187922
0.174816
0.162113
0.14985
0.138057
0.12676
0.115978
0.105723
0.0960045
0.0868251
0.0781835
0.0700736
0.0624858
0.0554106
0.0488463
0.0428088
0.0373315
0.0324459
0.0281538
0.024415
0.0211641
0.0183323
0.0158553
0.013672
0.011722
0.00994235
0.00827242
0.0066695
0.00513818
0.00374691
0.00259395
0.00173951
0.00116693
0.000808173
0.000587889
0.000448694
0.000355279
0.000288413
0.000238283
0.000199874
0.000169211
0.000143286
0.000121289
0.000103828
8.93912e-05
7.59778e-05
6.45673e-05
5.57328e-05
4.78637e-05
4.06298e-05
3.47406e-05
2.97297e-05
2.51763e-05
2.14314e-05
1.8282e-05
1.53031e-05
1.28821e-05
1.09723e-05
9.17176e-06
7.62434e-06
6.37522e-06
5.28298e-06
4.38614e-06
3.6183e-06
2.92591e-06
2.39054e-06
1.94313e-06
1.54275e-06
1.23657e-06
9.75443e-07
7.61856e-07
5.88982e-07
4.52012e-07
3.40751e-07
2.50638e-07
1.80998e-07
1.27257e-07
8.35932e-08
5.28366e-08
2.67419e-08
0
0
0
0
0
0
0
0
0
0
0
0
0
0
0
0
0
0
0
0
0
0
0
0
0
0
0
0
0
0
0
0
0
0
0
0
0
0
0
0
0
0
0
0
0
0
0
0
0
0
0
0
0
0
0
0
0
0
0
0
0
0
0
0
0
0
0
0
0
0
0
0
0
0
0
0
0
0
0
0
0
0
0
0
0
0
0
0
0
0
0
0
0
0
0
0
0
0
0
0
0
0
0
0
0
0
0
0
0
0
0
0
0
0
0
0
0
0
0
)
;

boundaryField
{
    inandouthalf11
    {
        type            cyclic;
    }
    inandouthalf12
    {
        type            cyclic;
    }
    inandouthalf21
    {
        type            cyclic;
    }
    inandouthalf22
    {
        type            cyclic;
    }
    inandouthalf31
    {
        type            cyclic;
    }
    inandouthalf32
    {
        type            cyclic;
    }
    inandouthalf41
    {
        type            cyclic;
    }
    inandouthalf42
    {
        type            cyclic;
    }
    top
    {
        type            symmetryPlane;
    }
    walls
    {
        type            calculated;
        value           uniform 2.90688e-16;
    }
    frontAndBackPlanes
    {
        type            empty;
    }
}


// ************************************************************************* //
