/*--------------------------------*- C++ -*----------------------------------*\
| =========                 |                                                 |
| \\      /  F ield         | OpenFOAM: The Open Source CFD Toolbox           |
|  \\    /   O peration     | Version:  2.4.x                                 |
|   \\  /    A nd           | Web:      www.OpenFOAM.org                      |
|    \\/     M anipulation  |                                                 |
\*---------------------------------------------------------------------------*/
FoamFile
{
    version     2.0;
    format      ascii;
    class       surfaceScalarField;
    location    "2.8";
    object      phia;
}
// * * * * * * * * * * * * * * * * * * * * * * * * * * * * * * * * * * * * * //

dimensions      [0 3 -1 0 0 0 0];

internalField   nonuniform List<scalar> 
359
(
-1.35157e-12
-5.32187e-12
-1.06049e-11
-1.55392e-11
-1.95113e-11
-2.2713e-11
-2.54452e-11
-2.78254e-11
-2.9782e-11
-3.12061e-11
-3.20975e-11
-3.25858e-11
-3.28357e-11
-3.29669e-11
-3.30444e-11
-3.30986e-11
-3.31441e-11
-3.31881e-11
-3.32345e-11
-3.32857e-11
-3.33421e-11
-3.34034e-11
-3.34682e-11
-3.35352e-11
-3.3603e-11
-3.36708e-11
-3.37384e-11
-3.38058e-11
-3.38731e-11
-3.39407e-11
-3.40088e-11
-3.40776e-11
-3.41473e-11
-3.42181e-11
-3.42899e-11
-3.43629e-11
-3.44371e-11
-3.45125e-11
-3.45893e-11
-3.46674e-11
-3.4747e-11
-3.4828e-11
-3.49107e-11
-3.49951e-11
-3.50815e-11
-3.517e-11
-3.52608e-11
-3.53541e-11
-3.54503e-11
-3.55498e-11
-3.5653e-11
-3.57601e-11
-3.58715e-11
-3.59878e-11
-3.61091e-11
-3.62363e-11
-3.63696e-11
-3.65094e-11
-3.66561e-11
-3.68097e-11
-3.69702e-11
-3.71373e-11
-3.73105e-11
-3.74891e-11
-3.76727e-11
-3.7861e-11
-3.80545e-11
-3.82539e-11
-3.84605e-11
-3.86759e-11
-3.89021e-11
-3.91408e-11
-3.93929e-11
-3.96591e-11
-3.99389e-11
-4.02313e-11
-4.05343e-11
-4.08458e-11
-4.11641e-11
-4.14878e-11
-4.18163e-11
-4.21498e-11
-4.24891e-11
-4.28352e-11
-4.31892e-11
-4.35519e-11
-4.39237e-11
-4.43043e-11
-4.46933e-11
-4.50898e-11
-4.54927e-11
-4.59012e-11
-4.63146e-11
-4.67324e-11
-4.71541e-11
-4.75797e-11
-4.8009e-11
-4.84417e-11
-4.88777e-11
-4.93169e-11
-4.97591e-11
-5.0204e-11
-5.06514e-11
-5.11013e-11
-5.15534e-11
-5.20074e-11
-5.24633e-11
-5.29206e-11
-5.33791e-11
-5.38384e-11
-5.42981e-11
-5.47579e-11
-5.5217e-11
-5.56751e-11
-5.61315e-11
-5.65856e-11
-5.70367e-11
-5.74844e-11
-5.79281e-11
-5.83677e-11
-5.88032e-11
-5.92347e-11
-5.96632e-11
-6.00897e-11
-6.05163e-11
-6.09456e-11
-6.13814e-11
-6.18283e-11
-6.22919e-11
-6.27779e-11
-6.32918e-11
-6.38381e-11
-6.44205e-11
-6.50411e-11
-6.56979e-11
-6.63806e-11
-6.70694e-11
-6.77423e-11
-6.83778e-11
-6.89433e-11
-6.93848e-11
-6.96593e-11
-6.97983e-11
-6.98525e-11
-6.98663e-11
-6.98658e-11
-1.03669e-10
-1.60116e-10
-4.14745e-10
-1.738e-08
-3.88933e-08
-5.38513e-08
-6.37895e-08
-6.86805e-08
-7.08831e-08
-7.15171e-08
-7.11574e-08
-7.01407e-08
-6.86719e-08
-6.68791e-08
-6.48456e-08
-6.26275e-08
-6.02642e-08
-5.77842e-08
-5.52085e-08
-5.25534e-08
-4.98322e-08
-4.7056e-08
-4.4235e-08
-4.13794e-08
-3.85004e-08
-3.56113e-08
-3.27291e-08
-2.98757e-08
-2.7076e-08
-2.4349e-08
-2.16903e-08
-1.90552e-08
-1.63587e-08
-1.35109e-08
-1.0458e-08
-7.18522e-09
-3.70003e-09
-2.39873e-11
3.79886e-09
7.70159e-09
1.15691e-08
1.52319e-08
1.84725e-08
2.1074e-08
2.29071e-08
2.39935e-08
2.44866e-08
2.45803e-08
2.44362e-08
2.41622e-08
2.38211e-08
2.34477e-08
2.30606e-08
2.26703e-08
2.22839e-08
2.18987e-08
2.15168e-08
2.11406e-08
2.07736e-08
2.04157e-08
2.00629e-08
1.97132e-08
1.93681e-08
1.90257e-08
1.86825e-08
1.83386e-08
1.79931e-08
1.76434e-08
1.72897e-08
1.69314e-08
1.65642e-08
1.61883e-08
1.58061e-08
1.54136e-08
1.50085e-08
1.45914e-08
1.4161e-08
1.37174e-08
1.32584e-08
1.27792e-08
1.22812e-08
1.17636e-08
1.12205e-08
1.06527e-08
1.00573e-08
9.43062e-09
8.7706e-09
8.07625e-09
7.34367e-09
6.56718e-09
5.74473e-09
4.87061e-09
3.93389e-09
2.90844e-09
1.79871e-09
-7.75679e-08
-1.57876e-07
-1.57876e-07
-1.57876e-07
-1.57876e-07
-1.57876e-07
-1.57876e-07
-1.57876e-07
-1.57876e-07
-1.57876e-07
-1.57876e-07
-1.57876e-07
-1.57876e-07
-1.57876e-07
-1.57876e-07
-1.57876e-07
-1.57876e-07
-1.57876e-07
-1.57876e-07
-1.57876e-07
-1.57876e-07
-1.57876e-07
-1.57876e-07
-1.57876e-07
-1.57876e-07
-1.57876e-07
-1.57876e-07
-1.57876e-07
-1.57876e-07
-1.57876e-07
-1.57876e-07
-1.57876e-07
-1.57876e-07
-1.57876e-07
-1.57876e-07
-1.57876e-07
-1.57876e-07
-1.57876e-07
-1.57876e-07
-1.57876e-07
-1.57876e-07
-1.57876e-07
-1.57876e-07
-1.57876e-07
-1.57876e-07
-1.57876e-07
-1.57876e-07
-1.57876e-07
-1.57876e-07
-1.57876e-07
-1.57876e-07
-1.57876e-07
-1.57876e-07
-1.57876e-07
-1.57876e-07
-1.57876e-07
-1.57876e-07
-1.57876e-07
-1.57876e-07
-1.57876e-07
-1.57876e-07
-1.57876e-07
-1.57876e-07
-1.57876e-07
-1.57876e-07
-1.57876e-07
-1.57876e-07
-1.57876e-07
-1.57876e-07
-1.57876e-07
-1.57876e-07
-1.57876e-07
-1.57876e-07
-1.57876e-07
-1.57876e-07
-1.57876e-07
-1.57876e-07
-1.57876e-07
-1.57876e-07
-1.57876e-07
-1.57876e-07
-1.57876e-07
-1.57876e-07
-1.57876e-07
-1.57876e-07
-1.57876e-07
-1.57876e-07
-1.57876e-07
-1.57876e-07
-1.57876e-07
-1.57876e-07
-1.57876e-07
-1.57876e-07
-1.57876e-07
-1.57876e-07
-1.57876e-07
-1.57876e-07
-1.57876e-07
-1.57876e-07
-1.57876e-07
-1.57876e-07
-1.57876e-07
-1.57876e-07
-1.57876e-07
-1.57876e-07
-1.57876e-07
-1.57876e-07
-1.57876e-07
-1.57876e-07
-1.57876e-07
-1.57876e-07
-1.57876e-07
-1.57876e-07
-1.57876e-07
-1.57876e-07
-1.57858e-07
-1.57148e-07
-1.32105e-07
)
;

boundaryField
{
    inandouthalf11
    {
        type            cyclic;
        value           nonuniform List<scalar> 
100
(
8.81387e-39
1.28316e-13
4.02427e-13
6.99367e-13
9.48423e-13
1.14541e-12
1.30653e-12
1.44363e-12
1.55798e-12
1.64459e-12
1.70128e-12
1.73333e-12
1.74984e-12
1.75833e-12
1.76314e-12
1.76635e-12
1.76892e-12
1.77134e-12
1.7739e-12
1.77677e-12
1.78003e-12
1.7837e-12
1.78773e-12
1.79203e-12
1.79651e-12
1.80111e-12
1.80578e-12
1.81052e-12
1.81534e-12
1.82027e-12
1.82531e-12
1.83049e-12
1.83582e-12
1.84133e-12
1.84701e-12
1.85287e-12
1.85893e-12
1.86518e-12
1.87164e-12
1.87831e-12
1.8852e-12
1.89231e-12
1.89966e-12
1.90726e-12
1.91514e-12
1.9233e-12
1.93177e-12
1.94056e-12
1.94972e-12
1.95928e-12
1.96928e-12
1.97976e-12
1.99076e-12
2.00232e-12
2.01449e-12
2.02732e-12
2.04086e-12
2.05517e-12
2.07027e-12
2.08621e-12
2.10297e-12
2.12055e-12
2.13891e-12
2.15798e-12
2.1777e-12
2.19804e-12
2.219e-12
2.24064e-12
2.26309e-12
2.2865e-12
2.31106e-12
2.33699e-12
2.36442e-12
2.39345e-12
2.42408e-12
2.45624e-12
2.48974e-12
2.52434e-12
2.55982e-12
2.59598e-12
2.63272e-12
2.67e-12
2.70787e-12
2.74643e-12
2.78577e-12
2.82602e-12
2.86721e-12
2.90935e-12
2.95239e-12
2.99623e-12
3.04077e-12
3.08587e-12
3.13144e-12
3.1774e-12
3.22368e-12
3.27025e-12
3.31708e-12
3.36412e-12
3.41136e-12
3.45875e-12
)
;
    }
    inandouthalf12
    {
        type            cyclic;
        value           nonuniform List<scalar> 
100
(
-8.81387e-39
-1.28316e-13
-4.02427e-13
-6.99367e-13
-9.48423e-13
-1.14541e-12
-1.30653e-12
-1.44363e-12
-1.55798e-12
-1.64459e-12
-1.70128e-12
-1.73333e-12
-1.74984e-12
-1.75833e-12
-1.76314e-12
-1.76635e-12
-1.76892e-12
-1.77134e-12
-1.7739e-12
-1.77677e-12
-1.78003e-12
-1.7837e-12
-1.78773e-12
-1.79203e-12
-1.79651e-12
-1.80111e-12
-1.80578e-12
-1.81052e-12
-1.81534e-12
-1.82027e-12
-1.82531e-12
-1.83049e-12
-1.83582e-12
-1.84133e-12
-1.84701e-12
-1.85287e-12
-1.85893e-12
-1.86518e-12
-1.87164e-12
-1.87831e-12
-1.8852e-12
-1.89231e-12
-1.89966e-12
-1.90726e-12
-1.91514e-12
-1.9233e-12
-1.93177e-12
-1.94056e-12
-1.94972e-12
-1.95928e-12
-1.96928e-12
-1.97976e-12
-1.99076e-12
-2.00232e-12
-2.01449e-12
-2.02732e-12
-2.04086e-12
-2.05517e-12
-2.07027e-12
-2.08621e-12
-2.10297e-12
-2.12055e-12
-2.13891e-12
-2.15798e-12
-2.1777e-12
-2.19804e-12
-2.219e-12
-2.24064e-12
-2.26309e-12
-2.2865e-12
-2.31106e-12
-2.33699e-12
-2.36442e-12
-2.39345e-12
-2.42408e-12
-2.45624e-12
-2.48974e-12
-2.52434e-12
-2.55982e-12
-2.59598e-12
-2.63272e-12
-2.67e-12
-2.70787e-12
-2.74643e-12
-2.78577e-12
-2.82602e-12
-2.86721e-12
-2.90935e-12
-2.95239e-12
-2.99623e-12
-3.04077e-12
-3.08587e-12
-3.13144e-12
-3.1774e-12
-3.22368e-12
-3.27025e-12
-3.31708e-12
-3.36412e-12
-3.41136e-12
-3.45875e-12
)
;
    }
    inandouthalf21
    {
        type            cyclic;
        value           nonuniform List<scalar> 
100
(
3.50626e-12
3.55387e-12
3.60153e-12
3.6492e-12
3.69686e-12
3.74447e-12
3.79198e-12
3.83936e-12
3.88656e-12
3.93353e-12
3.98021e-12
4.02654e-12
4.07246e-12
4.11789e-12
4.16276e-12
4.20699e-12
4.2505e-12
4.29322e-12
4.3351e-12
4.37607e-12
4.4161e-12
4.45519e-12
4.49337e-12
4.53069e-12
4.56725e-12
4.60322e-12
4.63881e-12
4.67428e-12
4.70995e-12
4.74611e-12
4.78303e-12
4.82086e-12
4.85962e-12
4.89919e-12
4.93922e-12
4.97891e-12
5.01695e-12
5.05184e-12
5.08232e-12
5.10717e-12
5.12484e-12
5.13471e-12
5.13871e-12
5.13978e-12
5.13996e-12
5.14006e-12
5.14034e-12
1.19951e-11
2.81465e-11
1.14006e-10
-1.05844e-08
-2.71061e-08
-4.12797e-08
-5.40956e-08
-6.61529e-08
-7.77423e-08
-8.90087e-08
-1.00032e-07
-1.1086e-07
-1.21523e-07
-1.32042e-07
-1.42432e-07
-1.52701e-07
-1.62856e-07
-1.729e-07
-1.82832e-07
-1.92651e-07
-2.02353e-07
-2.11932e-07
-2.21378e-07
-2.30682e-07
-2.3983e-07
-2.48809e-07
-2.57602e-07
-2.66195e-07
-2.74571e-07
-2.82714e-07
-2.9061e-07
-2.98247e-07
-3.05614e-07
-3.12701e-07
-3.19495e-07
-3.25982e-07
-3.32145e-07
-3.37965e-07
-3.43424e-07
-3.48503e-07
-3.53189e-07
-3.57476e-07
-3.6137e-07
-3.64897e-07
-3.68098e-07
-3.71029e-07
-3.73748e-07
-3.763e-07
-3.7872e-07
-3.81026e-07
-3.83226e-07
-3.85324e-07
-3.87324e-07
)
;
    }
    inandouthalf22
    {
        type            cyclic;
        value           nonuniform List<scalar> 
100
(
-3.50626e-12
-3.55387e-12
-3.60153e-12
-3.6492e-12
-3.69686e-12
-3.74447e-12
-3.79198e-12
-3.83936e-12
-3.88656e-12
-3.93353e-12
-3.98021e-12
-4.02654e-12
-4.07246e-12
-4.11789e-12
-4.16276e-12
-4.20699e-12
-4.2505e-12
-4.29322e-12
-4.3351e-12
-4.37607e-12
-4.4161e-12
-4.45519e-12
-4.49337e-12
-4.53069e-12
-4.56725e-12
-4.60322e-12
-4.63881e-12
-4.67428e-12
-4.70995e-12
-4.74611e-12
-4.78303e-12
-4.82086e-12
-4.85962e-12
-4.89919e-12
-4.93922e-12
-4.97891e-12
-5.01695e-12
-5.05184e-12
-5.08232e-12
-5.10717e-12
-5.12484e-12
-5.13471e-12
-5.13871e-12
-5.13978e-12
-5.13996e-12
-5.14006e-12
-5.14034e-12
-1.19951e-11
-2.81465e-11
-1.14006e-10
1.05844e-08
2.71061e-08
4.12797e-08
5.40956e-08
6.61529e-08
7.77423e-08
8.90087e-08
1.00032e-07
1.1086e-07
1.21523e-07
1.32042e-07
1.42432e-07
1.52701e-07
1.62856e-07
1.729e-07
1.82832e-07
1.92651e-07
2.02353e-07
2.11932e-07
2.21378e-07
2.30682e-07
2.3983e-07
2.48809e-07
2.57602e-07
2.66195e-07
2.74571e-07
2.82714e-07
2.9061e-07
2.98247e-07
3.05614e-07
3.12701e-07
3.19495e-07
3.25982e-07
3.32145e-07
3.37965e-07
3.43424e-07
3.48503e-07
3.53189e-07
3.57476e-07
3.6137e-07
3.64897e-07
3.68098e-07
3.71029e-07
3.73748e-07
3.763e-07
3.7872e-07
3.81026e-07
3.83226e-07
3.85324e-07
3.87324e-07
)
;
    }
    inandouthalf31
    {
        type            cyclic;
        value           nonuniform List<scalar> 
110
(
-3.89228e-07
-3.9899e-07
-4.08926e-07
-4.19045e-07
-4.29346e-07
-4.3983e-07
-4.50509e-07
-4.61396e-07
-4.72492e-07
-4.83797e-07
-4.95327e-07
-5.07091e-07
-5.1909e-07
-5.31335e-07
-5.43835e-07
-5.56588e-07
-5.69613e-07
-5.82922e-07
-5.96506e-07
-6.10374e-07
-6.24545e-07
-6.39023e-07
-6.53812e-07
-6.68918e-07
-6.84343e-07
-7.00109e-07
-7.16224e-07
-7.32681e-07
-7.49499e-07
-7.66688e-07
-7.84244e-07
-8.02183e-07
-8.20508e-07
-8.39219e-07
-8.58314e-07
-8.77799e-07
-8.97671e-07
-9.17914e-07
-9.38526e-07
-9.59492e-07
-9.80839e-07
-1.00286e-06
-1.17269e-06
-1.19651e-06
-1.2208e-06
-1.24558e-06
-1.27087e-06
-1.29667e-06
-1.32299e-06
-1.34985e-06
-1.37725e-06
-1.40521e-06
-1.43373e-06
-1.46283e-06
-1.49252e-06
-1.52282e-06
-1.55373e-06
-1.58527e-06
-1.61744e-06
-1.65027e-06
-1.68377e-06
-1.71795e-06
-1.75282e-06
-1.78839e-06
-1.82469e-06
-1.86173e-06
-1.89952e-06
-1.93807e-06
-1.97741e-06
-2.01755e-06
-2.0585e-06
-2.10028e-06
-2.14291e-06
-2.18641e-06
-2.23079e-06
-2.27606e-06
-2.32226e-06
-2.3694e-06
-2.41749e-06
-2.46656e-06
-2.51662e-06
-2.5677e-06
-2.61982e-06
-2.673e-06
-2.72725e-06
-2.78261e-06
-2.83909e-06
-2.89671e-06
-2.95551e-06
-3.0155e-06
-3.0767e-06
-3.13915e-06
-3.20287e-06
-3.26788e-06
-3.33421e-06
-3.40188e-06
-3.47093e-06
-3.54138e-06
-3.61327e-06
-3.68661e-06
-3.76143e-06
-3.83778e-06
-3.91568e-06
-3.99515e-06
-4.07625e-06
-4.15898e-06
-4.2434e-06
-4.32953e-06
-4.41741e-06
-4.50707e-06
)
;
    }
    inandouthalf32
    {
        type            cyclic;
        value           nonuniform List<scalar> 
110
(
3.89228e-07
3.9899e-07
4.08926e-07
4.19045e-07
4.29346e-07
4.3983e-07
4.50509e-07
4.61396e-07
4.72492e-07
4.83797e-07
4.95327e-07
5.07091e-07
5.1909e-07
5.31335e-07
5.43835e-07
5.56588e-07
5.69613e-07
5.82922e-07
5.96506e-07
6.10374e-07
6.24545e-07
6.39023e-07
6.53812e-07
6.68918e-07
6.84343e-07
7.00109e-07
7.16224e-07
7.32681e-07
7.49499e-07
7.66688e-07
7.84244e-07
8.02183e-07
8.20508e-07
8.39219e-07
8.58314e-07
8.77799e-07
8.97671e-07
9.17914e-07
9.38526e-07
9.59492e-07
9.80839e-07
1.00286e-06
1.17269e-06
1.19651e-06
1.2208e-06
1.24558e-06
1.27087e-06
1.29667e-06
1.32299e-06
1.34985e-06
1.37725e-06
1.40521e-06
1.43373e-06
1.46283e-06
1.49252e-06
1.52282e-06
1.55373e-06
1.58527e-06
1.61744e-06
1.65027e-06
1.68377e-06
1.71795e-06
1.75282e-06
1.78839e-06
1.82469e-06
1.86173e-06
1.89952e-06
1.93807e-06
1.97741e-06
2.01755e-06
2.0585e-06
2.10028e-06
2.14291e-06
2.18641e-06
2.23079e-06
2.27606e-06
2.32226e-06
2.3694e-06
2.41749e-06
2.46656e-06
2.51662e-06
2.5677e-06
2.61982e-06
2.673e-06
2.72725e-06
2.78261e-06
2.83909e-06
2.89671e-06
2.95551e-06
3.0155e-06
3.0767e-06
3.13915e-06
3.20287e-06
3.26788e-06
3.33421e-06
3.40188e-06
3.47093e-06
3.54138e-06
3.61327e-06
3.68661e-06
3.76143e-06
3.83778e-06
3.91568e-06
3.99515e-06
4.07625e-06
4.15898e-06
4.2434e-06
4.32953e-06
4.41741e-06
4.50707e-06
)
;
    }
    inandouthalf41
    {
        type            cyclic;
        value           nonuniform List<scalar> 
50
(
-4.03429e-06
-4.03429e-06
-4.03429e-06
-4.03429e-06
-4.03429e-06
-4.03429e-06
-4.03429e-06
-4.03429e-06
-4.03429e-06
-4.03429e-06
-4.03429e-06
-4.03429e-06
-4.03429e-06
-4.03429e-06
-4.03429e-06
-4.03429e-06
-4.03429e-06
-4.03429e-06
-4.03429e-06
-4.03429e-06
-4.03429e-06
-4.03429e-06
-4.03429e-06
-4.03429e-06
-4.03429e-06
-4.03429e-06
-4.03429e-06
-4.03429e-06
-4.03429e-06
-4.03429e-06
-4.03429e-06
-4.03429e-06
-4.03429e-06
-4.03429e-06
-4.03429e-06
-4.03429e-06
-4.03429e-06
-4.03429e-06
-4.03429e-06
-4.03429e-06
-4.03429e-06
-4.03429e-06
-4.03429e-06
-4.03429e-06
-4.03429e-06
-4.03429e-06
-4.03429e-06
-4.0343e-06
-4.03458e-06
-4.04117e-06
)
;
    }
    inandouthalf42
    {
        type            cyclic;
        value           nonuniform List<scalar> 
50
(
4.03429e-06
4.03429e-06
4.03429e-06
4.03429e-06
4.03429e-06
4.03429e-06
4.03429e-06
4.03429e-06
4.03429e-06
4.03429e-06
4.03429e-06
4.03429e-06
4.03429e-06
4.03429e-06
4.03429e-06
4.03429e-06
4.03429e-06
4.03429e-06
4.03429e-06
4.03429e-06
4.03429e-06
4.03429e-06
4.03429e-06
4.03429e-06
4.03429e-06
4.03429e-06
4.03429e-06
4.03429e-06
4.03429e-06
4.03429e-06
4.03429e-06
4.03429e-06
4.03429e-06
4.03429e-06
4.03429e-06
4.03429e-06
4.03429e-06
4.03429e-06
4.03429e-06
4.03429e-06
4.03429e-06
4.03429e-06
4.03429e-06
4.03429e-06
4.03429e-06
4.03429e-06
4.03429e-06
4.0343e-06
4.03458e-06
4.04117e-06
)
;
    }
    top
    {
        type            symmetryPlane;
        value           uniform 0;
    }
    walls
    {
        type            fixedValue;
        value           uniform 0;
    }
    frontAndBackPlanes
    {
        type            empty;
        value           nonuniform 0();
    }
}


// ************************************************************************* //
