/*--------------------------------*- C++ -*----------------------------------*\
| =========                 |                                                 |
| \\      /  F ield         | OpenFOAM: The Open Source CFD Toolbox           |
|  \\    /   O peration     | Version:  2.4.x                                 |
|   \\  /    A nd           | Web:      www.OpenFOAM.org                      |
|    \\/     M anipulation  |                                                 |
\*---------------------------------------------------------------------------*/
FoamFile
{
    version     2.0;
    format      ascii;
    class       surfaceScalarField;
    location    "2.8";
    object      phib;
}
// * * * * * * * * * * * * * * * * * * * * * * * * * * * * * * * * * * * * * //

dimensions      [0 3 -1 0 0 0 0];

internalField   nonuniform List<scalar> 
359
(
2.11526e-12
8.33323e-12
1.66096e-11
2.43388e-11
3.05581e-11
3.55668e-11
3.98354e-11
4.35507e-11
4.66031e-11
4.88238e-11
5.02135e-11
5.09744e-11
5.13638e-11
5.15682e-11
5.16888e-11
5.17734e-11
5.18443e-11
5.19129e-11
5.19854e-11
5.20652e-11
5.21532e-11
5.22487e-11
5.23497e-11
5.2454e-11
5.25596e-11
5.26653e-11
5.27705e-11
5.28752e-11
5.298e-11
5.30851e-11
5.31908e-11
5.32978e-11
5.3406e-11
5.35157e-11
5.36272e-11
5.37403e-11
5.38551e-11
5.39717e-11
5.40905e-11
5.42112e-11
5.4334e-11
5.44591e-11
5.45864e-11
5.47164e-11
5.48493e-11
5.49853e-11
5.51248e-11
5.5268e-11
5.54153e-11
5.55677e-11
5.57256e-11
5.58893e-11
5.60595e-11
5.6237e-11
5.64221e-11
5.6616e-11
5.6819e-11
5.70321e-11
5.72555e-11
5.74893e-11
5.77337e-11
5.7988e-11
5.82516e-11
5.85236e-11
5.8803e-11
5.90896e-11
5.93838e-11
5.96869e-11
6.0001e-11
6.03283e-11
6.06719e-11
6.10346e-11
6.14177e-11
6.18224e-11
6.22479e-11
6.26927e-11
6.31538e-11
6.36278e-11
6.41118e-11
6.46038e-11
6.51028e-11
6.56091e-11
6.61238e-11
6.66485e-11
6.71849e-11
6.77343e-11
6.82972e-11
6.88734e-11
6.94619e-11
7.00615e-11
7.06705e-11
7.12875e-11
7.19114e-11
7.25413e-11
7.31767e-11
7.38172e-11
7.44625e-11
7.51125e-11
7.57667e-11
7.64249e-11
7.70867e-11
7.77519e-11
7.842e-11
7.90908e-11
7.97639e-11
8.0439e-11
8.11157e-11
8.17934e-11
8.24718e-11
8.31501e-11
8.38277e-11
8.45038e-11
8.51776e-11
8.58482e-11
8.65145e-11
8.71755e-11
8.78303e-11
8.84778e-11
8.91174e-11
8.97485e-11
9.03711e-11
9.09855e-11
9.15926e-11
9.21944e-11
9.27936e-11
9.33941e-11
9.40016e-11
9.46229e-11
9.52661e-11
9.59399e-11
9.66524e-11
9.74103e-11
9.82183e-11
9.90789e-11
9.99885e-11
1.00932e-10
1.01878e-10
1.02791e-10
1.03633e-10
1.04353e-10
1.04882e-10
1.05149e-10
1.05171e-10
1.05014e-10
1.04703e-10
1.0352e-10
1.51962e-10
2.32718e-10
3.47387e-10
5.1299e-09
4.58243e-09
3.7342e-09
3.22396e-09
2.77989e-09
2.40083e-09
2.07793e-09
1.80172e-09
1.56419e-09
1.35884e-09
1.18044e-09
1.02485e-09
8.88707e-10
7.69295e-10
6.64384e-10
5.72125e-10
4.90965e-10
4.19593e-10
3.56889e-10
3.01891e-10
2.53764e-10
2.11783e-10
1.75313e-10
1.438e-10
1.16758e-10
9.3758e-11
7.43961e-11
5.82528e-11
4.48594e-11
3.37179e-11
2.43843e-11
1.65366e-11
9.95822e-12
4.49318e-12
2.5498e-14
-3.51671e-12
-6.16401e-12
-7.8888e-12
-8.63107e-12
-8.37541e-12
-7.276e-12
-5.70865e-12
-4.13123e-12
-2.85787e-12
-1.96993e-12
-1.39859e-12
-1.0374e-12
-8.01407e-13
-6.38082e-13
-5.1879e-13
-4.28681e-13
-3.58954e-13
-3.01861e-13
-2.53875e-13
-2.14636e-13
-1.83136e-13
-1.55901e-13
-1.31833e-13
-1.12308e-13
-9.63e-14
-8.1939e-14
-6.95285e-14
-5.9268e-14
-5.03146e-14
-4.25794e-14
-3.61765e-14
-3.0512e-14
-2.55363e-14
-2.15541e-14
-1.81556e-14
-1.50996e-14
-1.2552e-14
-1.04239e-14
-8.62084e-15
-7.11573e-15
-5.79922e-15
-4.69421e-15
-3.81116e-15
-3.05159e-15
-2.42018e-15
-1.91402e-15
-1.49211e-15
-1.14964e-15
-8.76253e-16
-6.58329e-16
-4.8291e-16
-3.44915e-16
-2.39621e-16
-1.57652e-16
-9.67587e-17
-5.10425e-17
-6.49207e-17
2.56766e-15
8.98995e-18
8.79074e-18
8.51476e-18
8.34437e-18
8.07885e-18
7.90749e-18
7.63482e-18
7.44482e-18
7.16641e-18
6.95527e-18
6.64984e-18
6.40602e-18
6.07525e-18
5.80912e-18
5.47198e-18
5.18984e-18
4.83747e-18
4.5337e-18
4.18367e-18
3.88492e-18
3.55581e-18
3.30527e-18
3.09401e-18
2.95434e-18
2.83455e-18
2.72076e-18
2.62193e-18
2.53071e-18
2.42739e-18
2.32596e-18
2.26824e-18
2.20793e-18
2.14081e-18
2.05132e-18
1.97864e-18
1.88147e-18
1.77987e-18
1.66018e-18
1.60039e-18
1.52752e-18
1.4566e-18
1.36416e-18
1.28853e-18
1.19687e-18
1.14342e-18
1.03546e-18
9.46788e-19
8.4916e-19
7.50757e-19
6.4377e-19
5.45729e-19
4.38297e-19
3.34872e-19
2.14433e-19
7.58111e-21
-9.00303e-21
-1.88316e-20
-4.84397e-21
-1.28279e-20
-2.37889e-20
-3.44984e-20
-4.58531e-20
-5.60498e-20
-6.43654e-20
-7.31095e-20
-7.67979e-20
-8.67729e-20
-8.86324e-20
-9.14059e-20
-8.49473e-20
-1.02713e-19
-1.09495e-19
-1.16417e-19
-1.10332e-19
-1.18218e-19
-1.0962e-19
-1.01581e-19
-7.28862e-20
-8.8218e-20
-7.60088e-20
-6.46748e-20
-1.57677e-20
-1.1023e-20
4.62038e-20
9.29792e-20
2.58287e-19
-2.47071e-20
-1.34042e-19
-2.53651e-19
-1.73089e-19
-3.15716e-19
-1.60128e-19
-2.91647e-20
4.66634e-19
2.25261e-19
4.53659e-19
6.57379e-19
1.4013e-18
1.6849e-18
2.52461e-18
3.34858e-18
4.61473e-18
5.38368e-18
6.55998e-18
7.72942e-18
9.24763e-18
1.07466e-17
1.21838e-17
1.3782e-17
1.47874e-17
1.88817e-17
2.12046e-17
2.37922e-17
2.37756e-17
2.73059e-17
2.76283e-17
3.02525e-17
)
;

boundaryField
{
    inandouthalf11
    {
        type            cyclic;
        value           nonuniform List<scalar> 
100
(
2.79432e-10
2.79685e-10
2.79735e-10
2.79987e-10
2.80246e-10
2.80504e-10
2.80786e-10
2.81071e-10
2.8132e-10
2.81512e-10
2.81639e-10
2.81711e-10
2.8175e-10
2.81771e-10
2.81782e-10
2.81789e-10
2.81795e-10
2.81799e-10
2.81803e-10
2.81809e-10
2.81814e-10
2.81822e-10
2.8183e-10
2.81838e-10
2.81847e-10
2.81856e-10
2.81865e-10
2.81877e-10
2.81888e-10
2.819e-10
2.81911e-10
2.81925e-10
2.81937e-10
2.81953e-10
2.81967e-10
2.81984e-10
2.82e-10
2.82019e-10
2.82041e-10
2.8206e-10
2.82084e-10
2.82108e-10
2.82133e-10
2.82161e-10
2.8219e-10
2.82222e-10
2.82255e-10
2.82289e-10
2.82327e-10
2.82369e-10
2.82411e-10
2.82458e-10
2.82507e-10
2.8256e-10
2.82614e-10
2.82675e-10
2.82737e-10
2.82804e-10
2.82874e-10
2.82947e-10
2.83025e-10
2.83105e-10
2.83189e-10
2.83274e-10
2.83361e-10
2.8345e-10
2.83543e-10
2.83638e-10
2.83738e-10
2.8384e-10
2.83949e-10
2.84063e-10
2.84179e-10
2.84301e-10
2.84427e-10
2.84557e-10
2.84689e-10
2.84824e-10
2.84962e-10
2.85103e-10
2.85246e-10
2.85394e-10
2.85545e-10
2.857e-10
2.85859e-10
2.86022e-10
2.86188e-10
2.86358e-10
2.86531e-10
2.86708e-10
2.86888e-10
2.87072e-10
2.87259e-10
2.8745e-10
2.87645e-10
2.87843e-10
2.88045e-10
2.88251e-10
2.88461e-10
2.88675e-10
)
;
    }
    inandouthalf12
    {
        type            cyclic;
        value           nonuniform List<scalar> 
100
(
-2.79432e-10
-2.79685e-10
-2.79735e-10
-2.79987e-10
-2.80246e-10
-2.80504e-10
-2.80786e-10
-2.81071e-10
-2.8132e-10
-2.81512e-10
-2.81639e-10
-2.81711e-10
-2.8175e-10
-2.81771e-10
-2.81782e-10
-2.81789e-10
-2.81795e-10
-2.81799e-10
-2.81803e-10
-2.81809e-10
-2.81814e-10
-2.81822e-10
-2.8183e-10
-2.81838e-10
-2.81847e-10
-2.81856e-10
-2.81865e-10
-2.81877e-10
-2.81888e-10
-2.819e-10
-2.81911e-10
-2.81925e-10
-2.81937e-10
-2.81953e-10
-2.81967e-10
-2.81984e-10
-2.82e-10
-2.82019e-10
-2.82041e-10
-2.8206e-10
-2.82084e-10
-2.82108e-10
-2.82133e-10
-2.82161e-10
-2.8219e-10
-2.82222e-10
-2.82255e-10
-2.82289e-10
-2.82327e-10
-2.82369e-10
-2.82411e-10
-2.82458e-10
-2.82507e-10
-2.8256e-10
-2.82614e-10
-2.82675e-10
-2.82737e-10
-2.82804e-10
-2.82874e-10
-2.82947e-10
-2.83025e-10
-2.83105e-10
-2.83189e-10
-2.83274e-10
-2.83361e-10
-2.8345e-10
-2.83543e-10
-2.83638e-10
-2.83738e-10
-2.8384e-10
-2.83949e-10
-2.84063e-10
-2.84179e-10
-2.84301e-10
-2.84427e-10
-2.84557e-10
-2.84689e-10
-2.84824e-10
-2.84962e-10
-2.85103e-10
-2.85246e-10
-2.85394e-10
-2.85545e-10
-2.857e-10
-2.85859e-10
-2.86022e-10
-2.86188e-10
-2.86358e-10
-2.86531e-10
-2.86708e-10
-2.86888e-10
-2.87072e-10
-2.87259e-10
-2.8745e-10
-2.87645e-10
-2.87843e-10
-2.88045e-10
-2.88251e-10
-2.88461e-10
-2.88675e-10
)
;
    }
    inandouthalf21
    {
        type            cyclic;
        value           nonuniform List<scalar> 
100
(
2.88894e-10
2.89116e-10
2.89342e-10
2.89573e-10
2.89809e-10
2.90049e-10
2.90294e-10
2.90544e-10
2.90799e-10
2.9106e-10
2.91326e-10
2.91597e-10
2.91875e-10
2.92159e-10
2.92449e-10
2.92746e-10
2.93049e-10
2.93361e-10
2.9368e-10
2.94007e-10
2.94343e-10
2.94688e-10
2.95043e-10
2.95409e-10
2.95786e-10
2.96175e-10
2.96577e-10
2.96995e-10
2.97428e-10
2.9788e-10
2.9835e-10
2.98838e-10
2.99347e-10
2.99881e-10
3.00444e-10
3.01034e-10
3.01644e-10
3.0228e-10
3.02969e-10
3.03747e-10
3.04578e-10
3.05352e-10
3.06281e-10
3.0751e-10
3.09028e-10
3.11363e-10
3.23132e-10
3.31807e-10
3.62412e-10
2.41407e-09
-8.93432e-09
-2.37761e-08
-3.67473e-08
-4.87971e-08
-6.03399e-08
-7.15562e-08
-8.25358e-08
-9.33295e-08
-1.0397e-07
-1.14478e-07
-1.2487e-07
-1.35158e-07
-1.45352e-07
-1.55457e-07
-1.65482e-07
-1.75429e-07
-1.85305e-07
-1.95111e-07
-2.04852e-07
-2.14529e-07
-2.24145e-07
-2.33701e-07
-2.43199e-07
-2.5264e-07
-2.62024e-07
-2.71352e-07
-2.80623e-07
-2.89838e-07
-2.98996e-07
-3.08096e-07
-3.17136e-07
-3.26116e-07
-3.35033e-07
-3.43887e-07
-3.52673e-07
-3.61391e-07
-3.70036e-07
-3.78603e-07
-3.87089e-07
-3.95485e-07
-4.03782e-07
-4.1197e-07
-4.20036e-07
-4.27965e-07
-4.3574e-07
-4.43344e-07
-4.50752e-07
-4.5794e-07
-4.64872e-07
-4.71506e-07
)
;
    }
    inandouthalf22
    {
        type            cyclic;
        value           nonuniform List<scalar> 
100
(
-2.88894e-10
-2.89116e-10
-2.89342e-10
-2.89573e-10
-2.89809e-10
-2.90049e-10
-2.90294e-10
-2.90544e-10
-2.90799e-10
-2.9106e-10
-2.91326e-10
-2.91597e-10
-2.91875e-10
-2.92159e-10
-2.92449e-10
-2.92746e-10
-2.93049e-10
-2.93361e-10
-2.9368e-10
-2.94007e-10
-2.94343e-10
-2.94688e-10
-2.95043e-10
-2.95409e-10
-2.95786e-10
-2.96175e-10
-2.96577e-10
-2.96995e-10
-2.97428e-10
-2.9788e-10
-2.9835e-10
-2.98838e-10
-2.99347e-10
-2.99881e-10
-3.00444e-10
-3.01034e-10
-3.01644e-10
-3.0228e-10
-3.02969e-10
-3.03747e-10
-3.04578e-10
-3.05352e-10
-3.06281e-10
-3.0751e-10
-3.09028e-10
-3.11363e-10
-3.23132e-10
-3.31807e-10
-3.62412e-10
-2.41407e-09
8.93432e-09
2.37761e-08
3.67473e-08
4.87971e-08
6.03399e-08
7.15562e-08
8.25358e-08
9.33295e-08
1.0397e-07
1.14478e-07
1.2487e-07
1.35158e-07
1.45352e-07
1.55457e-07
1.65482e-07
1.75429e-07
1.85305e-07
1.95111e-07
2.04852e-07
2.14529e-07
2.24145e-07
2.33701e-07
2.43199e-07
2.5264e-07
2.62024e-07
2.71352e-07
2.80623e-07
2.89838e-07
2.98996e-07
3.08096e-07
3.17136e-07
3.26116e-07
3.35033e-07
3.43887e-07
3.52673e-07
3.61391e-07
3.70036e-07
3.78603e-07
3.87089e-07
3.95485e-07
4.03782e-07
4.1197e-07
4.20036e-07
4.27965e-07
4.3574e-07
4.43344e-07
4.50752e-07
4.5794e-07
4.64872e-07
4.71506e-07
)
;
    }
    inandouthalf31
    {
        type            cyclic;
        value           nonuniform List<scalar> 
110
(
-4.77785e-07
-4.93497e-07
-5.09136e-07
-5.24308e-07
-5.37207e-07
-5.48608e-07
-5.60033e-07
-5.71669e-07
-5.83525e-07
-5.95608e-07
-6.07922e-07
-6.20472e-07
-6.33265e-07
-6.46304e-07
-6.59596e-07
-6.73146e-07
-6.86961e-07
-7.01044e-07
-7.15404e-07
-7.30045e-07
-7.44974e-07
-7.60197e-07
-7.75722e-07
-7.91553e-07
-8.07698e-07
-8.24164e-07
-8.40958e-07
-8.58087e-07
-8.75557e-07
-8.93377e-07
-9.11554e-07
-9.30095e-07
-9.49009e-07
-9.68303e-07
-9.87984e-07
-1.00806e-06
-1.02854e-06
-1.04944e-06
-1.07076e-06
-1.09251e-06
-1.11469e-06
-1.13733e-06
-1.16043e-06
-1.18399e-06
-1.20803e-06
-1.23255e-06
-1.25757e-06
-1.2831e-06
-1.30915e-06
-1.33573e-06
-1.36284e-06
-1.39051e-06
-1.41873e-06
-1.44753e-06
-1.47691e-06
-1.50689e-06
-1.53748e-06
-1.56868e-06
-1.60052e-06
-1.63301e-06
-1.66616e-06
-1.69998e-06
-1.73448e-06
-1.76969e-06
-1.80561e-06
-1.84226e-06
-1.87965e-06
-1.9178e-06
-1.95673e-06
-1.99644e-06
-2.03697e-06
-2.07831e-06
-2.1205e-06
-2.16354e-06
-2.20745e-06
-2.25225e-06
-2.29797e-06
-2.34461e-06
-2.3922e-06
-2.44076e-06
-2.4903e-06
-2.54084e-06
-2.59242e-06
-2.64504e-06
-2.69872e-06
-2.7535e-06
-2.80939e-06
-2.86641e-06
-2.92459e-06
-2.98395e-06
-3.04452e-06
-3.10632e-06
-3.16937e-06
-3.2337e-06
-3.29933e-06
-3.3663e-06
-3.43463e-06
-3.50434e-06
-3.57547e-06
-3.64804e-06
-3.72209e-06
-3.79763e-06
-3.87472e-06
-3.95336e-06
-4.0336e-06
-4.11548e-06
-4.19901e-06
-4.28424e-06
-4.3712e-06
-4.45992e-06
)
;
    }
    inandouthalf32
    {
        type            cyclic;
        value           nonuniform List<scalar> 
110
(
4.77785e-07
4.93497e-07
5.09136e-07
5.24308e-07
5.37207e-07
5.48608e-07
5.60033e-07
5.71669e-07
5.83525e-07
5.95608e-07
6.07922e-07
6.20472e-07
6.33265e-07
6.46304e-07
6.59596e-07
6.73146e-07
6.86961e-07
7.01044e-07
7.15404e-07
7.30045e-07
7.44974e-07
7.60197e-07
7.75722e-07
7.91553e-07
8.07698e-07
8.24164e-07
8.40958e-07
8.58087e-07
8.75557e-07
8.93377e-07
9.11554e-07
9.30095e-07
9.49009e-07
9.68303e-07
9.87984e-07
1.00806e-06
1.02854e-06
1.04944e-06
1.07076e-06
1.09251e-06
1.11469e-06
1.13733e-06
1.16043e-06
1.18399e-06
1.20803e-06
1.23255e-06
1.25757e-06
1.2831e-06
1.30915e-06
1.33573e-06
1.36284e-06
1.39051e-06
1.41873e-06
1.44753e-06
1.47691e-06
1.50689e-06
1.53748e-06
1.56868e-06
1.60052e-06
1.63301e-06
1.66616e-06
1.69998e-06
1.73448e-06
1.76969e-06
1.80561e-06
1.84226e-06
1.87965e-06
1.9178e-06
1.95673e-06
1.99644e-06
2.03697e-06
2.07831e-06
2.1205e-06
2.16354e-06
2.20745e-06
2.25225e-06
2.29797e-06
2.34461e-06
2.3922e-06
2.44076e-06
2.4903e-06
2.54084e-06
2.59242e-06
2.64504e-06
2.69872e-06
2.7535e-06
2.80939e-06
2.86641e-06
2.92459e-06
2.98395e-06
3.04452e-06
3.10632e-06
3.16937e-06
3.2337e-06
3.29933e-06
3.3663e-06
3.43463e-06
3.50434e-06
3.57547e-06
3.64804e-06
3.72209e-06
3.79763e-06
3.87472e-06
3.95336e-06
4.0336e-06
4.11548e-06
4.19901e-06
4.28424e-06
4.3712e-06
4.45992e-06
)
;
    }
    inandouthalf41
    {
        type            cyclic;
        value           nonuniform List<scalar> 
50
(
-3.99208e-06
-3.99208e-06
-3.99208e-06
-3.99208e-06
-3.99208e-06
-3.99208e-06
-3.99208e-06
-3.99208e-06
-3.99208e-06
-3.99208e-06
-3.99208e-06
-3.99208e-06
-3.99208e-06
-3.99208e-06
-3.99208e-06
-3.99208e-06
-3.99208e-06
-3.99208e-06
-3.99208e-06
-3.99208e-06
-3.99208e-06
-3.99208e-06
-3.99208e-06
-3.99208e-06
-3.99208e-06
-3.99208e-06
-3.99208e-06
-3.99208e-06
-3.99208e-06
-3.99208e-06
-3.99208e-06
-3.99208e-06
-3.99208e-06
-3.99208e-06
-3.99208e-06
-3.99208e-06
-3.99208e-06
-3.99208e-06
-3.99208e-06
-3.99208e-06
-3.99208e-06
-3.99208e-06
-3.99208e-06
-3.99208e-06
-3.99208e-06
-3.99208e-06
-3.99208e-06
-3.99208e-06
-3.99208e-06
-3.99208e-06
)
;
    }
    inandouthalf42
    {
        type            cyclic;
        value           nonuniform List<scalar> 
50
(
3.99208e-06
3.99208e-06
3.99208e-06
3.99208e-06
3.99208e-06
3.99208e-06
3.99208e-06
3.99208e-06
3.99208e-06
3.99208e-06
3.99208e-06
3.99208e-06
3.99208e-06
3.99208e-06
3.99208e-06
3.99208e-06
3.99208e-06
3.99208e-06
3.99208e-06
3.99208e-06
3.99208e-06
3.99208e-06
3.99208e-06
3.99208e-06
3.99208e-06
3.99208e-06
3.99208e-06
3.99208e-06
3.99208e-06
3.99208e-06
3.99208e-06
3.99208e-06
3.99208e-06
3.99208e-06
3.99208e-06
3.99208e-06
3.99208e-06
3.99208e-06
3.99208e-06
3.99208e-06
3.99208e-06
3.99208e-06
3.99208e-06
3.99208e-06
3.99208e-06
3.99208e-06
3.99208e-06
3.99208e-06
3.99208e-06
3.99208e-06
)
;
    }
    top
    {
        type            symmetryPlane;
        value           uniform 0;
    }
    walls
    {
        type            fixedValue;
        value           uniform 0;
    }
    frontAndBackPlanes
    {
        type            empty;
        value           nonuniform 0();
    }
}


// ************************************************************************* //
