/*--------------------------------*- C++ -*----------------------------------*\
| =========                 |                                                 |
| \\      /  F ield         | OpenFOAM: The Open Source CFD Toolbox           |
|  \\    /   O peration     | Version:  2.4.x                                 |
|   \\  /    A nd           | Web:      www.OpenFOAM.org                      |
|    \\/     M anipulation  |                                                 |
\*---------------------------------------------------------------------------*/
FoamFile
{
    version     2.0;
    format      ascii;
    class       volVectorField;
    location    "2.8";
    object      susb;
}
// * * * * * * * * * * * * * * * * * * * * * * * * * * * * * * * * * * * * * //

dimensions      [0 1 -2 0 0 0 0];

internalField   nonuniform List<vector> 
360
(
(0 1.03887e-18 0)
(0 1.70218e-18 0)
(0 7.98957e-19 0)
(0 1.06127e-19 0)
(-3.6662e-31 -2.09746e-19 0)
(-3.66556e-31 -5.37402e-19 0)
(-7.32856e-31 -7.97689e-19 0)
(0 -8.37056e-19 0)
(-7.32257e-31 -7.07917e-19 0)
(0 -5.19542e-19 0)
(-7.31885e-31 -3.26669e-19 0)
(0 -1.85791e-19 0)
(-3.65876e-31 -1.03991e-19 0)
(0 -5.57703e-20 0)
(0 -3.13731e-20 0)
(0 -1.92192e-20 0)
(0 -1.29873e-20 0)
(-3.65847e-31 -9.8237e-21 0)
(0 -1.5095e-20 0)
(0 -1.49306e-20 0)
(0 -1.55933e-20 0)
(-3.65836e-31 -2.33235e-20 0)
(0 -2.45011e-20 0)
(0 -2.55038e-20 0)
(0 -2.61042e-20 0)
(-3.65818e-31 -2.61726e-20 0)
(0 -3.2485e-20 0)
(0 -3.86592e-20 0)
(0 -3.82755e-20 0)
(0 -3.8068e-20 0)
(0 -4.44999e-20 0)
(0 -4.42195e-20 0)
(0 -5.05474e-20 0)
(0 -5.68532e-20 0)
(0 -5.65046e-20 0)
(3.65739e-31 -6.26841e-20 0)
(0 -6.87928e-20 0)
(0 -8.15005e-20 0)
(0 -8.10718e-20 0)
(0 -8.73795e-20 0)
(0 -1.00169e-19 0)
(0 -9.95439e-20 0)
(3.65632e-31 -1.11933e-19 0)
(0 -1.24097e-19 0)
(0 -1.29585e-19 0)
(0 -1.4152e-19 0)
(0 -1.46441e-19 0)
(0 -1.57328e-19 0)
(0 -1.80707e-19 0)
(0 -1.90687e-19 0)
(3.65412e-31 -2.00512e-19 0)
(0 -2.16436e-19 0)
(0 -2.31403e-19 0)
(0 -2.45235e-19 0)
(0 -2.64069e-19 0)
(0 -2.81326e-19 0)
(0 -2.9682e-19 0)
(0 -3.165e-19 0)
(0 -3.27116e-19 0)
(0 -3.46523e-19 0)
(0 -3.61568e-19 0)
(0 -3.71639e-19 0)
(0 -3.82943e-19 0)
(0 -3.89546e-19 0)
(0 -3.9814e-19 0)
(0 -4.09366e-19 0)
(0 -4.24603e-19 0)
(0 -4.39674e-19 0)
(0 -4.54322e-19 0)
(0 -4.75647e-19 0)
(0 -5.00263e-19 0)
(0 -5.13754e-19 0)
(0 -5.29463e-19 0)
(0 -5.46757e-19 0)
(0 -5.59614e-19 0)
(0 -5.69452e-19 0)
(0 -5.76553e-19 0)
(0 -5.8794e-19 0)
(0 -6.00542e-19 0)
(0 -6.13036e-19 0)
(0 -6.27949e-19 0)
(0 -6.4596e-19 0)
(0 -6.63592e-19 0)
(0 -6.81175e-19 0)
(0 -6.98129e-19 0)
(0 -7.14242e-19 0)
(0 -7.2914e-19 0)
(0 -7.42804e-19 0)
(0 -7.57005e-19 0)
(0 -7.71735e-19 0)
(0 -7.86968e-19 0)
(0 -8.03569e-19 0)
(0 -8.21436e-19 0)
(0 -8.39928e-19 0)
(0 -8.59026e-19 0)
(0 -8.78569e-19 0)
(0 -8.98387e-19 0)
(0 -9.18515e-19 0)
(0 -9.39138e-19 0)
(0 -9.60349e-19 0)
(0 -9.82223e-19 0)
(0 -1.0049e-18 0)
(0 -1.0284e-18 0)
(0 -1.05271e-18 0)
(0 -1.07786e-18 0)
(0 -1.10392e-18 0)
(0 -1.13093e-18 0)
(0 -1.15898e-18 0)
(0 -1.18818e-18 0)
(0 -1.2186e-18 0)
(0 -1.25035e-18 0)
(0 -1.28351e-18 0)
(0 -1.3182e-18 0)
(0 -1.35453e-18 0)
(0 -1.39265e-18 0)
(0 -1.43269e-18 0)
(0 -1.47482e-18 0)
(0 -1.51921e-18 0)
(0 -1.56605e-18 0)
(0 -1.61549e-18 0)
(0 -1.6677e-18 0)
(0 -1.72278e-18 0)
(0 -1.78082e-18 0)
(0 -1.84201e-18 0)
(0 -1.90676e-18 0)
(0 -1.97584e-18 0)
(0 -2.05029e-18 0)
(0 -2.13086e-18 0)
(0 -2.21701e-18 0)
(0 -2.30637e-18 0)
(0 -4.0431e-18 0)
(0 -2.78242e-17 0)
(0 -2.14889e-16 0)
(0 -1.57312e-15 0)
(0 -1.06748e-14 0)
(0 -6.60463e-14 0)
(0 -3.72687e-13 0)
(0 -1.95724e-12 0)
(0 -9.63363e-12 0)
(0 -4.19148e-11 0)
(0 -1.46679e-10 0)
(0 -4.74872e-10 0)
(0 -1.65832e-09 0)
(0 -6.17332e-09 0)
(0 -3.39344e-08 0)
(0 -7.60546e-07 0)
(0 -7.187e-06 0)
(0 -7.31414e-05 0)
(0 -0.0764593 0)
(0 -0.734508 0)
(0 -1.04241 0)
(0 -0.707476 0)
(0 -0.443696 0)
(0 -0.320143 0)
(0 -0.258525 0)
(0 -0.220174 0)
(0 -0.192983 0)
(0 -0.172259 0)
(0 -0.155606 0)
(0 -0.141666 0)
(0 -0.129639 0)
(0 -0.11903 0)
(0 -0.109519 0)
(0 -0.100886 0)
(0 -0.0929752 0)
(0 -0.0856737 0)
(0 -0.0788986 0)
(0 -0.0725858 0)
(0 -0.0666861 0)
(0 -0.0611602 0)
(0 -0.0559779 0)
(0 -0.0511165 0)
(0 -0.0465581 0)
(0 -0.0422771 0)
(0 -0.0382217 0)
(0 -0.0343047 0)
(0 -0.0304359 0)
(0 -0.0266138 0)
(0 -0.0230158 0)
(0 -0.0199354 0)
(0 -0.0174929 0)
(0 -0.0155451 0)
(0 -0.0139343 0)
(0 -0.0125904 0)
(0 -0.0115049 0)
(0 -0.0107041 0)
(0 -0.0102132 0)
(0 -0.0099869 0)
(0 -0.00981673 0)
(0 -0.00932391 0)
(0 -0.00818458 0)
(0 -0.00643906 0)
(0 -0.0045107 0)
(0 -0.00286465 0)
(0 -0.00170926 0)
(0 -0.00100281 0)
(0 -0.000602851 0)
(0 -0.000378456 0)
(0 -0.000245629 0)
(0 -0.000159852 0)
(0 -0.000101713 0)
(0 -6.21294e-05 0)
(-6.75503e-21 -3.32049e-05 0)
(0 -1.01749e-05 0)
(0 -7.63605e-07 0)
(4.66656e-24 -1.36276e-08 0)
(0 -1.78239e-10 0)
(-9.25988e-28 -2.00346e-12 0)
(0 -2.17046e-14 0)
(7.52778e-32 -2.48003e-16 0)
(0 -2.59066e-18 0)
(0 -2.48958e-20 0)
(0 -5.47954e-22 0)
(7.6134e-38 -2.88772e-22 0)
(0 -2.3528e-22 0)
(0 -2.07476e-22 0)
(0 -1.81486e-22 0)
(0 -1.42808e-22 0)
(0 -1.21086e-22 0)
(-3.26041e-38 -1.09143e-22 0)
(0 -9.02147e-23 0)
(-3.09865e-38 -7.48268e-23 0)
(0 -6.3182e-23 0)
(-1.47231e-38 -5.2502e-23 0)
(0 -4.62355e-23 0)
(0 -3.88166e-23 0)
(0 -3.0784e-23 0)
(0 -2.67906e-23 0)
(6.47716e-39 -2.24191e-23 0)
(6.31273e-39 -1.79929e-23 0)
(0 -1.52433e-23 0)
(0 -1.25394e-23 0)
(0 -1.01546e-23 0)
(0 -8.25893e-24 0)
(0 -6.88322e-24 0)
(0 -5.61032e-24 0)
(0 -4.43841e-24 0)
(0 -3.68914e-24 0)
(0 -2.91759e-24 0)
(0 -2.41404e-24 0)
(0 7.70835e-24 0)
(0 -3.02055e-24 0)
(0 -1.04702e-23 0)
(-2.99591e-44 -1.35181e-28 0)
(1.46816e-44 -3.26905e-29 0)
(0 -2.97482e-29 0)
(0 -2.75149e-29 0)
(-6.91133e-45 -2.55451e-29 0)
(0 -1.68177e-29 0)
(0 -1.22401e-29 0)
(-6.50701e-45 -7.27369e-30 0)
(0 -6.07791e-30 0)
(0 -6.56025e-30 0)
(0 -7.72417e-30 0)
(0 -5.09886e-30 0)
(0 -2.43523e-30 0)
(0 -1.25351e-30 0)
(0 -1.43859e-30 0)
(0 -1.97497e-30 0)
(0 -1.58274e-30 0)
(0 -6.8423e-31 0)
(0 -3.55882e-31 0)
(0 -3.98929e-31 0)
(0 -4.99213e-31 0)
(0 -3.49412e-31 0)
(0 -1.4168e-31 0)
(0 -9.29363e-32 0)
(0 -1.18367e-31 0)
(0 -1.09344e-31 0)
(0 -5.3051e-32 0)
(0 -2.47554e-32 0)
(0 -2.46414e-32 0)
(0 -2.55907e-32 0)
(0 -1.49268e-32 0)
(0 -6.33347e-33 0)
(0 -5.33523e-33 0)
(0 -5.05525e-33 0)
(0 -2.86225e-33 0)
(0 -1.54549e-33 0)
(0 -1.54807e-33 0)
(0 -1.14265e-33 0)
(0 -5.44463e-34 0)
(0 -3.74364e-34 0)
(0 -2.02581e-34 0)
(0 -6.61845e-35 0)
(0 -2.75885e-35 0)
(3.01036e-51 -1.18173e-35 0)
(0 -5.0989e-36 0)
(0 -2.19691e-36 0)
(0 -9.31063e-37 0)
(0 -3.85462e-37 0)
(0 -1.54797e-37 0)
(0 -5.99625e-38 0)
(0 -2.22969e-38 0)
(0 -7.92305e-39 0)
(0 -2.67862e-39 0)
(1.5029e-55 -8.57791e-40 0)
(0 -2.58992e-40 0)
(0 -7.33514e-41 0)
(-2.21091e-57 -1.93744e-41 0)
(0 -4.74048e-42 0)
(0 -1.06596e-42 0)
(0 -2.18182e-43 0)
(0 -4.0172e-44 0)
(0 -6.55427e-45 0)
(0 -9.28999e-46 0)
(0 -1.11295e-46 0)
(0 -1.082e-47 0)
(0 -7.98264e-49 0)
(0 -3.91707e-50 0)
(0 -8.97079e-52 0)
(0 -7.11394e-54 0)
(0 -1.65105e-55 0)
(0 -1.89745e-57 0)
(0 -2.56859e-68 0)
(0 -1.74618e-79 0)
(0 -8.70163e-91 0)
(0 -3.19645e-102 0)
(0 -1.03227e-113 0)
(0 -3.2184e-125 0)
(0 -1.58206e-136 0)
(0 -2.12266e-144 0)
(0 -4.3359e-155 0)
(0 -7.30411e-163 0)
(0 -1.47038e-173 0)
(0 -2.51254e-181 0)
(0 -6.28982e-192 0)
(0 -8.64065e-200 0)
(0 -2.86007e-210 0)
(0 -2.97355e-218 0)
(0 -1.94273e-228 0)
(0 -1.03047e-236 0)
(0 -1.29145e-246 0)
(0 -3.61162e-255 0)
(0 -6.58898e-265 0)
(0 -1.28019e-273 0)
(0 -3.13233e-283 0)
(0 -4.59752e-292 0)
(0 -1.38768e-301 0)
(0 -1.67128e-310 0)
(0 -5.95399e-320 0)
(0 -0 0)
(0 0 0)
(0 0 0)
(0 0 0)
(0 0 0)
(0 0 0)
(0 0 0)
(0 0 0)
(0 0 0)
(0 0 0)
(0 0 0)
(0 0 0)
(0 0 0)
(0 0 0)
(0 0 0)
(0 0 0)
(0 0 0)
(0 0 0)
(0 0 0)
)
;

boundaryField
{
    inandouthalf11
    {
        type            cyclic;
    }
    inandouthalf12
    {
        type            cyclic;
    }
    inandouthalf21
    {
        type            cyclic;
    }
    inandouthalf22
    {
        type            cyclic;
    }
    inandouthalf31
    {
        type            cyclic;
    }
    inandouthalf32
    {
        type            cyclic;
    }
    inandouthalf41
    {
        type            cyclic;
    }
    inandouthalf42
    {
        type            cyclic;
    }
    top
    {
        type            symmetryPlane;
    }
    walls
    {
        type            zeroGradient;
    }
    frontAndBackPlanes
    {
        type            empty;
    }
}


// ************************************************************************* //
