/*--------------------------------*- C++ -*----------------------------------*\
| =========                 |                                                 |
| \\      /  F ield         | OpenFOAM: The Open Source CFD Toolbox           |
|  \\    /   O peration     | Version:  2.4.x                                 |
|   \\  /    A nd           | Web:      www.OpenFOAM.org                      |
|    \\/     M anipulation  |                                                 |
\*---------------------------------------------------------------------------*/
FoamFile
{
    version     2.0;
    format      ascii;
    class       volTensorField;
    location    "2.8";
    object      Taus;
}
// * * * * * * * * * * * * * * * * * * * * * * * * * * * * * * * * * * * * * //

dimensions      [0 2 -2 0 0 0 0];

internalField   nonuniform List<tensor> 
360
(
(0 -0.0158233 0 -0.0158233 -0.165226 0 0 0 0)
(0 -0.0174491 0 -0.0174491 -0.171877 0 0 0 0)
(0 -0.0189054 0 -0.0189054 -0.17617 0 0 0 0)
(0 -0.0196583 0 -0.0196583 -0.177013 0 0 0 0)
(8.99912e-18 -0.0198762 0 -0.0198762 -0.176905 0 0 0 0)
(1.10819e-17 -0.0196512 0 -0.0196512 -0.175913 0 0 0 0)
(1.28496e-17 -0.0189752 0 -0.0189752 -0.173811 0 0 0 0)
(0 -0.0181101 0 -0.0181101 -0.171206 0 0 0 0)
(1.74389e-17 -0.0173537 0 -0.0173537 -0.168873 0 0 0 0)
(0 -0.0168141 0 -0.0168141 -0.167053 0 0 0 0)
(3.75599e-17 -0.0165042 0 -0.0165042 -0.165813 0 0 0 0)
(0 -0.0163994 0 -0.0163994 -0.165052 0 0 0 0)
(1.3284e-16 -0.0164476 0 -0.0164476 -0.164491 0 0 0 0)
(0 -0.0166278 0 -0.0166278 -0.164021 0 0 0 0)
(0 -0.0169379 0 -0.0169379 -0.163575 0 0 0 0)
(0 -0.0173666 0 -0.0173666 -0.16315 0 0 0 0)
(0 -0.0178754 0 -0.0178754 -0.162772 0 0 0 0)
(7.46558e-16 -0.0184109 0 -0.0184109 -0.16246 0 0 0 0)
(0 -0.0189304 0 -0.0189304 -0.162213 0 0 0 0)
(0 -0.0194138 0 -0.0194138 -0.161973 0 0 0 0)
(0 -0.0198755 0 -0.0198755 -0.161801 0 0 0 0)
(1.06542e-15 -0.0203085 0 -0.0203085 -0.161593 0 0 0 0)
(0 -0.0207251 0 -0.0207251 -0.16138 0 0 0 0)
(0 -0.0211345 0 -0.0211345 -0.161154 0 0 0 0)
(0 -0.0215406 0 -0.0215406 -0.160915 0 0 0 0)
(9.56451e-16 -0.0219463 0 -0.0219463 -0.160664 0 0 0 0)
(0 -0.0223491 0 -0.0223491 -0.160406 0 0 0 0)
(0 -0.0227394 0 -0.0227394 -0.160104 0 0 0 0)
(0 -0.0231263 0 -0.0231263 -0.159801 0 0 0 0)
(0 -0.0235137 0 -0.0235137 -0.159497 0 0 0 0)
(0 -0.0238973 0 -0.0238973 -0.159193 0 0 0 0)
(0 -0.024271 0 -0.024271 -0.158847 0 0 0 0)
(0 -0.0246478 0 -0.0246478 -0.158544 0 0 0 0)
(0 -0.0250043 0 -0.0250043 -0.158161 0 0 0 0)
(0 -0.0253646 0 -0.0253646 -0.157818 0 0 0 0)
(-8.7143e-16 -0.0257162 0 -0.0257162 -0.157434 0 0 0 0)
(0 -0.0260617 0 -0.0260617 -0.157052 0 0 0 0)
(0 -0.02639 0 -0.02639 -0.156632 0 0 0 0)
(0 -0.0267057 0 -0.0267057 -0.156174 0 0 0 0)
(0 -0.0270276 0 -0.0270276 -0.155755 0 0 0 0)
(0 -0.0273253 0 -0.0273253 -0.15526 0 0 0 0)
(0 -0.0276185 0 -0.0276185 -0.154766 0 0 0 0)
(-7.53836e-16 -0.0279078 0 -0.0279078 -0.154275 0 0 0 0)
(0 -0.0281699 0 -0.0281699 -0.153711 0 0 0 0)
(0 -0.0284249 0 -0.0284249 -0.153154 0 0 0 0)
(0 -0.0286659 0 -0.0286659 -0.152564 0 0 0 0)
(0 -0.0288938 0 -0.0288938 -0.151941 0 0 0 0)
(0 -0.0291178 0 -0.0291178 -0.151325 0 0 0 0)
(0 -0.0293099 0 -0.0293099 -0.15065 0 0 0 0)
(0 -0.0294714 0 -0.0294714 -0.149916 0 0 0 0)
(-5.84152e-16 -0.0296284 0 -0.0296284 -0.149196 0 0 0 0)
(0 -0.0297617 0 -0.0297617 -0.148416 0 0 0 0)
(0 -0.0298758 0 -0.0298758 -0.147619 0 0 0 0)
(0 -0.029966 0 -0.029966 -0.146772 0 0 0 0)
(0 -0.030038 0 -0.030038 -0.145916 0 0 0 0)
(0 -0.0300754 0 -0.0300754 -0.144985 0 0 0 0)
(0 -0.0300973 0 -0.0300973 -0.144056 0 0 0 0)
(0 -0.0300882 0 -0.0300882 -0.143064 0 0 0 0)
(0 -0.0300611 0 -0.0300611 -0.142051 0 0 0 0)
(0 -0.0300182 0 -0.0300182 -0.141026 0 0 0 0)
(0 -0.0299441 0 -0.0299441 -0.139934 0 0 0 0)
(0 -0.0298632 0 -0.0298632 -0.138853 0 0 0 0)
(0 -0.029767 0 -0.029767 -0.13773 0 0 0 0)
(0 -0.0296677 0 -0.0296677 -0.136609 0 0 0 0)
(0 -0.0295632 0 -0.0295632 -0.135469 0 0 0 0)
(0 -0.029452 0 -0.029452 -0.134322 0 0 0 0)
(0 -0.0293247 0 -0.0293247 -0.133149 0 0 0 0)
(0 -0.0291794 0 -0.0291794 -0.131955 0 0 0 0)
(0 -0.029017 0 -0.029017 -0.130737 0 0 0 0)
(0 -0.0288346 0 -0.0288346 -0.129505 0 0 0 0)
(0 -0.0286176 0 -0.0286176 -0.128225 0 0 0 0)
(0 -0.0283775 0 -0.0283775 -0.126917 0 0 0 0)
(0 -0.0281291 0 -0.0281291 -0.125611 0 0 0 0)
(0 -0.0278599 0 -0.0278599 -0.124265 0 0 0 0)
(0 -0.0275811 0 -0.0275811 -0.122917 0 0 0 0)
(0 -0.0272944 0 -0.0272944 -0.121548 0 0 0 0)
(0 -0.0270108 0 -0.0270108 -0.120186 0 0 0 0)
(0 -0.0267255 0 -0.0267255 -0.118815 0 0 0 0)
(0 -0.0264343 0 -0.0264343 -0.117435 0 0 0 0)
(0 -0.0261367 0 -0.0261367 -0.116045 0 0 0 0)
(0 -0.0258322 0 -0.0258322 -0.114649 0 0 0 0)
(0 -0.0255151 0 -0.0255151 -0.113236 0 0 0 0)
(0 -0.0251843 0 -0.0251843 -0.111808 0 0 0 0)
(0 -0.0248414 0 -0.0248414 -0.110367 0 0 0 0)
(0 -0.0244874 0 -0.0244874 -0.108913 0 0 0 0)
(0 -0.024125 0 -0.024125 -0.107449 0 0 0 0)
(0 -0.0237561 0 -0.0237561 -0.105976 0 0 0 0)
(0 -0.0233839 0 -0.0233839 -0.104498 0 0 0 0)
(0 -0.0230096 0 -0.0230096 -0.103015 0 0 0 0)
(0 -0.0226327 0 -0.0226327 -0.101528 0 0 0 0)
(0 -0.0222534 0 -0.0222534 -0.100035 0 0 0 0)
(0 -0.021871 0 -0.021871 -0.0985382 0 0 0 0)
(0 -0.0214842 0 -0.0214842 -0.0970342 0 0 0 0)
(0 -0.0210925 0 -0.0210925 -0.0955236 0 0 0 0)
(0 -0.0206962 0 -0.0206962 -0.0940065 0 0 0 0)
(0 -0.0202953 0 -0.0202953 -0.092483 0 0 0 0)
(0 -0.0198904 0 -0.0198904 -0.0909535 0 0 0 0)
(0 -0.019482 0 -0.019482 -0.0894188 0 0 0 0)
(0 -0.0190708 0 -0.0190708 -0.0878792 0 0 0 0)
(0 -0.0186568 0 -0.0186568 -0.086335 0 0 0 0)
(0 -0.0182405 0 -0.0182405 -0.0847864 0 0 0 0)
(0 -0.0178218 0 -0.0178218 -0.0832337 0 0 0 0)
(0 -0.017401 0 -0.017401 -0.0816768 0 0 0 0)
(0 -0.0169782 0 -0.0169782 -0.080116 0 0 0 0)
(0 -0.0165535 0 -0.0165535 -0.0785514 0 0 0 0)
(0 -0.0161273 0 -0.0161273 -0.0769833 0 0 0 0)
(0 -0.0156996 0 -0.0156996 -0.075412 0 0 0 0)
(0 -0.0152708 0 -0.0152708 -0.0738375 0 0 0 0)
(0 -0.0148409 0 -0.0148409 -0.07226 0 0 0 0)
(0 -0.0144102 0 -0.0144102 -0.0706798 0 0 0 0)
(0 -0.0139788 0 -0.0139788 -0.0690969 0 0 0 0)
(0 -0.0135468 0 -0.0135468 -0.0675115 0 0 0 0)
(0 -0.0131144 0 -0.0131144 -0.0659237 0 0 0 0)
(0 -0.0126817 0 -0.0126817 -0.0643336 0 0 0 0)
(0 -0.012249 0 -0.012249 -0.0627414 0 0 0 0)
(0 -0.0118163 0 -0.0118163 -0.0611472 0 0 0 0)
(0 -0.0113839 0 -0.0113839 -0.0595511 0 0 0 0)
(0 -0.0109517 0 -0.0109517 -0.0579533 0 0 0 0)
(0 -0.0105201 0 -0.0105201 -0.0563538 0 0 0 0)
(0 -0.010089 0 -0.010089 -0.0547529 0 0 0 0)
(0 -0.00965866 0 -0.00965866 -0.0531507 0 0 0 0)
(0 -0.00922916 0 -0.00922916 -0.0515476 0 0 0 0)
(0 -0.00880071 0 -0.00880071 -0.0499442 0 0 0 0)
(0 -0.0083735 0 -0.0083735 -0.0483409 0 0 0 0)
(0 -0.00794762 0 -0.00794762 -0.0467386 0 0 0 0)
(0 -0.00752294 0 -0.00752294 -0.0451378 0 0 0 0)
(0 -0.00709901 0 -0.00709901 -0.0435387 0 0 0 0)
(0 -0.00667516 0 -0.00667516 -0.0419409 0 0 0 0)
(0 -0.00625102 0 -0.00625102 -0.0403444 0 0 0 0)
(0 -0.00582729 0 -0.00582729 -0.03875 0 0 0 0)
(0 -0.00540587 0 -0.00540587 -0.0371609 0 0 0 0)
(0 -0.00498855 0 -0.00498855 -0.0355811 0 0 0 0)
(0 -0.00457444 0 -0.00457444 -0.0340098 0 0 0 0)
(0 -0.00415995 0 -0.00415995 -0.0324376 0 0 0 0)
(0 -0.0037446 0 -0.0037446 -0.0308567 0 0 0 0)
(0 -0.00333521 0 -0.00333521 -0.02928 0 0 0 0)
(0 -0.00293762 0 -0.00293762 -0.0277294 0 0 0 0)
(0 -0.00254411 0 -0.00254411 -0.0261928 0 0 0 0)
(0 -0.00213777 0 -0.00213777 -0.0246053 0 0 0 0)
(0 -0.00172138 0 -0.00172138 -0.0229082 0 0 0 0)
(0 -0.0013325 0 -0.0013325 -0.0212036 0 0 0 0)
(0 -0.000988703 0 -0.000988703 -0.0197164 0 0 0 0)
(0 -0.000656115 0 -0.000656115 -0.018049 0 0 0 0)
(0 -0.000372897 0 -0.000372897 -0.0160455 0 0 0 0)
(0 -0.000289644 0 -0.000289644 -0.0138765 0 0 0 0)
(0 -0.00153735 0 -0.00153735 -0.0108306 0 0 0 0)
(0 -0.000855431 0 -0.000855431 -0.00336833 0 0 0 0)
(0 -0.000937261 0 -0.000937261 -0.00270097 0 0 0 0)
(0 -0.000394149 0 -0.000394149 -0.00114645 0 0 0 0)
(0 4.67501e-05 0 4.67501e-05 -7.33774e-05 0 0 0 0)
(0 0.000206763 0 0.000206763 -0.000177866 0 0 0 0)
(0 0.000471026 0 0.000471026 -0.000199968 0 0 0 0)
(0 0.000660005 0 0.000660005 -0.000234759 0 0 0 0)
(0 0.000840663 0 0.000840663 -0.000178609 0 0 0 0)
(0 0.00102859 0 0.00102859 -0.000102045 0 0 0 0)
(0 0.00122776 0 0.00122776 -3.6229e-05 0 0 0 0)
(0 0.00143938 0 0.00143938 2.19294e-05 0 0 0 0)
(0 0.0016649 0 0.0016649 7.65128e-05 0 0 0 0)
(0 0.00190604 0 0.00190604 0.000129643 0 0 0 0)
(0 0.00216467 0 0.00216467 0.000182811 0 0 0 0)
(0 0.00244282 0 0.00244282 0.00023732 0 0 0 0)
(0 0.00274261 0 0.00274261 0.000294287 0 0 0 0)
(0 0.00306635 0 0.00306635 0.000354685 0 0 0 0)
(0 0.00341652 0 0.00341652 0.000419418 0 0 0 0)
(0 0.00379576 0 0.00379576 0.000489378 0 0 0 0)
(0 0.00420688 0 0.00420688 0.000565463 0 0 0 0)
(0 0.00465293 0 0.00465293 0.000648596 0 0 0 0)
(0 0.00513716 0 0.00513716 0.000739712 0 0 0 0)
(0 0.00566312 0 0.00566312 0.000839755 0 0 0 0)
(0 0.00623474 0 0.00623474 0.000949606 0 0 0 0)
(0 0.00685654 0 0.00685654 0.00106994 0 0 0 0)
(0 0.00753384 0 0.00753384 0.00120091 0 0 0 0)
(0 0.00827336 0 0.00827336 0.00134161 0 0 0 0)
(0 0.00908385 0 0.00908385 0.00148991 0 0 0 0)
(0 0.00997664 0 0.00997664 0.00164402 0 0 0 0)
(0 0.0109648 0 0.0109648 0.00180758 0 0 0 0)
(0 0.0120595 0 0.0120595 0.00199844 0 0 0 0)
(0 0.0132638 0 0.0132638 0.00225449 0 0 0 0)
(0 0.0145677 0 0.0145677 0.00262484 0 0 0 0)
(0 0.0159503 0 0.0159503 0.00314541 0 0 0 0)
(0 0.0173888 0 0.0173888 0.00382298 0 0 0 0)
(0 0.0188631 0 0.0188631 0.00464709 0 0 0 0)
(0 0.0203557 0 0.0203557 0.00560942 0 0 0 0)
(0 0.0218544 0 0.0218544 0.00670654 0 0 0 0)
(0 0.023362 0 0.023362 0.00792782 0 0 0 0)
(0 0.0249166 0 0.0249166 0.00923727 0 0 0 0)
(0 0.0266318 0 0.0266318 0.0105526 0 0 0 0)
(0 0.0287618 0 0.0287618 0.011727 0 0 0 0)
(0 0.0317933 0 0.0317933 0.0125458 0 0 0 0)
(0 0.0365492 0 0.0365492 0.012742 0 0 0 0)
(0 0.0442609 0 0.0442609 0.0120146 0 0 0 0)
(0 0.0565115 0 0.0565115 0.0100572 0 0 0 0)
(0 0.074742 0 0.074742 0.00665584 0 0 0 0)
(0 0.0991784 0 0.0991784 0.0019072 0 0 0 0)
(0 0.127789 0 0.127789 -0.00362261 0 0 0 0)
(0 0.156959 0 0.156959 -0.00910586 0 0 0 0)
(0 0.183769 0 0.183769 -0.0139551 0 0 0 0)
(0 0.207137 0 0.207137 -0.0180399 0 0 0 0)
(0 0.227132 0 0.227132 -0.0214836 0 0 0 0)
(0 0.243811 0 0.243811 -0.0243899 0 0 0 0)
(0 0.256781 0 0.256781 -0.0267514 0 0 0 0)
(0 0.26683 0 0.26683 -0.0286479 0 0 0 0)
(-4.19626e-15 0.275696 0 0.275696 -0.0302682 0 0 0 0)
(0 0.283163 0 0.283163 -0.0315823 0 0 0 0)
(0 0.286877 0 0.286877 -0.0323237 0 0 0 0)
(9.68753e-15 0.288513 0 0.288513 -0.0327866 0 0 0 0)
(0 0.291717 0 0.291717 -0.0335598 0 0 0 0)
(-1.04082e-14 0.293769 0 0.293769 -0.034341 0 0 0 0)
(0 0.29191 0 0.29191 -0.0346915 0 0 0 0)
(0 0.28987 0 0.28987 -0.0350889 0 0 0 0)
(0 0.288769 0 0.288769 -0.0357488 0 0 0 0)
(0 0.285742 0 0.285742 -0.0362428 0 0 0 0)
(0 0.281728 0 0.281728 -0.0366581 0 0 0 0)
(1.12785e-14 0.278092 0 0.278092 -0.0372304 0 0 0 0)
(0 0.272909 0 0.272909 -0.0376429 0 0 0 0)
(0 0.267155 0 0.267155 -0.0379988 0 0 0 0)
(0 0.262864 0 0.262864 -0.0386889 0 0 0 0)
(0 0.257049 0 0.257049 -0.0392036 0 0 0 0)
(0 0.249292 0 0.249292 -0.0393672 0 0 0 0)
(0 0.242725 0 0.242725 -0.0397857 0 0 0 0)
(0 0.236511 0 0.236511 -0.0403416 0 0 0 0)
(-1.03322e-14 0.229339 0 0.229339 -0.0407227 0 0 0 0)
(0 0.221795 0 0.221795 -0.0410506 0 0 0 0)
(-9.84996e-15 0.213685 0 0.213685 -0.0412628 0 0 0 0)
(0 0.20606 0 0.20606 -0.0415774 0 0 0 0)
(0 0.199211 0 0.199211 -0.0421297 0 0 0 0)
(0 0.191314 0 0.191314 -0.0424305 0 0 0 0)
(0 0.183268 0 0.183268 -0.0426703 0 0 0 0)
(8.41478e-15 0.175838 0 0.175838 -0.0431297 0 0 0 0)
(8.09454e-15 0.167809 0 0.167809 -0.0434288 0 0 0 0)
(0 0.159572 0 0.159572 -0.0436671 0 0 0 0)
(0 0.151381 0 0.151381 -0.043966 0 0 0 0)
(0 0.142675 0 0.142675 -0.0441236 0 0 0 0)
(0 0.133271 0 0.133271 -0.0440545 0 0 0 0)
(0 0.123518 0 0.123518 -0.0438816 0 0 0 0)
(0 0.113394 0 0.113394 -0.0436167 0 0 0 0)
(0 0.102315 0 0.102315 -0.0429515 0 0 0 0)
(0 0.0904396 0 0.0904396 -0.0419466 0 0 0 0)
(0 0.0778007 0 0.0778007 -0.0404908 0 0 0 0)
(0 0.0647137 0 0.0647137 -0.0387556 0 0 0 0)
(0 0.0542705 0 0.0542705 -0.0345007 0 0 0 0)
(0 0 0 0 -0 0 0 0 0)
(0 0 0 0 -0 0 0 0 0)
(-0 0 0 0 0 0 0 0 0)
(0 0 0 0 -0 0 0 0 0)
(0 0 0 0 -0 0 0 0 0)
(0 0 0 0 -0 0 0 0 0)
(-0 0 0 0 -0 0 0 0 0)
(0 0 0 0 -0 0 0 0 0)
(0 0 0 0 -0 0 0 0 0)
(-0 0 0 0 -0 0 0 0 0)
(0 0 0 0 -0 0 0 0 0)
(0 0 0 0 -0 0 0 0 0)
(0 0 0 0 -0 0 0 0 0)
(0 0 0 0 -0 0 0 0 0)
(0 0 0 0 -0 0 0 0 0)
(0 0 0 0 -0 0 0 0 0)
(0 0 0 0 -0 0 0 0 0)
(0 0 0 0 -0 0 0 0 0)
(0 0 0 0 -0 0 0 0 0)
(0 0 0 0 -0 0 0 0 0)
(0 0 0 0 -0 0 0 0 0)
(0 0 0 0 -0 0 0 0 0)
(0 0 0 0 -0 0 0 0 0)
(0 0 0 0 0 0 0 0 0)
(0 0 0 0 -0 0 0 0 0)
(0 0 0 0 0 0 0 0 0)
(0 0 0 0 -0 0 0 0 0)
(0 0 0 0 -0 0 0 0 0)
(0 0 0 0 0 0 0 0 0)
(0 0 0 0 -0 0 0 0 0)
(0 0 0 0 0 0 0 0 0)
(0 0 0 0 -0 0 0 0 0)
(0 0 0 0 0 0 0 0 0)
(0 0 0 0 -0 0 0 0 0)
(0 0 0 0 0 0 0 0 0)
(0 0 0 0 -0 0 0 0 0)
(0 0 0 0 0 0 0 0 0)
(0 0 0 0 -0 0 0 0 0)
(0 0 0 0 0 0 0 0 0)
(0 0 0 0 -0 0 0 0 0)
(0 0 0 0 -0 0 0 0 0)
(0 0 0 0 0 0 0 0 0)
(0 0 0 0 -0 0 0 0 0)
(0 0 0 0 0 0 0 0 0)
(0 0 0 0 -0 0 0 0 0)
(0 0 0 0 0 0 0 0 0)
(0 0 0 0 -0 0 0 0 0)
(0 0 0 0 0 0 0 0 0)
(0 0 0 0 -0 0 0 0 0)
(0 -0 0 -0 0 0 0 0 0)
(0 0 0 0 -0 0 0 0 0)
(0 -0 0 -0 0 0 0 0 0)
(0 0 0 0 -0 0 0 0 0)
(0 -0 0 -0 0 0 0 0 0)
(0 0 0 0 -0 0 0 0 0)
(0 -0 0 -0 0 0 0 0 0)
(0 0 0 0 -0 0 0 0 0)
(0 -0 0 -0 0 0 0 0 0)
(-0 0 0 0 -0 0 0 0 0)
(0 -0 0 -0 0 0 0 0 0)
(0 0 0 0 -0 0 0 0 0)
(0 -0 0 -0 0 0 0 0 0)
(0 0 0 0 -0 0 0 0 0)
(0 -0 0 -0 0 0 0 0 0)
(0 0 0 0 -0 0 0 0 0)
(0 -0 0 -0 0 0 0 0 0)
(0 0 0 0 -0 0 0 0 0)
(0 -0 0 -0 0 0 0 0 0)
(0 0 0 0 -0 0 0 0 0)
(0 -0 0 -0 0 0 0 0 0)
(0 0 0 0 -0 0 0 0 0)
(0 -0 0 -0 0 0 0 0 0)
(0 0 0 0 -0 0 0 0 0)
(0 -0 0 -0 0 0 0 0 0)
(0 0 0 0 -0 0 0 0 0)
(0 -0 0 -0 0 0 0 0 0)
(0 0 0 0 -0 0 0 0 0)
(0 -0 0 -0 0 0 0 0 0)
(0 0 0 0 -0 0 0 0 0)
(0 -0 0 -0 0 0 0 0 0)
(0 0 0 0 -0 0 0 0 0)
(0 -0 0 -0 0 0 0 0 0)
(0 0 0 0 -0 0 0 0 0)
(0 -0 0 -0 0 0 0 0 0)
(0 0 0 0 -0 0 0 0 0)
(0 -0 0 -0 0 0 0 0 0)
(0 0 0 0 -0 0 0 0 0)
(0 -0 0 -0 0 0 0 0 0)
(0 0 0 0 -0 0 0 0 0)
(0 -0 0 -0 0 0 0 0 0)
(0 0 0 0 -0 0 0 0 0)
(0 -0 0 -0 0 0 0 0 0)
(0 0 0 0 -0 0 0 0 0)
(0 -0 0 -0 0 0 0 0 0)
(0 0 0 0 -0 0 0 0 0)
(0 -0 0 -0 0 0 0 0 0)
(0 0 0 0 -0 0 0 0 0)
(0 -0 0 -0 0 0 0 0 0)
(0 0 0 0 -0 0 0 0 0)
(0 -0 0 -0 0 0 0 0 0)
(0 0 0 0 -0 0 0 0 0)
(0 -0 0 -0 0 0 0 0 0)
(0 0 0 0 -0 0 0 0 0)
(0 -0 0 -0 0 0 0 0 0)
(0 0 0 0 -0 0 0 0 0)
(0 -0 0 -0 0 0 0 0 0)
(0 0 0 0 -0 0 0 0 0)
(0 -0 0 -0 0 0 0 0 0)
(0 0 0 0 -0 0 0 0 0)
(0 -0 0 -0 0 0 0 0 0)
(0 0 0 0 -0 0 0 0 0)
(0 -0 0 -0 0 0 0 0 0)
(0 0 0 0 0 0 0 0 0)
(0 0 0 0 0 0 0 0 0)
(0 0 0 0 0 0 0 0 0)
(0 0 0 0 0 0 0 0 0)
(0 0 0 0 0 0 0 0 0)
(0 0 0 0 0 0 0 0 0)
(0 0 0 0 0 0 0 0 0)
)
;

boundaryField
{
    inandouthalf11
    {
        type            cyclic;
    }
    inandouthalf12
    {
        type            cyclic;
    }
    inandouthalf21
    {
        type            cyclic;
    }
    inandouthalf22
    {
        type            cyclic;
    }
    inandouthalf31
    {
        type            cyclic;
    }
    inandouthalf32
    {
        type            cyclic;
    }
    inandouthalf41
    {
        type            cyclic;
    }
    inandouthalf42
    {
        type            cyclic;
    }
    top
    {
        type            symmetryPlane;
    }
    walls
    {
        type            zeroGradient;
    }
    frontAndBackPlanes
    {
        type            empty;
    }
}


// ************************************************************************* //
