/*--------------------------------*- C++ -*----------------------------------*\
| =========                 |                                                 |
| \\      /  F ield         | OpenFOAM: The Open Source CFD Toolbox           |
|  \\    /   O peration     | Version:  2.4.x                                 |
|   \\  /    A nd           | Web:      www.OpenFOAM.org                      |
|    \\/     M anipulation  |                                                 |
\*---------------------------------------------------------------------------*/
FoamFile
{
    version     2.0;
    format      ascii;
    class       volScalarField;
    location    "2.8";
    object      Theta_0;
}
// * * * * * * * * * * * * * * * * * * * * * * * * * * * * * * * * * * * * * //

dimensions      [0 2 -2 0 0 0 0];

internalField   nonuniform List<scalar> 
360
(
6.72354e-21
7.22717e-21
7.71657e-21
7.55041e-21
7.22496e-21
7.02047e-21
6.91764e-21
6.85265e-21
6.78916e-21
6.72838e-21
6.68747e-21
6.6692e-21
6.66342e-21
6.66193e-21
6.66156e-21
6.66146e-21
6.66143e-21
6.66143e-21
6.66143e-21
6.66145e-21
6.66147e-21
6.66149e-21
6.6615e-21
6.66151e-21
6.66152e-21
6.66152e-21
6.66152e-21
6.66152e-21
6.66152e-21
6.66152e-21
6.66152e-21
6.66152e-21
6.66153e-21
6.66153e-21
6.66154e-21
6.66154e-21
6.66155e-21
6.66156e-21
6.66157e-21
6.66157e-21
6.66158e-21
6.66159e-21
6.6616e-21
6.66161e-21
6.66162e-21
6.66163e-21
6.66165e-21
6.66167e-21
6.66169e-21
6.66171e-21
6.66173e-21
6.66176e-21
6.6618e-21
6.66184e-21
6.66188e-21
6.66193e-21
6.66199e-21
6.66205e-21
6.66212e-21
6.6622e-21
6.66228e-21
6.66235e-21
6.66243e-21
6.6625e-21
6.66256e-21
6.66263e-21
6.6627e-21
6.66278e-21
6.66289e-21
6.66302e-21
6.66319e-21
6.6634e-21
6.66364e-21
6.6639e-21
6.66417e-21
6.66443e-21
6.66466e-21
6.66485e-21
6.665e-21
6.66512e-21
6.66523e-21
6.66535e-21
6.66549e-21
6.66566e-21
6.66585e-21
6.66607e-21
6.66631e-21
6.66655e-21
6.66678e-21
6.66698e-21
6.66716e-21
6.66732e-21
6.66746e-21
6.66759e-21
6.6677e-21
6.66781e-21
6.66792e-21
6.66802e-21
6.66811e-21
6.66813e-21
0
0
0
0
0
0
0
0
0
0
0
0
0
0
0
6.6685e-21
6.6684e-21
6.66827e-21
6.66814e-21
6.66799e-21
6.66785e-21
6.66772e-21
6.66761e-21
6.66754e-21
6.66752e-21
6.66758e-21
6.66775e-21
6.66807e-21
6.66856e-21
6.66931e-21
1.45176e-20
1.02232e-19
7.78011e-19
5.57981e-18
3.72418e-17
2.29909e-16
1.30419e-15
6.75553e-15
3.18198e-14
1.36087e-13
5.27857e-13
1.86508e-12
6.37615e-12
2.46708e-11
1.32057e-10
1.1059e-09
1.51219e-08
3.27984e-07
7.09911e-06
0.00014773
0.00070516
0.00134023
0.00187014
0.0023154
0.00270438
0.00305226
0.00336699
0.00365336
0.00391447
0.00415258
0.00436934
0.00456598
0.00474355
0.00490291
0.00504482
0.00516991
0.00527881
0.00537205
0.00545023
0.00551387
0.00556359
0.00559996
0.00562363
0.00563529
0.00563567
0.0056255
0.00560553
0.00557654
0.00553933
0.00549471
0.00544357
0.0053869
0.00532579
0.00526141
0.00519501
0.00512787
0.00506125
0.00499633
0.00493407
0.00487509
0.00481952
0.00476704
0.00471702
0.00466873
0.00462157
0.00457512
0.00452912
0.00448341
0.00443793
0.00439263
0.00434749
0.00430204
0.00425581
0.00420877
0.00416086
0.004112
0.00406209
0.00401101
0.00395866
0.00390495
0.00384977
0.00379303
0.00373462
0.00367444
0.00361239
0.00354835
0.00348222
0.00341387
0.00334318
0.00327001
0.00319423
0.00311568
0.00303419
0.00294958
0.00286166
0.0027702
0.00267496
0.00257564
0.00247195
0.00236348
0.00224983
0.00213045
0.00200473
0.00187189
0.00173093
0.00158056
0.00141901
0.00124372
0.00105069
0.0008329
0.000575031
0
0
0
0
0
0
0
0
0
0
0
0
0
0
0
0
0
0
0
0
0
0
0
0
0
0
0
0
0
0
0
0
0
0
0
0
0
0
0
0
0
0
0
0
0
0
0
0
0
0
0
0
0
0
0
0
0
0
0
0
0
0
0
0
0
0
0
0
0
0
0
0
0
0
0
0
0
0
0
0
0
0
0
0
0
0
0
0
0
0
0
0
0
0
0
0
0
0
0
0
0
0
0
0
0
0
0
0
0
0
0
0
0
0
0
0
0
0
0
)
;

boundaryField
{
    inandouthalf11
    {
        type            cyclic;
    }
    inandouthalf12
    {
        type            cyclic;
    }
    inandouthalf21
    {
        type            cyclic;
    }
    inandouthalf22
    {
        type            cyclic;
    }
    inandouthalf31
    {
        type            cyclic;
    }
    inandouthalf32
    {
        type            cyclic;
    }
    inandouthalf41
    {
        type            cyclic;
    }
    inandouthalf42
    {
        type            cyclic;
    }
    top
    {
        type            symmetryPlane;
    }
    walls
    {
        type            zeroGradient;
    }
    frontAndBackPlanes
    {
        type            empty;
    }
}


// ************************************************************************* //
