/*--------------------------------*- C++ -*----------------------------------*\
| =========                 |                                                 |
| \\      /  F ield         | OpenFOAM: The Open Source CFD Toolbox           |
|  \\    /   O peration     | Version:  2.4.x                                 |
|   \\  /    A nd           | Web:      www.OpenFOAM.org                      |
|    \\/     M anipulation  |                                                 |
\*---------------------------------------------------------------------------*/
FoamFile
{
    version     2.0;
    format      ascii;
    class       volVectorField;
    location    "2.8";
    object      Ur;
}
// * * * * * * * * * * * * * * * * * * * * * * * * * * * * * * * * * * * * * //

dimensions      [0 1 -1 0 0 0 0];

internalField   nonuniform List<vector> 
360
(
(-0.000279432 2.06035e-07 0)
(-0.000279556 1.91415e-06 0)
(-0.000279333 5.09633e-06 0)
(-0.000279287 8.45039e-06 0)
(-0.000279298 1.13038e-05 0)
(-0.000279358 1.35815e-05 0)
(-0.000279479 1.54683e-05 0)
(-0.000279628 1.71049e-05 0)
(-0.000279762 1.85014e-05 0)
(-0.000279867 1.95883e-05 0)
(-0.000279938 2.03238e-05 0)
(-0.000279977 2.07538e-05 0)
(-0.00028 2.09803e-05 0)
(-0.000280012 2.10966e-05 0)
(-0.000280019 2.11606e-05 0)
(-0.000280023 2.12015e-05 0)
(-0.000280026 2.12328e-05 0)
(-0.000280028 2.12611e-05 0)
(-0.000280029 2.12898e-05 0)
(-0.000280033 2.1321e-05 0)
(-0.000280034 2.13554e-05 0)
(-0.000280038 2.13932e-05 0)
(-0.000280042 2.14336e-05 0)
(-0.000280046 2.14758e-05 0)
(-0.000280051 2.15189e-05 0)
(-0.000280055 2.15624e-05 0)
(-0.00028006 2.16056e-05 0)
(-0.000280066 2.16487e-05 0)
(-0.000280073 2.16918e-05 0)
(-0.000280079 2.17348e-05 0)
(-0.000280086 2.17781e-05 0)
(-0.000280094 2.18219e-05 0)
(-0.000280101 2.1866e-05 0)
(-0.000280112 2.19108e-05 0)
(-0.00028012 2.19563e-05 0)
(-0.000280131 2.20025e-05 0)
(-0.000280141 2.20493e-05 0)
(-0.000280154 2.20969e-05 0)
(-0.000280169 2.21454e-05 0)
(-0.000280182 2.21947e-05 0)
(-0.000280199 2.22448e-05 0)
(-0.000280216 2.22959e-05 0)
(-0.000280233 2.23479e-05 0)
(-0.000280254 2.2401e-05 0)
(-0.000280275 2.24551e-05 0)
(-0.000280298 2.25106e-05 0)
(-0.000280323 2.25675e-05 0)
(-0.000280348 2.26257e-05 0)
(-0.000280377 2.26857e-05 0)
(-0.00028041 2.27477e-05 0)
(-0.000280442 2.28117e-05 0)
(-0.000280478 2.28782e-05 0)
(-0.000280516 2.29472e-05 0)
(-0.000280557 2.30192e-05 0)
(-0.0002806 2.30941e-05 0)
(-0.000280647 2.31726e-05 0)
(-0.000280696 2.32546e-05 0)
(-0.000280749 2.33408e-05 0)
(-0.000280804 2.34312e-05 0)
(-0.000280861 2.35258e-05 0)
(-0.000280923 2.36249e-05 0)
(-0.000280984 2.37282e-05 0)
(-0.00028105 2.38356e-05 0)
(-0.000281116 2.39465e-05 0)
(-0.000281183 2.40607e-05 0)
(-0.000281252 2.41779e-05 0)
(-0.000281324 2.42982e-05 0)
(-0.000281398 2.44219e-05 0)
(-0.000281474 2.45497e-05 0)
(-0.000281554 2.46825e-05 0)
(-0.000281638 2.48215e-05 0)
(-0.000281726 2.49678e-05 0)
(-0.000281815 2.51223e-05 0)
(-0.000281908 2.52856e-05 0)
(-0.000282003 2.54576e-05 0)
(-0.000282101 2.56381e-05 0)
(-0.000282199 2.58259e-05 0)
(-0.000282299 2.60197e-05 0)
(-0.000282402 2.62183e-05 0)
(-0.000282507 2.64206e-05 0)
(-0.000282614 2.6626e-05 0)
(-0.000282724 2.68344e-05 0)
(-0.000282837 2.7046e-05 0)
(-0.000282954 2.72615e-05 0)
(-0.000283073 2.74816e-05 0)
(-0.000283196 2.77069e-05 0)
(-0.000283321 2.79377e-05 0)
(-0.000283449 2.81742e-05 0)
(-0.000283579 2.84161e-05 0)
(-0.000283712 2.86628e-05 0)
(-0.000283848 2.89139e-05 0)
(-0.000283986 2.91686e-05 0)
(-0.000284128 2.94265e-05 0)
(-0.000284273 2.96871e-05 0)
(-0.000284421 2.99502e-05 0)
(-0.000284573 3.02156e-05 0)
(-0.000284728 3.04832e-05 0)
(-0.000284887 3.07529e-05 0)
(-0.00028505 3.10245e-05 0)
(-0.000285217 3.1298e-05 0)
(-0.000285387 3.15732e-05 0)
(-0.000285562 3.18499e-05 0)
(-0.000285741 3.21281e-05 0)
(-0.000285924 3.24077e-05 0)
(-0.000286112 3.26884e-05 0)
(-0.000286305 3.29702e-05 0)
(-0.000286502 3.32529e-05 0)
(-0.000286705 3.35364e-05 0)
(-0.000286913 3.38204e-05 0)
(-0.000287126 3.41047e-05 0)
(-0.000287345 3.43891e-05 0)
(-0.000287571 3.46733e-05 0)
(-0.000287802 3.49569e-05 0)
(-0.000288041 3.52396e-05 0)
(-0.000288286 3.55211e-05 0)
(-0.000288539 3.58008e-05 0)
(-0.000288799 3.60785e-05 0)
(-0.000289067 3.63537e-05 0)
(-0.000289345 3.6626e-05 0)
(-0.000289631 3.68952e-05 0)
(-0.000289927 3.71613e-05 0)
(-0.000290233 3.74243e-05 0)
(-0.00029055 3.76844e-05 0)
(-0.000290878 3.79423e-05 0)
(-0.000291218 3.81989e-05 0)
(-0.000291571 3.84556e-05 0)
(-0.000291938 3.87144e-05 0)
(-0.00029232 3.8978e-05 0)
(-0.000292718 3.92495e-05 0)
(-0.000293134 3.95325e-05 0)
(-0.000293567 3.98304e-05 0)
(-0.000294017 4.01464e-05 0)
(-0.000294487 4.04829e-05 0)
(-0.000294982 4.08417e-05 0)
(-0.000295505 4.1223e-05 0)
(-0.000296056 4.16231e-05 0)
(-0.000296627 4.2032e-05 0)
(-0.000297228 4.24352e-05 0)
(-0.000297887 4.28188e-05 0)
(-0.00029864 4.31681e-05 0)
(-0.000299453 4.34564e-05 0)
(-0.000300217 4.3641e-05 0)
(-0.000301143 4.37228e-05 0)
(-0.000302371 4.37274e-05 0)
(-0.000303888 4.36646e-05 0)
(-0.000306222 4.31119e-05 0)
(-0.000317991 4.79991e-05 0)
(-0.000319812 9.17156e-05 0)
(-0.000334266 4.52995e-05 0)
(-0.00230006 0.000481933 0)
(-0.00165005 0.0101553 0)
(-0.00333004 0.0127427 0)
(-0.00453242 0.0157742 0)
(-0.00529846 0.0174402 0)
(-0.00581296 0.0181826 0)
(-0.00618611 0.018417 0)
(-0.00647295 0.0183567 0)
(-0.00670227 0.0181091 0)
(-0.00688997 0.0177359 0)
(-0.00704503 0.0172754 0)
(-0.00717226 0.0167522 0)
(-0.00727384 0.0161819 0)
(-0.00734992 0.0155757 0)
(-0.00739902 0.014941 0)
(-0.0074181 0.0142834 0)
(-0.00740262 0.0136072 0)
(-0.0073465 0.0129154 0)
(-0.00724204 0.0122109 0)
(-0.00707989 0.0114959 0)
(-0.00684902 0.0107728 0)
(-0.00653671 0.010044 0)
(-0.00612876 0.00931218 0)
(-0.00560965 0.00858102 0)
(-0.00496293 0.00785542 0)
(-0.00417176 0.00714162 0)
(-0.00321957 0.00644581 0)
(-0.00209084 0.00577037 0)
(-0.000771804 0.00510879 0)
(0.000749156 0.00444357 0)
(0.00248181 0.00375148 0)
(0.00443545 0.00301375 0)
(0.00662085 0.00222166 0)
(0.00905117 0.00137448 0)
(0.0117415 0.000475967 0)
(0.0147081 -0.000466377 0)
(0.017967 -0.00143949 0)
(0.0215326 -0.00242103 0)
(0.0254143 -0.00337507 0)
(0.029613 -0.00425064 0)
(0.0341146 -0.00498908 0)
(0.0388857 -0.00554364 0)
(0.0438724 -0.00590144 0)
(0.0490068 -0.00608857 0)
(0.0542173 -0.00615235 0)
(0.0594399 -0.0061388 0)
(0.064623 -0.00608157 0)
(0.0697263 -0.00600154 0)
(0.0747142 -0.0059104 0)
(0.0795483 -0.0058143 0)
(0.0841823 -0.00571651 0)
(0.0885563 -0.00561904 0)
(0.0926269 -0.00552232 0)
(0.096262 -0.00542627 0)
(0.0991052 -0.00533138 0)
(0.0995298 -0.00523835 0)
(0.0983792 -0.00514781 0)
(0.0970839 -0.00505919 0)
(0.0958026 -0.00497139 0)
(0.0945444 -0.00488452 0)
(0.0933126 -0.00479876 0)
(0.0920976 -0.00471319 0)
(0.0908961 -0.00462728 0)
(0.0897115 -0.00454121 0)
(0.0885387 -0.00445442 0)
(0.0873753 -0.00436644 0)
(0.0862263 -0.0042776 0)
(0.0850835 -0.0041871 0)
(0.0839415 -0.00409404 0)
(0.0828114 -0.00399929 0)
(0.0816922 -0.00390275 0)
(0.0805739 -0.00380304 0)
(0.0794598 -0.00370025 0)
(0.0783515 -0.00359435 0)
(0.0772499 -0.00348508 0)
(0.0761577 -0.00337254 0)
(0.0750661 -0.0032554 0)
(0.0739754 -0.00313301 0)
(0.0728946 -0.0030064 0)
(0.0718158 -0.00287395 0)
(0.0707398 -0.002735 0)
(0.0696719 -0.00258986 0)
(0.0686093 -0.00243726 0)
(0.0675536 -0.00227642 0)
(0.06651 -0.0021072 0)
(0.0654833 -0.00192914 0)
(0.0644741 -0.00174077 0)
(0.0634877 -0.00154081 0)
(0.0625351 -0.00132948 0)
(0.0616196 -0.00110344 0)
(0.0607512 -0.000861218 0)
(0.0599187 -0.000590034 0)
(0.0589971 -0.00030049 0)
(-0.00527586 0.0394691 0)
(-0.00527589 0.039469 0)
(-0.00527575 0.039469 0)
(-0.00527565 0.039469 0)
(-0.00527557 0.039469 0)
(-0.0052755 0.039469 0)
(-0.00527544 0.039469 0)
(-0.00527539 0.039469 0)
(-0.00527535 0.039469 0)
(-0.00527532 0.039469 0)
(-0.0052753 0.039469 0)
(-0.00527528 0.039469 0)
(-0.00527526 0.039469 0)
(-0.00527525 0.039469 0)
(-0.00527524 0.039469 0)
(-0.00527523 0.039469 0)
(-0.00527522 0.039469 0)
(-0.00527522 0.039469 0)
(-0.00527521 0.039469 0)
(-0.00527521 0.039469 0)
(-0.00527521 0.039469 0)
(-0.00527521 0.039469 0)
(-0.0052752 0.039469 0)
(-0.0052752 0.039469 0)
(-0.0052752 0.039469 0)
(-0.0052752 0.039469 0)
(-0.0052752 0.039469 0)
(-0.0052752 0.039469 0)
(-0.0052752 0.039469 0)
(-0.0052752 0.039469 0)
(-0.0052752 0.039469 0)
(-0.0052752 0.039469 0)
(-0.0052752 0.039469 0)
(-0.0052752 0.039469 0)
(-0.0052752 0.039469 0)
(-0.0052752 0.039469 0)
(-0.0052752 0.039469 0)
(-0.0052752 0.039469 0)
(-0.0052752 0.039469 0)
(-0.0052752 0.039469 0)
(-0.0052752 0.039469 0)
(-0.0052752 0.039469 0)
(-0.0052752 0.0394691 0)
(-0.0052752 0.039469 0)
(-0.0052752 0.0394691 0)
(-0.0052752 0.039469 0)
(-0.0052752 0.0394691 0)
(-0.0052752 0.039469 0)
(-0.0052752 0.0394691 0)
(-0.0052752 0.039469 0)
(-0.0052752 0.0394691 0)
(-0.0052752 0.039469 0)
(-0.0052752 0.0394691 0)
(-0.0052752 0.039469 0)
(-0.0052752 0.0394691 0)
(-0.0052752 0.0394689 0)
(-0.0052752 0.0394691 0)
(-0.0052752 0.0394689 0)
(-0.0052752 0.0394691 0)
(-0.0052752 0.0394689 0)
(-0.0052752 0.0394691 0)
(-0.0052752 0.0394689 0)
(-0.0052752 0.0394691 0)
(-0.0052752 0.0394689 0)
(-0.0052752 0.0394691 0)
(-0.0052752 0.0394689 0)
(-0.0052752 0.0394691 0)
(-0.0052752 0.0394689 0)
(-0.0052752 0.0394691 0)
(-0.0052752 0.0394689 0)
(-0.0052752 0.0394691 0)
(-0.0052752 0.0394689 0)
(-0.0052752 0.0394691 0)
(-0.0052752 0.0394689 0)
(-0.0052752 0.0394691 0)
(-0.0052752 0.0394689 0)
(-0.0052752 0.0394691 0)
(-0.0052752 0.0394689 0)
(-0.0052752 0.0394691 0)
(-0.0052752 0.0394689 0)
(-0.0052752 0.0394691 0)
(-0.0052752 0.0394689 0)
(-0.0052752 0.0394691 0)
(-0.0052752 0.0394689 0)
(-0.0052752 0.0394691 0)
(-0.0052752 0.039469 0)
(-0.0052752 0.0394691 0)
(-0.0052752 0.039469 0)
(-0.0052752 0.0394691 0)
(-0.0052752 0.039469 0)
(-0.0052752 0.0394691 0)
(-0.0052752 0.039469 0)
(-0.0052752 0.0394691 0)
(-0.0052752 0.039469 0)
(-0.0052752 0.0394691 0)
(-0.0052752 0.039469 0)
(-0.0052752 0.0394691 0)
(-0.0052752 0.039469 0)
(-0.0052752 0.0394691 0)
(-0.0052752 0.039469 0)
(-0.0052752 0.0394691 0)
(-0.0052752 0.039469 0)
(-0.0052752 0.0394691 0)
(-0.0052752 0.039469 0)
(-0.0052752 0.0394691 0)
(-0.0052752 0.039469 0)
(-0.0052752 0.0394691 0)
(-0.0052752 0.039469 0)
(-0.0052752 0.0394691 0)
(-0.0052752 0.039469 0)
(-0.0052752 0.0394691 0)
(-0.0052752 0.039469 0)
(-0.0052752 0.0394691 0)
(-0.0052752 0.039469 0)
(-0.00527525 0.0394688 0)
(-0.00527671 0.0394602 0)
(-0.0053123 0.0391139 0)
(-0.00613584 0.0223424 0)
)
;

boundaryField
{
    inandouthalf11
    {
        type            cyclic;
    }
    inandouthalf12
    {
        type            cyclic;
    }
    inandouthalf21
    {
        type            cyclic;
    }
    inandouthalf22
    {
        type            cyclic;
    }
    inandouthalf31
    {
        type            cyclic;
    }
    inandouthalf32
    {
        type            cyclic;
    }
    inandouthalf41
    {
        type            cyclic;
    }
    inandouthalf42
    {
        type            cyclic;
    }
    top
    {
        type            symmetryPlane;
    }
    walls
    {
        type            calculated;
        value           uniform (0 0 0);
    }
    frontAndBackPlanes
    {
        type            empty;
    }
}


// ************************************************************************* //
