/*--------------------------------*- C++ -*----------------------------------*\
| =========                 |                                                 |
| \\      /  F ield         | OpenFOAM: The Open Source CFD Toolbox           |
|  \\    /   O peration     | Version:  2.4.x                                 |
|   \\  /    A nd           | Web:      www.OpenFOAM.org                      |
|    \\/     M anipulation  |                                                 |
\*---------------------------------------------------------------------------*/
FoamFile
{
    version     2.0;
    format      ascii;
    class       volScalarField;
    location    "11.95";
    object      alpha_0;
}
// * * * * * * * * * * * * * * * * * * * * * * * * * * * * * * * * * * * * * //

dimensions      [0 0 0 0 0 0 0];

internalField   nonuniform List<scalar> 
360
(
0.610895
0.611763
0.611853
0.611763
0.611721
0.611707
0.61169
0.611668
0.611646
0.611623
0.6116
0.611577
0.611554
0.611531
0.611507
0.611483
0.611459
0.611435
0.61141
0.611385
0.61136
0.611335
0.611309
0.611283
0.611257
0.611231
0.611204
0.611177
0.61115
0.611122
0.611095
0.611066
0.611038
0.611009
0.61098
0.610951
0.610921
0.610891
0.610861
0.610831
0.610799
0.610768
0.610737
0.610705
0.610672
0.610639
0.610606
0.610573
0.610539
0.610504
0.61047
0.610435
0.610399
0.610363
0.610327
0.61029
0.610253
0.610215
0.610176
0.610138
0.610098
0.610059
0.610018
0.609977
0.609936
0.609894
0.609852
0.609808
0.609765
0.609721
0.609676
0.60963
0.609584
0.609537
0.609489
0.609441
0.609392
0.609342
0.609292
0.60924
0.609188
0.609135
0.609081
0.609027
0.608971
0.608915
0.608857
0.608799
0.608739
0.608678
0.608617
0.608554
0.60849
0.608425
0.608358
0.60829
0.608221
0.608151
0.608079
0.608006
0.607931
0.607854
0.607776
0.607696
0.607614
0.607531
0.607445
0.607358
0.607268
0.607176
0.607082
0.606986
0.606887
0.606785
0.606681
0.606574
0.606464
0.60635
0.606234
0.606114
0.60599
0.605863
0.605731
0.605596
0.605455
0.60531
0.60516
0.605004
0.604842
0.604674
0.604499
0.604317
0.604127
0.603926
0.603712
0.603485
0.603244
0.602987
0.602702
0.602378
0.602028
0.601616
0.598783
0.599204
0.598689
0.597838
0.594212
0.4241
0.283601
0.228033
0.192592
0.162881
0.137076
0.114451
0.0947546
0.0778432
0.0635416
0.0516145
0.0417816
0.0337452
0.027217
0.0219347
0.0176701
0.0142309
0.0114584
0.00922297
0.00742009
0.00596543
0.0047913
0.00384293
0.00307553
0.00245244
0.00194531
0.00153487
0.00120897
0.000957349
0.000767702
0.000626252
0.000520316
0.000439881
0.000377685
0.000328648
0.000289252
0.000257045
0.000230292
0.000207752
0.000188517
0.000171917
0.000157444
0.000144713
0.000133422
0.000123337
0.00011427
0.000106072
9.86205e-05
9.18159e-05
8.55758e-05
7.98317e-05
7.45263e-05
6.96113e-05
6.50458e-05
6.07519e-05
5.66701e-05
5.2788e-05
4.90953e-05
4.55834e-05
4.22451e-05
3.90749e-05
3.60682e-05
3.32212e-05
3.05308e-05
2.79939e-05
2.56073e-05
2.33676e-05
2.12708e-05
1.93124e-05
1.74872e-05
1.57901e-05
1.42155e-05
1.27576e-05
1.14112e-05
1.0171e-05
9.03195e-06
7.98936e-06
7.03852e-06
6.1746e-06
5.39199e-06
4.68329e-06
4.03796e-06
3.44193e-06
2.87946e-06
2.34302e-06
1.85417e-06
1.46919e-06
1.2218e-06
1.05528e-06
8.97052e-07
7.51252e-07
6.10154e-07
4.92142e-07
3.93822e-07
3.12261e-07
2.44955e-07
1.89757e-07
1.4482e-07
1.08539e-07
7.95643e-08
5.67437e-08
3.86029e-08
2.55621e-08
1.41965e-08
8.34157e-09
1.29452e-09
1.846e-20
1.44283e-31
1.22805e-42
1.31081e-53
1.75109e-64
4.5263e-73
2.35809e-73
1.2058e-73
5.94342e-74
2.94768e-74
1.43908e-74
6.91239e-75
3.26514e-75
1.51597e-75
6.91461e-76
3.09665e-76
1.36087e-76
5.86516e-77
2.47747e-77
1.02497e-77
4.15029e-78
1.64357e-78
6.36048e-79
2.40336e-79
8.85895e-80
3.18249e-80
1.11293e-80
3.78451e-81
1.25013e-81
4.00655e-82
1.24415e-82
3.73796e-83
1.08486e-83
3.0364e-84
8.18058e-85
2.11726e-85
5.25248e-86
1.24594e-86
2.81836e-87
6.06115e-88
1.23511e-88
2.37569e-89
4.29465e-90
7.26039e-91
1.14125e-91
1.65672e-92
2.2033e-93
2.65843e-94
2.87532e-95
2.74573e-96
2.26944e-97
1.58026e-98
8.91558e-100
3.83334e-101
1.12458e-102
1.72982e-104
1.60309e-107
8.87414e-115
5.01671e-117
1.40187e-119
6.08412e-130
1.35378e-140
2.29316e-151
2.8274e-162
3.07516e-173
2.56201e-184
1.85335e-195
2.69736e-206
1.06483e-216
5.42541e-225
2.90882e-235
1.86571e-243
1.19039e-253
6.42528e-262
5.04703e-272
2.21702e-280
3.26334e-290
7.90082e-299
2.17607e-308
2.82892e-317
5.51377e-321
7.96928e-321
7.83094e-321
2.51973e-321
8.86848e-321
4.57737e-319
2.8055e-319
6.80328e-321
7.09478e-321
6.08689e-321
8.5424e-321
0
0
0
0
0
0
0
0
0
0
0
0
0
0
0
0
)
;

boundaryField
{
    inandouthalf11
    {
        type            cyclic;
    }
    inandouthalf12
    {
        type            cyclic;
    }
    inandouthalf21
    {
        type            cyclic;
    }
    inandouthalf22
    {
        type            cyclic;
    }
    inandouthalf31
    {
        type            cyclic;
    }
    inandouthalf32
    {
        type            cyclic;
    }
    inandouthalf41
    {
        type            cyclic;
    }
    inandouthalf42
    {
        type            cyclic;
    }
    top
    {
        type            symmetryPlane;
    }
    walls
    {
        type            zeroGradient;
    }
    frontAndBackPlanes
    {
        type            empty;
    }
}


// ************************************************************************* //
