/*--------------------------------*- C++ -*----------------------------------*\
| =========                 |                                                 |
| \\      /  F ield         | OpenFOAM: The Open Source CFD Toolbox           |
|  \\    /   O peration     | Version:  2.4.x                                 |
|   \\  /    A nd           | Web:      www.OpenFOAM.org                      |
|    \\/     M anipulation  |                                                 |
\*---------------------------------------------------------------------------*/
FoamFile
{
    version     2.0;
    format      ascii;
    class       surfaceScalarField;
    location    "11.95";
    object      ddt0(phia);
}
// * * * * * * * * * * * * * * * * * * * * * * * * * * * * * * * * * * * * * //

dimensions      [0 3 -2 0 0 0 0];

internalField   nonuniform List<scalar> 
359
(
7.98588e-15
2.00234e-14
3.16383e-14
4.3333e-14
5.57692e-14
6.8822e-14
8.22531e-14
9.59534e-14
1.09864e-13
1.23929e-13
1.38067e-13
1.52182e-13
1.66175e-13
1.79948e-13
1.9341e-13
2.06474e-13
2.19063e-13
2.31109e-13
2.4255e-13
2.53341e-13
2.63445e-13
2.72841e-13
2.81517e-13
2.89474e-13
2.96722e-13
3.03282e-13
3.09182e-13
3.14457e-13
3.1915e-13
3.23305e-13
3.26972e-13
3.30201e-13
3.33044e-13
3.35553e-13
3.3778e-13
3.39773e-13
3.4158e-13
3.43247e-13
3.44816e-13
3.46326e-13
3.47814e-13
3.49313e-13
3.50851e-13
3.52458e-13
3.54155e-13
3.55965e-13
3.57906e-13
3.59993e-13
3.62239e-13
3.64657e-13
3.67254e-13
3.70039e-13
3.73017e-13
3.76192e-13
3.79565e-13
3.83141e-13
3.86918e-13
3.90895e-13
3.95071e-13
3.99441e-13
4.04007e-13
4.0876e-13
4.137e-13
4.18819e-13
4.24114e-13
4.29577e-13
4.35203e-13
4.40985e-13
4.46917e-13
4.5299e-13
4.59199e-13
4.6554e-13
4.71999e-13
4.78576e-13
4.8526e-13
4.92047e-13
4.98926e-13
5.05889e-13
5.12931e-13
5.20043e-13
5.27217e-13
5.34449e-13
5.4173e-13
5.49056e-13
5.56419e-13
5.63814e-13
5.71234e-13
5.78672e-13
5.8612e-13
5.93572e-13
6.01022e-13
6.08464e-13
6.15894e-13
6.23306e-13
6.30698e-13
6.38063e-13
6.45397e-13
6.52697e-13
6.59957e-13
6.67173e-13
6.74343e-13
6.81463e-13
6.88531e-13
6.95546e-13
7.02508e-13
7.09417e-13
7.16272e-13
7.23077e-13
7.29832e-13
7.3654e-13
7.43203e-13
7.49823e-13
7.564e-13
7.62935e-13
7.69425e-13
7.75866e-13
7.8225e-13
7.88571e-13
7.94816e-13
8.00978e-13
8.07046e-13
8.13015e-13
8.18888e-13
8.24674e-13
8.30393e-13
8.36081e-13
8.41786e-13
8.47568e-13
8.53498e-13
8.59641e-13
8.66045e-13
8.72716e-13
8.79586e-13
8.86476e-13
8.93051e-13
8.98815e-13
9.03258e-13
9.06139e-13
9.07651e-13
9.08285e-13
9.08546e-13
9.08516e-13
9.09401e-13
9.09749e-13
9.09973e-13
9.09891e-13
-1.10172e-10
-6.40194e-09
-1.13298e-08
-1.37969e-08
-1.52514e-08
-1.64151e-08
-1.75662e-08
-1.88772e-08
-2.04276e-08
-2.22995e-08
-2.44141e-08
-2.68212e-08
-2.93871e-08
-3.2085e-08
-3.48018e-08
-3.74436e-08
-3.99059e-08
-4.21411e-08
-4.39188e-08
-4.51918e-08
-4.56782e-08
-4.52198e-08
-4.35031e-08
-4.01947e-08
-3.47372e-08
-2.65069e-08
-1.53436e-08
-2.26684e-09
1.07173e-08
2.18258e-08
3.03379e-08
3.64021e-08
4.05116e-08
4.31884e-08
4.48657e-08
4.58675e-08
4.64229e-08
4.66898e-08
4.67752e-08
4.67507e-08
4.6664e-08
4.6546e-08
4.64167e-08
4.62881e-08
4.61674e-08
4.60583e-08
4.5962e-08
4.58786e-08
4.58071e-08
4.57462e-08
4.56943e-08
4.56496e-08
4.56105e-08
4.55756e-08
4.55434e-08
4.55118e-08
4.54792e-08
4.54442e-08
4.54051e-08
4.53608e-08
4.53099e-08
4.52511e-08
4.51827e-08
4.51028e-08
4.5009e-08
4.48981e-08
4.47665e-08
4.45968e-08
4.43917e-08
4.41549e-08
4.38665e-08
4.35158e-08
4.30906e-08
4.25766e-08
4.19586e-08
4.1221e-08
4.03496e-08
3.93359e-08
3.81847e-08
3.69221e-08
3.55916e-08
3.42305e-08
3.28529e-08
3.14504e-08
2.99981e-08
2.84753e-08
2.69542e-08
2.57439e-08
2.5117e-08
2.45132e-08
2.10954e-08
1.80459e-08
1.55542e-08
1.30169e-08
1.04455e-08
7.84552e-09
5.23861e-09
2.66137e-09
1.60084e-10
-2.21184e-09
-4.40228e-09
-6.48814e-09
-8.53052e-09
-1.05854e-08
-1.43882e-08
-4.65503e-08
-1.09906e-07
-2.43018e-08
-3.95884e-10
8.6414e-11
1.72456e-11
-1.73046e-11
-5.27085e-11
-8.4856e-11
-1.11928e-10
-1.32268e-10
-1.46827e-10
-1.45768e-10
-1.39055e-10
-1.31763e-10
-1.15085e-10
-9.74438e-11
-7.97125e-11
-6.35927e-11
-5.01173e-11
-3.98756e-11
-3.31285e-11
-2.99794e-11
-3.06523e-11
-3.72245e-11
-4.98352e-11
-1.05804e-10
-5.78941e-11
-3.55626e-11
-3.60859e-11
-3.61361e-11
-3.6137e-11
-3.6137e-11
-3.61371e-11
-3.6137e-11
-3.61372e-11
-3.61371e-11
-3.61373e-11
-3.61372e-11
-3.61374e-11
-3.61373e-11
-3.61375e-11
-3.61375e-11
-3.61376e-11
-3.61376e-11
-3.61377e-11
-3.61376e-11
-3.61378e-11
-3.61377e-11
-3.61378e-11
-3.61378e-11
-3.61379e-11
-3.61378e-11
-3.6138e-11
-3.61379e-11
-3.6138e-11
-3.6138e-11
-3.61381e-11
-3.6138e-11
-3.61381e-11
-3.6138e-11
-3.61382e-11
-3.61381e-11
-3.61382e-11
-3.61381e-11
-3.61382e-11
-3.61381e-11
-3.61381e-11
-3.6138e-11
-3.61381e-11
-3.6138e-11
-3.6138e-11
-3.61378e-11
-3.61378e-11
-3.61377e-11
-3.61377e-11
-3.61375e-11
-3.61382e-11
-3.61384e-11
-3.61387e-11
-3.61381e-11
-3.61384e-11
-3.61373e-11
-3.61364e-11
-3.61345e-11
-3.61342e-11
-3.61327e-11
-3.61313e-11
-3.61282e-11
-3.6126e-11
-3.61226e-11
-3.61191e-11
-3.61147e-11
-3.61095e-11
-3.61047e-11
-3.60999e-11
-3.60965e-11
-3.6091e-11
-3.60891e-11
-3.60868e-11
-3.60875e-11
-3.60801e-11
-3.60796e-11
-3.60788e-11
-3.60889e-11
-3.61126e-11
-3.65952e-11
-5.73882e-11
)
;

boundaryField
{
    inandouthalf11
    {
        type            cyclic;
        value           nonuniform List<scalar> 
100
(
-6.57825e-39
-1.2837e-15
-2.71298e-15
-4.04822e-15
-5.45723e-15
-6.9685e-15
-8.543e-15
-1.01597e-14
-1.18134e-14
-1.35001e-14
-1.52133e-14
-1.69443e-14
-1.8683e-14
-2.0419e-14
-2.21418e-14
-2.38418e-14
-2.55096e-14
-2.71365e-14
-2.87145e-14
-3.02369e-14
-3.1698e-14
-3.3093e-14
-3.44189e-14
-3.56736e-14
-3.68562e-14
-3.79668e-14
-3.90067e-14
-3.99779e-14
-4.08833e-14
-4.17265e-14
-4.25114e-14
-4.32426e-14
-4.39246e-14
-4.45626e-14
-4.51615e-14
-4.57261e-14
-4.62616e-14
-4.67726e-14
-4.72638e-14
-4.77396e-14
-4.8204e-14
-4.8661e-14
-4.91141e-14
-4.95666e-14
-5.00215e-14
-5.04817e-14
-5.09494e-14
-5.14269e-14
-5.19161e-14
-5.24188e-14
-5.29364e-14
-5.34702e-14
-5.40212e-14
-5.45904e-14
-5.51785e-14
-5.57861e-14
-5.64136e-14
-5.70614e-14
-5.77296e-14
-5.84181e-14
-5.91271e-14
-5.98565e-14
-6.06062e-14
-6.13759e-14
-6.21653e-14
-6.29739e-14
-6.38014e-14
-6.46473e-14
-6.55109e-14
-6.63915e-14
-6.72888e-14
-6.82022e-14
-6.9131e-14
-7.00745e-14
-7.10321e-14
-7.20033e-14
-7.29872e-14
-7.39829e-14
-7.49897e-14
-7.60068e-14
-7.70334e-14
-7.80689e-14
-7.91125e-14
-8.01637e-14
-8.12217e-14
-8.2286e-14
-8.33558e-14
-8.44304e-14
-8.55088e-14
-8.65903e-14
-8.76743e-14
-8.876e-14
-8.98468e-14
-9.09344e-14
-9.2022e-14
-9.31094e-14
-9.4196e-14
-9.52812e-14
-9.63646e-14
-9.74458e-14
)
;
    }
    inandouthalf12
    {
        type            cyclic;
        value           nonuniform List<scalar> 
100
(
6.57825e-39
1.2837e-15
2.71298e-15
4.04822e-15
5.45723e-15
6.9685e-15
8.543e-15
1.01597e-14
1.18134e-14
1.35001e-14
1.52133e-14
1.69443e-14
1.8683e-14
2.0419e-14
2.21418e-14
2.38418e-14
2.55096e-14
2.71365e-14
2.87145e-14
3.02369e-14
3.1698e-14
3.3093e-14
3.44189e-14
3.56736e-14
3.68562e-14
3.79668e-14
3.90067e-14
3.99779e-14
4.08833e-14
4.17265e-14
4.25114e-14
4.32426e-14
4.39246e-14
4.45626e-14
4.51615e-14
4.57261e-14
4.62616e-14
4.67726e-14
4.72638e-14
4.77396e-14
4.8204e-14
4.8661e-14
4.91141e-14
4.95666e-14
5.00215e-14
5.04817e-14
5.09494e-14
5.14269e-14
5.19161e-14
5.24188e-14
5.29364e-14
5.34702e-14
5.40212e-14
5.45904e-14
5.51785e-14
5.57861e-14
5.64136e-14
5.70614e-14
5.77296e-14
5.84181e-14
5.91271e-14
5.98565e-14
6.06062e-14
6.13759e-14
6.21653e-14
6.29739e-14
6.38014e-14
6.46473e-14
6.55109e-14
6.63915e-14
6.72888e-14
6.82022e-14
6.9131e-14
7.00745e-14
7.10321e-14
7.20033e-14
7.29872e-14
7.39829e-14
7.49897e-14
7.60068e-14
7.70334e-14
7.80689e-14
7.91125e-14
8.01637e-14
8.12217e-14
8.2286e-14
8.33558e-14
8.44304e-14
8.55088e-14
8.65903e-14
8.76743e-14
8.876e-14
8.98468e-14
9.09344e-14
9.2022e-14
9.31094e-14
9.4196e-14
9.52812e-14
9.63646e-14
9.74458e-14
)
;
    }
    inandouthalf21
    {
        type            cyclic;
        value           nonuniform List<scalar> 
100
(
-9.85244e-14
-9.96e-14
-1.00672e-13
-1.01742e-13
-1.02808e-13
-1.03871e-13
-1.04931e-13
-1.05989e-13
-1.07046e-13
-1.08101e-13
-1.09155e-13
-1.1021e-13
-1.11265e-13
-1.12322e-13
-1.1338e-13
-1.1444e-13
-1.15501e-13
-1.16563e-13
-1.17624e-13
-1.18685e-13
-1.19743e-13
-1.20799e-13
-1.21853e-13
-1.22906e-13
-1.23962e-13
-1.25028e-13
-1.26113e-13
-1.2723e-13
-1.28396e-13
-1.2963e-13
-1.30951e-13
-1.32374e-13
-1.33904e-13
-1.35525e-13
-1.37187e-13
-1.38783e-13
-1.4016e-13
-1.4118e-13
-1.41797e-13
-1.42093e-13
-1.42213e-13
-1.42279e-13
-1.42359e-13
-1.42543e-13
-1.42668e-13
-1.4278e-13
-1.43056e-13
1.84446e-08
3.30071e-08
3.00303e-08
2.36284e-08
1.51211e-08
5.05667e-09
-6.14786e-09
-1.80441e-08
-3.01727e-08
-4.21026e-08
-5.34582e-08
-6.39337e-08
-7.32905e-08
-8.13476e-08
-8.79736e-08
-9.3074e-08
-9.65822e-08
-9.84656e-08
-9.87171e-08
-9.73628e-08
-9.44647e-08
-9.01284e-08
-8.45086e-08
-7.78152e-08
-7.03183e-08
-6.23477e-08
-5.42623e-08
-4.63793e-08
-3.89021e-08
-3.19018e-08
-2.536e-08
-1.92223e-08
-1.34324e-08
-7.9447e-09
-2.72553e-09
2.24915e-09
6.99698e-09
1.15316e-08
1.5864e-08
2.00042e-08
2.39611e-08
2.77431e-08
3.13582e-08
3.48142e-08
3.81181e-08
4.12769e-08
4.42969e-08
4.71842e-08
4.99442e-08
5.25821e-08
5.51024e-08
5.75094e-08
5.98069e-08
)
;
    }
    inandouthalf22
    {
        type            cyclic;
        value           nonuniform List<scalar> 
100
(
9.85244e-14
9.96e-14
1.00672e-13
1.01742e-13
1.02808e-13
1.03871e-13
1.04931e-13
1.05989e-13
1.07046e-13
1.08101e-13
1.09155e-13
1.1021e-13
1.11265e-13
1.12322e-13
1.1338e-13
1.1444e-13
1.15501e-13
1.16563e-13
1.17624e-13
1.18685e-13
1.19743e-13
1.20799e-13
1.21853e-13
1.22906e-13
1.23962e-13
1.25028e-13
1.26113e-13
1.2723e-13
1.28396e-13
1.2963e-13
1.30951e-13
1.32374e-13
1.33904e-13
1.35525e-13
1.37187e-13
1.38783e-13
1.4016e-13
1.4118e-13
1.41797e-13
1.42093e-13
1.42213e-13
1.42279e-13
1.42359e-13
1.42543e-13
1.42668e-13
1.4278e-13
1.43056e-13
-1.84446e-08
-3.30071e-08
-3.00303e-08
-2.36284e-08
-1.51211e-08
-5.05667e-09
6.14786e-09
1.80441e-08
3.01727e-08
4.21026e-08
5.34582e-08
6.39337e-08
7.32905e-08
8.13476e-08
8.79736e-08
9.3074e-08
9.65822e-08
9.84656e-08
9.87171e-08
9.73628e-08
9.44647e-08
9.01284e-08
8.45086e-08
7.78152e-08
7.03183e-08
6.23477e-08
5.42623e-08
4.63793e-08
3.89021e-08
3.19018e-08
2.536e-08
1.92223e-08
1.34324e-08
7.9447e-09
2.72553e-09
-2.24915e-09
-6.99698e-09
-1.15316e-08
-1.5864e-08
-2.00042e-08
-2.39611e-08
-2.77431e-08
-3.13582e-08
-3.48142e-08
-3.81181e-08
-4.12769e-08
-4.42969e-08
-4.71842e-08
-4.99442e-08
-5.25821e-08
-5.51024e-08
-5.75094e-08
-5.98069e-08
)
;
    }
    inandouthalf31
    {
        type            cyclic;
        value           nonuniform List<scalar> 
110
(
6.19985e-08
6.54097e-08
6.8872e-08
7.23856e-08
7.59504e-08
7.95664e-08
8.32334e-08
8.69513e-08
9.07198e-08
9.45387e-08
9.8408e-08
1.02327e-07
1.06298e-07
1.10318e-07
1.14376e-07
1.1849e-07
1.22656e-07
1.26872e-07
1.31139e-07
1.35458e-07
1.39831e-07
1.4426e-07
1.48748e-07
1.53298e-07
1.57914e-07
1.62601e-07
1.67362e-07
1.72195e-07
1.77095e-07
1.82054e-07
1.87063e-07
1.92118e-07
1.97226e-07
2.02402e-07
2.07624e-07
2.12798e-07
2.18262e-07
3.6667e-07
3.76995e-07
3.87718e-07
3.98623e-07
4.09708e-07
4.20959e-07
4.3236e-07
4.43889e-07
4.55526e-07
4.67207e-07
4.78834e-07
4.90739e-07
5.02396e-07
5.13605e-07
5.24956e-07
5.35003e-07
5.44634e-07
5.5271e-07
5.63421e-07
5.72645e-07
5.81347e-07
5.89408e-07
5.96822e-07
6.03624e-07
6.099e-07
6.158e-07
6.21664e-07
6.26574e-07
6.33593e-07
6.39537e-07
6.46614e-07
6.54409e-07
6.63051e-07
6.72596e-07
6.83085e-07
6.94544e-07
7.06992e-07
7.20443e-07
7.34922e-07
7.5032e-07
7.68313e-07
7.88506e-07
8.06075e-07
8.22499e-07
8.39194e-07
8.56228e-07
8.73607e-07
8.91339e-07
9.0943e-07
9.27889e-07
9.46723e-07
9.65939e-07
9.85545e-07
1.00555e-06
1.02596e-06
1.04678e-06
1.06803e-06
1.08971e-06
1.11183e-06
1.13439e-06
1.15742e-06
1.18091e-06
1.20488e-06
1.22934e-06
1.25429e-06
1.27975e-06
1.30572e-06
1.33223e-06
1.35927e-06
1.38686e-06
1.41501e-06
1.44373e-06
1.47303e-06
)
;
    }
    inandouthalf32
    {
        type            cyclic;
        value           nonuniform List<scalar> 
110
(
-6.19985e-08
-6.54097e-08
-6.8872e-08
-7.23856e-08
-7.59504e-08
-7.95664e-08
-8.32334e-08
-8.69513e-08
-9.07198e-08
-9.45387e-08
-9.8408e-08
-1.02327e-07
-1.06298e-07
-1.10318e-07
-1.14376e-07
-1.1849e-07
-1.22656e-07
-1.26872e-07
-1.31139e-07
-1.35458e-07
-1.39831e-07
-1.4426e-07
-1.48748e-07
-1.53298e-07
-1.57914e-07
-1.62601e-07
-1.67362e-07
-1.72195e-07
-1.77095e-07
-1.82054e-07
-1.87063e-07
-1.92118e-07
-1.97226e-07
-2.02402e-07
-2.07624e-07
-2.12798e-07
-2.18262e-07
-3.6667e-07
-3.76995e-07
-3.87718e-07
-3.98623e-07
-4.09708e-07
-4.20959e-07
-4.3236e-07
-4.43889e-07
-4.55526e-07
-4.67207e-07
-4.78834e-07
-4.90739e-07
-5.02396e-07
-5.13605e-07
-5.24956e-07
-5.35003e-07
-5.44634e-07
-5.5271e-07
-5.63421e-07
-5.72645e-07
-5.81347e-07
-5.89408e-07
-5.96822e-07
-6.03624e-07
-6.099e-07
-6.158e-07
-6.21664e-07
-6.26574e-07
-6.33593e-07
-6.39537e-07
-6.46614e-07
-6.54409e-07
-6.63051e-07
-6.72596e-07
-6.83085e-07
-6.94544e-07
-7.06992e-07
-7.20443e-07
-7.34922e-07
-7.5032e-07
-7.68313e-07
-7.88506e-07
-8.06075e-07
-8.22499e-07
-8.39194e-07
-8.56228e-07
-8.73607e-07
-8.91339e-07
-9.0943e-07
-9.27889e-07
-9.46723e-07
-9.65939e-07
-9.85545e-07
-1.00555e-06
-1.02596e-06
-1.04678e-06
-1.06803e-06
-1.08971e-06
-1.11183e-06
-1.13439e-06
-1.15742e-06
-1.18091e-06
-1.20488e-06
-1.22934e-06
-1.25429e-06
-1.27975e-06
-1.30572e-06
-1.33223e-06
-1.35927e-06
-1.38686e-06
-1.41501e-06
-1.44373e-06
-1.47303e-06
)
;
    }
    inandouthalf41
    {
        type            cyclic;
        value           nonuniform List<scalar> 
50
(
1.31851e-06
1.31851e-06
1.31851e-06
1.31851e-06
1.31851e-06
1.31851e-06
1.31851e-06
1.31851e-06
1.31851e-06
1.31851e-06
1.31851e-06
1.31851e-06
1.31851e-06
1.31851e-06
1.31851e-06
1.31851e-06
1.31851e-06
1.31851e-06
1.31851e-06
1.31851e-06
1.31851e-06
1.31851e-06
1.31851e-06
1.31851e-06
1.31851e-06
1.31851e-06
1.31851e-06
1.31851e-06
1.31851e-06
1.31851e-06
1.31851e-06
1.31851e-06
1.31851e-06
1.31851e-06
1.31851e-06
1.31851e-06
1.31851e-06
1.31851e-06
1.31851e-06
1.31851e-06
1.31851e-06
1.31851e-06
1.31851e-06
1.31851e-06
1.31851e-06
1.31851e-06
1.31851e-06
1.31852e-06
1.31864e-06
1.32158e-06
)
;
    }
    inandouthalf42
    {
        type            cyclic;
        value           nonuniform List<scalar> 
50
(
-1.31851e-06
-1.31851e-06
-1.31851e-06
-1.31851e-06
-1.31851e-06
-1.31851e-06
-1.31851e-06
-1.31851e-06
-1.31851e-06
-1.31851e-06
-1.31851e-06
-1.31851e-06
-1.31851e-06
-1.31851e-06
-1.31851e-06
-1.31851e-06
-1.31851e-06
-1.31851e-06
-1.31851e-06
-1.31851e-06
-1.31851e-06
-1.31851e-06
-1.31851e-06
-1.31851e-06
-1.31851e-06
-1.31851e-06
-1.31851e-06
-1.31851e-06
-1.31851e-06
-1.31851e-06
-1.31851e-06
-1.31851e-06
-1.31851e-06
-1.31851e-06
-1.31851e-06
-1.31851e-06
-1.31851e-06
-1.31851e-06
-1.31851e-06
-1.31851e-06
-1.31851e-06
-1.31851e-06
-1.31851e-06
-1.31851e-06
-1.31851e-06
-1.31851e-06
-1.31851e-06
-1.31852e-06
-1.31864e-06
-1.32158e-06
)
;
    }
    top
    {
        type            symmetryPlane;
        value           uniform 0;
    }
    walls
    {
        type            calculated;
        value           uniform 0;
    }
    frontAndBackPlanes
    {
        type            empty;
        value           nonuniform 0();
    }
}


// ************************************************************************* //
