/*--------------------------------*- C++ -*----------------------------------*\
| =========                 |                                                 |
| \\      /  F ield         | OpenFOAM: The Open Source CFD Toolbox           |
|  \\    /   O peration     | Version:  2.4.x                                 |
|   \\  /    A nd           | Web:      www.OpenFOAM.org                      |
|    \\/     M anipulation  |                                                 |
\*---------------------------------------------------------------------------*/
FoamFile
{
    version     2.0;
    format      ascii;
    class       volScalarField;
    location    "11.95";
    object      epsilon;
}
// * * * * * * * * * * * * * * * * * * * * * * * * * * * * * * * * * * * * * //

dimensions      [0 2 -3 0 0 0 0];

internalField   nonuniform List<scalar> 
360
(
1e-20
1e-20
1e-20
1e-20
1e-20
1e-20
1e-20
1e-20
1e-20
1e-20
1e-20
1e-20
1e-20
1e-20
1e-20
1e-20
1e-20
1e-20
1e-20
1e-20
1e-20
1e-20
1e-20
1e-20
1e-20
1e-20
1e-20
1e-20
1e-20
1e-20
1e-20
1e-20
1e-20
1e-20
1e-20
1e-20
1e-20
1e-20
1e-20
1e-20
1e-20
1e-20
1e-20
1e-20
1e-20
1e-20
1e-20
1e-20
1e-20
1e-20
1e-20
1e-20
1e-20
1e-20
1e-20
1e-20
1e-20
1e-20
1e-20
1e-20
1e-20
1e-20
1e-20
1e-20
1e-20
1e-20
1e-20
1e-20
1e-20
1e-20
1e-20
1e-20
1e-20
1e-20
1e-20
1e-20
1e-20
1e-20
1e-20
1e-20
1e-20
1e-20
1e-20
1e-20
1e-20
1e-20
1e-20
1e-20
1e-20
1e-20
1e-20
1e-20
1e-20
1e-20
1e-20
1e-20
1e-20
1e-20
1e-20
1e-20
1e-20
1e-20
1e-20
1e-20
1e-20
1e-20
1e-20
1e-20
1e-20
1e-20
1e-20
1e-20
1e-20
1e-20
1e-20
1e-20
1e-20
1e-20
1e-20
1e-20
1e-20
1e-20
1e-20
1e-20
1e-20
1e-20
1e-20
1e-20
1e-20
1e-20
1e-20
1e-20
1.14614e-20
5.78478e-20
5.31994e-19
5.4058e-18
5.87739e-17
6.86679e-16
8.72019e-15
1.22677e-13
1.95974e-12
3.64806e-11
8.08843e-10
2.12506e-08
6.82318e-07
2.71452e-05
0.00125451
0.033995
0.166092
0.214533
0.220351
0.212514
0.199861
0.185663
0.171326
0.157471
0.144359
0.132079
0.120642
0.110015
0.100151
0.0909988
0.0825071
0.0746289
0.067322
0.0605497
0.0542805
0.0484875
0.0431482
0.0382435
0.0337571
0.0296748
0.0259831
0.0226688
0.0197176
0.0171129
0.0148358
0.0128639
0.0111721
0.009733
0.00851811
0.00749878
0.00664746
0.0059386
0.00534923
0.00485925
0.00445151
0.00411158
0.0038275
0.00358945
0.0033894
0.00322082
0.00307839
0.00295779
0.00285548
0.00276856
0.00269465
0.00263179
0.00257833
0.00253291
0.00249439
0.00246145
0.00243321
0.00240916
0.00238889
0.00237199
0.00235809
0.00234683
0.00233791
0.002331
0.00232582
0.00232209
0.00231954
0.00231791
0.00231694
0.0023164
0.00231604
0.00231562
0.00231491
0.00231367
0.00231168
0.00230871
0.00230453
0.00229893
0.00229169
0.00228259
0.00227141
0.00225797
0.00224204
0.00222345
0.002202
0.00217752
0.00214985
0.00211883
0.00208434
0.00204624
0.00200445
0.00195888
0.00190948
0.00185624
0.00179916
0.0017383
0.00167373
0.00160559
0.00153406
0.00145937
0.00138181
0.00130174
0.00121956
0.00113576
0.0010509
0.000965594
0.000880525
0.000796438
0.000714123
0.0006344
0.000558093
0.000486002
0.000418864
0.000357307
0.000301807
0.000252645
0.000209875
0.000173317
0.00014257
0.000117051
9.60618e-05
7.88523e-05
6.46885e-05
5.29022e-05
4.29253e-05
3.43085e-05
2.67271e-05
1.99807e-05
1.39874e-05
8.77979e-06
4.50722e-06
1.42889e-06
1.48607e-07
3.52511e-09
4.71547e-11
5.81822e-13
6.74953e-15
7.36617e-17
7.63823e-19
1.54799e-20
1e-20
1e-20
1e-20
1e-20
1e-20
1e-20
1e-20
1e-20
1e-20
1e-20
1e-20
1e-20
1e-20
1e-20
1e-20
1e-20
1e-20
1e-20
1e-20
1e-20
1e-20
1e-20
1e-20
1e-20
1e-20
1e-20
1e-20
1e-20
1e-20
1e-20
1e-20
1e-20
1e-20
1e-20
1e-20
1e-20
1e-20
1e-20
1e-20
1e-20
1e-20
1e-20
1e-20
1e-20
1e-20
1e-20
1e-20
1e-20
1e-20
1e-20
1e-20
1e-20
1e-20
1e-20
1e-20
1e-20
1e-20
1e-20
1e-20
1e-20
1e-20
1e-20
1e-20
1e-20
1e-20
1e-20
1e-20
1e-20
1e-20
1e-20
1e-20
1e-20
1e-20
1e-20
)
;

boundaryField
{
    inandouthalf11
    {
        type            cyclic;
    }
    inandouthalf12
    {
        type            cyclic;
    }
    inandouthalf21
    {
        type            cyclic;
    }
    inandouthalf22
    {
        type            cyclic;
    }
    inandouthalf31
    {
        type            cyclic;
    }
    inandouthalf32
    {
        type            cyclic;
    }
    inandouthalf41
    {
        type            cyclic;
    }
    inandouthalf42
    {
        type            cyclic;
    }
    top
    {
        type            symmetryPlane;
    }
    walls
    {
        type            zeroGradient;
    }
    frontAndBackPlanes
    {
        type            empty;
    }
}


// ************************************************************************* //
