/*--------------------------------*- C++ -*----------------------------------*\
| =========                 |                                                 |
| \\      /  F ield         | OpenFOAM: The Open Source CFD Toolbox           |
|  \\    /   O peration     | Version:  2.4.x                                 |
|   \\  /    A nd           | Web:      www.OpenFOAM.org                      |
|    \\/     M anipulation  |                                                 |
\*---------------------------------------------------------------------------*/
FoamFile
{
    version     2.0;
    format      ascii;
    class       volScalarField;
    location    "11.95";
    object      k_0;
}
// * * * * * * * * * * * * * * * * * * * * * * * * * * * * * * * * * * * * * //

dimensions      [0 2 -2 0 0 0 0];

internalField   nonuniform List<scalar> 
360
(
1e-20
1e-20
1e-20
1e-20
1e-20
1e-20
1e-20
1e-20
1e-20
1e-20
1e-20
1e-20
1e-20
1e-20
1e-20
1e-20
1e-20
1e-20
1e-20
1e-20
1e-20
1e-20
1e-20
1e-20
1e-20
1e-20
1e-20
1e-20
1e-20
1e-20
1e-20
1e-20
1e-20
1e-20
1e-20
1e-20
1e-20
1e-20
1e-20
1e-20
1e-20
1e-20
1e-20
1e-20
1e-20
1e-20
1e-20
1e-20
1e-20
1e-20
1e-20
1e-20
1e-20
1e-20
1e-20
1e-20
1e-20
1e-20
1e-20
1e-20
1e-20
1e-20
1e-20
1e-20
1e-20
1e-20
1e-20
1e-20
1e-20
1e-20
1e-20
1e-20
1e-20
1e-20
1e-20
1e-20
1e-20
1e-20
1e-20
1e-20
1e-20
1e-20
1e-20
1e-20
1e-20
1e-20
1e-20
1e-20
1e-20
1e-20
1e-20
1e-20
1e-20
1e-20
1e-20
1e-20
1e-20
1e-20
1e-20
1e-20
1e-20
1e-20
1e-20
1e-20
1e-20
1e-20
1e-20
1e-20
1e-20
1e-20
1e-20
1e-20
1e-20
1e-20
1e-20
1e-20
1e-20
1e-20
1e-20
1e-20
1e-20
1e-20
1e-20
1e-20
1e-20
1e-20
1e-20
1e-20
1e-20
1e-20
1e-20
1e-20
1e-20
2.75843e-20
2.19576e-19
1.97081e-18
1.87676e-17
1.89742e-16
2.0539e-15
2.42226e-14
3.19117e-13
4.83249e-12
8.76308e-11
1.85061e-09
4.69924e-08
1.4745e-06
5.26559e-05
0.00109838
0.00465472
0.00684789
0.0080281
0.00871919
0.0091319
0.00936501
0.00947385
0.00949152
0.00943875
0.00932916
0.00917235
0.00897556
0.00874467
0.00848478
0.00820047
0.00789601
0.0075754
0.00724249
0.006901
0.00655454
0.00620666
0.00586087
0.00552063
0.00518933
0.00487028
0.00456661
0.0042811
0.00401613
0.00377351
0.00355444
0.00335943
0.00318831
0.00304025
0.00291387
0.00280741
0.00271885
0.00264611
0.00258711
0.00253996
0.00250288
0.00247435
0.00245303
0.00243776
0.00242758
0.00242166
0.00241932
0.00241998
0.00242314
0.00242839
0.00243539
0.00244382
0.00245344
0.00246403
0.00247551
0.00248786
0.00250097
0.0025147
0.00252896
0.00254363
0.00255859
0.00257373
0.00258894
0.0026041
0.00261909
0.00263379
0.00264808
0.00266184
0.00267494
0.00268724
0.00269861
0.00270891
0.00271801
0.00272574
0.00273197
0.00273655
0.00273932
0.00274013
0.00273882
0.00273523
0.0027292
0.00272057
0.00270917
0.00269486
0.00267748
0.00265687
0.00263288
0.00260537
0.0025742
0.00253925
0.00250039
0.00245752
0.00241057
0.00235945
0.00230412
0.00224455
0.00218076
0.00211279
0.0020407
0.00196464
0.00188476
0.00180129
0.00171454
0.00162485
0.00153266
0.0014385
0.00134297
0.00124675
0.00115061
0.00105542
0.000962069
0.000871506
0.000784661
0.000702409
0.000625508
0.000554531
0.000489817
0.000431429
0.000379153
0.000332521
0.000290879
0.000253458
0.000219459
0.000188126
0.000158804
0.000130989
0.000104362
7.88266e-05
5.45674e-05
3.21571e-05
1.26813e-05
1.68229e-06
4.453e-08
5.95027e-10
7.29704e-12
8.41717e-14
9.13673e-16
9.34073e-18
9.60024e-20
1.00031e-20
1e-20
1e-20
1e-20
1e-20
1e-20
1e-20
1e-20
1e-20
1e-20
1e-20
1e-20
1e-20
1e-20
1e-20
1e-20
1e-20
1e-20
1e-20
1e-20
1e-20
1e-20
1e-20
1e-20
1e-20
1e-20
1e-20
1e-20
1e-20
1e-20
1e-20
1e-20
1e-20
1e-20
1e-20
1e-20
1e-20
1e-20
1e-20
1e-20
1e-20
1e-20
1e-20
1e-20
1e-20
1e-20
1e-20
1e-20
1e-20
1e-20
1e-20
1e-20
1e-20
1e-20
1e-20
1e-20
1e-20
1e-20
1e-20
1e-20
1e-20
1e-20
1e-20
1e-20
1e-20
1e-20
1e-20
1e-20
1e-20
1e-20
1e-20
1e-20
1e-20
1e-20
)
;

boundaryField
{
    inandouthalf11
    {
        type            cyclic;
    }
    inandouthalf12
    {
        type            cyclic;
    }
    inandouthalf21
    {
        type            cyclic;
    }
    inandouthalf22
    {
        type            cyclic;
    }
    inandouthalf31
    {
        type            cyclic;
    }
    inandouthalf32
    {
        type            cyclic;
    }
    inandouthalf41
    {
        type            cyclic;
    }
    inandouthalf42
    {
        type            cyclic;
    }
    top
    {
        type            symmetryPlane;
    }
    walls
    {
        type            zeroGradient;
    }
    frontAndBackPlanes
    {
        type            empty;
    }
}


// ************************************************************************* //
