/*--------------------------------*- C++ -*----------------------------------*\
| =========                 |                                                 |
| \\      /  F ield         | OpenFOAM: The Open Source CFD Toolbox           |
|  \\    /   O peration     | Version:  2.4.x                                 |
|   \\  /    A nd           | Web:      www.OpenFOAM.org                      |
|    \\/     M anipulation  |                                                 |
\*---------------------------------------------------------------------------*/
FoamFile
{
    version     2.0;
    format      ascii;
    class       surfaceScalarField;
    location    "11.95";
    object      phia_0;
}
// * * * * * * * * * * * * * * * * * * * * * * * * * * * * * * * * * * * * * //

dimensions      [0 3 -1 0 0 0 0];

internalField   nonuniform List<scalar> 
359
(
-6.89864e-15
-1.72492e-14
-2.7001e-14
-3.66136e-14
-4.674e-14
-5.73443e-14
-6.82898e-14
-7.955e-14
-9.11423e-14
-1.03084e-13
-1.15374e-13
-1.27992e-13
-1.40914e-13
-1.5411e-13
-1.67549e-13
-1.81199e-13
-1.95026e-13
-2.08992e-13
-2.2306e-13
-2.37196e-13
-2.51359e-13
-2.6552e-13
-2.79645e-13
-2.93705e-13
-3.07672e-13
-3.21521e-13
-3.3523e-13
-3.48782e-13
-3.62159e-13
-3.75347e-13
-3.88335e-13
-4.01118e-13
-4.13683e-13
-4.26034e-13
-4.38163e-13
-4.50073e-13
-4.61763e-13
-4.73237e-13
-4.84502e-13
-4.95555e-13
-5.0641e-13
-5.17069e-13
-5.27536e-13
-5.37825e-13
-5.47939e-13
-5.57888e-13
-5.67679e-13
-5.77316e-13
-5.8681e-13
-5.96172e-13
-6.05402e-13
-6.14513e-13
-6.23509e-13
-6.32398e-13
-6.41184e-13
-6.49878e-13
-6.5848e-13
-6.67e-13
-6.75439e-13
-6.838e-13
-6.92095e-13
-7.00321e-13
-7.08487e-13
-7.16595e-13
-7.24647e-13
-7.32646e-13
-7.40594e-13
-7.48495e-13
-7.56348e-13
-7.64153e-13
-7.71917e-13
-7.7964e-13
-7.8732e-13
-7.94961e-13
-8.02563e-13
-8.10128e-13
-8.17653e-13
-8.25138e-13
-8.32583e-13
-8.39987e-13
-8.47349e-13
-8.54668e-13
-8.61946e-13
-8.69182e-13
-8.76375e-13
-8.83524e-13
-8.90627e-13
-8.97683e-13
-9.04688e-13
-9.11642e-13
-9.18542e-13
-9.25387e-13
-9.32175e-13
-9.38906e-13
-9.45579e-13
-9.52192e-13
-9.58745e-13
-9.65235e-13
-9.71661e-13
-9.78021e-13
-9.84315e-13
-9.90541e-13
-9.967e-13
-1.00279e-12
-1.00881e-12
-1.01477e-12
-1.02066e-12
-1.02648e-12
-1.03224e-12
-1.03793e-12
-1.04357e-12
-1.04914e-12
-1.05466e-12
-1.06012e-12
-1.06551e-12
-1.07085e-12
-1.07613e-12
-1.08134e-12
-1.08648e-12
-1.09154e-12
-1.09652e-12
-1.1014e-12
-1.10618e-12
-1.11086e-12
-1.11544e-12
-1.11993e-12
-1.12433e-12
-1.12868e-12
-1.133e-12
-1.13733e-12
-1.1417e-12
-1.14613e-12
-1.15059e-12
-1.15501e-12
-1.15924e-12
-1.16299e-12
-1.16596e-12
-1.16795e-12
-1.16904e-12
-1.16952e-12
-1.16973e-12
-1.1697e-12
-1.17037e-12
-1.1706e-12
-1.17074e-12
-1.17062e-12
2.86818e-12
2.75038e-10
5.21401e-10
6.55861e-10
7.49541e-10
8.52285e-10
9.95586e-10
1.2063e-09
1.50618e-09
1.91113e-09
2.4306e-09
3.06826e-09
3.8223e-09
4.68637e-09
5.64999e-09
6.69944e-09
7.81759e-09
8.9843e-09
1.01761e-08
1.13657e-08
1.25211e-08
1.36048e-08
1.45728e-08
1.53703e-08
1.5923e-08
1.61282e-08
1.58659e-08
1.50488e-08
1.3682e-08
1.18715e-08
9.77311e-09
7.53492e-09
5.27099e-09
3.0587e-09
9.4575e-10
-1.04144e-09
-2.89059e-09
-4.59848e-09
-6.16735e-09
-7.60269e-09
-8.91173e-09
-1.01026e-08
-1.11835e-08
-1.21627e-08
-1.30481e-08
-1.38473e-08
-1.45674e-08
-1.52149e-08
-1.57961e-08
-1.63166e-08
-1.67818e-08
-1.71966e-08
-1.75657e-08
-1.78934e-08
-1.81836e-08
-1.84449e-08
-1.86794e-08
-1.88889e-08
-1.90755e-08
-1.92413e-08
-1.93882e-08
-1.95183e-08
-1.96333e-08
-1.9735e-08
-1.98248e-08
-1.99038e-08
-1.9973e-08
-2.00329e-08
-2.00837e-08
-2.01255e-08
-2.01577e-08
-2.01797e-08
-2.01904e-08
-2.01883e-08
-2.01714e-08
-2.01373e-08
-2.00828e-08
-2.0004e-08
-1.98967e-08
-1.97564e-08
-1.95797e-08
-1.93648e-08
-1.91131e-08
-1.88316e-08
-1.8537e-08
-1.82619e-08
-1.80581e-08
-1.79613e-08
-1.79214e-08
-1.78157e-08
-1.78619e-08
-1.78184e-08
-1.78627e-08
-1.77489e-08
-1.74788e-08
-1.7057e-08
-1.64906e-08
-1.57895e-08
-1.49675e-08
-1.40404e-08
-1.30212e-08
-1.19693e-08
-1.08179e-08
-9.68464e-09
-8.20822e-09
-1.18724e-08
-9.52815e-08
-1.54065e-07
-1.58668e-07
-1.58486e-07
-1.58486e-07
-1.58471e-07
-1.58454e-07
-1.58436e-07
-1.58416e-07
-1.58395e-07
-1.58373e-07
-1.58353e-07
-1.58335e-07
-1.58318e-07
-1.58302e-07
-1.5829e-07
-1.5828e-07
-1.58273e-07
-1.58267e-07
-1.58262e-07
-1.58258e-07
-1.58254e-07
-1.5825e-07
-1.58245e-07
-1.58237e-07
-1.58217e-07
-1.58197e-07
-1.58195e-07
-1.58195e-07
-1.58195e-07
-1.58195e-07
-1.58195e-07
-1.58195e-07
-1.58195e-07
-1.58195e-07
-1.58195e-07
-1.58195e-07
-1.58195e-07
-1.58195e-07
-1.58195e-07
-1.58195e-07
-1.58195e-07
-1.58195e-07
-1.58195e-07
-1.58195e-07
-1.58195e-07
-1.58195e-07
-1.58195e-07
-1.58195e-07
-1.58195e-07
-1.58195e-07
-1.58195e-07
-1.58195e-07
-1.58195e-07
-1.58195e-07
-1.58195e-07
-1.58195e-07
-1.58195e-07
-1.58195e-07
-1.58195e-07
-1.58195e-07
-1.58195e-07
-1.58195e-07
-1.58195e-07
-1.58195e-07
-1.58195e-07
-1.58195e-07
-1.58195e-07
-1.58195e-07
-1.58195e-07
-1.58195e-07
-1.58195e-07
-1.58195e-07
-1.58195e-07
-1.58195e-07
-1.58195e-07
-1.58195e-07
-1.58195e-07
-1.58195e-07
-1.58195e-07
-1.58195e-07
-1.58195e-07
-1.58195e-07
-1.58195e-07
-1.58195e-07
-1.58195e-07
-1.58195e-07
-1.58195e-07
-1.58195e-07
-1.58195e-07
-1.58195e-07
-1.58195e-07
-1.58195e-07
-1.58195e-07
-1.58195e-07
-1.58195e-07
-1.58195e-07
-1.58195e-07
-1.58195e-07
-1.58195e-07
-1.58195e-07
-1.58195e-07
-1.58195e-07
-1.58194e-07
-1.58177e-07
-1.57471e-07
-1.32599e-07
)
;

boundaryField
{
    inandouthalf11
    {
        type            cyclic;
        value           nonuniform List<scalar> 
100
(
1.89228e-38
8.41523e-16
1.76213e-15
2.60857e-15
3.49421e-15
4.44188e-15
5.43128e-15
6.45363e-15
7.51043e-15
8.604e-15
9.73514e-15
1.09031e-14
1.21061e-14
1.33416e-14
1.4607e-14
1.58996e-14
1.72162e-14
1.85535e-14
1.9908e-14
2.12763e-14
2.26549e-14
2.40402e-14
2.54292e-14
2.68187e-14
2.82059e-14
2.9588e-14
3.09626e-14
3.23275e-14
3.36809e-14
3.50211e-14
3.63466e-14
3.76564e-14
3.89494e-14
4.02251e-14
4.1483e-14
4.27226e-14
4.39439e-14
4.5147e-14
4.6332e-14
4.74992e-14
4.86489e-14
4.97817e-14
5.0898e-14
5.19984e-14
5.30837e-14
5.41545e-14
5.52115e-14
5.62552e-14
5.72863e-14
5.83059e-14
5.93145e-14
6.03127e-14
6.13012e-14
6.22808e-14
6.32519e-14
6.42154e-14
6.51717e-14
6.61215e-14
6.70651e-14
6.80029e-14
6.89356e-14
6.98636e-14
7.07874e-14
7.17074e-14
7.26238e-14
7.35371e-14
7.44473e-14
7.53549e-14
7.626e-14
7.71626e-14
7.80631e-14
7.89618e-14
7.98586e-14
8.07538e-14
8.16474e-14
8.25398e-14
8.34308e-14
8.43202e-14
8.52082e-14
8.60945e-14
8.69793e-14
8.78624e-14
8.87439e-14
8.96238e-14
9.05021e-14
9.13787e-14
9.22535e-14
9.31263e-14
9.39969e-14
9.48652e-14
9.57308e-14
9.65936e-14
9.74536e-14
9.83107e-14
9.91648e-14
1.00016e-13
1.00864e-13
1.01708e-13
1.0255e-13
1.03388e-13
)
;
    }
    inandouthalf12
    {
        type            cyclic;
        value           nonuniform List<scalar> 
100
(
-1.89228e-38
-8.41523e-16
-1.76213e-15
-2.60857e-15
-3.49421e-15
-4.44188e-15
-5.43128e-15
-6.45363e-15
-7.51043e-15
-8.604e-15
-9.73514e-15
-1.09031e-14
-1.21061e-14
-1.33416e-14
-1.4607e-14
-1.58996e-14
-1.72162e-14
-1.85535e-14
-1.9908e-14
-2.12763e-14
-2.26549e-14
-2.40402e-14
-2.54292e-14
-2.68187e-14
-2.82059e-14
-2.9588e-14
-3.09626e-14
-3.23275e-14
-3.36809e-14
-3.50211e-14
-3.63466e-14
-3.76564e-14
-3.89494e-14
-4.02251e-14
-4.1483e-14
-4.27226e-14
-4.39439e-14
-4.5147e-14
-4.6332e-14
-4.74992e-14
-4.86489e-14
-4.97817e-14
-5.0898e-14
-5.19984e-14
-5.30837e-14
-5.41545e-14
-5.52115e-14
-5.62552e-14
-5.72863e-14
-5.83059e-14
-5.93145e-14
-6.03127e-14
-6.13012e-14
-6.22808e-14
-6.32519e-14
-6.42154e-14
-6.51717e-14
-6.61215e-14
-6.70651e-14
-6.80029e-14
-6.89356e-14
-6.98636e-14
-7.07874e-14
-7.17074e-14
-7.26238e-14
-7.35371e-14
-7.44473e-14
-7.53549e-14
-7.626e-14
-7.71626e-14
-7.80631e-14
-7.89618e-14
-7.98586e-14
-8.07538e-14
-8.16474e-14
-8.25398e-14
-8.34308e-14
-8.43202e-14
-8.52082e-14
-8.60945e-14
-8.69793e-14
-8.78624e-14
-8.87439e-14
-8.96238e-14
-9.05021e-14
-9.13787e-14
-9.22535e-14
-9.31263e-14
-9.39969e-14
-9.48652e-14
-9.57308e-14
-9.65936e-14
-9.74536e-14
-9.83107e-14
-9.91648e-14
-1.00016e-13
-1.00864e-13
-1.01708e-13
-1.0255e-13
-1.03388e-13
)
;
    }
    inandouthalf21
    {
        type            cyclic;
        value           nonuniform List<scalar> 
100
(
1.04222e-13
1.05052e-13
1.05879e-13
1.06703e-13
1.07523e-13
1.0834e-13
1.09155e-13
1.09966e-13
1.10776e-13
1.11583e-13
1.1239e-13
1.13195e-13
1.14001e-13
1.14806e-13
1.15612e-13
1.16419e-13
1.17228e-13
1.18037e-13
1.18848e-13
1.1966e-13
1.20472e-13
1.21283e-13
1.22095e-13
1.22905e-13
1.23715e-13
1.24527e-13
1.25343e-13
1.26168e-13
1.2701e-13
1.27879e-13
1.28784e-13
1.29735e-13
1.3074e-13
1.31794e-13
1.32877e-13
1.33935e-13
1.34877e-13
1.35605e-13
1.36072e-13
1.3631e-13
1.36413e-13
1.36471e-13
1.36539e-13
1.36678e-13
1.36766e-13
1.36842e-13
1.37026e-13
3.32195e-08
1.37147e-07
2.32452e-07
3.09916e-07
3.74996e-07
4.30653e-07
4.78948e-07
5.21348e-07
5.58935e-07
5.9253e-07
6.22772e-07
6.50161e-07
6.75092e-07
6.97877e-07
7.18765e-07
7.37951e-07
7.55591e-07
7.71808e-07
7.86704e-07
8.00358e-07
8.12842e-07
8.24218e-07
8.34543e-07
8.43875e-07
8.52276e-07
8.59811e-07
8.66554e-07
8.72585e-07
8.77985e-07
8.82831e-07
8.87192e-07
8.91124e-07
8.94677e-07
8.9789e-07
9.00799e-07
9.03434e-07
9.05821e-07
9.07983e-07
9.09941e-07
9.11713e-07
9.13316e-07
9.14765e-07
9.16073e-07
9.17253e-07
9.18317e-07
9.19273e-07
9.20132e-07
9.20902e-07
9.21591e-07
9.22205e-07
9.22752e-07
9.23237e-07
9.23667e-07
)
;
    }
    inandouthalf22
    {
        type            cyclic;
        value           nonuniform List<scalar> 
100
(
-1.04222e-13
-1.05052e-13
-1.05879e-13
-1.06703e-13
-1.07523e-13
-1.0834e-13
-1.09155e-13
-1.09966e-13
-1.10776e-13
-1.11583e-13
-1.1239e-13
-1.13195e-13
-1.14001e-13
-1.14806e-13
-1.15612e-13
-1.16419e-13
-1.17228e-13
-1.18037e-13
-1.18848e-13
-1.1966e-13
-1.20472e-13
-1.21283e-13
-1.22095e-13
-1.22905e-13
-1.23715e-13
-1.24527e-13
-1.25343e-13
-1.26168e-13
-1.2701e-13
-1.27879e-13
-1.28784e-13
-1.29735e-13
-1.3074e-13
-1.31794e-13
-1.32877e-13
-1.33935e-13
-1.34877e-13
-1.35605e-13
-1.36072e-13
-1.3631e-13
-1.36413e-13
-1.36471e-13
-1.36539e-13
-1.36678e-13
-1.36766e-13
-1.36842e-13
-1.37026e-13
-3.32195e-08
-1.37147e-07
-2.32452e-07
-3.09916e-07
-3.74996e-07
-4.30653e-07
-4.78948e-07
-5.21348e-07
-5.58935e-07
-5.9253e-07
-6.22772e-07
-6.50161e-07
-6.75092e-07
-6.97877e-07
-7.18765e-07
-7.37951e-07
-7.55591e-07
-7.71808e-07
-7.86704e-07
-8.00358e-07
-8.12842e-07
-8.24218e-07
-8.34543e-07
-8.43875e-07
-8.52276e-07
-8.59811e-07
-8.66554e-07
-8.72585e-07
-8.77985e-07
-8.82831e-07
-8.87192e-07
-8.91124e-07
-8.94677e-07
-8.9789e-07
-9.00799e-07
-9.03434e-07
-9.05821e-07
-9.07983e-07
-9.09941e-07
-9.11713e-07
-9.13316e-07
-9.14765e-07
-9.16073e-07
-9.17253e-07
-9.18317e-07
-9.19273e-07
-9.20132e-07
-9.20902e-07
-9.21591e-07
-9.22205e-07
-9.22752e-07
-9.23237e-07
-9.23667e-07
)
;
    }
    inandouthalf31
    {
        type            cyclic;
        value           nonuniform List<scalar> 
110
(
9.24048e-07
9.43146e-07
9.626e-07
9.82417e-07
1.00261e-06
1.02317e-06
1.04413e-06
1.06548e-06
1.08723e-06
1.10941e-06
1.132e-06
1.15503e-06
1.1785e-06
1.20242e-06
1.22681e-06
1.25167e-06
1.27702e-06
1.30286e-06
1.32921e-06
1.35608e-06
1.38348e-06
1.41142e-06
1.43991e-06
1.46897e-06
1.49861e-06
1.52885e-06
1.55968e-06
1.59113e-06
1.62321e-06
1.65594e-06
1.68932e-06
1.72338e-06
1.75811e-06
1.79354e-06
1.82969e-06
1.86661e-06
1.90422e-06
1.88856e-06
1.92164e-06
1.9551e-06
1.98906e-06
2.02352e-06
2.0585e-06
2.09403e-06
2.13012e-06
2.1668e-06
2.20411e-06
2.24197e-06
2.28067e-06
2.31984e-06
2.36031e-06
2.40104e-06
2.44267e-06
2.4859e-06
2.53016e-06
2.57467e-06
2.62086e-06
2.66829e-06
2.71713e-06
2.76748e-06
2.81944e-06
2.87311e-06
2.92859e-06
2.98594e-06
3.04527e-06
3.1066e-06
3.16985e-06
3.23514e-06
3.30241e-06
3.37162e-06
3.44275e-06
3.51574e-06
3.59052e-06
3.66703e-06
3.74516e-06
3.82482e-06
3.90585e-06
3.98802e-06
4.07037e-06
4.15319e-06
4.23749e-06
4.3235e-06
4.41126e-06
4.50079e-06
4.59215e-06
4.68536e-06
4.78046e-06
4.87749e-06
4.97649e-06
5.0775e-06
5.18056e-06
5.28571e-06
5.39299e-06
5.50246e-06
5.61414e-06
5.72809e-06
5.84436e-06
5.96298e-06
6.08402e-06
6.20751e-06
6.3335e-06
6.46205e-06
6.59322e-06
6.72704e-06
6.86358e-06
7.00289e-06
7.14504e-06
7.29006e-06
7.43803e-06
7.589e-06
)
;
    }
    inandouthalf32
    {
        type            cyclic;
        value           nonuniform List<scalar> 
110
(
-9.24048e-07
-9.43146e-07
-9.626e-07
-9.82417e-07
-1.00261e-06
-1.02317e-06
-1.04413e-06
-1.06548e-06
-1.08723e-06
-1.10941e-06
-1.132e-06
-1.15503e-06
-1.1785e-06
-1.20242e-06
-1.22681e-06
-1.25167e-06
-1.27702e-06
-1.30286e-06
-1.32921e-06
-1.35608e-06
-1.38348e-06
-1.41142e-06
-1.43991e-06
-1.46897e-06
-1.49861e-06
-1.52885e-06
-1.55968e-06
-1.59113e-06
-1.62321e-06
-1.65594e-06
-1.68932e-06
-1.72338e-06
-1.75811e-06
-1.79354e-06
-1.82969e-06
-1.86661e-06
-1.90422e-06
-1.88856e-06
-1.92164e-06
-1.9551e-06
-1.98906e-06
-2.02352e-06
-2.0585e-06
-2.09403e-06
-2.13012e-06
-2.1668e-06
-2.20411e-06
-2.24197e-06
-2.28067e-06
-2.31984e-06
-2.36031e-06
-2.40104e-06
-2.44267e-06
-2.4859e-06
-2.53016e-06
-2.57467e-06
-2.62086e-06
-2.66829e-06
-2.71713e-06
-2.76748e-06
-2.81944e-06
-2.87311e-06
-2.92859e-06
-2.98594e-06
-3.04527e-06
-3.1066e-06
-3.16985e-06
-3.23514e-06
-3.30241e-06
-3.37162e-06
-3.44275e-06
-3.51574e-06
-3.59052e-06
-3.66703e-06
-3.74516e-06
-3.82482e-06
-3.90585e-06
-3.98802e-06
-4.07037e-06
-4.15319e-06
-4.23749e-06
-4.3235e-06
-4.41126e-06
-4.50079e-06
-4.59215e-06
-4.68536e-06
-4.78046e-06
-4.87749e-06
-4.97649e-06
-5.0775e-06
-5.18056e-06
-5.28571e-06
-5.39299e-06
-5.50246e-06
-5.61414e-06
-5.72809e-06
-5.84436e-06
-5.96298e-06
-6.08402e-06
-6.20751e-06
-6.3335e-06
-6.46205e-06
-6.59322e-06
-6.72704e-06
-6.86358e-06
-7.00289e-06
-7.14504e-06
-7.29006e-06
-7.43803e-06
-7.589e-06
)
;
    }
    inandouthalf41
    {
        type            cyclic;
        value           nonuniform List<scalar> 
50
(
6.79293e-06
6.79293e-06
6.79293e-06
6.79293e-06
6.79293e-06
6.79293e-06
6.79293e-06
6.79293e-06
6.79293e-06
6.79293e-06
6.79293e-06
6.79293e-06
6.79293e-06
6.79293e-06
6.79293e-06
6.79293e-06
6.79293e-06
6.79293e-06
6.79293e-06
6.79293e-06
6.79293e-06
6.79293e-06
6.79293e-06
6.79293e-06
6.79293e-06
6.79293e-06
6.79293e-06
6.79293e-06
6.79293e-06
6.79293e-06
6.79293e-06
6.79293e-06
6.79293e-06
6.79293e-06
6.79293e-06
6.79293e-06
6.79293e-06
6.79293e-06
6.79293e-06
6.79293e-06
6.79293e-06
6.79293e-06
6.79293e-06
6.79293e-06
6.79293e-06
6.79293e-06
6.79293e-06
6.79293e-06
6.79289e-06
6.792e-06
)
;
    }
    inandouthalf42
    {
        type            cyclic;
        value           nonuniform List<scalar> 
50
(
-6.79293e-06
-6.79293e-06
-6.79293e-06
-6.79293e-06
-6.79293e-06
-6.79293e-06
-6.79293e-06
-6.79293e-06
-6.79293e-06
-6.79293e-06
-6.79293e-06
-6.79293e-06
-6.79293e-06
-6.79293e-06
-6.79293e-06
-6.79293e-06
-6.79293e-06
-6.79293e-06
-6.79293e-06
-6.79293e-06
-6.79293e-06
-6.79293e-06
-6.79293e-06
-6.79293e-06
-6.79293e-06
-6.79293e-06
-6.79293e-06
-6.79293e-06
-6.79293e-06
-6.79293e-06
-6.79293e-06
-6.79293e-06
-6.79293e-06
-6.79293e-06
-6.79293e-06
-6.79293e-06
-6.79293e-06
-6.79293e-06
-6.79293e-06
-6.79293e-06
-6.79293e-06
-6.79293e-06
-6.79293e-06
-6.79293e-06
-6.79293e-06
-6.79293e-06
-6.79293e-06
-6.79293e-06
-6.79289e-06
-6.792e-06
)
;
    }
    top
    {
        type            symmetryPlane;
        value           uniform 0;
    }
    walls
    {
        type            fixedValue;
        value           uniform 0;
    }
    frontAndBackPlanes
    {
        type            empty;
        value           nonuniform 0();
    }
}


// ************************************************************************* //
