/*--------------------------------*- C++ -*----------------------------------*\
| =========                 |                                                 |
| \\      /  F ield         | OpenFOAM: The Open Source CFD Toolbox           |
|  \\    /   O peration     | Version:  2.4.x                                 |
|   \\  /    A nd           | Web:      www.OpenFOAM.org                      |
|    \\/     M anipulation  |                                                 |
\*---------------------------------------------------------------------------*/
FoamFile
{
    version     2.0;
    format      ascii;
    class       volVectorField;
    location    "11.95";
    object      U;
}
// * * * * * * * * * * * * * * * * * * * * * * * * * * * * * * * * * * * * * //

dimensions      [0 1 -1 0 0 0 0];

internalField   nonuniform List<vector> 
360
(
(-1.33902e-05 5.19776e-10 0)
(-1.32864e-05 -1.00192e-10 0)
(-1.32742e-05 -8.65525e-11 0)
(-1.32882e-05 1.48928e-11 0)
(-1.32953e-05 3.00988e-11 0)
(-1.32981e-05 1.56359e-11 0)
(-1.33016e-05 1.06469e-11 0)
(-1.33058e-05 1.2057e-11 0)
(-1.33102e-05 1.33396e-11 0)
(-1.33146e-05 1.35987e-11 0)
(-1.33191e-05 1.32057e-11 0)
(-1.33237e-05 1.23397e-11 0)
(-1.33283e-05 1.12853e-11 0)
(-1.33329e-05 1.01472e-11 0)
(-1.33376e-05 8.97362e-12 0)
(-1.33424e-05 7.74156e-12 0)
(-1.33473e-05 6.40562e-12 0)
(-1.33522e-05 5.01772e-12 0)
(-1.33571e-05 3.62066e-12 0)
(-1.33622e-05 2.29085e-12 0)
(-1.33672e-05 9.38041e-13 0)
(-1.33723e-05 -2.53416e-13 0)
(-1.33775e-05 -1.3894e-12 0)
(-1.33827e-05 -2.46416e-12 0)
(-1.33879e-05 -3.43583e-12 0)
(-1.33932e-05 -4.29838e-12 0)
(-1.33984e-05 -5.05912e-12 0)
(-1.34038e-05 -5.65268e-12 0)
(-1.34091e-05 -6.21628e-12 0)
(-1.34145e-05 -6.66815e-12 0)
(-1.34199e-05 -7.02825e-12 0)
(-1.34254e-05 -7.1836e-12 0)
(-1.34308e-05 -7.47882e-12 0)
(-1.34364e-05 -7.39387e-12 0)
(-1.34419e-05 -7.54105e-12 0)
(-1.34474e-05 -7.44716e-12 0)
(-1.3453e-05 -7.35721e-12 0)
(-1.34586e-05 -7.18888e-12 0)
(-1.34643e-05 -6.89223e-12 0)
(-1.34699e-05 -6.89096e-12 0)
(-1.34757e-05 -6.44116e-12 0)
(-1.34814e-05 -6.18932e-12 0)
(-1.34872e-05 -6.06713e-12 0)
(-1.34931e-05 -5.5201e-12 0)
(-1.34989e-05 -5.31195e-12 0)
(-1.35048e-05 -5.02345e-12 0)
(-1.35108e-05 -4.62018e-12 0)
(-1.35168e-05 -4.49457e-12 0)
(-1.35228e-05 -4.08001e-12 0)
(-1.35289e-05 -3.55855e-12 0)
(-1.3535e-05 -3.57673e-12 0)
(-1.35413e-05 -3.12807e-12 0)
(-1.35475e-05 -2.92438e-12 0)
(-1.35538e-05 -2.52254e-12 0)
(-1.35602e-05 -2.50513e-12 0)
(-1.35666e-05 -1.9491e-12 0)
(-1.35731e-05 -2.02041e-12 0)
(-1.35797e-05 -1.645e-12 0)
(-1.35863e-05 -1.45124e-12 0)
(-1.3593e-05 -1.5132e-12 0)
(-1.35998e-05 -9.19733e-13 0)
(-1.36066e-05 -1.05292e-12 0)
(-1.36135e-05 -6.94079e-13 0)
(-1.36205e-05 -6.81657e-13 0)
(-1.36276e-05 -5.10855e-13 0)
(-1.36347e-05 -4.76389e-13 0)
(-1.3642e-05 -3.15526e-13 0)
(-1.36493e-05 -2.34583e-13 0)
(-1.36567e-05 -1.57392e-13 0)
(-1.36642e-05 -2.6535e-13 0)
(-1.36718e-05 1.36882e-15 0)
(-1.36795e-05 2.13609e-13 0)
(-1.36873e-05 -1.49234e-13 0)
(-1.36952e-05 2.02757e-13 0)
(-1.37032e-05 9.36811e-14 0)
(-1.37113e-05 2.70468e-13 0)
(-1.37195e-05 6.95334e-14 0)
(-1.37279e-05 5.95404e-14 0)
(-1.37363e-05 7.97752e-14 0)
(-1.37449e-05 1.08471e-13 0)
(-1.37536e-05 -9.44626e-15 0)
(-1.37624e-05 2.58059e-14 0)
(-1.37714e-05 4.77286e-14 0)
(-1.37804e-05 -6.42112e-16 0)
(-1.37897e-05 -1.32407e-14 0)
(-1.3799e-05 -9.54001e-14 0)
(-1.38086e-05 -1.3171e-13 0)
(-1.38182e-05 -2.43245e-13 0)
(-1.38281e-05 -3.48654e-13 0)
(-1.38381e-05 -4.15338e-13 0)
(-1.38482e-05 -4.84736e-13 0)
(-1.38585e-05 -5.63531e-13 0)
(-1.38691e-05 -6.0018e-13 0)
(-1.38798e-05 -6.46988e-13 0)
(-1.38906e-05 -7.05456e-13 0)
(-1.39017e-05 -7.69901e-13 0)
(-1.3913e-05 -8.4245e-13 0)
(-1.39245e-05 -9.23753e-13 0)
(-1.39363e-05 -1.00594e-12 0)
(-1.39482e-05 -1.07825e-12 0)
(-1.39604e-05 -1.14292e-12 0)
(-1.39729e-05 -1.19664e-12 0)
(-1.39856e-05 -1.23516e-12 0)
(-1.39985e-05 -1.26354e-12 0)
(-1.40118e-05 -1.28378e-12 0)
(-1.40253e-05 -1.29505e-12 0)
(-1.40392e-05 -1.29866e-12 0)
(-1.40533e-05 -1.29588e-12 0)
(-1.40678e-05 -1.28818e-12 0)
(-1.40826e-05 -1.27908e-12 0)
(-1.40978e-05 -1.27389e-12 0)
(-1.41134e-05 -1.27974e-12 0)
(-1.41294e-05 -1.30549e-12 0)
(-1.41457e-05 -1.36088e-12 0)
(-1.41625e-05 -1.45626e-12 0)
(-1.41798e-05 -1.60129e-12 0)
(-1.41975e-05 -1.80367e-12 0)
(-1.42158e-05 -2.06714e-12 0)
(-1.42345e-05 -2.38918e-12 0)
(-1.42538e-05 -2.75896e-12 0)
(-1.42737e-05 -3.15487e-12 0)
(-1.42943e-05 -3.54243e-12 0)
(-1.43154e-05 -3.87276e-12 0)
(-1.43373e-05 -4.08424e-12 0)
(-1.43599e-05 -4.1078e-12 0)
(-1.43833e-05 -3.87844e-12 0)
(-1.44075e-05 -3.35287e-12 0)
(-1.44326e-05 -2.5293e-12 0)
(-1.44588e-05 -1.4718e-12 0)
(-1.44859e-05 -3.63764e-13 0)
(-1.45143e-05 3.77787e-13 0)
(-1.45438e-05 -4.37544e-14 0)
(-1.45747e-05 -2.67735e-12 0)
(-1.46073e-05 -8.25505e-12 0)
(-1.46421e-05 -1.70092e-11 0)
(-1.46791e-05 -2.88785e-11 0)
(-1.47182e-05 -4.1664e-11 0)
(-1.47598e-05 -5.04226e-11 0)
(-1.48057e-05 -4.89198e-11 0)
(-1.48578e-05 -2.71422e-11 0)
(-1.49139e-05 -3.24588e-11 0)
(-1.49806e-05 -1.31279e-09 0)
(-1.5443e-05 1.80438e-09 0)
(-1.5374e-05 -1.15451e-09 0)
(-1.54593e-05 2.37894e-08 0)
(-1.56491e-05 -1.62959e-07 0)
(-6.22421e-05 5.90071e-07 0)
(-0.0353867 -1.09907e-06 0)
(-0.144452 -7.77895e-06 0)
(-0.239168 1.41506e-07 0)
(-0.315942 -1.44975e-07 0)
(-0.380284 -3.22543e-07 0)
(-0.435365 -2.54259e-07 0)
(-0.483235 -2.36236e-07 0)
(-0.525347 -2.59754e-07 0)
(-0.562775 -2.95828e-07 0)
(-0.596342 -3.28176e-07 0)
(-0.626686 -3.48435e-07 0)
(-0.654311 -3.52939e-07 0)
(-0.679616 -3.42029e-07 0)
(-0.702918 -3.18974e-07 0)
(-0.724473 -2.87614e-07 0)
(-0.744485 -2.51995e-07 0)
(-0.763119 -2.15095e-07 0)
(-0.780508 -1.78957e-07 0)
(-0.796757 -1.45072e-07 0)
(-0.811954 -1.14303e-07 0)
(-0.826165 -8.68739e-08 0)
(-0.839446 -6.19854e-08 0)
(-0.851837 -3.8422e-08 0)
(-0.86337 -1.63283e-08 0)
(-0.874069 9.9884e-10 0)
(-0.883952 9.68063e-09 0)
(-0.893034 1.12848e-08 0)
(-0.901327 1.24804e-08 0)
(-0.908846 1.61738e-08 0)
(-0.91561 1.90873e-08 0)
(-0.921642 1.85119e-08 0)
(-0.926976 1.5341e-08 0)
(-0.931651 1.16257e-08 0)
(-0.935712 8.51154e-09 0)
(-0.939211 6.23142e-09 0)
(-0.9422 4.62737e-09 0)
(-0.944734 3.47191e-09 0)
(-0.946865 2.62814e-09 0)
(-0.948643 2.01146e-09 0)
(-0.950112 1.55745e-09 0)
(-0.951313 1.21901e-09 0)
(-0.952281 9.63374e-10 0)
(-0.953046 7.67907e-10 0)
(-0.953635 6.16773e-10 0)
(-0.95407 4.98706e-10 0)
(-0.95437 4.05596e-10 0)
(-0.954551 3.31535e-10 0)
(-0.954626 2.72213e-10 0)
(-0.954607 2.24334e-10 0)
(-0.954504 1.85497e-10 0)
(-0.954325 1.5383e-10 0)
(-0.954077 1.27932e-10 0)
(-0.953767 1.06757e-10 0)
(-0.953399 8.94825e-11 0)
(-0.952974 7.77078e-11 0)
(-0.952489 6.72947e-11 0)
(-0.951946 5.84569e-11 0)
(-0.951344 5.05863e-11 0)
(-0.950684 4.39848e-11 0)
(-0.949966 3.81613e-11 0)
(-0.949191 3.33463e-11 0)
(-0.948358 2.91091e-11 0)
(-0.947467 2.56107e-11 0)
(-0.946519 2.24788e-11 0)
(-0.945513 1.98406e-11 0)
(-0.94445 1.73809e-11 0)
(-0.943328 1.51447e-11 0)
(-0.942149 1.32158e-11 0)
(-0.940911 1.13001e-11 0)
(-0.939615 9.50947e-12 0)
(-0.93826 7.90175e-12 0)
(-0.936846 6.32618e-12 0)
(-0.935374 4.88753e-12 0)
(-0.933843 3.51806e-12 0)
(-0.932254 2.23013e-12 0)
(-0.930606 9.76856e-13 0)
(-0.928899 -1.80288e-13 0)
(-0.927134 -1.07102e-12 0)
(-0.925311 -1.56668e-12 0)
(-0.923431 -1.81931e-12 0)
(-0.921494 -2.35159e-12 0)
(-0.919501 -4.83521e-12 0)
(-0.917452 -1.27941e-11 0)
(-0.915349 -2.46106e-11 0)
(-0.913192 -2.04741e-11 0)
(-0.910983 1.72854e-11 0)
(-0.908723 4.72049e-11 0)
(-0.906414 5.00967e-12 0)
(-0.904059 -4.16009e-11 0)
(-0.901658 -6.92074e-14 0)
(-0.899215 4.38201e-12 0)
(-0.896732 1.27706e-11 0)
(-0.894213 6.6257e-12 0)
(-0.891662 3.99705e-12 0)
(-0.889081 2.6815e-12 0)
(-0.886476 1.65043e-12 0)
(-0.883852 8.37256e-13 0)
(-0.881215 -6.78643e-14 0)
(-0.878571 4.01421e-12 0)
(-0.875927 -1.45684e-11 0)
(-0.873291 2.71821e-11 0)
(-0.870673 -3.84161e-11 0)
(-0.868081 4.44107e-11 0)
(-0.865529 -3.94776e-11 0)
(-0.863026 3.67051e-11 0)
(-0.860588 2.26788e-12 0)
(-0.858229 8.73832e-12 0)
(-0.855966 -4.94813e-13 0)
(-0.853815 -1.65313e-13 0)
(-0.851795 4.92498e-13 0)
(-0.849925 5.05993e-13 0)
(-0.848224 3.82387e-13 0)
(-0.84671 3.01214e-13 0)
(-0.845401 2.42915e-13 0)
(-0.844309 1.88189e-13 0)
(-0.843445 1.34926e-13 0)
(-0.842812 8.35501e-14 0)
(-0.842408 3.20625e-14 0)
(-0.842225 -1.93151e-14 0)
(-0.84225 -7.04059e-14 0)
(-0.842463 -1.27988e-13 0)
(-0.842844 -1.75026e-13 0)
(-0.843368 -6.58098e-14 0)
(-0.84401 4.37929e-13 0)
(-0.844743 -5.42225e-12 0)
(-0.845541 1.53293e-11 0)
(-0.846376 -3.41227e-11 0)
(-0.847216 6.02502e-11 0)
(-0.84803 -9.67008e-11 0)
(-0.848779 1.40023e-10 0)
(-0.849416 -1.9184e-10 0)
(-0.849766 2.47008e-10 0)
(-0.849817 -3.06618e-10 0)
(-0.849818 3.66291e-10 0)
(-0.849818 -4.28782e-10 0)
(-0.849818 4.9094e-10 0)
(-0.849818 -5.55979e-10 0)
(-0.849818 6.20785e-10 0)
(-0.849818 -6.88514e-10 0)
(-0.849818 7.5616e-10 0)
(-0.849818 -8.26676e-10 0)
(-0.849818 8.97341e-10 0)
(-0.849818 -9.70742e-10 0)
(-0.849818 1.04451e-09 0)
(-0.849818 -1.12087e-09 0)
(-0.849818 1.19785e-09 0)
(-0.849818 -1.27719e-09 0)
(-0.849818 1.35743e-09 0)
(-0.849818 -1.43976e-09 0)
(-0.849818 1.52327e-09 0)
(-0.849818 -1.60864e-09 0)
(-0.849818 1.69531e-09 0)
(-0.849818 -1.78376e-09 0)
(-0.849818 1.87355e-09 0)
(-0.849818 -1.96498e-09 0)
(-0.849818 2.05778e-09 0)
(-0.849818 -2.15213e-09 0)
(-0.849818 2.24782e-09 0)
(-0.849818 -2.34494e-09 0)
(-0.849818 2.44336e-09 0)
(-0.849818 -2.54307e-09 0)
(-0.849818 2.644e-09 0)
(-0.849818 -2.74606e-09 0)
(-0.849818 2.50258e-09 0)
(-0.849818 -2.54896e-09 0)
(-0.849818 2.59482e-09 0)
(-0.849818 -2.64007e-09 0)
(-0.849818 2.68482e-09 0)
(-0.849818 -2.72894e-09 0)
(-0.849818 2.77257e-09 0)
(-0.849818 -2.81555e-09 0)
(-0.849818 2.85804e-09 0)
(-0.849818 -2.89986e-09 0)
(-0.849818 2.94119e-09 0)
(-0.849818 -2.98185e-09 0)
(-0.849818 3.022e-09 0)
(-0.849818 -3.06147e-09 0)
(-0.849818 3.10042e-09 0)
(-0.849818 -3.13868e-09 0)
(-0.849818 3.1764e-09 0)
(-0.849818 -3.21344e-09 0)
(-0.849818 3.24992e-09 0)
(-0.849818 -3.28566e-09 0)
(-0.849818 3.32093e-09 0)
(-0.849818 -3.35534e-09 0)
(-0.849818 3.38932e-09 0)
(-0.849818 -3.4224e-09 0)
(-0.849818 3.45502e-09 0)
(-0.849818 -3.48679e-09 0)
(-0.849818 3.51794e-09 0)
(-0.849818 -3.54838e-09 0)
(-0.849818 3.57801e-09 0)
(-0.849818 -3.6071e-09 0)
(-0.849818 3.63505e-09 0)
(-0.849818 -3.66283e-09 0)
(-0.849818 3.68897e-09 0)
(-0.849818 -3.71543e-09 0)
(-0.849818 3.73957e-09 0)
(-0.849818 -3.76472e-09 0)
(-0.849818 3.7867e-09 0)
(-0.849818 -3.81041e-09 0)
(-0.849818 3.83015e-09 0)
(-0.849818 -3.85221e-09 0)
(-0.849818 3.86964e-09 0)
(-0.849818 -3.88965e-09 0)
(-0.849818 3.90466e-09 0)
(-0.849818 -3.92236e-09 0)
(-0.849818 3.93461e-09 0)
(-0.849818 -3.9492e-09 0)
(-0.849818 3.95875e-09 0)
(-0.849818 -3.96857e-09 0)
(-0.849818 3.97465e-09 0)
(-0.849818 -3.97741e-09 0)
)
;

boundaryField
{
    inandouthalf11
    {
        type            cyclic;
    }
    inandouthalf12
    {
        type            cyclic;
    }
    inandouthalf21
    {
        type            cyclic;
    }
    inandouthalf22
    {
        type            cyclic;
    }
    inandouthalf31
    {
        type            cyclic;
    }
    inandouthalf32
    {
        type            cyclic;
    }
    inandouthalf41
    {
        type            cyclic;
    }
    inandouthalf42
    {
        type            cyclic;
    }
    top
    {
        type            symmetryPlane;
    }
    walls
    {
        type            calculated;
        value           uniform (0 0 0);
    }
    frontAndBackPlanes
    {
        type            empty;
    }
}


// ************************************************************************* //
