/*--------------------------------*- C++ -*----------------------------------*\
| =========                 |                                                 |
| \\      /  F ield         | OpenFOAM: The Open Source CFD Toolbox           |
|  \\    /   O peration     | Version:  2.4.x                                 |
|   \\  /    A nd           | Web:      www.OpenFOAM.org                      |
|    \\/     M anipulation  |                                                 |
\*---------------------------------------------------------------------------*/
FoamFile
{
    version     2.0;
    format      ascii;
    class       volVectorField;
    location    "11.95";
    object      Ub;
}
// * * * * * * * * * * * * * * * * * * * * * * * * * * * * * * * * * * * * * //

dimensions      [0 1 -1 0 0 0 0];

internalField   nonuniform List<vector> 
360
(
(-3.44128e-05 1.33583e-09 0)
(-3.42211e-05 4.72552e-09 0)
(-3.41962e-05 8.71297e-09 0)
(-3.42229e-05 1.25281e-08 0)
(-3.4236e-05 1.64123e-08 0)
(-3.42407e-05 2.04914e-08 0)
(-3.42466e-05 2.47322e-08 0)
(-3.4254e-05 2.91013e-08 0)
(-3.42616e-05 3.35966e-08 0)
(-3.42692e-05 3.82251e-08 0)
(-3.4277e-05 4.299e-08 0)
(-3.42848e-05 4.7887e-08 0)
(-3.42927e-05 5.29075e-08 0)
(-3.43007e-05 5.80408e-08 0)
(-3.43087e-05 6.32746e-08 0)
(-3.43169e-05 6.85967e-08 0)
(-3.43252e-05 7.39939e-08 0)
(-3.43336e-05 7.94521e-08 0)
(-3.43421e-05 8.49567e-08 0)
(-3.43506e-05 9.04935e-08 0)
(-3.43592e-05 9.60477e-08 0)
(-3.4368e-05 1.01606e-07 0)
(-3.43768e-05 1.07155e-07 0)
(-3.43856e-05 1.12683e-07 0)
(-3.43946e-05 1.18179e-07 0)
(-3.44036e-05 1.23632e-07 0)
(-3.44127e-05 1.29033e-07 0)
(-3.44219e-05 1.34374e-07 0)
(-3.44311e-05 1.39649e-07 0)
(-3.44404e-05 1.44851e-07 0)
(-3.44498e-05 1.49975e-07 0)
(-3.44593e-05 1.55018e-07 0)
(-3.44687e-05 1.59977e-07 0)
(-3.44784e-05 1.6485e-07 0)
(-3.4488e-05 1.69636e-07 0)
(-3.44978e-05 1.74334e-07 0)
(-3.45076e-05 1.78944e-07 0)
(-3.45175e-05 1.83467e-07 0)
(-3.45275e-05 1.87906e-07 0)
(-3.45375e-05 1.9226e-07 0)
(-3.45477e-05 1.96532e-07 0)
(-3.45579e-05 2.00726e-07 0)
(-3.45682e-05 2.04843e-07 0)
(-3.45786e-05 2.08885e-07 0)
(-3.45891e-05 2.12857e-07 0)
(-3.45997e-05 2.16761e-07 0)
(-3.46104e-05 2.206e-07 0)
(-3.46211e-05 2.24376e-07 0)
(-3.46321e-05 2.28093e-07 0)
(-3.46431e-05 2.31754e-07 0)
(-3.46542e-05 2.35362e-07 0)
(-3.46654e-05 2.3892e-07 0)
(-3.46768e-05 2.4243e-07 0)
(-3.46883e-05 2.45896e-07 0)
(-3.46998e-05 2.49318e-07 0)
(-3.47116e-05 2.52701e-07 0)
(-3.47234e-05 2.56046e-07 0)
(-3.47354e-05 2.59356e-07 0)
(-3.47475e-05 2.62632e-07 0)
(-3.47597e-05 2.65875e-07 0)
(-3.47722e-05 2.69089e-07 0)
(-3.47846e-05 2.72274e-07 0)
(-3.47974e-05 2.75433e-07 0)
(-3.48102e-05 2.78567e-07 0)
(-3.48232e-05 2.81677e-07 0)
(-3.48364e-05 2.84763e-07 0)
(-3.48497e-05 2.87828e-07 0)
(-3.48633e-05 2.90872e-07 0)
(-3.4877e-05 2.93895e-07 0)
(-3.48908e-05 2.96897e-07 0)
(-3.49049e-05 2.99881e-07 0)
(-3.49192e-05 3.02846e-07 0)
(-3.49335e-05 3.05793e-07 0)
(-3.49482e-05 3.08722e-07 0)
(-3.4963e-05 3.11633e-07 0)
(-3.49781e-05 3.14528e-07 0)
(-3.49934e-05 3.17406e-07 0)
(-3.50089e-05 3.20265e-07 0)
(-3.50246e-05 3.23107e-07 0)
(-3.50406e-05 3.25931e-07 0)
(-3.50568e-05 3.28736e-07 0)
(-3.50732e-05 3.31522e-07 0)
(-3.509e-05 3.3429e-07 0)
(-3.51069e-05 3.37039e-07 0)
(-3.51242e-05 3.39768e-07 0)
(-3.51417e-05 3.42478e-07 0)
(-3.51596e-05 3.45168e-07 0)
(-3.51777e-05 3.47837e-07 0)
(-3.51961e-05 3.50484e-07 0)
(-3.52148e-05 3.53108e-07 0)
(-3.52339e-05 3.55709e-07 0)
(-3.52533e-05 3.58286e-07 0)
(-3.52731e-05 3.60837e-07 0)
(-3.52932e-05 3.63364e-07 0)
(-3.53137e-05 3.65864e-07 0)
(-3.53346e-05 3.68339e-07 0)
(-3.53559e-05 3.70786e-07 0)
(-3.53776e-05 3.73206e-07 0)
(-3.53998e-05 3.75598e-07 0)
(-3.54224e-05 3.77961e-07 0)
(-3.54454e-05 3.80294e-07 0)
(-3.5469e-05 3.82597e-07 0)
(-3.5493e-05 3.8487e-07 0)
(-3.55176e-05 3.87112e-07 0)
(-3.55427e-05 3.89323e-07 0)
(-3.55684e-05 3.91504e-07 0)
(-3.55947e-05 3.93654e-07 0)
(-3.56216e-05 3.95773e-07 0)
(-3.56491e-05 3.97862e-07 0)
(-3.56773e-05 3.99922e-07 0)
(-3.57062e-05 4.01952e-07 0)
(-3.57359e-05 4.03952e-07 0)
(-3.57662e-05 4.05924e-07 0)
(-3.57974e-05 4.07868e-07 0)
(-3.58295e-05 4.09782e-07 0)
(-3.58624e-05 4.11667e-07 0)
(-3.58962e-05 4.13521e-07 0)
(-3.59309e-05 4.15343e-07 0)
(-3.59667e-05 4.17132e-07 0)
(-3.60036e-05 4.18883e-07 0)
(-3.60416e-05 4.20595e-07 0)
(-3.60808e-05 4.22264e-07 0)
(-3.61213e-05 4.23888e-07 0)
(-3.61631e-05 4.25462e-07 0)
(-3.62064e-05 4.26988e-07 0)
(-3.62511e-05 4.28465e-07 0)
(-3.62974e-05 4.29897e-07 0)
(-3.63455e-05 4.31291e-07 0)
(-3.63954e-05 4.32656e-07 0)
(-3.64474e-05 4.34006e-07 0)
(-3.65016e-05 4.3535e-07 0)
(-3.6558e-05 4.36696e-07 0)
(-3.6617e-05 4.38041e-07 0)
(-3.66793e-05 4.39363e-07 0)
(-3.67458e-05 4.40616e-07 0)
(-3.68166e-05 4.41717e-07 0)
(-3.68914e-05 4.42546e-07 0)
(-3.69713e-05 4.42997e-07 0)
(-3.70595e-05 4.43039e-07 0)
(-3.71601e-05 4.42757e-07 0)
(-3.72685e-05 4.42193e-07 0)
(-3.73974e-05 4.38252e-07 0)
(-3.82866e-05 4.40938e-07 0)
(-3.81544e-05 4.34552e-07 0)
(-3.83179e-05 4.95835e-07 0)
(-3.87089e-05 2.98143e-08 0)
(-0.000153185 1.88263e-06 0)
(-0.03698 -6.89495e-06 0)
(-0.147342 -5.33126e-05 0)
(-0.24115 -4.41712e-05 0)
(-0.317378 -4.27665e-05 0)
(-0.381313 -3.91087e-05 0)
(-0.436113 -3.65155e-05 0)
(-0.483789 -3.52841e-05 0)
(-0.525766 -3.52115e-05 0)
(-0.5631 -3.58509e-05 0)
(-0.596601 -3.67129e-05 0)
(-0.6269 -3.73907e-05 0)
(-0.654493 -3.76166e-05 0)
(-0.679774 -3.72602e-05 0)
(-0.70306 -3.63e-05 0)
(-0.724602 -3.47872e-05 0)
(-0.744603 -3.28135e-05 0)
(-0.763228 -3.04874e-05 0)
(-0.780609 -2.79191e-05 0)
(-0.796851 -2.52106e-05 0)
(-0.812041 -2.24509e-05 0)
(-0.826246 -1.97141e-05 0)
(-0.839519 -1.70594e-05 0)
(-0.851903 -1.45288e-05 0)
(-0.86343 -1.21448e-05 0)
(-0.874122 -9.91409e-06 0)
(-0.883999 -7.84707e-06 0)
(-0.893075 -5.97954e-06 0)
(-0.901362 -4.37033e-06 0)
(-0.908876 -3.06671e-06 0)
(-0.915635 -2.07123e-06 0)
(-0.921664 -1.34216e-06 0)
(-0.926995 -8.19086e-07 0)
(-0.931667 -4.45774e-07 0)
(-0.935727 -1.78988e-07 0)
(-0.939224 1.202e-08 0)
(-0.942211 1.48644e-07 0)
(-0.944744 2.45796e-07 0)
(-0.946874 3.1403e-07 0)
(-0.948651 3.60884e-07 0)
(-0.950119 3.91793e-07 0)
(-0.951319 4.10727e-07 0)
(-0.952287 4.20625e-07 0)
(-0.953051 4.23683e-07 0)
(-0.95364 4.21566e-07 0)
(-0.954075 4.1554e-07 0)
(-0.954374 4.06585e-07 0)
(-0.954555 3.95456e-07 0)
(-0.954629 3.82744e-07 0)
(-0.95461 3.68914e-07 0)
(-0.954507 3.5433e-07 0)
(-0.954328 3.39282e-07 0)
(-0.954079 3.23997e-07 0)
(-0.953769 3.08658e-07 0)
(-0.953401 2.9341e-07 0)
(-0.952976 2.78212e-07 0)
(-0.952491 2.63015e-07 0)
(-0.951947 2.47913e-07 0)
(-0.951345 2.32988e-07 0)
(-0.950685 2.18318e-07 0)
(-0.949967 2.0397e-07 0)
(-0.949192 1.90008e-07 0)
(-0.948359 1.76485e-07 0)
(-0.947468 1.63449e-07 0)
(-0.94652 1.50938e-07 0)
(-0.945514 1.38983e-07 0)
(-0.94445 1.27606e-07 0)
(-0.943329 1.16821e-07 0)
(-0.942149 1.06631e-07 0)
(-0.940911 9.70358e-08 0)
(-0.939615 8.80267e-08 0)
(-0.93826 7.95907e-08 0)
(-0.936847 7.17117e-08 0)
(-0.935374 6.43716e-08 0)
(-0.933843 5.75516e-08 0)
(-0.932254 5.12325e-08 0)
(-0.930606 4.53958e-08 0)
(-0.928899 4.00234e-08 0)
(-0.927134 3.50973e-08 0)
(-0.925311 3.05991e-08 0)
(-0.923431 2.65075e-08 0)
(-0.921494 2.27934e-08 0)
(-0.919501 1.9413e-08 0)
(-0.917452 1.63064e-08 0)
(-0.915349 1.34162e-08 0)
(-0.913192 1.07454e-08 0)
(-0.910983 8.4237e-09 0)
(-0.908723 6.65268e-09 0)
(-0.906414 5.47801e-09 0)
(-0.904059 4.67374e-09 0)
(-0.901658 3.99411e-09 0)
(-0.899215 3.34505e-09 0)
(-0.896732 2.73364e-09 0)
(-0.894213 2.19685e-09 0)
(-0.891662 1.73778e-09 0)
(-0.889081 1.35042e-09 0)
(-0.886476 1.02866e-09 0)
(-0.883852 7.66401e-10 0)
(-0.881215 5.57022e-10 0)
(-0.878571 3.9357e-10 0)
(-0.875927 2.69093e-10 0)
(-0.873291 1.76885e-10 0)
(-0.870673 1.1065e-10 0)
(-0.868081 6.42342e-11 0)
(-0.865529 3.30225e-11 0)
(-0.863026 1.74561e-11 0)
(-0.860588 1.55557e-11 0)
(-0.858229 8.73832e-12 0)
(-0.855966 -4.94813e-13 0)
(-0.853815 -1.65313e-13 0)
(-0.851795 4.92498e-13 0)
(-0.849925 5.05993e-13 0)
(-0.848224 3.82387e-13 0)
(-0.84671 3.01214e-13 0)
(-0.845401 2.42915e-13 0)
(-0.844309 1.88189e-13 0)
(-0.843445 1.34926e-13 0)
(-0.842812 8.35501e-14 0)
(-0.842408 3.20625e-14 0)
(-0.842225 -1.93151e-14 0)
(-0.84225 -7.04059e-14 0)
(-0.842463 -1.27988e-13 0)
(-0.842844 -1.75026e-13 0)
(-0.843368 -6.58098e-14 0)
(-0.84401 4.37929e-13 0)
(-0.844743 -5.42225e-12 0)
(-0.845541 1.53293e-11 0)
(-0.846376 -3.41227e-11 0)
(-0.847216 6.02502e-11 0)
(-0.84803 -9.67008e-11 0)
(-0.848779 1.40023e-10 0)
(-0.849416 -1.9184e-10 0)
(-0.849766 2.47008e-10 0)
(-0.849817 -3.06618e-10 0)
(-0.849818 3.66291e-10 0)
(-0.849818 -4.28782e-10 0)
(-0.849818 4.9094e-10 0)
(-0.849818 -5.55979e-10 0)
(-0.849818 6.20785e-10 0)
(-0.849818 -6.88514e-10 0)
(-0.849818 7.5616e-10 0)
(-0.849818 -8.26676e-10 0)
(-0.849818 8.97341e-10 0)
(-0.849818 -9.70742e-10 0)
(-0.849818 1.04451e-09 0)
(-0.849818 -1.12087e-09 0)
(-0.849818 1.19785e-09 0)
(-0.849818 -1.27719e-09 0)
(-0.849818 1.35743e-09 0)
(-0.849818 -1.43976e-09 0)
(-0.849818 1.52327e-09 0)
(-0.849818 -1.60864e-09 0)
(-0.849818 1.69531e-09 0)
(-0.849818 -1.78376e-09 0)
(-0.849818 1.87355e-09 0)
(-0.849818 -1.96498e-09 0)
(-0.849818 2.05778e-09 0)
(-0.849818 -2.15213e-09 0)
(-0.849818 2.24782e-09 0)
(-0.849818 -2.34494e-09 0)
(-0.849818 2.44336e-09 0)
(-0.849818 -2.54307e-09 0)
(-0.849818 2.644e-09 0)
(-0.849818 -2.74606e-09 0)
(-0.849818 2.50258e-09 0)
(-0.849818 -2.54896e-09 0)
(-0.849818 2.59482e-09 0)
(-0.849818 -2.64007e-09 0)
(-0.849818 2.68482e-09 0)
(-0.849818 -2.72894e-09 0)
(-0.849818 2.77257e-09 0)
(-0.849818 -2.81555e-09 0)
(-0.849818 2.85804e-09 0)
(-0.849818 -2.89986e-09 0)
(-0.849818 2.94119e-09 0)
(-0.849818 -2.98185e-09 0)
(-0.849818 3.022e-09 0)
(-0.849818 -3.06147e-09 0)
(-0.849818 3.10042e-09 0)
(-0.849818 -3.13868e-09 0)
(-0.849818 3.1764e-09 0)
(-0.849818 -3.21344e-09 0)
(-0.849818 3.24992e-09 0)
(-0.849818 -3.28566e-09 0)
(-0.849818 3.32093e-09 0)
(-0.849818 -3.35534e-09 0)
(-0.849818 3.38932e-09 0)
(-0.849818 -3.4224e-09 0)
(-0.849818 3.45502e-09 0)
(-0.849818 -3.48679e-09 0)
(-0.849818 3.51794e-09 0)
(-0.849818 -3.54838e-09 0)
(-0.849818 3.57801e-09 0)
(-0.849818 -3.6071e-09 0)
(-0.849818 3.63505e-09 0)
(-0.849818 -3.66283e-09 0)
(-0.849818 3.68897e-09 0)
(-0.849818 -3.71543e-09 0)
(-0.849818 3.73957e-09 0)
(-0.849818 -3.76472e-09 0)
(-0.849818 3.7867e-09 0)
(-0.849818 -3.81041e-09 0)
(-0.849818 3.83015e-09 0)
(-0.849818 -3.85221e-09 0)
(-0.849818 3.86964e-09 0)
(-0.849818 -3.88965e-09 0)
(-0.849818 3.90466e-09 0)
(-0.849818 -3.92236e-09 0)
(-0.849818 3.93461e-09 0)
(-0.849818 -3.9492e-09 0)
(-0.849818 3.95875e-09 0)
(-0.849818 -3.96857e-09 0)
(-0.849818 3.97465e-09 0)
(-0.849818 -3.97741e-09 0)
)
;

boundaryField
{
    inandouthalf11
    {
        type            cyclic;
    }
    inandouthalf12
    {
        type            cyclic;
    }
    inandouthalf21
    {
        type            cyclic;
    }
    inandouthalf22
    {
        type            cyclic;
    }
    inandouthalf31
    {
        type            cyclic;
    }
    inandouthalf32
    {
        type            cyclic;
    }
    inandouthalf41
    {
        type            cyclic;
    }
    inandouthalf42
    {
        type            cyclic;
    }
    top
    {
        type            symmetryPlane;
    }
    walls
    {
        type            fixedValue;
        value           uniform (0 0 0);
    }
    frontAndBackPlanes
    {
        type            empty;
    }
}


// ************************************************************************* //
