/*--------------------------------*- C++ -*----------------------------------*\
| =========                 |                                                 |
| \\      /  F ield         | OpenFOAM: The Open Source CFD Toolbox           |
|  \\    /   O peration     | Version:  2.4.x                                 |
|   \\  /    A nd           | Web:      www.OpenFOAM.org                      |
|    \\/     M anipulation  |                                                 |
\*---------------------------------------------------------------------------*/
FoamFile
{
    version     2.0;
    format      ascii;
    class       volScalarField;
    location    "1.8";
    object      alpha;
}
// * * * * * * * * * * * * * * * * * * * * * * * * * * * * * * * * * * * * * //

dimensions      [0 0 0 0 0 0 0];

internalField   nonuniform List<scalar> 
360
(
0.609996
0.609996
0.609995
0.609995
0.609995
0.609994
0.609994
0.609993
0.609993
0.609992
0.609991
0.609991
0.60999
0.609989
0.609988
0.609987
0.609986
0.609985
0.609984
0.609982
0.609981
0.609979
0.609977
0.609975
0.609973
0.609971
0.609969
0.609966
0.609963
0.60996
0.609957
0.609953
0.60995
0.609945
0.609941
0.609936
0.609931
0.609925
0.609918
0.609912
0.609904
0.609896
0.609888
0.609878
0.609868
0.609857
0.609845
0.609833
0.609819
0.609803
0.609787
0.609769
0.60975
0.609729
0.609707
0.609682
0.609656
0.609627
0.609596
0.609563
0.609526
0.609487
0.609444
0.609398
0.609348
0.609294
0.609235
0.609171
0.609102
0.609028
0.608947
0.608859
0.608769
0.608695
0.608669
0.608684
0.608701
0.608693
0.608659
0.608607
0.608547
0.608482
0.608418
0.608357
0.6083
0.608245
0.608191
0.608136
0.608079
0.60802
0.607959
0.607896
0.607833
0.607768
0.607703
0.607637
0.607569
0.6075
0.60743
0.607358
0.607284
0.607209
0.607132
0.607053
0.606972
0.606889
0.606805
0.606718
0.606628
0.606537
0.606443
0.606347
0.606247
0.606146
0.606041
0.605933
0.605822
0.605709
0.605591
0.605471
0.605346
0.605218
0.605086
0.60495
0.604809
0.604663
0.604514
0.60436
0.604202
0.604041
0.603875
0.603701
0.603515
0.603311
0.603087
0.602854
0.602628
0.602414
0.602196
0.601958
0.601717
0.601515
0.601231
0.600806
0.600254
0.599543
0.598644
0.597444
0.5949
0.442086
0.223671
0.114251
0.0739299
0.0495322
0.0306844
0.0164768
0.0074753
0.00288361
0.00104176
0.00046307
0.000288413
0.000207379
0.000164437
0.000128837
0.0001098
9.02762e-05
7.64821e-05
6.72897e-05
5.65167e-05
5.08326e-05
4.33115e-05
3.94455e-05
3.36619e-05
3.08387e-05
2.68185e-05
2.47363e-05
2.12787e-05
1.96618e-05
1.75698e-05
1.56388e-05
1.44152e-05
1.26771e-05
1.18233e-05
1.03658e-05
9.6637e-06
8.55787e-06
8.01273e-06
7.00898e-06
6.52387e-06
5.9738e-06
5.31333e-06
4.95595e-06
4.3937e-06
4.134e-06
3.69703e-06
3.47178e-06
3.03464e-06
2.81252e-06
2.5528e-06
2.42254e-06
2.1769e-06
1.99872e-06
1.75716e-06
1.58815e-06
1.50633e-06
1.38328e-06
1.25688e-06
1.06589e-06
9.70162e-07
9.13555e-07
8.34721e-07
7.1117e-07
6.36267e-07
5.97821e-07
5.35897e-07
4.45423e-07
3.98673e-07
3.74077e-07
3.34472e-07
2.77527e-07
2.42568e-07
2.23718e-07
1.92276e-07
1.62623e-07
1.49131e-07
1.28468e-07
1.04236e-07
9.40033e-08
8.35389e-08
6.72886e-08
5.83769e-08
5.15526e-08
4.18306e-08
3.69278e-08
2.92068e-08
2.57333e-08
2.06763e-08
1.81303e-08
1.39677e-08
1.22194e-08
1.11787e-08
1.08616e-08
1.0748e-08
1.04882e-08
7.68254e-09
5.14824e-10
2.5007e-10
2.16115e-10
1.6223e-10
1.36439e-10
1.17673e-10
8.64507e-11
7.11725e-11
5.29034e-11
4.32538e-11
3.73817e-11
2.62682e-11
1.9216e-11
1.62578e-11
1.31004e-11
8.69573e-12
6.76513e-12
5.69743e-12
4.03285e-12
2.76316e-12
2.25757e-12
1.76702e-12
1.13456e-12
8.56738e-13
6.58922e-13
4.37057e-13
3.35103e-13
2.16067e-13
1.65886e-13
1.07159e-13
7.92052e-14
4.85592e-14
3.68529e-14
2.44359e-14
1.54114e-14
1.1242e-14
6.93151e-15
4.96745e-15
2.85345e-15
1.97864e-15
1.19356e-15
8.27851e-16
4.37455e-16
2.85809e-16
1.79051e-16
1.0426e-16
6.98712e-17
3.74139e-17
2.30341e-17
1.08501e-17
5.46159e-18
1.8092e-18
6.73631e-19
2.44433e-19
8.29877e-20
2.62137e-20
7.62902e-21
2.0173e-21
4.77537e-22
9.92679e-23
1.76723e-23
2.60123e-24
2.99881e-25
2.453e-26
1.09926e-27
2.50083e-29
8.82913e-31
1.5375e-32
1.58632e-43
8.16134e-55
2.96538e-66
8.06715e-78
1.847e-89
8.38021e-101
6.48666e-112
1.72047e-119
2.54692e-130
5.91561e-138
8.69137e-149
2.0348e-156
3.63141e-167
6.99667e-175
1.62596e-185
2.40686e-193
1.13909e-203
8.31401e-212
7.71511e-222
2.89014e-230
3.97484e-240
1.01141e-248
1.88822e-258
3.56823e-267
8.35313e-277
1.26856e-285
3.56194e-295
4.54813e-304
1.46765e-313
1.44267e-321
8.5424e-321
0
0
0
0
0
0
0
0
0
0
0
0
0
0
0
0
)
;

boundaryField
{
    inandouthalf11
    {
        type            cyclic;
    }
    inandouthalf12
    {
        type            cyclic;
    }
    inandouthalf21
    {
        type            cyclic;
    }
    inandouthalf22
    {
        type            cyclic;
    }
    inandouthalf31
    {
        type            cyclic;
    }
    inandouthalf32
    {
        type            cyclic;
    }
    inandouthalf41
    {
        type            cyclic;
    }
    inandouthalf42
    {
        type            cyclic;
    }
    top
    {
        type            symmetryPlane;
    }
    walls
    {
        type            zeroGradient;
    }
    frontAndBackPlanes
    {
        type            empty;
    }
}


// ************************************************************************* //
