/*--------------------------------*- C++ -*----------------------------------*\
| =========                 |                                                 |
| \\      /  F ield         | OpenFOAM: The Open Source CFD Toolbox           |
|  \\    /   O peration     | Version:  2.4.x                                 |
|   \\  /    A nd           | Web:      www.OpenFOAM.org                      |
|    \\/     M anipulation  |                                                 |
\*---------------------------------------------------------------------------*/
FoamFile
{
    version     2.0;
    format      ascii;
    class       volVectorField;
    location    "1.8";
    object      gradPs;
}
// * * * * * * * * * * * * * * * * * * * * * * * * * * * * * * * * * * * * * //

dimensions      [0 1 -2 0 0 0 0];

internalField   nonuniform List<vector> 
360
(
(0 3.69801e-26 0)
(0 -1.76839e-21 0)
(0 -1.76843e-21 0)
(0 7.3416e-29 0)
(-1.45436e-32 -1.76841e-21 0)
(-2.90872e-32 -1.76841e-21 0)
(-1.45436e-32 -1.76839e-21 0)
(0 -1.76839e-21 0)
(-2.90873e-32 -1.76837e-21 0)
(0 -3.53673e-21 0)
(-2.90873e-32 -1.76836e-21 0)
(0 -1.76834e-21 0)
(-1.45437e-32 -3.53666e-21 0)
(0 -3.53663e-21 0)
(0 -3.53659e-21 0)
(0 -3.53656e-21 0)
(0 -3.53652e-21 0)
(-2.90876e-32 -3.53649e-21 0)
(0 -5.30465e-21 0)
(0 -5.30461e-21 0)
(0 -5.30449e-21 0)
(-2.90879e-32 -7.07256e-21 0)
(0 -7.07242e-21 0)
(0 -7.07228e-21 0)
(0 -7.07214e-21 0)
(-1.45442e-32 -7.072e-21 0)
(0 -8.83977e-21 0)
(0 -1.06075e-20 0)
(0 -1.06072e-20 0)
(0 -1.06068e-20 0)
(0 -1.23742e-20 0)
(0 -1.23739e-20 0)
(0 -1.41409e-20 0)
(0 -1.5908e-20 0)
(0 -1.59072e-20 0)
(1.4545e-32 -1.76739e-20 0)
(0 -1.94402e-20 0)
(0 -2.29734e-20 0)
(0 -2.29721e-20 0)
(0 -2.47373e-20 0)
(0 -2.82692e-20 0)
(0 -2.8267e-20 0)
(1.45461e-32 -3.17975e-20 0)
(0 -3.53275e-20 0)
(0 -3.709e-20 0)
(0 -4.06179e-20 0)
(0 -4.23791e-20 0)
(0 -4.59048e-20 0)
(0 -5.29597e-20 0)
(0 -5.64821e-20 0)
(2.90971e-32 -6.0002e-20 0)
(0 -6.52851e-20 0)
(0 -7.05648e-20 0)
(0 -7.58418e-20 0)
(0 -8.28779e-20 0)
(0 -8.99102e-20 0)
(0 -9.69359e-20 0)
(0 -1.05719e-19 0)
(0 -1.12732e-19 0)
(0 -1.23259e-19 0)
(0 -1.33777e-19 0)
(0 -1.44281e-19 0)
(0 -1.56532e-19 0)
(0 -1.68766e-19 0)
(0 -1.82739e-19 0)
(0 -1.98446e-19 0)
(0 -2.15882e-19 0)
(0 -2.33286e-19 0)
(0 -2.50656e-19 0)
(0 -2.71488e-19 0)
(0 -2.95383e-19 0)
(0 -1.80542e-19 0)
(0 2.71843e-18 0)
(0 1.45611e-17 0)
(0 2.1747e-17 0)
(0 4.67945e-18 0)
(0 -1.37298e-17 0)
(0 -1.31991e-17 0)
(0 -6.722e-18 0)
(0 -2.67072e-18 0)
(0 -6.2689e-19 0)
(0 5.23719e-19 0)
(0 1.18955e-18 0)
(0 1.41127e-18 0)
(0 1.21736e-18 0)
(0 7.91677e-19 0)
(0 3.97285e-19 0)
(0 2.04562e-19 0)
(0 2.25485e-19 0)
(0 3.71052e-19 0)
(0 5.33856e-19 0)
(0 6.3722e-19 0)
(0 6.48399e-19 0)
(0 5.75224e-19 0)
(0 4.52924e-19 0)
(0 3.2229e-19 0)
(0 2.10748e-19 0)
(0 1.26925e-19 0)
(0 6.22892e-20 0)
(0 -1.85132e-16 0)
(0 -1.85171e-16 0)
(0 0 0)
(0 0 0)
(0 0 0)
(0 0 0)
(0 0 0)
(0 0 0)
(0 0 0)
(0 0 0)
(0 0 0)
(0 0 0)
(0 0 0)
(0 0 0)
(0 0 0)
(0 1.84705e-16 0)
(0 1.84881e-16 0)
(0 3.70441e-19 0)
(0 5.52985e-19 0)
(0 7.68225e-19 0)
(0 1.0178e-18 0)
(0 1.29956e-18 0)
(0 1.60187e-18 0)
(0 1.89488e-18 0)
(0 2.12208e-18 0)
(0 2.20239e-18 0)
(0 2.06126e-18 0)
(0 1.70702e-18 0)
(0 1.33786e-18 0)
(0 1.4208e-18 0)
(0 2.70493e-18 0)
(0 6.26808e-18 0)
(0 1.37367e-17 0)
(0 2.70261e-17 0)
(0 4.38439e-17 0)
(0 4.52533e-17 0)
(0 4.76772e-18 0)
(0 -5.34746e-17 0)
(0 -7.09838e-17 0)
(0 -4.74025e-17 0)
(0 -2.11822e-17 0)
(0 -7.21896e-18 0)
(0 -2.2926e-18 0)
(0 3.39168e-16 0)
(0 1.07203e-11 0)
(0 2.29407e-07 0)
(0 0.00036287 0)
(0 0.0496098 0)
(0 1.26257 0)
(0 3.43024 0)
(0 1.24167 0)
(0 -5.59104 0)
(0 -6.99087 0)
(0 -7.19021 0)
(0 -7.20957 0)
(0 -7.20286 0)
(0 -7.28627 0)
(0 -7.60247 0)
(0 -8.2107 0)
(0 -8.10067 0)
(0 -5.55103 0)
(0 -2.99293 0)
(0 -2.00359 0)
(0 -1.59032 0)
(0 -1.39604 0)
(0 -1.1451 0)
(0 -1.1794 0)
(0 -0.946768 0)
(0 -0.915459 0)
(0 -0.875045 0)
(0 -0.765265 0)
(0 -0.7502 0)
(0 -0.681489 0)
(0 -0.684829 0)
(0 -0.580706 0)
(0 -0.571605 0)
(0 -0.545327 0)
(0 -0.55153 0)
(0 -0.4264 0)
(0 -0.490234 0)
(0 -0.413892 0)
(0 -0.404495 0)
(0 -0.380068 0)
(0 -0.349977 0)
(0 -0.348476 0)
(0 -0.30133 0)
(0 -0.290397 0)
(0 -0.27829 0)
(0 -0.281418 0)
(0 -0.203313 0)
(0 -0.241194 0)
(0 -0.211563 0)
(0 -0.19455 0)
(0 -0.180276 0)
(0 -0.155311 0)
(0 -0.151477 0)
(0 -0.152133 0)
(0 -0.155121 0)
(0 -0.116146 0)
(0 -0.096506 0)
(0 -0.0930599 0)
(0 -0.10467 0)
(0 -0.102235 0)
(-4.98112e-17 -0.0994538 0)
(0 -0.0620413 0)
(0 -0.0501116 0)
(2.42188e-17 -0.0588183 0)
(0 -0.0717555 0)
(-2.3932e-17 -0.0645996 0)
(0 -0.0352444 0)
(2.33102e-17 -0.0307118 0)
(0 -0.0429055 0)
(0 -0.0413526 0)
(0 -0.0241651 0)
(1.10754e-17 -0.020856 0)
(0 -0.0293915 0)
(0 -0.0260474 0)
(0 -0.0140051 0)
(0 -0.0122321 0)
(0 -0.0168566 0)
(-5.0617e-18 -0.0155964 0)
(0 -0.00931393 0)
(-4.8879e-18 -0.00833744 0)
(0 -0.0094847 0)
(-2.36179e-18 -0.00671283 0)
(0 -0.00518758 0)
(0 -0.00623474 0)
(0 -0.00473203 0)
(0 -0.0029065 0)
(1.07639e-18 -0.00336066 0)
(0 -0.00302852 0)
(0 -0.00192286 0)
(0 -0.00185353 0)
(0 -0.00157757 0)
(0 -0.00127734 0)
(0 -0.00108541 0)
(0 -0.000793719 0)
(0 -0.000673479 0)
(0 -0.000543243 0)
(0 -0.000453355 0)
(0 -0.000258608 0)
(0 -0.000184275 0)
(0 -0.000151059 0)
(0 -0.000161154 0)
(-5.01311e-20 -0.000262493 0)
(0 -0.000175796 0)
(0 0 0)
(0 0 0)
(0 0 0)
(0 0 0)
(0 0 0)
(0 0 0)
(0 0 0)
(0 0 0)
(0 0 0)
(0 0 0)
(0 0 0)
(0 0 0)
(0 0 0)
(0 0 0)
(0 0 0)
(0 0 0)
(0 0 0)
(0 0 0)
(0 0 0)
(0 0 0)
(0 0 0)
(0 0 0)
(0 0 0)
(0 0 0)
(0 0 0)
(0 0 0)
(0 0 0)
(0 0 0)
(0 0 0)
(0 0 0)
(0 0 0)
(0 0 0)
(0 0 0)
(0 0 0)
(0 0 0)
(0 0 0)
(0 0 0)
(0 0 0)
(0 0 0)
(0 0 0)
(0 0 0)
(0 0 0)
(0 0 0)
(0 0 0)
(0 0 0)
(0 0 0)
(0 0 0)
(0 0 0)
(0 0 0)
(0 0 0)
(0 0 0)
(0 0 0)
(0 0 0)
(0 0 0)
(0 0 0)
(0 0 0)
(0 0 0)
(0 0 0)
(0 0 0)
(0 0 0)
(0 0 0)
(0 0 0)
(0 0 0)
(0 0 0)
(0 0 0)
(0 0 0)
(0 0 0)
(0 0 0)
(0 0 0)
(0 0 0)
(0 0 0)
(0 0 0)
(0 0 0)
(0 0 0)
(0 0 0)
(0 0 0)
(0 0 0)
(0 0 0)
(0 0 0)
(0 0 0)
(0 0 0)
(0 0 0)
(0 0 0)
(0 0 0)
(0 0 0)
(0 0 0)
(0 0 0)
(0 0 0)
(0 0 0)
(0 0 0)
(0 0 0)
(0 0 0)
(0 0 0)
(0 0 0)
(0 0 0)
(0 0 0)
(0 0 0)
(0 0 0)
(0 0 0)
(0 0 0)
(0 0 0)
(0 0 0)
(0 0 0)
(0 0 0)
(0 0 0)
(0 0 0)
(0 0 0)
(0 0 0)
(0 0 0)
(0 0 0)
(0 0 0)
(0 0 0)
(0 0 0)
(0 0 0)
(0 0 0)
)
;

boundaryField
{
    inandouthalf11
    {
        type            cyclic;
    }
    inandouthalf12
    {
        type            cyclic;
    }
    inandouthalf21
    {
        type            cyclic;
    }
    inandouthalf22
    {
        type            cyclic;
    }
    inandouthalf31
    {
        type            cyclic;
    }
    inandouthalf32
    {
        type            cyclic;
    }
    inandouthalf41
    {
        type            cyclic;
    }
    inandouthalf42
    {
        type            cyclic;
    }
    top
    {
        type            symmetryPlane;
    }
    walls
    {
        type            calculated;
        value           uniform (0 0 0);
    }
    frontAndBackPlanes
    {
        type            empty;
    }
}


// ************************************************************************* //
