/*--------------------------------*- C++ -*----------------------------------*\
| =========                 |                                                 |
| \\      /  F ield         | OpenFOAM: The Open Source CFD Toolbox           |
|  \\    /   O peration     | Version:  2.4.x                                 |
|   \\  /    A nd           | Web:      www.OpenFOAM.org                      |
|    \\/     M anipulation  |                                                 |
\*---------------------------------------------------------------------------*/
FoamFile
{
    version     2.0;
    format      ascii;
    class       volScalarField;
    location    "1.8";
    object      pa;
}
// * * * * * * * * * * * * * * * * * * * * * * * * * * * * * * * * * * * * * //

dimensions      [1 -1 -2 0 0 0 0];

internalField   nonuniform List<scalar> 
360
(
2.87809e-16
2.87809e-16
2.87806e-16
2.87806e-16
2.87806e-16
2.87803e-16
2.87803e-16
2.878e-16
2.878e-16
2.87797e-16
2.87795e-16
2.87795e-16
2.87792e-16
2.87789e-16
2.87786e-16
2.87783e-16
2.8778e-16
2.87777e-16
2.87775e-16
2.87769e-16
2.87766e-16
2.8776e-16
2.87755e-16
2.87749e-16
2.87743e-16
2.87737e-16
2.87732e-16
2.87723e-16
2.87715e-16
2.87706e-16
2.87697e-16
2.87686e-16
2.87677e-16
2.87663e-16
2.87652e-16
2.87637e-16
2.87623e-16
2.87606e-16
2.87586e-16
2.87569e-16
2.87546e-16
2.87523e-16
2.875e-16
2.87472e-16
2.87443e-16
2.87412e-16
2.87378e-16
2.87343e-16
2.87303e-16
2.87258e-16
2.87212e-16
2.87161e-16
2.87107e-16
2.87047e-16
2.86984e-16
2.86913e-16
2.86839e-16
2.86756e-16
2.86668e-16
2.86574e-16
2.86469e-16
2.86358e-16
2.86236e-16
2.86105e-16
2.85963e-16
2.8581e-16
2.85643e-16
2.85462e-16
2.85266e-16
2.85057e-16
2.84828e-16
2.8458e-16
2.84537e-16
2.88966e-16
3.08025e-16
3.24044e-16
3.15573e-16
3.01896e-16
2.94282e-16
2.91054e-16
2.89975e-16
2.90043e-16
2.90819e-16
2.91961e-16
2.93094e-16
2.93923e-16
2.9437e-16
2.94564e-16
2.947e-16
2.94927e-16
2.95298e-16
2.95787e-16
2.96325e-16
2.96832e-16
2.97251e-16
2.97561e-16
2.9777e-16
2.979e-16
2.97974e-16
2.98001e-16
0
0
0
0
0
0
0
0
0
0
0
0
0
0
0
2.96642e-16
2.96873e-16
2.97237e-16
2.9776e-16
2.9847e-16
2.99393e-16
3.00555e-16
3.01963e-16
3.03593e-16
3.05365e-16
3.07123e-16
3.08668e-16
3.09858e-16
3.1081e-16
3.12133e-16
3.1514e-16
3.22163e-16
3.37117e-16
3.65387e-16
4.07214e-16
4.37711e-16
4.14831e-16
3.52313e-16
3.01511e-16
2.76666e-16
2.67721e-16
2.65155e-16
2.64066e-16
8.05547e-16
1.70688e-11
3.64917e-07
0.000576533
0.078703
1.99954
5.48652
3.45422
2.17241
1.33745
0.763554
0.390933
0.177672
0.0725962
0.0268692
0.00963609
0.00429129
0.00267713
0.00192449
0.00152295
0.00118936
0.00100932
0.000825819
0.00069592
0.000608841
0.000508418
0.000454597
0.000385053
0.000348612
0.000295757
0.000269375
0.000232911
0.000213604
0.000182713
0.000167888
0.000149197
0.000132072
0.000121076
0.000105901
9.82357e-05
8.56613e-05
7.94286e-05
6.99594e-05
6.51474e-05
5.66756e-05
5.24628e-05
4.77728e-05
4.22529e-05
3.91875e-05
3.45423e-05
3.23112e-05
2.87251e-05
2.6813e-05
2.32939e-05
2.14548e-05
1.93503e-05
1.82446e-05
1.62868e-05
1.48526e-05
1.29656e-05
1.16325e-05
1.09485e-05
9.97365e-06
8.98655e-06
7.55438e-06
6.81302e-06
6.35394e-06
5.74724e-06
4.8449e-06
4.28656e-06
3.98058e-06
3.52448e-06
2.89159e-06
2.5528e-06
2.36079e-06
2.07869e-06
1.69698e-06
1.45786e-06
1.32015e-06
1.11269e-06
9.21719e-07
8.26662e-07
6.95368e-07
5.49967e-07
4.82506e-07
4.16226e-07
3.24623e-07
2.71917e-07
2.31089e-07
1.79765e-07
1.51464e-07
1.13732e-07
9.45269e-08
7.10839e-08
5.77621e-08
4.07132e-08
3.2029e-08
2.57138e-08
2.11252e-08
1.65802e-08
1.11744e-08
0
0
0
0
0
0
0
0
0
0
0
0
0
0
0
0
0
0
0
0
0
0
0
0
0
0
0
0
0
0
0
0
0
0
0
0
0
0
0
0
0
0
0
0
0
0
0
0
0
0
0
0
0
0
0
0
0
0
0
0
0
0
0
0
0
0
0
0
0
0
0
0
0
0
0
0
0
0
0
0
0
0
0
0
0
0
0
0
0
0
0
0
0
0
0
0
0
0
0
0
0
0
0
0
0
0
0
0
0
0
0
0
0
0
0
0
)
;

boundaryField
{
    inandouthalf11
    {
        type            cyclic;
    }
    inandouthalf12
    {
        type            cyclic;
    }
    inandouthalf21
    {
        type            cyclic;
    }
    inandouthalf22
    {
        type            cyclic;
    }
    inandouthalf31
    {
        type            cyclic;
    }
    inandouthalf32
    {
        type            cyclic;
    }
    inandouthalf41
    {
        type            cyclic;
    }
    inandouthalf42
    {
        type            cyclic;
    }
    top
    {
        type            symmetryPlane;
    }
    walls
    {
        type            calculated;
        value           uniform 2.87809e-16;
    }
    frontAndBackPlanes
    {
        type            empty;
    }
}


// ************************************************************************* //
