/*--------------------------------*- C++ -*----------------------------------*\
| =========                 |                                                 |
| \\      /  F ield         | OpenFOAM: The Open Source CFD Toolbox           |
|  \\    /   O peration     | Version:  2.4.x                                 |
|   \\  /    A nd           | Web:      www.OpenFOAM.org                      |
|    \\/     M anipulation  |                                                 |
\*---------------------------------------------------------------------------*/
FoamFile
{
    version     2.0;
    format      ascii;
    class       surfaceScalarField;
    location    "1.8";
    object      phia;
}
// * * * * * * * * * * * * * * * * * * * * * * * * * * * * * * * * * * * * * //

dimensions      [0 3 -1 0 0 0 0];

internalField   nonuniform List<scalar> 
359
(
-2.93035e-41
-2.92981e-41
-2.93005e-41
-2.93043e-41
-2.93101e-41
-2.93178e-41
-2.93275e-41
-2.93393e-41
-2.93531e-41
-2.9369e-41
-2.93869e-41
-2.94069e-41
-2.9429e-41
-2.94531e-41
-2.94793e-41
-2.95076e-41
-2.95379e-41
-2.95702e-41
-2.96046e-41
-2.96409e-41
-2.96792e-41
-2.97195e-41
-2.97616e-41
-2.98058e-41
-2.98517e-41
-2.98995e-41
-2.99491e-41
-3.00006e-41
-3.00539e-41
-3.0109e-41
-3.01658e-41
-3.02245e-41
-3.02849e-41
-3.03471e-41
-3.04111e-41
-3.0477e-41
-3.05447e-41
-3.06144e-41
-3.06862e-41
-3.07599e-41
-3.08357e-41
-3.09138e-41
-3.09941e-41
-3.10769e-41
-3.11623e-41
-3.12504e-41
-3.13414e-41
-3.14354e-41
-3.15329e-41
-3.16342e-41
-3.17397e-41
-3.18497e-41
-3.19648e-41
-3.20857e-41
-3.22129e-41
-3.23477e-41
-3.24912e-41
-3.26449e-41
-3.28111e-41
-3.29924e-41
-3.31947e-41
-3.3426e-41
-3.37072e-41
-3.4085e-41
-3.47135e-41
-3.60801e-41
-4.07585e-41
-7.65669e-41
-4.46451e-39
-1.99287e-35
-6.77672e-28
-2.27774e-14
-4.18605e-13
-2.27916e-12
-6.32706e-12
-1.14326e-11
-1.5967e-11
-1.9422e-11
-2.20706e-11
-2.42968e-11
-2.63821e-11
-2.85106e-11
-3.07891e-11
-3.3257e-11
-3.58969e-11
-3.86588e-11
-4.14922e-11
-4.43659e-11
-4.72738e-11
-5.02266e-11
-5.32405e-11
-5.63275e-11
-5.94911e-11
-6.27265e-11
-6.60232e-11
-6.93696e-11
-7.27551e-11
-7.61721e-11
-7.9615e-11
-8.308e-11
-8.6564e-11
-9.00639e-11
-9.35772e-11
-9.71018e-11
-1.00636e-10
-1.04178e-10
-1.07727e-10
-1.11283e-10
-1.14845e-10
-1.18416e-10
-1.21995e-10
-1.25586e-10
-1.29192e-10
-1.32818e-10
-1.36472e-10
-1.4016e-10
-1.43894e-10
-1.47683e-10
-1.5154e-10
-1.5548e-10
-1.59516e-10
-1.63664e-10
-1.67936e-10
-1.72345e-10
-1.76891e-10
-1.81567e-10
-1.86351e-10
-1.91215e-10
-1.96138e-10
-2.01132e-10
-2.0628e-10
-2.11763e-10
-2.17871e-10
-2.24942e-10
-2.33114e-10
-2.41897e-10
-2.50051e-10
-2.56333e-10
-2.60363e-10
-2.62551e-10
-2.63546e-10
-2.63906e-10
-2.64034e-10
-2.64084e-10
-2.64104e-10
-2.64113e-10
-2.64114e-10
-2.59262e-10
-4.94624e-10
-1.84465e-09
4.26537e-09
1.37566e-08
2.00214e-08
2.34604e-08
2.49631e-08
2.50709e-08
2.40763e-08
2.13875e-08
1.76012e-08
1.40028e-08
1.08245e-08
8.02002e-09
5.60607e-09
3.46065e-09
1.59113e-09
-8.55712e-11
-1.59173e-09
-2.937e-09
-4.17155e-09
-5.28231e-09
-6.31094e-09
-7.24373e-09
-8.11608e-09
-8.91459e-09
-9.66353e-09
-1.03532e-08
-1.10076e-08
-1.16157e-08
-1.2189e-08
-1.27326e-08
-1.32434e-08
-1.37329e-08
-1.41941e-08
-1.46393e-08
-1.50616e-08
-1.54699e-08
-1.58587e-08
-1.6239e-08
-1.66037e-08
-1.69557e-08
-1.73007e-08
-1.76341e-08
-1.79622e-08
-1.82789e-08
-1.859e-08
-1.88923e-08
-1.91949e-08
-1.94924e-08
-1.97847e-08
-2.00674e-08
-2.03473e-08
-2.06308e-08
-2.09241e-08
-2.12225e-08
-2.15169e-08
-2.18101e-08
-2.2109e-08
-2.24246e-08
-2.27462e-08
-2.30632e-08
-2.33826e-08
-2.37185e-08
-2.40627e-08
-2.44031e-08
-2.47505e-08
-2.51217e-08
-2.55028e-08
-2.58787e-08
-2.62612e-08
-2.66697e-08
-2.70946e-08
-2.75219e-08
-2.79664e-08
-2.84328e-08
-2.89046e-08
-2.93966e-08
-2.99245e-08
-3.04645e-08
-3.10172e-08
-3.16081e-08
-3.22236e-08
-3.28565e-08
-3.35209e-08
-3.42118e-08
-3.49386e-08
-3.56896e-08
-3.64635e-08
-3.72544e-08
-3.80684e-08
-3.88729e-08
-3.96229e-08
-4.02853e-08
-4.08254e-08
-4.13598e-08
-9.93631e-08
-1.5818e-07
-1.5818e-07
-1.5818e-07
-1.5818e-07
-1.5818e-07
-1.5818e-07
-1.5818e-07
-1.5818e-07
-1.5818e-07
-1.5818e-07
-1.5818e-07
-1.5818e-07
-1.5818e-07
-1.5818e-07
-1.5818e-07
-1.5818e-07
-1.5818e-07
-1.5818e-07
-1.5818e-07
-1.5818e-07
-1.5818e-07
-1.5818e-07
-1.5818e-07
-1.5818e-07
-1.5818e-07
-1.5818e-07
-1.5818e-07
-1.5818e-07
-1.5818e-07
-1.5818e-07
-1.5818e-07
-1.5818e-07
-1.5818e-07
-1.5818e-07
-1.5818e-07
-1.5818e-07
-1.5818e-07
-1.5818e-07
-1.5818e-07
-1.5818e-07
-1.5818e-07
-1.5818e-07
-1.5818e-07
-1.5818e-07
-1.5818e-07
-1.5818e-07
-1.5818e-07
-1.5818e-07
-1.5818e-07
-1.5818e-07
-1.5818e-07
-1.5818e-07
-1.5818e-07
-1.5818e-07
-1.5818e-07
-1.5818e-07
-1.5818e-07
-1.5818e-07
-1.5818e-07
-1.5818e-07
-1.5818e-07
-1.5818e-07
-1.5818e-07
-1.5818e-07
-1.5818e-07
-1.5818e-07
-1.5818e-07
-1.5818e-07
-1.5818e-07
-1.5818e-07
-1.5818e-07
-1.5818e-07
-1.5818e-07
-1.5818e-07
-1.5818e-07
-1.5818e-07
-1.5818e-07
-1.5818e-07
-1.5818e-07
-1.5818e-07
-1.5818e-07
-1.5818e-07
-1.5818e-07
-1.5818e-07
-1.5818e-07
-1.5818e-07
-1.5818e-07
-1.5818e-07
-1.5818e-07
-1.5818e-07
-1.5818e-07
-1.5818e-07
-1.5818e-07
-1.5818e-07
-1.5818e-07
-1.5818e-07
-1.5818e-07
-1.5818e-07
-1.5818e-07
-1.5818e-07
-1.5818e-07
-1.5818e-07
-1.5818e-07
-1.5818e-07
-1.5818e-07
-1.5818e-07
-1.5818e-07
-1.5818e-07
-1.5818e-07
-1.5818e-07
-1.5818e-07
-1.58162e-07
-1.57456e-07
-1.32576e-07
)
;

boundaryField
{
    inandouthalf11
    {
        type            cyclic;
        value           nonuniform List<scalar> 
100
(
-1.30446e-42
-1.30449e-42
-1.30452e-42
-1.30457e-42
-1.30463e-42
-1.30472e-42
-1.30483e-42
-1.30496e-42
-1.30512e-42
-1.3053e-42
-1.30551e-42
-1.30576e-42
-1.30603e-42
-1.30634e-42
-1.30667e-42
-1.30705e-42
-1.30745e-42
-1.3079e-42
-1.30838e-42
-1.3089e-42
-1.30946e-42
-1.31006e-42
-1.3107e-42
-1.31138e-42
-1.3121e-42
-1.31286e-42
-1.31367e-42
-1.31452e-42
-1.31541e-42
-1.31635e-42
-1.31733e-42
-1.31836e-42
-1.31944e-42
-1.32056e-42
-1.32173e-42
-1.32295e-42
-1.32421e-42
-1.32553e-42
-1.3269e-42
-1.32832e-42
-1.3298e-42
-1.33133e-42
-1.33293e-42
-1.33458e-42
-1.3363e-42
-1.33809e-42
-1.33995e-42
-1.34189e-42
-1.34391e-42
-1.34601e-42
-1.34822e-42
-1.35053e-42
-1.35296e-42
-1.35552e-42
-1.35822e-42
-1.36109e-42
-1.36416e-42
-1.36745e-42
-1.371e-42
-1.37489e-42
-1.37917e-42
-1.38406e-42
-1.38976e-42
-1.39708e-42
-1.40754e-42
-1.42732e-42
-1.47479e-42
-1.66215e-42
-3.30061e-42
-2.27807e-40
-1.03311e-36
-3.52714e-29
-1.19173e-15
-2.09273e-14
-1.0098e-13
-2.45947e-13
-4.0276e-13
-5.32669e-13
-6.33757e-13
-7.17089e-13
-7.93051e-13
-8.69219e-13
-9.5082e-13
-1.04092e-12
-1.14037e-12
-1.24822e-12
-1.3627e-12
-1.48229e-12
-1.60637e-12
-1.73521e-12
-1.86957e-12
-2.01033e-12
-2.15809e-12
-2.31308e-12
-2.47518e-12
-2.64409e-12
-2.81944e-12
-3.00098e-12
-3.18856e-12
-3.3821e-12
)
;
    }
    inandouthalf12
    {
        type            cyclic;
        value           nonuniform List<scalar> 
100
(
1.30446e-42
1.30449e-42
1.30452e-42
1.30457e-42
1.30463e-42
1.30472e-42
1.30483e-42
1.30496e-42
1.30512e-42
1.3053e-42
1.30551e-42
1.30576e-42
1.30603e-42
1.30634e-42
1.30667e-42
1.30705e-42
1.30745e-42
1.3079e-42
1.30838e-42
1.3089e-42
1.30946e-42
1.31006e-42
1.3107e-42
1.31138e-42
1.3121e-42
1.31286e-42
1.31367e-42
1.31452e-42
1.31541e-42
1.31635e-42
1.31733e-42
1.31836e-42
1.31944e-42
1.32056e-42
1.32173e-42
1.32295e-42
1.32421e-42
1.32553e-42
1.3269e-42
1.32832e-42
1.3298e-42
1.33133e-42
1.33293e-42
1.33458e-42
1.3363e-42
1.33809e-42
1.33995e-42
1.34189e-42
1.34391e-42
1.34601e-42
1.34822e-42
1.35053e-42
1.35296e-42
1.35552e-42
1.35822e-42
1.36109e-42
1.36416e-42
1.36745e-42
1.371e-42
1.37489e-42
1.37917e-42
1.38406e-42
1.38976e-42
1.39708e-42
1.40754e-42
1.42732e-42
1.47479e-42
1.66215e-42
3.30061e-42
2.27807e-40
1.03311e-36
3.52714e-29
1.19173e-15
2.09273e-14
1.0098e-13
2.45947e-13
4.0276e-13
5.32669e-13
6.33757e-13
7.17089e-13
7.93051e-13
8.69219e-13
9.5082e-13
1.04092e-12
1.14037e-12
1.24822e-12
1.3627e-12
1.48229e-12
1.60637e-12
1.73521e-12
1.86957e-12
2.01033e-12
2.15809e-12
2.31308e-12
2.47518e-12
2.64409e-12
2.81944e-12
3.00098e-12
3.18856e-12
3.3821e-12
)
;
    }
    inandouthalf21
    {
        type            cyclic;
        value           nonuniform List<scalar> 
100
(
-3.58162e-12
-3.78711e-12
-3.99861e-12
-4.21617e-12
-4.43985e-12
-4.66975e-12
-4.90603e-12
-5.14885e-12
-5.39844e-12
-5.6551e-12
-5.91917e-12
-6.19115e-12
-6.47164e-12
-6.76141e-12
-7.06142e-12
-7.37288e-12
-7.69721e-12
-8.03618e-12
-8.39184e-12
-8.76663e-12
-9.16337e-12
-9.5853e-12
-1.0036e-11
-1.05193e-11
-1.10389e-11
-1.15977e-11
-1.21979e-11
-1.28403e-11
-1.35257e-11
-1.42581e-11
-1.50502e-11
-1.59311e-11
-1.69539e-11
-1.81989e-11
-1.97547e-11
-2.16439e-11
-2.37118e-11
-2.56358e-11
-2.7132e-11
-2.8116e-11
-2.86661e-11
-2.89299e-11
-2.90492e-11
-2.91053e-11
-2.91349e-11
-2.91554e-11
-2.91825e-11
-2.92939e-11
-8.33998e-09
-8.15962e-08
-2.64446e-07
-4.93789e-07
-6.84969e-07
-8.34631e-07
-9.47407e-07
-1.02697e-06
-1.0783e-06
-1.10953e-06
-1.12981e-06
-1.14518e-06
-1.15804e-06
-1.16918e-06
-1.17899e-06
-1.18768e-06
-1.19546e-06
-1.20243e-06
-1.20875e-06
-1.21448e-06
-1.2197e-06
-1.22449e-06
-1.22888e-06
-1.23294e-06
-1.2367e-06
-1.24019e-06
-1.24344e-06
-1.24647e-06
-1.24932e-06
-1.25199e-06
-1.2545e-06
-1.25688e-06
-1.25913e-06
-1.26127e-06
-1.2633e-06
-1.26524e-06
-1.26709e-06
-1.26886e-06
-1.27056e-06
-1.2722e-06
-1.27378e-06
-1.2753e-06
-1.27677e-06
-1.2782e-06
-1.27959e-06
-1.28093e-06
-1.28224e-06
-1.2835e-06
-1.28475e-06
-1.28597e-06
-1.28717e-06
-1.28833e-06
)
;
    }
    inandouthalf22
    {
        type            cyclic;
        value           nonuniform List<scalar> 
100
(
3.58162e-12
3.78711e-12
3.99861e-12
4.21617e-12
4.43985e-12
4.66975e-12
4.90603e-12
5.14885e-12
5.39844e-12
5.6551e-12
5.91917e-12
6.19115e-12
6.47164e-12
6.76141e-12
7.06142e-12
7.37288e-12
7.69721e-12
8.03618e-12
8.39184e-12
8.76663e-12
9.16337e-12
9.5853e-12
1.0036e-11
1.05193e-11
1.10389e-11
1.15977e-11
1.21979e-11
1.28403e-11
1.35257e-11
1.42581e-11
1.50502e-11
1.59311e-11
1.69539e-11
1.81989e-11
1.97547e-11
2.16439e-11
2.37118e-11
2.56358e-11
2.7132e-11
2.8116e-11
2.86661e-11
2.89299e-11
2.90492e-11
2.91053e-11
2.91349e-11
2.91554e-11
2.91825e-11
2.92939e-11
8.33998e-09
8.15962e-08
2.64446e-07
4.93789e-07
6.84969e-07
8.34631e-07
9.47407e-07
1.02697e-06
1.0783e-06
1.10953e-06
1.12981e-06
1.14518e-06
1.15804e-06
1.16918e-06
1.17899e-06
1.18768e-06
1.19546e-06
1.20243e-06
1.20875e-06
1.21448e-06
1.2197e-06
1.22449e-06
1.22888e-06
1.23294e-06
1.2367e-06
1.24019e-06
1.24344e-06
1.24647e-06
1.24932e-06
1.25199e-06
1.2545e-06
1.25688e-06
1.25913e-06
1.26127e-06
1.2633e-06
1.26524e-06
1.26709e-06
1.26886e-06
1.27056e-06
1.2722e-06
1.27378e-06
1.2753e-06
1.27677e-06
1.2782e-06
1.27959e-06
1.28093e-06
1.28224e-06
1.2835e-06
1.28475e-06
1.28597e-06
1.28717e-06
1.28833e-06
)
;
    }
    inandouthalf31
    {
        type            cyclic;
        value           nonuniform List<scalar> 
110
(
-1.28946e-06
-1.31677e-06
-1.34468e-06
-1.3732e-06
-1.40232e-06
-1.43202e-06
-1.46235e-06
-1.49337e-06
-1.52508e-06
-1.55745e-06
-1.59047e-06
-1.62423e-06
-1.65875e-06
-1.694e-06
-1.72996e-06
-1.76676e-06
-1.80441e-06
-1.84283e-06
-1.88204e-06
-1.92215e-06
-1.96321e-06
-2.00514e-06
-2.04797e-06
-2.09181e-06
-2.13662e-06
-2.18238e-06
-2.22925e-06
-2.27722e-06
-2.3262e-06
-2.37633e-06
-2.42767e-06
-2.48014e-06
-2.53383e-06
-2.58877e-06
-2.645e-06
-2.70255e-06
-2.76139e-06
-2.82155e-06
-2.88305e-06
-2.94591e-06
-3.00987e-06
-3.07478e-06
-3.14048e-06
-3.20683e-06
-3.27502e-06
-3.619e-06
-3.69247e-06
-3.76742e-06
-3.84389e-06
-3.92191e-06
-4.00152e-06
-4.08274e-06
-4.16561e-06
-4.25016e-06
-4.33643e-06
-4.42445e-06
-4.51426e-06
-4.60588e-06
-4.69937e-06
-4.79476e-06
-4.89208e-06
-4.99137e-06
-5.09269e-06
-5.19605e-06
-5.30152e-06
-5.40913e-06
-5.51892e-06
-5.63094e-06
-5.74523e-06
-5.86184e-06
-5.98082e-06
-6.10222e-06
-6.22608e-06
-6.35245e-06
-6.48139e-06
-6.61294e-06
-6.74717e-06
-6.88412e-06
-7.02385e-06
-7.16641e-06
-7.31187e-06
-7.46028e-06
-7.61171e-06
-7.7662e-06
-7.92384e-06
-8.08467e-06
-8.24877e-06
-8.4162e-06
-8.58702e-06
-8.76131e-06
-8.93915e-06
-9.12059e-06
-9.30571e-06
-9.49459e-06
-9.68731e-06
-9.88393e-06
-1.00846e-05
-1.02892e-05
-1.04981e-05
-1.07112e-05
-1.09286e-05
-1.11504e-05
-1.13767e-05
-1.16076e-05
-1.18432e-05
-1.20836e-05
-1.23289e-05
-1.25791e-05
-1.28345e-05
-1.3095e-05
)
;
    }
    inandouthalf32
    {
        type            cyclic;
        value           nonuniform List<scalar> 
110
(
1.28946e-06
1.31677e-06
1.34468e-06
1.3732e-06
1.40232e-06
1.43202e-06
1.46235e-06
1.49337e-06
1.52508e-06
1.55745e-06
1.59047e-06
1.62423e-06
1.65875e-06
1.694e-06
1.72996e-06
1.76676e-06
1.80441e-06
1.84283e-06
1.88204e-06
1.92215e-06
1.96321e-06
2.00514e-06
2.04797e-06
2.09181e-06
2.13662e-06
2.18238e-06
2.22925e-06
2.27722e-06
2.3262e-06
2.37633e-06
2.42767e-06
2.48014e-06
2.53383e-06
2.58877e-06
2.645e-06
2.70255e-06
2.76139e-06
2.82155e-06
2.88305e-06
2.94591e-06
3.00987e-06
3.07478e-06
3.14048e-06
3.20683e-06
3.27502e-06
3.619e-06
3.69247e-06
3.76742e-06
3.84389e-06
3.92191e-06
4.00152e-06
4.08274e-06
4.16561e-06
4.25016e-06
4.33643e-06
4.42445e-06
4.51426e-06
4.60588e-06
4.69937e-06
4.79476e-06
4.89208e-06
4.99137e-06
5.09269e-06
5.19605e-06
5.30152e-06
5.40913e-06
5.51892e-06
5.63094e-06
5.74523e-06
5.86184e-06
5.98082e-06
6.10222e-06
6.22608e-06
6.35245e-06
6.48139e-06
6.61294e-06
6.74717e-06
6.88412e-06
7.02385e-06
7.16641e-06
7.31187e-06
7.46028e-06
7.61171e-06
7.7662e-06
7.92384e-06
8.08467e-06
8.24877e-06
8.4162e-06
8.58702e-06
8.76131e-06
8.93915e-06
9.12059e-06
9.30571e-06
9.49459e-06
9.68731e-06
9.88393e-06
1.00846e-05
1.02892e-05
1.04981e-05
1.07112e-05
1.09286e-05
1.11504e-05
1.13767e-05
1.16076e-05
1.18432e-05
1.20836e-05
1.23289e-05
1.25791e-05
1.28345e-05
1.3095e-05
)
;
    }
    inandouthalf41
    {
        type            cyclic;
        value           nonuniform List<scalar> 
50
(
-1.17213e-05
-1.17213e-05
-1.17213e-05
-1.17213e-05
-1.17213e-05
-1.17213e-05
-1.17213e-05
-1.17213e-05
-1.17213e-05
-1.17213e-05
-1.17213e-05
-1.17213e-05
-1.17213e-05
-1.17213e-05
-1.17213e-05
-1.17213e-05
-1.17213e-05
-1.17213e-05
-1.17213e-05
-1.17213e-05
-1.17213e-05
-1.17213e-05
-1.17213e-05
-1.17213e-05
-1.17213e-05
-1.17213e-05
-1.17213e-05
-1.17213e-05
-1.17213e-05
-1.17213e-05
-1.17213e-05
-1.17213e-05
-1.17213e-05
-1.17213e-05
-1.17213e-05
-1.17213e-05
-1.17213e-05
-1.17213e-05
-1.17213e-05
-1.17213e-05
-1.17213e-05
-1.17213e-05
-1.17213e-05
-1.17213e-05
-1.17213e-05
-1.17213e-05
-1.17213e-05
-1.17213e-05
-1.17214e-05
-1.17231e-05
)
;
    }
    inandouthalf42
    {
        type            cyclic;
        value           nonuniform List<scalar> 
50
(
1.17213e-05
1.17213e-05
1.17213e-05
1.17213e-05
1.17213e-05
1.17213e-05
1.17213e-05
1.17213e-05
1.17213e-05
1.17213e-05
1.17213e-05
1.17213e-05
1.17213e-05
1.17213e-05
1.17213e-05
1.17213e-05
1.17213e-05
1.17213e-05
1.17213e-05
1.17213e-05
1.17213e-05
1.17213e-05
1.17213e-05
1.17213e-05
1.17213e-05
1.17213e-05
1.17213e-05
1.17213e-05
1.17213e-05
1.17213e-05
1.17213e-05
1.17213e-05
1.17213e-05
1.17213e-05
1.17213e-05
1.17213e-05
1.17213e-05
1.17213e-05
1.17213e-05
1.17213e-05
1.17213e-05
1.17213e-05
1.17213e-05
1.17213e-05
1.17213e-05
1.17213e-05
1.17213e-05
1.17213e-05
1.17214e-05
1.17231e-05
)
;
    }
    top
    {
        type            symmetryPlane;
        value           uniform 0;
    }
    walls
    {
        type            fixedValue;
        value           uniform 0;
    }
    frontAndBackPlanes
    {
        type            empty;
        value           nonuniform 0();
    }
}


// ************************************************************************* //
