/*--------------------------------*- C++ -*----------------------------------*\
| =========                 |                                                 |
| \\      /  F ield         | OpenFOAM: The Open Source CFD Toolbox           |
|  \\    /   O peration     | Version:  2.4.x                                 |
|   \\  /    A nd           | Web:      www.OpenFOAM.org                      |
|    \\/     M anipulation  |                                                 |
\*---------------------------------------------------------------------------*/
FoamFile
{
    version     2.0;
    format      ascii;
    class       surfaceScalarField;
    location    "1.8";
    object      phib;
}
// * * * * * * * * * * * * * * * * * * * * * * * * * * * * * * * * * * * * * //

dimensions      [0 3 -1 0 0 0 0];

internalField   nonuniform List<scalar> 
359
(
6.46297e-19
1.29686e-18
1.94608e-18
2.59918e-18
3.25144e-18
3.90441e-18
4.55718e-18
5.20981e-18
5.85938e-18
6.51117e-18
7.15992e-18
7.81008e-18
8.45924e-18
9.10699e-18
9.75233e-18
1.03981e-17
1.10412e-17
1.16852e-17
1.2325e-17
1.29644e-17
1.36001e-17
1.4237e-17
1.48679e-17
1.55002e-17
1.61251e-17
1.67536e-17
1.73751e-17
1.79994e-17
1.86176e-17
1.92351e-17
1.98472e-17
2.04602e-17
2.10661e-17
2.16741e-17
2.22734e-17
2.28772e-17
2.34701e-17
2.40689e-17
2.46576e-17
2.52485e-17
2.58287e-17
2.64127e-17
2.69874e-17
2.75654e-17
2.81332e-17
2.87055e-17
2.92654e-17
2.98304e-17
3.03843e-17
3.09383e-17
3.14833e-17
3.2032e-17
3.25694e-17
3.31128e-17
3.36406e-17
3.41741e-17
3.46945e-17
3.52198e-17
3.57331e-17
3.62488e-17
3.67513e-17
3.72607e-17
3.77544e-17
3.82544e-17
3.87407e-17
3.92294e-17
3.9703e-17
4.01836e-17
4.06464e-17
4.11173e-17
4.15704e-17
3.54911e-14
6.51306e-13
3.54521e-12
9.84134e-12
1.77839e-11
2.48378e-11
3.02095e-11
3.43231e-11
3.77762e-11
4.10077e-11
4.43041e-11
4.78323e-11
5.16534e-11
5.57404e-11
6.00155e-11
6.43995e-11
6.88435e-11
7.33378e-11
7.7899e-11
8.25521e-11
8.73155e-11
9.21948e-11
9.71823e-11
1.02262e-10
1.07415e-10
1.12625e-10
1.1788e-10
1.23171e-10
1.28492e-10
1.33839e-10
1.39206e-10
1.44589e-10
1.49984e-10
1.5539e-10
1.60802e-10
1.66221e-10
1.71644e-10
1.77072e-10
1.82506e-10
1.87947e-10
1.934e-10
1.9887e-10
2.04364e-10
2.09892e-10
2.15467e-10
2.21102e-10
2.26814e-10
2.32623e-10
2.38548e-10
2.44611e-10
2.50834e-10
2.57238e-10
2.63838e-10
2.70635e-10
2.77618e-10
2.84752e-10
2.91995e-10
2.99312e-10
3.06723e-10
3.1435e-10
3.22463e-10
3.31494e-10
3.41946e-10
3.54031e-10
3.67019e-10
3.79041e-10
3.88213e-10
3.93941e-10
3.96855e-10
3.97991e-10
3.98131e-10
3.97737e-10
3.97002e-10
3.95988e-10
3.94676e-10
3.92958e-10
3.82749e-10
5.32618e-10
9.2044e-10
-8.67203e-10
-1.4288e-09
-1.31726e-09
-9.80276e-10
-6.02861e-10
-3.0389e-10
-1.25351e-10
-4.20595e-11
-1.32533e-11
-5.26339e-12
-2.68401e-12
-1.49124e-12
-8.22154e-13
-4.12946e-13
-1.59166e-13
7.15944e-15
1.14455e-13
1.81845e-13
2.23942e-13
2.48685e-13
2.61172e-13
2.64819e-13
2.61778e-13
2.57026e-13
2.49131e-13
2.38229e-13
2.25356e-13
2.16263e-13
2.02417e-13
1.91358e-13
1.79422e-13
1.68256e-13
1.57502e-13
1.46633e-13
1.37247e-13
1.28197e-13
1.19136e-13
1.09903e-13
1.03777e-13
9.57137e-14
8.88557e-14
8.2459e-14
7.66105e-14
7.15938e-14
6.66564e-14
6.14826e-14
5.61397e-14
5.23134e-14
4.92395e-14
4.6171e-14
4.25209e-14
3.87898e-14
3.50378e-14
3.28662e-14
3.1122e-14
2.88259e-14
2.5719e-14
2.28602e-14
2.14507e-14
2.01899e-14
1.81082e-14
1.60086e-14
1.48724e-14
1.38605e-14
1.2175e-14
1.0628e-14
9.87613e-15
9.19249e-15
8.06242e-15
6.95893e-15
6.33814e-15
5.7473e-15
4.98509e-15
4.45208e-15
4.03289e-15
3.44169e-15
2.98519e-15
2.72333e-15
2.3588e-15
2.00437e-15
1.78898e-15
1.55225e-15
1.33714e-15
1.14871e-15
9.7623e-16
8.44723e-16
7.23382e-16
6.13862e-16
5.13716e-16
4.69687e-16
4.51152e-16
4.49498e-16
4.47461e-16
3.9004e-16
4.24223e-16
7.38206e-17
4.96937e-17
4.24908e-17
3.58285e-17
3.19835e-17
2.76839e-17
2.36514e-17
2.06124e-17
1.80249e-17
1.63791e-17
1.46444e-17
1.27734e-17
1.15665e-17
1.06395e-17
9.62002e-18
8.68017e-18
8.03697e-18
7.42032e-18
6.84105e-18
6.39575e-18
6.06704e-18
5.76557e-18
5.49306e-18
5.27459e-18
5.07158e-18
4.87819e-18
4.70153e-18
4.5547e-18
4.41507e-18
4.27271e-18
4.11458e-18
3.96498e-18
3.79544e-18
3.62193e-18
3.43975e-18
3.29748e-18
3.14929e-18
3.00086e-18
2.83071e-18
2.6723e-18
2.49135e-18
2.3071e-18
2.10213e-18
1.91747e-18
1.72179e-18
1.52378e-18
1.31378e-18
1.11101e-18
9.03694e-19
7.07201e-19
5.36922e-19
4.12802e-19
3.44473e-19
2.90209e-19
3.90809e-19
3.48253e-19
3.06945e-19
2.67233e-19
2.29426e-19
1.9548e-19
1.62584e-19
1.30878e-19
9.99821e-20
6.78123e-20
3.60767e-20
7.69692e-21
-2.14513e-20
-5.46212e-20
-8.84058e-20
-1.22988e-19
-1.57854e-19
-1.92607e-19
-2.29605e-19
-2.68563e-19
-3.11381e-19
-3.66278e-19
-4.27439e-19
-4.91895e-19
-5.65824e-19
-6.62592e-19
-7.79814e-19
-9.47394e-19
-1.26368e-18
-1.89745e-18
-2.67015e-18
-3.49204e-18
-4.30927e-18
-5.17904e-18
-6.00501e-18
-6.83942e-18
-7.61125e-18
-8.5593e-18
-9.39893e-18
-1.02414e-17
-1.09114e-17
-1.17718e-17
-1.23741e-17
-1.30322e-17
-1.34862e-17
-1.49157e-17
-1.5948e-17
-1.70093e-17
-1.73404e-17
-1.83102e-17
-1.82524e-17
-1.82228e-17
-1.73458e-17
-1.80345e-17
-1.73864e-17
-1.66686e-17
-1.43363e-17
-1.22812e-17
-9.50553e-18
-7.73853e-18
)
;

boundaryField
{
    inandouthalf11
    {
        type            cyclic;
        value           nonuniform List<scalar> 
100
(
7.34922e-11
7.36175e-11
7.36182e-11
7.36182e-11
7.36182e-11
7.36188e-11
7.36188e-11
7.36194e-11
7.36194e-11
7.362e-11
7.36207e-11
7.36207e-11
7.36213e-11
7.36219e-11
7.36225e-11
7.36231e-11
7.36238e-11
7.36244e-11
7.3625e-11
7.36262e-11
7.36268e-11
7.36281e-11
7.36293e-11
7.36306e-11
7.36318e-11
7.3633e-11
7.36343e-11
7.36361e-11
7.3638e-11
7.36398e-11
7.36417e-11
7.36442e-11
7.3646e-11
7.36491e-11
7.36516e-11
7.36547e-11
7.36578e-11
7.36615e-11
7.36658e-11
7.36695e-11
7.36745e-11
7.36794e-11
7.36844e-11
7.36905e-11
7.36967e-11
7.37035e-11
7.3711e-11
7.37184e-11
7.37271e-11
7.3737e-11
7.37469e-11
7.3758e-11
7.37698e-11
7.37828e-11
7.37964e-11
7.38119e-11
7.3828e-11
7.3846e-11
7.38652e-11
7.38857e-11
7.39086e-11
7.39328e-11
7.39595e-11
7.3988e-11
7.40191e-11
7.40526e-11
7.40893e-11
7.41291e-11
7.4172e-11
7.42181e-11
7.42685e-11
7.43234e-11
7.43783e-11
7.44049e-11
7.43417e-11
7.41875e-11
7.40194e-11
7.38939e-11
7.38137e-11
7.37622e-11
7.3724e-11
7.3688e-11
7.36465e-11
7.35945e-11
7.3531e-11
7.34573e-11
7.33766e-11
7.32912e-11
7.32025e-11
7.31105e-11
7.30142e-11
7.29123e-11
7.28041e-11
7.26892e-11
7.25678e-11
7.24402e-11
7.2307e-11
7.21685e-11
7.20249e-11
7.18764e-11
)
;
    }
    inandouthalf12
    {
        type            cyclic;
        value           nonuniform List<scalar> 
100
(
-7.34922e-11
-7.36175e-11
-7.36182e-11
-7.36182e-11
-7.36182e-11
-7.36188e-11
-7.36188e-11
-7.36194e-11
-7.36194e-11
-7.362e-11
-7.36207e-11
-7.36207e-11
-7.36213e-11
-7.36219e-11
-7.36225e-11
-7.36231e-11
-7.36238e-11
-7.36244e-11
-7.3625e-11
-7.36262e-11
-7.36268e-11
-7.36281e-11
-7.36293e-11
-7.36306e-11
-7.36318e-11
-7.3633e-11
-7.36343e-11
-7.36361e-11
-7.3638e-11
-7.36398e-11
-7.36417e-11
-7.36442e-11
-7.3646e-11
-7.36491e-11
-7.36516e-11
-7.36547e-11
-7.36578e-11
-7.36615e-11
-7.36658e-11
-7.36695e-11
-7.36745e-11
-7.36794e-11
-7.36844e-11
-7.36905e-11
-7.36967e-11
-7.37035e-11
-7.3711e-11
-7.37184e-11
-7.37271e-11
-7.3737e-11
-7.37469e-11
-7.3758e-11
-7.37698e-11
-7.37828e-11
-7.37964e-11
-7.38119e-11
-7.3828e-11
-7.3846e-11
-7.38652e-11
-7.38857e-11
-7.39086e-11
-7.39328e-11
-7.39595e-11
-7.3988e-11
-7.40191e-11
-7.40526e-11
-7.40893e-11
-7.41291e-11
-7.4172e-11
-7.42181e-11
-7.42685e-11
-7.43234e-11
-7.43783e-11
-7.44049e-11
-7.43417e-11
-7.41875e-11
-7.40194e-11
-7.38939e-11
-7.38137e-11
-7.37622e-11
-7.3724e-11
-7.3688e-11
-7.36465e-11
-7.35945e-11
-7.3531e-11
-7.34573e-11
-7.33766e-11
-7.32912e-11
-7.32025e-11
-7.31105e-11
-7.30142e-11
-7.29123e-11
-7.28041e-11
-7.26892e-11
-7.25678e-11
-7.24402e-11
-7.2307e-11
-7.21685e-11
-7.20249e-11
-7.18764e-11
)
;
    }
    inandouthalf21
    {
        type            cyclic;
        value           nonuniform List<scalar> 
100
(
7.17228e-11
7.15644e-11
7.1401e-11
7.12327e-11
7.10595e-11
7.08813e-11
7.0698e-11
7.05096e-11
7.03159e-11
7.01166e-11
6.99114e-11
6.97e-11
6.94818e-11
6.92561e-11
6.90219e-11
6.87783e-11
6.85238e-11
6.82568e-11
6.79752e-11
6.76768e-11
6.73588e-11
6.7018e-11
6.66511e-11
6.62544e-11
6.58244e-11
6.53579e-11
6.48531e-11
6.43088e-11
6.37239e-11
6.30943e-11
6.24078e-11
6.16372e-11
6.07322e-11
5.96159e-11
5.8201e-11
5.6459e-11
5.45358e-11
5.27527e-11
5.14034e-11
5.05806e-11
5.0193e-11
5.00642e-11
5.01335e-11
5.03587e-11
5.06961e-11
5.11489e-11
5.17169e-11
4.41253e-11
-8.50729e-09
-8.3278e-08
-2.75436e-07
-5.18426e-07
-7.20817e-07
-8.79837e-07
-1.00328e-06
-1.09846e-06
-1.17095e-06
-1.2246e-06
-1.26374e-06
-1.2936e-06
-1.31765e-06
-1.33759e-06
-1.35404e-06
-1.36767e-06
-1.37883e-06
-1.38814e-06
-1.39591e-06
-1.40249e-06
-1.40819e-06
-1.41315e-06
-1.41755e-06
-1.42146e-06
-1.42501e-06
-1.42819e-06
-1.43109e-06
-1.43372e-06
-1.43614e-06
-1.43833e-06
-1.44035e-06
-1.4422e-06
-1.4439e-06
-1.44546e-06
-1.44689e-06
-1.44821e-06
-1.44943e-06
-1.45055e-06
-1.45157e-06
-1.45253e-06
-1.4534e-06
-1.45421e-06
-1.45495e-06
-1.45564e-06
-1.45627e-06
-1.45685e-06
-1.45739e-06
-1.45789e-06
-1.45835e-06
-1.45877e-06
-1.45916e-06
-1.45952e-06
)
;
    }
    inandouthalf22
    {
        type            cyclic;
        value           nonuniform List<scalar> 
100
(
-7.17228e-11
-7.15644e-11
-7.1401e-11
-7.12327e-11
-7.10595e-11
-7.08813e-11
-7.0698e-11
-7.05096e-11
-7.03159e-11
-7.01166e-11
-6.99114e-11
-6.97e-11
-6.94818e-11
-6.92561e-11
-6.90219e-11
-6.87783e-11
-6.85238e-11
-6.82568e-11
-6.79752e-11
-6.76768e-11
-6.73588e-11
-6.7018e-11
-6.66511e-11
-6.62544e-11
-6.58244e-11
-6.53579e-11
-6.48531e-11
-6.43088e-11
-6.37239e-11
-6.30943e-11
-6.24078e-11
-6.16372e-11
-6.07322e-11
-5.96159e-11
-5.8201e-11
-5.6459e-11
-5.45358e-11
-5.27527e-11
-5.14034e-11
-5.05806e-11
-5.0193e-11
-5.00642e-11
-5.01335e-11
-5.03587e-11
-5.06961e-11
-5.11489e-11
-5.17169e-11
-4.41253e-11
8.50729e-09
8.3278e-08
2.75436e-07
5.18426e-07
7.20817e-07
8.79837e-07
1.00328e-06
1.09846e-06
1.17095e-06
1.2246e-06
1.26374e-06
1.2936e-06
1.31765e-06
1.33759e-06
1.35404e-06
1.36767e-06
1.37883e-06
1.38814e-06
1.39591e-06
1.40249e-06
1.40819e-06
1.41315e-06
1.41755e-06
1.42146e-06
1.42501e-06
1.42819e-06
1.43109e-06
1.43372e-06
1.43614e-06
1.43833e-06
1.44035e-06
1.4422e-06
1.4439e-06
1.44546e-06
1.44689e-06
1.44821e-06
1.44943e-06
1.45055e-06
1.45157e-06
1.45253e-06
1.4534e-06
1.45421e-06
1.45495e-06
1.45564e-06
1.45627e-06
1.45685e-06
1.45739e-06
1.45789e-06
1.45835e-06
1.45877e-06
1.45916e-06
1.45952e-06
)
;
    }
    inandouthalf31
    {
        type            cyclic;
        value           nonuniform List<scalar> 
110
(
-1.45986e-06
-1.4898e-06
-1.52035e-06
-1.5515e-06
-1.58327e-06
-1.61567e-06
-1.64871e-06
-1.68242e-06
-1.71679e-06
-1.75185e-06
-1.78761e-06
-1.82409e-06
-1.8613e-06
-1.89924e-06
-1.93795e-06
-1.97744e-06
-2.01771e-06
-2.0588e-06
-2.10071e-06
-2.14346e-06
-2.18707e-06
-2.23155e-06
-2.27693e-06
-2.32323e-06
-2.37046e-06
-2.41864e-06
-2.4678e-06
-2.51794e-06
-2.5691e-06
-2.62129e-06
-2.67454e-06
-2.72886e-06
-2.78428e-06
-2.84083e-06
-2.89851e-06
-2.95737e-06
-3.01742e-06
-3.07868e-06
-3.14118e-06
-3.20496e-06
-3.27002e-06
-3.3364e-06
-3.40413e-06
-3.47324e-06
-3.54374e-06
-3.61567e-06
-3.68907e-06
-3.76395e-06
-3.84035e-06
-3.9183e-06
-3.99784e-06
-4.07899e-06
-4.16178e-06
-4.24625e-06
-4.33244e-06
-4.42038e-06
-4.5101e-06
-4.60165e-06
-4.69505e-06
-4.79035e-06
-4.88758e-06
-4.98678e-06
-5.088e-06
-5.19127e-06
-5.29664e-06
-5.40415e-06
-5.51384e-06
-5.62576e-06
-5.73995e-06
-5.85645e-06
-5.97532e-06
-6.09661e-06
-6.22035e-06
-6.34661e-06
-6.47543e-06
-6.60686e-06
-6.74096e-06
-6.87778e-06
-7.01739e-06
-7.15982e-06
-7.30515e-06
-7.45342e-06
-7.6047e-06
-7.75906e-06
-7.91655e-06
-8.07723e-06
-8.24118e-06
-8.40845e-06
-8.57912e-06
-8.75326e-06
-8.93092e-06
-9.1122e-06
-9.29715e-06
-9.48586e-06
-9.6784e-06
-9.87484e-06
-1.00753e-05
-1.02798e-05
-1.04884e-05
-1.07013e-05
-1.09185e-05
-1.11401e-05
-1.13663e-05
-1.1597e-05
-1.18323e-05
-1.20725e-05
-1.23176e-05
-1.25676e-05
-1.28227e-05
-1.30829e-05
)
;
    }
    inandouthalf32
    {
        type            cyclic;
        value           nonuniform List<scalar> 
110
(
1.45986e-06
1.4898e-06
1.52035e-06
1.5515e-06
1.58327e-06
1.61567e-06
1.64871e-06
1.68242e-06
1.71679e-06
1.75185e-06
1.78761e-06
1.82409e-06
1.8613e-06
1.89924e-06
1.93795e-06
1.97744e-06
2.01771e-06
2.0588e-06
2.10071e-06
2.14346e-06
2.18707e-06
2.23155e-06
2.27693e-06
2.32323e-06
2.37046e-06
2.41864e-06
2.4678e-06
2.51794e-06
2.5691e-06
2.62129e-06
2.67454e-06
2.72886e-06
2.78428e-06
2.84083e-06
2.89851e-06
2.95737e-06
3.01742e-06
3.07868e-06
3.14118e-06
3.20496e-06
3.27002e-06
3.3364e-06
3.40413e-06
3.47324e-06
3.54374e-06
3.61567e-06
3.68907e-06
3.76395e-06
3.84035e-06
3.9183e-06
3.99784e-06
4.07899e-06
4.16178e-06
4.24625e-06
4.33244e-06
4.42038e-06
4.5101e-06
4.60165e-06
4.69505e-06
4.79035e-06
4.88758e-06
4.98678e-06
5.088e-06
5.19127e-06
5.29664e-06
5.40415e-06
5.51384e-06
5.62576e-06
5.73995e-06
5.85645e-06
5.97532e-06
6.09661e-06
6.22035e-06
6.34661e-06
6.47543e-06
6.60686e-06
6.74096e-06
6.87778e-06
7.01739e-06
7.15982e-06
7.30515e-06
7.45342e-06
7.6047e-06
7.75906e-06
7.91655e-06
8.07723e-06
8.24118e-06
8.40845e-06
8.57912e-06
8.75326e-06
8.93092e-06
9.1122e-06
9.29715e-06
9.48586e-06
9.6784e-06
9.87484e-06
1.00753e-05
1.02798e-05
1.04884e-05
1.07013e-05
1.09185e-05
1.11401e-05
1.13663e-05
1.1597e-05
1.18323e-05
1.20725e-05
1.23176e-05
1.25676e-05
1.28227e-05
1.30829e-05
)
;
    }
    inandouthalf41
    {
        type            cyclic;
        value           nonuniform List<scalar> 
50
(
-1.17105e-05
-1.17105e-05
-1.17105e-05
-1.17105e-05
-1.17105e-05
-1.17105e-05
-1.17105e-05
-1.17105e-05
-1.17105e-05
-1.17105e-05
-1.17105e-05
-1.17105e-05
-1.17105e-05
-1.17105e-05
-1.17105e-05
-1.17105e-05
-1.17105e-05
-1.17105e-05
-1.17105e-05
-1.17105e-05
-1.17105e-05
-1.17105e-05
-1.17105e-05
-1.17105e-05
-1.17105e-05
-1.17105e-05
-1.17105e-05
-1.17105e-05
-1.17105e-05
-1.17105e-05
-1.17105e-05
-1.17105e-05
-1.17105e-05
-1.17105e-05
-1.17105e-05
-1.17105e-05
-1.17105e-05
-1.17105e-05
-1.17105e-05
-1.17105e-05
-1.17105e-05
-1.17105e-05
-1.17105e-05
-1.17105e-05
-1.17105e-05
-1.17105e-05
-1.17105e-05
-1.17105e-05
-1.17105e-05
-1.17105e-05
)
;
    }
    inandouthalf42
    {
        type            cyclic;
        value           nonuniform List<scalar> 
50
(
1.17105e-05
1.17105e-05
1.17105e-05
1.17105e-05
1.17105e-05
1.17105e-05
1.17105e-05
1.17105e-05
1.17105e-05
1.17105e-05
1.17105e-05
1.17105e-05
1.17105e-05
1.17105e-05
1.17105e-05
1.17105e-05
1.17105e-05
1.17105e-05
1.17105e-05
1.17105e-05
1.17105e-05
1.17105e-05
1.17105e-05
1.17105e-05
1.17105e-05
1.17105e-05
1.17105e-05
1.17105e-05
1.17105e-05
1.17105e-05
1.17105e-05
1.17105e-05
1.17105e-05
1.17105e-05
1.17105e-05
1.17105e-05
1.17105e-05
1.17105e-05
1.17105e-05
1.17105e-05
1.17105e-05
1.17105e-05
1.17105e-05
1.17105e-05
1.17105e-05
1.17105e-05
1.17105e-05
1.17105e-05
1.17105e-05
1.17105e-05
)
;
    }
    top
    {
        type            symmetryPlane;
        value           uniform 0;
    }
    walls
    {
        type            fixedValue;
        value           uniform 0;
    }
    frontAndBackPlanes
    {
        type            empty;
        value           nonuniform 0();
    }
}


// ************************************************************************* //
