/*--------------------------------*- C++ -*----------------------------------*\
| =========                 |                                                 |
| \\      /  F ield         | OpenFOAM: The Open Source CFD Toolbox           |
|  \\    /   O peration     | Version:  2.4.x                                 |
|   \\  /    A nd           | Web:      www.OpenFOAM.org                      |
|    \\/     M anipulation  |                                                 |
\*---------------------------------------------------------------------------*/
FoamFile
{
    version     2.0;
    format      ascii;
    class       volScalarField;
    location    "1.8";
    object      Theta_0;
}
// * * * * * * * * * * * * * * * * * * * * * * * * * * * * * * * * * * * * * //

dimensions      [0 2 -2 0 0 0 0];

internalField   nonuniform List<scalar> 
360
(
6.66136e-21
6.66136e-21
6.66136e-21
6.66136e-21
6.66136e-21
6.66136e-21
6.66136e-21
6.66136e-21
6.66136e-21
6.66136e-21
6.66136e-21
6.66136e-21
6.66136e-21
6.66136e-21
6.66136e-21
6.66136e-21
6.66136e-21
6.66136e-21
6.66136e-21
6.66136e-21
6.66136e-21
6.66136e-21
6.66136e-21
6.66136e-21
6.66136e-21
6.66136e-21
6.66136e-21
6.66136e-21
6.66136e-21
6.66136e-21
6.66136e-21
6.66136e-21
6.66136e-21
6.66136e-21
6.66136e-21
6.66135e-21
6.66135e-21
6.66135e-21
6.66135e-21
6.66135e-21
6.66135e-21
6.66135e-21
6.66135e-21
6.66135e-21
6.66135e-21
6.66135e-21
6.66135e-21
6.66135e-21
6.66135e-21
6.66135e-21
6.66135e-21
6.66135e-21
6.66135e-21
6.66135e-21
6.66135e-21
6.66135e-21
6.66135e-21
6.66135e-21
6.66135e-21
6.66135e-21
6.66135e-21
6.66134e-21
6.66134e-21
6.66134e-21
6.66134e-21
6.66134e-21
6.66134e-21
6.66134e-21
6.66134e-21
6.66133e-21
6.66133e-21
6.66134e-21
6.66609e-21
6.77348e-21
7.22198e-21
7.6005e-21
7.40171e-21
7.08002e-21
6.90271e-21
6.83e-21
6.80855e-21
6.81438e-21
6.83689e-21
6.86788e-21
6.89851e-21
6.92186e-21
6.93619e-21
6.94459e-21
6.95178e-21
6.96124e-21
6.97424e-21
6.99013e-21
7.00725e-21
7.02373e-21
7.03822e-21
7.0502e-21
7.05989e-21
7.06782e-21
7.07454e-21
7.08024e-21
0
0
0
0
0
0
0
0
0
0
0
0
0
0
0
7.14798e-21
7.16133e-21
7.17816e-21
7.19909e-21
7.22481e-21
7.25603e-21
7.29335e-21
7.33705e-21
7.38659e-21
7.44001e-21
7.4936e-21
7.54245e-21
7.58312e-21
7.61843e-21
7.66332e-21
7.75036e-21
7.93758e-21
8.3229e-21
9.04161e-21
1.01008e-20
1.08784e-20
1.03227e-20
8.77925e-21
7.53028e-21
6.92904e-21
6.72286e-21
6.67226e-21
6.66355e-21
2.08112e-20
4.4732e-16
9.58994e-12
1.51639e-08
2.08281e-06
5.40176e-05
0.000576147
0.00230281
0.00460068
0.00515736
0.0048345
0.00429271
0.00383096
0.00356653
0.00347998
0.00347785
0.00349167
0.00349964
0.00349984
0.00349344
0.00348252
0.003468
0.00345139
0.00343324
0.00341408
0.00339453
0.00337465
0.00335484
0.00333509
0.00331563
0.00329637
0.00327745
0.00325881
0.00324052
0.00322247
0.0032047
0.00318717
0.00316984
0.0031527
0.00313569
0.00311882
0.003102
0.00308525
0.00306851
0.00305179
0.00303501
0.00301818
0.00300128
0.00298427
0.00296714
0.00294986
0.00293243
0.00291483
0.00289705
0.00287906
0.00286085
0.0028424
0.00282373
0.00280463
0.00278488
0.00276443
0.00274323
0.00272127
0.00269853
0.00267496
0.00265048
0.00262505
0.00259866
0.00257124
0.00254274
0.00251309
0.00248225
0.00245018
0.00241676
0.00238194
0.00234566
0.00230784
0.00226839
0.0022272
0.00218417
0.00213921
0.00209217
0.00204295
0.00199139
0.00193731
0.00188053
0.00182087
0.00175807
0.00169188
0.001622
0.00154809
0.00146974
0.00138644
0.0012976
0.00120249
0.00110016
0.000989322
0.000868199
0.000734095
0.000582248
0.000402131
0
0
0
0
0
0
0
0
0
0
0
0
0
0
0
0
0
0
0
0
0
0
0
0
0
0
0
0
0
0
0
0
0
0
0
0
0
0
0
0
0
0
0
0
0
0
0
0
0
0
0
0
0
0
0
0
0
0
0
0
0
0
0
0
0
0
0
0
0
0
0
0
0
0
0
0
0
0
0
0
0
0
0
0
0
0
0
0
0
0
0
0
0
0
0
0
0
0
0
0
0
0
0
0
0
0
0
0
0
0
0
0
0
0
0
0
)
;

boundaryField
{
    inandouthalf11
    {
        type            cyclic;
    }
    inandouthalf12
    {
        type            cyclic;
    }
    inandouthalf21
    {
        type            cyclic;
    }
    inandouthalf22
    {
        type            cyclic;
    }
    inandouthalf31
    {
        type            cyclic;
    }
    inandouthalf32
    {
        type            cyclic;
    }
    inandouthalf41
    {
        type            cyclic;
    }
    inandouthalf42
    {
        type            cyclic;
    }
    top
    {
        type            symmetryPlane;
    }
    walls
    {
        type            zeroGradient;
    }
    frontAndBackPlanes
    {
        type            empty;
    }
}


// ************************************************************************* //
