/*--------------------------------*- C++ -*----------------------------------*\
| =========                 |                                                 |
| \\      /  F ield         | OpenFOAM: The Open Source CFD Toolbox           |
|  \\    /   O peration     | Version:  2.4.x                                 |
|   \\  /    A nd           | Web:      www.OpenFOAM.org                      |
|    \\/     M anipulation  |                                                 |
\*---------------------------------------------------------------------------*/
FoamFile
{
    version     2.0;
    format      ascii;
    class       volScalarField;
    location    "1.8";
    object      tmf;
}
// * * * * * * * * * * * * * * * * * * * * * * * * * * * * * * * * * * * * * //

dimensions      [0 0 0 0 0 0 0];

internalField   nonuniform List<scalar> 
360
(
0.999203
0.999203
0.999203
0.999203
0.999203
0.999203
0.999203
0.999203
0.999203
0.999203
0.999203
0.999203
0.999203
0.999203
0.999203
0.999203
0.999203
0.999203
0.999203
0.999203
0.999203
0.999203
0.999203
0.999203
0.999203
0.999203
0.999203
0.999203
0.999203
0.999203
0.999203
0.999203
0.999203
0.999203
0.999203
0.999203
0.999203
0.999203
0.999203
0.999203
0.999203
0.999203
0.999203
0.999203
0.999203
0.999203
0.999203
0.999203
0.999203
0.999203
0.999203
0.999203
0.999203
0.999203
0.999202
0.999202
0.999202
0.999202
0.999202
0.999202
0.999202
0.999202
0.999202
0.999201
0.999201
0.999201
0.999201
0.999201
0.9992
0.9992
0.9992
0.9992
0.999199
0.999199
0.999199
0.999199
0.999199
0.999199
0.999199
0.999199
0.999199
0.999198
0.999198
0.999198
0.999198
0.999198
0.999197
0.999197
0.999197
0.999197
0.999197
0.999196
0.999196
0.999196
0.999196
0.999196
0.999195
0.999195
0.999195
0.999195
0.999194
0.999194
0.999194
0.999194
0.999193
0.999193
0.999193
0.999192
0.999192
0.999192
0.999192
0.999191
0.999191
0.999191
0.99919
0.99919
0.999189
0.999189
0.999189
0.999188
0.999188
0.999187
0.999187
0.999187
0.999186
0.999186
0.999185
0.999185
0.999184
0.999183
0.999183
0.999182
0.999182
0.999181
0.99918
0.999179
0.999179
0.999178
0.999177
0.999176
0.999176
0.999175
0.999174
0.999172
0.998616
0.986312
0.968562
0.961131
0.951438
0.893818
0.718392
0.644142
0.693315
0.746137
0.795683
0.843448
0.886935
0.921215
0.943912
0.957292
0.965445
0.97113
0.975526
0.979131
0.982213
0.985043
0.987882
0.990518
0.992446
0.993696
0.994545
0.995173
0.995668
0.996072
0.996406
0.99668
0.996897
0.997056
0.997142
0.997136
0.99701
0.996815
0.996806
0.996801
0.996796
0.99679
0.996785
0.996779
0.996773
0.996767
0.996761
0.996755
0.996748
0.996741
0.996735
0.996728
0.996721
0.996714
0.996707
0.9967
0.996692
0.996685
0.996677
0.996669
0.996661
0.996653
0.996645
0.996636
0.996626
0.996617
0.996607
0.996597
0.996586
0.996576
0.996565
0.996554
0.996542
0.996529
0.996517
0.996505
0.996491
0.996477
0.996463
0.996448
0.996433
0.996417
0.9964
0.996383
0.996365
0.996346
0.996326
0.996306
0.996285
0.996262
0.996239
0.996215
0.99619
0.996164
0.996137
0.99611
0.996084
0.99606
0.99604
0.996024
0.996005
0.99419
0.99419
0.99419
0.99419
0.99419
0.99419
0.99419
0.99419
0.99419
0.99419
0.99419
0.99419
0.99419
0.99419
0.99419
0.99419
0.99419
0.99419
0.99419
0.99419
0.99419
0.99419
0.99419
0.99419
0.99419
0.99419
0.99419
0.99419
0.99419
0.99419
0.99419
0.99419
0.99419
0.99419
0.99419
0.99419
0.99419
0.99419
0.99419
0.99419
0.99419
0.99419
0.99419
0.99419
0.99419
0.99419
0.99419
0.99419
0.99419
0.99419
0.99419
0.99419
0.99419
0.99419
0.99419
0.99419
0.99419
0.99419
0.99419
0.99419
0.99419
0.99419
0.99419
0.99419
0.99419
0.99419
0.99419
0.99419
0.99419
0.99419
0.99419
0.99419
0.99419
0.99419
0.99419
0.99419
0.99419
0.99419
0.99419
0.99419
0.99419
0.99419
0.99419
0.99419
0.99419
0.99419
0.99419
0.99419
0.99419
0.99419
0.99419
0.99419
0.99419
0.99419
0.99419
0.99419
0.99419
0.99419
0.99419
0.99419
0.99419
0.99419
0.99419
0.99419
0.99419
0.99419
0.99419
0.99419
0.99419
0.99419
0.99419
0.99419
0.99419
0.994175
0.993242
)
;

boundaryField
{
    inandouthalf11
    {
        type            cyclic;
    }
    inandouthalf12
    {
        type            cyclic;
    }
    inandouthalf21
    {
        type            cyclic;
    }
    inandouthalf22
    {
        type            cyclic;
    }
    inandouthalf31
    {
        type            cyclic;
    }
    inandouthalf32
    {
        type            cyclic;
    }
    inandouthalf41
    {
        type            cyclic;
    }
    inandouthalf42
    {
        type            cyclic;
    }
    top
    {
        type            symmetryPlane;
    }
    walls
    {
        type            calculated;
        value           uniform 0;
    }
    frontAndBackPlanes
    {
        type            empty;
    }
}


// ************************************************************************* //
