/*--------------------------------*- C++ -*----------------------------------*\
| =========                 |                                                 |
| \\      /  F ield         | OpenFOAM: The Open Source CFD Toolbox           |
|  \\    /   O peration     | Version:  2.4.x                                 |
|   \\  /    A nd           | Web:      www.OpenFOAM.org                      |
|    \\/     M anipulation  |                                                 |
\*---------------------------------------------------------------------------*/
FoamFile
{
    version     2.0;
    format      ascii;
    class       volVectorField;
    location    "1.8";
    object      U;
}
// * * * * * * * * * * * * * * * * * * * * * * * * * * * * * * * * * * * * * //

dimensions      [0 1 -1 0 0 0 0];

internalField   nonuniform List<vector> 
360
(
(-2.86623e-05 3.15041e-14 0)
(-2.87111e-05 9.4734e-14 0)
(-2.87115e-05 1.58095e-13 0)
(-2.87115e-05 2.21584e-13 0)
(-2.87115e-05 2.85221e-13 0)
(-2.87118e-05 3.48854e-13 0)
(-2.87118e-05 4.12508e-13 0)
(-2.87121e-05 4.7615e-13 0)
(-2.87121e-05 5.39631e-13 0)
(-2.87124e-05 6.03076e-13 0)
(-2.87127e-05 6.66483e-13 0)
(-2.87127e-05 7.29803e-13 0)
(-2.8713e-05 7.9315e-13 0)
(-2.87134e-05 8.56378e-13 0)
(-2.87137e-05 9.1942e-13 0)
(-2.8714e-05 9.82365e-13 0)
(-2.87143e-05 1.0452e-12 0)
(-2.87146e-05 1.10795e-12 0)
(-2.87149e-05 1.17054e-12 0)
(-2.87156e-05 1.23292e-12 0)
(-2.87159e-05 1.29508e-12 0)
(-2.87165e-05 1.35713e-12 0)
(-2.87171e-05 1.41895e-12 0)
(-2.87178e-05 1.48054e-12 0)
(-2.87184e-05 1.54184e-12 0)
(-2.8719e-05 1.60296e-12 0)
(-2.87196e-05 1.66391e-12 0)
(-2.87206e-05 1.72466e-12 0)
(-2.87215e-05 1.78525e-12 0)
(-2.87225e-05 1.84551e-12 0)
(-2.87234e-05 1.90547e-12 0)
(-2.87247e-05 1.96523e-12 0)
(-2.87256e-05 2.02466e-12 0)
(-2.87272e-05 2.08388e-12 0)
(-2.87285e-05 2.14276e-12 0)
(-2.873e-05 2.20145e-12 0)
(-2.87316e-05 2.25982e-12 0)
(-2.87335e-05 2.31797e-12 0)
(-2.87357e-05 2.37592e-12 0)
(-2.87376e-05 2.43346e-12 0)
(-2.87401e-05 2.49062e-12 0)
(-2.87426e-05 2.54744e-12 0)
(-2.87452e-05 2.60399e-12 0)
(-2.87483e-05 2.66027e-12 0)
(-2.87515e-05 2.71621e-12 0)
(-2.87549e-05 2.77189e-12 0)
(-2.87587e-05 2.8272e-12 0)
(-2.87625e-05 2.88214e-12 0)
(-2.87669e-05 2.93681e-12 0)
(-2.87719e-05 2.99098e-12 0)
(-2.8777e-05 3.0447e-12 0)
(-2.87827e-05 3.0982e-12 0)
(-2.87887e-05 3.15132e-12 0)
(-2.87953e-05 3.20422e-12 0)
(-2.88022e-05 3.25665e-12 0)
(-2.88101e-05 3.30865e-12 0)
(-2.88183e-05 3.36028e-12 0)
(-2.88275e-05 3.41156e-12 0)
(-2.88373e-05 3.46252e-12 0)
(-2.88477e-05 3.51301e-12 0)
(-2.88594e-05 3.56306e-12 0)
(-2.88717e-05 3.61279e-12 0)
(-2.88853e-05 3.66217e-12 0)
(-2.88999e-05 3.71111e-12 0)
(-2.89157e-05 3.75974e-12 0)
(-2.89328e-05 3.8078e-12 0)
(-2.89515e-05 3.85559e-12 0)
(-2.89718e-05 3.87449e-12 0)
(-2.89937e-05 8.30875e-12 0)
(-2.90172e-05 -4.84421e-11 0)
(-2.90429e-05 2.27672e-10 0)
(-2.90709e-05 -9.39099e-10 0)
(-2.90984e-05 8.6398e-09 0)
(-2.91022e-05 5.84586e-08 0)
(-2.90308e-05 6.95941e-08 0)
(-2.88811e-05 1.84695e-09 0)
(-2.87185e-05 -4.25698e-08 0)
(-2.8591e-05 -3.88368e-08 0)
(-2.85006e-05 -2.28228e-08 0)
(-2.84336e-05 -9.91913e-09 0)
(-2.83769e-05 -1.30455e-09 0)
(-2.83213e-05 4.1574e-09 0)
(-2.82601e-05 6.95403e-09 0)
(-2.81895e-05 7.26288e-09 0)
(-2.81084e-05 5.72479e-09 0)
(-2.80181e-05 3.51899e-09 0)
(-2.79208e-05 1.79773e-09 0)
(-2.78188e-05 1.07203e-09 0)
(-2.77128e-05 1.23174e-09 0)
(-2.76028e-05 1.83884e-09 0)
(-2.74879e-05 2.44232e-09 0)
(-2.73671e-05 2.76265e-09 0)
(-2.72396e-05 2.72622e-09 0)
(-2.71052e-05 2.39934e-09 0)
(-2.69639e-05 1.93455e-09 0)
(-2.68162e-05 1.47968e-09 0)
(-2.66625e-05 1.11745e-09 0)
(-2.6503e-05 8.61477e-10 0)
(-2.6338e-05 6.84042e-10 0)
(-2.61675e-05 5.47863e-10 0)
(-2.59916e-05 4.25998e-10 0)
(-2.58103e-05 3.11095e-10 0)
(-2.56235e-05 2.07391e-10 0)
(-2.54313e-05 1.1912e-10 0)
(-2.52335e-05 4.81742e-11 0)
(-2.50302e-05 -5.92563e-12 0)
(-2.48212e-05 -4.46918e-11 0)
(-2.46063e-05 -6.73032e-11 0)
(-2.43854e-05 -6.94661e-11 0)
(-2.41583e-05 -4.46228e-11 0)
(-2.39245e-05 1.47168e-11 0)
(-2.36837e-05 1.15756e-10 0)
(-2.34352e-05 2.64494e-10 0)
(-2.31784e-05 4.65407e-10 0)
(-2.29123e-05 7.2126e-10 0)
(-2.26358e-05 1.03295e-09 0)
(-2.23474e-05 1.39962e-09 0)
(-2.20455e-05 1.8189e-09 0)
(-2.1728e-05 2.28652e-09 0)
(-2.13925e-05 2.79423e-09 0)
(-2.10364e-05 3.3243e-09 0)
(-2.06563e-05 3.8392e-09 0)
(-2.02488e-05 4.26745e-09 0)
(-1.98102e-05 4.4932e-09 0)
(-1.93368e-05 4.36712e-09 0)
(-1.88256e-05 3.76533e-09 0)
(-1.82747e-05 2.71668e-09 0)
(-1.7683e-05 1.57431e-09 0)
(-1.70495e-05 1.13006e-09 0)
(-1.63703e-05 2.54137e-09 0)
(-1.56329e-05 7.05732e-09 0)
(-1.48091e-05 1.55982e-08 0)
(-1.38475e-05 2.77965e-08 0)
(-1.26694e-05 3.91167e-08 0)
(-1.11869e-05 3.63385e-08 0)
(-9.37438e-06 3.13263e-09 0)
(-7.38155e-06 -5.10678e-08 0)
(-5.53038e-06 -8.65428e-08 0)
(-4.1097e-06 -8.44859e-08 0)
(-3.20854e-06 -5.87797e-08 0)
(-2.74218e-06 -2.72989e-08 0)
(-2.54804e-06 -2.31017e-08 0)
(-2.52642e-06 -2.19901e-08 0)
(-2.61619e-06 -1.7234e-08 0)
(-2.77723e-06 -1.96034e-08 0)
(-3.00297e-06 -2.25458e-08 0)
(-3.28693e-06 -3.46016e-08 0)
(-2.6142e-07 -3.54008e-07 0)
(0.00840776 7.28185e-06 0)
(0.0825345 -3.15938e-05 0)
(0.272978 7.37623e-05 0)
(0.515611 -0.000188912 0)
(0.718167 5.23186e-05 0)
(0.877598 -2.79116e-05 0)
(1.00157 1.48837e-06 0)
(1.09729 -3.37753e-06 0)
(1.17026 2.92943e-06 0)
(1.22427 -3.41967e-06 0)
(1.2636 3.79397e-06 0)
(1.29353 -3.6578e-06 0)
(1.31761 3.6511e-06 0)
(1.33755 -3.52671e-06 0)
(1.35401 3.45888e-06 0)
(1.36765 -3.37932e-06 0)
(1.37881 3.32964e-06 0)
(1.38812 -3.28846e-06 0)
(1.3959 3.27147e-06 0)
(1.40248 -3.23396e-06 0)
(1.40818 3.18819e-06 0)
(1.41314 -3.13212e-06 0)
(1.41754 3.07244e-06 0)
(1.42146 -3.0073e-06 0)
(1.425 2.9405e-06 0)
(1.42818 -2.87087e-06 0)
(1.43109 2.80046e-06 0)
(1.43371 -2.72853e-06 0)
(1.43613 2.6568e-06 0)
(1.43833 -2.58483e-06 0)
(1.44035 2.51297e-06 0)
(1.4422 -2.4416e-06 0)
(1.44389 2.37098e-06 0)
(1.44546 -2.30103e-06 0)
(1.44689 2.23218e-06 0)
(1.44821 -2.1642e-06 0)
(1.44942 2.09761e-06 0)
(1.45054 -2.03197e-06 0)
(1.45157 1.96772e-06 0)
(1.45252 -1.90181e-06 0)
(1.4534 1.8349e-06 0)
(1.45421 -1.76726e-06 0)
(1.45495 1.69943e-06 0)
(1.45564 -1.63161e-06 0)
(1.45627 1.56424e-06 0)
(1.45685 -1.49747e-06 0)
(1.45739 1.43166e-06 0)
(1.45789 -1.36692e-06 0)
(1.45835 1.30354e-06 0)
(1.45877 -1.24159e-06 0)
(1.45916 1.18131e-06 0)
(1.45952 -1.12276e-06 0)
(1.45985 1.06612e-06 0)
(1.46016 -1.03244e-06 0)
(1.46045 9.99909e-07 0)
(1.46073 -9.6831e-07 0)
(1.46098 9.37568e-07 0)
(1.46122 -9.07508e-07 0)
(1.46145 8.78089e-07 0)
(1.46165 -8.49166e-07 0)
(1.46185 8.20738e-07 0)
(1.46203 -7.92695e-07 0)
(1.46219 7.65048e-07 0)
(1.46235 -7.37716e-07 0)
(1.46249 7.10739e-07 0)
(1.46262 -6.84056e-07 0)
(1.46274 6.57716e-07 0)
(1.46285 -6.31676e-07 0)
(1.46295 6.06001e-07 0)
(1.46304 -5.80663e-07 0)
(1.46313 5.5573e-07 0)
(1.4632 -5.31182e-07 0)
(1.46327 5.07097e-07 0)
(1.46334 -4.83462e-07 0)
(1.46339 4.60351e-07 0)
(1.46344 -4.37757e-07 0)
(1.46349 4.15754e-07 0)
(1.46353 -3.94336e-07 0)
(1.46357 3.73575e-07 0)
(1.4636 -3.53462e-07 0)
(1.46363 3.34062e-07 0)
(1.46365 -3.15365e-07 0)
(1.46367 2.97432e-07 0)
(1.46369 -2.80247e-07 0)
(1.46371 2.63864e-07 0)
(1.46373 -2.4826e-07 0)
(1.46374 2.33482e-07 0)
(1.46375 -2.19502e-07 0)
(1.46376 2.06359e-07 0)
(1.46377 -1.94018e-07 0)
(1.46378 1.82509e-07 0)
(1.46378 -1.71794e-07 0)
(1.46379 1.61893e-07 0)
(1.46379 -1.52763e-07 0)
(1.4638 1.44417e-07 0)
(1.4638 -1.36806e-07 0)
(1.46381 1.29937e-07 0)
(1.46381 -1.23653e-07 0)
(1.46381 1.18162e-07 0)
(1.46381 -1.13306e-07 0)
(1.46381 1.09081e-07 0)
(1.46381 -1.05429e-07 0)
(1.46381 1.02342e-07 0)
(1.46382 -9.97615e-08 0)
(1.46382 9.76755e-08 0)
(1.46382 -9.60262e-08 0)
(1.46382 9.47992e-08 0)
(1.46382 -9.39378e-08 0)
(1.46382 9.34262e-08 0)
(1.46382 -9.32098e-08 0)
(1.46382 9.32723e-08 0)
(1.46382 -9.35624e-08 0)
(1.46382 9.40637e-08 0)
(1.46382 -9.47288e-08 0)
(1.46382 9.55422e-08 0)
(1.46382 -9.64608e-08 0)
(1.46382 9.74705e-08 0)
(1.46382 -9.85327e-08 0)
(1.46382 9.96352e-08 0)
(1.46382 -1.00744e-07 0)
(1.46382 1.01849e-07 0)
(1.46382 -1.0292e-07 0)
(1.46382 1.03951e-07 0)
(1.46382 -1.04914e-07 0)
(1.46382 1.05807e-07 0)
(1.46382 -1.06606e-07 0)
(1.46382 1.07311e-07 0)
(1.46382 -1.07903e-07 0)
(1.46382 1.08383e-07 0)
(1.46382 -1.08738e-07 0)
(1.46382 1.08969e-07 0)
(1.46382 -1.09068e-07 0)
(1.46382 1.09039e-07 0)
(1.46382 -1.08875e-07 0)
(1.46382 1.08583e-07 0)
(1.46382 -1.08159e-07 0)
(1.46382 1.07612e-07 0)
(1.46382 -1.0694e-07 0)
(1.46382 1.06153e-07 0)
(1.46382 -1.05251e-07 0)
(1.46382 1.04246e-07 0)
(1.46382 -1.03139e-07 0)
(1.46382 1.01941e-07 0)
(1.46382 -1.00657e-07 0)
(1.46382 9.92975e-08 0)
(1.46382 -9.78683e-08 0)
(1.46382 9.63799e-08 0)
(1.46382 -9.48391e-08 0)
(1.46382 9.32559e-08 0)
(1.46382 -9.1638e-08 0)
(1.46382 8.99948e-08 0)
(1.46382 -8.83343e-08 0)
(1.46382 8.66656e-08 0)
(1.46382 -8.49962e-08 0)
(1.46382 8.3335e-08 0)
(1.46382 -8.16894e-08 0)
(1.46382 8.00673e-08 0)
(1.46382 -7.84759e-08 0)
(1.46382 7.69224e-08 0)
(1.46382 -7.54133e-08 0)
(1.46382 7.39554e-08 0)
(1.46382 -7.25543e-08 0)
(1.46382 6.23071e-08 0)
(1.46382 -5.9609e-08 0)
(1.46382 5.69975e-08 0)
(1.46382 -5.44739e-08 0)
(1.46382 5.20391e-08 0)
(1.46382 -4.96937e-08 0)
(1.46382 4.74376e-08 0)
(1.46382 -4.5271e-08 0)
(1.46382 4.31928e-08 0)
(1.46382 -4.12025e-08 0)
(1.46382 3.92987e-08 0)
(1.46382 -3.74804e-08 0)
(1.46382 3.57453e-08 0)
(1.46382 -3.40925e-08 0)
(1.46382 3.2519e-08 0)
(1.46382 -3.1024e-08 0)
(1.46382 2.96038e-08 0)
(1.46382 -2.82577e-08 0)
(1.46382 2.69813e-08 0)
(1.46382 -2.57751e-08 0)
(1.46382 2.46325e-08 0)
(1.46382 -2.35566e-08 0)
(1.46382 2.25377e-08 0)
(1.46382 -2.15822e-08 0)
(1.46382 2.06772e-08 0)
(1.46382 -1.98324e-08 0)
(1.46382 1.90317e-08 0)
(1.46382 -1.82882e-08 0)
(1.46382 1.75826e-08 0)
(1.46382 -1.69315e-08 0)
(1.46382 1.63123e-08 0)
(1.46382 -1.5745e-08 0)
(1.46382 1.52041e-08 0)
(1.46382 -1.47085e-08 0)
(1.46382 1.42175e-08 0)
(1.46382 -1.37592e-08 0)
(1.46382 1.33042e-08 0)
(1.46382 -1.28844e-08 0)
(1.46382 1.24672e-08 0)
(1.46382 -1.20873e-08 0)
(1.46382 1.171e-08 0)
(1.46382 -1.13718e-08 0)
(1.46382 1.10378e-08 0)
(1.46382 -1.07442e-08 0)
(1.46382 1.04573e-08 0)
(1.46382 -1.02127e-08 0)
(1.46382 9.98087e-09 0)
(1.46382 -9.79336e-09 0)
(1.46382 9.63119e-09 0)
(1.46382 -9.52329e-09 0)
)
;

boundaryField
{
    inandouthalf11
    {
        type            cyclic;
    }
    inandouthalf12
    {
        type            cyclic;
    }
    inandouthalf21
    {
        type            cyclic;
    }
    inandouthalf22
    {
        type            cyclic;
    }
    inandouthalf31
    {
        type            cyclic;
    }
    inandouthalf32
    {
        type            cyclic;
    }
    inandouthalf41
    {
        type            cyclic;
    }
    inandouthalf42
    {
        type            cyclic;
    }
    top
    {
        type            symmetryPlane;
    }
    walls
    {
        type            calculated;
        value           uniform (0 0 0);
    }
    frontAndBackPlanes
    {
        type            empty;
    }
}


// ************************************************************************* //
