/*--------------------------------*- C++ -*----------------------------------*\
| =========                 |                                                 |
| \\      /  F ield         | OpenFOAM: The Open Source CFD Toolbox           |
|  \\    /   O peration     | Version:  2.4.x                                 |
|   \\  /    A nd           | Web:      www.OpenFOAM.org                      |
|    \\/     M anipulation  |                                                 |
\*---------------------------------------------------------------------------*/
FoamFile
{
    version     2.0;
    format      ascii;
    class       volVectorField;
    location    "1.8";
    object      Ua;
}
// * * * * * * * * * * * * * * * * * * * * * * * * * * * * * * * * * * * * * //

dimensions      [0 1 -1 0 0 0 0];

internalField   nonuniform List<vector> 
360
(
(1.30446e-36 -7.32706e-36 0)
(1.30449e-36 -7.3243e-36 0)
(1.30452e-36 -7.32477e-36 0)
(1.30457e-36 -7.32548e-36 0)
(1.30463e-36 -7.32668e-36 0)
(1.30472e-36 -7.32837e-36 0)
(1.30483e-36 -7.33055e-36 0)
(1.30496e-36 -7.33323e-36 0)
(1.30512e-36 -7.33642e-36 0)
(1.3053e-36 -7.34013e-36 0)
(1.30551e-36 -7.34435e-36 0)
(1.30576e-36 -7.34909e-36 0)
(1.30603e-36 -7.35435e-36 0)
(1.30634e-36 -7.36013e-36 0)
(1.30667e-36 -7.36642e-36 0)
(1.30705e-36 -7.37324e-36 0)
(1.30745e-36 -7.38056e-36 0)
(1.3079e-36 -7.38839e-36 0)
(1.30838e-36 -7.39673e-36 0)
(1.3089e-36 -7.40556e-36 0)
(1.30946e-36 -7.41489e-36 0)
(1.31006e-36 -7.42471e-36 0)
(1.3107e-36 -7.43502e-36 0)
(1.31138e-36 -7.44581e-36 0)
(1.3121e-36 -7.45707e-36 0)
(1.31286e-36 -7.46879e-36 0)
(1.31367e-36 -7.48097e-36 0)
(1.31452e-36 -7.4936e-36 0)
(1.31541e-36 -7.5067e-36 0)
(1.31635e-36 -7.52025e-36 0)
(1.31733e-36 -7.53424e-36 0)
(1.31836e-36 -7.54868e-36 0)
(1.31944e-36 -7.56356e-36 0)
(1.32056e-36 -7.57889e-36 0)
(1.32173e-36 -7.59467e-36 0)
(1.32295e-36 -7.61091e-36 0)
(1.32421e-36 -7.6276e-36 0)
(1.32553e-36 -7.64477e-36 0)
(1.3269e-36 -7.66245e-36 0)
(1.32832e-36 -7.68062e-36 0)
(1.3298e-36 -7.69931e-36 0)
(1.33133e-36 -7.71855e-36 0)
(1.33293e-36 -7.73834e-36 0)
(1.33458e-36 -7.75872e-36 0)
(1.3363e-36 -7.77974e-36 0)
(1.33809e-36 -7.80141e-36 0)
(1.33995e-36 -7.82378e-36 0)
(1.34189e-36 -7.8469e-36 0)
(1.34391e-36 -7.87081e-36 0)
(1.34601e-36 -7.89564e-36 0)
(1.34822e-36 -7.92147e-36 0)
(1.35053e-36 -7.94837e-36 0)
(1.35296e-36 -7.97648e-36 0)
(1.35552e-36 -8.00593e-36 0)
(1.35822e-36 -8.03688e-36 0)
(1.36109e-36 -8.06959e-36 0)
(1.36416e-36 -8.10427e-36 0)
(1.36745e-36 -8.14133e-36 0)
(1.371e-36 -8.18112e-36 0)
(1.37489e-36 -8.2244e-36 0)
(1.37917e-36 -8.27181e-36 0)
(1.38406e-36 -8.3255e-36 0)
(1.38976e-36 -8.38751e-36 0)
(1.39708e-36 -8.46606e-36 0)
(1.40754e-36 -8.57641e-36 0)
(1.42732e-36 -8.78021e-36 0)
(1.47479e-36 -9.25954e-36 0)
(1.66215e-36 -1.1118e-35 0)
(3.30061e-36 -2.71479e-35 0)
(2.27807e-34 -2.20136e-33 0)
(1.03311e-30 -9.94673e-30 0)
(3.52714e-23 -3.38874e-22 0)
(1.19173e-09 -1.14443e-08 0)
(2.09273e-08 -1.99763e-07 0)
(1.0098e-07 -9.43093e-07 0)
(2.45947e-07 -2.21564e-06 0)
(4.0276e-07 -3.49595e-06 0)
(5.32669e-07 -4.4884e-06 0)
(6.33757e-07 -5.22427e-06 0)
(7.17089e-07 -5.81208e-06 0)
(7.93051e-07 -6.33682e-06 0)
(8.69219e-07 -6.8546e-06 0)
(9.5082e-07 -7.40091e-06 0)
(1.04092e-06 -7.99372e-06 0)
(1.14037e-06 -8.63471e-06 0)
(1.24822e-06 -9.31352e-06 0)
(1.3627e-06 -1.00157e-05 0)
(1.48229e-06 -1.07303e-05 0)
(1.60637e-06 -1.14527e-05 0)
(1.73521e-06 -1.21843e-05 0)
(1.86957e-06 -1.29291e-05 0)
(2.01033e-06 -1.36912e-05 0)
(2.15809e-06 -1.44726e-05 0)
(2.31308e-06 -1.5273e-05 0)
(2.47518e-06 -1.60902e-05 0)
(2.64409e-06 -1.69214e-05 0)
(2.81944e-06 -1.77634e-05 0)
(3.00098e-06 -1.86141e-05 0)
(3.18856e-06 -1.94719e-05 0)
(3.3821e-06 -2.03356e-05 0)
(3.58162e-06 -2.12044e-05 0)
(3.78711e-06 -2.20776e-05 0)
(3.99861e-06 -2.29544e-05 0)
(4.21617e-06 -2.38342e-05 0)
(4.43985e-06 -2.47166e-05 0)
(4.66975e-06 -2.56012e-05 0)
(4.90603e-06 -2.64876e-05 0)
(5.14885e-06 -2.73758e-05 0)
(5.39844e-06 -2.82656e-05 0)
(5.6551e-06 -2.91571e-05 0)
(5.91917e-06 -3.00507e-05 0)
(6.19115e-06 -3.09467e-05 0)
(6.47164e-06 -3.18461e-05 0)
(6.76141e-06 -3.27498e-05 0)
(7.06142e-06 -3.36593e-05 0)
(7.37288e-06 -3.45766e-05 0)
(7.69721e-06 -3.55037e-05 0)
(8.03618e-06 -3.64433e-05 0)
(8.39184e-06 -3.73983e-05 0)
(8.76663e-06 -3.8372e-05 0)
(9.16337e-06 -3.9368e-05 0)
(9.5853e-06 -4.039e-05 0)
(1.0036e-05 -4.14418e-05 0)
(1.05193e-05 -4.25265e-05 0)
(1.10389e-05 -4.36459e-05 0)
(1.15977e-05 -4.47996e-05 0)
(1.21979e-05 -4.59839e-05 0)
(1.28403e-05 -4.71919e-05 0)
(1.35257e-05 -4.84159e-05 0)
(1.42581e-05 -4.9653e-05 0)
(1.50502e-05 -5.09127e-05 0)
(1.59311e-05 -5.22264e-05 0)
(1.69539e-05 -5.36536e-05 0)
(1.81989e-05 -5.52815e-05 0)
(1.97547e-05 -5.71929e-05 0)
(2.16439e-05 -5.93705e-05 0)
(2.37118e-05 -6.15789e-05 0)
(2.56358e-05 -6.34399e-05 0)
(2.7132e-05 -6.47229e-05 0)
(2.8116e-05 -6.54612e-05 0)
(2.86661e-05 -6.58156e-05 0)
(2.89299e-05 -6.5953e-05 0)
(2.90492e-05 -6.60003e-05 0)
(2.91053e-05 -6.60176e-05 0)
(2.91349e-05 -6.60245e-05 0)
(2.91554e-05 -6.60274e-05 0)
(2.91825e-05 -6.60288e-05 0)
(2.92939e-05 -6.60294e-05 0)
(0.00833998 -4.26455e-05 0)
(0.0815962 -0.000322857 0)
(0.264446 -0.000308533 0)
(0.493789 0.00228591 0)
(0.684969 0.00434804 0)
(0.834631 0.00554699 0)
(0.947407 0.00616102 0)
(1.02697 0.00637664 0)
(1.0783 0.00625456 0)
(1.10953 0.00571241 0)
(1.12981 0.00486955 0)
(1.14518 0.00395025 0)
(1.15804 0.00308455 0)
(1.16918 0.00233319 0)
(1.17899 0.00168258 0)
(1.18768 0.00111702 0)
(1.19546 0.00061721 0)
(1.20243 0.000176562 0)
(1.20875 -0.000219409 0)
(1.21448 -0.000574795 0)
(1.2197 -0.000895669 0)
(1.22449 -0.00118822 0)
(1.22888 -0.00145458 0)
(1.23294 -0.00169927 0)
(1.2367 -0.00192409 0)
(1.24019 -0.00213271 0)
(1.24344 -0.0023256 0)
(1.24647 -0.00250508 0)
(1.24932 -0.0026726 0)
(1.25199 -0.00283044 0)
(1.2545 -0.00297761 0)
(1.25688 -0.00311713 0)
(1.25913 -0.0032487 0)
(1.26127 -0.00337356 0)
(1.2633 -0.00349227 0)
(1.26524 -0.00360536 0)
(1.26709 -0.00371378 0)
(1.26886 -0.00381749 0)
(1.27056 -0.00391695 0)
(1.2722 -0.0040129 0)
(1.27378 -0.00410631 0)
(1.2753 -0.00419549 0)
(1.27677 -0.00428265 0)
(1.2782 -0.00436737 0)
(1.27959 -0.00445004 0)
(1.28093 -0.00453069 0)
(1.28224 -0.00460909 0)
(1.2835 -0.00468555 0)
(1.28475 -0.00476096 0)
(1.28597 -0.00483624 0)
(1.28717 -0.00491013 0)
(1.28833 -0.00498194 0)
(1.28945 -0.00505196 0)
(1.29057 -0.00512221 0)
(1.29171 -0.0051941 0)
(1.29286 -0.00526873 0)
(1.29401 -0.00534307 0)
(1.29514 -0.00541619 0)
(1.29625 -0.00548947 0)
(1.29741 -0.00556615 0)
(1.2986 -0.00564687 0)
(1.29978 -0.00572685 0)
(1.30094 -0.00580544 0)
(1.30212 -0.00588701 0)
(1.30335 -0.00597311 0)
(1.30456 -0.00605887 0)
(1.30575 -0.00614348 0)
(1.307 -0.00623307 0)
(1.30829 -0.00632864 0)
(1.30957 -0.00642345 0)
(1.31083 -0.00651677 0)
(1.31213 -0.00661514 0)
(1.3135 -0.00672078 0)
(1.31487 -0.00682726 0)
(1.31624 -0.00693491 0)
(1.31767 -0.00704967 0)
(1.31912 -0.00716752 0)
(1.32056 -0.00728602 0)
(1.32209 -0.00741399 0)
(1.32368 -0.0075493 0)
(1.32524 -0.00768409 0)
(1.32687 -0.00782637 0)
(1.32858 -0.00797908 0)
(1.33029 -0.00813407 0)
(1.33205 -0.00829621 0)
(1.33386 -0.00846553 0)
(1.33572 -0.00864257 0)
(1.33763 -0.00882821 0)
(1.33956 -0.00901883 0)
(1.34152 -0.00921454 0)
(1.34349 -0.00941508 0)
(1.34547 -0.00962101 0)
(1.34734 -0.0098174 0)
(1.34901 -0.00999575 0)
(1.35043 -0.0101484 0)
(1.35153 -0.010265 0)
(1.3528 -0.0104208 0)
(1.46516 -0.0395451 0)
(1.46516 -0.039545 0)
(1.46516 -0.039545 0)
(1.46516 -0.039545 0)
(1.46516 -0.039545 0)
(1.46516 -0.039545 0)
(1.46516 -0.039545 0)
(1.46516 -0.039545 0)
(1.46516 -0.039545 0)
(1.46516 -0.039545 0)
(1.46516 -0.039545 0)
(1.46517 -0.039545 0)
(1.46517 -0.039545 0)
(1.46517 -0.039545 0)
(1.46517 -0.039545 0)
(1.46517 -0.039545 0)
(1.46517 -0.039545 0)
(1.46517 -0.039545 0)
(1.46517 -0.039545 0)
(1.46517 -0.039545 0)
(1.46517 -0.039545 0)
(1.46517 -0.039545 0)
(1.46517 -0.039545 0)
(1.46517 -0.039545 0)
(1.46517 -0.039545 0)
(1.46517 -0.039545 0)
(1.46517 -0.039545 0)
(1.46517 -0.039545 0)
(1.46517 -0.039545 0)
(1.46517 -0.039545 0)
(1.46517 -0.039545 0)
(1.46517 -0.039545 0)
(1.46517 -0.039545 0)
(1.46517 -0.039545 0)
(1.46517 -0.039545 0)
(1.46517 -0.039545 0)
(1.46517 -0.039545 0)
(1.46517 -0.039545 0)
(1.46517 -0.039545 0)
(1.46517 -0.039545 0)
(1.46517 -0.039545 0)
(1.46517 -0.039545 0)
(1.46517 -0.039545 0)
(1.46517 -0.039545 0)
(1.46517 -0.039545 0)
(1.46517 -0.039545 0)
(1.46517 -0.039545 0)
(1.46517 -0.039545 0)
(1.46517 -0.039545 0)
(1.46517 -0.039545 0)
(1.46517 -0.039545 0)
(1.46517 -0.039545 0)
(1.46517 -0.039545 0)
(1.46517 -0.039545 0)
(1.46517 -0.039545 0)
(1.46517 -0.039545 0)
(1.46517 -0.039545 0)
(1.46517 -0.039545 0)
(1.46517 -0.039545 0)
(1.46517 -0.039545 0)
(1.46517 -0.039545 0)
(1.46517 -0.039545 0)
(1.46517 -0.039545 0)
(1.46517 -0.039545 0)
(1.46517 -0.039545 0)
(1.46517 -0.039545 0)
(1.46517 -0.039545 0)
(1.46517 -0.039545 0)
(1.46517 -0.039545 0)
(1.46517 -0.039545 0)
(1.46517 -0.039545 0)
(1.46517 -0.039545 0)
(1.46517 -0.039545 0)
(1.46517 -0.039545 0)
(1.46517 -0.039545 0)
(1.46517 -0.039545 0)
(1.46517 -0.039545 0)
(1.46517 -0.039545 0)
(1.46517 -0.039545 0)
(1.46517 -0.039545 0)
(1.46517 -0.039545 0)
(1.46517 -0.039545 0)
(1.46517 -0.039545 0)
(1.46517 -0.039545 0)
(1.46517 -0.039545 0)
(1.46517 -0.039545 0)
(1.46517 -0.039545 0)
(1.46517 -0.039545 0)
(1.46517 -0.039545 0)
(1.46517 -0.039545 0)
(1.46517 -0.039545 0)
(1.46517 -0.039545 0)
(1.46517 -0.039545 0)
(1.46517 -0.039545 0)
(1.46517 -0.039545 0)
(1.46517 -0.039545 0)
(1.46517 -0.039545 0)
(1.46517 -0.039545 0)
(1.46517 -0.039545 0)
(1.46517 -0.039545 0)
(1.46517 -0.039545 0)
(1.46517 -0.039545 0)
(1.46517 -0.039545 0)
(1.46517 -0.039545 0)
(1.46517 -0.039545 0)
(1.46517 -0.039545 0)
(1.46517 -0.039545 0)
(1.46517 -0.039545 0)
(1.46517 -0.039545 0)
(1.46517 -0.039545 0)
(1.46517 -0.039545 0)
(1.46517 -0.0395448 0)
(1.46517 -0.0395364 0)
(1.46518 -0.0391917 0)
(1.46538 -0.0224904 0)
)
;

boundaryField
{
    inandouthalf11
    {
        type            cyclic;
    }
    inandouthalf12
    {
        type            cyclic;
    }
    inandouthalf21
    {
        type            cyclic;
    }
    inandouthalf22
    {
        type            cyclic;
    }
    inandouthalf31
    {
        type            cyclic;
    }
    inandouthalf32
    {
        type            cyclic;
    }
    inandouthalf41
    {
        type            cyclic;
    }
    inandouthalf42
    {
        type            cyclic;
    }
    top
    {
        type            symmetryPlane;
    }
    walls
    {
        type            fixedValue;
        value           uniform (0 0 0);
    }
    frontAndBackPlanes
    {
        type            empty;
    }
}


// ************************************************************************* //
