/*--------------------------------*- C++ -*----------------------------------*\
| =========                 |                                                 |
| \\      /  F ield         | OpenFOAM: The Open Source CFD Toolbox           |
|  \\    /   O peration     | Version:  2.4.x                                 |
|   \\  /    A nd           | Web:      www.OpenFOAM.org                      |
|    \\/     M anipulation  |                                                 |
\*---------------------------------------------------------------------------*/
FoamFile
{
    version     2.0;
    format      ascii;
    class       surfaceScalarField;
    location    "2.35";
    object      ddt0(phib);
}
// * * * * * * * * * * * * * * * * * * * * * * * * * * * * * * * * * * * * * //

dimensions      [0 3 -2 0 0 0 0];

internalField   nonuniform List<scalar> 
359
(
4.94428e-17
7.22921e-17
1.31689e-16
1.95127e-16
2.58815e-16
3.24231e-16
3.77416e-16
4.43126e-16
4.87616e-16
5.75826e-16
6.06548e-16
6.66031e-16
7.38397e-16
7.94198e-16
8.3653e-16
9.16624e-16
9.82241e-16
1.04652e-15
1.09815e-15
1.20594e-15
1.25845e-15
1.31631e-15
1.40753e-15
1.52065e-15
1.59574e-15
1.6756e-15
1.77421e-15
1.8925e-15
1.96171e-15
2.09192e-15
2.19802e-15
2.3092e-15
2.41886e-15
2.57503e-15
2.7161e-15
2.82387e-15
2.94439e-15
3.10242e-15
3.2418e-15
3.37936e-15
3.5189e-15
3.6643e-15
3.82015e-15
3.99307e-15
4.17349e-15
4.72916e-15
8.47642e-15
3.84891e-14
2.45207e-13
1.39073e-12
6.37738e-12
2.33829e-11
6.86837e-11
1.6272e-10
3.13019e-10
4.93726e-10
6.46096e-10
7.1392e-10
6.81464e-10
5.7776e-10
4.48399e-10
3.28562e-10
2.33865e-10
1.65788e-10
1.19304e-10
8.82374e-11
6.74397e-11
5.32751e-11
4.33627e-11
3.62018e-11
3.08521e-11
2.6732e-11
2.34701e-11
2.07985e-11
1.84997e-11
1.63618e-11
1.41757e-11
1.17565e-11
8.98876e-12
5.86062e-12
2.45991e-12
-1.07092e-12
-4.58758e-12
-7.98316e-12
-1.12028e-11
-1.42378e-11
-1.71128e-11
-1.98693e-11
-2.25551e-11
-2.52165e-11
-2.78932e-11
-3.0618e-11
-3.34183e-11
-3.63172e-11
-3.93356e-11
-4.24918e-11
-4.5801e-11
-4.92735e-11
-5.2914e-11
-5.67208e-11
-6.06863e-11
-6.47978e-11
-6.90392e-11
-7.33921e-11
-7.78372e-11
-8.23546e-11
-8.69256e-11
-9.15323e-11
-9.61587e-11
-1.0079e-10
-1.05415e-10
-1.10024e-10
-1.14608e-10
-1.19161e-10
-1.23678e-10
-1.28158e-10
-1.32598e-10
-1.36997e-10
-1.41356e-10
-1.45677e-10
-1.49962e-10
-1.54215e-10
-1.58442e-10
-1.62654e-10
-1.66863e-10
-1.7109e-10
-1.75356e-10
-1.7968e-10
-1.84075e-10
-1.88531e-10
-1.93012e-10
-1.97456e-10
-2.01773e-10
-2.05835e-10
-2.09441e-10
-2.12238e-10
-2.13653e-10
-2.1281e-10
-2.08407e-10
-1.99031e-10
-1.84771e-10
-1.69296e-10
-1.56663e-10
-1.4954e-10
-1.47552e-10
-1.50334e-10
-5.0086e-10
8.54373e-08
8.92138e-08
7.86356e-08
6.74023e-08
5.7232e-08
4.84156e-08
4.08685e-08
3.44251e-08
2.89153e-08
2.41737e-08
2.00628e-08
1.64624e-08
1.3277e-08
1.04307e-08
7.86407e-09
5.52641e-09
3.37758e-09
1.38336e-09
-4.64249e-10
-2.1419e-09
-3.65814e-09
-5.22778e-09
-7.18674e-09
-9.0625e-09
-9.24321e-09
-7.16707e-09
-4.28926e-09
-2.16407e-09
-1.00599e-09
-4.60782e-10
-2.22389e-10
-1.19151e-10
-7.18903e-11
-4.78954e-11
-3.42111e-11
-2.55706e-11
-1.96628e-11
-1.56097e-11
-1.25553e-11
-9.98078e-12
-8.32542e-12
-7.03814e-12
-5.83972e-12
-4.8475e-12
-4.12883e-12
-3.6501e-12
-3.17764e-12
-2.65565e-12
-2.23544e-12
-1.99021e-12
-1.85883e-12
-1.66536e-12
-1.35685e-12
-1.08879e-12
-9.87145e-13
-1.03257e-12
-9.59355e-13
-7.13269e-13
-5.32801e-13
-5.47154e-13
-5.77795e-13
-4.55429e-13
-3.272e-13
-3.24453e-13
-3.16109e-13
-2.36861e-13
-1.96664e-13
-2.0725e-13
-1.79282e-13
-1.22216e-13
-1.07193e-13
-1.16081e-13
-9.62125e-14
-7.00826e-14
-6.41114e-14
-5.54469e-14
-4.31304e-14
-3.98271e-14
-3.35098e-14
-2.38932e-14
-2.12412e-14
-1.89223e-14
-1.32241e-14
-1.07509e-14
-9.486e-15
-6.82947e-15
-5.00881e-15
-3.73325e-15
-2.56671e-15
-1.37153e-15
-7.72888e-17
8.11337e-16
1.32709e-15
-2.786e-15
5.50409e-15
1.71085e-15
1.63749e-15
1.53011e-15
1.42783e-15
1.32555e-15
1.22097e-15
1.12337e-15
1.05503e-15
9.64593e-16
8.91194e-16
8.22617e-16
7.5763e-16
6.95007e-16
6.36089e-16
5.7957e-16
5.40438e-16
4.85866e-16
4.56724e-16
4.2801e-16
4.02363e-16
3.81758e-16
3.69715e-16
3.714e-16
3.75281e-16
3.85157e-16
4.01768e-16
4.25352e-16
4.44175e-16
4.66581e-16
4.90136e-16
5.2232e-16
5.50157e-16
5.79904e-16
6.11927e-16
6.53558e-16
6.93596e-16
7.41172e-16
7.6215e-16
8.10843e-16
8.58947e-16
9.05096e-16
9.24888e-16
9.46809e-16
9.50307e-16
9.55826e-16
9.27493e-16
9.46022e-16
9.34882e-16
9.05395e-16
8.54919e-16
8.20974e-16
7.63728e-16
7.2453e-16
6.6515e-16
8.71092e-16
1.04202e-15
1.23961e-15
1.41712e-15
1.64007e-15
1.81977e-15
1.99357e-15
2.09217e-15
2.35972e-15
2.54712e-15
2.73646e-15
2.81221e-15
3.00101e-15
3.02823e-15
3.06592e-15
2.98099e-15
3.25917e-15
3.39393e-15
3.54178e-15
3.51097e-15
3.63876e-15
3.56065e-15
3.50217e-15
3.2098e-15
3.45487e-15
3.39219e-15
3.36105e-15
2.92304e-15
3.06055e-15
2.6756e-15
2.52594e-15
1.26253e-15
5.87529e-15
8.89548e-15
1.21415e-14
1.36386e-14
1.69632e-14
1.7828e-14
1.88166e-14
1.70124e-14
2.03909e-14
2.02351e-14
2.01279e-14
1.58241e-14
1.47721e-14
9.27588e-15
3.85419e-15
-5.46623e-15
-8.77817e-15
-1.58374e-14
-2.28658e-14
-3.34735e-14
-4.26541e-14
-5.34186e-14
-6.4939e-14
-7.6372e-14
-9.62458e-14
-1.10079e-13
-1.24516e-13
-1.29429e-13
-1.43075e-13
-1.48166e-13
-1.63669e-13
)
;

boundaryField
{
    inandouthalf11
    {
        type            cyclic;
        value           nonuniform List<scalar> 
100
(
1.9953e-10
1.9987e-10
1.99872e-10
1.99872e-10
1.99872e-10
1.99874e-10
1.99874e-10
1.99875e-10
1.99875e-10
1.99877e-10
1.99879e-10
1.99879e-10
1.9988e-10
1.99882e-10
1.99884e-10
1.99885e-10
1.99887e-10
1.99889e-10
1.9989e-10
1.99894e-10
1.99895e-10
1.99899e-10
1.99902e-10
1.99906e-10
1.99909e-10
1.99912e-10
1.99916e-10
1.99921e-10
1.99926e-10
1.99931e-10
1.99936e-10
1.99942e-10
1.99947e-10
1.99956e-10
1.99963e-10
1.99971e-10
1.99979e-10
1.99989e-10
2.00001e-10
2.00011e-10
2.00025e-10
2.00038e-10
2.00052e-10
2.00068e-10
2.00085e-10
2.00104e-10
2.00124e-10
2.00144e-10
2.00169e-10
2.00205e-10
2.00281e-10
2.00522e-10
2.01248e-10
2.03042e-10
2.06489e-10
2.11518e-10
2.16865e-10
2.20586e-10
2.21417e-10
2.1959e-10
2.16354e-10
2.12971e-10
2.10155e-10
2.08097e-10
2.06704e-10
2.05801e-10
2.05229e-10
2.0487e-10
2.04646e-10
2.0451e-10
2.04432e-10
2.04394e-10
2.04383e-10
2.04394e-10
2.0442e-10
2.04459e-10
2.04509e-10
2.04567e-10
2.04636e-10
2.04717e-10
2.04809e-10
2.04914e-10
2.05031e-10
2.0516e-10
2.05297e-10
2.05443e-10
2.05596e-10
2.05755e-10
2.0592e-10
2.06091e-10
2.06267e-10
2.06449e-10
2.06637e-10
2.06828e-10
2.07023e-10
2.0722e-10
2.0742e-10
2.07622e-10
2.07826e-10
2.08033e-10
)
;
    }
    inandouthalf12
    {
        type            cyclic;
        value           nonuniform List<scalar> 
100
(
-1.9953e-10
-1.9987e-10
-1.99872e-10
-1.99872e-10
-1.99872e-10
-1.99874e-10
-1.99874e-10
-1.99875e-10
-1.99875e-10
-1.99877e-10
-1.99879e-10
-1.99879e-10
-1.9988e-10
-1.99882e-10
-1.99884e-10
-1.99885e-10
-1.99887e-10
-1.99889e-10
-1.9989e-10
-1.99894e-10
-1.99895e-10
-1.99899e-10
-1.99902e-10
-1.99906e-10
-1.99909e-10
-1.99912e-10
-1.99916e-10
-1.99921e-10
-1.99926e-10
-1.99931e-10
-1.99936e-10
-1.99942e-10
-1.99947e-10
-1.99956e-10
-1.99963e-10
-1.99971e-10
-1.99979e-10
-1.99989e-10
-2.00001e-10
-2.00011e-10
-2.00025e-10
-2.00038e-10
-2.00052e-10
-2.00068e-10
-2.00085e-10
-2.00104e-10
-2.00124e-10
-2.00144e-10
-2.00169e-10
-2.00205e-10
-2.00281e-10
-2.00522e-10
-2.01248e-10
-2.03042e-10
-2.06489e-10
-2.11518e-10
-2.16865e-10
-2.20586e-10
-2.21417e-10
-2.1959e-10
-2.16354e-10
-2.12971e-10
-2.10155e-10
-2.08097e-10
-2.06704e-10
-2.05801e-10
-2.05229e-10
-2.0487e-10
-2.04646e-10
-2.0451e-10
-2.04432e-10
-2.04394e-10
-2.04383e-10
-2.04394e-10
-2.0442e-10
-2.04459e-10
-2.04509e-10
-2.04567e-10
-2.04636e-10
-2.04717e-10
-2.04809e-10
-2.04914e-10
-2.05031e-10
-2.0516e-10
-2.05297e-10
-2.05443e-10
-2.05596e-10
-2.05755e-10
-2.0592e-10
-2.06091e-10
-2.06267e-10
-2.06449e-10
-2.06637e-10
-2.06828e-10
-2.07023e-10
-2.0722e-10
-2.0742e-10
-2.07622e-10
-2.07826e-10
-2.08033e-10
)
;
    }
    inandouthalf21
    {
        type            cyclic;
        value           nonuniform List<scalar> 
100
(
2.08241e-10
2.08452e-10
2.08667e-10
2.08884e-10
2.09106e-10
2.09331e-10
2.09562e-10
2.09797e-10
2.10039e-10
2.10286e-10
2.1054e-10
2.10801e-10
2.11069e-10
2.11345e-10
2.11629e-10
2.11923e-10
2.12225e-10
2.12538e-10
2.12862e-10
2.13197e-10
2.13545e-10
2.13906e-10
2.14281e-10
2.14673e-10
2.15081e-10
2.15508e-10
2.15954e-10
2.16423e-10
2.16917e-10
2.17439e-10
2.17992e-10
2.18575e-10
2.19187e-10
2.1983e-10
2.20501e-10
2.21191e-10
2.21879e-10
2.22532e-10
2.23103e-10
2.23506e-10
2.23583e-10
2.23249e-10
2.22863e-10
2.22913e-10
2.23724e-10
2.24567e-10
-1.82135e-10
-5.81474e-08
-1.79617e-07
-4.09354e-08
8.96353e-08
2.12252e-07
3.31069e-07
4.48188e-07
5.64697e-07
6.81169e-07
7.97912e-07
9.15124e-07
1.03298e-06
1.15158e-06
1.27099e-06
1.39127e-06
1.51249e-06
1.63465e-06
1.75771e-06
1.88152e-06
2.00582e-06
2.13014e-06
2.25366e-06
2.37492e-06
2.49074e-06
2.59332e-06
2.66765e-06
2.73121e-06
2.16151e-06
1.2392e-06
1.10147e-06
1.09285e-06
1.09026e-06
1.0888e-06
1.08783e-06
1.08716e-06
1.08663e-06
1.08623e-06
1.08589e-06
1.08564e-06
1.0854e-06
1.08522e-06
1.08505e-06
1.08492e-06
1.0848e-06
1.0847e-06
1.08461e-06
1.08453e-06
1.08446e-06
1.0844e-06
1.08435e-06
1.0843e-06
1.08425e-06
1.08421e-06
)
;
    }
    inandouthalf22
    {
        type            cyclic;
        value           nonuniform List<scalar> 
100
(
-2.08241e-10
-2.08452e-10
-2.08667e-10
-2.08884e-10
-2.09106e-10
-2.09331e-10
-2.09562e-10
-2.09797e-10
-2.10039e-10
-2.10286e-10
-2.1054e-10
-2.10801e-10
-2.11069e-10
-2.11345e-10
-2.11629e-10
-2.11923e-10
-2.12225e-10
-2.12538e-10
-2.12862e-10
-2.13197e-10
-2.13545e-10
-2.13906e-10
-2.14281e-10
-2.14673e-10
-2.15081e-10
-2.15508e-10
-2.15954e-10
-2.16423e-10
-2.16917e-10
-2.17439e-10
-2.17992e-10
-2.18575e-10
-2.19187e-10
-2.1983e-10
-2.20501e-10
-2.21191e-10
-2.21879e-10
-2.22532e-10
-2.23103e-10
-2.23506e-10
-2.23583e-10
-2.23249e-10
-2.22863e-10
-2.22913e-10
-2.23724e-10
-2.24567e-10
1.82135e-10
5.81474e-08
1.79617e-07
4.09354e-08
-8.96353e-08
-2.12252e-07
-3.31069e-07
-4.48188e-07
-5.64697e-07
-6.81169e-07
-7.97912e-07
-9.15124e-07
-1.03298e-06
-1.15158e-06
-1.27099e-06
-1.39127e-06
-1.51249e-06
-1.63465e-06
-1.75771e-06
-1.88152e-06
-2.00582e-06
-2.13014e-06
-2.25366e-06
-2.37492e-06
-2.49074e-06
-2.59332e-06
-2.66765e-06
-2.73121e-06
-2.16151e-06
-1.2392e-06
-1.10147e-06
-1.09285e-06
-1.09026e-06
-1.0888e-06
-1.08783e-06
-1.08716e-06
-1.08663e-06
-1.08623e-06
-1.08589e-06
-1.08564e-06
-1.0854e-06
-1.08522e-06
-1.08505e-06
-1.08492e-06
-1.0848e-06
-1.0847e-06
-1.08461e-06
-1.08453e-06
-1.08446e-06
-1.0844e-06
-1.08435e-06
-1.0843e-06
-1.08425e-06
-1.08421e-06
)
;
    }
    inandouthalf31
    {
        type            cyclic;
        value           nonuniform List<scalar> 
110
(
1.08418e-06
1.10616e-06
1.12859e-06
1.15146e-06
1.1748e-06
1.19863e-06
1.22294e-06
1.24774e-06
1.27305e-06
1.29887e-06
1.32522e-06
1.3521e-06
1.37953e-06
1.40752e-06
1.43608e-06
1.46522e-06
1.49495e-06
1.52528e-06
1.55624e-06
1.58782e-06
1.62004e-06
1.65291e-06
1.68646e-06
1.72068e-06
1.75561e-06
1.79124e-06
1.82759e-06
1.86468e-06
1.90253e-06
1.94114e-06
1.98054e-06
2.02074e-06
2.06175e-06
2.1036e-06
2.14629e-06
2.18986e-06
2.2343e-06
2.27965e-06
2.32592e-06
2.37313e-06
2.4213e-06
2.47045e-06
2.52059e-06
2.57175e-06
2.62395e-06
2.67721e-06
2.73155e-06
2.78699e-06
2.84356e-06
2.90128e-06
2.96016e-06
3.02025e-06
3.08155e-06
3.1441e-06
3.20791e-06
3.27303e-06
3.33946e-06
3.40724e-06
3.4764e-06
3.54696e-06
3.61896e-06
3.69241e-06
3.76736e-06
3.84382e-06
3.92184e-06
4.00145e-06
4.08267e-06
4.16553e-06
4.25008e-06
4.33635e-06
4.42436e-06
4.51417e-06
4.60579e-06
4.69928e-06
4.79466e-06
4.89198e-06
4.99127e-06
5.09258e-06
5.19595e-06
5.30141e-06
5.40902e-06
5.51881e-06
5.63082e-06
5.74511e-06
5.86172e-06
5.9807e-06
6.10209e-06
6.22595e-06
6.35232e-06
6.48126e-06
6.61281e-06
6.74703e-06
6.88398e-06
7.0237e-06
7.16627e-06
7.31172e-06
7.46013e-06
7.61155e-06
7.76605e-06
7.92368e-06
8.0845e-06
8.2486e-06
8.41602e-06
8.58685e-06
8.76114e-06
8.93896e-06
9.1204e-06
9.30552e-06
9.4944e-06
9.68711e-06
)
;
    }
    inandouthalf32
    {
        type            cyclic;
        value           nonuniform List<scalar> 
110
(
-1.08418e-06
-1.10616e-06
-1.12859e-06
-1.15146e-06
-1.1748e-06
-1.19863e-06
-1.22294e-06
-1.24774e-06
-1.27305e-06
-1.29887e-06
-1.32522e-06
-1.3521e-06
-1.37953e-06
-1.40752e-06
-1.43608e-06
-1.46522e-06
-1.49495e-06
-1.52528e-06
-1.55624e-06
-1.58782e-06
-1.62004e-06
-1.65291e-06
-1.68646e-06
-1.72068e-06
-1.75561e-06
-1.79124e-06
-1.82759e-06
-1.86468e-06
-1.90253e-06
-1.94114e-06
-1.98054e-06
-2.02074e-06
-2.06175e-06
-2.1036e-06
-2.14629e-06
-2.18986e-06
-2.2343e-06
-2.27965e-06
-2.32592e-06
-2.37313e-06
-2.4213e-06
-2.47045e-06
-2.52059e-06
-2.57175e-06
-2.62395e-06
-2.67721e-06
-2.73155e-06
-2.78699e-06
-2.84356e-06
-2.90128e-06
-2.96016e-06
-3.02025e-06
-3.08155e-06
-3.1441e-06
-3.20791e-06
-3.27303e-06
-3.33946e-06
-3.40724e-06
-3.4764e-06
-3.54696e-06
-3.61896e-06
-3.69241e-06
-3.76736e-06
-3.84382e-06
-3.92184e-06
-4.00145e-06
-4.08267e-06
-4.16553e-06
-4.25008e-06
-4.33635e-06
-4.42436e-06
-4.51417e-06
-4.60579e-06
-4.69928e-06
-4.79466e-06
-4.89198e-06
-4.99127e-06
-5.09258e-06
-5.19595e-06
-5.30141e-06
-5.40902e-06
-5.51881e-06
-5.63082e-06
-5.74511e-06
-5.86172e-06
-5.9807e-06
-6.10209e-06
-6.22595e-06
-6.35232e-06
-6.48126e-06
-6.61281e-06
-6.74703e-06
-6.88398e-06
-7.0237e-06
-7.16627e-06
-7.31172e-06
-7.46013e-06
-7.61155e-06
-7.76605e-06
-7.92368e-06
-8.0845e-06
-8.2486e-06
-8.41602e-06
-8.58685e-06
-8.76114e-06
-8.93896e-06
-9.1204e-06
-9.30552e-06
-9.4944e-06
-9.68711e-06
)
;
    }
    inandouthalf41
    {
        type            cyclic;
        value           nonuniform List<scalar> 
50
(
8.67095e-06
8.67095e-06
8.67095e-06
8.67095e-06
8.67095e-06
8.67095e-06
8.67095e-06
8.67095e-06
8.67095e-06
8.67095e-06
8.67095e-06
8.67095e-06
8.67095e-06
8.67095e-06
8.67095e-06
8.67095e-06
8.67095e-06
8.67095e-06
8.67095e-06
8.67095e-06
8.67095e-06
8.67095e-06
8.67095e-06
8.67095e-06
8.67095e-06
8.67095e-06
8.67095e-06
8.67095e-06
8.67095e-06
8.67095e-06
8.67095e-06
8.67095e-06
8.67095e-06
8.67095e-06
8.67095e-06
8.67095e-06
8.67095e-06
8.67095e-06
8.67095e-06
8.67095e-06
8.67095e-06
8.67095e-06
8.67095e-06
8.67095e-06
8.67095e-06
8.67095e-06
8.67095e-06
8.67095e-06
8.67095e-06
8.67095e-06
)
;
    }
    inandouthalf42
    {
        type            cyclic;
        value           nonuniform List<scalar> 
50
(
-8.67095e-06
-8.67095e-06
-8.67095e-06
-8.67095e-06
-8.67095e-06
-8.67095e-06
-8.67095e-06
-8.67095e-06
-8.67095e-06
-8.67095e-06
-8.67095e-06
-8.67095e-06
-8.67095e-06
-8.67095e-06
-8.67095e-06
-8.67095e-06
-8.67095e-06
-8.67095e-06
-8.67095e-06
-8.67095e-06
-8.67095e-06
-8.67095e-06
-8.67095e-06
-8.67095e-06
-8.67095e-06
-8.67095e-06
-8.67095e-06
-8.67095e-06
-8.67095e-06
-8.67095e-06
-8.67095e-06
-8.67095e-06
-8.67095e-06
-8.67095e-06
-8.67095e-06
-8.67095e-06
-8.67095e-06
-8.67095e-06
-8.67095e-06
-8.67095e-06
-8.67095e-06
-8.67095e-06
-8.67095e-06
-8.67095e-06
-8.67095e-06
-8.67095e-06
-8.67095e-06
-8.67095e-06
-8.67095e-06
-8.67095e-06
)
;
    }
    top
    {
        type            symmetryPlane;
        value           uniform 0;
    }
    walls
    {
        type            calculated;
        value           uniform 0;
    }
    frontAndBackPlanes
    {
        type            empty;
        value           nonuniform 0();
    }
}


// ************************************************************************* //
