/*--------------------------------*- C++ -*----------------------------------*\
| =========                 |                                                 |
| \\      /  F ield         | OpenFOAM: The Open Source CFD Toolbox           |
|  \\    /   O peration     | Version:  2.4.x                                 |
|   \\  /    A nd           | Web:      www.OpenFOAM.org                      |
|    \\/     M anipulation  |                                                 |
\*---------------------------------------------------------------------------*/
FoamFile
{
    version     2.0;
    format      ascii;
    class       volVectorField;
    location    "2.35";
    object      ddt0(Ua);
}
// * * * * * * * * * * * * * * * * * * * * * * * * * * * * * * * * * * * * * //

dimensions      [0 1 -2 0 0 0 0];

internalField   nonuniform List<vector> 
360
(
(-1.06189e-34 -1.02367e-33 0)
(-1.06191e-34 -1.02365e-33 0)
(-1.06209e-34 -1.02367e-33 0)
(-7.48536e-33 -5.66374e-32 0)
(-6.41105e-32 -4.81052e-31 0)
(-2.85116e-31 -2.12852e-30 0)
(-8.85849e-31 -6.58111e-30 0)
(-2.20077e-30 -1.62691e-29 0)
(-4.73744e-30 -3.48421e-29 0)
(-9.31956e-30 -6.81751e-29 0)
(-1.73891e-29 -1.26508e-28 0)
(-3.15808e-29 -2.28392e-28 0)
(-5.68531e-29 -4.08547e-28 0)
(-1.02737e-28 -7.33385e-28 0)
(-1.87774e-28 -1.33116e-27 0)
(-3.48512e-28 -2.45286e-27 0)
(-6.58061e-28 -4.59693e-27 0)
(-1.2651e-27 -8.76926e-27 0)
(-2.47766e-27 -1.70377e-26 0)
(-4.9469e-27 -3.37452e-26 0)
(-1.00757e-26 -6.81716e-26 0)
(-2.0949e-26 -1.4056e-25 0)
(-4.45176e-26 -2.96205e-25 0)
(-9.67919e-26 -6.38567e-25 0)
(-2.15596e-25 -1.41004e-24 0)
(-4.92892e-25 -3.195e-24 0)
(-1.15975e-24 -7.44909e-24 0)
(-2.81858e-24 -1.79378e-23 0)
(-7.1017e-24 -4.47842e-23 0)
(-1.86103e-23 -1.16274e-22 0)
(-5.09117e-23 -3.15084e-22 0)
(-1.46096e-22 -8.95623e-22 0)
(-4.42169e-22 -2.68461e-21 0)
(-1.42014e-21 -8.53966e-21 0)
(-4.87504e-21 -2.90365e-20 0)
(-1.80062e-20 -1.06216e-19 0)
(-7.2173e-20 -4.21665e-19 0)
(-3.16788e-19 -1.83334e-18 0)
(-1.53702e-18 -8.81515e-18 0)
(-8.3032e-18 -4.719e-17 0)
(-5.02712e-17 -2.83162e-16 0)
(-3.43468e-16 -1.91832e-15 0)
(-2.64694e-15 -1.46578e-14 0)
(-2.28943e-14 -1.25763e-13 0)
(-2.18571e-13 -1.19169e-12 0)
(-2.21659e-12 -1.19977e-11 0)
(-2.2616e-11 -1.21589e-10 0)
(-2.16646e-10 -1.15714e-09 0)
(-1.82042e-09 -9.66415e-09 0)
(-1.27313e-08 -6.72488e-08 0)
(-7.14998e-08 -3.75968e-07 0)
(-3.17565e-07 -1.6629e-06 0)
(-1.11501e-06 -5.81696e-06 0)
(-3.10952e-06 -1.61641e-05 0)
(-6.93643e-06 -3.591e-05 0)
(-1.24853e-05 -6.42875e-05 0)
(-1.83488e-05 -9.37317e-05 0)
(-2.23977e-05 -0.000113076 0)
(-2.32623e-05 -0.000115458 0)
(-2.12029e-05 -0.000102712 0)
(-1.75801e-05 -8.22563e-05 0)
(-1.37706e-05 -6.13079e-05 0)
(-1.0567e-05 -4.38812e-05 0)
(-8.19151e-06 -3.09967e-05 0)
(-6.55293e-06 -2.20866e-05 0)
(-5.46349e-06 -1.61167e-05 0)
(-4.74765e-06 -1.21402e-05 0)
(-4.27509e-06 -9.45826e-06 0)
(-3.95902e-06 -7.605e-06 0)
(-3.74467e-06 -6.28443e-06 0)
(-3.59848e-06 -5.31132e-06 0)
(-3.50038e-06 -4.57081e-06 0)
(-3.43864e-06 -3.99133e-06 0)
(-3.4062e-06 -3.52477e-06 0)
(-3.39835e-06 -3.13427e-06 0)
(-3.41089e-06 -2.78636e-06 0)
(-3.43897e-06 -2.44701e-06 0)
(-3.47694e-06 -2.08304e-06 0)
(-3.51924e-06 -1.66853e-06 0)
(-3.56186e-06 -1.19255e-06 0)
(-3.6033e-06 -6.62338e-07 0)
(-3.64448e-06 -9.8663e-08 0)
(-3.68766e-06 4.73456e-07 0)
(-3.73531e-06 1.03285e-06 0)
(-3.78929e-06 1.5665e-06 0)
(-3.85061e-06 2.06984e-06 0)
(-3.91948e-06 2.54478e-06 0)
(-3.99548e-06 2.9972e-06 0)
(-4.07779e-06 3.43466e-06 0)
(-4.16531e-06 3.86493e-06 0)
(-4.25688e-06 4.295e-06 0)
(-4.35134e-06 4.73069e-06 0)
(-4.44765e-06 5.17675e-06 0)
(-4.54486e-06 5.6372e-06 0)
(-4.64221e-06 6.11558e-06 0)
(-4.73903e-06 6.61507e-06 0)
(-4.8348e-06 7.13845e-06 0)
(-4.92913e-06 7.68787e-06 0)
(-5.02177e-06 8.26459e-06 0)
(-5.11262e-06 8.86889e-06 0)
(-5.20175e-06 9.50001e-06 0)
(-5.28932e-06 1.01563e-05 0)
(-5.37563e-06 1.08354e-05 0)
(-5.46105e-06 1.15345e-05 0)
(-5.546e-06 1.22506e-05 0)
(-5.63094e-06 1.29806e-05 0)
(-5.7163e-06 1.37212e-05 0)
(-5.80254e-06 1.44695e-05 0)
(-5.89006e-06 1.52229e-05 0)
(-5.97928e-06 1.59789e-05 0)
(-6.07056e-06 1.67354e-05 0)
(-6.16426e-06 1.74906e-05 0)
(-6.2607e-06 1.82431e-05 0)
(-6.3602e-06 1.89919e-05 0)
(-6.46308e-06 1.9736e-05 0)
(-6.56965e-06 2.0475e-05 0)
(-6.68025e-06 2.12085e-05 0)
(-6.79522e-06 2.19364e-05 0)
(-6.91492e-06 2.26586e-05 0)
(-7.03976e-06 2.33754e-05 0)
(-7.17014e-06 2.40872e-05 0)
(-7.3065e-06 2.47945e-05 0)
(-7.4493e-06 2.54981e-05 0)
(-7.59906e-06 2.61993e-05 0)
(-7.75637e-06 2.69001e-05 0)
(-7.92198e-06 2.76034e-05 0)
(-8.09685e-06 2.83125e-05 0)
(-8.28222e-06 2.90314e-05 0)
(-8.47948e-06 2.97631e-05 0)
(-8.68998e-06 3.05082e-05 0)
(-8.9147e-06 3.12633e-05 0)
(-9.15406e-06 3.20203e-05 0)
(-9.40803e-06 3.2767e-05 0)
(-9.6762e-06 3.34873e-05 0)
(-9.95664e-06 3.41569e-05 0)
(-1.02423e-05 3.47329e-05 0)
(-1.05156e-05 3.51415e-05 0)
(-1.07408e-05 3.52692e-05 0)
(-1.08499e-05 3.4942e-05 0)
(-1.0717e-05 3.38975e-05 0)
(-1.01762e-05 3.19177e-05 0)
(-9.19668e-06 2.93016e-05 0)
(-8.03464e-06 2.68361e-05 0)
(-7.11346e-06 2.51602e-05 0)
(-6.77303e-06 2.45783e-05 0)
(-6.83771e-06 2.46325e-05 0)
(-6.86702e-06 2.46532e-05 0)
(-6.60709e-06 2.52145e-05 0)
(0.183697 -0.0510113 0)
(0.0917632 -0.0666849 0)
(-0.0243408 -0.0803508 0)
(-0.14209 -0.0894877 0)
(-0.258755 -0.0973166 0)
(-0.374975 -0.103982 0)
(-0.491243 -0.109802 0)
(-0.607715 -0.115053 0)
(-0.724329 -0.119921 0)
(-0.840876 -0.124519 0)
(-0.956993 -0.128904 0)
(-1.07209 -0.133088 0)
(-1.18526 -0.137069 0)
(-1.29524 -0.140853 0)
(-1.40013 -0.144405 0)
(-1.49749 -0.147646 0)
(-1.584 -0.150452 0)
(-1.65531 -0.152684 0)
(-1.70588 -0.154537 0)
(-1.72876 -0.156936 0)
(-1.71547 -0.160056 0)
(-1.65696 -0.158141 0)
(-1.54772 -0.137591 0)
(-1.39518 -0.0923103 0)
(-1.22638 -0.0415499 0)
(-1.07566 -0.0146267 0)
(-0.95982 -0.0116479 0)
(-0.88662 -0.0149623 0)
(-0.845692 -0.0175134 0)
(-0.820391 -0.0193862 0)
(-0.802296 -0.0209119 0)
(-0.787736 -0.0221415 0)
(-0.775189 -0.0230901 0)
(-0.764016 -0.0237865 0)
(-0.753891 -0.0242675 0)
(-0.744617 -0.024572 0)
(-0.736038 -0.024734 0)
(-0.728095 -0.0247753 0)
(-0.720684 -0.0247114 0)
(-0.713659 -0.024587 0)
(-0.707092 -0.024391 0)
(-0.700952 -0.0241276 0)
(-0.695126 -0.0238219 0)
(-0.689556 -0.0234881 0)
(-0.684284 -0.0231257 0)
(-0.679394 -0.0227206 0)
(-0.674813 -0.0222817 0)
(-0.670386 -0.0218378 0)
(-0.666114 -0.0213971 0)
(-0.662138 -0.0209419 0)
(-0.65861 -0.0204477 0)
(-0.655393 -0.0199253 0)
(-0.652207 -0.019428 0)
(-0.64897 -0.0189711 0)
(-0.645966 -0.0185131 0)
(-0.643615 -0.0179697 0)
(-0.641634 -0.0173606 0)
(-0.639352 -0.0168111 0)
(-0.636819 -0.016345 0)
(-0.634811 -0.0158267 0)
(-0.633514 -0.0151818 0)
(-0.632087 -0.0145586 0)
(-0.630316 -0.0140447 0)
(-0.629008 -0.013478 0)
(-0.628163 -0.0128185 0)
(-0.627071 -0.0122325 0)
(-0.626006 -0.0116944 0)
(-0.625633 -0.0110325 0)
(-0.625461 -0.0103208 0)
(-0.624835 -0.00975177 0)
(-0.624359 -0.00921065 0)
(-0.624668 -0.0085073 0)
(-0.625118 -0.00777911 0)
(-0.625346 -0.00716302 0)
(-0.625939 -0.00649525 0)
(-0.626788 -0.00578479 0)
(-0.627625 -0.00514203 0)
(-0.628927 -0.00442203 0)
(-0.63053 -0.00364618 0)
(-0.631977 -0.00298972 0)
(-0.633795 -0.00229571 0)
(-0.636136 -0.00148871 0)
(-0.638408 -0.000790652 0)
(-0.640904 -0.000113458 0)
(-0.643954 0.000668265 0)
(-0.647159 0.00139087 0)
(-0.650566 0.00206959 0)
(-0.65426 0.00273004 0)
(-0.658165 0.00333431 0)
(-0.662108 0.00381618 0)
(-0.665645 0.00400626 0)
(-0.668591 0.0038785 0)
(-0.670846 0.00339368 0)
(-0.673696 0.00302726 0)
(-1.08007 9.63807e-05 0)
(-1.08006 9.66948e-05 0)
(-1.08006 9.65185e-05 0)
(-1.08006 9.66718e-05 0)
(-1.08006 9.65213e-05 0)
(-1.08006 9.66628e-05 0)
(-1.08006 9.65242e-05 0)
(-1.08006 9.66547e-05 0)
(-1.08006 9.65281e-05 0)
(-1.08006 9.66475e-05 0)
(-1.08006 9.65324e-05 0)
(-1.08006 9.6641e-05 0)
(-1.08006 9.6537e-05 0)
(-1.08006 9.66351e-05 0)
(-1.08006 9.65416e-05 0)
(-1.08006 9.66297e-05 0)
(-1.08006 9.65461e-05 0)
(-1.08006 9.66251e-05 0)
(-1.08006 9.65537e-05 0)
(-1.08006 9.66119e-05 0)
(-1.08006 9.65646e-05 0)
(-1.08006 9.66087e-05 0)
(-1.08006 9.65628e-05 0)
(-1.08006 9.66084e-05 0)
(-1.08006 9.65653e-05 0)
(-1.08006 9.6606e-05 0)
(-1.08006 9.65675e-05 0)
(-1.08006 9.66038e-05 0)
(-1.08006 9.65696e-05 0)
(-1.08006 9.66019e-05 0)
(-1.08006 9.65714e-05 0)
(-1.08006 9.66002e-05 0)
(-1.08006 9.6573e-05 0)
(-1.08006 9.65987e-05 0)
(-1.08006 9.65744e-05 0)
(-1.08006 9.65974e-05 0)
(-1.08006 9.65757e-05 0)
(-1.08006 9.65962e-05 0)
(-1.08006 9.65768e-05 0)
(-1.08006 9.65952e-05 0)
(-1.08006 9.65778e-05 0)
(-1.08006 9.65943e-05 0)
(-1.08006 9.65787e-05 0)
(-1.08006 9.65934e-05 0)
(-1.08006 9.65795e-05 0)
(-1.08006 9.65926e-05 0)
(-1.08006 9.65803e-05 0)
(-1.08006 9.65919e-05 0)
(-1.08006 9.6581e-05 0)
(-1.08006 9.65912e-05 0)
(-1.08006 9.65817e-05 0)
(-1.08006 9.65905e-05 0)
(-1.08006 9.65824e-05 0)
(-1.08006 9.65898e-05 0)
(-1.08006 9.65831e-05 0)
(-1.08006 9.65891e-05 0)
(-1.08006 9.65838e-05 0)
(-1.08006 9.65884e-05 0)
(-1.08006 9.65845e-05 0)
(-1.08006 9.65878e-05 0)
(-1.08006 9.65853e-05 0)
(-1.08006 9.65871e-05 0)
(-1.08006 9.6586e-05 0)
(-1.08006 9.65864e-05 0)
(-1.08006 9.65868e-05 0)
(-1.08006 9.65857e-05 0)
(-1.08006 9.65876e-05 0)
(-1.08006 9.65849e-05 0)
(-1.08006 9.65881e-05 0)
(-1.08006 9.65845e-05 0)
(-1.08006 9.65888e-05 0)
(-1.08006 9.65838e-05 0)
(-1.08006 9.65895e-05 0)
(-1.08006 9.65832e-05 0)
(-1.08006 9.65901e-05 0)
(-1.08006 9.65826e-05 0)
(-1.08006 9.65907e-05 0)
(-1.08006 9.6582e-05 0)
(-1.08006 9.65913e-05 0)
(-1.08006 9.65815e-05 0)
(-1.08006 9.65919e-05 0)
(-1.08006 9.65809e-05 0)
(-1.08006 9.65923e-05 0)
(-1.08006 9.65804e-05 0)
(-1.08006 9.65927e-05 0)
(-1.08006 9.65797e-05 0)
(-1.08006 9.65933e-05 0)
(-1.08006 9.65799e-05 0)
(-1.08006 9.65946e-05 0)
(-1.08006 9.65801e-05 0)
(-1.08006 9.65955e-05 0)
(-1.08006 9.65803e-05 0)
(-1.08006 9.65963e-05 0)
(-1.08006 9.658e-05 0)
(-1.08006 9.65967e-05 0)
(-1.08006 9.658e-05 0)
(-1.08006 9.65973e-05 0)
(-1.08006 9.65795e-05 0)
(-1.08006 9.65972e-05 0)
(-1.08006 9.65788e-05 0)
(-1.08006 9.65967e-05 0)
(-1.08006 9.65776e-05 0)
(-1.08006 9.65957e-05 0)
(-1.08006 9.65768e-05 0)
(-1.08006 9.65957e-05 0)
(-1.08006 9.65749e-05 0)
(-1.08006 9.65935e-05 0)
(-1.08006 9.65726e-05 0)
(-1.08006 9.65913e-05 0)
(-1.08006 9.65701e-05 0)
(-1.08006 9.65886e-05 0)
(-1.08006 9.6567e-05 0)
(-1.08006 9.65856e-05 0)
(-1.08006 9.65643e-05 0)
(-1.08006 9.65891e-05 0)
(-1.08006 9.66648e-05 0)
(-1.08004 9.8833e-05 0)
(-1.07946 0.000186816 0)
)
;

boundaryField
{
    inandouthalf11
    {
        type            cyclic;
    }
    inandouthalf12
    {
        type            cyclic;
    }
    inandouthalf21
    {
        type            cyclic;
    }
    inandouthalf22
    {
        type            cyclic;
    }
    inandouthalf31
    {
        type            cyclic;
    }
    inandouthalf32
    {
        type            cyclic;
    }
    inandouthalf41
    {
        type            cyclic;
    }
    inandouthalf42
    {
        type            cyclic;
    }
    top
    {
        type            symmetryPlane;
    }
    walls
    {
        type            calculated;
        value           uniform (0 0 0);
    }
    frontAndBackPlanes
    {
        type            empty;
    }
}


// ************************************************************************* //
