/*--------------------------------*- C++ -*----------------------------------*\
| =========                 |                                                 |
| \\      /  F ield         | OpenFOAM: The Open Source CFD Toolbox           |
|  \\    /   O peration     | Version:  2.4.x                                 |
|   \\  /    A nd           | Web:      www.OpenFOAM.org                      |
|    \\/     M anipulation  |                                                 |
\*---------------------------------------------------------------------------*/
FoamFile
{
    version     2.0;
    format      ascii;
    class       volScalarField;
    location    "2.35";
    object      ddt0(((1.5*(alpha+1e-08))*rho),Theta);
}
// * * * * * * * * * * * * * * * * * * * * * * * * * * * * * * * * * * * * * //

dimensions      [1 -1 -3 0 0 0 0];

internalField   nonuniform List<scalar> 
360
(
5.36543e-24
5.37452e-24
5.37463e-24
5.37463e-24
5.37461e-24
5.37475e-24
5.37467e-24
5.37478e-24
5.37473e-24
5.37486e-24
5.37493e-24
5.37495e-24
5.37504e-24
5.37509e-24
5.37521e-24
5.37524e-24
5.37535e-24
5.3754e-24
5.37551e-24
5.37565e-24
5.37577e-24
5.37592e-24
5.37606e-24
5.37628e-24
5.37638e-24
5.37661e-24
5.37672e-24
5.37699e-24
5.37721e-24
5.37752e-24
5.37771e-24
5.37801e-24
5.37833e-24
5.37866e-24
5.37897e-24
5.37941e-24
5.37979e-24
5.38034e-24
5.38088e-24
5.38139e-24
5.38204e-24
5.38268e-24
5.38333e-24
5.38421e-24
5.38593e-24
5.39557e-24
5.48172e-24
6.29354e-24
1.73576e-23
2.75499e-22
5.78192e-21
8.36913e-20
7.6929e-19
4.45005e-18
1.61667e-17
3.6467e-17
4.85086e-17
2.95718e-17
-1.20293e-17
-4.16118e-17
-4.43468e-17
-3.21317e-17
-1.89052e-17
-9.9244e-18
-4.95891e-18
-2.47963e-18
-1.29014e-18
-7.18321e-19
-4.35535e-19
-2.90159e-19
-2.12556e-19
-1.69788e-19
-1.46186e-19
-1.34789e-19
-1.3352e-19
-1.43905e-19
-1.69579e-19
-2.12752e-19
-2.69498e-19
-3.28175e-19
-3.74531e-19
-3.99647e-19
-4.034e-19
-3.92066e-19
-3.73823e-19
-3.55426e-19
-3.41088e-19
-3.32748e-19
-3.30837e-19
-3.34885e-19
-3.43946e-19
-3.57046e-19
-3.73483e-19
-3.92845e-19
-4.14896e-19
-4.39394e-19
-4.6589e-19
-4.93633e-19
-5.21622e-19
-5.48598e-19
0
0
0
0
0
0
0
0
0
0
0
0
0
0
0
-5.92915e-19
-5.81856e-19
-5.70868e-19
-5.60068e-19
-5.49525e-19
-5.39283e-19
-5.29402e-19
-5.20016e-19
-5.114e-19
-5.03982e-19
-4.98245e-19
-4.94435e-19
-4.92084e-19
-4.89514e-19
-4.83741e-19
-4.71358e-19
-4.50331e-19
-4.21016e-19
-3.83857e-19
-4.36094e-19
1.05008e-15
3.12379e-14
8.11016e-13
2.0765e-11
5.26014e-10
1.32465e-08
3.34794e-07
8.68407e-06
0.000282336
0.0163982
0.457733
3.74986
13.041
10.821
1.8745
-3.04875
-5.7476
-7.10367
-7.60664
-7.54593
-7.11419
-6.44777
-5.64339
-4.77262
-3.88697
-3.02415
-2.21397
-1.48726
-0.841964
-0.309769
0.102229
0.386687
0.540661
0.57068
0.495481
0.35107
0.192829
0.0763295
0.0190776
0.000219931
-0.00285124
-0.00241644
-0.00177962
-0.00135041
-0.00106084
-0.00086325
-0.000710398
-0.000595809
-0.000500616
-0.000426048
-0.000363628
-0.00030967
-0.000269555
-0.000231281
-0.000201283
-0.000173811
-0.000152764
-0.000133077
-0.000116891
-0.000101364
-8.97449e-05
-7.88534e-05
-7.01288e-05
-6.12117e-05
-5.36417e-05
-4.74124e-05
-4.23652e-05
-3.79793e-05
-3.28937e-05
-2.82768e-05
-2.48609e-05
-2.24377e-05
-1.96923e-05
-1.66171e-05
-1.43478e-05
-1.28913e-05
-1.11238e-05
-9.36975e-06
-8.21588e-06
-7.23903e-06
-6.05518e-06
-5.0603e-06
-4.46702e-06
-3.89692e-06
-3.192e-06
-2.66279e-06
-2.32075e-06
-1.9203e-06
-1.59649e-06
-1.37007e-06
-1.11853e-06
-9.08863e-07
-7.7922e-07
-6.38479e-07
-5.06071e-07
-4.27279e-07
-3.48215e-07
-2.73093e-07
-2.24257e-07
-1.7607e-07
-1.40898e-07
-1.0869e-07
-8.40418e-08
-6.5361e-08
-4.93323e-08
-3.32668e-08
0
0
0
0
0
0
0
0
0
0
0
0
0
0
0
0
0
0
0
0
0
0
0
0
0
0
0
0
0
0
0
0
0
0
0
0
0
0
0
0
0
0
0
0
0
0
0
0
0
0
0
0
0
0
0
0
0
0
0
0
0
0
0
0
0
0
0
0
0
0
0
0
0
0
0
0
0
0
0
0
0
0
0
0
0
0
0
0
0
0
0
0
0
0
0
0
0
0
0
0
0
0
0
0
0
0
0
0
0
0
0
0
0
0
0
0
0
0
0
)
;

boundaryField
{
    inandouthalf11
    {
        type            cyclic;
    }
    inandouthalf12
    {
        type            cyclic;
    }
    inandouthalf21
    {
        type            cyclic;
    }
    inandouthalf22
    {
        type            cyclic;
    }
    inandouthalf31
    {
        type            cyclic;
    }
    inandouthalf32
    {
        type            cyclic;
    }
    inandouthalf41
    {
        type            cyclic;
    }
    inandouthalf42
    {
        type            cyclic;
    }
    top
    {
        type            symmetryPlane;
    }
    walls
    {
        type            calculated;
        value           uniform 5.36543e-24;
    }
    frontAndBackPlanes
    {
        type            empty;
    }
}


// ************************************************************************* //
