/*--------------------------------*- C++ -*----------------------------------*\
| =========                 |                                                 |
| \\      /  F ield         | OpenFOAM: The Open Source CFD Toolbox           |
|  \\    /   O peration     | Version:  2.4.x                                 |
|   \\  /    A nd           | Web:      www.OpenFOAM.org                      |
|    \\/     M anipulation  |                                                 |
\*---------------------------------------------------------------------------*/
FoamFile
{
    version     2.0;
    format      ascii;
    class       volVectorField;
    location    "2.35";
    object      ddt0(Ub);
}
// * * * * * * * * * * * * * * * * * * * * * * * * * * * * * * * * * * * * * //

dimensions      [0 1 -2 0 0 0 0];

internalField   nonuniform List<vector> 
360
(
(-0.00019953 6.17942e-12 0)
(-0.00019987 1.52177e-11 0)
(-0.000199872 2.54976e-11 0)
(-0.000199872 4.08519e-11 0)
(-0.000199872 5.67431e-11 0)
(-0.000199874 7.28806e-11 0)
(-0.000199874 8.77061e-11 0)
(-0.000199875 1.02568e-10 0)
(-0.000199875 1.16343e-10 0)
(-0.000199877 1.32931e-10 0)
(-0.000199879 1.47797e-10 0)
(-0.000199879 1.59073e-10 0)
(-0.00019988 1.75554e-10 0)
(-0.000199882 1.91574e-10 0)
(-0.000199884 2.03841e-10 0)
(-0.000199885 2.19144e-10 0)
(-0.000199887 2.37358e-10 0)
(-0.000199889 2.53594e-10 0)
(-0.00019989 2.68083e-10 0)
(-0.000199894 2.88011e-10 0)
(-0.000199895 3.0805e-10 0)
(-0.000199899 3.21845e-10 0)
(-0.000199902 3.4048e-10 0)
(-0.000199906 3.66023e-10 0)
(-0.000199909 3.8955e-10 0)
(-0.000199912 4.08918e-10 0)
(-0.000199916 4.31226e-10 0)
(-0.000199921 4.58338e-10 0)
(-0.000199926 4.81776e-10 0)
(-0.000199931 5.06704e-10 0)
(-0.000199936 5.36243e-10 0)
(-0.000199942 5.634e-10 0)
(-0.000199947 5.91008e-10 0)
(-0.000199956 6.24235e-10 0)
(-0.000199963 6.61392e-10 0)
(-0.000199971 6.92496e-10 0)
(-0.000199979 7.21034e-10 0)
(-0.000199989 7.55853e-10 0)
(-0.000200001 7.93027e-10 0)
(-0.000200011 8.27647e-10 0)
(-0.000200025 8.62282e-10 0)
(-0.000200038 8.97901e-10 0)
(-0.000200052 9.35558e-10 0)
(-0.000200068 9.76638e-10 0)
(-0.000200085 1.02069e-09 0)
(-0.000200104 1.11156e-09 0)
(-0.000200124 1.62223e-09 0)
(-0.000200144 5.18357e-09 0)
(-0.000200169 2.64945e-08 0)
(-0.000200205 1.5521e-07 0)
(-0.000200281 8.11532e-07 0)
(-0.000200522 3.37212e-06 0)
(-0.000201248 1.10166e-05 0)
(-0.000203042 2.85888e-05 0)
(-0.000206489 5.96512e-05 0)
(-0.000211518 0.00010153 0)
(-0.000216865 0.000143204 0)
(-0.000220586 0.000170375 0)
(-0.000221417 0.000174527 0)
(-0.00021959 0.000157447 0)
(-0.000216354 0.000128274 0)
(-0.000212971 9.70897e-05 0)
(-0.000210155 7.02704e-05 0)
(-0.000208097 4.99344e-05 0)
(-0.000206704 3.56247e-05 0)
(-0.000205801 2.59371e-05 0)
(-0.000205229 1.94573e-05 0)
(-0.00020487 1.50884e-05 0)
(-0.000204646 1.20794e-05 0)
(-0.00020451 9.94552e-06 0)
(-0.000204432 8.38182e-06 0)
(-0.000204394 7.19813e-06 0)
(-0.000204383 6.27537e-06 0)
(-0.000204394 5.53372e-06 0)
(-0.00020442 4.91244e-06 0)
(-0.000204459 4.35786e-06 0)
(-0.000204509 3.81735e-06 0)
(-0.000204567 3.24164e-06 0)
(-0.000204636 2.59321e-06 0)
(-0.000204717 1.85618e-06 0)
(-0.000204809 1.04006e-06 0)
(-0.000204914 1.73653e-07 0)
(-0.000205031 -7.07232e-07 0)
(-0.00020516 -1.57121e-06 0)
(-0.000205297 -2.39807e-06 0)
(-0.000205443 -3.17989e-06 0)
(-0.000205596 -3.91864e-06 0)
(-0.000205755 -4.62258e-06 0)
(-0.00020592 -5.30288e-06 0)
(-0.000206091 -5.9713e-06 0)
(-0.000206267 -6.63857e-06 0)
(-0.000206449 -7.31376e-06 0)
(-0.000206637 -8.00438e-06 0)
(-0.000206828 -8.71676e-06 0)
(-0.000207023 -9.45641e-06 0)
(-0.00020722 -1.02282e-05 0)
(-0.00020742 -1.10364e-05 0)
(-0.000207622 -1.18841e-05 0)
(-0.000207826 -1.27732e-05 0)
(-0.000208033 -1.37041e-05 0)
(-0.000208241 -1.46756e-05 0)
(-0.000208452 -1.56852e-05 0)
(-0.000208667 -1.67293e-05 0)
(-0.000208884 -1.78036e-05 0)
(-0.000209106 -1.89033e-05 0)
(-0.000209331 -2.00236e-05 0)
(-0.000209562 -2.11596e-05 0)
(-0.000209797 -2.23068e-05 0)
(-0.000210039 -2.34609e-05 0)
(-0.000210286 -2.46182e-05 0)
(-0.00021054 -2.57753e-05 0)
(-0.000210801 -2.69294e-05 0)
(-0.000211069 -2.80784e-05 0)
(-0.000211345 -2.92205e-05 0)
(-0.000211629 -3.03543e-05 0)
(-0.000211923 -3.1479e-05 0)
(-0.000212225 -3.25938e-05 0)
(-0.000212538 -3.36987e-05 0)
(-0.000212862 -3.47935e-05 0)
(-0.000213197 -3.58785e-05 0)
(-0.000213545 -3.69541e-05 0)
(-0.000213906 -3.80213e-05 0)
(-0.000214281 -3.90813e-05 0)
(-0.000214673 -4.01361e-05 0)
(-0.000215081 -4.11887e-05 0)
(-0.000215508 -4.22432e-05 0)
(-0.000215954 -4.33046e-05 0)
(-0.000216423 -4.43784e-05 0)
(-0.000216917 -4.54682e-05 0)
(-0.000217439 -4.65745e-05 0)
(-0.000217992 -4.76917e-05 0)
(-0.000218575 -4.88072e-05 0)
(-0.000219187 -4.99018e-05 0)
(-0.00021983 -5.09489e-05 0)
(-0.000220501 -5.19076e-05 0)
(-0.000221191 -5.27084e-05 0)
(-0.000221879 -5.32347e-05 0)
(-0.000222532 -5.33053e-05 0)
(-0.000223103 -5.265e-05 0)
(-0.000223506 -5.09331e-05 0)
(-0.000223583 -4.79863e-05 0)
(-0.000223249 -4.42571e-05 0)
(-0.000222863 -4.07362e-05 0)
(-0.000222913 -3.79284e-05 0)
(-0.000223724 -8.08857e-05 0)
(-0.000224567 0.000333219 0)
(0.000182135 -0.00116949 0)
(0.0581474 0.00366681 0)
(0.179617 0.0294595 0)
(0.0409354 0.0211631 0)
(-0.0896353 0.0186585 0)
(-0.212252 0.0156836 0)
(-0.331069 0.0132029 0)
(-0.448188 0.0111268 0)
(-0.564697 0.00937282 0)
(-0.681169 0.00788034 0)
(-0.797912 0.00660283 0)
(-0.915124 0.005501 0)
(-1.03298 0.00454163 0)
(-1.15158 0.00369743 0)
(-1.27099 0.0029469 0)
(-1.39127 0.00227318 0)
(-1.51249 0.00166249 0)
(-1.63465 0.00110314 0)
(-1.75771 0.000585764 0)
(-1.88152 0.000106533 0)
(-2.00582 -0.000330131 0)
(-2.13014 -0.000724163 0)
(-2.25366 -0.00111233 0)
(-2.37492 -0.00156439 0)
(-2.49074 -0.00205799 0)
(-2.59332 -0.00235411 0)
(-2.66765 -0.00213703 0)
(-2.73121 -0.00154028 0)
(-2.16151 -0.000748996 0)
(-1.2392 -0.000291308 0)
(-1.10147 -0.000150388 0)
(-1.09285 -7.46937e-05 0)
(-1.09026 -4.053e-05 0)
(-1.0888 -2.09582e-05 0)
(-1.08783 -1.5741e-05 0)
(-1.08716 -8.70558e-06 0)
(-1.08663 -8.5928e-06 0)
(-1.08623 -4.36398e-06 0)
(-1.08589 -5.50581e-06 0)
(-1.08564 -2.39003e-06 0)
(-1.0854 -3.8336e-06 0)
(-1.08522 -1.25867e-06 0)
(-1.08505 -2.88063e-06 0)
(-1.08492 -6.77434e-07 0)
(-1.0848 -2.2019e-06 0)
(-1.0847 -2.69443e-07 0)
(-1.08461 -1.77139e-06 0)
(-1.08453 -9.0535e-08 0)
(-1.08446 -1.45843e-06 0)
(-1.0844 1.00504e-07 0)
(-1.08435 -1.19445e-06 0)
(-1.0843 1.6506e-07 0)
(-1.08425 -1.07131e-06 0)
(-1.08421 2.27208e-07 0)
(-1.08418 -8.8718e-07 0)
(-1.08415 3.23324e-07 0)
(-1.08413 -8.34399e-07 0)
(-1.0841 3.12586e-07 0)
(-1.08407 -7.77954e-07 0)
(-1.08405 4.30712e-07 0)
(-1.08404 -7.0556e-07 0)
(-1.08402 4.12441e-07 0)
(-1.084 -6.96079e-07 0)
(-1.08398 4.73099e-07 0)
(-1.08397 -6.32982e-07 0)
(-1.08396 4.59012e-07 0)
(-1.08395 -6.05008e-07 0)
(-1.08394 4.76289e-07 0)
(-1.08393 -5.66552e-07 0)
(-1.08393 4.55896e-07 0)
(-1.08392 -5.33443e-07 0)
(-1.08391 4.61045e-07 0)
(-1.08391 -5.06044e-07 0)
(-1.0839 4.39199e-07 0)
(-1.0839 -4.77895e-07 0)
(-1.08389 4.33591e-07 0)
(-1.08389 -4.57019e-07 0)
(-1.08389 4.21412e-07 0)
(-1.08389 -4.35346e-07 0)
(-1.08388 4.08288e-07 0)
(-1.08388 -4.18502e-07 0)
(-1.08388 4.00373e-07 0)
(-1.08388 -4.0527e-07 0)
(-1.08388 3.9084e-07 0)
(-1.08388 -3.92833e-07 0)
(-1.08387 3.83229e-07 0)
(-1.08387 -3.84428e-07 0)
(-1.08387 3.77978e-07 0)
(-1.08387 -3.77884e-07 0)
(-1.08387 3.73937e-07 0)
(-1.08387 -3.73573e-07 0)
(-1.08387 3.71618e-07 0)
(-1.08387 -3.70667e-07 0)
(-1.08387 3.69778e-07 0)
(-1.08387 -3.68695e-07 0)
(-1.08387 3.60281e-07 0)
(-1.08387 -3.59508e-07 0)
(-1.08387 3.43352e-07 0)
(-1.08387 -3.31425e-07 0)
(-1.08387 3.204e-07 0)
(-1.08387 -3.07616e-07 0)
(-1.08387 2.95978e-07 0)
(-1.08387 -2.82973e-07 0)
(-1.08387 2.71142e-07 0)
(-1.08387 -2.58307e-07 0)
(-1.08387 2.4663e-07 0)
(-1.08387 -2.34236e-07 0)
(-1.08387 2.22953e-07 0)
(-1.08387 -2.11181e-07 0)
(-1.08387 2.00455e-07 0)
(-1.08387 -1.89421e-07 0)
(-1.08387 1.79364e-07 0)
(-1.08387 -1.69141e-07 0)
(-1.08387 1.59826e-07 0)
(-1.08387 -1.50454e-07 0)
(-1.08387 1.4193e-07 0)
(-1.08387 -1.33417e-07 0)
(-1.08387 1.25708e-07 0)
(-1.08387 -1.18041e-07 0)
(-1.08387 1.1115e-07 0)
(-1.08387 -1.0429e-07 0)
(-1.08387 9.8193e-08 0)
(-1.08387 -9.20891e-08 0)
(-1.08387 8.67511e-08 0)
(-1.08387 -8.13367e-08 0)
(-1.08387 7.67011e-08 0)
(-1.08387 -7.19082e-08 0)
(-1.08387 6.79103e-08 0)
(-1.08387 -6.36627e-08 0)
(-1.08387 6.02322e-08 0)
(-1.08387 -5.64509e-08 0)
(-1.08387 5.35217e-08 0)
(-1.08387 -5.01263e-08 0)
(-1.08387 4.76252e-08 0)
(-1.08387 -4.45494e-08 0)
(-1.08387 4.24093e-08 0)
(-1.08387 -3.95773e-08 0)
(-1.08387 3.77398e-08 0)
(-1.08387 -3.51038e-08 0)
(-1.08387 3.34892e-08 0)
(-1.08387 -3.10167e-08 0)
(-1.08387 2.95572e-08 0)
(-1.08387 -2.72172e-08 0)
(-1.08387 2.58605e-08 0)
(-1.08387 -2.36174e-08 0)
(-1.08387 2.23145e-08 0)
(-1.08387 -2.01636e-08 0)
(-1.08387 1.8861e-08 0)
(-1.08387 -1.67918e-08 0)
(-1.08387 1.54529e-08 0)
(-1.08387 -1.34119e-08 0)
(-1.08387 1.21464e-08 0)
(-1.08387 -9.94214e-09 0)
(-1.08387 8.86281e-09 0)
(-1.08387 -6.4451e-09 0)
(-1.08387 5.54523e-09 0)
(-1.08387 -2.91269e-09 0)
(-1.08387 2.16071e-09 0)
(-1.08387 6.60114e-10 0)
(-1.08387 -1.25176e-09 0)
(-1.08387 4.30508e-09 0)
(-1.08387 -4.73623e-09 0)
(-1.08387 7.96351e-09 0)
(-1.08387 -8.29173e-09 0)
(-1.08387 1.0394e-08 0)
(-1.08387 -1.04851e-08 0)
(-1.08387 1.35828e-08 0)
(-1.08387 -1.35242e-08 0)
(-1.08387 1.67495e-08 0)
(-1.08387 -1.64835e-08 0)
(-1.08387 1.97375e-08 0)
(-1.08387 -1.93648e-08 0)
(-1.08387 2.25629e-08 0)
(-1.08387 -2.22263e-08 0)
(-1.08387 2.52246e-08 0)
(-1.08387 -2.48524e-08 0)
(-1.08387 2.78417e-08 0)
(-1.08387 -2.74574e-08 0)
(-1.08387 3.01831e-08 0)
(-1.08387 -2.99614e-08 0)
(-1.08387 3.22473e-08 0)
(-1.08387 -3.27266e-08 0)
(-1.08387 3.4564e-08 0)
(-1.08387 -3.32728e-08 0)
(-1.08387 3.86672e-08 0)
(-1.08387 -3.37e-08 0)
(-1.08387 4.18497e-08 0)
(-1.08387 -3.43259e-08 0)
(-1.08387 4.43692e-08 0)
(-1.08387 -3.60656e-08 0)
(-1.08387 4.60434e-08 0)
(-1.08387 -3.68795e-08 0)
(-1.08387 4.8176e-08 0)
(-1.08387 -3.89038e-08 0)
(-1.08387 4.83556e-08 0)
(-1.08387 -4.15823e-08 0)
(-1.08387 4.7635e-08 0)
(-1.08387 -4.52602e-08 0)
(-1.08387 4.51836e-08 0)
(-1.08387 -4.76651e-08 0)
(-1.08387 4.54348e-08 0)
(-1.08387 -5.30161e-08 0)
(-1.08387 3.96424e-08 0)
(-1.08387 -5.94116e-08 0)
(-1.08387 3.43059e-08 0)
(-1.08387 -6.59986e-08 0)
(-1.08387 2.73347e-08 0)
(-1.08387 -7.43082e-08 0)
(-1.08387 1.98649e-08 0)
(-1.08387 -8.05284e-08 0)
(-1.08387 1.52238e-08 0)
(-1.08387 -8.54981e-08 0)
(-1.08387 1.04177e-08 0)
(-1.08387 -6.91126e-08 0)
)
;

boundaryField
{
    inandouthalf11
    {
        type            cyclic;
    }
    inandouthalf12
    {
        type            cyclic;
    }
    inandouthalf21
    {
        type            cyclic;
    }
    inandouthalf22
    {
        type            cyclic;
    }
    inandouthalf31
    {
        type            cyclic;
    }
    inandouthalf32
    {
        type            cyclic;
    }
    inandouthalf41
    {
        type            cyclic;
    }
    inandouthalf42
    {
        type            cyclic;
    }
    top
    {
        type            symmetryPlane;
    }
    walls
    {
        type            calculated;
        value           uniform (0 0 0);
    }
    frontAndBackPlanes
    {
        type            empty;
    }
}


// ************************************************************************* //
