/*--------------------------------*- C++ -*----------------------------------*\
| =========                 |                                                 |
| \\      /  F ield         | OpenFOAM: The Open Source CFD Toolbox           |
|  \\    /   O peration     | Version:  2.4.x                                 |
|   \\  /    A nd           | Web:      www.OpenFOAM.org                      |
|    \\/     M anipulation  |                                                 |
\*---------------------------------------------------------------------------*/
FoamFile
{
    version     2.0;
    format      ascii;
    class       volScalarField;
    location    "2.35";
    object      ddt0(alpha);
}
// * * * * * * * * * * * * * * * * * * * * * * * * * * * * * * * * * * * * * //

dimensions      [0 0 -1 0 0 0 0];

internalField   nonuniform List<scalar> 
360
(
5.21148e-13
1.04151e-13
2.19729e-13
-2.58011e-13
2.68243e-13
4.33108e-13
1.56863e-13
1.06062e-12
-2.36768e-13
-8.80714e-15
-1.77846e-12
-9.50419e-14
7.06127e-14
-8.07755e-14
-4.44211e-13
-8.64976e-16
1.74147e-15
-4.37302e-13
1.63781e-15
-4.06837e-16
-3.39777e-13
-6.7708e-14
1.53744e-15
-1.63779e-15
-3.3674e-13
-2.49186e-14
-4.70957e-18
1.71455e-15
-7.66439e-17
-2.60268e-14
-4.74228e-18
-1.58972e-18
4.19796e-13
4.951e-18
2.11344e-14
-3.20469e-14
1.04598e-13
-3.06605e-13
1.0049e-16
2.54353e-14
1.61387e-15
1.04255e-12
-1.05685e-13
4.70498e-13
1.4643e-11
1.45697e-10
1.49831e-09
1.39579e-08
1.11437e-07
7.30466e-07
3.83655e-06
1.61102e-05
5.41819e-05
0.000147046
0.000323903
0.000585182
0.000874117
0.00109718
0.00117842
0.00110924
0.000942338
0.000741663
0.000556993
0.000408856
0.000300426
0.000225354
0.000175575
0.000143821
0.000124873
0.000115325
0.000113351
0.00011792
0.000128531
0.000145357
0.000168021
0.000195752
0.000226387
0.000257135
0.000284763
0.00030669
0.000321716
0.000330581
0.000335105
0.000337484
0.000339677
0.000342915
0.000347775
0.000354128
0.000361536
0.000369409
0.000377168
0.000384406
0.000390963
0.000396807
0.000401994
0.000406584
0.000410594
0.000413984
0.000416688
0.000418646
0.000419819
0.000420213
0.000419868
0.000418845
0.000417214
0.000415045
0.00041241
0.000409373
0.000406003
0.00040236
0.000398504
0.000394484
0.000390344
0.000386121
0.000381842
0.000377529
0.000373196
0.000368845
0.000364463
0.000360013
0.000355435
0.000350646
0.000345552
0.000340074
0.000334168
0.000327836
0.000321087
0.000313841
0.000305833
0.000296611
0.000285784
0.000273504
0.000260839
0.000249485
0.000240769
0.000234894
0.000231968
0.000233444
0.000239714
0.000242627
0.000221938
0.000159827
8.74836e-05
2.42222e-05
-2.11179e-05
-5.48763e-05
-0.00944589
-1.70234
-0.657735
-0.21537
-0.0372722
0.0516489
0.0993698
0.125174
0.138267
0.143732
0.144595
0.142686
0.139189
0.134809
0.130012
0.125104
0.120357
0.115712
0.111411
0.107401
0.103478
0.099423
0.0958977
0.0950648
0.096802
0.0929041
0.0750838
0.048719
0.0261431
0.0125921
0.0058487
0.00281164
0.0014846
0.000886842
0.000587678
0.000422894
0.000317667
0.000248864
0.000196148
0.000163764
0.000130607
0.000108029
9.3695e-05
7.86666e-05
6.63312e-05
5.57596e-05
4.93524e-05
4.39394e-05
3.77519e-05
3.14165e-05
2.75818e-05
2.51215e-05
2.3823e-05
2.0027e-05
1.63166e-05
1.34917e-05
1.36097e-05
1.40206e-05
1.14205e-05
8.03465e-06
7.05619e-06
8.12741e-06
7.44165e-06
5.00884e-06
4.29946e-06
4.80207e-06
3.91474e-06
2.78455e-06
2.8729e-06
2.93864e-06
2.08736e-06
1.48318e-06
1.68009e-06
1.64664e-06
1.12953e-06
9.60708e-07
9.53365e-07
7.10112e-07
6.18946e-07
6.0936e-07
4.37288e-07
3.44429e-07
3.60454e-07
2.73598e-07
1.98866e-07
2.01866e-07
1.59961e-07
1.2281e-07
1.05298e-07
8.32521e-08
6.8699e-08
4.49511e-08
2.61969e-08
1.43582e-08
6.37436e-09
1.50288e-07
-4.14549e-10
-8.92652e-11
-6.29559e-11
-4.31442e-11
-4.08392e-11
-4.84807e-11
-3.66738e-11
-2.69359e-11
-1.66543e-11
-1.37513e-11
-1.22899e-11
-1.22586e-11
-9.45675e-12
-4.71505e-12
-3.76884e-12
-4.55877e-12
-3.76034e-12
-2.23021e-12
-1.2243e-12
-1.1015e-12
-1.50433e-12
-7.23592e-13
-3.72554e-13
-3.14389e-13
-4.1734e-13
-2.15094e-13
-1.10364e-13
-9.20338e-14
-1.12488e-13
-5.29718e-14
-2.89526e-14
-2.72279e-14
-2.63434e-14
-1.1951e-14
-8.07953e-15
-6.94684e-15
-4.18998e-15
-3.14062e-15
-1.71955e-15
-1.13665e-15
-7.4183e-16
-5.61449e-16
-2.89409e-16
-1.84429e-16
-1.62333e-16
-9.03203e-17
-5.96885e-17
-2.25521e-17
-9.42928e-18
-3.69357e-18
-1.49406e-18
-5.8617e-19
-2.23917e-19
-8.24398e-20
-2.88849e-20
-9.54561e-21
-2.95289e-21
-8.48954e-22
-2.24987e-22
-5.44327e-23
-1.18825e-23
-2.30654e-24
-3.90654e-25
-5.62601e-26
-6.63519e-27
-6.03114e-28
-3.76234e-29
-1.1545e-30
-1.50602e-32
-4.2196e-34
-5.84421e-36
-7.80827e-47
-5.19576e-58
-2.43636e-69
-8.56999e-81
-2.5301e-92
-8.00735e-104
-4.19697e-115
-6.537e-123
-1.24128e-133
-2.249e-141
-4.25327e-152
-7.73608e-160
-1.79769e-170
-2.66035e-178
-8.12755e-189
-9.15422e-197
-5.51542e-207
-3.16899e-215
-3.66541e-225
-1.10791e-233
-1.88126e-243
-3.91233e-252
-8.97312e-262
-1.39904e-270
-3.98835e-280
-5.05714e-289
-1.71393e-298
-1.85189e-307
2.86519e-319
0
0
0
0
0
0
0
0
0
0
0
0
0
0
0
0
0
0
)
;

boundaryField
{
    inandouthalf11
    {
        type            cyclic;
    }
    inandouthalf12
    {
        type            cyclic;
    }
    inandouthalf21
    {
        type            cyclic;
    }
    inandouthalf22
    {
        type            cyclic;
    }
    inandouthalf31
    {
        type            cyclic;
    }
    inandouthalf32
    {
        type            cyclic;
    }
    inandouthalf41
    {
        type            cyclic;
    }
    inandouthalf42
    {
        type            cyclic;
    }
    top
    {
        type            symmetryPlane;
    }
    walls
    {
        type            calculated;
        value           uniform 5.21148e-13;
    }
    frontAndBackPlanes
    {
        type            empty;
    }
}


// ************************************************************************* //
