/*--------------------------------*- C++ -*----------------------------------*\
| =========                 |                                                 |
| \\      /  F ield         | OpenFOAM: The Open Source CFD Toolbox           |
|  \\    /   O peration     | Version:  2.4.x                                 |
|   \\  /    A nd           | Web:      www.OpenFOAM.org                      |
|    \\/     M anipulation  |                                                 |
\*---------------------------------------------------------------------------*/
FoamFile
{
    version     2.0;
    format      ascii;
    class       volVectorField;
    location    "2.35";
    object      gradPf;
}
// * * * * * * * * * * * * * * * * * * * * * * * * * * * * * * * * * * * * * //

dimensions      [0 1 -2 0 0 0 0];

internalField   nonuniform List<vector> 
360
(
(0 -1.37233e-09 0)
(0 -0.0556701 0)
(0 -0.0556702 0)
(0 2.94774e-09 0)
(-1.67676e-14 -0.0556536 0)
(-1.67676e-14 -0.0556537 0)
(-1.67676e-14 -0.0556372 0)
(0 -0.0556373 0)
(-1.67677e-14 -0.0556207 0)
(0 -0.111225 0)
(-1.67677e-14 -0.0556044 0)
(0 -0.0555879 0)
(-3.35355e-14 -0.111159 0)
(0 -0.111127 0)
(0 -0.111094 0)
(0 -0.111061 0)
(0 -0.111028 0)
(-1.67679e-14 -0.110995 0)
(0 -0.166419 0)
(0 -0.16637 0)
(0 -0.166271 0)
(-1.6768e-14 -0.221597 0)
(0 -0.221466 0)
(0 -0.221336 0)
(0 -0.221205 0)
(-1.67683e-14 -0.221074 0)
(0 -0.276138 0)
(0 -0.331122 0)
(0 -0.330829 0)
(0 -0.330536 0)
(0 -0.385226 0)
(0 -0.384886 0)
(0 -0.439284 0)
(0 -0.493686 0)
(0 -0.492957 0)
(1.67692e-14 -0.547004 0)
(0 -0.600728 0)
(0 -0.708696 0)
(0 -0.707444 0)
(0 -0.760177 0)
(0 -0.866984 0)
(0 -0.864942 0)
(1.67705e-14 -0.97048 0)
(0 -1.07546 0)
(0 -1.12574 0)
(0 -1.22897 0)
(0 -1.27807 0)
(0 -1.37927 0)
(0 -1.58482 0)
(0 -1.68239 0)
(1.67733e-14 -1.77565 0)
(0 -1.91152 0)
(0 -2.02246 0)
(0 -2.08472 0)
(0 -2.12085 0)
(0 -2.06996 0)
(0 -1.95628 0)
(0 -1.88903 0)
(0 -1.82506 0)
(0 -1.92792 0)
(0 -2.08029 0)
(0 -2.23768 0)
(0 -2.41384 0)
(0 -2.54399 0)
(0 -2.67239 0)
(0 -2.80464 0)
(0 -2.95531 0)
(0 -3.09912 0)
(0 -3.23832 0)
(0 -3.42387 0)
(0 -3.63173 0)
(0 -3.75876 0)
(0 -3.89043 0)
(0 -4.01445 0)
(0 -4.07852 0)
(0 -4.08342 0)
(0 -4.02824 0)
(0 -3.96756 0)
(0 -3.89685 0)
(0 -3.82711 0)
(0 -3.79128 0)
(0 -3.80275 0)
(0 -3.83868 0)
(0 -3.89361 0)
(0 -3.95347 0)
(0 -4.0068 0)
(0 -4.04383 0)
(0 -4.06023 0)
(0 -4.06588 0)
(0 -4.0628 0)
(0 -4.0544 0)
(0 -4.04917 0)
(0 -4.04925 0)
(0 -4.05232 0)
(0 -4.05819 0)
(0 -4.06518 0)
(0 -4.07145 0)
(0 -4.07644 0)
(0 -4.08071 0)
(0 -4.08468 0)
(0 -4.08877 0)
(0 -4.09366 0)
(0 -4.09934 0)
(0 -4.1054 0)
(0 -4.11167 0)
(0 -4.11799 0)
(0 -4.1242 0)
(0 -4.13028 0)
(0 -4.13623 0)
(0 -4.14197 0)
(0 -4.14742 0)
(0 -4.15249 0)
(0 -4.15711 0)
(0 -4.16123 0)
(0 -4.16482 0)
(0 -4.16788 0)
(0 -4.17042 0)
(0 -4.17245 0)
(0 -4.17393 0)
(0 -4.17474 0)
(0 -4.1747 0)
(0 -4.17358 0)
(0 -4.17126 0)
(0 -4.16795 0)
(0 -4.16442 0)
(0 -4.16191 0)
(0 -4.16146 0)
(0 -4.16242 0)
(0 -4.16106 0)
(0 -4.15109 0)
(0 -4.12902 0)
(0 -4.10346 0)
(0 -4.09538 0)
(0 -4.11155 0)
(0 -4.11494 0)
(0 -4.06506 0)
(0 -4.00442 0)
(0 -4.04969 0)
(0 -4.23199 0)
(0 -4.28851 0)
(0 -3.85323 0)
(0 -3.66024 0)
(0 -4.26145 0)
(0 -4.92359 0)
(0 -5.36692 0)
(0 -6.76019 0)
(0 -14.4088 0)
(0 -14.5488 0)
(0 0 0)
(0 0 0)
(0 0 0)
(0 0 0)
(0 0 0)
(0 0 0)
(0 0 0)
(0 0 0)
(0 0 0)
(0 0 0)
(0 0 0)
(0 0 0)
(0 0 0)
(0 0 0)
(0 0 0)
(0 0 0)
(0 0 0)
(0 0 0)
(0 0 0)
(0 0 0)
(0 0 0)
(0 0 0)
(0 0 0)
(0 0 0)
(0 0 0)
(0 0 0)
(0 0 0)
(0 0 0)
(0 0 0)
(0 0 0)
(0 0 0)
(0 0 0)
(0 0 0)
(0 0 0)
(0 0 0)
(0 0 0)
(0 0 0)
(0 0 0)
(0 0 0)
(0 0 0)
(0 0 0)
(0 0 0)
(0 0 0)
(0 0 0)
(0 0 0)
(0 0 0)
(0 0 0)
(0 0 0)
(0 0 0)
(0 0 0)
(0 0 0)
(0 0 0)
(0 0 0)
(0 0 0)
(0 0 0)
(0 0 0)
(0 0 0)
(0 0 0)
(0 0 0)
(0 0 0)
(0 0 0)
(0 0 0)
(0 0 0)
(0 0 0)
(0 0 0)
(0 0 0)
(0 0 0)
(0 0 0)
(0 0 0)
(0 0 0)
(0 0 0)
(0 0 0)
(0 0 0)
(0 0 0)
(0 0 0)
(0 0 0)
(0 0 0)
(0 0 0)
(0 0 0)
(0 0 0)
(0 0 0)
(0 0 0)
(0 0 0)
(0 0 0)
(0 0 0)
(0 0 0)
(0 0 0)
(0 0 0)
(0 0 0)
(0 0 0)
(0 0 0)
(0 0 0)
(0 0 0)
(0 0 0)
(0 0 0)
(0 0 0)
(0 0 0)
(0 0 0)
(0 0 0)
(0 0 0)
(0 0 0)
(0 0 0)
(0 0 0)
(0 0 0)
(0 0 0)
(0 0 0)
(0 0 0)
(0 0 0)
(0 0 0)
(0 0 0)
(0 0 0)
(0 0 0)
(0 0 0)
(0 0 0)
(0 0 0)
(0 0 0)
(0 0 0)
(0 0 0)
(0 0 0)
(0 0 0)
(0 0 0)
(0 0 0)
(0 0 0)
(0 0 0)
(0 0 0)
(0 0 0)
(0 0 0)
(0 0 0)
(0 0 0)
(0 0 0)
(0 0 0)
(0 0 0)
(0 0 0)
(0 0 0)
(0 0 0)
(0 0 0)
(0 0 0)
(0 0 0)
(0 0 0)
(0 0 0)
(0 0 0)
(0 0 0)
(0 0 0)
(0 0 0)
(0 0 0)
(0 0 0)
(0 0 0)
(0 0 0)
(0 0 0)
(0 0 0)
(0 0 0)
(0 0 0)
(0 0 0)
(0 0 0)
(0 0 0)
(0 0 0)
(0 0 0)
(0 0 0)
(0 0 0)
(0 0 0)
(0 0 0)
(0 0 0)
(0 0 0)
(0 0 0)
(0 0 0)
(0 0 0)
(0 0 0)
(0 0 0)
(0 0 0)
(0 0 0)
(0 0 0)
(0 0 0)
(0 0 0)
(0 0 0)
(0 0 0)
(0 0 0)
(0 0 0)
(0 0 0)
(0 0 0)
(0 0 0)
(0 0 0)
(0 0 0)
(0 0 0)
(0 0 0)
(0 0 0)
(0 0 0)
(0 0 0)
(0 0 0)
(0 0 0)
(0 0 0)
(0 0 0)
(0 0 0)
(0 0 0)
(0 0 0)
(0 0 0)
(0 0 0)
(0 0 0)
(0 0 0)
(0 0 0)
(0 0 0)
(0 0 0)
(0 0 0)
(0 0 0)
(0 0 0)
(0 0 0)
(0 0 0)
(0 0 0)
(0 0 0)
(0 0 0)
(0 0 0)
(0 0 0)
(0 0 0)
)
;

boundaryField
{
    inandouthalf11
    {
        type            cyclic;
    }
    inandouthalf12
    {
        type            cyclic;
    }
    inandouthalf21
    {
        type            cyclic;
    }
    inandouthalf22
    {
        type            cyclic;
    }
    inandouthalf31
    {
        type            cyclic;
    }
    inandouthalf32
    {
        type            cyclic;
    }
    inandouthalf41
    {
        type            cyclic;
    }
    inandouthalf42
    {
        type            cyclic;
    }
    top
    {
        type            symmetryPlane;
    }
    walls
    {
        type            calculated;
        value           uniform (0 0 0);
    }
    frontAndBackPlanes
    {
        type            empty;
    }
}


// ************************************************************************* //
