/*--------------------------------*- C++ -*----------------------------------*\
| =========                 |                                                 |
| \\      /  F ield         | OpenFOAM: The Open Source CFD Toolbox           |
|  \\    /   O peration     | Version:  2.4.x                                 |
|   \\  /    A nd           | Web:      www.OpenFOAM.org                      |
|    \\/     M anipulation  |                                                 |
\*---------------------------------------------------------------------------*/
FoamFile
{
    version     2.0;
    format      ascii;
    class       volScalarField;
    location    "2.35";
    object      mua;
}
// * * * * * * * * * * * * * * * * * * * * * * * * * * * * * * * * * * * * * //

dimensions      [1 -1 -1 0 0 0 0];

internalField   nonuniform List<scalar> 
360
(
8.52524e+32
9.47392e+35
3.49872e+32
4.1558e+31
9.89062e+30
3.45731e+30
1.53756e+30
7.93208e+29
4.45079e+29
2.5925e+29
1.52262e+29
8.86319e+28
5.06223e+28
2.83e+28
1.54968e+28
8.32387e+27
4.3902e+27
2.27413e+27
1.15609e+27
5.76408e+26
2.81897e+26
1.34953e+26
6.32039e+25
2.89302e+25
1.29177e+25
5.61067e+24
2.36132e+24
9.59173e+23
3.75202e+23
1.40871e+23
5.05105e+22
1.72005e+22
5.53154e+21
1.66654e+21
4.67805e+20
1.21209e+20
2.87251e+19
6.16283e+18
1.18827e+18
2.0441e+17
3.10661e+16
4.16732e+15
4.93799e+14
5.22481e+13
5.10213e+12
4.82219e+11
4.70762e+10
5.0781e+09
6.39431e+08
9.81415e+07
1.87726e+07
4.48865e+06
1.3379e+06
493983
224355
124263
83132.7
66179.9
61516.1
65155.2
76426.2
96561.2
127793
172768
233199
308028
391503
472942
538818
576726
579942
551007
499344
436320
372765
316066
269883
234673
209270
191902
180637
173557
168981
165534
162196
158379
153900
148900
143655
138449
133505
128936
124755
120926
117396
114120
111070
108236
105620
103217
101023
99019.4
97186.6
95500.5
93938.2
92478.4
91101.6
89790.1
88527.1
87297.1
86086.3
84882.4
83675.1
82455.6
81216.9
79953.2
78660.8
77338
75986.4
74612
73225.7
71842.5
70479.1
69148.8
67856.6
66597.5
65364.7
64167.9
63057.6
62129.7
61478.9
61089.8
60724
59961.4
58480.9
56265.3
53294.3
49208.2
44047.9
39700.2
39730.9
48014
69501.2
127081
386326
3.84284e+06
788838
0.0201836
0.0120116
0.0100961
0.00918675
0.00871598
0.00847865
0.00837226
0.00834024
0.00834812
0.00837327
0.00840089
0.00842012
0.0084237
0.0084061
0.00836301
0.00829189
0.00819008
0.00805659
0.00789166
0.00769695
0.00747644
0.00723725
0.00699081
0.00675241
0.00653923
0.00636475
0.00623325
0.00613934
0.00607215
0.00601986
0.00597577
0.00593664
0.00590086
0.0058675
0.00583599
0.0058059
0.00577696
0.00574891
0.00572159
0.00569482
0.0056685
0.00564252
0.00561678
0.00559122
0.00556577
0.00554038
0.00551499
0.00548957
0.00546407
0.00543847
0.00541273
0.00538682
0.00536073
0.00533443
0.00530762
0.00528001
0.00525155
0.00522219
0.00519187
0.00516053
0.00512813
0.0050946
0.00505987
0.00502386
0.00498651
0.00494773
0.00490743
0.00486551
0.00482187
0.00477639
0.00472894
0.00467939
0.00462757
0.00457332
0.00451644
0.00445671
0.00439389
0.00432767
0.00425775
0.00418374
0.0041052
0.00402158
0.00393227
0.00383648
0.00373326
0.00362141
0.00349935
0.00336501
0.00321553
0.00304676
0.00285235
0.00262162
0.00233407
0.0019393
0
0
0
0
0
0
0
0
0
0
0
0
0
0
0
0
0
0
0
0
0
0
0
0
0
0
0
0
0
0
0
0
0
0
0
0
0
0
0
0
0
0
0
0
0
0
0
0
0
0
0
0
0
0
0
0
0
0
0
0
0
0
0
0
0
0
0
0
0
0
0
0
0
0
0
0
0
0
0
0
0
0
0
0
0
0
0
0
0
0
0
0
0
0
0
0
0
0
0
0
0
0
0
0
0
0
0
0
0
0
0
0
0
0
0
0
0
0
0
)
;

boundaryField
{
    inandouthalf11
    {
        type            cyclic;
    }
    inandouthalf12
    {
        type            cyclic;
    }
    inandouthalf21
    {
        type            cyclic;
    }
    inandouthalf22
    {
        type            cyclic;
    }
    inandouthalf31
    {
        type            cyclic;
    }
    inandouthalf32
    {
        type            cyclic;
    }
    inandouthalf41
    {
        type            cyclic;
    }
    inandouthalf42
    {
        type            cyclic;
    }
    top
    {
        type            symmetryPlane;
    }
    walls
    {
        type            calculated;
        value           uniform 1e+30;
    }
    frontAndBackPlanes
    {
        type            empty;
    }
}


// ************************************************************************* //
