/*--------------------------------*- C++ -*----------------------------------*\
| =========                 |                                                 |
| \\      /  F ield         | OpenFOAM: The Open Source CFD Toolbox           |
|  \\    /   O peration     | Version:  2.4.x                                 |
|   \\  /    A nd           | Web:      www.OpenFOAM.org                      |
|    \\/     M anipulation  |                                                 |
\*---------------------------------------------------------------------------*/
FoamFile
{
    version     2.0;
    format      ascii;
    class       volScalarField;
    location    "2.35";
    object      p;
}
// * * * * * * * * * * * * * * * * * * * * * * * * * * * * * * * * * * * * * //

dimensions      [1 -1 -2 0 0 0 0];

internalField   nonuniform List<scalar> 
360
(
4902.45
4897.55
4892.64
4887.74
4882.83
4877.93
4873.02
4868.12
4863.21
4858.31
4853.4
4848.5
4843.59
4838.69
4833.78
4828.88
4823.97
4819.07
4814.16
4809.26
4804.35
4799.45
4794.54
4789.64
4784.73
4779.83
4774.92
4770.02
4765.11
4760.21
4755.3
4750.4
4745.49
4740.59
4735.68
4730.78
4725.87
4720.97
4716.06
4711.16
4706.25
4701.35
4696.44
4691.54
4686.63
4681.73
4676.82
4671.92
4667.01
4662.11
4657.2
4652.3
4647.39
4642.48
4637.58
4632.67
4627.76
4622.85
4617.92
4613
4608.07
4603.13
4598.19
4593.25
4588.3
4583.36
4578.41
4573.46
4568.51
4563.57
4558.62
4553.67
4548.71
4543.76
4538.81
4533.86
4528.9
4523.95
4518.99
4514.04
4509.08
4504.12
4499.15
4494.19
4489.23
4484.26
4479.29
4474.32
4469.35
4464.38
4459.4
4454.42
4449.44
4444.46
4439.48
4434.5
4429.51
4424.52
4419.53
4414.54
4409.54
4404.55
4399.55
4394.55
4389.55
4384.54
4379.54
4374.53
4369.52
4364.51
4359.5
4354.48
4349.46
4344.45
4339.43
4334.4
4329.38
4324.35
4319.33
4314.3
4309.27
4304.24
4299.2
4294.17
4289.13
4284.09
4279.06
4274.02
4268.97
4263.93
4258.89
4253.84
4248.8
4243.75
4238.7
4233.65
4228.6
4223.55
4218.5
4213.45
4208.4
4203.35
4198.29
4193.24
4188.19
4183.13
4178.06
4169.84
4160.4
4152.13
4144.68
4137.67
4131
4124.6
4118.45
4112.52
4106.8
4101.27
4095.92
4090.75
4085.74
4080.89
4076.19
4071.64
4067.23
4062.96
4058.82
4054.81
4050.93
4047.16
4043.5
4039.92
4036.4
4032.89
4029.13
4024.53
4019.64
4014.74
4009.83
4004.93
4000.03
3995.12
3990.22
3985.31
3980.41
3975.5
3970.6
3965.69
3960.79
3955.88
3950.98
3946.07
3941.17
3936.26
3931.36
3926.45
3921.55
3916.64
3911.74
3906.83
3901.93
3896.97
3891.92
3886.76
3881.5
3876.13
3870.65
3865.06
3859.36
3853.54
3847.6
3841.54
3835.36
3829.06
3822.62
3816.06
3809.36
3802.53
3795.55
3788.44
3781.18
3773.78
3766.22
3758.51
3750.65
3742.62
3734.43
3726.08
3717.55
3708.86
3699.98
3690.93
3681.69
3672.27
3662.65
3652.84
3642.83
3632.61
3622.19
3611.56
3600.71
3589.64
3578.35
3566.83
3555.07
3543.08
3530.84
3518.35
3505.61
3492.61
3479.35
3465.82
3452.01
3437.92
3423.55
3408.88
3393.92
3378.66
3363.08
3347.19
3330.97
3314.43
3297.55
3280.33
3262.76
3244.83
3226.54
3207.87
3188.83
3169.4
3149.58
3129.35
3108.72
3087.66
3066.18
3044.26
3021.9
2999.08
2975.8
2952.05
2927.81
2903.09
2877.86
2852.12
2825.86
2799.06
2771.72
2743.82
2715.36
2686.32
2656.7
2626.47
2595.62
2564.15
2532.05
2499.29
2465.86
2431.76
2396.96
2361.46
2325.24
2288.28
2250.57
2212.1
2172.85
2132.8
2091.93
2050.24
2007.7
1964.3
1922.76
1883.52
1844.28
1805.04
1765.8
1726.56
1687.32
1648.08
1608.84
1569.6
1530.36
1491.12
1451.88
1412.64
1373.4
1334.16
1294.92
1255.68
1216.44
1177.2
1137.96
1098.72
1059.48
1020.24
981
941.76
902.52
863.28
824.04
784.8
745.56
706.32
667.08
627.84
588.6
549.36
510.12
470.88
431.64
392.4
353.16
313.92
274.68
235.44
196.2
156.96
117.72
78.48
39.24
1.87821e-07
)
;

boundaryField
{
    inandouthalf11
    {
        type            cyclic;
    }
    inandouthalf12
    {
        type            cyclic;
    }
    inandouthalf21
    {
        type            cyclic;
    }
    inandouthalf22
    {
        type            cyclic;
    }
    inandouthalf31
    {
        type            cyclic;
    }
    inandouthalf32
    {
        type            cyclic;
    }
    inandouthalf41
    {
        type            cyclic;
    }
    inandouthalf42
    {
        type            cyclic;
    }
    top
    {
        type            symmetryPlane;
    }
    walls
    {
        type            slip;
    }
    frontAndBackPlanes
    {
        type            empty;
    }
}


// ************************************************************************* //
