/*--------------------------------*- C++ -*----------------------------------*\
| =========                 |                                                 |
| \\      /  F ield         | OpenFOAM: The Open Source CFD Toolbox           |
|  \\    /   O peration     | Version:  2.4.x                                 |
|   \\  /    A nd           | Web:      www.OpenFOAM.org                      |
|    \\/     M anipulation  |                                                 |
\*---------------------------------------------------------------------------*/
FoamFile
{
    version     2.0;
    format      ascii;
    class       surfaceScalarField;
    location    "2.35";
    object      phia;
}
// * * * * * * * * * * * * * * * * * * * * * * * * * * * * * * * * * * * * * //

dimensions      [0 3 -1 0 0 0 0];

internalField   nonuniform List<scalar> 
359
(
-3.1242e-40
-3.12658e-40
-1.09086e-39
-7.64858e-39
-3.52106e-38
-1.14148e-37
-2.91706e-37
-6.36326e-37
-1.25079e-36
-2.3065e-36
-4.10575e-36
-7.19782e-36
-1.26155e-35
-2.23108e-35
-4.00241e-35
-7.30164e-35
-1.35599e-34
-2.5649e-34
-4.94315e-34
-9.71731e-34
-1.94803e-33
-3.98855e-33
-8.34718e-33
-1.78742e-32
-3.92229e-32
-8.8415e-32
-2.05356e-31
-4.93468e-31
-1.23054e-30
-3.19578e-30
-8.68008e-30
-2.48133e-29
-7.50071e-29
-2.4192e-28
-8.37221e-28
-3.13908e-27
-1.2868e-26
-5.82719e-26
-2.94303e-25
-1.6679e-24
-1.07174e-23
-7.8255e-23
-6.47783e-22
-6.02094e-21
-6.0811e-20
-6.36315e-19
-6.47626e-18
-5.99595e-17
-4.78691e-16
-3.16919e-15
-1.70335e-14
-7.42362e-14
-2.6356e-13
-7.69955e-13
-1.87087e-12
-3.83666e-12
-6.74314e-12
-1.036e-11
-1.4218e-11
-1.78312e-11
-2.08905e-11
-2.32942e-11
-2.50986e-11
-2.64239e-11
-2.73991e-11
-2.81321e-11
-2.87044e-11
-2.91744e-11
-2.95834e-11
-2.99619e-11
-3.03346e-11
-3.07228e-11
-3.11461e-11
-3.1625e-11
-3.21786e-11
-3.28234e-11
-3.35689e-11
-3.44155e-11
-3.53528e-11
-3.63622e-11
-3.7421e-11
-3.85092e-11
-3.96125e-11
-4.07239e-11
-4.18428e-11
-4.29728e-11
-4.4119e-11
-4.52865e-11
-4.64786e-11
-4.76969e-11
-4.89411e-11
-5.02093e-11
-5.14994e-11
-5.28091e-11
-5.41362e-11
-5.54787e-11
-5.68349e-11
-5.82025e-11
-5.95795e-11
-6.09633e-11
-6.23514e-11
-6.37412e-11
-6.51304e-11
-6.65167e-11
-6.78982e-11
-6.92731e-11
-7.06399e-11
-7.19973e-11
-7.33443e-11
-7.46799e-11
-7.60034e-11
-7.73145e-11
-7.86126e-11
-7.98976e-11
-8.11692e-11
-8.24275e-11
-8.36724e-11
-8.49038e-11
-8.61217e-11
-8.73259e-11
-8.85161e-11
-8.96916e-11
-9.08513e-11
-9.19942e-11
-9.31188e-11
-9.42239e-11
-9.5308e-11
-9.63698e-11
-9.74066e-11
-9.84147e-11
-9.93886e-11
-1.00324e-10
-1.01219e-10
-1.02079e-10
-1.02913e-10
-1.0373e-10
-1.0454e-10
-1.0536e-10
-1.06207e-10
-1.07071e-10
-1.07867e-10
-1.08459e-10
-1.08825e-10
-1.09002e-10
-1.09051e-10
-1.09055e-10
-1.09022e-10
9.23827e-09
1.83195e-08
2.51342e-08
3.08568e-08
3.6039e-08
4.08526e-08
4.54144e-08
4.97991e-08
5.40575e-08
5.82262e-08
6.23339e-08
6.64023e-08
7.0452e-08
7.45004e-08
7.85666e-08
8.26624e-08
8.68105e-08
9.10267e-08
9.53259e-08
9.97257e-08
1.04264e-07
1.08984e-07
1.1369e-07
1.17484e-07
1.19045e-07
1.18e-07
1.15455e-07
1.13002e-07
1.10824e-07
1.08894e-07
1.0718e-07
1.05657e-07
1.04292e-07
1.03066e-07
1.01956e-07
1.00946e-07
1.00018e-07
9.91635e-08
9.83701e-08
9.76273e-08
9.69327e-08
9.62759e-08
9.56538e-08
9.50599e-08
9.44935e-08
9.39493e-08
9.3425e-08
9.29151e-08
9.24211e-08
9.19403e-08
9.14722e-08
9.10111e-08
9.0555e-08
9.01051e-08
8.96554e-08
8.92058e-08
8.87469e-08
8.82745e-08
8.77955e-08
8.73179e-08
8.68339e-08
8.63304e-08
8.58133e-08
8.52943e-08
8.47634e-08
8.42117e-08
8.36509e-08
8.30834e-08
8.24911e-08
8.18723e-08
8.12473e-08
8.06138e-08
7.99472e-08
7.92506e-08
7.85392e-08
7.77987e-08
7.70275e-08
7.62351e-08
7.54025e-08
7.45261e-08
7.36274e-08
7.26886e-08
7.16937e-08
7.06675e-08
6.96006e-08
6.8474e-08
6.7302e-08
6.60837e-08
6.48233e-08
6.35234e-08
6.22103e-08
6.09422e-08
5.97854e-08
5.86544e-08
-4.89104e-08
-1.57982e-07
-1.57982e-07
-1.57982e-07
-1.57982e-07
-1.57982e-07
-1.57982e-07
-1.57982e-07
-1.57982e-07
-1.57982e-07
-1.57982e-07
-1.57982e-07
-1.57982e-07
-1.57982e-07
-1.57982e-07
-1.57982e-07
-1.57982e-07
-1.57982e-07
-1.57982e-07
-1.57982e-07
-1.57982e-07
-1.57982e-07
-1.57982e-07
-1.57982e-07
-1.57982e-07
-1.57982e-07
-1.57982e-07
-1.57982e-07
-1.57982e-07
-1.57982e-07
-1.57982e-07
-1.57982e-07
-1.57982e-07
-1.57982e-07
-1.57982e-07
-1.57982e-07
-1.57982e-07
-1.57982e-07
-1.57982e-07
-1.57982e-07
-1.57982e-07
-1.57982e-07
-1.57982e-07
-1.57982e-07
-1.57982e-07
-1.57982e-07
-1.57982e-07
-1.57982e-07
-1.57982e-07
-1.57982e-07
-1.57982e-07
-1.57982e-07
-1.57982e-07
-1.57982e-07
-1.57982e-07
-1.57982e-07
-1.57982e-07
-1.57982e-07
-1.57982e-07
-1.57982e-07
-1.57982e-07
-1.57982e-07
-1.57982e-07
-1.57982e-07
-1.57982e-07
-1.57982e-07
-1.57982e-07
-1.57982e-07
-1.57982e-07
-1.57982e-07
-1.57982e-07
-1.57982e-07
-1.57982e-07
-1.57982e-07
-1.57982e-07
-1.57982e-07
-1.57982e-07
-1.57982e-07
-1.57982e-07
-1.57982e-07
-1.57982e-07
-1.57982e-07
-1.57982e-07
-1.57982e-07
-1.57982e-07
-1.57982e-07
-1.57982e-07
-1.57982e-07
-1.57982e-07
-1.57982e-07
-1.57982e-07
-1.57982e-07
-1.57982e-07
-1.57982e-07
-1.57982e-07
-1.57982e-07
-1.57982e-07
-1.57982e-07
-1.57982e-07
-1.57982e-07
-1.57982e-07
-1.57982e-07
-1.57982e-07
-1.57982e-07
-1.57982e-07
-1.57982e-07
-1.57982e-07
-1.57982e-07
-1.57982e-07
-1.57982e-07
-1.57982e-07
-1.57982e-07
-1.57982e-07
-1.57982e-07
-1.57982e-07
-1.57964e-07
-1.57256e-07
-1.32268e-07
)
;

boundaryField
{
    inandouthalf11
    {
        type            cyclic;
        value           nonuniform List<scalar> 
100
(
5.45209e-42
5.4566e-42
5.47314e-42
5.67569e-41
4.39826e-40
1.89255e-39
5.72334e-39
1.38531e-38
2.90669e-38
5.57651e-38
1.01537e-37
1.80076e-37
3.16802e-37
5.59847e-37
1.00132e-36
1.81967e-36
3.36558e-36
6.33925e-36
1.21645e-35
2.37942e-35
4.74657e-35
9.66177e-35
2.00898e-34
4.27114e-34
9.29518e-34
2.07432e-33
4.75905e-33
1.12635e-32
2.75984e-32
7.02277e-32
1.86262e-31
5.17355e-31
1.51309e-30
4.68843e-30
1.55033e-29
5.50848e-29
2.12162e-28
8.9418e-28
4.1648e-27
2.16107e-26
1.2589e-25
8.30221e-25
6.20947e-24
5.2577e-23
4.97887e-22
5.10281e-21
5.39118e-20
5.5029e-19
5.07658e-18
4.00749e-17
2.59906e-16
1.35832e-15
5.71223e-15
1.9447e-14
5.41548e-14
1.24968e-13
2.42755e-13
4.04575e-13
5.91657e-13
7.7809e-13
9.4296e-13
1.07634e-12
1.17801e-12
1.25308e-12
1.30808e-12
1.34895e-12
1.38033e-12
1.40556e-12
1.42702e-12
1.44639e-12
1.46501e-12
1.48397e-12
1.50425e-12
1.52683e-12
1.55266e-12
1.58262e-12
1.61729e-12
1.65689e-12
1.70106e-12
1.74898e-12
1.79952e-12
1.85153e-12
1.90413e-12
1.95676e-12
2.00923e-12
2.06158e-12
2.11401e-12
2.1667e-12
2.21982e-12
2.27343e-12
2.32749e-12
2.3819e-12
2.43653e-12
2.4912e-12
2.54578e-12
2.60012e-12
2.65408e-12
2.70754e-12
2.76036e-12
2.81238e-12
)
;
    }
    inandouthalf12
    {
        type            cyclic;
        value           nonuniform List<scalar> 
100
(
-5.45209e-42
-5.4566e-42
-5.47314e-42
-5.67569e-41
-4.39826e-40
-1.89255e-39
-5.72334e-39
-1.38531e-38
-2.90669e-38
-5.57651e-38
-1.01537e-37
-1.80076e-37
-3.16802e-37
-5.59847e-37
-1.00132e-36
-1.81967e-36
-3.36558e-36
-6.33925e-36
-1.21645e-35
-2.37942e-35
-4.74657e-35
-9.66177e-35
-2.00898e-34
-4.27114e-34
-9.29518e-34
-2.07432e-33
-4.75905e-33
-1.12635e-32
-2.75984e-32
-7.02277e-32
-1.86262e-31
-5.17355e-31
-1.51309e-30
-4.68843e-30
-1.55033e-29
-5.50848e-29
-2.12162e-28
-8.9418e-28
-4.1648e-27
-2.16107e-26
-1.2589e-25
-8.30221e-25
-6.20947e-24
-5.2577e-23
-4.97887e-22
-5.10281e-21
-5.39118e-20
-5.5029e-19
-5.07658e-18
-4.00749e-17
-2.59906e-16
-1.35832e-15
-5.71223e-15
-1.9447e-14
-5.41548e-14
-1.24968e-13
-2.42755e-13
-4.04575e-13
-5.91657e-13
-7.7809e-13
-9.4296e-13
-1.07634e-12
-1.17801e-12
-1.25308e-12
-1.30808e-12
-1.34895e-12
-1.38033e-12
-1.40556e-12
-1.42702e-12
-1.44639e-12
-1.46501e-12
-1.48397e-12
-1.50425e-12
-1.52683e-12
-1.55266e-12
-1.58262e-12
-1.61729e-12
-1.65689e-12
-1.70106e-12
-1.74898e-12
-1.79952e-12
-1.85153e-12
-1.90413e-12
-1.95676e-12
-2.00923e-12
-2.06158e-12
-2.11401e-12
-2.1667e-12
-2.21982e-12
-2.27343e-12
-2.32749e-12
-2.3819e-12
-2.43653e-12
-2.4912e-12
-2.54578e-12
-2.60012e-12
-2.65408e-12
-2.70754e-12
-2.76036e-12
-2.81238e-12
)
;
    }
    inandouthalf21
    {
        type            cyclic;
        value           nonuniform List<scalar> 
100
(
2.86347e-12
2.91348e-12
2.96227e-12
3.0097e-12
3.05568e-12
3.10008e-12
3.14282e-12
3.1838e-12
3.22296e-12
3.26021e-12
3.2955e-12
3.32876e-12
3.35994e-12
3.38899e-12
3.41583e-12
3.44042e-12
3.46269e-12
3.48257e-12
3.49998e-12
3.51485e-12
3.52709e-12
3.53659e-12
3.54324e-12
3.54694e-12
3.54756e-12
3.54499e-12
3.53912e-12
3.52981e-12
3.51697e-12
3.50049e-12
3.48034e-12
3.45654e-12
3.42913e-12
3.39797e-12
3.36267e-12
3.32259e-12
3.27677e-12
3.22364e-12
3.16062e-12
3.08514e-12
2.99986e-12
2.91745e-12
2.85211e-12
2.81094e-12
2.79464e-12
2.79292e-12
2.79196e-12
2.78777e-12
-5.72649e-08
-1.20739e-07
-1.77e-07
-2.28285e-07
-2.75699e-07
-3.20124e-07
-3.62198e-07
-4.02378e-07
-4.41e-07
-4.78308e-07
-5.14482e-07
-5.49651e-07
-5.83896e-07
-6.17257e-07
-6.49733e-07
-6.81277e-07
-7.11795e-07
-7.41136e-07
-7.69084e-07
-7.95352e-07
-8.19567e-07
-8.4127e-07
-8.59954e-07
-8.75187e-07
-8.86863e-07
-8.95371e-07
-9.01463e-07
-9.05937e-07
-9.09491e-07
-9.12517e-07
-9.15205e-07
-9.17648e-07
-9.19895e-07
-9.21981e-07
-9.23928e-07
-9.25756e-07
-9.27479e-07
-9.29109e-07
-9.30658e-07
-9.32133e-07
-9.3354e-07
-9.34888e-07
-9.36182e-07
-9.37425e-07
-9.3862e-07
-9.39771e-07
-9.40884e-07
-9.4196e-07
-9.42999e-07
-9.43999e-07
-9.44967e-07
-9.45909e-07
)
;
    }
    inandouthalf22
    {
        type            cyclic;
        value           nonuniform List<scalar> 
100
(
-2.86347e-12
-2.91348e-12
-2.96227e-12
-3.0097e-12
-3.05568e-12
-3.10008e-12
-3.14282e-12
-3.1838e-12
-3.22296e-12
-3.26021e-12
-3.2955e-12
-3.32876e-12
-3.35994e-12
-3.38899e-12
-3.41583e-12
-3.44042e-12
-3.46269e-12
-3.48257e-12
-3.49998e-12
-3.51485e-12
-3.52709e-12
-3.53659e-12
-3.54324e-12
-3.54694e-12
-3.54756e-12
-3.54499e-12
-3.53912e-12
-3.52981e-12
-3.51697e-12
-3.50049e-12
-3.48034e-12
-3.45654e-12
-3.42913e-12
-3.39797e-12
-3.36267e-12
-3.32259e-12
-3.27677e-12
-3.22364e-12
-3.16062e-12
-3.08514e-12
-2.99986e-12
-2.91745e-12
-2.85211e-12
-2.81094e-12
-2.79464e-12
-2.79292e-12
-2.79196e-12
-2.78777e-12
5.72649e-08
1.20739e-07
1.77e-07
2.28285e-07
2.75699e-07
3.20124e-07
3.62198e-07
4.02378e-07
4.41e-07
4.78308e-07
5.14482e-07
5.49651e-07
5.83896e-07
6.17257e-07
6.49733e-07
6.81277e-07
7.11795e-07
7.41136e-07
7.69084e-07
7.95352e-07
8.19567e-07
8.4127e-07
8.59954e-07
8.75187e-07
8.86863e-07
8.95371e-07
9.01463e-07
9.05937e-07
9.09491e-07
9.12517e-07
9.15205e-07
9.17648e-07
9.19895e-07
9.21981e-07
9.23928e-07
9.25756e-07
9.27479e-07
9.29109e-07
9.30658e-07
9.32133e-07
9.3354e-07
9.34888e-07
9.36182e-07
9.37425e-07
9.3862e-07
9.39771e-07
9.40884e-07
9.4196e-07
9.42999e-07
9.43999e-07
9.44967e-07
9.45909e-07
)
;
    }
    inandouthalf31
    {
        type            cyclic;
        value           nonuniform List<scalar> 
110
(
-9.46825e-07
-9.66948e-07
-9.87475e-07
-1.00843e-06
-1.02982e-06
-1.05167e-06
-1.07396e-06
-1.0967e-06
-1.11993e-06
-1.14365e-06
-1.16787e-06
-1.19258e-06
-1.21782e-06
-1.24359e-06
-1.2699e-06
-1.29675e-06
-1.32421e-06
-1.35224e-06
-1.38083e-06
-1.41004e-06
-1.4399e-06
-1.47039e-06
-1.50152e-06
-1.53334e-06
-1.56583e-06
-1.59901e-06
-1.63295e-06
-1.66761e-06
-1.70299e-06
-1.73918e-06
-1.77616e-06
-1.81391e-06
-1.8525e-06
-1.89193e-06
-1.9322e-06
-1.97334e-06
-2.01533e-06
-2.05818e-06
-2.10184e-06
-2.14622e-06
-2.19124e-06
-2.23731e-06
-2.45839e-06
-2.5083e-06
-2.55922e-06
-2.61117e-06
-2.66417e-06
-2.71825e-06
-2.77343e-06
-2.82973e-06
-2.88716e-06
-2.94577e-06
-3.00556e-06
-3.06657e-06
-3.12881e-06
-3.19232e-06
-3.25711e-06
-3.32323e-06
-3.39068e-06
-3.4595e-06
-3.52972e-06
-3.60136e-06
-3.67446e-06
-3.74904e-06
-3.82514e-06
-3.90278e-06
-3.982e-06
-4.06282e-06
-4.14529e-06
-4.22942e-06
-4.31527e-06
-4.40286e-06
-4.49222e-06
-4.5834e-06
-4.67644e-06
-4.77135e-06
-4.8682e-06
-4.96701e-06
-5.06783e-06
-5.17069e-06
-5.27564e-06
-5.38273e-06
-5.49198e-06
-5.60345e-06
-5.71719e-06
-5.83323e-06
-5.95163e-06
-6.07243e-06
-6.19569e-06
-6.32144e-06
-6.44975e-06
-6.58066e-06
-6.71423e-06
-6.85052e-06
-6.98956e-06
-7.13143e-06
-7.27618e-06
-7.42387e-06
-7.57455e-06
-7.7283e-06
-7.88516e-06
-8.04521e-06
-8.2085e-06
-8.37512e-06
-8.54511e-06
-8.71855e-06
-8.89551e-06
-9.07607e-06
-9.26029e-06
-9.44825e-06
)
;
    }
    inandouthalf32
    {
        type            cyclic;
        value           nonuniform List<scalar> 
110
(
9.46825e-07
9.66948e-07
9.87475e-07
1.00843e-06
1.02982e-06
1.05167e-06
1.07396e-06
1.0967e-06
1.11993e-06
1.14365e-06
1.16787e-06
1.19258e-06
1.21782e-06
1.24359e-06
1.2699e-06
1.29675e-06
1.32421e-06
1.35224e-06
1.38083e-06
1.41004e-06
1.4399e-06
1.47039e-06
1.50152e-06
1.53334e-06
1.56583e-06
1.59901e-06
1.63295e-06
1.66761e-06
1.70299e-06
1.73918e-06
1.77616e-06
1.81391e-06
1.8525e-06
1.89193e-06
1.9322e-06
1.97334e-06
2.01533e-06
2.05818e-06
2.10184e-06
2.14622e-06
2.19124e-06
2.23731e-06
2.45839e-06
2.5083e-06
2.55922e-06
2.61117e-06
2.66417e-06
2.71825e-06
2.77343e-06
2.82973e-06
2.88716e-06
2.94577e-06
3.00556e-06
3.06657e-06
3.12881e-06
3.19232e-06
3.25711e-06
3.32323e-06
3.39068e-06
3.4595e-06
3.52972e-06
3.60136e-06
3.67446e-06
3.74904e-06
3.82514e-06
3.90278e-06
3.982e-06
4.06282e-06
4.14529e-06
4.22942e-06
4.31527e-06
4.40286e-06
4.49222e-06
4.5834e-06
4.67644e-06
4.77135e-06
4.8682e-06
4.96701e-06
5.06783e-06
5.17069e-06
5.27564e-06
5.38273e-06
5.49198e-06
5.60345e-06
5.71719e-06
5.83323e-06
5.95163e-06
6.07243e-06
6.19569e-06
6.32144e-06
6.44975e-06
6.58066e-06
6.71423e-06
6.85052e-06
6.98956e-06
7.13143e-06
7.27618e-06
7.42387e-06
7.57455e-06
7.7283e-06
7.88516e-06
8.04521e-06
8.2085e-06
8.37512e-06
8.54511e-06
8.71855e-06
8.89551e-06
9.07607e-06
9.26029e-06
9.44825e-06
)
;
    }
    inandouthalf41
    {
        type            cyclic;
        value           nonuniform List<scalar> 
50
(
-8.45715e-06
-8.45715e-06
-8.45715e-06
-8.45715e-06
-8.45715e-06
-8.45715e-06
-8.45715e-06
-8.45715e-06
-8.45715e-06
-8.45715e-06
-8.45715e-06
-8.45715e-06
-8.45715e-06
-8.45715e-06
-8.45715e-06
-8.45715e-06
-8.45715e-06
-8.45715e-06
-8.45715e-06
-8.45715e-06
-8.45715e-06
-8.45715e-06
-8.45715e-06
-8.45715e-06
-8.45715e-06
-8.45715e-06
-8.45715e-06
-8.45715e-06
-8.45715e-06
-8.45715e-06
-8.45715e-06
-8.45715e-06
-8.45715e-06
-8.45715e-06
-8.45715e-06
-8.45715e-06
-8.45715e-06
-8.45715e-06
-8.45715e-06
-8.45715e-06
-8.45715e-06
-8.45715e-06
-8.45715e-06
-8.45715e-06
-8.45715e-06
-8.45715e-06
-8.45715e-06
-8.45716e-06
-8.45739e-06
-8.46284e-06
)
;
    }
    inandouthalf42
    {
        type            cyclic;
        value           nonuniform List<scalar> 
50
(
8.45715e-06
8.45715e-06
8.45715e-06
8.45715e-06
8.45715e-06
8.45715e-06
8.45715e-06
8.45715e-06
8.45715e-06
8.45715e-06
8.45715e-06
8.45715e-06
8.45715e-06
8.45715e-06
8.45715e-06
8.45715e-06
8.45715e-06
8.45715e-06
8.45715e-06
8.45715e-06
8.45715e-06
8.45715e-06
8.45715e-06
8.45715e-06
8.45715e-06
8.45715e-06
8.45715e-06
8.45715e-06
8.45715e-06
8.45715e-06
8.45715e-06
8.45715e-06
8.45715e-06
8.45715e-06
8.45715e-06
8.45715e-06
8.45715e-06
8.45715e-06
8.45715e-06
8.45715e-06
8.45715e-06
8.45715e-06
8.45715e-06
8.45715e-06
8.45715e-06
8.45715e-06
8.45715e-06
8.45716e-06
8.45739e-06
8.46284e-06
)
;
    }
    top
    {
        type            symmetryPlane;
        value           uniform 0;
    }
    walls
    {
        type            fixedValue;
        value           uniform 0;
    }
    frontAndBackPlanes
    {
        type            empty;
        value           nonuniform 0();
    }
}


// ************************************************************************* //
