/*--------------------------------*- C++ -*----------------------------------*\
| =========                 |                                                 |
| \\      /  F ield         | OpenFOAM: The Open Source CFD Toolbox           |
|  \\    /   O peration     | Version:  2.4.x                                 |
|   \\  /    A nd           | Web:      www.OpenFOAM.org                      |
|    \\/     M anipulation  |                                                 |
\*---------------------------------------------------------------------------*/
FoamFile
{
    version     2.0;
    format      ascii;
    class       surfaceScalarField;
    location    "2.35";
    object      phia_0;
}
// * * * * * * * * * * * * * * * * * * * * * * * * * * * * * * * * * * * * * //

dimensions      [0 3 -1 0 0 0 0];

internalField   nonuniform List<scalar> 
359
(
-3.11605e-40
-3.11843e-40
-1.06743e-39
-7.42974e-39
-3.41484e-38
-1.106e-37
-2.82395e-37
-6.15482e-37
-1.20876e-36
-2.22704e-36
-3.96077e-36
-6.93752e-36
-1.21486e-35
-2.1466e-35
-3.84749e-35
-7.01285e-35
-1.30121e-34
-2.45905e-34
-4.73477e-34
-9.29873e-34
-1.86226e-33
-3.80893e-33
-7.96247e-33
-1.70304e-32
-3.73245e-32
-8.40223e-32
-1.9487e-31
-4.67529e-31
-1.16385e-30
-3.01692e-30
-8.17747e-30
-2.33241e-29
-7.03323e-29
-2.26235e-28
-7.80662e-28
-2.91781e-27
-1.19207e-26
-5.3789e-26
-2.70652e-25
-1.52812e-24
-9.78366e-24
-7.1208e-23
-5.88039e-22
-5.46018e-21
-5.52048e-20
-5.79726e-19
-5.937e-18
-5.54246e-17
-4.4669e-16
-2.98594e-15
-1.61961e-14
-7.11813e-14
-2.54631e-13
-7.48898e-13
-1.83053e-12
-3.77327e-12
-6.66044e-12
-1.02689e-11
-1.41312e-11
-1.77577e-11
-2.08335e-11
-2.32524e-11
-2.50689e-11
-2.64029e-11
-2.7384e-11
-2.81209e-11
-2.86958e-11
-2.91676e-11
-2.95779e-11
-2.99573e-11
-3.03307e-11
-3.07194e-11
-3.11431e-11
-3.16224e-11
-3.21763e-11
-3.28213e-11
-3.35671e-11
-3.4414e-11
-3.53516e-11
-3.63614e-11
-3.74207e-11
-3.85093e-11
-3.96131e-11
-4.07249e-11
-4.18443e-11
-4.29746e-11
-4.41212e-11
-4.5289e-11
-4.64815e-11
-4.77002e-11
-4.89446e-11
-5.02132e-11
-5.15037e-11
-5.28138e-11
-5.41413e-11
-5.54842e-11
-5.68408e-11
-5.82089e-11
-5.95863e-11
-6.09706e-11
-6.23592e-11
-6.37496e-11
-6.51393e-11
-6.65262e-11
-6.79083e-11
-6.92838e-11
-7.06512e-11
-7.20092e-11
-7.33567e-11
-7.46929e-11
-7.60171e-11
-7.73287e-11
-7.86274e-11
-7.9913e-11
-8.11852e-11
-8.24441e-11
-8.36896e-11
-8.49216e-11
-8.614e-11
-8.73448e-11
-8.85356e-11
-8.97116e-11
-9.08719e-11
-9.20153e-11
-9.31405e-11
-9.42461e-11
-9.53309e-11
-9.63932e-11
-9.74306e-11
-9.84393e-11
-9.94138e-11
-1.00349e-10
-1.01245e-10
-1.02106e-10
-1.02941e-10
-1.03758e-10
-1.04568e-10
-1.05388e-10
-1.06235e-10
-1.07097e-10
-1.07891e-10
-1.08481e-10
-1.08846e-10
-1.09022e-10
-1.0907e-10
-1.09075e-10
-1.09042e-10
9.25942e-09
1.83633e-08
2.51921e-08
3.09241e-08
3.61134e-08
4.09329e-08
4.54996e-08
4.98888e-08
5.41512e-08
5.83236e-08
6.24349e-08
6.65067e-08
7.05596e-08
7.46111e-08
7.86802e-08
8.27787e-08
8.69292e-08
9.11475e-08
9.54482e-08
9.98493e-08
1.04389e-07
1.09109e-07
1.1381e-07
1.17579e-07
1.191e-07
1.1802e-07
1.15464e-07
1.13014e-07
1.10837e-07
1.08909e-07
1.07196e-07
1.05674e-07
1.0431e-07
1.03085e-07
1.01975e-07
1.00965e-07
1.00038e-07
9.91833e-08
9.83899e-08
9.76469e-08
9.69523e-08
9.62952e-08
9.5673e-08
9.50788e-08
9.45121e-08
9.39676e-08
9.34429e-08
9.29328e-08
9.24384e-08
9.19572e-08
9.14888e-08
9.10272e-08
9.05707e-08
9.01205e-08
8.96704e-08
8.92204e-08
8.87611e-08
8.82882e-08
8.78088e-08
8.73308e-08
8.68463e-08
8.63423e-08
8.58247e-08
8.53054e-08
8.4774e-08
8.42218e-08
8.36605e-08
8.30925e-08
8.24997e-08
8.18804e-08
8.1255e-08
8.0621e-08
7.99538e-08
7.92567e-08
7.85447e-08
7.78037e-08
7.7032e-08
7.6239e-08
7.54058e-08
7.45289e-08
7.36296e-08
7.26902e-08
7.16947e-08
7.0668e-08
6.96005e-08
6.84733e-08
6.73008e-08
6.60819e-08
6.48211e-08
6.35207e-08
6.22073e-08
6.09392e-08
5.97826e-08
5.8652e-08
-4.89116e-08
-1.57983e-07
-1.57982e-07
-1.57982e-07
-1.57982e-07
-1.57982e-07
-1.57982e-07
-1.57982e-07
-1.57982e-07
-1.57982e-07
-1.57982e-07
-1.57982e-07
-1.57982e-07
-1.57982e-07
-1.57982e-07
-1.57982e-07
-1.57982e-07
-1.57982e-07
-1.57982e-07
-1.57982e-07
-1.57982e-07
-1.57982e-07
-1.57982e-07
-1.57982e-07
-1.57982e-07
-1.57982e-07
-1.57982e-07
-1.57982e-07
-1.57982e-07
-1.57982e-07
-1.57982e-07
-1.57982e-07
-1.57982e-07
-1.57982e-07
-1.57982e-07
-1.57982e-07
-1.57982e-07
-1.57982e-07
-1.57982e-07
-1.57982e-07
-1.57982e-07
-1.57982e-07
-1.57982e-07
-1.57982e-07
-1.57982e-07
-1.57982e-07
-1.57982e-07
-1.57982e-07
-1.57982e-07
-1.57982e-07
-1.57982e-07
-1.57982e-07
-1.57982e-07
-1.57982e-07
-1.57982e-07
-1.57982e-07
-1.57982e-07
-1.57982e-07
-1.57982e-07
-1.57982e-07
-1.57982e-07
-1.57982e-07
-1.57982e-07
-1.57982e-07
-1.57982e-07
-1.57982e-07
-1.57982e-07
-1.57982e-07
-1.57982e-07
-1.57982e-07
-1.57982e-07
-1.57982e-07
-1.57982e-07
-1.57982e-07
-1.57982e-07
-1.57982e-07
-1.57982e-07
-1.57982e-07
-1.57982e-07
-1.57982e-07
-1.57982e-07
-1.57982e-07
-1.57982e-07
-1.57982e-07
-1.57982e-07
-1.57982e-07
-1.57982e-07
-1.57982e-07
-1.57982e-07
-1.57982e-07
-1.57982e-07
-1.57982e-07
-1.57982e-07
-1.57982e-07
-1.57982e-07
-1.57982e-07
-1.57982e-07
-1.57982e-07
-1.57982e-07
-1.57982e-07
-1.57982e-07
-1.57982e-07
-1.57982e-07
-1.57982e-07
-1.57982e-07
-1.57982e-07
-1.57982e-07
-1.57982e-07
-1.57982e-07
-1.57982e-07
-1.57982e-07
-1.57982e-07
-1.57982e-07
-1.57982e-07
-1.57982e-07
-1.57965e-07
-1.57256e-07
-1.32268e-07
)
;

boundaryField
{
    inandouthalf11
    {
        type            cyclic;
        value           nonuniform List<scalar> 
100
(
5.43094e-42
5.43545e-42
5.45198e-42
5.52347e-41
4.26779e-40
1.8345e-39
5.54288e-39
1.34045e-38
2.81007e-38
5.38634e-38
9.7987e-38
1.73625e-37
3.0518e-37
5.38834e-37
9.62891e-37
1.74831e-36
3.23075e-36
6.07988e-36
1.16563e-35
2.27788e-35
4.53961e-35
9.23117e-35
1.91741e-34
4.07188e-34
8.85099e-34
1.97268e-33
4.51966e-33
1.06811e-32
2.61293e-32
6.6373e-32
1.75703e-31
4.87009e-31
1.4211e-30
4.39246e-30
1.44854e-29
5.13175e-29
1.9703e-28
8.27605e-28
3.84101e-27
1.98573e-26
1.15249e-25
7.5735e-25
5.64685e-24
4.7705e-23
4.51373e-22
4.63181e-21
4.91222e-20
5.04643e-19
4.69546e-18
3.74281e-17
2.45142e-16
1.29317e-15
5.48481e-15
1.88162e-14
5.27543e-14
1.22457e-13
2.3908e-13
4.00102e-13
5.87023e-13
7.73873e-13
9.39467e-13
1.07361e-12
1.17591e-12
1.25145e-12
1.30677e-12
1.34787e-12
1.37939e-12
1.40471e-12
1.42623e-12
1.44565e-12
1.4643e-12
1.48327e-12
1.50356e-12
1.52615e-12
1.55199e-12
1.58194e-12
1.61661e-12
1.6562e-12
1.70036e-12
1.74827e-12
1.7988e-12
1.85081e-12
1.9034e-12
1.95602e-12
2.00848e-12
2.06082e-12
2.11323e-12
2.16591e-12
2.21901e-12
2.2726e-12
2.32664e-12
2.38104e-12
2.43564e-12
2.4903e-12
2.54485e-12
2.59917e-12
2.65312e-12
2.70656e-12
2.75936e-12
2.81136e-12
)
;
    }
    inandouthalf12
    {
        type            cyclic;
        value           nonuniform List<scalar> 
100
(
-5.43094e-42
-5.43545e-42
-5.45198e-42
-5.52347e-41
-4.26779e-40
-1.8345e-39
-5.54288e-39
-1.34045e-38
-2.81007e-38
-5.38634e-38
-9.7987e-38
-1.73625e-37
-3.0518e-37
-5.38834e-37
-9.62891e-37
-1.74831e-36
-3.23075e-36
-6.07988e-36
-1.16563e-35
-2.27788e-35
-4.53961e-35
-9.23117e-35
-1.91741e-34
-4.07188e-34
-8.85099e-34
-1.97268e-33
-4.51966e-33
-1.06811e-32
-2.61293e-32
-6.6373e-32
-1.75703e-31
-4.87009e-31
-1.4211e-30
-4.39246e-30
-1.44854e-29
-5.13175e-29
-1.9703e-28
-8.27605e-28
-3.84101e-27
-1.98573e-26
-1.15249e-25
-7.5735e-25
-5.64685e-24
-4.7705e-23
-4.51373e-22
-4.63181e-21
-4.91222e-20
-5.04643e-19
-4.69546e-18
-3.74281e-17
-2.45142e-16
-1.29317e-15
-5.48481e-15
-1.88162e-14
-5.27543e-14
-1.22457e-13
-2.3908e-13
-4.00102e-13
-5.87023e-13
-7.73873e-13
-9.39467e-13
-1.07361e-12
-1.17591e-12
-1.25145e-12
-1.30677e-12
-1.34787e-12
-1.37939e-12
-1.40471e-12
-1.42623e-12
-1.44565e-12
-1.4643e-12
-1.48327e-12
-1.50356e-12
-1.52615e-12
-1.55199e-12
-1.58194e-12
-1.61661e-12
-1.6562e-12
-1.70036e-12
-1.74827e-12
-1.7988e-12
-1.85081e-12
-1.9034e-12
-1.95602e-12
-2.00848e-12
-2.06082e-12
-2.11323e-12
-2.16591e-12
-2.21901e-12
-2.2726e-12
-2.32664e-12
-2.38104e-12
-2.43564e-12
-2.4903e-12
-2.54485e-12
-2.59917e-12
-2.65312e-12
-2.70656e-12
-2.75936e-12
-2.81136e-12
)
;
    }
    inandouthalf21
    {
        type            cyclic;
        value           nonuniform List<scalar> 
100
(
2.86244e-12
2.91243e-12
2.9612e-12
3.00862e-12
3.05457e-12
3.09896e-12
3.14168e-12
3.18265e-12
3.22178e-12
3.25902e-12
3.29429e-12
3.32754e-12
3.3587e-12
3.38772e-12
3.41454e-12
3.43911e-12
3.46136e-12
3.48121e-12
3.4986e-12
3.51345e-12
3.52566e-12
3.53513e-12
3.54176e-12
3.54542e-12
3.54602e-12
3.54342e-12
3.53751e-12
3.52817e-12
3.51528e-12
3.49876e-12
3.47856e-12
3.45472e-12
3.42725e-12
3.39604e-12
3.36069e-12
3.32055e-12
3.27467e-12
3.2215e-12
3.15845e-12
3.08301e-12
2.99783e-12
2.91562e-12
2.85051e-12
2.80953e-12
2.79329e-12
2.79156e-12
2.79059e-12
2.78645e-12
-5.72284e-08
-1.20721e-07
-1.77005e-07
-2.28313e-07
-2.75751e-07
-3.20199e-07
-3.62296e-07
-4.02499e-07
-4.41144e-07
-4.78475e-07
-5.14673e-07
-5.49865e-07
-5.84132e-07
-6.17515e-07
-6.50012e-07
-6.81575e-07
-7.1211e-07
-7.41465e-07
-7.69424e-07
-7.95696e-07
-8.19908e-07
-8.416e-07
-8.60262e-07
-8.75465e-07
-8.87107e-07
-8.95586e-07
-9.01654e-07
-9.06114e-07
-9.09659e-07
-9.12681e-07
-9.15365e-07
-9.17805e-07
-9.2005e-07
-9.22133e-07
-9.24078e-07
-9.25904e-07
-9.27625e-07
-9.29254e-07
-9.30802e-07
-9.32275e-07
-9.33681e-07
-9.35028e-07
-9.36321e-07
-9.37562e-07
-9.38756e-07
-9.39906e-07
-9.41019e-07
-9.42094e-07
-9.43131e-07
-9.44131e-07
-9.45098e-07
-9.46039e-07
)
;
    }
    inandouthalf22
    {
        type            cyclic;
        value           nonuniform List<scalar> 
100
(
-2.86244e-12
-2.91243e-12
-2.9612e-12
-3.00862e-12
-3.05457e-12
-3.09896e-12
-3.14168e-12
-3.18265e-12
-3.22178e-12
-3.25902e-12
-3.29429e-12
-3.32754e-12
-3.3587e-12
-3.38772e-12
-3.41454e-12
-3.43911e-12
-3.46136e-12
-3.48121e-12
-3.4986e-12
-3.51345e-12
-3.52566e-12
-3.53513e-12
-3.54176e-12
-3.54542e-12
-3.54602e-12
-3.54342e-12
-3.53751e-12
-3.52817e-12
-3.51528e-12
-3.49876e-12
-3.47856e-12
-3.45472e-12
-3.42725e-12
-3.39604e-12
-3.36069e-12
-3.32055e-12
-3.27467e-12
-3.2215e-12
-3.15845e-12
-3.08301e-12
-2.99783e-12
-2.91562e-12
-2.85051e-12
-2.80953e-12
-2.79329e-12
-2.79156e-12
-2.79059e-12
-2.78645e-12
5.72284e-08
1.20721e-07
1.77005e-07
2.28313e-07
2.75751e-07
3.20199e-07
3.62296e-07
4.02499e-07
4.41144e-07
4.78475e-07
5.14673e-07
5.49865e-07
5.84132e-07
6.17515e-07
6.50012e-07
6.81575e-07
7.1211e-07
7.41465e-07
7.69424e-07
7.95696e-07
8.19908e-07
8.416e-07
8.60262e-07
8.75465e-07
8.87107e-07
8.95586e-07
9.01654e-07
9.06114e-07
9.09659e-07
9.12681e-07
9.15365e-07
9.17805e-07
9.2005e-07
9.22133e-07
9.24078e-07
9.25904e-07
9.27625e-07
9.29254e-07
9.30802e-07
9.32275e-07
9.33681e-07
9.35028e-07
9.36321e-07
9.37562e-07
9.38756e-07
9.39906e-07
9.41019e-07
9.42094e-07
9.43131e-07
9.44131e-07
9.45098e-07
9.46039e-07
)
;
    }
    inandouthalf31
    {
        type            cyclic;
        value           nonuniform List<scalar> 
110
(
-9.46955e-07
-9.6708e-07
-9.8761e-07
-1.00856e-06
-1.02996e-06
-1.05181e-06
-1.0741e-06
-1.09685e-06
-1.12007e-06
-1.1438e-06
-1.16802e-06
-1.19273e-06
-1.21798e-06
-1.24376e-06
-1.27006e-06
-1.29692e-06
-1.32438e-06
-1.35241e-06
-1.38101e-06
-1.41022e-06
-1.44009e-06
-1.47058e-06
-1.50171e-06
-1.53354e-06
-1.56603e-06
-1.59922e-06
-1.63316e-06
-1.66782e-06
-1.70321e-06
-1.73941e-06
-1.77639e-06
-1.81414e-06
-1.85274e-06
-1.89218e-06
-1.93246e-06
-1.9736e-06
-2.0156e-06
-2.05846e-06
-2.10213e-06
-2.14651e-06
-2.19154e-06
-2.23762e-06
-2.45889e-06
-2.50881e-06
-2.55974e-06
-2.6117e-06
-2.66471e-06
-2.71881e-06
-2.77399e-06
-2.8303e-06
-2.88775e-06
-2.94637e-06
-3.00617e-06
-3.06719e-06
-3.12945e-06
-3.19297e-06
-3.25778e-06
-3.3239e-06
-3.39137e-06
-3.46021e-06
-3.53044e-06
-3.6021e-06
-3.67521e-06
-3.74981e-06
-3.82592e-06
-3.90358e-06
-3.98281e-06
-4.06365e-06
-4.14613e-06
-4.23028e-06
-4.31615e-06
-4.40375e-06
-4.49314e-06
-4.58434e-06
-4.67739e-06
-4.77233e-06
-4.86919e-06
-4.96802e-06
-5.06886e-06
-5.17174e-06
-5.27672e-06
-5.38382e-06
-5.4931e-06
-5.60459e-06
-5.71835e-06
-5.83442e-06
-5.95284e-06
-6.07367e-06
-6.19695e-06
-6.32273e-06
-6.45106e-06
-6.582e-06
-6.7156e-06
-6.85191e-06
-6.99099e-06
-7.13288e-06
-7.27766e-06
-7.42538e-06
-7.57609e-06
-7.72987e-06
-7.88677e-06
-8.04685e-06
-8.21018e-06
-8.37682e-06
-8.54685e-06
-8.72033e-06
-8.89732e-06
-9.07792e-06
-9.26217e-06
-9.45017e-06
)
;
    }
    inandouthalf32
    {
        type            cyclic;
        value           nonuniform List<scalar> 
110
(
9.46955e-07
9.6708e-07
9.8761e-07
1.00856e-06
1.02996e-06
1.05181e-06
1.0741e-06
1.09685e-06
1.12007e-06
1.1438e-06
1.16802e-06
1.19273e-06
1.21798e-06
1.24376e-06
1.27006e-06
1.29692e-06
1.32438e-06
1.35241e-06
1.38101e-06
1.41022e-06
1.44009e-06
1.47058e-06
1.50171e-06
1.53354e-06
1.56603e-06
1.59922e-06
1.63316e-06
1.66782e-06
1.70321e-06
1.73941e-06
1.77639e-06
1.81414e-06
1.85274e-06
1.89218e-06
1.93246e-06
1.9736e-06
2.0156e-06
2.05846e-06
2.10213e-06
2.14651e-06
2.19154e-06
2.23762e-06
2.45889e-06
2.50881e-06
2.55974e-06
2.6117e-06
2.66471e-06
2.71881e-06
2.77399e-06
2.8303e-06
2.88775e-06
2.94637e-06
3.00617e-06
3.06719e-06
3.12945e-06
3.19297e-06
3.25778e-06
3.3239e-06
3.39137e-06
3.46021e-06
3.53044e-06
3.6021e-06
3.67521e-06
3.74981e-06
3.82592e-06
3.90358e-06
3.98281e-06
4.06365e-06
4.14613e-06
4.23028e-06
4.31615e-06
4.40375e-06
4.49314e-06
4.58434e-06
4.67739e-06
4.77233e-06
4.86919e-06
4.96802e-06
5.06886e-06
5.17174e-06
5.27672e-06
5.38382e-06
5.4931e-06
5.60459e-06
5.71835e-06
5.83442e-06
5.95284e-06
6.07367e-06
6.19695e-06
6.32273e-06
6.45106e-06
6.582e-06
6.7156e-06
6.85191e-06
6.99099e-06
7.13288e-06
7.27766e-06
7.42538e-06
7.57609e-06
7.72987e-06
7.88677e-06
8.04685e-06
8.21018e-06
8.37682e-06
8.54685e-06
8.72033e-06
8.89732e-06
9.07792e-06
9.26217e-06
9.45017e-06
)
;
    }
    inandouthalf41
    {
        type            cyclic;
        value           nonuniform List<scalar> 
50
(
-8.45887e-06
-8.45887e-06
-8.45887e-06
-8.45887e-06
-8.45887e-06
-8.45887e-06
-8.45887e-06
-8.45887e-06
-8.45887e-06
-8.45887e-06
-8.45887e-06
-8.45887e-06
-8.45887e-06
-8.45887e-06
-8.45887e-06
-8.45887e-06
-8.45887e-06
-8.45887e-06
-8.45887e-06
-8.45887e-06
-8.45887e-06
-8.45887e-06
-8.45887e-06
-8.45887e-06
-8.45887e-06
-8.45887e-06
-8.45887e-06
-8.45887e-06
-8.45887e-06
-8.45887e-06
-8.45887e-06
-8.45887e-06
-8.45887e-06
-8.45887e-06
-8.45887e-06
-8.45887e-06
-8.45887e-06
-8.45887e-06
-8.45887e-06
-8.45887e-06
-8.45887e-06
-8.45887e-06
-8.45887e-06
-8.45887e-06
-8.45887e-06
-8.45887e-06
-8.45887e-06
-8.45888e-06
-8.45911e-06
-8.46456e-06
)
;
    }
    inandouthalf42
    {
        type            cyclic;
        value           nonuniform List<scalar> 
50
(
8.45887e-06
8.45887e-06
8.45887e-06
8.45887e-06
8.45887e-06
8.45887e-06
8.45887e-06
8.45887e-06
8.45887e-06
8.45887e-06
8.45887e-06
8.45887e-06
8.45887e-06
8.45887e-06
8.45887e-06
8.45887e-06
8.45887e-06
8.45887e-06
8.45887e-06
8.45887e-06
8.45887e-06
8.45887e-06
8.45887e-06
8.45887e-06
8.45887e-06
8.45887e-06
8.45887e-06
8.45887e-06
8.45887e-06
8.45887e-06
8.45887e-06
8.45887e-06
8.45887e-06
8.45887e-06
8.45887e-06
8.45887e-06
8.45887e-06
8.45887e-06
8.45887e-06
8.45887e-06
8.45887e-06
8.45887e-06
8.45887e-06
8.45887e-06
8.45887e-06
8.45887e-06
8.45887e-06
8.45888e-06
8.45911e-06
8.46456e-06
)
;
    }
    top
    {
        type            symmetryPlane;
        value           uniform 0;
    }
    walls
    {
        type            fixedValue;
        value           uniform 0;
    }
    frontAndBackPlanes
    {
        type            empty;
        value           nonuniform 0();
    }
}


// ************************************************************************* //
