/*--------------------------------*- C++ -*----------------------------------*\
| =========                 |                                                 |
| \\      /  F ield         | OpenFOAM: The Open Source CFD Toolbox           |
|  \\    /   O peration     | Version:  2.4.x                                 |
|   \\  /    A nd           | Web:      www.OpenFOAM.org                      |
|    \\/     M anipulation  |                                                 |
\*---------------------------------------------------------------------------*/
FoamFile
{
    version     2.0;
    format      ascii;
    class       volScalarField;
    location    "2.35";
    object      Theta;
}
// * * * * * * * * * * * * * * * * * * * * * * * * * * * * * * * * * * * * * //

dimensions      [0 2 -2 0 0 0 0];

internalField   nonuniform List<scalar> 
360
(
6.66136e-21
6.66136e-21
6.66136e-21
6.66136e-21
6.66136e-21
6.66136e-21
6.66136e-21
6.66136e-21
6.66136e-21
6.66136e-21
6.66136e-21
6.66136e-21
6.66136e-21
6.66136e-21
6.66136e-21
6.66136e-21
6.66136e-21
6.66136e-21
6.66136e-21
6.66136e-21
6.66136e-21
6.66136e-21
6.66136e-21
6.66136e-21
6.66136e-21
6.66136e-21
6.66136e-21
6.66136e-21
6.66136e-21
6.66136e-21
6.66136e-21
6.66136e-21
6.66136e-21
6.66136e-21
6.66136e-21
6.66136e-21
6.66136e-21
6.66136e-21
6.66136e-21
6.66136e-21
6.66136e-21
6.66136e-21
6.66136e-21
6.66136e-21
6.66136e-21
6.66135e-21
6.66135e-21
6.66135e-21
6.66135e-21
6.66135e-21
6.66136e-21
6.66145e-21
6.66242e-21
6.66918e-21
6.69953e-21
6.78683e-21
6.94535e-21
7.1148e-21
7.18794e-21
7.12701e-21
6.99423e-21
6.86601e-21
6.776e-21
6.72295e-21
6.69456e-21
6.68004e-21
6.6727e-21
6.66897e-21
6.6671e-21
6.66626e-21
6.6661e-21
6.66649e-21
6.66745e-21
6.66915e-21
6.67176e-21
6.67547e-21
6.68022e-21
6.68568e-21
6.69118e-21
6.69594e-21
6.69942e-21
6.70154e-21
6.70265e-21
6.70324e-21
6.70379e-21
6.7046e-21
6.70583e-21
6.70747e-21
6.70942e-21
6.71153e-21
6.71365e-21
6.71568e-21
6.71754e-21
6.71924e-21
6.72076e-21
6.72212e-21
6.72332e-21
6.72435e-21
6.72517e-21
6.72568e-21
0
0
0
0
0
0
0
0
0
0
0
0
0
0
0
6.71392e-21
6.71275e-21
6.7116e-21
6.71046e-21
6.70931e-21
6.70816e-21
6.70696e-21
6.70571e-21
6.70439e-21
6.703e-21
6.70153e-21
6.7e-21
6.6984e-21
6.69668e-21
6.69473e-21
6.6925e-21
6.69007e-21
6.6877e-21
6.68571e-21
6.68409e-21
1.15275e-20
2.13759e-19
5.79545e-18
1.57913e-16
4.30184e-15
1.17586e-13
3.24997e-12
9.25036e-11
3.1496e-09
2.04886e-07
8.34141e-06
0.000109497
0.00082974
0.00248968
0.00398908
0.00517806
0.00625434
0.0072248
0.00809849
0.00887763
0.00956086
0.0101443
0.0106252
0.0109992
0.0112639
0.0114173
0.0114577
0.0113867
0.0112049
0.0109176
0.0105335
0.0100652
0.0095314
0.00895786
0.00837864
0.00783306
0.00735896
0.00698073
0.00670104
0.00650375
0.00636365
0.00625522
0.00616424
0.00608394
0.00601091
0.00594319
0.00587956
0.00581913
0.00576128
0.0057055
0.0056514
0.00559867
0.00554703
0.0054963
0.00544629
0.00539684
0.00534783
0.00529914
0.0052507
0.00520241
0.00515419
0.005106
0.00505778
0.00500949
0.00496109
0.00491252
0.00486327
0.0048128
0.00476106
0.00470797
0.00465346
0.00459746
0.00453991
0.00448074
0.00441985
0.00435718
0.00429263
0.00422612
0.00415755
0.00408683
0.00401385
0.00393849
0.00386063
0.00378014
0.00369689
0.00361072
0.00352146
0.00342893
0.00333294
0.00323325
0.00312962
0.00302176
0.00290936
0.00279205
0.00266942
0.00254095
0.00240606
0.00226404
0.00211399
0.0019548
0.00178498
0.00160253
0.00140454
0.0011865
0.000940495
0.000649261
0
0
0
0
0
0
0
0
0
0
0
0
0
0
0
0
0
0
0
0
0
0
0
0
0
0
0
0
0
0
0
0
0
0
0
0
0
0
0
0
0
0
0
0
0
0
0
0
0
0
0
0
0
0
0
0
0
0
0
0
0
0
0
0
0
0
0
0
0
0
0
0
0
0
0
0
0
0
0
0
0
0
0
0
0
0
0
0
0
0
0
0
0
0
0
0
0
0
0
0
0
0
0
0
0
0
0
0
0
0
0
0
0
0
0
0
0
0
0
)
;

boundaryField
{
    inandouthalf11
    {
        type            cyclic;
    }
    inandouthalf12
    {
        type            cyclic;
    }
    inandouthalf21
    {
        type            cyclic;
    }
    inandouthalf22
    {
        type            cyclic;
    }
    inandouthalf31
    {
        type            cyclic;
    }
    inandouthalf32
    {
        type            cyclic;
    }
    inandouthalf41
    {
        type            cyclic;
    }
    inandouthalf42
    {
        type            cyclic;
    }
    top
    {
        type            symmetryPlane;
    }
    walls
    {
        type            zeroGradient;
    }
    frontAndBackPlanes
    {
        type            empty;
    }
}


// ************************************************************************* //
