/*--------------------------------*- C++ -*----------------------------------*\
| =========                 |                                                 |
| \\      /  F ield         | OpenFOAM: The Open Source CFD Toolbox           |
|  \\    /   O peration     | Version:  2.4.x                                 |
|   \\  /    A nd           | Web:      www.OpenFOAM.org                      |
|    \\/     M anipulation  |                                                 |
\*---------------------------------------------------------------------------*/
FoamFile
{
    version     2.0;
    format      ascii;
    class       volVectorField;
    location    "2.35";
    object      Ub;
}
// * * * * * * * * * * * * * * * * * * * * * * * * * * * * * * * * * * * * * //

dimensions      [0 1 -1 0 0 0 0];

internalField   nonuniform List<vector> 
360
(
(-0.000231063 5.40735e-14 0)
(-0.000231457 1.62305e-13 0)
(-0.000231459 2.70837e-13 0)
(-0.000231459 3.80144e-13 0)
(-0.000231459 4.89545e-13 0)
(-0.000231461 5.98982e-13 0)
(-0.000231461 7.08865e-13 0)
(-0.000231463 8.19113e-13 0)
(-0.000231463 9.29878e-13 0)
(-0.000231465 1.04102e-12 0)
(-0.000231467 1.15229e-12 0)
(-0.000231467 1.26383e-12 0)
(-0.000231469 1.37553e-12 0)
(-0.000231471 1.48782e-12 0)
(-0.000231473 1.60079e-12 0)
(-0.000231475 1.71437e-12 0)
(-0.000231477 1.8283e-12 0)
(-0.000231478 1.94248e-12 0)
(-0.00023148 2.05756e-12 0)
(-0.000231484 2.1736e-12 0)
(-0.000231486 2.28992e-12 0)
(-0.00023149 2.40686e-12 0)
(-0.000231494 2.52428e-12 0)
(-0.000231498 2.64226e-12 0)
(-0.000231502 2.76128e-12 0)
(-0.000231506 2.88079e-12 0)
(-0.00023151 3.00088e-12 0)
(-0.000231515 3.12176e-12 0)
(-0.000231521 3.24344e-12 0)
(-0.000231527 3.3658e-12 0)
(-0.000231533 3.48896e-12 0)
(-0.000231541 3.61339e-12 0)
(-0.000231547 3.73849e-12 0)
(-0.000231556 3.86434e-12 0)
(-0.000231564 3.99089e-12 0)
(-0.000231574 4.11805e-12 0)
(-0.000231583 4.24608e-12 0)
(-0.000231595 4.37515e-12 0)
(-0.000231609 4.50503e-12 0)
(-0.00023162 4.6359e-12 0)
(-0.000231636 4.76768e-12 0)
(-0.000231652 4.90016e-12 0)
(-0.000231667 5.03372e-12 0)
(-0.000231687 5.16914e-12 0)
(-0.000231706 5.31536e-12 0)
(-0.000231727 5.57145e-12 0)
(-0.000231751 6.90939e-12 0)
(-0.000231774 1.72658e-11 0)
(-0.000231801 8.76514e-11 0)
(-0.000231833 5.32238e-10 0)
(-0.000231864 3.10346e-09 0)
(-0.0002319 1.51872e-08 0)
(-0.000231941 5.99563e-08 0)
(-0.000231993 1.91811e-07 0)
(-0.000232067 5.0359e-07 0)
(-0.000232177 1.10425e-06 0)
(-0.000232332 2.06002e-06 0)
(-0.00023253 3.33724e-06 0)
(-0.000232753 4.7977e-06 0)
(-0.000232975 6.25614e-06 0)
(-0.000233181 7.55833e-06 0)
(-0.000233357 8.62378e-06 0)
(-0.000233506 9.4439e-06 0)
(-0.000233631 1.00533e-05 0)
(-0.00023374 1.05009e-05 0)
(-0.000233836 1.08327e-05 0)
(-0.000233927 1.10859e-05 0)
(-0.000234015 1.12877e-05 0)
(-0.000234103 1.14574e-05 0)
(-0.000234193 1.16092e-05 0)
(-0.000234287 1.17538e-05 0)
(-0.000234387 1.19e-05 0)
(-0.000234491 1.2056e-05 0)
(-0.000234602 1.22295e-05 0)
(-0.000234719 1.24282e-05 0)
(-0.000234843 1.26592e-05 0)
(-0.000234971 1.29273e-05 0)
(-0.000235105 1.32346e-05 0)
(-0.000235243 1.35792e-05 0)
(-0.000235384 1.39553e-05 0)
(-0.000235528 1.43548e-05 0)
(-0.000235674 1.47695e-05 0)
(-0.000235823 1.51927e-05 0)
(-0.000235975 1.56201e-05 0)
(-0.000236129 1.60502e-05 0)
(-0.000236286 1.64837e-05 0)
(-0.000236447 1.69221e-05 0)
(-0.00023661 1.73676e-05 0)
(-0.000236776 1.78217e-05 0)
(-0.000236944 1.82854e-05 0)
(-0.000237115 1.87588e-05 0)
(-0.000237287 1.92416e-05 0)
(-0.000237462 1.97331e-05 0)
(-0.000237639 2.02322e-05 0)
(-0.000237818 2.07381e-05 0)
(-0.000238 2.12501e-05 0)
(-0.000238183 2.17672e-05 0)
(-0.000238369 2.22888e-05 0)
(-0.000238558 2.2814e-05 0)
(-0.000238748 2.33419e-05 0)
(-0.00023894 2.38715e-05 0)
(-0.000239134 2.44018e-05 0)
(-0.00023933 2.49318e-05 0)
(-0.000239529 2.54606e-05 0)
(-0.000239729 2.59874e-05 0)
(-0.000239932 2.65115e-05 0)
(-0.000240137 2.70321e-05 0)
(-0.000240344 2.75487e-05 0)
(-0.000240553 2.8061e-05 0)
(-0.000240765 2.85683e-05 0)
(-0.00024098 2.90705e-05 0)
(-0.000241198 2.95673e-05 0)
(-0.000241419 3.00584e-05 0)
(-0.000241643 3.05439e-05 0)
(-0.000241871 3.10234e-05 0)
(-0.000242102 3.1497e-05 0)
(-0.000242337 3.19647e-05 0)
(-0.000242577 3.24263e-05 0)
(-0.000242821 3.28818e-05 0)
(-0.000243069 3.33311e-05 0)
(-0.000243323 3.37742e-05 0)
(-0.000243583 3.42107e-05 0)
(-0.000243848 3.46403e-05 0)
(-0.000244119 3.50625e-05 0)
(-0.000244398 3.54767e-05 0)
(-0.000244683 3.58825e-05 0)
(-0.000244977 3.62792e-05 0)
(-0.00024528 3.66661e-05 0)
(-0.000245594 3.70425e-05 0)
(-0.000245918 3.74071e-05 0)
(-0.000246253 3.7758e-05 0)
(-0.000246599 3.80933e-05 0)
(-0.000246958 3.84115e-05 0)
(-0.000247335 3.87134e-05 0)
(-0.000247733 3.90015e-05 0)
(-0.00024815 3.92791e-05 0)
(-0.00024858 3.95495e-05 0)
(-0.000249029 3.98166e-05 0)
(-0.00024952 4.00861e-05 0)
(-0.000250075 4.03613e-05 0)
(-0.000250655 4.06273e-05 0)
(-0.000251165 4.08291e-05 0)
(-0.000251809 4.09438e-05 0)
(-0.000252725 4.09655e-05 0)
(-0.000253913 4.17812e-05 0)
(-0.000255428 2.7177e-05 0)
(-0.000244481 0.000106743 0)
(0.00260647 -0.00019654 0)
(0.066406 -0.00181568 0)
(0.130118 -0.00159867 0)
(0.186353 -0.00159535 0)
(0.237216 -0.00152151 0)
(0.28415 -0.00143054 0)
(0.328087 -0.00133357 0)
(0.369677 -0.0012362 0)
(0.409388 -0.00114111 0)
(0.447565 -0.00104973 0)
(0.484474 -0.000962703 0)
(0.520319 -0.000880217 0)
(0.555262 -0.000802199 0)
(0.589429 -0.000728444 0)
(0.622922 -0.000658672 0)
(0.655823 -0.000592557 0)
(0.688197 -0.000529781 0)
(0.720094 -0.000470028 0)
(0.751553 -0.000412991 0)
(0.7826 -0.000358482 0)
(0.813247 -0.000306459 0)
(0.843493 -0.000256705 0)
(0.873315 -0.000208231 0)
(0.902656 -0.000159596 0)
(0.931394 -0.000111351 0)
(0.959292 -6.81213e-05 0)
(0.985892 -3.58101e-05 0)
(1.00896 -1.66462e-05 0)
(1.01913 -8.8696e-06 0)
(1.02258 -4.99376e-06 0)
(1.02516 -3.27126e-06 0)
(1.02746 -2.09718e-06 0)
(1.02955 -1.72999e-06 0)
(1.03144 -1.19545e-06 0)
(1.03316 -1.11965e-06 0)
(1.03474 -7.75361e-07 0)
(1.03618 -7.89874e-07 0)
(1.0375 -5.32879e-07 0)
(1.03872 -5.83539e-07 0)
(1.03983 -3.76671e-07 0)
(1.04085 -4.46344e-07 0)
(1.04179 -2.73001e-07 0)
(1.04266 -3.4742e-07 0)
(1.04346 -1.9941e-07 0)
(1.04419 -2.76217e-07 0)
(1.04486 -1.48001e-07 0)
(1.04548 -2.22106e-07 0)
(1.04606 -1.08292e-07 0)
(1.04658 -1.80676e-07 0)
(1.04707 -8.03468e-08 0)
(1.04752 -1.49762e-07 0)
(1.04793 -5.77783e-08 0)
(1.04831 -1.2366e-07 0)
(1.04866 -3.97876e-08 0)
(1.04899 -1.07401e-07 0)
(1.04929 -2.36109e-08 0)
(1.04958 -9.55182e-08 0)
(1.04985 -6.08032e-09 0)
(1.0501 -8.66941e-08 0)
(1.05033 6.103e-09 0)
(1.05055 -8.15242e-08 0)
(1.05075 1.85887e-08 0)
(1.05094 -7.62573e-08 0)
(1.05112 2.7591e-08 0)
(1.05128 -7.34794e-08 0)
(1.05142 3.61471e-08 0)
(1.05156 -7.12753e-08 0)
(1.05169 4.22454e-08 0)
(1.0518 -6.95559e-08 0)
(1.05191 4.82345e-08 0)
(1.052 -6.86848e-08 0)
(1.05209 5.21754e-08 0)
(1.05217 -6.79417e-08 0)
(1.05224 5.61653e-08 0)
(1.0523 -6.77752e-08 0)
(1.05236 5.90767e-08 0)
(1.05242 -6.7665e-08 0)
(1.05246 6.15167e-08 0)
(1.05251 -6.79286e-08 0)
(1.05254 6.37697e-08 0)
(1.05258 -6.84297e-08 0)
(1.05261 6.55862e-08 0)
(1.05263 -6.90238e-08 0)
(1.05266 6.73224e-08 0)
(1.05268 -6.99234e-08 0)
(1.05269 6.89879e-08 0)
(1.05271 -7.0949e-08 0)
(1.05272 7.05936e-08 0)
(1.05274 -7.21472e-08 0)
(1.05275 7.2209e-08 0)
(1.05275 -7.34932e-08 0)
(1.05276 7.38215e-08 0)
(1.05277 -7.49663e-08 0)
(1.05277 7.5374e-08 0)
(1.05278 -7.65616e-08 0)
(1.05278 7.76188e-08 0)
(1.05279 -7.83084e-08 0)
(1.05279 7.89601e-08 0)
(1.05279 -7.9551e-08 0)
(1.05279 8.01052e-08 0)
(1.0528 -8.06034e-08 0)
(1.0528 8.10676e-08 0)
(1.0528 -8.14811e-08 0)
(1.0528 8.1864e-08 0)
(1.0528 -8.22019e-08 0)
(1.0528 8.2513e-08 0)
(1.0528 -8.27849e-08 0)
(1.0528 8.30339e-08 0)
(1.0528 -8.32495e-08 0)
(1.0528 8.34462e-08 0)
(1.0528 -8.3615e-08 0)
(1.0528 8.37686e-08 0)
(1.0528 -8.38996e-08 0)
(1.0528 8.4019e-08 0)
(1.0528 -8.41207e-08 0)
(1.0528 8.42138e-08 0)
(1.0528 -8.42939e-08 0)
(1.0528 8.43683e-08 0)
(1.0528 -8.44336e-08 0)
(1.0528 8.44957e-08 0)
(1.0528 -8.45523e-08 0)
(1.0528 8.46079e-08 0)
(1.0528 -8.46611e-08 0)
(1.0528 8.47151e-08 0)
(1.0528 -8.47693e-08 0)
(1.0528 8.48259e-08 0)
(1.0528 -8.48848e-08 0)
(1.0528 8.49474e-08 0)
(1.0528 -8.50143e-08 0)
(1.0528 8.50858e-08 0)
(1.0528 -8.51631e-08 0)
(1.0528 8.5246e-08 0)
(1.0528 -8.53358e-08 0)
(1.0528 8.5432e-08 0)
(1.0528 -8.55362e-08 0)
(1.0528 8.56473e-08 0)
(1.0528 -8.57675e-08 0)
(1.0528 8.58952e-08 0)
(1.0528 -8.60327e-08 0)
(1.0528 8.61783e-08 0)
(1.0528 -8.63345e-08 0)
(1.0528 8.64995e-08 0)
(1.0528 -8.66757e-08 0)
(1.0528 8.68616e-08 0)
(1.0528 -8.70594e-08 0)
(1.0528 8.72679e-08 0)
(1.0528 -8.74888e-08 0)
(1.0528 8.77216e-08 0)
(1.0528 -8.79677e-08 0)
(1.0528 8.82268e-08 0)
(1.0528 -8.85002e-08 0)
(1.0528 8.87877e-08 0)
(1.0528 -8.90908e-08 0)
(1.0528 8.94095e-08 0)
(1.0528 -8.97451e-08 0)
(1.0528 9.00977e-08 0)
(1.0528 -9.04688e-08 0)
(1.0528 9.08586e-08 0)
(1.0528 -9.12686e-08 0)
(1.0528 9.16991e-08 0)
(1.0528 -9.21518e-08 0)
(1.0528 9.2627e-08 0)
(1.0528 -9.31264e-08 0)
(1.0528 8.20767e-08 0)
(1.0528 -8.07407e-08 0)
(1.0528 7.94211e-08 0)
(1.0528 -7.81191e-08 0)
(1.0528 7.68348e-08 0)
(1.0528 -7.55693e-08 0)
(1.0528 7.43229e-08 0)
(1.0528 -7.30966e-08 0)
(1.0528 7.18905e-08 0)
(1.0528 -7.07057e-08 0)
(1.0528 6.95423e-08 0)
(1.0528 -6.84012e-08 0)
(1.0528 6.72828e-08 0)
(1.0528 -6.61877e-08 0)
(1.0528 6.51164e-08 0)
(1.0528 -6.40692e-08 0)
(1.0528 6.3047e-08 0)
(1.0528 -6.20499e-08 0)
(1.0528 6.10785e-08 0)
(1.0528 -6.01331e-08 0)
(1.0528 5.92147e-08 0)
(1.0528 -5.83227e-08 0)
(1.0528 5.74587e-08 0)
(1.0528 -5.66217e-08 0)
(1.0528 5.58137e-08 0)
(1.0528 -5.50333e-08 0)
(1.0528 5.42826e-08 0)
(1.0528 -5.35601e-08 0)
(1.0528 5.28682e-08 0)
(1.0528 -5.22048e-08 0)
(1.0528 5.15728e-08 0)
(1.0528 -5.09699e-08 0)
(1.0528 5.03988e-08 0)
(1.0528 -4.98574e-08 0)
(1.0528 4.93479e-08 0)
(1.0528 -4.88581e-08 0)
(1.0528 4.83854e-08 0)
(1.0528 -4.7929e-08 0)
(1.0528 4.74904e-08 0)
(1.0528 -4.70701e-08 0)
(1.0528 4.66689e-08 0)
(1.0528 -4.62884e-08 0)
(1.0528 4.59287e-08 0)
(1.0528 -4.55929e-08 0)
(1.0528 4.52802e-08 0)
(1.0528 -4.49962e-08 0)
(1.0528 4.47401e-08 0)
(1.0528 -4.45197e-08 0)
(1.0528 4.43377e-08 0)
(1.0528 -4.42084e-08 0)
)
;

boundaryField
{
    inandouthalf11
    {
        type            cyclic;
    }
    inandouthalf12
    {
        type            cyclic;
    }
    inandouthalf21
    {
        type            cyclic;
    }
    inandouthalf22
    {
        type            cyclic;
    }
    inandouthalf31
    {
        type            cyclic;
    }
    inandouthalf32
    {
        type            cyclic;
    }
    inandouthalf41
    {
        type            cyclic;
    }
    inandouthalf42
    {
        type            cyclic;
    }
    top
    {
        type            symmetryPlane;
    }
    walls
    {
        type            fixedValue;
        value           uniform (0 0 0);
    }
    frontAndBackPlanes
    {
        type            empty;
    }
}


// ************************************************************************* //
