/*--------------------------------*- C++ -*----------------------------------*\
| =========                 |                                                 |
| \\      /  F ield         | OpenFOAM: The Open Source CFD Toolbox           |
|  \\    /   O peration     | Version:  2.4.x                                 |
|   \\  /    A nd           | Web:      www.OpenFOAM.org                      |
|    \\/     M anipulation  |                                                 |
\*---------------------------------------------------------------------------*/
FoamFile
{
    version     2.0;
    format      ascii;
    class       volVectorField;
    location    "2.35";
    object      Ur;
}
// * * * * * * * * * * * * * * * * * * * * * * * * * * * * * * * * * * * * * //

dimensions      [0 1 -1 0 0 0 0];

internalField   nonuniform List<vector> 
360
(
(-0.000231063 5.40735e-14 0)
(-0.000231457 1.62305e-13 0)
(-0.000231459 2.70837e-13 0)
(-0.000231459 3.80144e-13 0)
(-0.000231459 4.89545e-13 0)
(-0.000231461 5.98982e-13 0)
(-0.000231461 7.08865e-13 0)
(-0.000231463 8.19113e-13 0)
(-0.000231463 9.29878e-13 0)
(-0.000231465 1.04102e-12 0)
(-0.000231467 1.15229e-12 0)
(-0.000231467 1.26383e-12 0)
(-0.000231469 1.37553e-12 0)
(-0.000231471 1.48782e-12 0)
(-0.000231473 1.60079e-12 0)
(-0.000231475 1.71437e-12 0)
(-0.000231477 1.8283e-12 0)
(-0.000231478 1.94248e-12 0)
(-0.00023148 2.05756e-12 0)
(-0.000231484 2.1736e-12 0)
(-0.000231486 2.28992e-12 0)
(-0.00023149 2.40686e-12 0)
(-0.000231494 2.52428e-12 0)
(-0.000231498 2.64226e-12 0)
(-0.000231502 2.76128e-12 0)
(-0.000231506 2.88079e-12 0)
(-0.00023151 3.00088e-12 0)
(-0.000231515 3.12176e-12 0)
(-0.000231521 3.24344e-12 0)
(-0.000231527 3.3658e-12 0)
(-0.000231533 3.48896e-12 0)
(-0.000231541 3.61339e-12 0)
(-0.000231547 3.73849e-12 0)
(-0.000231556 3.86434e-12 0)
(-0.000231564 3.99089e-12 0)
(-0.000231574 4.11805e-12 0)
(-0.000231583 4.24608e-12 0)
(-0.000231595 4.37515e-12 0)
(-0.000231609 4.50503e-12 0)
(-0.00023162 4.6359e-12 0)
(-0.000231636 4.76768e-12 0)
(-0.000231652 4.90017e-12 0)
(-0.000231667 5.03375e-12 0)
(-0.000231687 5.16943e-12 0)
(-0.000231706 5.31808e-12 0)
(-0.000231727 5.59913e-12 0)
(-0.000231751 7.19988e-12 0)
(-0.000231774 2.0212e-11 0)
(-0.000231801 1.14674e-10 0)
(-0.000231833 7.44578e-10 0)
(-0.000231864 4.47516e-09 0)
(-0.000231899 2.23318e-08 0)
(-0.000231935 8.99235e-08 0)
(-0.000231974 2.93634e-07 0)
(-0.000232012 7.86707e-07 0)
(-0.000232052 1.75674e-06 0)
(-0.000232089 3.32577e-06 0)
(-0.000232125 5.44317e-06 0)
(-0.000232161 7.87166e-06 0)
(-0.000232197 1.02908e-05 0)
(-0.000232238 1.24395e-05 0)
(-0.00023228 1.41877e-05 0)
(-0.000232328 1.55272e-05 0)
(-0.000232378 1.65194e-05 0)
(-0.000232431 1.72469e-05 0)
(-0.000232487 1.77863e-05 0)
(-0.000232547 1.81984e-05 0)
(-0.00023261 1.85274e-05 0)
(-0.000232676 1.88049e-05 0)
(-0.000232746 1.90534e-05 0)
(-0.000232822 1.92905e-05 0)
(-0.000232903 1.95306e-05 0)
(-0.000232986 1.97868e-05 0)
(-0.000233075 2.00718e-05 0)
(-0.000233166 2.03984e-05 0)
(-0.00023326 2.07783e-05 0)
(-0.000233354 2.12199e-05 0)
(-0.000233448 2.17265e-05 0)
(-0.000233542 2.2295e-05 0)
(-0.000233635 2.29158e-05 0)
(-0.000233728 2.35753e-05 0)
(-0.000233823 2.42595e-05 0)
(-0.000233919 2.49573e-05 0)
(-0.000234018 2.56617e-05 0)
(-0.00023412 2.63705e-05 0)
(-0.000234225 2.70848e-05 0)
(-0.000234333 2.78074e-05 0)
(-0.000234444 2.85418e-05 0)
(-0.000234556 2.92907e-05 0)
(-0.000234671 3.00556e-05 0)
(-0.000234787 3.0837e-05 0)
(-0.000234905 3.1634e-05 0)
(-0.000235025 3.24454e-05 0)
(-0.000235148 3.32696e-05 0)
(-0.000235272 3.41053e-05 0)
(-0.000235399 3.4951e-05 0)
(-0.000235529 3.58056e-05 0)
(-0.000235662 3.66678e-05 0)
(-0.000235797 3.75363e-05 0)
(-0.000235935 3.84094e-05 0)
(-0.000236076 3.92857e-05 0)
(-0.000236221 4.01633e-05 0)
(-0.000236368 4.10409e-05 0)
(-0.000236519 4.19168e-05 0)
(-0.000236673 4.27897e-05 0)
(-0.000236832 4.36584e-05 0)
(-0.000236994 4.45218e-05 0)
(-0.00023716 4.5379e-05 0)
(-0.00023733 4.62293e-05 0)
(-0.000237505 4.70721e-05 0)
(-0.000237685 4.79067e-05 0)
(-0.000237869 4.87328e-05 0)
(-0.000238059 4.95501e-05 0)
(-0.000238254 5.03584e-05 0)
(-0.000238455 5.11576e-05 0)
(-0.000238662 5.19474e-05 0)
(-0.000238874 5.2728e-05 0)
(-0.000239094 5.34991e-05 0)
(-0.000239321 5.42608e-05 0)
(-0.000239554 5.5013e-05 0)
(-0.000239796 5.57553e-05 0)
(-0.000240046 5.64876e-05 0)
(-0.000240305 5.72091e-05 0)
(-0.000240572 5.79193e-05 0)
(-0.00024085 5.86171e-05 0)
(-0.000241138 5.93016e-05 0)
(-0.000241438 5.9972e-05 0)
(-0.000241751 6.06273e-05 0)
(-0.000242077 6.12662e-05 0)
(-0.000242417 6.18867e-05 0)
(-0.000242772 6.24857e-05 0)
(-0.000243142 6.30598e-05 0)
(-0.000243529 6.36068e-05 0)
(-0.000243937 6.41276e-05 0)
(-0.000244371 6.46269e-05 0)
(-0.000244828 6.51104e-05 0)
(-0.000245304 6.55833e-05 0)
(-0.000245805 6.60527e-05 0)
(-0.000246359 6.65298e-05 0)
(-0.00024699 6.70221e-05 0)
(-0.000247655 6.75035e-05 0)
(-0.000248248 6.78839e-05 0)
(-0.000248957 6.8118e-05 0)
(-0.000249914 6.82048e-05 0)
(-0.000251118 6.90432e-05 0)
(-0.000252635 5.44405e-05 0)
(-0.000241689 0.000134005 0)
(0.00260925 -0.000169284 0)
(0.00914111 -0.00629827 0)
(0.00937898 -0.00702911 0)
(0.00935314 -0.00866943 0)
(0.00893103 -0.00990894 0)
(0.00845053 -0.0110588 0)
(0.007963 -0.0121298 0)
(0.00747939 -0.013148 0)
(0.00700925 -0.014131 0)
(0.00656548 -0.0150912 0)
(0.0061662 -0.0160372 0)
(0.00583663 -0.0169754 0)
(0.00561043 -0.017911 0)
(0.00553276 -0.0188484 0)
(0.00566488 -0.019792 0)
(0.00609029 -0.0207453 0)
(0.00691995 -0.0217125 0)
(0.00829927 -0.0226977 0)
(0.0104173 -0.0237036 0)
(0.0135152 -0.0247341 0)
(0.0178949 -0.0258021 0)
(0.0239265 -0.0269321 0)
(0.032045 -0.0281121 0)
(0.0427026 -0.0291796 0)
(0.0562071 -0.029808 0)
(0.0724294 -0.0297752 0)
(0.0905204 -0.0292371 0)
(0.107498 -0.0285716 0)
(0.113195 -0.0279754 0)
(0.113088 -0.0274575 0)
(0.112646 -0.0270016 0)
(0.112259 -0.0265967 0)
(0.111899 -0.0262364 0)
(0.111541 -0.0259132 0)
(0.111182 -0.0256223 0)
(0.110809 -0.0253578 0)
(0.110425 -0.0251165 0)
(0.110023 -0.0248941 0)
(0.109607 -0.0246888 0)
(0.109171 -0.024497 0)
(0.10872 -0.0243178 0)
(0.108253 -0.0241491 0)
(0.107771 -0.0239896 0)
(0.107274 -0.0238377 0)
(0.106763 -0.0236929 0)
(0.106243 -0.0235542 0)
(0.105713 -0.0234209 0)
(0.105172 -0.0232917 0)
(0.104623 -0.0231663 0)
(0.104071 -0.0230444 0)
(0.103517 -0.0229261 0)
(0.102961 -0.0228102 0)
(0.1024 -0.0226956 0)
(0.101838 -0.0225821 0)
(0.101277 -0.0224695 0)
(0.100718 -0.0223573 0)
(0.100151 -0.0222444 0)
(0.0995627 -0.0221278 0)
(0.0989586 -0.0220083 0)
(0.0983561 -0.0218885 0)
(0.0977566 -0.0217693 0)
(0.0971375 -0.0216462 0)
(0.0964939 -0.0215177 0)
(0.0958494 -0.0213879 0)
(0.0952054 -0.0212579 0)
(0.0945398 -0.0211223 0)
(0.0938603 -0.0209824 0)
(0.0931855 -0.0208419 0)
(0.0924999 -0.0206982 0)
(0.0917842 -0.0205457 0)
(0.0910603 -0.0203892 0)
(0.0903481 -0.0202331 0)
(0.0896215 -0.0200719 0)
(0.0888638 -0.0198999 0)
(0.088101 -0.019724 0)
(0.0873323 -0.0195436 0)
(0.0865408 -0.0193537 0)
(0.0857438 -0.0191583 0)
(0.0849368 -0.018957 0)
(0.0840984 -0.0187419 0)
(0.0832513 -0.0185193 0)
(0.082404 -0.018292 0)
(0.0815254 -0.0180495 0)
(0.0806315 -0.0177951 0)
(0.079741 -0.0175361 0)
(0.0788269 -0.0172612 0)
(0.0778989 -0.0169732 0)
(0.0769668 -0.0166746 0)
(0.0760313 -0.0163643 0)
(0.075101 -0.0160441 0)
(0.0741824 -0.0157143 0)
(0.0733136 -0.0153876 0)
(0.0725377 -0.0150805 0)
(0.0718884 -0.0148099 0)
(0.0711941 -0.014509 0)
(-0.00434036 0.0394957 0)
(-0.00434049 0.0394955 0)
(-0.00434035 0.0394956 0)
(-0.00434026 0.0394955 0)
(-0.00434017 0.0394956 0)
(-0.0043401 0.0394955 0)
(-0.00434004 0.0394956 0)
(-0.00434 0.0394955 0)
(-0.00433996 0.0394956 0)
(-0.00433993 0.0394955 0)
(-0.0043399 0.0394956 0)
(-0.00433988 0.0394955 0)
(-0.00433986 0.0394956 0)
(-0.00433985 0.0394955 0)
(-0.00433984 0.0394956 0)
(-0.00433983 0.0394955 0)
(-0.00433982 0.0394956 0)
(-0.00433982 0.0394955 0)
(-0.00433982 0.0394956 0)
(-0.00433982 0.0394955 0)
(-0.00433981 0.0394956 0)
(-0.00433981 0.0394955 0)
(-0.00433981 0.0394956 0)
(-0.00433981 0.0394955 0)
(-0.0043398 0.0394956 0)
(-0.00433981 0.0394955 0)
(-0.0043398 0.0394956 0)
(-0.00433981 0.0394955 0)
(-0.0043398 0.0394956 0)
(-0.00433981 0.0394955 0)
(-0.0043398 0.0394956 0)
(-0.00433981 0.0394955 0)
(-0.0043398 0.0394956 0)
(-0.00433981 0.0394955 0)
(-0.0043398 0.0394956 0)
(-0.00433981 0.0394955 0)
(-0.0043398 0.0394956 0)
(-0.00433981 0.0394955 0)
(-0.0043398 0.0394956 0)
(-0.00433981 0.0394955 0)
(-0.0043398 0.0394956 0)
(-0.00433981 0.0394955 0)
(-0.0043398 0.0394956 0)
(-0.00433981 0.0394955 0)
(-0.0043398 0.0394956 0)
(-0.00433981 0.0394955 0)
(-0.0043398 0.0394956 0)
(-0.00433981 0.0394955 0)
(-0.0043398 0.0394956 0)
(-0.00433981 0.0394955 0)
(-0.0043398 0.0394956 0)
(-0.00433981 0.0394955 0)
(-0.0043398 0.0394956 0)
(-0.00433981 0.0394955 0)
(-0.0043398 0.0394956 0)
(-0.00433981 0.0394955 0)
(-0.0043398 0.0394957 0)
(-0.00433981 0.0394955 0)
(-0.0043398 0.0394957 0)
(-0.00433981 0.0394955 0)
(-0.0043398 0.0394957 0)
(-0.00433981 0.0394955 0)
(-0.0043398 0.0394957 0)
(-0.00433981 0.0394955 0)
(-0.0043398 0.0394957 0)
(-0.00433981 0.0394955 0)
(-0.0043398 0.0394957 0)
(-0.00433981 0.0394955 0)
(-0.0043398 0.0394956 0)
(-0.00433981 0.0394955 0)
(-0.0043398 0.0394956 0)
(-0.00433981 0.0394955 0)
(-0.0043398 0.0394956 0)
(-0.00433981 0.0394955 0)
(-0.0043398 0.0394956 0)
(-0.00433981 0.0394955 0)
(-0.0043398 0.0394956 0)
(-0.00433981 0.0394955 0)
(-0.0043398 0.0394956 0)
(-0.00433981 0.0394955 0)
(-0.0043398 0.0394956 0)
(-0.00433981 0.0394955 0)
(-0.0043398 0.0394956 0)
(-0.00433981 0.0394955 0)
(-0.0043398 0.0394956 0)
(-0.00433981 0.0394955 0)
(-0.0043398 0.0394956 0)
(-0.00433981 0.0394955 0)
(-0.0043398 0.0394956 0)
(-0.0043398 0.0394955 0)
(-0.0043398 0.0394956 0)
(-0.0043398 0.0394955 0)
(-0.0043398 0.0394956 0)
(-0.0043398 0.0394955 0)
(-0.0043398 0.0394956 0)
(-0.0043398 0.0394955 0)
(-0.0043398 0.0394956 0)
(-0.0043398 0.0394955 0)
(-0.0043398 0.0394956 0)
(-0.0043398 0.0394955 0)
(-0.0043398 0.0394956 0)
(-0.0043398 0.0394955 0)
(-0.0043398 0.0394956 0)
(-0.0043398 0.0394955 0)
(-0.0043398 0.0394956 0)
(-0.0043398 0.0394955 0)
(-0.0043398 0.0394956 0)
(-0.0043398 0.0394955 0)
(-0.0043398 0.0394956 0)
(-0.0043398 0.0394955 0)
(-0.0043398 0.0394956 0)
(-0.0043398 0.0394955 0)
(-0.0043398 0.0394956 0)
(-0.00433981 0.0394955 0)
(-0.00433985 0.0394954 0)
(-0.00434105 0.0394868 0)
(-0.00437039 0.0391411 0)
(-0.00505173 0.0223936 0)
)
;

boundaryField
{
    inandouthalf11
    {
        type            cyclic;
    }
    inandouthalf12
    {
        type            cyclic;
    }
    inandouthalf21
    {
        type            cyclic;
    }
    inandouthalf22
    {
        type            cyclic;
    }
    inandouthalf31
    {
        type            cyclic;
    }
    inandouthalf32
    {
        type            cyclic;
    }
    inandouthalf41
    {
        type            cyclic;
    }
    inandouthalf42
    {
        type            cyclic;
    }
    top
    {
        type            symmetryPlane;
    }
    walls
    {
        type            calculated;
        value           uniform (0 0 0);
    }
    frontAndBackPlanes
    {
        type            empty;
    }
}


// ************************************************************************* //
