/*--------------------------------*- C++ -*----------------------------------*\
| =========                 |                                                 |
| \\      /  F ield         | OpenFOAM: The Open Source CFD Toolbox           |
|  \\    /   O peration     | Version:  2.4.x                                 |
|   \\  /    A nd           | Web:      www.OpenFOAM.org                      |
|    \\/     M anipulation  |                                                 |
\*---------------------------------------------------------------------------*/
FoamFile
{
    version     2.0;
    format      ascii;
    class       volScalarField;
    location    "10.85";
    object      alpha_0;
}
// * * * * * * * * * * * * * * * * * * * * * * * * * * * * * * * * * * * * * //

dimensions      [0 0 0 0 0 0 0];

internalField   nonuniform List<scalar> 
360
(
0.61089
0.611757
0.611846
0.611756
0.611714
0.611701
0.611684
0.611662
0.611639
0.611616
0.611593
0.61157
0.611547
0.611524
0.6115
0.611477
0.611452
0.611428
0.611404
0.611379
0.611354
0.611329
0.611303
0.611278
0.611251
0.611225
0.611199
0.611172
0.611145
0.611117
0.611089
0.611061
0.611033
0.611004
0.610975
0.610946
0.610917
0.610887
0.610856
0.610826
0.610795
0.610763
0.610732
0.6107
0.610668
0.610635
0.610601
0.610568
0.610534
0.6105
0.610465
0.61043
0.610394
0.610358
0.610322
0.610285
0.610248
0.61021
0.610172
0.610133
0.610093
0.610054
0.610013
0.609973
0.609931
0.609889
0.609847
0.609804
0.60976
0.609716
0.609671
0.609625
0.609579
0.609532
0.609485
0.609436
0.609387
0.609337
0.609287
0.609236
0.609183
0.609131
0.609077
0.609022
0.608966
0.60891
0.608852
0.608794
0.608734
0.608674
0.608612
0.608549
0.608485
0.60842
0.608354
0.608286
0.608217
0.608147
0.608075
0.608001
0.607926
0.60785
0.607772
0.607692
0.60761
0.607527
0.607441
0.607354
0.607264
0.607172
0.607078
0.606982
0.606883
0.606781
0.606677
0.60657
0.60646
0.606347
0.60623
0.606111
0.605987
0.60586
0.605728
0.605592
0.605452
0.605307
0.605156
0.605
0.604838
0.604669
0.604494
0.604311
0.604121
0.60392
0.603706
0.60348
0.603241
0.602985
0.602702
0.602378
0.602028
0.601621
0.598777
0.5992
0.598683
0.59783
0.597018
0.59612
0.593431
0.405919
0.17325
0.0951613
0.0537267
0.0298378
0.0170382
0.010665
0.00743238
0.00566318
0.00458196
0.00385866
0.00334228
0.00295438
0.002651
0.002406
0.00220295
0.00203105
0.00188297
0.00175351
0.00163894
0.00153649
0.00144405
0.00136001
0.00128311
0.00121233
0.00114688
0.00108609
0.00102941
0.000976399
0.00092667
0.0008799
0.000835814
0.000794174
0.000754773
0.000717431
0.000681988
0.000648304
0.000616253
0.000585723
0.00055661
0.000528825
0.000502281
0.000476902
0.000452617
0.000429361
0.000407074
0.000385703
0.000365196
0.000345511
0.000326611
0.000308461
0.000291038
0.000274152
0.000257654
0.000241569
0.000225933
0.00021078
0.000196148
0.000182072
0.000168583
0.000155703
0.000143446
0.000131813
0.000120795
0.000110374
0.000100526
9.12245e-05
8.24452e-05
7.41727e-05
6.6402e-05
5.91389e-05
5.23956e-05
4.61849e-05
4.05134e-05
3.53767e-05
3.07583e-05
2.6631e-05
2.29605e-05
1.97031e-05
1.68382e-05
1.42884e-05
1.21014e-05
1.01166e-05
8.51171e-06
6.9595e-06
5.8703e-06
4.75065e-06
3.80588e-06
3.13315e-06
2.42286e-06
1.83289e-06
1.36341e-06
9.93076e-07
7.08215e-07
4.93232e-07
3.35575e-07
2.20709e-07
1.43048e-07
8.56756e-08
5.33342e-08
2.56208e-08
1.53732e-08
2.08522e-09
1.40755e-26
0
1.45101e-51
1.53669e-57
3.40854e-59
2.56927e-62
6.51997e-64
4.61544e-65
2.35325e-65
1.19905e-65
5.95053e-66
2.92573e-66
1.41557e-66
6.73661e-67
3.15174e-67
1.44887e-67
6.54088e-68
2.89815e-68
1.25956e-68
5.36593e-69
2.23928e-69
9.14734e-70
3.6549e-70
1.4272e-70
5.44072e-71
2.02343e-71
7.33527e-72
2.58942e-72
8.89158e-73
2.96648e-73
9.60399e-74
3.01322e-74
9.14862e-75
2.68379e-75
7.59413e-76
2.06893e-76
5.41602e-77
1.35933e-77
3.26307e-78
7.47165e-79
1.62703e-79
3.35817e-80
6.5448e-81
1.19924e-81
2.05583e-82
3.2783e-83
4.83036e-84
6.52391e-85
7.99912e-86
8.79853e-87
8.55208e-88
7.20261e-89
5.11742e-90
2.95134e-91
1.30063e-92
3.92858e-94
6.28863e-96
7.67779e-99
2.0015e-105
1.24364e-107
3.82319e-110
1.59873e-120
3.42069e-131
5.50273e-142
6.4598e-153
6.62173e-164
5.26354e-175
3.59106e-186
6.31844e-197
2.65645e-207
1.47864e-215
7.51451e-226
5.08499e-234
3.05913e-244
1.75084e-252
1.29265e-262
6.0382e-271
8.30859e-281
2.14235e-289
5.52253e-299
7.92541e-308
2.70065e-317
6.54143e-321
7.83094e-321
2.51973e-321
8.86848e-321
4.57737e-319
2.8055e-319
6.80328e-321
7.09478e-321
6.08689e-321
8.5424e-321
0
0
0
0
0
0
0
0
0
0
0
0
0
0
0
0
)
;

boundaryField
{
    inandouthalf11
    {
        type            cyclic;
    }
    inandouthalf12
    {
        type            cyclic;
    }
    inandouthalf21
    {
        type            cyclic;
    }
    inandouthalf22
    {
        type            cyclic;
    }
    inandouthalf31
    {
        type            cyclic;
    }
    inandouthalf32
    {
        type            cyclic;
    }
    inandouthalf41
    {
        type            cyclic;
    }
    inandouthalf42
    {
        type            cyclic;
    }
    top
    {
        type            symmetryPlane;
    }
    walls
    {
        type            zeroGradient;
    }
    frontAndBackPlanes
    {
        type            empty;
    }
}


// ************************************************************************* //
