/*--------------------------------*- C++ -*----------------------------------*\
| =========                 |                                                 |
| \\      /  F ield         | OpenFOAM: The Open Source CFD Toolbox           |
|  \\    /   O peration     | Version:  2.4.x                                 |
|   \\  /    A nd           | Web:      www.OpenFOAM.org                      |
|    \\/     M anipulation  |                                                 |
\*---------------------------------------------------------------------------*/
FoamFile
{
    version     2.0;
    format      ascii;
    class       volScalarField;
    location    "10.85";
    object      ddt0(alpha);
}
// * * * * * * * * * * * * * * * * * * * * * * * * * * * * * * * * * * * * * //

dimensions      [0 0 -1 0 0 0 0];

internalField   nonuniform List<scalar> 
360
(
6.72564e-06
1.00427e-05
9.30158e-06
8.90446e-06
9.04523e-06
9.08821e-06
8.95505e-06
8.7626e-06
8.56281e-06
8.36643e-06
8.16857e-06
7.9658e-06
7.76313e-06
7.56387e-06
7.37307e-06
7.19418e-06
7.02865e-06
6.87698e-06
6.73981e-06
6.61904e-06
6.51184e-06
6.4211e-06
6.34495e-06
6.28289e-06
6.23438e-06
6.1983e-06
6.17343e-06
6.16052e-06
6.15712e-06
6.16246e-06
6.17574e-06
6.19779e-06
6.22365e-06
6.25881e-06
6.29616e-06
6.33922e-06
6.38475e-06
6.43445e-06
6.48795e-06
6.53961e-06
6.59698e-06
6.65381e-06
6.70933e-06
6.76905e-06
6.82657e-06
6.88475e-06
6.94292e-06
6.99672e-06
7.05238e-06
7.10961e-06
7.16081e-06
7.21346e-06
7.26294e-06
7.31273e-06
7.35749e-06
7.4051e-06
7.44585e-06
7.4879e-06
7.52576e-06
7.55881e-06
7.59552e-06
7.62555e-06
7.65733e-06
7.68415e-06
7.70922e-06
7.73038e-06
7.75033e-06
7.76724e-06
7.78033e-06
7.7887e-06
7.79867e-06
7.80698e-06
7.80758e-06
7.81025e-06
7.80871e-06
7.80687e-06
7.79843e-06
7.78704e-06
7.77292e-06
7.75622e-06
7.73548e-06
7.71322e-06
7.68921e-06
7.66295e-06
7.63468e-06
7.60348e-06
7.56959e-06
7.53177e-06
7.49026e-06
7.44559e-06
7.39795e-06
7.34768e-06
7.29557e-06
7.24164e-06
7.18585e-06
7.12805e-06
7.06807e-06
7.00583e-06
6.94149e-06
6.87555e-06
6.80863e-06
6.74159e-06
6.67545e-06
6.61119e-06
6.54982e-06
6.49227e-06
6.43938e-06
6.39175e-06
6.34968e-06
6.31296e-06
6.2808e-06
6.2517e-06
6.22344e-06
6.19316e-06
6.15767e-06
6.11379e-06
6.05911e-06
5.99273e-06
5.91615e-06
5.83413e-06
5.75533e-06
5.69268e-06
5.66358e-06
5.68997e-06
5.79856e-06
6.02122e-06
6.395e-06
6.96023e-06
7.75374e-06
8.79268e-06
1.00461e-05
1.13977e-05
1.26103e-05
1.33074e-05
1.30024e-05
1.12883e-05
8.2556e-06
4.73672e-06
1.8456e-06
1.89081e-07
-4.39496e-07
-7.67804e-06
6.65241e-05
9.48768e-05
0.000117561
0.000171949
0.000317826
0.000292163
-0.00561541
-0.492568
0.043759
0.170175
0.163484
0.113183
0.0603345
0.0270444
0.00996023
0.00228381
-0.00110387
-0.00271301
-0.00349159
-0.00384437
-0.00397008
-0.00397027
-0.00389947
-0.00378849
-0.00365529
-0.00351064
-0.00336112
-0.00321079
-0.00306218
-0.00291685
-0.00277573
-0.00263935
-0.00250801
-0.00238181
-0.00226076
-0.00214479
-0.00203378
-0.00192761
-0.00182611
-0.00172911
-0.00163645
-0.00154796
-0.00146348
-0.00138284
-0.00130589
-0.00123247
-0.00116243
-0.00109564
-0.00103194
-0.000971205
-0.000913302
-0.000858097
-0.000805463
-0.000755276
-0.000707414
-0.000661764
-0.000618223
-0.0005767
-0.000537118
-0.000499041
-0.000462145
-0.000426515
-0.000392261
-0.000359509
-0.000328391
-0.000299036
-0.000271548
-0.000245996
-0.0002224
-0.00020072
-0.000180859
-0.000162662
-0.000145936
-0.000130467
-0.00011606
-0.000102564
-8.98996e-05
-7.80572e-05
-6.70879e-05
-5.7073e-05
-4.80902e-05
-4.01814e-05
-3.33404e-05
-2.751e-05
-2.26161e-05
-1.84912e-05
-1.51379e-05
-1.22366e-05
-1.00032e-05
-7.92214e-06
-6.52396e-06
-4.96183e-06
-3.96587e-06
-3.51616e-06
-4.5814e-06
-3.35707e-06
-2.20421e-06
-1.29506e-06
-7.10026e-07
-3.08675e-07
-6.88964e-08
6.17782e-08
1.15627e-07
1.29997e-07
1.08443e-07
9.56894e-08
5.69035e-08
5.00437e-08
1.66632e-08
1.9581e-08
-2.02261e-25
0
-3.87637e-50
-7.7584e-56
-1.73843e-57
-1.23756e-60
-2.91574e-62
-8.0824e-64
-4.0568e-64
-2.05892e-64
-1.02879e-64
-5.06062e-65
-2.44966e-65
-1.16635e-65
-5.45947e-66
-2.51099e-66
-1.13416e-66
-5.02783e-67
-2.18626e-67
-9.31877e-68
-3.89092e-68
-1.59027e-68
-6.35751e-69
-2.48382e-69
-9.47345e-70
-3.5252e-70
-1.27868e-70
-4.51652e-71
-1.55181e-71
-5.18039e-72
-1.67818e-72
-5.26855e-73
-1.60063e-73
-4.69857e-74
-1.3304e-74
-3.62695e-75
-9.50112e-76
-2.3863e-76
-5.7324e-77
-1.31354e-77
-2.86251e-78
-5.91272e-79
-1.15325e-79
-2.11486e-80
-3.62846e-81
-5.79105e-82
-8.54025e-83
-1.15451e-83
-1.41692e-84
-1.56007e-85
-1.51795e-86
-1.27984e-87
-9.10391e-89
-5.25718e-90
-2.32012e-91
-7.01982e-93
-1.12626e-94
-1.39463e-97
-3.91593e-104
-2.4444e-106
-7.54939e-109
-3.13408e-119
-6.65466e-130
-1.06304e-140
-1.23767e-151
-1.25957e-162
-9.91693e-174
-6.71035e-185
-1.22317e-195
-5.19314e-206
-2.91958e-214
-1.47268e-224
-1.00405e-232
-5.99955e-243
-3.45705e-251
-2.53845e-261
-1.19226e-269
-1.63078e-279
-4.22834e-288
-1.08335e-297
-1.56284e-306
-4.10453e-316
0
0
0
0
0
0
0
0
0
0
0
0
0
0
0
0
0
0
0
0
0
0
0
0
0
0
)
;

boundaryField
{
    inandouthalf11
    {
        type            cyclic;
    }
    inandouthalf12
    {
        type            cyclic;
    }
    inandouthalf21
    {
        type            cyclic;
    }
    inandouthalf22
    {
        type            cyclic;
    }
    inandouthalf31
    {
        type            cyclic;
    }
    inandouthalf32
    {
        type            cyclic;
    }
    inandouthalf41
    {
        type            cyclic;
    }
    inandouthalf42
    {
        type            cyclic;
    }
    top
    {
        type            symmetryPlane;
    }
    walls
    {
        type            calculated;
        value           uniform 6.72564e-06;
    }
    frontAndBackPlanes
    {
        type            empty;
    }
}


// ************************************************************************* //
