/*--------------------------------*- C++ -*----------------------------------*\
| =========                 |                                                 |
| \\      /  F ield         | OpenFOAM: The Open Source CFD Toolbox           |
|  \\    /   O peration     | Version:  2.4.x                                 |
|   \\  /    A nd           | Web:      www.OpenFOAM.org                      |
|    \\/     M anipulation  |                                                 |
\*---------------------------------------------------------------------------*/
FoamFile
{
    version     2.0;
    format      ascii;
    class       volVectorField;
    location    "10.85";
    object      gradPf;
}
// * * * * * * * * * * * * * * * * * * * * * * * * * * * * * * * * * * * * * //

dimensions      [0 1 -2 0 0 0 0];

internalField   nonuniform List<vector> 
360
(
(0 72.2506 0)
(0 80.784 0)
(0 -0.0376891 0)
(0 -12.6612 0)
(-3.3441e-14 -5.23925 0)
(-3.34417e-14 -2.83783 0)
(-3.34426e-14 -3.62509 0)
(0 -4.11519 0)
(-3.34451e-14 -4.15463 0)
(0 -4.15922 0)
(-3.34476e-14 -4.14283 0)
(0 -4.12789 0)
(-3.34501e-14 -4.13172 0)
(0 -4.1366 0)
(0 -4.15254 0)
(0 -4.16879 0)
(0 -4.17499 0)
(-3.34566e-14 -4.17741 0)
(0 -4.19673 0)
(0 -4.20075 0)
(0 -4.20572 0)
(-3.3462e-14 -4.22615 0)
(0 -4.23172 0)
(0 -4.2429 0)
(0 -4.25464 0)
(-3.34677e-14 -4.25734 0)
(0 -4.27247 0)
(0 -4.2888 0)
(0 -4.29027 0)
(0 -4.29716 0)
(0 -4.31951 0)
(0 -4.31417 0)
(0 -4.33059 0)
(0 -4.34772 0)
(0 -4.34438 0)
(3.3483e-14 -4.35483 0)
(0 -4.36209 0)
(0 -4.38987 0)
(0 -4.37297 0)
(0 -4.38645 0)
(0 -4.41775 0)
(0 -4.39247 0)
(3.34947e-14 -4.41482 0)
(0 -4.43112 0)
(0 -4.42556 0)
(0 -4.45058 0)
(0 -4.43633 0)
(0 -4.43605 0)
(0 -4.48035 0)
(0 -4.46704 0)
(3.35094e-14 -4.46175 0)
(0 -4.48275 0)
(0 -4.48953 0)
(0 -4.48528 0)
(0 -4.50149 0)
(0 -4.50588 0)
(0 -4.50613 0)
(0 -4.52587 0)
(0 -4.50458 0)
(0 -4.52894 0)
(0 -4.53664 0)
(0 -4.5333 0)
(0 -4.54831 0)
(0 -4.54525 0)
(0 -4.54832 0)
(0 -4.55455 0)
(0 -4.56806 0)
(0 -4.56813 0)
(0 -4.55587 0)
(0 -4.57053 0)
(0 -4.59682 0)
(0 -4.57502 0)
(0 -4.57703 0)
(0 -4.59493 0)
(0 -4.59984 0)
(0 -4.60013 0)
(0 -4.59285 0)
(0 -4.60339 0)
(0 -4.61055 0)
(0 -4.6082 0)
(0 -4.60963 0)
(0 -4.61799 0)
(0 -4.6203 0)
(0 -4.62278 0)
(0 -4.62552 0)
(0 -4.62874 0)
(0 -4.63069 0)
(0 -4.63022 0)
(0 -4.63274 0)
(0 -4.63531 0)
(0 -4.63633 0)
(0 -4.63876 0)
(0 -4.64182 0)
(0 -4.64359 0)
(0 -4.64506 0)
(0 -4.64625 0)
(0 -4.64686 0)
(0 -4.64706 0)
(0 -4.64728 0)
(0 -4.6474 0)
(0 -4.6473 0)
(0 -4.64713 0)
(0 -4.64671 0)
(0 -4.64577 0)
(0 -4.64433 0)
(0 -4.64236 0)
(0 -4.63978 0)
(0 -4.63659 0)
(0 -4.63278 0)
(0 -4.62826 0)
(0 -4.623 0)
(0 -4.61694 0)
(0 -4.61005 0)
(0 -4.60233 0)
(0 -4.59379 0)
(0 -4.58446 0)
(0 -4.5744 0)
(0 -4.56369 0)
(0 -4.55241 0)
(0 -4.54063 0)
(0 -4.5283 0)
(0 -4.51526 0)
(0 -4.50117 0)
(0 -4.48571 0)
(0 -4.46885 0)
(0 -4.45112 0)
(0 -4.43355 0)
(0 -4.41689 0)
(0 -4.40003 0)
(0 -4.37934 0)
(0 -4.35203 0)
(0 -4.32471 0)
(0 -4.31626 0)
(0 -4.33693 0)
(0 -4.36172 0)
(0 -4.35751 0)
(0 -4.35114 0)
(0 -4.43519 0)
(0 -4.64444 0)
(0 -4.75519 0)
(0 -4.87895 0)
(0 -14.4573 0)
(0 -10.7009 0)
(0 -0.269236 0)
(0 -3.7687 0)
(0 -3.91606 0)
(0 -3.26193 0)
(0 -4.61687 0)
(0 -6.37809 0)
(0 -4.81753 0)
(0 0 0)
(0 0 0)
(0 0 0)
(0 0 0)
(0 0 0)
(0 0 0)
(0 0 0)
(0 0 0)
(0 0 0)
(0 0 0)
(0 0 0)
(0 0 0)
(0 0 0)
(0 0 0)
(0 0 0)
(0 0 0)
(0 0 0)
(0 0 0)
(0 0 0)
(0 0 0)
(0 0 0)
(0 0 0)
(0 0 0)
(0 0 0)
(0 0 0)
(0 0 0)
(0 0 0)
(0 0 0)
(0 0 0)
(0 0 0)
(0 0 0)
(0 0 0)
(0 0 0)
(0 0 0)
(0 0 0)
(0 0 0)
(0 0 0)
(0 0 0)
(0 0 0)
(0 0 0)
(0 0 0)
(0 0 0)
(0 0 0)
(0 0 0)
(0 0 0)
(0 0 0)
(0 0 0)
(0 0 0)
(0 0 0)
(0 0 0)
(0 0 0)
(0 0 0)
(0 0 0)
(0 0 0)
(0 0 0)
(0 0 0)
(0 0 0)
(0 0 0)
(0 0 0)
(0 0 0)
(0 0 0)
(0 0 0)
(0 0 0)
(0 0 0)
(0 0 0)
(0 0 0)
(0 0 0)
(0 0 0)
(0 0 0)
(0 0 0)
(0 0 0)
(0 0 0)
(0 0 0)
(0 0 0)
(0 0 0)
(0 0 0)
(0 0 0)
(0 0 0)
(0 0 0)
(0 0 0)
(0 0 0)
(0 0 0)
(0 0 0)
(0 0 0)
(0 0 0)
(0 0 0)
(0 0 0)
(0 0 0)
(0 0 0)
(0 0 0)
(0 0 0)
(0 0 0)
(0 0 0)
(0 0 0)
(0 0 0)
(0 0 0)
(0 0 0)
(0 0 0)
(0 0 0)
(0 0 0)
(0 0 0)
(0 0 0)
(0 0 0)
(0 0 0)
(0 0 0)
(0 0 0)
(0 0 0)
(0 0 0)
(0 0 0)
(0 0 0)
(0 0 0)
(0 0 0)
(0 0 0)
(0 0 0)
(0 0 0)
(0 0 0)
(0 0 0)
(0 0 0)
(0 0 0)
(0 0 0)
(0 0 0)
(0 0 0)
(0 0 0)
(0 0 0)
(0 0 0)
(0 0 0)
(0 0 0)
(0 0 0)
(0 0 0)
(0 0 0)
(0 0 0)
(0 0 0)
(0 0 0)
(0 0 0)
(0 0 0)
(0 0 0)
(0 0 0)
(0 0 0)
(0 0 0)
(0 0 0)
(0 0 0)
(0 0 0)
(0 0 0)
(0 0 0)
(0 0 0)
(0 0 0)
(0 0 0)
(0 0 0)
(0 0 0)
(0 0 0)
(0 0 0)
(0 0 0)
(0 0 0)
(0 0 0)
(0 0 0)
(0 0 0)
(0 0 0)
(0 0 0)
(0 0 0)
(0 0 0)
(0 0 0)
(0 0 0)
(0 0 0)
(0 0 0)
(0 0 0)
(0 0 0)
(0 0 0)
(0 0 0)
(0 0 0)
(0 0 0)
(0 0 0)
(0 0 0)
(0 0 0)
(0 0 0)
(0 0 0)
(0 0 0)
(0 0 0)
(0 0 0)
(0 0 0)
(0 0 0)
(0 0 0)
(0 0 0)
(0 0 0)
(0 0 0)
(0 0 0)
(0 0 0)
(0 0 0)
(0 0 0)
(0 0 0)
(0 0 0)
(0 0 0)
(0 0 0)
(0 0 0)
(0 0 0)
(0 0 0)
(0 0 0)
(0 0 0)
(0 0 0)
(0 0 0)
(0 0 0)
(0 0 0)
(0 0 0)
(0 0 0)
(0 0 0)
(0 0 0)
(0 0 0)
(0 0 0)
(0 0 0)
(0 0 0)
(0 0 0)
)
;

boundaryField
{
    inandouthalf11
    {
        type            cyclic;
    }
    inandouthalf12
    {
        type            cyclic;
    }
    inandouthalf21
    {
        type            cyclic;
    }
    inandouthalf22
    {
        type            cyclic;
    }
    inandouthalf31
    {
        type            cyclic;
    }
    inandouthalf32
    {
        type            cyclic;
    }
    inandouthalf41
    {
        type            cyclic;
    }
    inandouthalf42
    {
        type            cyclic;
    }
    top
    {
        type            symmetryPlane;
    }
    walls
    {
        type            calculated;
        value           uniform (0 0 0);
    }
    frontAndBackPlanes
    {
        type            empty;
    }
}


// ************************************************************************* //
