/*--------------------------------*- C++ -*----------------------------------*\
| =========                 |                                                 |
| \\      /  F ield         | OpenFOAM: The Open Source CFD Toolbox           |
|  \\    /   O peration     | Version:  2.4.x                                 |
|   \\  /    A nd           | Web:      www.OpenFOAM.org                      |
|    \\/     M anipulation  |                                                 |
\*---------------------------------------------------------------------------*/
FoamFile
{
    version     2.0;
    format      ascii;
    class       volVectorField;
    location    "10.85";
    object      gradPs;
}
// * * * * * * * * * * * * * * * * * * * * * * * * * * * * * * * * * * * * * //

dimensions      [0 1 -2 0 0 0 0];

internalField   nonuniform List<vector> 
360
(
(0 1.55429e-18 0)
(0 1.71312e-18 0)
(0 -1.16631e-21 0)
(0 -2.38184e-19 0)
(-2.90054e-32 -1.00038e-19 0)
(-1.4503e-32 -5.47264e-20 0)
(-1.45034e-32 -7.03288e-20 0)
(0 -8.0312e-20 0)
(-2.9009e-32 -8.16261e-20 0)
(0 -8.22755e-20 0)
(-1.45056e-32 -8.25144e-20 0)
(0 -8.27861e-20 0)
(-1.45067e-32 -8.3436e-20 0)
(0 -8.41161e-20 0)
(0 -8.50321e-20 0)
(0 -8.59687e-20 0)
(0 -8.67114e-20 0)
(-2.9019e-32 -8.73866e-20 0)
(0 -8.84305e-20 0)
(0 -8.91631e-20 0)
(0 -8.99326e-20 0)
(-2.90237e-32 -9.1045e-20 0)
(0 -9.18551e-20 0)
(0 -9.28021e-20 0)
(0 -9.37771e-20 0)
(-2.90286e-32 -9.4568e-20 0)
(0 -9.56527e-20 0)
(0 -9.67817e-20 0)
(0 -9.75939e-20 0)
(0 -9.85444e-20 0)
(0 -9.98713e-20 0)
(0 -1.00571e-19 0)
(0 -1.01805e-19 0)
(0 -1.03067e-19 0)
(0 -1.03873e-19 0)
(2.90419e-32 -1.05019e-19 0)
(0 -1.06113e-19 0)
(0 -1.07732e-19 0)
(0 -1.08269e-19 0)
(0 -1.09587e-19 0)
(0 -1.11368e-19 0)
(0 -1.11749e-19 0)
(2.90521e-32 -1.13365e-19 0)
(0 -1.14845e-19 0)
(0 -1.15794e-19 0)
(0 -1.17566e-19 0)
(0 -1.18321e-19 0)
(0 -1.19475e-19 0)
(0 -1.21863e-19 0)
(0 -1.22713e-19 0)
(1.45324e-32 -1.23815e-19 0)
(0 -1.25665e-19 0)
(0 -1.27161e-19 0)
(0 -1.28365e-19 0)
(0 -1.30199e-19 0)
(0 -1.31711e-19 0)
(0 -1.33153e-19 0)
(0 -1.35195e-19 0)
(0 -1.36047e-19 0)
(0 -1.38321e-19 0)
(0 -1.40116e-19 0)
(0 -1.41628e-19 0)
(0 -1.4374e-19 0)
(0 -1.45335e-19 0)
(0 -1.47158e-19 0)
(0 -1.49135e-19 0)
(0 -1.51399e-19 0)
(0 -1.5327e-19 0)
(0 -1.54765e-19 0)
(0 -1.5723e-19 0)
(0 -1.60158e-19 0)
(0 -1.61465e-19 0)
(0 -1.63668e-19 0)
(0 -1.66488e-19 0)
(0 -1.68924e-19 0)
(0 -1.71243e-19 0)
(0 -1.73349e-19 0)
(0 -1.76189e-19 0)
(0 -1.78981e-19 0)
(0 -1.81477e-19 0)
(0 -1.84199e-19 0)
(0 -1.87279e-19 0)
(0 -1.90205e-19 0)
(0 -1.93227e-19 0)
(0 -1.96353e-19 0)
(0 -1.99598e-19 0)
(0 -2.02889e-19 0)
(0 -2.06179e-19 0)
(0 -2.09711e-19 0)
(0 -2.1336e-19 0)
(0 -2.17061e-19 0)
(0 -2.20955e-19 0)
(0 -2.25015e-19 0)
(0 -2.29156e-19 0)
(0 -2.33431e-19 0)
(0 -2.37848e-19 0)
(0 -2.42398e-19 0)
(0 -2.47098e-19 0)
(0 -2.5198e-19 0)
(0 -2.57046e-19 0)
(0 -2.62301e-19 0)
(0 -2.67765e-19 0)
(0 -2.7344e-19 0)
(0 -2.79323e-19 0)
(0 -2.85427e-19 0)
(0 -2.91763e-19 0)
(0 -2.98342e-19 0)
(0 -3.0518e-19 0)
(0 -3.12292e-19 0)
(0 -3.1969e-19 0)
(0 -3.27391e-19 0)
(0 -3.35412e-19 0)
(0 -3.43773e-19 0)
(0 -3.52498e-19 0)
(0 -3.61614e-19 0)
(0 -3.71152e-19 0)
(0 -3.8115e-19 0)
(0 -3.9165e-19 0)
(0 -4.02702e-19 0)
(0 -4.14355e-19 0)
(0 -4.26658e-19 0)
(0 -4.39652e-19 0)
(0 -4.53366e-19 0)
(0 -4.67833e-19 0)
(0 -4.83115e-19 0)
(0 -4.99352e-19 0)
(0 -5.16736e-19 0)
(0 7.75389e-17 0)
(0 3.70458e-16 0)
(0 9.20512e-16 0)
(0 1.89e-15 0)
(0 3.69054e-15 0)
(0 6.94131e-15 0)
(0 1.27751e-14 0)
(0 2.35792e-14 0)
(0 4.46259e-14 0)
(0 8.62696e-14 0)
(0 1.62868e-13 0)
(0 2.95162e-13 0)
(0 8.0579e-13 0)
(0 7.0085e-12 0)
(0 1.0461e-10 0)
(0 1.96828e-09 0)
(0 4.44847e-08 0)
(0 1.26296e-06 0)
(0 7.52432e-05 0)
(0 0.0102124 0)
(0 0.401361 0)
(0 1.56015 0)
(0 0.762054 0)
(0 -3.68183 0)
(0 -4.24228 0)
(0 -4.14037 0)
(0 -3.57883 0)
(0 -2.85064 0)
(0 -2.07429 0)
(0 -1.45342 0)
(0 -1.03325 0)
(0 -0.772548 0)
(0 -0.6042 0)
(0 -0.489447 0)
(0 -0.409039 0)
(0 -0.351545 0)
(0 -0.309843 0)
(0 -0.279426 0)
(0 -0.257299 0)
(0 -0.241408 0)
(0 -0.230305 0)
(0 -0.222942 0)
(0 -0.21855 0)
(0 -0.216546 0)
(0 -0.216492 0)
(0 -0.218029 0)
(0 -0.220889 0)
(0 -0.224857 0)
(0 -0.229751 0)
(0 -0.235419 0)
(0 -0.241745 0)
(0 -0.248629 0)
(0 -0.255985 0)
(0 -0.263742 0)
(0 -0.271838 0)
(0 -0.280224 0)
(0 -0.288856 0)
(0 -0.297698 0)
(0 -0.306718 0)
(0 -0.315897 0)
(0 -0.325216 0)
(0 -0.334666 0)
(0 -0.34424 0)
(0 -0.353935 0)
(0 -0.363755 0)
(0 -0.373704 0)
(0 -0.383788 0)
(0 -0.394007 0)
(0 -0.404356 0)
(0 -0.414816 0)
(0 -0.42535 0)
(0 -0.435901 0)
(0 -0.446379 0)
(0 -0.456659 0)
(0 -0.466678 0)
(-2.80166e-16 -0.476363 0)
(0 -0.48551 0)
(0 -0.493873 0)
(3.19772e-16 -0.501243 0)
(0 -0.507428 0)
(-3.53083e-16 -0.512307 0)
(0 -0.515842 0)
(1.96571e-16 -0.518095 0)
(0 -0.519229 0)
(0 -0.519493 0)
(0 -0.519186 0)
(2.49688e-16 -0.518608 0)
(0 -0.517979 0)
(0 -0.517357 0)
(0 -0.516549 0)
(0 -0.515081 0)
(0 -0.51223 0)
(-1.92664e-16 -0.507167 0)
(0 -0.499142 0)
(0 -0.487664 0)
(0 -0.472612 0)
(-1.35435e-16 -0.454211 0)
(0 -0.432927 0)
(0 -0.40932 0)
(0 -0.384115 0)
(0 -0.357163 0)
(1.03543e-16 -0.329857 0)
(0 -0.300651 0)
(0 -0.271837 0)
(0 -0.241596 0)
(0 -0.212603 0)
(0 -0.184499 0)
(0 -0.155578 0)
(0 -0.175288 0)
(0 -0.103828 0)
(0 0 0)
(0 0 0)
(0 0 0)
(0 0 0)
(0 0 0)
(0 0 0)
(0 0 0)
(0 0 0)
(0 0 0)
(0 0 0)
(0 0 0)
(0 0 0)
(0 0 0)
(0 0 0)
(0 0 0)
(0 0 0)
(0 0 0)
(0 0 0)
(0 0 0)
(0 0 0)
(0 0 0)
(0 0 0)
(0 0 0)
(0 0 0)
(0 0 0)
(0 0 0)
(0 0 0)
(0 0 0)
(0 0 0)
(0 0 0)
(0 0 0)
(0 0 0)
(0 0 0)
(0 0 0)
(0 0 0)
(0 0 0)
(0 0 0)
(0 0 0)
(0 0 0)
(0 0 0)
(0 0 0)
(0 0 0)
(0 0 0)
(0 0 0)
(0 0 0)
(0 0 0)
(0 0 0)
(0 0 0)
(0 0 0)
(0 0 0)
(0 0 0)
(0 0 0)
(0 0 0)
(0 0 0)
(0 0 0)
(0 0 0)
(0 0 0)
(0 0 0)
(0 0 0)
(0 0 0)
(0 0 0)
(0 0 0)
(0 0 0)
(0 0 0)
(0 0 0)
(0 0 0)
(0 0 0)
(0 0 0)
(0 0 0)
(0 0 0)
(0 0 0)
(0 0 0)
(0 0 0)
(0 0 0)
(0 0 0)
(0 0 0)
(0 0 0)
(0 0 0)
(0 0 0)
(0 0 0)
(0 0 0)
(0 0 0)
(0 0 0)
(0 0 0)
(0 0 0)
(0 0 0)
(0 0 0)
(0 0 0)
(0 0 0)
(0 0 0)
(0 0 0)
(0 0 0)
(0 0 0)
(0 0 0)
(0 0 0)
(0 0 0)
(0 0 0)
(0 0 0)
(0 0 0)
(0 0 0)
(0 0 0)
(0 0 0)
(0 0 0)
(0 0 0)
(0 0 0)
(0 0 0)
(0 0 0)
(0 0 0)
(0 0 0)
(0 0 0)
(0 0 0)
(0 0 0)
(0 0 0)
(0 0 0)
(0 0 0)
(0 0 0)
(0 0 0)
(0 0 0)
(0 0 0)
(0 0 0)
(0 0 0)
(0 0 0)
(0 0 0)
)
;

boundaryField
{
    inandouthalf11
    {
        type            cyclic;
    }
    inandouthalf12
    {
        type            cyclic;
    }
    inandouthalf21
    {
        type            cyclic;
    }
    inandouthalf22
    {
        type            cyclic;
    }
    inandouthalf31
    {
        type            cyclic;
    }
    inandouthalf32
    {
        type            cyclic;
    }
    inandouthalf41
    {
        type            cyclic;
    }
    inandouthalf42
    {
        type            cyclic;
    }
    top
    {
        type            symmetryPlane;
    }
    walls
    {
        type            calculated;
        value           uniform (0 0 0);
    }
    frontAndBackPlanes
    {
        type            empty;
    }
}


// ************************************************************************* //
