/*--------------------------------*- C++ -*----------------------------------*\
| =========                 |                                                 |
| \\      /  F ield         | OpenFOAM: The Open Source CFD Toolbox           |
|  \\    /   O peration     | Version:  2.4.x                                 |
|   \\  /    A nd           | Web:      www.OpenFOAM.org                      |
|    \\/     M anipulation  |                                                 |
\*---------------------------------------------------------------------------*/
FoamFile
{
    version     2.0;
    format      ascii;
    class       volScalarField;
    location    "10.85";
    object      k;
}
// * * * * * * * * * * * * * * * * * * * * * * * * * * * * * * * * * * * * * //

dimensions      [0 2 -2 0 0 0 0];

internalField   nonuniform List<scalar> 
360
(
1e-20
1e-20
1e-20
1e-20
1e-20
1e-20
1e-20
1e-20
1e-20
1e-20
1e-20
1e-20
1e-20
1e-20
1e-20
1e-20
1e-20
1e-20
1e-20
1e-20
1e-20
1e-20
1e-20
1e-20
1e-20
1e-20
1e-20
1e-20
1e-20
1e-20
1e-20
1e-20
1e-20
1e-20
1e-20
1e-20
1e-20
1e-20
1e-20
1e-20
1e-20
1e-20
1e-20
1e-20
1e-20
1e-20
1e-20
1e-20
1e-20
1e-20
1e-20
1e-20
1e-20
1e-20
1e-20
1e-20
1e-20
1e-20
1e-20
1e-20
1e-20
1e-20
1e-20
1e-20
1e-20
1e-20
1e-20
1e-20
1e-20
1e-20
1e-20
1e-20
1e-20
1e-20
1e-20
1e-20
1e-20
1e-20
1e-20
1e-20
1e-20
1e-20
1e-20
1e-20
1e-20
1e-20
1e-20
1e-20
1e-20
1e-20
1e-20
1e-20
1e-20
1e-20
1e-20
1e-20
1e-20
1e-20
1e-20
1e-20
1e-20
1e-20
1e-20
1e-20
1e-20
1e-20
1e-20
1e-20
1e-20
1e-20
1e-20
1e-20
1e-20
1e-20
1e-20
1e-20
1e-20
1e-20
1e-20
1e-20
1e-20
1e-20
1e-20
1e-20
1e-20
1e-20
1e-20
1e-20
1.45577e-20
3.17303e-20
6.86277e-20
1.42918e-19
2.86095e-19
5.5266e-19
1.04164e-18
1.94995e-18
3.69129e-18
7.0818e-18
1.33995e-17
2.47287e-17
6.1849e-17
4.487e-16
6.57659e-15
1.22154e-13
2.77722e-12
7.83565e-11
2.71332e-09
1.15547e-07
6.03602e-06
0.000307566
0.00267184
0.00337681
0.00320498
0.00292467
0.00274519
0.00269107
0.00272346
0.0028038
0.00290881
0.00302633
0.00315014
0.00327692
0.00340486
0.00353285
0.0036602
0.0037864
0.00391107
0.00403387
0.00415452
0.00427279
0.00438843
0.00450123
0.00461101
0.00471758
0.00482078
0.00492049
0.00501655
0.00510887
0.00519735
0.00528191
0.00536247
0.00543898
0.00551139
0.00557969
0.00564384
0.00570383
0.00575967
0.00581136
0.00585891
0.00590236
0.00594172
0.00597704
0.00600835
0.00603571
0.00605917
0.00607877
0.00609459
0.00610668
0.00611511
0.00611995
0.00612128
0.00611914
0.00611341
0.00610397
0.00609066
0.00607335
0.00605191
0.00602618
0.00599603
0.00596132
0.0059219
0.00587763
0.00582838
0.00577402
0.00571441
0.00564943
0.00557896
0.0055029
0.00542115
0.00533361
0.00524022
0.00514091
0.00503564
0.00492439
0.00480716
0.00468397
0.0045549
0.00442003
0.00427949
0.00413347
0.00398221
0.003826
0.00366519
0.00350022
0.00333162
0.00315999
0.00298604
0.00281059
0.00263459
0.0024591
0.00228529
0.00211444
0.00194795
0.00178723
0.00163373
0.00148882
0.00135374
0.00122947
0.00111669
0.00101564
0.000926163
0.000847675
0.000779252
0.00071973
0.000667816
0.00062219
0.000581582
0.000544827
0.000510887
0.000478866
0.000448006
0.000417686
0.00038741
0.000356804
0.000325603
0.000293656
0.000260913
0.000227433
0.000193384
0.000159055
0.000124878
9.14686e-05
5.97115e-05
3.10125e-05
8.32702e-06
5.19775e-07
7.63729e-09
8.48294e-11
8.84861e-13
8.71223e-15
8.10632e-17
7.19224e-19
1.40684e-20
1e-20
1e-20
1e-20
1e-20
1e-20
1e-20
1e-20
1e-20
1e-20
1e-20
1e-20
1e-20
1e-20
1e-20
1e-20
1e-20
1e-20
1e-20
1e-20
1e-20
1e-20
1e-20
1e-20
1e-20
1e-20
1e-20
1e-20
1e-20
1e-20
1e-20
1e-20
1e-20
1e-20
1e-20
1e-20
1e-20
1e-20
1e-20
1e-20
1e-20
1e-20
1e-20
1e-20
1e-20
1e-20
1e-20
1e-20
1e-20
1e-20
1e-20
1e-20
1e-20
1e-20
1e-20
1e-20
1e-20
1e-20
1e-20
1e-20
1e-20
1e-20
1e-20
1e-20
1e-20
1e-20
1e-20
1e-20
1e-20
1e-20
1e-20
1e-20
1e-20
1e-20
1e-20
1e-20
1e-20
1e-20
)
;

boundaryField
{
    inandouthalf11
    {
        type            cyclic;
    }
    inandouthalf12
    {
        type            cyclic;
    }
    inandouthalf21
    {
        type            cyclic;
    }
    inandouthalf22
    {
        type            cyclic;
    }
    inandouthalf31
    {
        type            cyclic;
    }
    inandouthalf32
    {
        type            cyclic;
    }
    inandouthalf41
    {
        type            cyclic;
    }
    inandouthalf42
    {
        type            cyclic;
    }
    top
    {
        type            symmetryPlane;
    }
    walls
    {
        type            zeroGradient;
    }
    frontAndBackPlanes
    {
        type            empty;
    }
}


// ************************************************************************* //
