/*--------------------------------*- C++ -*----------------------------------*\
| =========                 |                                                 |
| \\      /  F ield         | OpenFOAM: The Open Source CFD Toolbox           |
|  \\    /   O peration     | Version:  2.4.x                                 |
|   \\  /    A nd           | Web:      www.OpenFOAM.org                      |
|    \\/     M anipulation  |                                                 |
\*---------------------------------------------------------------------------*/
FoamFile
{
    version     2.0;
    format      ascii;
    class       volScalarField;
    location    "10.85";
    object      k_0;
}
// * * * * * * * * * * * * * * * * * * * * * * * * * * * * * * * * * * * * * //

dimensions      [0 2 -2 0 0 0 0];

internalField   nonuniform List<scalar> 
360
(
1e-20
1e-20
1e-20
1e-20
1e-20
1e-20
1e-20
1e-20
1e-20
1e-20
1e-20
1e-20
1e-20
1e-20
1e-20
1e-20
1e-20
1e-20
1e-20
1e-20
1e-20
1e-20
1e-20
1e-20
1e-20
1e-20
1e-20
1e-20
1e-20
1e-20
1e-20
1e-20
1e-20
1e-20
1e-20
1e-20
1e-20
1e-20
1e-20
1e-20
1e-20
1e-20
1e-20
1e-20
1e-20
1e-20
1e-20
1e-20
1e-20
1e-20
1e-20
1e-20
1e-20
1e-20
1e-20
1e-20
1e-20
1e-20
1e-20
1e-20
1e-20
1e-20
1e-20
1e-20
1e-20
1e-20
1e-20
1e-20
1e-20
1e-20
1e-20
1e-20
1e-20
1e-20
1e-20
1e-20
1e-20
1e-20
1e-20
1e-20
1e-20
1e-20
1e-20
1e-20
1e-20
1e-20
1e-20
1e-20
1e-20
1e-20
1e-20
1e-20
1e-20
1e-20
1e-20
1e-20
1e-20
1e-20
1e-20
1e-20
1e-20
1e-20
1e-20
1e-20
1e-20
1e-20
1e-20
1e-20
1e-20
1e-20
1e-20
1e-20
1e-20
1e-20
1e-20
1e-20
1e-20
1e-20
1e-20
1e-20
1e-20
1e-20
1e-20
1e-20
1e-20
1e-20
1e-20
1e-20
1.45715e-20
3.17666e-20
6.8713e-20
1.43109e-19
2.86505e-19
5.53502e-19
1.04332e-18
1.9533e-18
3.69822e-18
7.09717e-18
1.34352e-17
2.48083e-17
6.19983e-17
4.48837e-16
6.57329e-15
1.2204e-13
2.77382e-12
7.82436e-11
2.70895e-09
1.15346e-07
6.02495e-06
0.000307092
0.00267014
0.00337513
0.0032033
0.00292334
0.00274438
0.00269071
0.00272342
0.00280397
0.00290913
0.00302677
0.00315066
0.00327752
0.00340552
0.00353358
0.00366098
0.00378723
0.00391194
0.00403478
0.00415548
0.00427378
0.00438945
0.00450229
0.00461209
0.00471868
0.00482191
0.00492163
0.00501772
0.00511005
0.00519854
0.0052831
0.00536366
0.00544018
0.0055126
0.00558089
0.00564504
0.00570502
0.00576085
0.00581253
0.00586008
0.00590351
0.00594286
0.00597816
0.00600946
0.0060368
0.00606024
0.00607983
0.00609562
0.00610769
0.0061161
0.00612092
0.00612222
0.00612006
0.00611431
0.00610483
0.0060915
0.00607416
0.00605269
0.00602693
0.00599675
0.005962
0.00592255
0.00587825
0.00582897
0.00577457
0.00571492
0.0056499
0.0055794
0.0055033
0.00542151
0.00533393
0.0052405
0.00514115
0.00503585
0.00492456
0.00480729
0.00468407
0.00455495
0.00442004
0.00427947
0.00413342
0.00398212
0.00382587
0.00366503
0.00350003
0.0033314
0.00315974
0.00298577
0.00281031
0.00263429
0.00245878
0.00228496
0.00211412
0.00194762
0.00178691
0.00163343
0.00148854
0.00135348
0.00122924
0.00111648
0.00101547
0.000926019
0.000847559
0.000779162
0.000719662
0.000667767
0.000622156
0.000581561
0.000544815
0.000510881
0.000478865
0.000448008
0.000417689
0.000387413
0.000356804
0.000325602
0.000293652
0.000260907
0.000227424
0.000193372
0.000159041
0.000124861
9.14508e-05
5.96933e-05
3.09953e-05
8.31616e-06
5.18447e-07
7.61345e-09
8.45578e-11
8.8197e-13
8.68323e-15
8.07886e-17
7.16769e-19
1.40495e-20
1e-20
1e-20
1e-20
1e-20
1e-20
1e-20
1e-20
1e-20
1e-20
1e-20
1e-20
1e-20
1e-20
1e-20
1e-20
1e-20
1e-20
1e-20
1e-20
1e-20
1e-20
1e-20
1e-20
1e-20
1e-20
1e-20
1e-20
1e-20
1e-20
1e-20
1e-20
1e-20
1e-20
1e-20
1e-20
1e-20
1e-20
1e-20
1e-20
1e-20
1e-20
1e-20
1e-20
1e-20
1e-20
1e-20
1e-20
1e-20
1e-20
1e-20
1e-20
1e-20
1e-20
1e-20
1e-20
1e-20
1e-20
1e-20
1e-20
1e-20
1e-20
1e-20
1e-20
1e-20
1e-20
1e-20
1e-20
1e-20
1e-20
1e-20
1e-20
1e-20
1e-20
1e-20
1e-20
1e-20
1e-20
)
;

boundaryField
{
    inandouthalf11
    {
        type            cyclic;
    }
    inandouthalf12
    {
        type            cyclic;
    }
    inandouthalf21
    {
        type            cyclic;
    }
    inandouthalf22
    {
        type            cyclic;
    }
    inandouthalf31
    {
        type            cyclic;
    }
    inandouthalf32
    {
        type            cyclic;
    }
    inandouthalf41
    {
        type            cyclic;
    }
    inandouthalf42
    {
        type            cyclic;
    }
    top
    {
        type            symmetryPlane;
    }
    walls
    {
        type            zeroGradient;
    }
    frontAndBackPlanes
    {
        type            empty;
    }
}


// ************************************************************************* //
