/*--------------------------------*- C++ -*----------------------------------*\
| =========                 |                                                 |
| \\      /  F ield         | OpenFOAM: The Open Source CFD Toolbox           |
|  \\    /   O peration     | Version:  2.4.x                                 |
|   \\  /    A nd           | Web:      www.OpenFOAM.org                      |
|    \\/     M anipulation  |                                                 |
\*---------------------------------------------------------------------------*/
FoamFile
{
    version     2.0;
    format      ascii;
    class       volVectorField;
    location    "10.85";
    object      susb;
}
// * * * * * * * * * * * * * * * * * * * * * * * * * * * * * * * * * * * * * //

dimensions      [0 1 -2 0 0 0 0];

internalField   nonuniform List<vector> 
360
(
(0 6.0218e-18 0)
(0 6.68406e-18 0)
(0 -2.77665e-21 0)
(0 -9.25109e-19 0)
(-7.40083e-31 -3.88951e-19 0)
(-3.70008e-31 -2.12616e-19 0)
(-3.69965e-31 -2.73066e-19 0)
(0 -3.11851e-19 0)
(-3.69853e-31 -3.16989e-19 0)
(0 -3.19541e-19 0)
(-3.69739e-31 -3.20495e-19 0)
(0 -3.21578e-19 0)
(-3.69623e-31 -3.24137e-19 0)
(0 -3.26819e-19 0)
(0 -3.30423e-19 0)
(0 -3.3411e-19 0)
(0 -3.37044e-19 0)
(-7.38651e-31 -3.39716e-19 0)
(0 -3.43822e-19 0)
(0 -3.46717e-19 0)
(0 -3.49756e-19 0)
(-7.38154e-31 -3.54129e-19 0)
(0 -3.57325e-19 0)
(0 -3.61054e-19 0)
(0 -3.64891e-19 0)
(-3.68818e-31 -3.68012e-19 0)
(0 -3.72276e-19 0)
(0 -3.76712e-19 0)
(0 -3.79915e-19 0)
(0 -3.83658e-19 0)
(0 -3.88865e-19 0)
(0 -3.91631e-19 0)
(0 -3.96477e-19 0)
(0 -4.01434e-19 0)
(0 -4.04615e-19 0)
(7.36243e-31 -4.09119e-19 0)
(0 -4.13426e-19 0)
(0 -4.19774e-19 0)
(0 -4.21907e-19 0)
(0 -4.27088e-19 0)
(0 -4.34071e-19 0)
(0 -4.35598e-19 0)
(3.67588e-31 -4.41943e-19 0)
(0 -4.47759e-19 0)
(0 -4.51504e-19 0)
(0 -4.5846e-19 0)
(0 -4.61449e-19 0)
(0 -4.66002e-19 0)
(0 -4.75364e-19 0)
(0 -4.78729e-19 0)
(3.66925e-31 -4.83081e-19 0)
(0 -4.9035e-19 0)
(0 -4.9624e-19 0)
(0 -5.00991e-19 0)
(0 -5.08205e-19 0)
(0 -5.14164e-19 0)
(0 -5.19852e-19 0)
(0 -5.27882e-19 0)
(0 -5.3127e-19 0)
(0 -5.40215e-19 0)
(0 -5.47287e-19 0)
(0 -5.53263e-19 0)
(0 -5.61578e-19 0)
(0 -5.67878e-19 0)
(0 -5.75074e-19 0)
(0 -5.82873e-19 0)
(0 -5.91797e-19 0)
(0 -5.99185e-19 0)
(0 -6.05106e-19 0)
(0 -6.14829e-19 0)
(0 -6.26367e-19 0)
(0 -6.31559e-19 0)
(0 -6.40269e-19 0)
(0 -6.51391e-19 0)
(0 -6.61023e-19 0)
(0 -6.70192e-19 0)
(0 -6.78532e-19 0)
(0 -6.89753e-19 0)
(0 -7.00789e-19 0)
(0 -7.10671e-19 0)
(0 -7.21447e-19 0)
(0 -7.33631e-19 0)
(0 -7.45213e-19 0)
(0 -7.57184e-19 0)
(0 -7.69562e-19 0)
(0 -7.82418e-19 0)
(0 -7.95456e-19 0)
(0 -8.08499e-19 0)
(0 -8.22497e-19 0)
(0 -8.36966e-19 0)
(0 -8.51645e-19 0)
(0 -8.67092e-19 0)
(0 -8.832e-19 0)
(0 -8.99635e-19 0)
(0 -9.16607e-19 0)
(0 -9.34147e-19 0)
(0 -9.5222e-19 0)
(0 -9.70897e-19 0)
(0 -9.90298e-19 0)
(0 -1.01044e-18 0)
(0 -1.03134e-18 0)
(0 -1.05308e-18 0)
(0 -1.07566e-18 0)
(0 -1.09908e-18 0)
(0 -1.12338e-18 0)
(0 -1.14862e-18 0)
(0 -1.17484e-18 0)
(0 -1.2021e-18 0)
(0 -1.23046e-18 0)
(0 -1.25998e-18 0)
(0 -1.29071e-18 0)
(0 -1.32273e-18 0)
(0 -1.35611e-18 0)
(0 -1.39096e-18 0)
(0 -1.42739e-18 0)
(0 -1.46552e-18 0)
(0 -1.50549e-18 0)
(0 -1.5475e-18 0)
(0 -1.59173e-18 0)
(0 -1.6384e-18 0)
(0 -1.6877e-18 0)
(0 -1.73981e-18 0)
(0 -1.79484e-18 0)
(0 -1.85295e-18 0)
(0 -1.9144e-18 0)
(0 -1.97975e-18 0)
(0 -2.0499e-18 0)
(0 -2.12577e-18 0)
(0 -3.96253e-18 0)
(0 -9.06492e-18 0)
(0 -1.9904e-17 0)
(0 -4.18931e-17 0)
(0 -8.47424e-17 0)
(0 -1.65333e-16 0)
(0 -3.11542e-16 0)
(0 -5.69787e-16 0)
(0 -1.03031e-15 0)
(0 -1.87248e-15 0)
(0 -3.26169e-15 0)
(0 -4.66205e-15 0)
(0 -7.37895e-15 0)
(0 -1.53498e-13 0)
(0 -1.31252e-12 0)
(0 -7.57355e-13 0)
(0 -1.9995e-10 0)
(0 -5.43661e-09 0)
(0 -1.52779e-07 0)
(0 -1.07452e-05 0)
(0 -0.0230641 0)
(0 -0.678944 0)
(0 -1.09994 0)
(0 -0.530682 0)
(0 -0.336321 0)
(0 -0.234479 0)
(0 -0.162964 0)
(0 -0.111077 0)
(0 -0.0770836 0)
(0 -0.056347 0)
(0 -0.0440093 0)
(0 -0.0360649 0)
(0 -0.0305199 0)
(0 -0.0264595 0)
(0 -0.0233688 0)
(0 -0.0209392 0)
(0 -0.0189807 0)
(0 -0.0173688 0)
(0 -0.0160189 0)
(0 -0.0148712 0)
(0 -0.0138824 0)
(0 -0.0130206 0)
(0 -0.0122614 0)
(0 -0.0115863 0)
(0 -0.0109805 0)
(0 -0.0104327 0)
(0 -0.00993373 0)
(0 -0.00947611 0)
(0 -0.00905388 0)
(0 -0.00866213 0)
(0 -0.00829681 0)
(0 -0.00795459 0)
(0 -0.00763269 0)
(0 -0.00732877 0)
(0 -0.00704088 0)
(0 -0.00676739 0)
(0 -0.0065069 0)
(0 -0.00625824 0)
(0 -0.00602043 0)
(0 -0.00579261 0)
(0 -0.00557407 0)
(0 -0.00536419 0)
(0 -0.00516243 0)
(0 -0.00496831 0)
(0 -0.00478136 0)
(0 -0.00460114 0)
(0 -0.00442714 0)
(0 -0.00425883 0)
(0 -0.00409555 0)
(0 -0.00393658 0)
(0 -0.00378107 0)
(0 -0.00362814 0)
(0 -0.00347684 0)
(0 -0.00332458 0)
(-2.51506e-18 -0.00316922 0)
(0 -0.00301035 0)
(0 -0.00284775 0)
(2.32804e-18 -0.00268181 0)
(0 -0.00251338 0)
(-1.09924e-18 -0.00234394 0)
(0 -0.00217546 0)
(1.03381e-18 -0.00201035 0)
(0 -0.00185126 0)
(0 -0.00170093 0)
(0 -0.001562 0)
(9.16167e-19 -0.00143665 0)
(0 -0.00132608 0)
(0 -0.00122981 0)
(0 -0.00114541 0)
(0 -0.00106912 0)
(0 -0.000997031 0)
(-4.27253e-19 -0.000926069 0)
(0 -0.00085449 0)
(0 -0.000781939 0)
(0 -0.000709187 0)
(-2.11152e-19 -0.000637628 0)
(0 -0.000568789 0)
(0 -0.000503919 0)
(0 -0.000444171 0)
(0 -0.000388817 0)
(2.02823e-19 -0.000340008 0)
(1.00092e-19 -0.00029362 0)
(0 -0.000254682 0)
(0 -0.00021559 0)
(0 -0.000185882 0)
(0 -0.000152527 0)
(0 -0.000124419 0)
(0 -0.000113553 0)
(0 -8.65759e-05 0)
(0 -4.30318e-05 0)
(0 -3.84352e-05 0)
(0 -2.96422e-05 0)
(0 -2.22452e-05 0)
(0 -1.64261e-05 0)
(0 -1.18595e-05 0)
(-2.26382e-21 -8.36659e-06 0)
(2.14663e-21 -5.80247e-06 0)
(0 -3.87313e-06 0)
(0 -2.60127e-06 0)
(-2.2749e-22 -1.62168e-06 0)
(0 -1.06351e-06 0)
(0 -6.25295e-07 0)
(-5.23798e-23 -3.90281e-07 0)
(0 -2.36839e-07 0)
(0 -4.27311e-08 0)
(0 -2.8848e-25 0)
(0 5.6893e-52 0)
(0 -2.75324e-50 0)
(0 -2.78651e-56 0)
(0 -5.9212e-58 0)
(0 -4.25151e-61 0)
(0 -9.90083e-63 0)
(0 -5.08701e-64 0)
(0 -2.4622e-64 0)
(0 -1.18706e-64 0)
(0 -5.51395e-65 0)
(0 -2.52245e-65 0)
(0 -1.12469e-65 0)
(0 -4.87557e-66 0)
(0 -2.04819e-66 0)
(0 -8.30061e-67 0)
(0 -3.22407e-67 0)
(0 -1.18806e-67 0)
(0 -4.08158e-68 0)
(0 -1.2627e-68 0)
(0 -3.22551e-69 0)
(0 -4.51265e-70 0)
(0 -1.37952e-71 0)
(0 -8.17189e-74 0)
(0 -3.41061e-76 0)
(0 -1.3029e-78 0)
(0 -4.57944e-81 0)
(0 -1.48002e-83 0)
(0 -4.00368e-86 0)
(0 -3.75132e-89 0)
(0 -6.05718e-90 0)
(0 -1.87558e-90 0)
(0 -5.61907e-91 0)
(3.06744e-107 -1.62622e-91 0)
(0 -4.53883e-92 0)
(0 -1.21944e-92 0)
(0 -3.14743e-93 0)
(0 -7.78698e-94 0)
(0 -1.84224e-94 0)
(0 -4.15637e-95 0)
(0 -8.91606e-96 0)
(0 -1.81243e-96 0)
(0 -3.47801e-97 0)
(5.98203e-114 -6.27352e-98 0)
(0 -1.0584e-98 0)
(0 -1.66059e-99 0)
(-2.20003e-116 -2.40671e-100 0)
(0 -3.19643e-101 0)
(0 -3.85292e-102 0)
(0 -4.16504e-103 0)
(0 -3.97751e-104 0)
(0 -3.29021e-105 0)
(0 -2.29529e-106 0)
(0 -1.29931e-107 0)
(0 -5.61822e-109 0)
(0 -1.66446e-110 0)
(0 -2.61235e-112 0)
(0 -3.33213e-115 0)
(0 -9.19268e-122 0)
(0 -5.71191e-124 0)
(0 -1.75592e-126 0)
(0 -7.34289e-137 0)
(0 -1.57116e-147 0)
(0 -2.52753e-158 0)
(0 -2.96723e-169 0)
(0 -3.04171e-180 0)
(0 -2.41791e-191 0)
(0 -1.64969e-202 0)
(0 -2.90219e-213 0)
(0 -1.22011e-223 0)
(0 -6.79112e-232 0)
(0 -3.4514e-242 0)
(0 -2.33545e-250 0)
(0 -1.40505e-260 0)
(0 -8.04132e-269 0)
(0 -5.93704e-279 0)
(0 -2.77324e-287 0)
(0 -3.8161e-297 0)
(0 -9.83947e-306 0)
(0 -2.53648e-315 0)
(0 -4.94066e-324 0)
(0 -0 0)
(0 0 0)
(0 0 0)
(0 0 0)
(0 0 0)
(0 0 0)
(0 0 0)
(0 0 0)
(0 0 0)
(0 0 0)
(0 0 0)
(0 0 0)
(0 0 0)
(0 0 0)
(0 0 0)
(0 0 0)
(0 0 0)
(0 0 0)
(0 0 0)
(0 0 0)
(0 0 0)
(0 0 0)
(0 0 0)
(0 0 0)
(0 0 0)
(0 0 0)
)
;

boundaryField
{
    inandouthalf11
    {
        type            cyclic;
    }
    inandouthalf12
    {
        type            cyclic;
    }
    inandouthalf21
    {
        type            cyclic;
    }
    inandouthalf22
    {
        type            cyclic;
    }
    inandouthalf31
    {
        type            cyclic;
    }
    inandouthalf32
    {
        type            cyclic;
    }
    inandouthalf41
    {
        type            cyclic;
    }
    inandouthalf42
    {
        type            cyclic;
    }
    top
    {
        type            symmetryPlane;
    }
    walls
    {
        type            zeroGradient;
    }
    frontAndBackPlanes
    {
        type            empty;
    }
}


// ************************************************************************* //
