/*--------------------------------*- C++ -*----------------------------------*\
| =========                 |                                                 |
| \\      /  F ield         | OpenFOAM: The Open Source CFD Toolbox           |
|  \\    /   O peration     | Version:  2.4.x                                 |
|   \\  /    A nd           | Web:      www.OpenFOAM.org                      |
|    \\/     M anipulation  |                                                 |
\*---------------------------------------------------------------------------*/
FoamFile
{
    version     2.0;
    format      ascii;
    class       volTensorField;
    location    "10.85";
    object      Tauf;
}
// * * * * * * * * * * * * * * * * * * * * * * * * * * * * * * * * * * * * * //

dimensions      [0 2 -2 0 0 0 0];

internalField   nonuniform List<tensor> 
360
(
(0 -4.62556e-07 0 -4.62556e-07 3.85429e-11 0 0 0 0)
(0 1.46089e-09 0 1.46089e-09 4.66478e-11 0 0 0 0)
(0 -5.13609e-12 0 -5.13609e-12 4.85616e-11 0 0 0 0)
(0 -2.61525e-10 0 -2.61525e-10 4.65529e-11 0 0 0 0)
(5.16988e-23 -1.13287e-10 0 -1.13287e-10 4.64298e-11 0 0 0 0)
(5.16988e-23 -6.43419e-11 0 -6.43419e-11 4.65552e-11 0 0 0 0)
(2.58494e-23 -8.10204e-11 0 -8.10204e-11 4.6024e-11 0 0 0 0)
(0 -9.17058e-11 0 -9.17058e-11 4.50948e-11 0 0 0 0)
(5.16988e-23 -9.30504e-11 0 -9.30504e-11 4.40734e-11 0 0 0 0)
(0 -9.36708e-11 0 -9.36708e-11 4.30512e-11 0 0 0 0)
(5.16988e-23 -9.38464e-11 0 -9.38464e-11 4.20231e-11 0 0 0 0)
(0 -9.40572e-11 0 -9.40572e-11 4.09807e-11 0 0 0 0)
(5.16988e-23 -9.46787e-11 0 -9.46787e-11 3.99367e-11 0 0 0 0)
(0 -9.53385e-11 0 -9.53385e-11 3.89122e-11 0 0 0 0)
(0 -9.62608e-11 0 -9.62608e-11 3.79293e-11 0 0 0 0)
(0 -9.72141e-11 0 -9.72141e-11 3.70052e-11 0 0 0 0)
(0 -9.79667e-11 0 -9.79667e-11 3.61486e-11 0 0 0 0)
(5.16988e-23 -9.86557e-11 0 -9.86557e-11 3.53634e-11 0 0 0 0)
(0 -9.97536e-11 0 -9.97536e-11 3.46549e-11 0 0 0 0)
(0 -1.00524e-10 0 -1.00524e-10 3.40243e-11 0 0 0 0)
(0 -1.01345e-10 0 -1.01345e-10 3.34709e-11 0 0 0 0)
(5.16988e-23 -1.02547e-10 0 -1.02547e-10 3.29965e-11 0 0 0 0)
(0 -1.03432e-10 0 -1.03432e-10 3.25985e-11 0 0 0 0)
(0 -1.04474e-10 0 -1.04474e-10 3.22731e-11 0 0 0 0)
(0 -1.05555e-10 0 -1.05555e-10 3.20168e-11 0 0 0 0)
(5.16988e-23 -1.06444e-10 0 -1.06444e-10 3.18238e-11 0 0 0 0)
(0 -1.07661e-10 0 -1.07661e-10 3.16914e-11 0 0 0 0)
(0 -1.08934e-10 0 -1.08934e-10 3.16164e-11 0 0 0 0)
(0 -1.09869e-10 0 -1.09869e-10 3.15921e-11 0 0 0 0)
(0 -1.10961e-10 0 -1.10961e-10 3.16126e-11 0 0 0 0)
(0 -1.12468e-10 0 -1.12468e-10 3.16768e-11 0 0 0 0)
(0 -1.13299e-10 0 -1.13299e-10 3.17771e-11 0 0 0 0)
(0 -1.14717e-10 0 -1.14717e-10 3.19115e-11 0 0 0 0)
(0 -1.1617e-10 0 -1.1617e-10 3.20773e-11 0 0 0 0)
(0 -1.17131e-10 0 -1.17131e-10 3.22672e-11 0 0 0 0)
(-5.16988e-23 -1.18465e-10 0 -1.18465e-10 3.24784e-11 0 0 0 0)
(0 -1.19749e-10 0 -1.19749e-10 3.27077e-11 0 0 0 0)
(0 -1.21608e-10 0 -1.21608e-10 3.29574e-11 0 0 0 0)
(0 -1.22288e-10 0 -1.22288e-10 3.3217e-11 0 0 0 0)
(0 -1.23826e-10 0 -1.23826e-10 3.34856e-11 0 0 0 0)
(0 -1.25872e-10 0 -1.25872e-10 3.3767e-11 0 0 0 0)
(0 -1.26389e-10 0 -1.26389e-10 3.40488e-11 0 0 0 0)
(-5.16988e-23 -1.28261e-10 0 -1.28261e-10 3.43351e-11 0 0 0 0)
(0 -1.29987e-10 0 -1.29987e-10 3.46265e-11 0 0 0 0)
(0 -1.31133e-10 0 -1.31133e-10 3.49168e-11 0 0 0 0)
(0 -1.33184e-10 0 -1.33184e-10 3.52089e-11 0 0 0 0)
(0 -1.34119e-10 0 -1.34119e-10 3.54931e-11 0 0 0 0)
(0 -1.35497e-10 0 -1.35497e-10 3.57684e-11 0 0 0 0)
(0 -1.38232e-10 0 -1.38232e-10 3.60481e-11 0 0 0 0)
(0 -1.39278e-10 0 -1.39278e-10 3.63221e-11 0 0 0 0)
(-5.16988e-23 -1.40604e-10 0 -1.40604e-10 3.65857e-11 0 0 0 0)
(0 -1.42753e-10 0 -1.42753e-10 3.68423e-11 0 0 0 0)
(0 -1.44516e-10 0 -1.44516e-10 3.70917e-11 0 0 0 0)
(0 -1.45959e-10 0 -1.45959e-10 3.73302e-11 0 0 0 0)
(0 -1.48099e-10 0 -1.48099e-10 3.75617e-11 0 0 0 0)
(0 -1.49886e-10 0 -1.49886e-10 3.77836e-11 0 0 0 0)
(0 -1.51599e-10 0 -1.51599e-10 3.79926e-11 0 0 0 0)
(0 -1.53975e-10 0 -1.53975e-10 3.81935e-11 0 0 0 0)
(0 -1.55039e-10 0 -1.55039e-10 3.83737e-11 0 0 0 0)
(0 -1.57677e-10 0 -1.57677e-10 3.85459e-11 0 0 0 0)
(0 -1.59789e-10 0 -1.59789e-10 3.87097e-11 0 0 0 0)
(0 -1.61592e-10 0 -1.61592e-10 3.88626e-11 0 0 0 0)
(0 -1.64061e-10 0 -1.64061e-10 3.90072e-11 0 0 0 0)
(0 -1.6596e-10 0 -1.6596e-10 3.91365e-11 0 0 0 0)
(0 -1.68115e-10 0 -1.68115e-10 3.92507e-11 0 0 0 0)
(0 -1.70445e-10 0 -1.70445e-10 3.93504e-11 0 0 0 0)
(0 -1.73097e-10 0 -1.73097e-10 3.94389e-11 0 0 0 0)
(0 -1.75315e-10 0 -1.75315e-10 3.95123e-11 0 0 0 0)
(0 -1.77117e-10 0 -1.77117e-10 3.95638e-11 0 0 0 0)
(0 -1.80005e-10 0 -1.80005e-10 3.96021e-11 0 0 0 0)
(0 -1.83416e-10 0 -1.83416e-10 3.96385e-11 0 0 0 0)
(0 -1.8502e-10 0 -1.8502e-10 3.96563e-11 0 0 0 0)
(0 -1.8763e-10 0 -1.8763e-10 3.96586e-11 0 0 0 0)
(0 -1.90934e-10 0 -1.90934e-10 3.9651e-11 0 0 0 0)
(0 -1.93818e-10 0 -1.93818e-10 3.9633e-11 0 0 0 0)
(0 -1.96572e-10 0 -1.96572e-10 3.9601e-11 0 0 0 0)
(0 -1.99093e-10 0 -1.99093e-10 3.95459e-11 0 0 0 0)
(0 -2.02444e-10 0 -2.02444e-10 3.94735e-11 0 0 0 0)
(0 -2.05747e-10 0 -2.05747e-10 3.93857e-11 0 0 0 0)
(0 -2.08724e-10 0 -2.08724e-10 3.92813e-11 0 0 0 0)
(0 -2.11963e-10 0 -2.11963e-10 3.91616e-11 0 0 0 0)
(0 -2.15613e-10 0 -2.15613e-10 3.9031e-11 0 0 0 0)
(0 -2.19098e-10 0 -2.19098e-10 3.88895e-11 0 0 0 0)
(0 -2.22701e-10 0 -2.22701e-10 3.87376e-11 0 0 0 0)
(0 -2.26429e-10 0 -2.26429e-10 3.85734e-11 0 0 0 0)
(0 -2.30303e-10 0 -2.30303e-10 3.83955e-11 0 0 0 0)
(0 -2.34236e-10 0 -2.34236e-10 3.82015e-11 0 0 0 0)
(0 -2.3818e-10 0 -2.3818e-10 3.79884e-11 0 0 0 0)
(0 -2.42407e-10 0 -2.42407e-10 3.7757e-11 0 0 0 0)
(0 -2.4678e-10 0 -2.4678e-10 3.75084e-11 0 0 0 0)
(0 -2.51224e-10 0 -2.51224e-10 3.72439e-11 0 0 0 0)
(0 -2.55901e-10 0 -2.55901e-10 3.69662e-11 0 0 0 0)
(0 -2.60782e-10 0 -2.60782e-10 3.66778e-11 0 0 0 0)
(0 -2.65771e-10 0 -2.65771e-10 3.63791e-11 0 0 0 0)
(0 -2.70929e-10 0 -2.70929e-10 3.60704e-11 0 0 0 0)
(0 -2.76266e-10 0 -2.76266e-10 3.57508e-11 0 0 0 0)
(0 -2.81773e-10 0 -2.81773e-10 3.54196e-11 0 0 0 0)
(0 -2.87471e-10 0 -2.87471e-10 3.50766e-11 0 0 0 0)
(0 -2.93397e-10 0 -2.93397e-10 3.47226e-11 0 0 0 0)
(0 -2.99558e-10 0 -2.99558e-10 3.43598e-11 0 0 0 0)
(0 -3.05959e-10 0 -3.05959e-10 3.39916e-11 0 0 0 0)
(0 -3.12627e-10 0 -3.12627e-10 3.36223e-11 0 0 0 0)
(0 -3.19565e-10 0 -3.19565e-10 3.32566e-11 0 0 0 0)
(0 -3.26773e-10 0 -3.26773e-10 3.28997e-11 0 0 0 0)
(0 -3.34269e-10 0 -3.34269e-10 3.25565e-11 0 0 0 0)
(0 -3.42068e-10 0 -3.42068e-10 3.22317e-11 0 0 0 0)
(0 -3.50186e-10 0 -3.50186e-10 3.19293e-11 0 0 0 0)
(0 -3.58644e-10 0 -3.58644e-10 3.16522e-11 0 0 0 0)
(0 -3.6746e-10 0 -3.6746e-10 3.14015e-11 0 0 0 0)
(0 -3.76655e-10 0 -3.76655e-10 3.11761e-11 0 0 0 0)
(0 -3.86249e-10 0 -3.86249e-10 3.09716e-11 0 0 0 0)
(0 -3.96265e-10 0 -3.96265e-10 3.07802e-11 0 0 0 0)
(0 -4.0673e-10 0 -4.0673e-10 3.05907e-11 0 0 0 0)
(0 -4.17672e-10 0 -4.17672e-10 3.03889e-11 0 0 0 0)
(0 -4.29129e-10 0 -4.29129e-10 3.01587e-11 0 0 0 0)
(0 -4.4114e-10 0 -4.4114e-10 2.9885e-11 0 0 0 0)
(0 -4.53755e-10 0 -4.53755e-10 2.95562e-11 0 0 0 0)
(0 -4.6703e-10 0 -4.6703e-10 2.9169e-11 0 0 0 0)
(0 -4.81033e-10 0 -4.81033e-10 2.87319e-11 0 0 0 0)
(0 -4.95834e-10 0 -4.95834e-10 2.82698e-11 0 0 0 0)
(0 -5.11507e-10 0 -5.11507e-10 2.78269e-11 0 0 0 0)
(0 -5.28117e-10 0 -5.28117e-10 2.74689e-11 0 0 0 0)
(0 -5.45719e-10 0 -5.45719e-10 2.72839e-11 0 0 0 0)
(0 -5.64376e-10 0 -5.64376e-10 2.73828e-11 0 0 0 0)
(0 -5.84192e-10 0 -5.84192e-10 2.79007e-11 0 0 0 0)
(0 -6.05366e-10 0 -6.05366e-10 2.89976e-11 0 0 0 0)
(0 -6.28201e-10 0 -6.28201e-10 3.08572e-11 0 0 0 0)
(0 -6.53006e-10 0 -6.53006e-10 3.36736e-11 0 0 0 0)
(0 -6.79847e-10 0 -6.79847e-10 3.76112e-11 0 0 0 0)
(0 -7.0836e-10 0 -7.0836e-10 4.27183e-11 0 0 0 0)
(0 -7.38213e-10 0 -7.38213e-10 4.87844e-11 0 0 0 0)
(0 -7.70669e-10 0 -7.70669e-10 5.51674e-11 0 0 0 0)
(0 -8.0961e-10 0 -8.0961e-10 6.0643e-11 0 0 0 0)
(0 -8.58122e-10 0 -8.58122e-10 6.33583e-11 0 0 0 0)
(0 -9.12572e-10 0 -9.12572e-10 6.11018e-11 0 0 0 0)
(0 -9.66608e-10 0 -9.66608e-10 5.23263e-11 0 0 0 0)
(0 -1.02677e-09 0 -1.02677e-09 3.77668e-11 0 0 0 0)
(0 -1.11904e-09 0 -1.11904e-09 2.10601e-11 0 0 0 0)
(0 -1.26226e-09 0 -1.26226e-09 6.99325e-12 0 0 0 0)
(0 -1.40217e-09 0 -1.40217e-09 -2.15465e-12 0 0 0 0)
(0 -1.58529e-09 0 -1.58529e-09 -2.61567e-11 0 0 0 0)
(0 -6.8635e-09 0 -6.8635e-09 6.88953e-11 0 0 0 0)
(0 -5.17243e-09 0 -5.17243e-09 2.60896e-10 0 0 0 0)
(0 -3.65356e-10 0 -3.65356e-10 4.3277e-10 0 0 0 0)
(0 -3.17291e-09 0 -3.17291e-09 5.38637e-10 0 0 0 0)
(0 -4.00038e-09 0 -4.00038e-09 1.98622e-09 0 0 0 0)
(0 -4.78421e-09 0 -4.78421e-09 -4.27595e-09 0 0 0 0)
(0 -7.26174e-08 0 -7.26174e-08 2.13018e-08 0 0 0 0)
(0 -3.81479e-05 0 -3.81479e-05 -8.89885e-08 0 0 0 0)
(0 -0.000300163 0 -0.000300163 -1.72112e-06 0 0 0 0)
(0 -0.00146287 0 -0.00146287 -1.12365e-06 0 0 0 0)
(0 -0.00159145 0 -0.00159145 7.39823e-06 0 0 0 0)
(0 -0.00134935 0 -0.00134935 3.15743e-06 0 0 0 0)
(0 -0.00112336 0 -0.00112336 4.99455e-06 0 0 0 0)
(0 -0.000930417 0 -0.000930417 2.61957e-06 0 0 0 0)
(0 -0.000761282 0 -0.000761282 2.16823e-06 0 0 0 0)
(0 -0.000607901 0 -0.000607901 8.28852e-07 0 0 0 0)
(0 -0.000467759 0 -0.000467759 2.25647e-07 0 0 0 0)
(0 -0.000338905 0 -0.000338905 -1.77633e-07 0 0 0 0)
(0 -0.000219092 0 -0.000219092 -4.76404e-07 0 0 0 0)
(0 -0.000106447 0 -0.000106447 -7.04127e-07 0 0 0 0)
(0 3.6342e-07 0 3.6342e-07 -8.74924e-07 0 0 0 0)
(0 0.000102262 0 0.000102262 -1.00114e-06 0 0 0 0)
(0 0.000199848 0 0.000199848 -1.09308e-06 0 0 0 0)
(0 0.000293507 0 0.000293507 -1.15846e-06 0 0 0 0)
(0 0.000383509 0 0.000383509 -1.20294e-06 0 0 0 0)
(0 0.000470047 0 0.000470047 -1.23082e-06 0 0 0 0)
(0 0.000553258 0 0.000553258 -1.24546e-06 0 0 0 0)
(0 0.000633246 0 0.000633246 -1.24952e-06 0 0 0 0)
(0 0.000710096 0 0.000710096 -1.24509e-06 0 0 0 0)
(0 0.000783876 0 0.000783876 -1.23385e-06 0 0 0 0)
(0 0.000854649 0 0.000854649 -1.21714e-06 0 0 0 0)
(0 0.000922469 0 0.000922469 -1.19603e-06 0 0 0 0)
(0 0.000987389 0 0.000987389 -1.17141e-06 0 0 0 0)
(0 0.00104946 0 0.00104946 -1.14399e-06 0 0 0 0)
(0 0.00110873 0 0.00110873 -1.11436e-06 0 0 0 0)
(0 0.00116525 0 0.00116525 -1.08301e-06 0 0 0 0)
(0 0.00121907 0 0.00121907 -1.05036e-06 0 0 0 0)
(0 0.00127024 0 0.00127024 -1.01674e-06 0 0 0 0)
(0 0.00131881 0 0.00131881 -9.82433e-07 0 0 0 0)
(0 0.00136482 0 0.00136482 -9.47695e-07 0 0 0 0)
(0 0.00140833 0 0.00140833 -9.12731e-07 0 0 0 0)
(0 0.00144939 0 0.00144939 -8.77717e-07 0 0 0 0)
(0 0.00148804 0 0.00148804 -8.42806e-07 0 0 0 0)
(0 0.00152434 0 0.00152434 -8.08129e-07 0 0 0 0)
(0 0.00155833 0 0.00155833 -7.73797e-07 0 0 0 0)
(0 0.00159008 0 0.00159008 -7.39907e-07 0 0 0 0)
(0 0.00161961 0 0.00161961 -7.06541e-07 0 0 0 0)
(0 0.001647 0 0.001647 -6.73769e-07 0 0 0 0)
(0 0.00167227 0 0.00167227 -6.41647e-07 0 0 0 0)
(0 0.00169549 0 0.00169549 -6.10226e-07 0 0 0 0)
(0 0.0017167 0 0.0017167 -5.79542e-07 0 0 0 0)
(0 0.00173595 0 0.00173595 -5.49627e-07 0 0 0 0)
(0 0.00175329 0 0.00175329 -5.20501e-07 0 0 0 0)
(0 0.00176875 0 0.00176875 -4.9218e-07 0 0 0 0)
(0 0.0017824 0 0.0017824 -4.64672e-07 0 0 0 0)
(0 0.00179427 0 0.00179427 -4.37981e-07 0 0 0 0)
(0 0.00180441 0 0.00180441 -4.12107e-07 0 0 0 0)
(0 0.00181287 0 0.00181287 -3.87051e-07 0 0 0 0)
(0 0.00181971 0 0.00181971 -3.62815e-07 0 0 0 0)
(0 0.00182504 0 0.00182504 -3.39403e-07 0 0 0 0)
(0 0.00182904 0 0.00182904 -3.16612e-07 0 0 0 0)
(3.23737e-17 0.00183186 0 0.00183186 -2.94271e-07 0 0 0 0)
(0 0.00183349 0 0.00183349 -2.72467e-07 0 0 0 0)
(0 0.00183388 0 0.00183388 -2.51299e-07 0 0 0 0)
(-1.53701e-17 0.00183297 0 0.00183297 -2.30875e-07 0 0 0 0)
(0 0.0018307 0 0.0018307 -2.11311e-07 0 0 0 0)
(1.48163e-17 0.00182699 0 0.00182699 -1.92714e-07 0 0 0 0)
(0 0.00182178 0 0.00182178 -1.75182e-07 0 0 0 0)
(-2.85096e-17 0.001815 0 0.001815 -1.58782e-07 0 0 0 0)
(0 0.0018066 0 0.0018066 -1.43551e-07 0 0 0 0)
(0 0.00179649 0 0.00179649 -1.29485e-07 0 0 0 0)
(0 0.00178462 0 0.00178462 -1.16538e-07 0 0 0 0)
(-1.31085e-17 0.00177093 0 0.00177093 -1.04627e-07 0 0 0 0)
(0 0.00175535 0 0.00175535 -9.3641e-08 0 0 0 0)
(0 0.00173783 0 0.00173783 -8.34565e-08 0 0 0 0)
(0 0.0017183 0 0.0017183 -7.39598e-08 0 0 0 0)
(0 0.00169673 0 0.00169673 -6.50661e-08 0 0 0 0)
(0 0.00167305 0 0.00167305 -5.67335e-08 0 0 0 0)
(1.13316e-17 0.00164723 0 0.00164723 -4.89643e-08 0 0 0 0)
(0 0.00161921 0 0.00161921 -4.17963e-08 0 0 0 0)
(1.07251e-17 0.00158897 0 0.00158897 -3.5283e-08 0 0 0 0)
(0 0.00155647 0 0.00155647 -2.94719e-08 0 0 0 0)
(1.01124e-17 0.00152168 0 0.00152168 -2.43862e-08 0 0 0 0)
(0 0.00148459 0 0.00148459 -2.00161e-08 0 0 0 0)
(0 0.00144519 0 0.00144519 -1.63212e-08 0 0 0 0)
(0 0.00140348 0 0.00140348 -1.32348e-08 0 0 0 0)
(0 0.00135946 0 0.00135946 -1.06821e-08 0 0 0 0)
(0 0.00131316 0 0.00131316 -8.58151e-09 0 0 0 0)
(-8.24998e-18 0.00126462 0 0.00126462 -6.85978e-09 0 0 0 0)
(0 0.0012139 0 0.0012139 -5.45254e-09 0 0 0 0)
(0 0.00116107 0 0.00116107 -4.30875e-09 0 0 0 0)
(0 0.00110622 0 0.00110622 -3.36623e-09 0 0 0 0)
(0 0.00104949 0 0.00104949 -2.56262e-09 0 0 0 0)
(0 0.000991007 0 0.000991007 -1.99675e-09 0 0 0 0)
(0 0.000930968 0 0.000930968 -1.88499e-09 0 0 0 0)
(0 0.000869585 0 0.000869585 -1.94373e-09 0 0 0 0)
(0 0.000807066 0 0.000807066 -1.60381e-09 0 0 0 0)
(0 0.000743721 0 0.000743721 -1.01599e-09 0 0 0 0)
(0 0.00067996 0 0.00067996 -5.68927e-10 0 0 0 0)
(0 0.000616182 0 0.000616182 -2.92243e-10 0 0 0 0)
(0 0.000552837 0 0.000552837 -1.25272e-10 0 0 0 0)
(0 0.000490426 0 0.000490426 -2.66911e-11 0 0 0 0)
(8.39482e-18 0.000429487 0 0.000429487 2.33171e-11 0 0 0 0)
(-7.94074e-18 0.000370587 0 0.000370587 4.28489e-11 0 0 0 0)
(0 0.000314297 0 0.000314297 4.48705e-11 0 0 0 0)
(0 0.000261169 0 0.000261169 3.86396e-11 0 0 0 0)
(6.77651e-18 0.000211693 0 0.000211693 2.95725e-11 0 0 0 0)
(0 0.000166269 0 0.000166269 2.05659e-11 0 0 0 0)
(0 0.000125175 0 0.000125175 1.28534e-11 0 0 0 0)
(2.96119e-18 8.85471e-05 0 8.85471e-05 8.92751e-12 0 0 0 0)
(0 5.63823e-05 0 5.63823e-05 5.857e-12 0 0 0 0)
(0 2.85561e-05 0 2.85561e-05 -5.07284e-13 0 0 0 0)
(0 4.85156e-06 0 4.85156e-06 -1.91504e-12 0 0 0 0)
(0 -1.50073e-05 0 -1.50073e-05 2.21176e-13 0 0 0 0)
(0 -3.13249e-05 0 -3.13249e-05 1.23993e-13 0 0 0 0)
(0 -4.44101e-05 0 -4.44101e-05 5.83557e-15 0 0 0 0)
(0 -5.45613e-05 0 -5.45613e-05 -7.57536e-15 0 0 0 0)
(0 -6.20584e-05 0 -6.20584e-05 -6.56006e-17 0 0 0 0)
(0 -6.71604e-05 0 -6.71604e-05 2.22261e-15 0 0 0 0)
(0 -7.01064e-05 0 -7.01064e-05 2.08925e-15 0 0 0 0)
(0 -7.11184e-05 0 -7.11184e-05 1.81065e-15 0 0 0 0)
(0 -7.04051e-05 0 -7.04051e-05 1.63807e-15 0 0 0 0)
(0 -6.8165e-05 0 -6.8165e-05 2.90124e-15 0 0 0 0)
(0 -6.45904e-05 0 -6.45904e-05 5.61476e-15 0 0 0 0)
(0 -5.98702e-05 0 -5.98702e-05 -5.99497e-15 0 0 0 0)
(-2.40964e-18 -5.41943e-05 0 -5.41943e-05 -1.08179e-13 0 0 0 0)
(0 -4.77565e-05 0 -4.77565e-05 4.37015e-13 0 0 0 0)
(0 -4.07598e-05 0 -4.07598e-05 -8.81863e-13 0 0 0 0)
(0 -3.3421e-05 0 -3.3421e-05 1.3041e-12 0 0 0 0)
(0 -2.59778e-05 0 -2.59778e-05 -1.58732e-12 0 0 0 0)
(0 -1.86971e-05 0 -1.86971e-05 1.65924e-12 0 0 0 0)
(0 -1.18794e-05 0 -1.18794e-05 -1.47736e-12 0 0 0 0)
(0 -5.87045e-06 0 -5.87045e-06 1.05091e-12 0 0 0 0)
(0 -1.23841e-06 0 -1.23841e-06 -4.25216e-13 0 0 0 0)
(0 -6.51946e-08 0 -6.51946e-08 8.81727e-14 0 0 0 0)
(0 -2.63559e-09 0 -2.63559e-09 -5.91685e-14 0 0 0 0)
(0 -3.64805e-11 0 -3.64805e-11 5.76672e-14 0 0 0 0)
(0 -1.86199e-13 0 -1.86199e-13 -5.6507e-14 0 0 0 0)
(0 1.34305e-13 0 1.34305e-13 5.54158e-14 0 0 0 0)
(0 9.31523e-14 0 9.31523e-14 -5.43475e-14 0 0 0 0)
(0 6.25166e-14 0 6.25166e-14 5.33358e-14 0 0 0 0)
(0 4.1341e-14 0 4.1341e-14 -5.23383e-14 0 0 0 0)
(0 2.72908e-14 0 2.72908e-14 5.13825e-14 0 0 0 0)
(0 1.77853e-14 0 1.77853e-14 -5.04348e-14 0 0 0 0)
(0 1.14234e-14 0 1.14234e-14 4.95165e-14 0 0 0 0)
(-3.7613e-20 7.35148e-15 0 7.35148e-15 -4.85925e-14 0 0 0 0)
(0 4.61445e-15 0 4.61445e-15 4.77047e-14 0 0 0 0)
(0 2.88558e-15 0 2.88558e-15 -4.6809e-14 0 0 0 0)
(0 1.74146e-15 0 1.74146e-15 4.59253e-14 0 0 0 0)
(0 1.04348e-15 0 1.04348e-15 -4.50378e-14 0 0 0 0)
(0 7.52292e-16 0 7.52292e-16 4.41561e-14 0 0 0 0)
(0 5.10383e-16 0 5.10383e-16 -4.3269e-14 0 0 0 0)
(0 2.13173e-16 0 2.13173e-16 4.23829e-14 0 0 0 0)
(0 2.91931e-17 0 2.91931e-17 -4.14897e-14 0 0 0 0)
(0 -9.95783e-17 0 -9.95783e-17 4.05937e-14 0 0 0 0)
(-3.0766e-20 8.08683e-17 0 8.08683e-17 -3.96984e-14 0 0 0 0)
(0 1.9e-16 0 1.9e-16 3.87782e-14 0 0 0 0)
(0 2.33182e-17 0 2.33182e-17 -3.78558e-14 0 0 0 0)
(2.89661e-20 -1.32687e-16 0 -1.32687e-16 3.69324e-14 0 0 0 0)
(0 2.20164e-17 0 2.20164e-17 -3.59878e-14 0 0 0 0)
(0 3.6437e-17 0 3.6437e-17 3.50397e-14 0 0 0 0)
(0 -1.90015e-17 0 -1.90015e-17 -3.40764e-14 0 0 0 0)
(0 1.43074e-16 0 1.43074e-16 3.31032e-14 0 0 0 0)
(0 -1.48316e-16 0 -1.48316e-16 -3.21142e-14 0 0 0 0)
(0 -2.59772e-16 0 -2.59772e-16 3.11143e-14 0 0 0 0)
(0 2.05368e-16 0 2.05368e-16 -3.00961e-14 0 0 0 0)
(0 3.07033e-16 0 3.07033e-16 2.90628e-14 0 0 0 0)
(0 -7.98832e-17 0 -7.98832e-17 -2.80115e-14 0 0 0 0)
(0 -2.68052e-16 0 -2.68052e-16 2.69676e-14 0 0 0 0)
(0 -1.52737e-16 0 -1.52737e-16 -2.96589e-14 0 0 0 0)
(0 -6.14033e-17 0 -6.14033e-17 2.92819e-14 0 0 0 0)
(0 4.89294e-17 0 4.89294e-17 -2.89329e-14 0 0 0 0)
(0 3.12343e-17 0 3.12343e-17 2.85804e-14 0 0 0 0)
(0 3.26769e-17 0 3.26769e-17 -2.82275e-14 0 0 0 0)
(0 5.30322e-17 0 5.30322e-17 2.78695e-14 0 0 0 0)
(0 1.25334e-17 0 1.25334e-17 -2.75136e-14 0 0 0 0)
(0 -6.72994e-18 0 -6.72994e-18 2.71506e-14 0 0 0 0)
(0 -3.53438e-17 0 -3.53438e-17 -2.67912e-14 0 0 0 0)
(0 -1.24719e-16 0 -1.24719e-16 2.64212e-14 0 0 0 0)
(0 -5.37535e-17 0 -5.37535e-17 -2.60574e-14 0 0 0 0)
(0 1.27545e-16 0 1.27545e-16 2.56823e-14 0 0 0 0)
(0 6.06687e-17 0 6.06687e-17 -2.53132e-14 0 0 0 0)
(0 -4.17031e-17 0 -4.17031e-17 2.49295e-14 0 0 0 0)
(0 1.0396e-17 0 1.0396e-17 -2.45554e-14 0 0 0 0)
(0 -1.77348e-18 0 -1.77348e-18 2.41636e-14 0 0 0 0)
(0 1.25533e-17 0 1.25533e-17 -2.37889e-14 0 0 0 0)
(0 2.78396e-17 0 2.78396e-17 2.33719e-14 0 0 0 0)
(0 -4.71824e-17 0 -4.71824e-17 -2.30059e-14 0 0 0 0)
(0 1.09982e-17 0 1.09982e-17 2.25726e-14 0 0 0 0)
(0 2.83293e-17 0 2.83293e-17 -2.22129e-14 0 0 0 0)
(0 -5.24565e-17 0 -5.24565e-17 2.17528e-14 0 0 0 0)
(0 -3.98833e-17 0 -3.98833e-17 -2.13868e-14 0 0 0 0)
(0 5.14705e-17 0 5.14705e-17 2.09164e-14 0 0 0 0)
(0 1.3804e-17 0 1.3804e-17 -2.05344e-14 0 0 0 0)
(0 3.16645e-17 0 3.16645e-17 2.00499e-14 0 0 0 0)
(0 4.65008e-17 0 4.65008e-17 -1.96544e-14 0 0 0 0)
(0 -3.95459e-17 0 -3.95459e-17 1.91541e-14 0 0 0 0)
(0 -9.80507e-17 0 -9.80507e-17 -1.87349e-14 0 0 0 0)
(0 -1.65496e-16 0 -1.65496e-16 1.82262e-14 0 0 0 0)
(0 -3.78935e-16 0 -3.78935e-16 -1.77719e-14 0 0 0 0)
(0 -5.96099e-17 0 -5.96099e-17 1.7257e-14 0 0 0 0)
(0 3.61041e-16 0 3.61041e-16 -1.67553e-14 0 0 0 0)
(0 2.16781e-16 0 2.16781e-16 1.62241e-14 0 0 0 0)
(0 7.8205e-17 0 7.8205e-17 -1.57069e-14 0 0 0 0)
(0 2.09972e-17 0 2.09972e-17 1.51271e-14 0 0 0 0)
(0 4.02738e-17 0 4.02738e-17 -1.45566e-14 0 0 0 0)
(0 9.22472e-18 0 9.22472e-18 1.39908e-14 0 0 0 0)
(0 -2.48287e-17 0 -2.48287e-17 -1.33024e-14 0 0 0 0)
(0 -8.35585e-17 0 -8.35585e-17 1.27563e-14 0 0 0 0)
(0 1.75296e-17 0 1.75296e-17 -1.19087e-14 0 0 0 0)
(0 1.47715e-16 0 1.47715e-16 1.13938e-14 0 0 0 0)
(0 8.90708e-17 0 8.90708e-17 -1.03579e-14 0 0 0 0)
(0 -4.54817e-17 0 -4.54817e-17 9.85092e-15 0 0 0 0)
(0 -9.34516e-17 0 -9.34516e-17 -8.59515e-15 0 0 0 0)
(0 -8.784e-17 0 -8.784e-17 7.99678e-15 0 0 0 0)
(0 -4.99816e-17 0 -4.99816e-17 -6.35165e-15 0 0 0 0)
(0 4.13458e-17 0 4.13458e-17 5.25398e-15 0 0 0 0)
(0 -8.29364e-17 0 -8.29364e-17 -3.4657e-15 0 0 0 0)
(0 -1.12808e-16 0 -1.12808e-16 2.29931e-16 0 0 0 0)
)
;

boundaryField
{
    inandouthalf11
    {
        type            cyclic;
    }
    inandouthalf12
    {
        type            cyclic;
    }
    inandouthalf21
    {
        type            cyclic;
    }
    inandouthalf22
    {
        type            cyclic;
    }
    inandouthalf31
    {
        type            cyclic;
    }
    inandouthalf32
    {
        type            cyclic;
    }
    inandouthalf41
    {
        type            cyclic;
    }
    inandouthalf42
    {
        type            cyclic;
    }
    top
    {
        type            symmetryPlane;
    }
    walls
    {
        type            zeroGradient;
    }
    frontAndBackPlanes
    {
        type            empty;
    }
}


// ************************************************************************* //
