/*--------------------------------*- C++ -*----------------------------------*\
| =========                 |                                                 |
| \\      /  F ield         | OpenFOAM: The Open Source CFD Toolbox           |
|  \\    /   O peration     | Version:  2.4.x                                 |
|   \\  /    A nd           | Web:      www.OpenFOAM.org                      |
|    \\/     M anipulation  |                                                 |
\*---------------------------------------------------------------------------*/
FoamFile
{
    version     2.0;
    format      ascii;
    class       volTensorField;
    location    "10.85";
    object      Taus;
}
// * * * * * * * * * * * * * * * * * * * * * * * * * * * * * * * * * * * * * //

dimensions      [0 2 -2 0 0 0 0];

internalField   nonuniform List<tensor> 
360
(
(0 -0.0270211 0 -0.0270211 -0.205486 0 0 0 0)
(0 -0.0397679 0 -0.0397679 -0.260147 0 0 0 0)
(0 -0.0477806 0 -0.0477806 -0.263401 0 0 0 0)
(0 -0.0460628 0 -0.0460628 -0.256989 0 0 0 0)
(1.35888e-17 -0.0445896 0 -0.0445896 -0.254404 0 0 0 0)
(2.68445e-17 -0.0443818 0 -0.0443818 -0.253459 0 0 0 0)
(2.71629e-17 -0.0442676 0 -0.0442676 -0.252181 0 0 0 0)
(0 -0.0439812 0 -0.0439812 -0.250612 0 0 0 0)
(2.80614e-17 -0.043646 0 -0.043646 -0.249036 0 0 0 0)
(0 -0.0433102 0 -0.0433102 -0.247459 0 0 0 0)
(5.80742e-17 -0.0429784 0 -0.0429784 -0.245876 0 0 0 0)
(0 -0.0426555 0 -0.0426555 -0.244304 0 0 0 0)
(6.03112e-17 -0.0423365 0 -0.0423365 -0.242726 0 0 0 0)
(0 -0.0420205 0 -0.0420205 -0.241147 0 0 0 0)
(0 -0.0417056 0 -0.0417056 -0.239562 0 0 0 0)
(0 -0.0413903 0 -0.0413903 -0.237969 0 0 0 0)
(0 -0.0410761 0 -0.0410761 -0.236369 0 0 0 0)
(1.31639e-16 -0.0407649 0 -0.0407649 -0.234767 0 0 0 0)
(0 -0.0404553 0 -0.0404553 -0.233163 0 0 0 0)
(0 -0.0401451 0 -0.0401451 -0.231544 0 0 0 0)
(0 -0.0398395 0 -0.0398395 -0.229934 0 0 0 0)
(1.37055e-16 -0.039533 0 -0.039533 -0.228309 0 0 0 0)
(0 -0.0392272 0 -0.0392272 -0.226681 0 0 0 0)
(0 -0.038923 0 -0.038923 -0.22505 0 0 0 0)
(0 -0.0386188 0 -0.0386188 -0.223412 0 0 0 0)
(1.37867e-16 -0.0383159 0 -0.0383159 -0.221771 0 0 0 0)
(0 -0.0380144 0 -0.0380144 -0.22013 0 0 0 0)
(0 -0.0377107 0 -0.0377107 -0.218476 0 0 0 0)
(0 -0.0374079 0 -0.0374079 -0.216822 0 0 0 0)
(0 -0.0371066 0 -0.0371066 -0.215166 0 0 0 0)
(0 -0.0368041 0 -0.0368041 -0.213506 0 0 0 0)
(0 -0.0365 0 -0.0365 -0.211833 0 0 0 0)
(0 -0.0361997 0 -0.0361997 -0.210177 0 0 0 0)
(0 -0.0358932 0 -0.0358932 -0.208492 0 0 0 0)
(0 -0.0355899 0 -0.0355899 -0.206823 0 0 0 0)
(-1.24581e-16 -0.0352852 0 -0.0352852 -0.205139 0 0 0 0)
(0 -0.0349814 0 -0.0349814 -0.203462 0 0 0 0)
(0 -0.0346739 0 -0.0346739 -0.201774 0 0 0 0)
(0 -0.034365 0 -0.034365 -0.200077 0 0 0 0)
(0 -0.0340617 0 -0.0340617 -0.198401 0 0 0 0)
(0 -0.0337497 0 -0.0337497 -0.196694 0 0 0 0)
(0 -0.0334401 0 -0.0334401 -0.194995 0 0 0 0)
(-1.1082e-16 -0.0331335 0 -0.0331335 -0.193306 0 0 0 0)
(0 -0.0328198 0 -0.0328198 -0.191591 0 0 0 0)
(0 -0.0325088 0 -0.0325088 -0.189891 0 0 0 0)
(0 -0.0321952 0 -0.0321952 -0.188181 0 0 0 0)
(0 -0.0318801 0 -0.0318801 -0.186462 0 0 0 0)
(0 -0.0315707 0 -0.0315707 -0.184762 0 0 0 0)
(0 -0.031255 0 -0.031255 -0.183043 0 0 0 0)
(0 -0.030935 0 -0.030935 -0.181311 0 0 0 0)
(-1.92767e-16 -0.0306219 0 -0.0306219 -0.179602 0 0 0 0)
(0 -0.0303046 0 -0.0303046 -0.177873 0 0 0 0)
(0 -0.0299867 0 -0.0299867 -0.176149 0 0 0 0)
(0 -0.0296678 0 -0.0296678 -0.174416 0 0 0 0)
(0 -0.0293509 0 -0.0293509 -0.172695 0 0 0 0)
(0 -0.0290288 0 -0.0290288 -0.170949 0 0 0 0)
(0 -0.028711 0 -0.028711 -0.169225 0 0 0 0)
(0 -0.0283886 0 -0.0283886 -0.167479 0 0 0 0)
(0 -0.0280684 0 -0.0280684 -0.16574 0 0 0 0)
(0 -0.0277504 0 -0.0277504 -0.16401 0 0 0 0)
(0 -0.0274257 0 -0.0274257 -0.162252 0 0 0 0)
(0 -0.0271054 0 -0.0271054 -0.160516 0 0 0 0)
(0 -0.0267816 0 -0.0267816 -0.158761 0 0 0 0)
(0 -0.026459 0 -0.026459 -0.157014 0 0 0 0)
(0 -0.0261364 0 -0.0261364 -0.155261 0 0 0 0)
(0 -0.0258144 0 -0.0258144 -0.153511 0 0 0 0)
(0 -0.0254903 0 -0.0254903 -0.151754 0 0 0 0)
(0 -0.0251655 0 -0.0251655 -0.149994 0 0 0 0)
(0 -0.0248431 0 -0.0248431 -0.148235 0 0 0 0)
(0 -0.0245226 0 -0.0245226 -0.146483 0 0 0 0)
(0 -0.0241963 0 -0.0241963 -0.144714 0 0 0 0)
(0 -0.0238703 0 -0.0238703 -0.142943 0 0 0 0)
(0 -0.02355 0 -0.02355 -0.14119 0 0 0 0)
(0 -0.0232255 0 -0.0232255 -0.139416 0 0 0 0)
(0 -0.022901 0 -0.022901 -0.13765 0 0 0 0)
(0 -0.0225753 0 -0.0225753 -0.135872 0 0 0 0)
(0 -0.0222527 0 -0.0222527 -0.134105 0 0 0 0)
(0 -0.02193 0 -0.02193 -0.132332 0 0 0 0)
(0 -0.021606 0 -0.021606 -0.130556 0 0 0 0)
(0 -0.0212823 0 -0.0212823 -0.128778 0 0 0 0)
(0 -0.0209602 0 -0.0209602 -0.127003 0 0 0 0)
(0 -0.0206373 0 -0.0206373 -0.125224 0 0 0 0)
(0 -0.0203141 0 -0.0203141 -0.123442 0 0 0 0)
(0 -0.0199914 0 -0.0199914 -0.121661 0 0 0 0)
(0 -0.0196687 0 -0.0196687 -0.119877 0 0 0 0)
(0 -0.0193464 0 -0.0193464 -0.118093 0 0 0 0)
(0 -0.019024 0 -0.019024 -0.116306 0 0 0 0)
(0 -0.0187025 0 -0.0187025 -0.11452 0 0 0 0)
(0 -0.0183816 0 -0.0183816 -0.112733 0 0 0 0)
(0 -0.0180608 0 -0.0180608 -0.110944 0 0 0 0)
(0 -0.0177405 0 -0.0177405 -0.109155 0 0 0 0)
(0 -0.0174207 0 -0.0174207 -0.107365 0 0 0 0)
(0 -0.017101 0 -0.017101 -0.105573 0 0 0 0)
(0 -0.0167815 0 -0.0167815 -0.10378 0 0 0 0)
(0 -0.0164624 0 -0.0164624 -0.101987 0 0 0 0)
(0 -0.0161438 0 -0.0161438 -0.100192 0 0 0 0)
(0 -0.0158256 0 -0.0158256 -0.0983974 0 0 0 0)
(0 -0.015508 0 -0.015508 -0.0966019 0 0 0 0)
(0 -0.015191 0 -0.015191 -0.0948061 0 0 0 0)
(0 -0.0148746 0 -0.0148746 -0.0930099 0 0 0 0)
(0 -0.0145588 0 -0.0145588 -0.0912135 0 0 0 0)
(0 -0.0142435 0 -0.0142435 -0.0894168 0 0 0 0)
(0 -0.0139287 0 -0.0139287 -0.08762 0 0 0 0)
(0 -0.0136143 0 -0.0136143 -0.0858233 0 0 0 0)
(0 -0.0133003 0 -0.0133003 -0.0840269 0 0 0 0)
(0 -0.0129868 0 -0.0129868 -0.0822309 0 0 0 0)
(0 -0.0126736 0 -0.0126736 -0.0804358 0 0 0 0)
(0 -0.0123606 0 -0.0123606 -0.0786418 0 0 0 0)
(0 -0.0120478 0 -0.0120478 -0.0768491 0 0 0 0)
(0 -0.0117351 0 -0.0117351 -0.075058 0 0 0 0)
(0 -0.0114225 0 -0.0114225 -0.0732689 0 0 0 0)
(0 -0.0111099 0 -0.0111099 -0.0714821 0 0 0 0)
(0 -0.0107974 0 -0.0107974 -0.0696979 0 0 0 0)
(0 -0.0104852 0 -0.0104852 -0.0679165 0 0 0 0)
(0 -0.0101734 0 -0.0101734 -0.0661382 0 0 0 0)
(0 -0.00986228 0 -0.00986228 -0.0643633 0 0 0 0)
(0 -0.00955209 0 -0.00955209 -0.062592 0 0 0 0)
(0 -0.00924314 0 -0.00924314 -0.0608244 0 0 0 0)
(0 -0.0089357 0 -0.0089357 -0.0590607 0 0 0 0)
(0 -0.00862992 0 -0.00862992 -0.0573012 0 0 0 0)
(0 -0.00832578 0 -0.00832578 -0.0555459 0 0 0 0)
(0 -0.00802304 0 -0.00802304 -0.0537955 0 0 0 0)
(0 -0.00772114 0 -0.00772114 -0.0520505 0 0 0 0)
(0 -0.00741919 0 -0.00741919 -0.0503118 0 0 0 0)
(0 -0.0071159 0 -0.0071159 -0.0485805 0 0 0 0)
(0 -0.00680963 0 -0.00680963 -0.0468579 0 0 0 0)
(0 -0.0064985 0 -0.0064985 -0.0451449 0 0 0 0)
(0 -0.0061807 0 -0.0061807 -0.0434415 0 0 0 0)
(0 -0.00585517 0 -0.00585517 -0.0417476 0 0 0 0)
(0 -0.0055224 0 -0.0055224 -0.0400631 0 0 0 0)
(0 -0.00518463 0 -0.00518463 -0.0383895 0 0 0 0)
(0 -0.00484458 0 -0.00484458 -0.0367281 0 0 0 0)
(0 -0.00450292 0 -0.00450292 -0.0350756 0 0 0 0)
(0 -0.00415804 0 -0.00415804 -0.0334197 0 0 0 0)
(0 -0.00381081 0 -0.00381081 -0.0317485 0 0 0 0)
(0 -0.00346913 0 -0.00346913 -0.0300671 0 0 0 0)
(0 -0.00314401 0 -0.00314401 -0.0283879 0 0 0 0)
(0 -0.00284477 0 -0.00284477 -0.0266942 0 0 0 0)
(0 -0.00259647 0 -0.00259647 -0.0249192 0 0 0 0)
(0 -0.00254113 0 -0.00254113 -0.0229762 0 0 0 0)
(0 -0.0036966 0 -0.0036966 -0.0205082 0 0 0 0)
(0 -0.00621963 0 -0.00621963 -0.0162052 0 0 0 0)
(0 -0.00281984 0 -0.00281984 -0.00844636 0 0 0 0)
(0 -0.00376203 0 -0.00376203 -0.00861729 0 0 0 0)
(0 -0.00396351 0 -0.00396351 -0.00662629 0 0 0 0)
(0 -0.00354047 0 -0.00354047 -0.00477566 0 0 0 0)
(0 -0.0033502 0 -0.0033502 -0.00268418 0 0 0 0)
(0 -0.00294854 0 -0.00294854 -0.000676567 0 0 0 0)
(0 -0.00181219 0 -0.00181219 5.76526e-06 0 0 0 0)
(0 -0.00156754 0 -0.00156754 2.76231e-05 0 0 0 0)
(0 -0.00227453 0 -0.00227453 4.0202e-05 0 0 0 0)
(0 -0.00254061 0 -0.00254061 1.60055e-05 0 0 0 0)
(0 -0.00259188 0 -0.00259188 -5.15388e-05 0 0 0 0)
(0 -0.00279314 0 -0.00279314 -0.000239526 0 0 0 0)
(0 -0.00300997 0 -0.00300997 -0.000652105 0 0 0 0)
(0 -0.00307752 0 -0.00307752 -0.00122406 0 0 0 0)
(0 -0.0029305 0 -0.0029305 -0.00172717 0 0 0 0)
(0 -0.00260297 0 -0.00260297 -0.00201651 0 0 0 0)
(0 -0.00217272 0 -0.00217272 -0.00211634 0 0 0 0)
(0 -0.00169138 0 -0.00169138 -0.00209941 0 0 0 0)
(0 -0.00118546 0 -0.00118546 -0.00201005 0 0 0 0)
(0 -0.000668331 0 -0.000668331 -0.00187499 0 0 0 0)
(0 -0.00014589 0 -0.00014589 -0.00171242 0 0 0 0)
(0 0.00038007 0 0.00038007 -0.00153375 0 0 0 0)
(0 0.000909854 0 0.000909854 -0.00134589 0 0 0 0)
(0 0.00144477 0 0.00144477 -0.00115306 0 0 0 0)
(0 0.00198654 0 0.00198654 -0.000957729 0 0 0 0)
(0 0.00253696 0 0.00253696 -0.000761292 0 0 0 0)
(0 0.00309779 0 0.00309779 -0.000564448 0 0 0 0)
(0 0.00367062 0 0.00367062 -0.000367468 0 0 0 0)
(0 0.00425686 0 0.00425686 -0.000170353 0 0 0 0)
(0 0.00485777 0 0.00485777 2.70606e-05 0 0 0 0)
(0 0.00547444 0 0.00547444 0.000225037 0 0 0 0)
(0 0.00610778 0 0.00610778 0.000423901 0 0 0 0)
(0 0.00675858 0 0.00675858 0.000624003 0 0 0 0)
(0 0.00742749 0 0.00742749 0.000825702 0 0 0 0)
(0 0.00811504 0 0.00811504 0.00102936 0 0 0 0)
(0 0.00882165 0 0.00882165 0.00123533 0 0 0 0)
(0 0.00954762 0 0.00954762 0.00144393 0 0 0 0)
(0 0.0102931 0 0.0102931 0.00165549 0 0 0 0)
(0 0.0110583 0 0.0110583 0.00187027 0 0 0 0)
(0 0.011843 0 0.011843 0.00208854 0 0 0 0)
(0 0.0126472 0 0.0126472 0.00231048 0 0 0 0)
(0 0.0134706 0 0.0134706 0.00253627 0 0 0 0)
(0 0.0143128 0 0.0143128 0.00276601 0 0 0 0)
(0 0.0151732 0 0.0151732 0.00299973 0 0 0 0)
(0 0.0160514 0 0.0160514 0.00323738 0 0 0 0)
(0 0.0169464 0 0.0169464 0.00347881 0 0 0 0)
(0 0.0178574 0 0.0178574 0.00372375 0 0 0 0)
(0 0.0187833 0 0.0187833 0.00397177 0 0 0 0)
(0 0.0197229 0 0.0197229 0.00422228 0 0 0 0)
(0 0.0206749 0 0.0206749 0.0044745 0 0 0 0)
(0 0.0216379 0 0.0216379 0.0047274 0 0 0 0)
(0 0.0226102 0 0.0226102 0.00497974 0 0 0 0)
(0 0.02359 0 0.02359 0.00523009 0 0 0 0)
(0 0.0245754 0 0.0245754 0.0054768 0 0 0 0)
(0 0.0255641 0 0.0255641 0.00571816 0 0 0 0)
(0 0.0265535 0 0.0265535 0.00595246 0 0 0 0)
(0 0.0275406 0 0.0275406 0.0061782 0 0 0 0)
(0 0.0285221 0 0.0285221 0.0063943 0 0 0 0)
(0 0.0294975 0 0.0294975 0.00660034 0 0 0 0)
(0 0.0304927 0 0.0304927 0.0067992 0 0 0 0)
(3.35686e-16 0.031537 0 0.031537 0.00699491 0 0 0 0)
(0 0.0326362 0 0.0326362 0.00719092 0 0 0 0)
(0 0.0337908 0 0.0337908 0.0073928 0 0 0 0)
(-3.79657e-16 0.0350001 0 0.0350001 0.00760865 0 0 0 0)
(0 0.0362618 0 0.0362618 0.00784918 0 0 0 0)
(4.15696e-16 0.0375723 0 0.0375723 0.00812764 0 0 0 0)
(0 0.038927 0 0.038927 0.00845917 0 0 0 0)
(-9.16071e-16 0.0403206 0 0.0403206 0.00885984 0 0 0 0)
(0 0.0417475 0 0.0417475 0.00934503 0 0 0 0)
(0 0.0432034 0 0.0432034 0.00992715 0 0 0 0)
(0 0.0446856 0 0.0446856 0.0106127 0 0 0 0)
(-5.65671e-16 0.0461941 0 0.0461941 0.0113991 0 0 0 0)
(0 0.0477321 0 0.0477321 0.0122718 0 0 0 0)
(0 0.0493051 0 0.0493051 0.013204 0 0 0 0)
(0 0.0509193 0 0.0509193 0.0141597 0 0 0 0)
(0 0.0525782 0 0.0525782 0.0150995 0 0 0 0)
(0 0.0542785 0 0.0542785 0.0159864 0 0 0 0)
(8.17544e-16 0.0560052 0 0.0560052 0.0167905 0 0 0 0)
(0 0.0577275 0 0.0577275 0.0174909 0 0 0 0)
(1.87462e-15 0.059396 0 0.059396 0.0180754 0 0 0 0)
(0 0.060943 0 0.060943 0.018539 0 0 0 0)
(1.07468e-15 0.062285 0 0.062285 0.0188805 0 0 0 0)
(0 0.0633263 0 0.0633263 0.0190984 0 0 0 0)
(0 0.0639633 0 0.0639633 0.0191886 0 0 0 0)
(0 0.0640869 0 0.0640869 0.0191348 0 0 0 0)
(0 0.0635904 0 0.0635904 0.0189282 0 0 0 0)
(-1.43786e-15 0.0623173 0 0.0623173 0.0185092 0 0 0 0)
(0 0.0602123 0 0.0602123 0.0178937 0 0 0 0)
(0 0.0569306 0 0.0569306 0.0169346 0 0 0 0)
(0 0.0525854 0 0.0525854 0.0157466 0 0 0 0)
(0 0.046452 0 0.046452 0.0139855 0 0 0 0)
(0 0.0389999 0 0.0389999 0.011956 0 0 0 0)
(0 0.0288968 0 0.0288968 0.00946934 0 0 0 0)
(0 0.02241 0 0.02241 0.0069777 0 0 0 0)
(0 0 0 0 0 0 0 0 0)
(0 0 0 0 0 0 0 0 0)
(0 0 0 0 0 0 0 0 0)
(0 0 0 0 0 0 0 0 0)
(0 0 0 0 0 0 0 0 0)
(0 0 0 0 0 0 0 0 0)
(0 0 0 0 0 0 0 0 0)
(0 0 0 0 0 0 0 0 0)
(-0 0 0 0 0 0 0 0 0)
(0 0 0 0 0 0 0 0 0)
(0 0 0 0 -0 0 0 0 0)
(0 0 0 0 0 0 0 0 0)
(0 0 0 0 -0 0 0 0 0)
(0 0 0 0 0 0 0 0 0)
(0 0 0 0 -0 0 0 0 0)
(0 -0 0 -0 -0 0 0 0 0)
(0 -0 0 -0 -0 0 0 0 0)
(0 -0 0 -0 -0 0 0 0 0)
(0 -0 0 -0 0 0 0 0 0)
(0 -0 0 -0 0 0 0 0 0)
(0 -0 0 -0 0 0 0 0 0)
(0 -0 0 -0 0 0 0 0 0)
(0 -0 0 -0 0 0 0 0 0)
(0 -0 0 -0 0 0 0 0 0)
(0 -0 0 -0 0 0 0 0 0)
(0 -0 0 -0 0 0 0 0 0)
(0 -0 0 -0 -0 0 0 0 0)
(0 -0 0 -0 -0 0 0 0 0)
(0 -0 0 -0 -0 0 0 0 0)
(0 -0 0 -0 -0 0 0 0 0)
(-0 -0 0 -0 0 0 0 0 0)
(0 -0 0 -0 0 0 0 0 0)
(0 -0 0 -0 0 0 0 0 0)
(0 -0 0 -0 0 0 0 0 0)
(0 -0 0 -0 0 0 0 0 0)
(0 -0 0 -0 0 0 0 0 0)
(0 -0 0 -0 0 0 0 0 0)
(0 -0 0 -0 0 0 0 0 0)
(0 -0 0 -0 0 0 0 0 0)
(0 -0 0 -0 0 0 0 0 0)
(0 -0 0 -0 0 0 0 0 0)
(0 -0 0 -0 0 0 0 0 0)
(0 -0 0 -0 0 0 0 0 0)
(0 0 0 0 0 0 0 0 0)
(0 0 0 0 -0 0 0 0 0)
(0 0 0 0 0 0 0 0 0)
(0 0 0 0 -0 0 0 0 0)
(0 0 0 0 0 0 0 0 0)
(0 0 0 0 -0 0 0 0 0)
(0 0 0 0 0 0 0 0 0)
(-0 0 0 0 -0 0 0 0 0)
(0 0 0 0 0 0 0 0 0)
(0 0 0 0 -0 0 0 0 0)
(0 0 0 0 0 0 0 0 0)
(0 0 0 0 -0 0 0 0 0)
(0 0 0 0 0 0 0 0 0)
(0 0 0 0 -0 0 0 0 0)
(0 -0 0 -0 0 0 0 0 0)
(0 0 0 0 -0 0 0 0 0)
(0 -0 0 -0 0 0 0 0 0)
(-0 0 0 0 -0 0 0 0 0)
(0 -0 0 -0 0 0 0 0 0)
(0 0 0 0 -0 0 0 0 0)
(0 -0 0 -0 0 0 0 0 0)
(0 0 0 0 -0 0 0 0 0)
(0 -0 0 -0 0 0 0 0 0)
(0 0 0 0 -0 0 0 0 0)
(0 -0 0 -0 0 0 0 0 0)
(0 0 0 0 -0 0 0 0 0)
(0 -0 0 -0 0 0 0 0 0)
(0 0 0 0 -0 0 0 0 0)
(0 -0 0 -0 0 0 0 0 0)
(0 0 0 0 -0 0 0 0 0)
(0 -0 0 -0 0 0 0 0 0)
(0 0 0 0 -0 0 0 0 0)
(0 -0 0 -0 0 0 0 0 0)
(0 0 0 0 -0 0 0 0 0)
(0 -0 0 -0 0 0 0 0 0)
(0 0 0 0 -0 0 0 0 0)
(0 -0 0 -0 0 0 0 0 0)
(0 0 0 0 -0 0 0 0 0)
(0 -0 0 -0 0 0 0 0 0)
(0 0 0 0 -0 0 0 0 0)
(0 -0 0 -0 0 0 0 0 0)
(0 0 0 0 -0 0 0 0 0)
(0 -0 0 -0 0 0 0 0 0)
(0 0 0 0 -0 0 0 0 0)
(0 -0 0 -0 0 0 0 0 0)
(0 0 0 0 -0 0 0 0 0)
(0 -0 0 -0 0 0 0 0 0)
(0 0 0 0 -0 0 0 0 0)
(0 -0 0 -0 0 0 0 0 0)
(0 0 0 0 -0 0 0 0 0)
(0 -0 0 -0 0 0 0 0 0)
(0 0 0 0 -0 0 0 0 0)
(0 -0 0 -0 0 0 0 0 0)
(0 0 0 0 -0 0 0 0 0)
(0 -0 0 -0 0 0 0 0 0)
(0 0 0 0 -0 0 0 0 0)
(0 -0 0 -0 0 0 0 0 0)
(0 0 0 0 -0 0 0 0 0)
(0 -0 0 -0 0 0 0 0 0)
(0 0 0 0 -0 0 0 0 0)
(0 -0 0 -0 0 0 0 0 0)
(0 -0 0 -0 -0 0 0 0 0)
(0 -0 0 -0 0 0 0 0 0)
(0 0 0 0 -0 0 0 0 0)
(0 0 0 0 0 0 0 0 0)
(0 0 0 0 -0 0 0 0 0)
(0 -0 0 -0 0 0 0 0 0)
(0 0 0 0 -0 0 0 0 0)
(0 -0 0 -0 0 0 0 0 0)
(0 0 0 0 -0 0 0 0 0)
(0 -0 0 -0 0 0 0 0 0)
(0 0 0 0 -0 0 0 0 0)
(0 0 0 0 0 0 0 0 0)
(0 0 0 0 -0 0 0 0 0)
(0 0 0 0 0 0 0 0 0)
(0 0 0 0 0 0 0 0 0)
(0 0 0 0 0 0 0 0 0)
(0 0 0 0 0 0 0 0 0)
(0 0 0 0 0 0 0 0 0)
(0 0 0 0 0 0 0 0 0)
(0 0 0 0 0 0 0 0 0)
)
;

boundaryField
{
    inandouthalf11
    {
        type            cyclic;
    }
    inandouthalf12
    {
        type            cyclic;
    }
    inandouthalf21
    {
        type            cyclic;
    }
    inandouthalf22
    {
        type            cyclic;
    }
    inandouthalf31
    {
        type            cyclic;
    }
    inandouthalf32
    {
        type            cyclic;
    }
    inandouthalf41
    {
        type            cyclic;
    }
    inandouthalf42
    {
        type            cyclic;
    }
    top
    {
        type            symmetryPlane;
    }
    walls
    {
        type            zeroGradient;
    }
    frontAndBackPlanes
    {
        type            empty;
    }
}


// ************************************************************************* //
