/*--------------------------------*- C++ -*----------------------------------*\
| =========                 |                                                 |
| \\      /  F ield         | OpenFOAM: The Open Source CFD Toolbox           |
|  \\    /   O peration     | Version:  2.4.x                                 |
|   \\  /    A nd           | Web:      www.OpenFOAM.org                      |
|    \\/     M anipulation  |                                                 |
\*---------------------------------------------------------------------------*/
FoamFile
{
    version     2.0;
    format      ascii;
    class       volVectorField;
    location    "10.85";
    object      Ub;
}
// * * * * * * * * * * * * * * * * * * * * * * * * * * * * * * * * * * * * * //

dimensions      [0 1 -1 0 0 0 0];

internalField   nonuniform List<vector> 
360
(
(-0.000231923 4.25011e-09 0)
(-0.000230633 1.50213e-08 0)
(-0.000230462 2.7574e-08 0)
(-0.000230639 3.93021e-08 0)
(-0.000230723 5.08505e-08 0)
(-0.000230752 6.2517e-08 0)
(-0.000230787 7.41281e-08 0)
(-0.000230833 8.5529e-08 0)
(-0.000230879 9.66755e-08 0)
(-0.000230926 1.07566e-07 0)
(-0.000230973 1.18201e-07 0)
(-0.00023102 1.28577e-07 0)
(-0.000231067 1.38691e-07 0)
(-0.000231114 1.48546e-07 0)
(-0.000231162 1.58148e-07 0)
(-0.000231211 1.6751e-07 0)
(-0.000231259 1.7665e-07 0)
(-0.000231309 1.85585e-07 0)
(-0.000231358 1.94332e-07 0)
(-0.000231408 2.02912e-07 0)
(-0.000231459 2.11344e-07 0)
(-0.00023151 2.19648e-07 0)
(-0.000231561 2.27842e-07 0)
(-0.000231613 2.35947e-07 0)
(-0.000231666 2.43979e-07 0)
(-0.000231719 2.51955e-07 0)
(-0.000231772 2.59891e-07 0)
(-0.000231826 2.67801e-07 0)
(-0.000231881 2.75699e-07 0)
(-0.000231936 2.83597e-07 0)
(-0.000231992 2.91505e-07 0)
(-0.000232049 2.99435e-07 0)
(-0.000232105 3.07394e-07 0)
(-0.000232163 3.15391e-07 0)
(-0.000232221 3.23433e-07 0)
(-0.000232281 3.31525e-07 0)
(-0.00023234 3.39672e-07 0)
(-0.0002324 3.47879e-07 0)
(-0.000232462 3.5615e-07 0)
(-0.000232523 3.64487e-07 0)
(-0.000232585 3.72893e-07 0)
(-0.000232648 3.81371e-07 0)
(-0.000232712 3.89918e-07 0)
(-0.000232777 3.98538e-07 0)
(-0.000232842 4.07231e-07 0)
(-0.000232908 4.15996e-07 0)
(-0.000232975 4.24835e-07 0)
(-0.000233042 4.33743e-07 0)
(-0.00023311 4.4272e-07 0)
(-0.00023318 4.51767e-07 0)
(-0.00023325 4.60881e-07 0)
(-0.000233321 4.7006e-07 0)
(-0.000233392 4.79302e-07 0)
(-0.000233465 4.88606e-07 0)
(-0.000233538 4.97967e-07 0)
(-0.000233613 5.07387e-07 0)
(-0.000233688 5.16859e-07 0)
(-0.000233765 5.26383e-07 0)
(-0.000233842 5.35955e-07 0)
(-0.00023392 5.4557e-07 0)
(-0.000234 5.55228e-07 0)
(-0.00023408 5.64925e-07 0)
(-0.000234162 5.7466e-07 0)
(-0.000234244 5.84428e-07 0)
(-0.000234328 5.94228e-07 0)
(-0.000234412 6.04054e-07 0)
(-0.000234498 6.13903e-07 0)
(-0.000234585 6.23773e-07 0)
(-0.000234673 6.33659e-07 0)
(-0.000234762 6.43555e-07 0)
(-0.000234853 6.5346e-07 0)
(-0.000234946 6.63374e-07 0)
(-0.000235038 6.73288e-07 0)
(-0.000235133 6.83203e-07 0)
(-0.000235229 6.93114e-07 0)
(-0.000235327 7.0302e-07 0)
(-0.000235426 7.12914e-07 0)
(-0.000235526 7.22793e-07 0)
(-0.000235628 7.32651e-07 0)
(-0.000235732 7.42486e-07 0)
(-0.000235837 7.52292e-07 0)
(-0.000235944 7.62067e-07 0)
(-0.000236053 7.71807e-07 0)
(-0.000236163 7.81511e-07 0)
(-0.000236275 7.91176e-07 0)
(-0.000236389 8.00798e-07 0)
(-0.000236506 8.10374e-07 0)
(-0.000236624 8.19899e-07 0)
(-0.000236744 8.29368e-07 0)
(-0.000236866 8.38777e-07 0)
(-0.000236991 8.48122e-07 0)
(-0.000237117 8.57399e-07 0)
(-0.000237246 8.66605e-07 0)
(-0.000237378 8.75738e-07 0)
(-0.000237512 8.84795e-07 0)
(-0.000237649 8.93773e-07 0)
(-0.000237789 9.0267e-07 0)
(-0.000237931 9.11483e-07 0)
(-0.000238076 9.20209e-07 0)
(-0.000238224 9.28844e-07 0)
(-0.000238376 9.37389e-07 0)
(-0.00023853 9.4584e-07 0)
(-0.000238688 9.542e-07 0)
(-0.00023885 9.62469e-07 0)
(-0.000239015 9.7065e-07 0)
(-0.000239184 9.78747e-07 0)
(-0.000239357 9.86765e-07 0)
(-0.000239534 9.94711e-07 0)
(-0.000239716 1.00259e-06 0)
(-0.000239902 1.01041e-06 0)
(-0.000240092 1.01818e-06 0)
(-0.000240288 1.0259e-06 0)
(-0.000240489 1.03357e-06 0)
(-0.000240695 1.04119e-06 0)
(-0.000240906 1.04876e-06 0)
(-0.000241124 1.05627e-06 0)
(-0.000241347 1.06371e-06 0)
(-0.000241577 1.07105e-06 0)
(-0.000241814 1.07829e-06 0)
(-0.000242059 1.08542e-06 0)
(-0.00024231 1.09243e-06 0)
(-0.00024257 1.09933e-06 0)
(-0.000242838 1.10616e-06 0)
(-0.000243116 1.11297e-06 0)
(-0.000243403 1.11985e-06 0)
(-0.0002437 1.12692e-06 0)
(-0.000244008 1.13435e-06 0)
(-0.000244328 1.14235e-06 0)
(-0.000244661 1.15119e-06 0)
(-0.000245008 1.16116e-06 0)
(-0.000245369 1.17255e-06 0)
(-0.000245746 1.18555e-06 0)
(-0.00024614 1.20013e-06 0)
(-0.000246556 1.21587e-06 0)
(-0.000246998 1.23181e-06 0)
(-0.000247468 1.24642e-06 0)
(-0.000247965 1.25797e-06 0)
(-0.000248495 1.2653e-06 0)
(-0.000249084 1.2685e-06 0)
(-0.000249757 1.2688e-06 0)
(-0.000250486 1.26743e-06 0)
(-0.000251343 1.25572e-06 0)
(-0.00025735 1.30187e-06 0)
(-0.000256515 1.38617e-06 0)
(-0.000257715 1.51826e-06 0)
(-0.000259688 1.65549e-06 0)
(-0.000261715 2.51137e-06 0)
(-0.000264472 -4.82459e-07 0)
(-0.000334302 1.31577e-05 0)
(-0.0377514 -4.42058e-05 0)
(-0.17466 -0.000486631 0)
(-0.268432 -0.0001328 0)
(-0.328793 -0.00012837 0)
(-0.368001 -1.6306e-05 0)
(-0.392242 1.26809e-05 0)
(-0.406637 3.80828e-05 0)
(-0.41512 4.52597e-05 0)
(-0.420164 4.73049e-05 0)
(-0.423158 4.71986e-05 0)
(-0.424861 4.60739e-05 0)
(-0.425701 4.44343e-05 0)
(-0.425928 4.25476e-05 0)
(-0.425698 4.05604e-05 0)
(-0.425112 3.85532e-05 0)
(-0.424239 3.65706e-05 0)
(-0.423128 3.46378e-05 0)
(-0.421815 3.27689e-05 0)
(-0.420327 3.09714e-05 0)
(-0.418687 2.92488e-05 0)
(-0.416912 2.76022e-05 0)
(-0.415017 2.6031e-05 0)
(-0.413014 2.4534e-05 0)
(-0.410913 2.31089e-05 0)
(-0.408725 2.17537e-05 0)
(-0.406457 2.04656e-05 0)
(-0.404117 1.92422e-05 0)
(-0.401711 1.80807e-05 0)
(-0.399246 1.69787e-05 0)
(-0.396727 1.59336e-05 0)
(-0.39416 1.49429e-05 0)
(-0.391547 1.40042e-05 0)
(-0.388895 1.31152e-05 0)
(-0.386207 1.22737e-05 0)
(-0.383487 1.14775e-05 0)
(-0.380737 1.07246e-05 0)
(-0.377962 1.00131e-05 0)
(-0.375164 9.34095e-06 0)
(-0.372346 8.70645e-06 0)
(-0.369511 8.10784e-06 0)
(-0.36666 7.54345e-06 0)
(-0.363797 7.0117e-06 0)
(-0.360923 6.51108e-06 0)
(-0.358041 6.04011e-06 0)
(-0.355152 5.59743e-06 0)
(-0.352258 5.18172e-06 0)
(-0.349361 4.79171e-06 0)
(-0.346462 4.42621e-06 0)
(-0.343563 4.08408e-06 0)
(-0.340665 3.76426e-06 0)
(-0.33777 3.46569e-06 0)
(-0.334879 3.18741e-06 0)
(-0.331963 2.92582e-06 0)
(-0.328994 2.67825e-06 0)
(-0.325972 2.44475e-06 0)
(-0.322895 2.22527e-06 0)
(-0.319765 2.0197e-06 0)
(-0.316581 1.8278e-06 0)
(-0.313344 1.64927e-06 0)
(-0.310053 1.48364e-06 0)
(-0.306709 1.3304e-06 0)
(-0.303312 1.18892e-06 0)
(-0.299863 1.05854e-06 0)
(-0.296362 9.38583e-07 0)
(-0.292811 8.28401e-07 0)
(-0.289209 7.27405e-07 0)
(-0.28556 6.35101e-07 0)
(-0.281863 5.51097e-07 0)
(-0.27812 4.75088e-07 0)
(-0.274334 4.06825e-07 0)
(-0.270506 3.46064e-07 0)
(-0.266638 2.9252e-07 0)
(-0.262733 2.45823e-07 0)
(-0.258795 2.05505e-07 0)
(-0.254825 1.7101e-07 0)
(-0.250828 1.41725e-07 0)
(-0.246808 1.17016e-07 0)
(-0.24277 9.62638e-08 0)
(-0.238718 7.89063e-08 0)
(-0.234659 6.44269e-08 0)
(-0.230599 5.24e-08 0)
(-0.226544 4.24383e-08 0)
(-0.222504 3.42368e-08 0)
(-0.218486 2.75003e-08 0)
(-0.214501 2.20732e-08 0)
(-0.21056 1.78346e-08 0)
(-0.206674 1.41941e-08 0)
(-0.202859 1.00327e-08 0)
(-0.199128 5.75832e-09 0)
(-0.195499 2.73181e-09 0)
(-0.191991 8.9413e-10 0)
(-0.188621 -1.38149e-10 0)
(-0.185413 -6.61025e-10 0)
(-0.182387 -8.41311e-10 0)
(-0.179566 -8.18149e-10 0)
(-0.176972 -6.93247e-10 0)
(-0.174627 -5.32118e-10 0)
(-0.172548 -3.77355e-10 0)
(-0.170751 -2.45439e-10 0)
(-0.169244 -1.46661e-10 0)
(-0.168029 -7.7168e-11 0)
(-0.1671 -3.67645e-11 0)
(-0.166448 2.62393e-12 0)
(-0.166055 1.74342e-11 0)
(-0.1659 -2.62086e-12 0)
(-0.16596 -1.51353e-12 0)
(-0.166213 -3.24905e-13 0)
(-0.166637 -1.87924e-13 0)
(-0.167211 -2.61571e-13 0)
(-0.167916 -2.76026e-13 0)
(-0.168735 -2.6209e-13 0)
(-0.169651 -2.47326e-13 0)
(-0.170649 -2.33587e-13 0)
(-0.171715 -2.21074e-13 0)
(-0.172833 -2.08177e-13 0)
(-0.173991 -1.72408e-13 0)
(-0.175174 -1.06168e-13 0)
(-0.176366 -2.93879e-13 0)
(-0.177555 -2.50317e-12 0)
(-0.178723 1.06439e-11 0)
(-0.179854 -2.79023e-11 0)
(-0.18093 5.49362e-11 0)
(-0.18193 -9.3652e-11 0)
(-0.182827 1.43028e-10 0)
(-0.183589 -2.02785e-10 0)
(-0.184151 2.69931e-10 0)
(-0.184335 -3.42456e-10 0)
(-0.184347 4.1745e-10 0)
(-0.184347 -4.94477e-10 0)
(-0.184347 5.72799e-10 0)
(-0.184347 -6.52959e-10 0)
(-0.184347 7.34578e-10 0)
(-0.184347 -8.18108e-10 0)
(-0.184347 9.03259e-10 0)
(-0.184347 -9.90379e-10 0)
(-0.184347 1.07925e-09 0)
(-0.184347 -1.17015e-09 0)
(-0.184347 1.26291e-09 0)
(-0.184347 -1.35771e-09 0)
(-0.184347 1.45451e-09 0)
(-0.184347 -1.55335e-09 0)
(-0.184347 1.65426e-09 0)
(-0.184347 -1.75724e-09 0)
(-0.184347 1.86234e-09 0)
(-0.184347 -1.96951e-09 0)
(-0.184347 2.07883e-09 0)
(-0.184347 -2.19023e-09 0)
(-0.184347 2.30379e-09 0)
(-0.184347 -2.41946e-09 0)
(-0.184347 2.53721e-09 0)
(-0.184347 -2.65706e-09 0)
(-0.184347 2.779e-09 0)
(-0.184347 -2.90297e-09 0)
(-0.184347 3.02902e-09 0)
(-0.184347 -3.15702e-09 0)
(-0.184347 3.28704e-09 0)
(-0.184347 -3.41893e-09 0)
(-0.184347 3.55276e-09 0)
(-0.184347 -3.68834e-09 0)
(-0.184347 3.82576e-09 0)
(-0.184347 -3.96479e-09 0)
(-0.184347 3.60551e-09 0)
(-0.184347 -3.66439e-09 0)
(-0.184347 3.72263e-09 0)
(-0.184347 -3.78013e-09 0)
(-0.184347 3.83695e-09 0)
(-0.184347 -3.89304e-09 0)
(-0.184347 3.94843e-09 0)
(-0.184347 -4.00309e-09 0)
(-0.184347 4.05703e-09 0)
(-0.184347 -4.11025e-09 0)
(-0.184347 4.16272e-09 0)
(-0.184347 -4.21448e-09 0)
(-0.184347 4.26545e-09 0)
(-0.184347 -4.31574e-09 0)
(-0.184347 4.36517e-09 0)
(-0.184347 -4.41396e-09 0)
(-0.184347 4.46182e-09 0)
(-0.184347 -4.50911e-09 0)
(-0.184347 4.55531e-09 0)
(-0.184347 -4.60114e-09 0)
(-0.184347 4.6456e-09 0)
(-0.184347 -4.68999e-09 0)
(-0.184347 4.73261e-09 0)
(-0.184347 -4.77554e-09 0)
(-0.184347 4.81628e-09 0)
(-0.184347 -4.85767e-09 0)
(-0.184347 4.89648e-09 0)
(-0.184347 -4.93629e-09 0)
(-0.184347 4.97309e-09 0)
(-0.184347 -5.01123e-09 0)
(-0.184347 5.046e-09 0)
(-0.184347 -5.08232e-09 0)
(-0.184347 5.11502e-09 0)
(-0.184347 -5.14934e-09 0)
(-0.184347 5.17992e-09 0)
(-0.184347 -5.21217e-09 0)
(-0.184347 5.24043e-09 0)
(-0.184347 -5.27039e-09 0)
(-0.184347 5.29639e-09 0)
(-0.184347 -5.3236e-09 0)
(-0.184347 5.34742e-09 0)
(-0.184347 -5.37124e-09 0)
(-0.184347 5.39299e-09 0)
(-0.184347 -5.41267e-09 0)
(-0.184347 5.4324e-09 0)
(-0.184347 -5.44705e-09 0)
(-0.184347 5.46438e-09 0)
(-0.184347 -5.47246e-09 0)
(-0.184347 5.4854e-09 0)
(-0.184347 -5.48632e-09 0)
)
;

boundaryField
{
    inandouthalf11
    {
        type            cyclic;
    }
    inandouthalf12
    {
        type            cyclic;
    }
    inandouthalf21
    {
        type            cyclic;
    }
    inandouthalf22
    {
        type            cyclic;
    }
    inandouthalf31
    {
        type            cyclic;
    }
    inandouthalf32
    {
        type            cyclic;
    }
    inandouthalf41
    {
        type            cyclic;
    }
    inandouthalf42
    {
        type            cyclic;
    }
    top
    {
        type            symmetryPlane;
    }
    walls
    {
        type            fixedValue;
        value           uniform (0 0 0);
    }
    frontAndBackPlanes
    {
        type            empty;
    }
}


// ************************************************************************* //
