/*--------------------------------*- C++ -*----------------------------------*\
| =========                 |                                                 |
| \\      /  F ield         | OpenFOAM: The Open Source CFD Toolbox           |
|  \\    /   O peration     | Version:  2.4.x                                 |
|   \\  /    A nd           | Web:      www.OpenFOAM.org                      |
|    \\/     M anipulation  |                                                 |
\*---------------------------------------------------------------------------*/
FoamFile
{
    version     2.0;
    format      ascii;
    class       volScalarField;
    location    "11.9";
    object      alpha;
}
// * * * * * * * * * * * * * * * * * * * * * * * * * * * * * * * * * * * * * //

dimensions      [0 0 0 0 0 0 0];

internalField   nonuniform List<scalar> 
360
(
0.610895
0.611763
0.611853
0.611762
0.61172
0.611707
0.61169
0.611668
0.611646
0.611623
0.6116
0.611577
0.611554
0.61153
0.611507
0.611483
0.611459
0.611434
0.61141
0.611385
0.61136
0.611334
0.611309
0.611283
0.611257
0.61123
0.611204
0.611177
0.61115
0.611122
0.611094
0.611066
0.611038
0.611009
0.61098
0.610951
0.610921
0.610891
0.610861
0.610831
0.610799
0.610768
0.610737
0.610704
0.610672
0.610639
0.610606
0.610573
0.610539
0.610504
0.61047
0.610435
0.610399
0.610363
0.610327
0.61029
0.610253
0.610215
0.610176
0.610138
0.610098
0.610059
0.610018
0.609977
0.609936
0.609894
0.609852
0.609808
0.609765
0.609721
0.609676
0.60963
0.609584
0.609537
0.609489
0.609441
0.609392
0.609342
0.609292
0.60924
0.609188
0.609135
0.609081
0.609027
0.608971
0.608914
0.608857
0.608798
0.608739
0.608678
0.608617
0.608554
0.60849
0.608425
0.608358
0.60829
0.608221
0.608151
0.608079
0.608006
0.607931
0.607854
0.607776
0.607696
0.607614
0.607531
0.607445
0.607358
0.607268
0.607176
0.607082
0.606986
0.606887
0.606785
0.606681
0.606574
0.606464
0.60635
0.606234
0.606114
0.60599
0.605863
0.605731
0.605596
0.605455
0.60531
0.60516
0.605004
0.604842
0.604674
0.604499
0.604317
0.604127
0.603926
0.603712
0.603485
0.603244
0.602987
0.602702
0.602378
0.602028
0.601616
0.598783
0.599204
0.598689
0.597838
0.594319
0.428116
0.284819
0.22811
0.192316
0.16256
0.136832
0.114315
0.0947113
0.07785
0.063554
0.0515974
0.0417135
0.0336179
0.027032
0.0216997
0.017396
0.0139297
0.0111414
0.00890043
0.00710073
0.00565645
0.00449807
0.00356864
0.00282128
0.00221904
0.00173602
0.00135565
0.00106457
0.000847452
0.000687285
0.00056856
0.000479199
0.000410587
0.000356792
0.000313762
0.0002787
0.000249654
0.000225231
0.000204423
0.000186486
0.000170863
0.000157129
0.000144955
0.000134086
0.000124317
0.000115484
0.000107457
0.000100127
9.34037e-05
8.72144e-05
8.14965e-05
7.61977e-05
7.12738e-05
6.66872e-05
6.23621e-05
5.82404e-05
5.43111e-05
5.05651e-05
4.69947e-05
4.3594e-05
4.0358e-05
3.72832e-05
3.43666e-05
3.16059e-05
2.89988e-05
2.6543e-05
2.42357e-05
2.20734e-05
2.00521e-05
1.81671e-05
1.64133e-05
1.47853e-05
1.32773e-05
1.18839e-05
1.05996e-05
9.41935e-06
8.33817e-06
7.35125e-06
6.45372e-06
5.64019e-06
4.90374e-06
4.23461e-06
3.61916e-06
3.04067e-06
2.48696e-06
1.97206e-06
1.55154e-06
1.27356e-06
1.09483e-06
9.31671e-07
7.8381e-07
6.38216e-07
5.15953e-07
4.13689e-07
3.2855e-07
2.58066e-07
2.00101e-07
1.52807e-07
1.1456e-07
8.39846e-08
5.98984e-08
4.07732e-08
2.70228e-08
1.51217e-08
8.88818e-09
1.5623e-09
3.27593e-20
3.65454e-31
4.61822e-42
6.86085e-53
1.09771e-63
1.08626e-72
5.56503e-73
2.87843e-73
1.41855e-73
7.03654e-74
3.43619e-74
1.65096e-74
7.80063e-75
3.62277e-75
1.65287e-75
7.40442e-76
3.25497e-76
1.40329e-76
5.92944e-77
2.45391e-77
9.93968e-78
3.93759e-78
1.52435e-78
5.76194e-79
2.12466e-79
7.6354e-80
2.67104e-80
9.08621e-81
3.00259e-81
9.62682e-82
2.99061e-82
8.98872e-83
2.60988e-83
7.30784e-84
1.96971e-84
5.10017e-85
1.26582e-85
3.00405e-86
6.79852e-87
1.4628e-87
2.9823e-88
5.73931e-89
1.03807e-89
1.75589e-90
2.76161e-91
4.01131e-92
5.33794e-93
6.44466e-94
6.9751e-95
6.66539e-96
5.51327e-97
3.84207e-98
2.16953e-99
9.33726e-101
2.74244e-102
4.22516e-104
3.96409e-107
2.35484e-114
1.33669e-116
3.75071e-119
1.62738e-129
3.61899e-140
6.11992e-151
7.53662e-162
8.17824e-173
6.80614e-184
4.9143e-195
7.18391e-206
2.84035e-216
1.45153e-224
7.77075e-235
4.99159e-243
3.17914e-253
1.71903e-261
1.34772e-271
5.93141e-280
8.71679e-290
2.11357e-298
5.81311e-308
7.72892e-317
5.1037e-321
7.96928e-321
7.83094e-321
2.51973e-321
8.86848e-321
4.57737e-319
2.8055e-319
6.80328e-321
7.09478e-321
6.08689e-321
8.5424e-321
0
0
0
0
0
0
0
0
0
0
0
0
0
0
0
0
)
;

boundaryField
{
    inandouthalf11
    {
        type            cyclic;
    }
    inandouthalf12
    {
        type            cyclic;
    }
    inandouthalf21
    {
        type            cyclic;
    }
    inandouthalf22
    {
        type            cyclic;
    }
    inandouthalf31
    {
        type            cyclic;
    }
    inandouthalf32
    {
        type            cyclic;
    }
    inandouthalf41
    {
        type            cyclic;
    }
    inandouthalf42
    {
        type            cyclic;
    }
    top
    {
        type            symmetryPlane;
    }
    walls
    {
        type            zeroGradient;
    }
    frontAndBackPlanes
    {
        type            empty;
    }
}


// ************************************************************************* //
