/*--------------------------------*- C++ -*----------------------------------*\
| =========                 |                                                 |
| \\      /  F ield         | OpenFOAM: The Open Source CFD Toolbox           |
|  \\    /   O peration     | Version:  2.4.x                                 |
|   \\  /    A nd           | Web:      www.OpenFOAM.org                      |
|    \\/     M anipulation  |                                                 |
\*---------------------------------------------------------------------------*/
FoamFile
{
    version     2.0;
    format      ascii;
    class       volScalarField;
    location    "11.9";
    object      ddt0(((1.5*(alpha+1e-08))*rho),Theta);
}
// * * * * * * * * * * * * * * * * * * * * * * * * * * * * * * * * * * * * * //

dimensions      [1 -1 -3 0 0 0 0];

internalField   nonuniform List<scalar> 
360
(
-1.24878e-23
-3.30481e-23
-2.53073e-23
-2.51173e-23
-2.86447e-23
-3.12783e-23
-3.2782e-23
-3.40359e-23
-3.52632e-23
-3.63762e-23
-3.7269e-23
-3.78552e-23
-3.80907e-23
-3.79645e-23
-3.74864e-23
-3.66763e-23
-3.5555e-23
-3.41515e-23
-3.2511e-23
-3.06826e-23
-2.8716e-23
-2.66685e-23
-2.4591e-23
-2.25277e-23
-2.05194e-23
-1.86e-23
-1.67985e-23
-1.51374e-23
-1.3629e-23
-1.22804e-23
-1.10964e-23
-1.00747e-23
-9.21007e-24
-8.4953e-24
-7.91925e-24
-7.47014e-24
-7.137e-24
-6.90804e-24
-6.77031e-24
-6.71181e-24
-6.72318e-24
-6.79309e-24
-6.9123e-24
-7.07408e-24
-7.27042e-24
-7.49475e-24
-7.74047e-24
-8.00204e-24
-8.27862e-24
-8.56619e-24
-8.85842e-24
-9.15403e-24
-9.45214e-24
-9.74949e-24
-1.00449e-23
-1.03376e-23
-1.06253e-23
-1.09071e-23
-1.11803e-23
-1.14454e-23
-1.17053e-23
-1.19576e-23
-1.22015e-23
-1.24357e-23
-1.26581e-23
-1.28697e-23
-1.30719e-23
-1.32624e-23
-1.34373e-23
-1.35999e-23
-1.3757e-23
-1.39025e-23
-1.40317e-23
-1.41511e-23
-1.42625e-23
-1.43611e-23
-1.44426e-23
-1.45088e-23
-1.45634e-23
-1.46048e-23
-1.46327e-23
-1.46498e-23
-1.46579e-23
-1.46556e-23
-1.46427e-23
-1.46185e-23
-1.45821e-23
-1.4532e-23
-1.44685e-23
-1.4393e-23
-1.43066e-23
-1.42107e-23
-1.41072e-23
-1.3997e-23
-1.388e-23
-1.37562e-23
-1.36254e-23
-1.34876e-23
-1.33432e-23
-1.3193e-23
-1.30386e-23
-1.28812e-23
-1.27228e-23
-1.25647e-23
-1.24085e-23
-1.22555e-23
-1.21071e-23
-1.19644e-23
-1.18284e-23
-1.16996e-23
-1.15779e-23
-1.14629e-23
-1.13526e-23
-1.1245e-23
-1.11368e-23
-1.10243e-23
-1.09034e-23
-1.07706e-23
-1.06233e-23
-1.04612e-23
-1.02862e-23
-1.01045e-23
-9.92551e-24
-9.76335e-24
-9.63587e-24
-9.56477e-24
-9.57467e-24
-9.69064e-24
-9.9338e-24
-1.03122e-23
-1.08069e-23
-1.13572e-23
-1.52548e-20
2.08374e-16
1.85896e-15
1.68199e-14
1.59168e-13
1.5599e-12
1.55972e-11
1.58472e-10
1.68332e-09
2.01089e-08
2.98997e-07
6.08976e-06
0.000358696
0.015744
0.199142
1.03828
0.489866
-0.431736
-0.819549
-0.922114
-0.86745
-0.72902
-0.556443
-0.382755
-0.230715
-0.106497
-0.0135636
0.0507501
0.0909725
0.112193
0.119446
0.117071
0.108285
0.0962099
0.0826062
0.0690597
0.0563235
0.044991
0.0352166
0.0270785
0.0205169
0.0154141
0.0116029
0.00883351
0.0068397
0.00539249
0.00432499
0.00352074
0.00290281
0.00241883
0.0020337
0.00172269
0.00146857
0.00125865
0.00108368
0.000936701
0.000812401
0.000706669
0.000616276
0.000538656
0.000471749
0.000413882
0.000363688
0.000320035
0.000281986
0.000248754
0.000219678
0.0001942
0.000171844
0.000152008
0.000134249
0.000118373
0.000104204
9.15774e-05
8.03462e-05
7.03731e-05
6.15344e-05
5.37159e-05
4.68129e-05
4.07286e-05
3.53751e-05
3.06712e-05
2.65433e-05
2.29241e-05
1.97531e-05
1.69758e-05
1.45441e-05
1.24156e-05
1.05534e-05
8.92538e-06
7.50631e-06
6.2713e-06
5.20114e-06
4.27889e-06
3.48853e-06
2.81403e-06
2.23919e-06
1.74794e-06
1.32581e-06
9.63653e-07
6.63909e-07
4.38098e-07
2.83251e-07
1.67034e-07
0
0
0
0
0
0
0
0
0
0
0
0
0
0
0
0
0
0
0
0
0
0
0
0
0
0
0
0
0
0
0
0
0
0
0
0
0
0
0
0
0
0
0
0
0
0
0
0
0
0
0
0
0
0
0
0
0
0
0
0
0
0
0
0
0
0
0
0
0
0
0
0
0
0
0
0
0
0
0
0
0
0
0
0
0
0
0
0
0
0
0
0
0
0
0
0
0
0
0
0
0
0
0
0
0
0
0
0
0
0
0
0
0
0
0
0
0
0
0
0
0
0
0
0
)
;

boundaryField
{
    inandouthalf11
    {
        type            cyclic;
    }
    inandouthalf12
    {
        type            cyclic;
    }
    inandouthalf21
    {
        type            cyclic;
    }
    inandouthalf22
    {
        type            cyclic;
    }
    inandouthalf31
    {
        type            cyclic;
    }
    inandouthalf32
    {
        type            cyclic;
    }
    inandouthalf41
    {
        type            cyclic;
    }
    inandouthalf42
    {
        type            cyclic;
    }
    top
    {
        type            symmetryPlane;
    }
    walls
    {
        type            calculated;
        value           uniform -1.24878e-23;
    }
    frontAndBackPlanes
    {
        type            empty;
    }
}


// ************************************************************************* //
