/*--------------------------------*- C++ -*----------------------------------*\
| =========                 |                                                 |
| \\      /  F ield         | OpenFOAM: The Open Source CFD Toolbox           |
|  \\    /   O peration     | Version:  2.4.x                                 |
|   \\  /    A nd           | Web:      www.OpenFOAM.org                      |
|    \\/     M anipulation  |                                                 |
\*---------------------------------------------------------------------------*/
FoamFile
{
    version     2.0;
    format      ascii;
    class       volScalarField;
    location    "11.9";
    object      ddt0(k);
}
// * * * * * * * * * * * * * * * * * * * * * * * * * * * * * * * * * * * * * //

dimensions      [0 2 -3 0 0 0 0];

internalField   nonuniform List<scalar> 
360
(
0
0
0
0
0
0
0
0
0
0
0
0
0
0
0
0
0
0
0
0
0
0
0
0
0
0
0
0
0
0
0
0
0
0
0
0
0
0
0
0
0
0
0
0
0
0
0
0
0
0
0
0
0
0
0
0
0
0
0
0
0
0
0
0
0
0
0
0
0
0
0
0
0
0
0
0
0
0
0
0
0
0
0
0
0
0
0
0
0
0
0
0
0
0
0
0
0
0
0
0
0
0
0
0
0
0
0
0
0
0
0
0
0
0
0
0
0
0
0
0
0
0
0
0
0
0
0
0
0
0
0
0
0
1.30846e-19
1.16769e-18
1.057e-17
1.00055e-16
9.80672e-16
9.80504e-15
9.96274e-14
1.05877e-12
1.26582e-11
1.88465e-10
3.41228e-09
7.74612e-08
2.25946e-06
7.32593e-05
0.00105544
0.000712334
-0.00120297
-0.00234379
-0.00301471
-0.00330112
-0.00324912
-0.00290803
-0.00233274
-0.00158112
-0.000709722
0.00022985
0.00119292
0.00214248
0.00304902
0.00388986
0.00464825
0.00531229
0.00587385
0.00632758
0.00667003
0.00689893
0.00701281
0.00701102
0.00689454
0.0066672
0.00633682
0.00591549
0.00541923
0.00486743
0.0042818
0.00368461
0.0030965
0.0025346
0.00201129
0.00153403
0.00110588
0.000726442
0.00039301
0.000101521
-0.000152667
-0.00037425
-0.000567658
-0.000736888
-0.000885442
-0.00101633
-0.00113209
-0.00123487
-0.00132645
-0.00140832
-0.00148172
-0.00154767
-0.00160702
-0.0016605
-0.00170919
-0.00175385
-0.00179467
-0.00183182
-0.00186541
-0.00189554
-0.00192229
-0.00194571
-0.00196583
-0.00198268
-0.00199625
-0.00200655
-0.00201355
-0.00201723
-0.00201757
-0.00201453
-0.00200806
-0.00199814
-0.00198471
-0.00196773
-0.00194716
-0.00192296
-0.00189509
-0.00186351
-0.00182821
-0.00178914
-0.0017463
-0.00169967
-0.00164926
-0.00159507
-0.00153713
-0.00147549
-0.00141019
-0.00134134
-0.00126901
-0.00119334
-0.00111448
-0.00103263
-0.000948012
-0.000860904
-0.000771635
-0.000680583
-0.000588196
-0.000494988
-0.000401553
-0.000308569
-0.00021681
-0.000127147
-4.05535e-05
4.18909e-05
0.000119011
0.000189546
0.000252182
0.000305593
0.000348511
0.00037982
0.000398684
0.000404693
0.000398024
0.000379575
0.000351036
0.000314834
0.000273937
0.000231518
0.000190559
0.00015349
0.00012197
9.68355e-05
7.81808e-05
6.55235e-05
5.79769e-05
5.44013e-05
5.35112e-05
5.39281e-05
5.41211e-05
5.17638e-05
4.15468e-05
9.45812e-06
2.93054e-07
3.96207e-09
4.90263e-11
5.70372e-13
6.24056e-15
6.42342e-17
6.14283e-19
0
0
0
0
0
0
0
0
0
0
0
0
0
0
0
0
0
0
0
0
0
0
0
0
0
0
0
0
0
0
0
0
0
0
0
0
0
0
0
0
0
0
0
0
0
0
0
0
0
0
0
0
0
0
0
0
0
0
0
0
0
0
0
0
0
0
0
0
0
0
0
0
0
0
)
;

boundaryField
{
    inandouthalf11
    {
        type            cyclic;
    }
    inandouthalf12
    {
        type            cyclic;
    }
    inandouthalf21
    {
        type            cyclic;
    }
    inandouthalf22
    {
        type            cyclic;
    }
    inandouthalf31
    {
        type            cyclic;
    }
    inandouthalf32
    {
        type            cyclic;
    }
    inandouthalf41
    {
        type            cyclic;
    }
    inandouthalf42
    {
        type            cyclic;
    }
    top
    {
        type            symmetryPlane;
    }
    walls
    {
        type            calculated;
        value           uniform 0;
    }
    frontAndBackPlanes
    {
        type            empty;
    }
}


// ************************************************************************* //
