/*--------------------------------*- C++ -*----------------------------------*\
| =========                 |                                                 |
| \\      /  F ield         | OpenFOAM: The Open Source CFD Toolbox           |
|  \\    /   O peration     | Version:  2.4.x                                 |
|   \\  /    A nd           | Web:      www.OpenFOAM.org                      |
|    \\/     M anipulation  |                                                 |
\*---------------------------------------------------------------------------*/
FoamFile
{
    version     2.0;
    format      ascii;
    class       volScalarField;
    location    "11.9";
    object      ddt0(alpha);
}
// * * * * * * * * * * * * * * * * * * * * * * * * * * * * * * * * * * * * * //

dimensions      [0 0 -1 0 0 0 0];

internalField   nonuniform List<scalar> 
360
(
2.23902e-06
3.35562e-06
3.16582e-06
3.1255e-06
3.29365e-06
3.44924e-06
3.55884e-06
3.65857e-06
3.76263e-06
3.87105e-06
3.9777e-06
4.07677e-06
4.16679e-06
4.24601e-06
4.31434e-06
4.37159e-06
4.41714e-06
4.45031e-06
4.47108e-06
4.48075e-06
4.47786e-06
4.46519e-06
4.44252e-06
4.41079e-06
4.37107e-06
4.3241e-06
4.2706e-06
4.21267e-06
4.15017e-06
4.0841e-06
4.01536e-06
3.94579e-06
3.87347e-06
3.803e-06
3.73096e-06
3.66048e-06
3.59042e-06
3.52248e-06
3.45703e-06
3.39158e-06
3.33058e-06
3.27111e-06
3.21317e-06
3.15967e-06
3.10768e-06
3.05875e-06
3.01266e-06
2.96755e-06
2.92614e-06
2.8883e-06
2.85086e-06
2.81686e-06
2.7844e-06
2.75478e-06
2.72586e-06
2.70058e-06
2.67521e-06
2.65269e-06
2.63097e-06
2.60968e-06
2.59174e-06
2.57343e-06
2.55757e-06
2.5418e-06
2.52714e-06
2.51276e-06
2.49949e-06
2.48664e-06
2.47393e-06
2.4609e-06
2.44952e-06
2.43875e-06
2.42652e-06
2.41589e-06
2.40482e-06
2.39452e-06
2.38296e-06
2.37122e-06
2.35932e-06
2.34726e-06
2.3345e-06
2.32177e-06
2.30894e-06
2.29583e-06
2.28248e-06
2.26859e-06
2.25422e-06
2.23898e-06
2.22291e-06
2.20614e-06
2.18871e-06
2.17068e-06
2.15226e-06
2.13346e-06
2.11425e-06
2.09457e-06
2.07437e-06
2.05358e-06
2.03222e-06
2.01033e-06
1.98799e-06
1.96533e-06
1.94246e-06
1.91949e-06
1.89653e-06
1.87368e-06
1.85103e-06
1.82866e-06
1.80667e-06
1.78508e-06
1.76392e-06
1.74315e-06
1.72266e-06
1.70225e-06
1.68166e-06
1.66053e-06
1.63844e-06
1.61493e-06
1.58957e-06
1.56197e-06
1.53192e-06
1.49947e-06
1.46501e-06
1.42943e-06
1.39421e-06
1.36148e-06
1.3339e-06
1.31437e-06
1.30525e-06
1.30744e-06
1.3191e-06
1.33444e-06
1.34226e-06
1.32366e-06
1.24944e-06
1.08478e-06
8.15838e-07
4.82084e-07
1.67382e-07
-5.1267e-08
-1.65625e-07
-2.77276e-06
1.57751e-06
-5.07459e-07
-1.36026e-07
-2.18248e-06
-0.00314836
-0.11585
-0.032199
1.69965e-05
0.00968793
0.0109929
0.00902571
0.00616089
0.0037096
0.00225526
0.00186525
0.00230048
0.00323439
0.00436283
0.00545614
0.00638424
0.0070795
0.00752465
0.00773111
0.00772019
0.00751975
0.00716279
0.00669546
0.00617471
0.00564366
0.00508781
0.00443885
0.0036652
0.00284336
0.00209843
0.00150498
0.00106756
0.000756254
0.000536744
0.000381386
0.000270378
0.000190148
0.000131496
8.81714e-05
5.5887e-05
3.1663e-05
1.34003e-05
-4.00526e-07
-1.08252e-05
-1.86702e-05
-2.45268e-05
-2.88392e-05
-3.19447e-05
-3.41016e-05
-3.55101e-05
-3.63259e-05
-3.66715e-05
-3.66434e-05
-3.63183e-05
-3.57576e-05
-3.50029e-05
-3.40795e-05
-3.30131e-05
-3.18269e-05
-3.05411e-05
-2.91743e-05
-2.77439e-05
-2.62669e-05
-2.476e-05
-2.32401e-05
-2.17239e-05
-2.02272e-05
-1.87648e-05
-1.73494e-05
-1.59911e-05
-1.46974e-05
-1.34725e-05
-1.23182e-05
-1.12341e-05
-1.02176e-05
-9.26516e-06
-8.37278e-06
-7.53649e-06
-6.75297e-06
-6.02114e-06
-5.34531e-06
-4.73701e-06
-4.21234e-06
-3.78362e-06
-3.4363e-06
-3.08068e-06
-2.5523e-06
-1.80796e-06
-1.13394e-06
-8.44626e-07
-7.43034e-07
-6.92298e-07
-5.95478e-07
-5.04263e-07
-4.19891e-07
-3.43495e-07
-2.75726e-07
-2.16852e-07
-1.66808e-07
-1.25227e-07
-9.1499e-08
-6.49986e-08
-4.44308e-08
-2.97629e-08
-1.87299e-08
-1.08399e-08
-5.3464e-09
-3.41363e-19
-6.17196e-30
-1.16727e-40
-2.12422e-51
-3.69247e-62
-1.92477e-71
-9.69198e-72
-5.02127e-72
-2.48793e-72
-1.23415e-72
-6.02864e-73
-2.89742e-73
-1.36944e-73
-6.36203e-74
-2.90361e-74
-1.30118e-74
-5.72198e-75
-2.46776e-75
-1.04311e-75
-4.31859e-76
-1.74995e-76
-6.93516e-77
-2.68588e-77
-1.01566e-77
-3.74672e-78
-1.34703e-78
-4.71405e-79
-1.6043e-79
-5.30386e-80
-1.70128e-80
-5.28753e-81
-1.59e-81
-4.61878e-82
-1.29392e-82
-3.48931e-83
-9.03948e-84
-2.2447e-84
-5.32998e-85
-1.20689e-85
-2.59826e-86
-5.30028e-87
-1.02062e-87
-1.84713e-88
-3.12635e-89
-4.9202e-90
-7.15149e-91
-9.52327e-92
-1.15061e-92
-1.24625e-93
-1.19186e-94
-9.86683e-96
-6.88223e-97
-3.89009e-98
-1.67609e-99
-4.92934e-101
-7.60818e-103
-7.2369e-106
-4.63559e-113
-2.64241e-115
-7.446e-118
-3.23171e-128
-7.18891e-139
-1.21475e-149
-1.49617e-160
-1.6218e-171
-1.35116e-182
-9.75595e-194
-1.42639e-204
-5.63272e-215
-2.88159e-223
-1.54306e-233
-9.90935e-242
-6.31101e-252
-3.41264e-260
-2.6751e-270
-1.17752e-278
-1.73029e-288
-4.19584e-297
-1.1538e-306
-1.44826e-315
2.80135e-320
0
0
0
0
0
0
0
0
0
0
0
0
0
0
0
0
0
0
0
0
0
0
0
0
0
0
)
;

boundaryField
{
    inandouthalf11
    {
        type            cyclic;
    }
    inandouthalf12
    {
        type            cyclic;
    }
    inandouthalf21
    {
        type            cyclic;
    }
    inandouthalf22
    {
        type            cyclic;
    }
    inandouthalf31
    {
        type            cyclic;
    }
    inandouthalf32
    {
        type            cyclic;
    }
    inandouthalf41
    {
        type            cyclic;
    }
    inandouthalf42
    {
        type            cyclic;
    }
    top
    {
        type            symmetryPlane;
    }
    walls
    {
        type            calculated;
        value           uniform 2.23902e-06;
    }
    frontAndBackPlanes
    {
        type            empty;
    }
}


// ************************************************************************* //
