/*--------------------------------*- C++ -*----------------------------------*\
| =========                 |                                                 |
| \\      /  F ield         | OpenFOAM: The Open Source CFD Toolbox           |
|  \\    /   O peration     | Version:  2.4.x                                 |
|   \\  /    A nd           | Web:      www.OpenFOAM.org                      |
|    \\/     M anipulation  |                                                 |
\*---------------------------------------------------------------------------*/
FoamFile
{
    version     2.0;
    format      ascii;
    class       volVectorField;
    location    "11.9";
    object      gradPs;
}
// * * * * * * * * * * * * * * * * * * * * * * * * * * * * * * * * * * * * * //

dimensions      [0 1 -2 0 0 0 0];

internalField   nonuniform List<vector> 
360
(
(0 1.55758e-18 0)
(0 1.71605e-18 0)
(0 -1.69429e-21 0)
(0 -2.37983e-19 0)
(-1.45026e-32 -9.93445e-20 0)
(-1.45029e-32 -5.42694e-20 0)
(-1.45033e-32 -7.01163e-20 0)
(0 -8.01906e-20 0)
(-2.90087e-32 -8.15386e-20 0)
(0 -8.22254e-20 0)
(-1.45054e-32 -8.25233e-20 0)
(0 -8.28607e-20 0)
(-1.45065e-32 -8.35719e-20 0)
(0 -8.43058e-20 0)
(0 -8.52651e-20 0)
(0 -8.62372e-20 0)
(0 -8.701e-20 0)
(-1.45093e-32 -8.77099e-20 0)
(0 -8.87698e-20 0)
(0 -8.95145e-20 0)
(0 -9.02901e-20 0)
(-2.90234e-32 -9.1401e-20 0)
(0 -9.22074e-20 0)
(0 -9.31467e-20 0)
(0 -9.41109e-20 0)
(-1.45142e-32 -9.48896e-20 0)
(0 -9.59582e-20 0)
(0 -9.70695e-20 0)
(0 -9.7865e-20 0)
(0 -9.8798e-20 0)
(0 -1.00104e-19 0)
(0 -1.00787e-19 0)
(0 -1.02001e-19 0)
(0 -1.03244e-19 0)
(0 -1.04034e-19 0)
(2.90417e-32 -1.05162e-19 0)
(0 -1.06241e-19 0)
(0 -1.07841e-19 0)
(0 -1.08366e-19 0)
(0 -1.0967e-19 0)
(0 -1.11435e-19 0)
(0 -1.11809e-19 0)
(2.90518e-32 -1.13412e-19 0)
(0 -1.14881e-19 0)
(0 -1.15822e-19 0)
(0 -1.17584e-19 0)
(0 -1.18335e-19 0)
(0 -1.19485e-19 0)
(0 -1.21861e-19 0)
(0 -1.22708e-19 0)
(1.45323e-32 -1.23808e-19 0)
(0 -1.25653e-19 0)
(0 -1.27146e-19 0)
(0 -1.28349e-19 0)
(0 -1.30179e-19 0)
(0 -1.31691e-19 0)
(0 -1.33133e-19 0)
(0 -1.35174e-19 0)
(0 -1.36031e-19 0)
(0 -1.38302e-19 0)
(0 -1.40097e-19 0)
(0 -1.41611e-19 0)
(0 -1.43723e-19 0)
(0 -1.45321e-19 0)
(0 -1.47148e-19 0)
(0 -1.49127e-19 0)
(0 -1.51393e-19 0)
(0 -1.53268e-19 0)
(0 -1.54769e-19 0)
(0 -1.57236e-19 0)
(0 -1.60163e-19 0)
(0 -1.61477e-19 0)
(0 -1.63685e-19 0)
(0 -1.66505e-19 0)
(0 -1.68945e-19 0)
(0 -1.71269e-19 0)
(0 -1.73383e-19 0)
(0 -1.76228e-19 0)
(0 -1.79023e-19 0)
(0 -1.81525e-19 0)
(0 -1.84252e-19 0)
(0 -1.87335e-19 0)
(0 -1.90264e-19 0)
(0 -1.9329e-19 0)
(0 -1.9642e-19 0)
(0 -1.9967e-19 0)
(0 -2.02967e-19 0)
(0 -2.06264e-19 0)
(0 -2.09802e-19 0)
(0 -2.13457e-19 0)
(0 -2.17163e-19 0)
(0 -2.21061e-19 0)
(0 -2.25125e-19 0)
(0 -2.2927e-19 0)
(0 -2.33548e-19 0)
(0 -2.37969e-19 0)
(0 -2.42524e-19 0)
(0 -2.47228e-19 0)
(0 -2.52113e-19 0)
(0 -2.57182e-19 0)
(0 -2.62439e-19 0)
(0 -2.67903e-19 0)
(0 -2.73577e-19 0)
(0 -2.79457e-19 0)
(0 -2.85557e-19 0)
(0 -2.91888e-19 0)
(0 -2.98461e-19 0)
(0 -3.05293e-19 0)
(0 -3.12398e-19 0)
(0 -3.19791e-19 0)
(0 -3.27488e-19 0)
(0 -3.35508e-19 0)
(0 -3.43873e-19 0)
(0 -3.52605e-19 0)
(0 -3.61732e-19 0)
(0 -3.71286e-19 0)
(0 -3.81301e-19 0)
(0 -3.91818e-19 0)
(0 -4.02882e-19 0)
(0 -4.14539e-19 0)
(0 -4.26832e-19 0)
(0 -4.39796e-19 0)
(0 -4.53456e-19 0)
(0 -4.67837e-19 0)
(0 -4.82998e-19 0)
(0 -4.99075e-19 0)
(0 -5.16288e-19 0)
(0 -5.34865e-19 0)
(0 -5.54854e-19 0)
(0 -5.75988e-19 0)
(0 -5.98091e-19 0)
(0 -6.23471e-19 0)
(0 1.58042e-16 0)
(0 2.33105e-15 0)
(0 2.23025e-14 0)
(0 2.18244e-13 0)
(0 2.30154e-12 0)
(0 2.63258e-11 0)
(0 3.29043e-10 0)
(0 4.55487e-09 0)
(0 7.13989e-08 0)
(0 1.29471e-06 0)
(0 3.00875e-05 0)
(0 0.00165163 0)
(0 0.0941222 0)
(0 1.67137 0)
(0 3.98172 0)
(0 3.08877 0)
(0 -1.41526 0)
(0 -2.86646 0)
(0 -3.46014 0)
(0 -3.57101 0)
(0 -3.5534 0)
(0 -3.49648 0)
(0 -3.42517 0)
(0 -3.35061 0)
(0 -3.27704 0)
(0 -3.20533 0)
(0 -3.13496 0)
(0 -3.06489 0)
(0 -2.99421 0)
(0 -2.92219 0)
(0 -2.84839 0)
(0 -2.77276 0)
(0 -2.69539 0)
(0 -2.61655 0)
(0 -2.53667 0)
(0 -2.45662 0)
(0 -2.37868 0)
(0 -2.30747 0)
(0 -2.2481 0)
(0 -2.19856 0)
(0 -2.14174 0)
(0 -2.05044 0)
(0 -1.90877 0)
(0 -1.72745 0)
(0 -1.5337 0)
(0 -1.35093 0)
(0 -1.1903 0)
(0 -1.05388 0)
(0 -0.939599 0)
(0 -0.84413 0)
(0 -0.76417 0)
(0 -0.696859 0)
(0 -0.639851 0)
(0 -0.59126 0)
(0 -0.549588 0)
(0 -0.513638 0)
(0 -0.482456 0)
(0 -0.455272 0)
(0 -0.431465 0)
(0 -0.410527 0)
(0 -0.39204 0)
(0 -0.375659 0)
(0 -0.361096 0)
(0 -0.348107 0)
(0 -0.336484 0)
(0 -0.326048 0)
(0 -0.316641 0)
(0 -0.308121 0)
(0 -0.300348 0)
(0 -0.29318 0)
(-1.37312e-16 -0.286472 0)
(0 -0.280124 0)
(0 -0.274045 0)
(1.54787e-16 -0.268138 0)
(0 -0.262302 0)
(-1.68286e-16 -0.256434 0)
(0 -0.250435 0)
(9.17436e-17 -0.244218 0)
(0 -0.237707 0)
(0 -0.230852 0)
(0 -0.22362 0)
(1.0971e-16 -0.216003 0)
(0 -0.20801 0)
(0 -0.199663 0)
(0 -0.190993 0)
(0 -0.182029 0)
(0 -0.172799 0)
(-7.15158e-17 -0.163326 0)
(0 -0.153629 0)
(-7.76287e-17 -0.143726 0)
(0 -0.133644 0)
(-4.18834e-17 -0.12343 0)
(0 -0.113153 0)
(0 -0.102923 0)
(0 -0.0929125 0)
(0 -0.0833876 0)
(2.43999e-17 -0.0746637 0)
(2.49952e-17 -0.0669725 0)
(0 -0.0601306 0)
(0 -0.0529941 0)
(0 -0.0437593 0)
(0 -0.0326157 0)
(0 -0.0235486 0)
(0 -0.0248029 0)
(0 -0.0148241 0)
(0 0 0)
(0 0 0)
(0 0 0)
(0 0 0)
(0 0 0)
(0 0 0)
(0 0 0)
(0 0 0)
(0 0 0)
(0 0 0)
(0 0 0)
(0 0 0)
(0 0 0)
(0 0 0)
(0 0 0)
(0 0 0)
(0 0 0)
(0 0 0)
(0 0 0)
(0 0 0)
(0 0 0)
(0 0 0)
(0 0 0)
(0 0 0)
(0 0 0)
(0 0 0)
(0 0 0)
(0 0 0)
(0 0 0)
(0 0 0)
(0 0 0)
(0 0 0)
(0 0 0)
(0 0 0)
(0 0 0)
(0 0 0)
(0 0 0)
(0 0 0)
(0 0 0)
(0 0 0)
(0 0 0)
(0 0 0)
(0 0 0)
(0 0 0)
(0 0 0)
(0 0 0)
(0 0 0)
(0 0 0)
(0 0 0)
(0 0 0)
(0 0 0)
(0 0 0)
(0 0 0)
(0 0 0)
(0 0 0)
(0 0 0)
(0 0 0)
(0 0 0)
(0 0 0)
(0 0 0)
(0 0 0)
(0 0 0)
(0 0 0)
(0 0 0)
(0 0 0)
(0 0 0)
(0 0 0)
(0 0 0)
(0 0 0)
(0 0 0)
(0 0 0)
(0 0 0)
(0 0 0)
(0 0 0)
(0 0 0)
(0 0 0)
(0 0 0)
(0 0 0)
(0 0 0)
(0 0 0)
(0 0 0)
(0 0 0)
(0 0 0)
(0 0 0)
(0 0 0)
(0 0 0)
(0 0 0)
(0 0 0)
(0 0 0)
(0 0 0)
(0 0 0)
(0 0 0)
(0 0 0)
(0 0 0)
(0 0 0)
(0 0 0)
(0 0 0)
(0 0 0)
(0 0 0)
(0 0 0)
(0 0 0)
(0 0 0)
(0 0 0)
(0 0 0)
(0 0 0)
(0 0 0)
(0 0 0)
(0 0 0)
(0 0 0)
(0 0 0)
(0 0 0)
(0 0 0)
(0 0 0)
(0 0 0)
(0 0 0)
(0 0 0)
(0 0 0)
(0 0 0)
(0 0 0)
(0 0 0)
(0 0 0)
(0 0 0)
(0 0 0)
)
;

boundaryField
{
    inandouthalf11
    {
        type            cyclic;
    }
    inandouthalf12
    {
        type            cyclic;
    }
    inandouthalf21
    {
        type            cyclic;
    }
    inandouthalf22
    {
        type            cyclic;
    }
    inandouthalf31
    {
        type            cyclic;
    }
    inandouthalf32
    {
        type            cyclic;
    }
    inandouthalf41
    {
        type            cyclic;
    }
    inandouthalf42
    {
        type            cyclic;
    }
    top
    {
        type            symmetryPlane;
    }
    walls
    {
        type            calculated;
        value           uniform (0 0 0);
    }
    frontAndBackPlanes
    {
        type            empty;
    }
}


// ************************************************************************* //
