/*--------------------------------*- C++ -*----------------------------------*\
| =========                 |                                                 |
| \\      /  F ield         | OpenFOAM: The Open Source CFD Toolbox           |
|  \\    /   O peration     | Version:  2.4.x                                 |
|   \\  /    A nd           | Web:      www.OpenFOAM.org                      |
|    \\/     M anipulation  |                                                 |
\*---------------------------------------------------------------------------*/
FoamFile
{
    version     2.0;
    format      ascii;
    class       surfaceScalarField;
    location    "11.9";
    object      phib_0;
}
// * * * * * * * * * * * * * * * * * * * * * * * * * * * * * * * * * * * * * //

dimensions      [0 3 -1 0 0 0 0];

internalField   nonuniform List<scalar> 
359
(
1.14997e-14
2.8816e-14
4.51306e-14
6.12147e-14
7.81708e-14
9.59296e-14
1.1425e-13
1.33081e-13
1.52446e-13
1.72367e-13
1.92834e-13
2.13809e-13
2.35245e-13
2.57087e-13
2.79277e-13
3.01759e-13
3.24473e-13
3.47355e-13
3.70341e-13
3.93373e-13
4.16388e-13
4.39335e-13
4.62161e-13
4.84822e-13
5.07275e-13
5.29483e-13
5.51413e-13
5.73041e-13
5.94345e-13
6.15306e-13
6.3591e-13
6.56153e-13
6.7602e-13
6.95522e-13
7.1465e-13
7.33413e-13
7.51812e-13
7.69858e-13
7.87564e-13
8.04931e-13
8.2198e-13
8.38721e-13
8.55161e-13
8.71322e-13
8.87212e-13
9.02847e-13
9.18243e-13
9.33403e-13
9.48346e-13
9.63092e-13
9.77642e-13
9.92013e-13
1.00621e-12
1.02026e-12
1.03415e-12
1.04791e-12
1.06154e-12
1.07504e-12
1.08843e-12
1.10171e-12
1.11489e-12
1.12797e-12
1.14097e-12
1.15388e-12
1.16671e-12
1.17947e-12
1.19215e-12
1.20476e-12
1.2173e-12
1.22977e-12
1.24217e-12
1.25452e-12
1.2668e-12
1.27902e-12
1.29117e-12
1.30327e-12
1.3153e-12
1.32727e-12
1.33917e-12
1.35101e-12
1.36277e-12
1.37446e-12
1.38608e-12
1.39762e-12
1.4091e-12
1.42049e-12
1.4318e-12
1.44303e-12
1.45417e-12
1.46521e-12
1.47616e-12
1.48701e-12
1.49775e-12
1.5084e-12
1.51893e-12
1.52936e-12
1.53967e-12
1.54987e-12
1.55995e-12
1.56991e-12
1.57974e-12
1.58945e-12
1.59903e-12
1.60849e-12
1.61781e-12
1.62701e-12
1.63608e-12
1.64502e-12
1.65384e-12
1.66253e-12
1.6711e-12
1.67955e-12
1.68789e-12
1.6961e-12
1.70419e-12
1.71216e-12
1.72e-12
1.7277e-12
1.73525e-12
1.74264e-12
1.74986e-12
1.75689e-12
1.76373e-12
1.77035e-12
1.77678e-12
1.78301e-12
1.78907e-12
1.795e-12
1.80086e-12
1.80669e-12
1.81254e-12
1.81843e-12
1.82431e-12
1.83003e-12
1.83532e-12
1.8397e-12
1.84266e-12
1.84383e-12
1.84326e-12
1.84144e-12
1.83884e-12
1.8264e-12
1.81832e-12
1.81834e-12
1.8134e-12
1.79683e-12
-9.83699e-12
-3.59404e-10
-4.04721e-10
-3.81026e-10
-3.42392e-10
-3.05467e-10
-2.76481e-10
-2.56283e-10
-2.43096e-10
-2.34206e-10
-2.27016e-10
-2.19617e-10
-2.1087e-10
-2.003e-10
-1.87917e-10
-1.73994e-10
-1.58946e-10
-1.43225e-10
-1.27264e-10
-1.1146e-10
-9.61601e-11
-8.16521e-11
-6.81357e-11
-5.57017e-11
-4.43586e-11
-3.41471e-11
-2.52472e-11
-1.79032e-11
-1.22083e-11
-8.00644e-12
-4.99332e-12
-2.85615e-12
-1.34225e-12
-2.67797e-13
4.95673e-13
1.03695e-12
1.41764e-12
1.68093e-12
1.85752e-12
1.96949e-12
2.03297e-12
2.05991e-12
2.05922e-12
2.03766e-12
2.00041e-12
1.95143e-12
1.89382e-12
1.82999e-12
1.76184e-12
1.69087e-12
1.61826e-12
1.54496e-12
1.47171e-12
1.39911e-12
1.32763e-12
1.25624e-12
1.18531e-12
1.11522e-12
1.04627e-12
9.78756e-13
9.12958e-13
8.49116e-13
7.87446e-13
7.28134e-13
6.71332e-13
6.17159e-13
5.65694e-13
5.16981e-13
4.71027e-13
4.27812e-13
3.87287e-13
3.49386e-13
3.14028e-13
2.81127e-13
2.50596e-13
2.22349e-13
1.96304e-13
1.72384e-13
1.50516e-13
1.30622e-13
1.12602e-13
9.63087e-14
8.15253e-14
6.79768e-14
5.54221e-14
4.39381e-14
3.42305e-14
2.72141e-14
2.27238e-14
1.93111e-14
1.62482e-14
1.33364e-14
1.07807e-14
8.57245e-15
6.69619e-15
5.12999e-15
3.84711e-15
2.81753e-15
2.00931e-15
1.39008e-15
9.28294e-16
5.93422e-16
3.59701e-16
1.99786e-16
9.69243e-17
5.70188e-17
7.61238e-17
4.57566e-18
4.12207e-18
3.67547e-18
3.26021e-18
2.85337e-18
2.47937e-18
2.11376e-18
1.77683e-18
1.44762e-18
1.13906e-18
8.30548e-19
5.3194e-19
2.34293e-19
-4.40176e-20
-3.09996e-19
-5.58928e-19
-7.85115e-19
-9.86472e-19
-1.17148e-18
-1.35574e-18
-1.51634e-18
-1.65086e-18
-1.74185e-18
-1.82761e-18
-1.86605e-18
-1.89037e-18
-1.89749e-18
-1.94821e-18
-1.98441e-18
-2.01562e-18
-1.98949e-18
-1.98369e-18
-1.91046e-18
-1.82205e-18
-1.68578e-18
-1.60404e-18
-1.48413e-18
-1.36161e-18
-1.17993e-18
-1.02899e-18
-8.42225e-19
-6.67023e-19
-4.90734e-19
-4.52365e-19
-4.1376e-19
-3.94826e-19
-3.21122e-19
-3.17754e-19
-3.02865e-19
-2.90842e-19
-2.69251e-19
-2.67241e-19
-2.61728e-19
-2.58546e-19
-2.46669e-19
-2.41399e-19
-2.31006e-19
-2.22646e-19
-2.14927e-19
-2.137e-19
-2.13879e-19
-2.1537e-19
-2.15364e-19
-2.17433e-19
-2.18687e-19
-2.21296e-19
-2.253e-19
-2.34879e-19
-2.45737e-19
-2.58508e-19
-2.72676e-19
-2.96738e-19
-3.28243e-19
-3.78612e-19
-4.51678e-19
-6.84714e-19
-9.36208e-19
-1.20623e-18
-1.47173e-18
-1.76496e-18
-2.02999e-18
-2.30236e-18
-2.54531e-18
-2.87752e-18
-3.15426e-18
-3.43791e-18
-3.62951e-18
-3.92837e-18
-4.08323e-18
-4.27873e-18
-4.43884e-18
-4.93357e-18
-5.30742e-18
-5.72272e-18
-5.82118e-18
-6.2156e-18
-6.21465e-18
-6.26432e-18
-5.94955e-18
-6.3924e-18
-6.4406e-18
-6.57412e-18
-6.12913e-18
-6.63494e-18
-6.60068e-18
-5.85661e-18
)
;

boundaryField
{
    inandouthalf11
    {
        type            cyclic;
        value           nonuniform List<scalar> 
100
(
4.05143e-11
4.02885e-11
4.02591e-11
4.02906e-11
4.03058e-11
4.03113e-11
4.03182e-11
4.03267e-11
4.03356e-11
4.03445e-11
4.03535e-11
4.03626e-11
4.03717e-11
4.0381e-11
4.03904e-11
4.03999e-11
4.04095e-11
4.04192e-11
4.0429e-11
4.04389e-11
4.04489e-11
4.0459e-11
4.04692e-11
4.04794e-11
4.04898e-11
4.05002e-11
4.05107e-11
4.05213e-11
4.0532e-11
4.05427e-11
4.05536e-11
4.05645e-11
4.05755e-11
4.05867e-11
4.05978e-11
4.06091e-11
4.06204e-11
4.06319e-11
4.06435e-11
4.06551e-11
4.06669e-11
4.06788e-11
4.06907e-11
4.07028e-11
4.0715e-11
4.07273e-11
4.07397e-11
4.07522e-11
4.07649e-11
4.07778e-11
4.07906e-11
4.08037e-11
4.08169e-11
4.08303e-11
4.08437e-11
4.08575e-11
4.08712e-11
4.08852e-11
4.08994e-11
4.09136e-11
4.09281e-11
4.09427e-11
4.09576e-11
4.09726e-11
4.09878e-11
4.10031e-11
4.10187e-11
4.10345e-11
4.10505e-11
4.10667e-11
4.10832e-11
4.10999e-11
4.11167e-11
4.11338e-11
4.11512e-11
4.11689e-11
4.11867e-11
4.12048e-11
4.12233e-11
4.1242e-11
4.12609e-11
4.12802e-11
4.12998e-11
4.13197e-11
4.13399e-11
4.13604e-11
4.13813e-11
4.14025e-11
4.14241e-11
4.14461e-11
4.14685e-11
4.14912e-11
4.15144e-11
4.1538e-11
4.1562e-11
4.15865e-11
4.16115e-11
4.1637e-11
4.1663e-11
4.16895e-11
)
;
    }
    inandouthalf12
    {
        type            cyclic;
        value           nonuniform List<scalar> 
100
(
-4.05143e-11
-4.02885e-11
-4.02591e-11
-4.02906e-11
-4.03058e-11
-4.03113e-11
-4.03182e-11
-4.03267e-11
-4.03356e-11
-4.03445e-11
-4.03535e-11
-4.03626e-11
-4.03717e-11
-4.0381e-11
-4.03904e-11
-4.03999e-11
-4.04095e-11
-4.04192e-11
-4.0429e-11
-4.04389e-11
-4.04489e-11
-4.0459e-11
-4.04692e-11
-4.04794e-11
-4.04898e-11
-4.05002e-11
-4.05107e-11
-4.05213e-11
-4.0532e-11
-4.05427e-11
-4.05536e-11
-4.05645e-11
-4.05755e-11
-4.05867e-11
-4.05978e-11
-4.06091e-11
-4.06204e-11
-4.06319e-11
-4.06435e-11
-4.06551e-11
-4.06669e-11
-4.06788e-11
-4.06907e-11
-4.07028e-11
-4.0715e-11
-4.07273e-11
-4.07397e-11
-4.07522e-11
-4.07649e-11
-4.07778e-11
-4.07906e-11
-4.08037e-11
-4.08169e-11
-4.08303e-11
-4.08437e-11
-4.08575e-11
-4.08712e-11
-4.08852e-11
-4.08994e-11
-4.09136e-11
-4.09281e-11
-4.09427e-11
-4.09576e-11
-4.09726e-11
-4.09878e-11
-4.10031e-11
-4.10187e-11
-4.10345e-11
-4.10505e-11
-4.10667e-11
-4.10832e-11
-4.10999e-11
-4.11167e-11
-4.11338e-11
-4.11512e-11
-4.11689e-11
-4.11867e-11
-4.12048e-11
-4.12233e-11
-4.1242e-11
-4.12609e-11
-4.12802e-11
-4.12998e-11
-4.13197e-11
-4.13399e-11
-4.13604e-11
-4.13813e-11
-4.14025e-11
-4.14241e-11
-4.14461e-11
-4.14685e-11
-4.14912e-11
-4.15144e-11
-4.1538e-11
-4.1562e-11
-4.15865e-11
-4.16115e-11
-4.1637e-11
-4.1663e-11
-4.16895e-11
)
;
    }
    inandouthalf21
    {
        type            cyclic;
        value           nonuniform List<scalar> 
100
(
4.17165e-11
4.17442e-11
4.17724e-11
4.18012e-11
4.18307e-11
4.18608e-11
4.18917e-11
4.19233e-11
4.19556e-11
4.19887e-11
4.20226e-11
4.20574e-11
4.20931e-11
4.21297e-11
4.21673e-11
4.2206e-11
4.22457e-11
4.22865e-11
4.23286e-11
4.23719e-11
4.24166e-11
4.24626e-11
4.25102e-11
4.25593e-11
4.26101e-11
4.26627e-11
4.27171e-11
4.27736e-11
4.28324e-11
4.28935e-11
4.29571e-11
4.30234e-11
4.30928e-11
4.31661e-11
4.32442e-11
4.33275e-11
4.34155e-11
4.35094e-11
4.36132e-11
4.37315e-11
4.38592e-11
4.40108e-11
4.50577e-11
4.4902e-11
4.50945e-11
4.55254e-11
1.52637e-10
3.51923e-08
1.44754e-07
2.38938e-07
3.1563e-07
3.80117e-07
4.35544e-07
4.83902e-07
5.26589e-07
5.64638e-07
5.98835e-07
6.29793e-07
6.57994e-07
6.83823e-07
7.07587e-07
7.29534e-07
7.49865e-07
7.68742e-07
7.86297e-07
8.02636e-07
8.17844e-07
8.3199e-07
8.45127e-07
8.57298e-07
8.68534e-07
8.7886e-07
8.88298e-07
8.96866e-07
9.04584e-07
9.1148e-07
9.17585e-07
9.2294e-07
9.27595e-07
9.31605e-07
9.35028e-07
9.37928e-07
9.40364e-07
9.42394e-07
9.44071e-07
9.45442e-07
9.46548e-07
9.47426e-07
9.48107e-07
9.48616e-07
9.48975e-07
9.49203e-07
9.49316e-07
9.49325e-07
9.49244e-07
9.4908e-07
9.48843e-07
9.48538e-07
9.48172e-07
9.4775e-07
)
;
    }
    inandouthalf22
    {
        type            cyclic;
        value           nonuniform List<scalar> 
100
(
-4.17165e-11
-4.17442e-11
-4.17724e-11
-4.18012e-11
-4.18307e-11
-4.18608e-11
-4.18917e-11
-4.19233e-11
-4.19556e-11
-4.19887e-11
-4.20226e-11
-4.20574e-11
-4.20931e-11
-4.21297e-11
-4.21673e-11
-4.2206e-11
-4.22457e-11
-4.22865e-11
-4.23286e-11
-4.23719e-11
-4.24166e-11
-4.24626e-11
-4.25102e-11
-4.25593e-11
-4.26101e-11
-4.26627e-11
-4.27171e-11
-4.27736e-11
-4.28324e-11
-4.28935e-11
-4.29571e-11
-4.30234e-11
-4.30928e-11
-4.31661e-11
-4.32442e-11
-4.33275e-11
-4.34155e-11
-4.35094e-11
-4.36132e-11
-4.37315e-11
-4.38592e-11
-4.40108e-11
-4.50577e-11
-4.4902e-11
-4.50945e-11
-4.55254e-11
-1.52637e-10
-3.51923e-08
-1.44754e-07
-2.38938e-07
-3.1563e-07
-3.80117e-07
-4.35544e-07
-4.83902e-07
-5.26589e-07
-5.64638e-07
-5.98835e-07
-6.29793e-07
-6.57994e-07
-6.83823e-07
-7.07587e-07
-7.29534e-07
-7.49865e-07
-7.68742e-07
-7.86297e-07
-8.02636e-07
-8.17844e-07
-8.3199e-07
-8.45127e-07
-8.57298e-07
-8.68534e-07
-8.7886e-07
-8.88298e-07
-8.96866e-07
-9.04584e-07
-9.1148e-07
-9.17585e-07
-9.2294e-07
-9.27595e-07
-9.31605e-07
-9.35028e-07
-9.37928e-07
-9.40364e-07
-9.42394e-07
-9.44071e-07
-9.45442e-07
-9.46548e-07
-9.47426e-07
-9.48107e-07
-9.48616e-07
-9.48975e-07
-9.49203e-07
-9.49316e-07
-9.49325e-07
-9.49244e-07
-9.4908e-07
-9.48843e-07
-9.48538e-07
-9.48172e-07
-9.4775e-07
)
;
    }
    inandouthalf31
    {
        type            cyclic;
        value           nonuniform List<scalar> 
110
(
9.4728e-07
9.6597e-07
9.84969e-07
1.00428e-06
1.02391e-06
1.04386e-06
1.06413e-06
1.08473e-06
1.10567e-06
1.12694e-06
1.14854e-06
1.17049e-06
1.19278e-06
1.21542e-06
1.23842e-06
1.26176e-06
1.28547e-06
1.30953e-06
1.33396e-06
1.35875e-06
1.38392e-06
1.40945e-06
1.43536e-06
1.46165e-06
1.48833e-06
1.51539e-06
1.54283e-06
1.57067e-06
1.59891e-06
1.62755e-06
1.65659e-06
1.68604e-06
1.71591e-06
1.7462e-06
1.77691e-06
1.80807e-06
1.83966e-06
1.87171e-06
1.90421e-06
1.93719e-06
1.97066e-06
2.00463e-06
2.03911e-06
2.07414e-06
2.10971e-06
2.14588e-06
2.18265e-06
2.22006e-06
2.25816e-06
2.29697e-06
2.33656e-06
2.37697e-06
2.41827e-06
2.46051e-06
2.5038e-06
2.54819e-06
2.5938e-06
2.64072e-06
2.68906e-06
2.73892e-06
2.79041e-06
2.84364e-06
2.89868e-06
2.95562e-06
3.0145e-06
3.07536e-06
3.1382e-06
3.20301e-06
3.26979e-06
3.33849e-06
3.40907e-06
3.48148e-06
3.55566e-06
3.63153e-06
3.709e-06
3.78797e-06
3.86826e-06
3.94967e-06
4.03126e-06
4.11325e-06
4.19674e-06
4.28192e-06
4.36884e-06
4.45751e-06
4.54799e-06
4.6403e-06
4.73449e-06
4.83058e-06
4.92863e-06
5.02867e-06
5.13074e-06
5.23488e-06
5.34113e-06
5.44954e-06
5.56015e-06
5.67301e-06
5.78816e-06
5.90564e-06
6.02551e-06
6.14781e-06
6.2726e-06
6.39991e-06
6.52981e-06
6.66235e-06
6.79758e-06
6.93555e-06
7.07633e-06
7.21996e-06
7.3665e-06
7.51602e-06
)
;
    }
    inandouthalf32
    {
        type            cyclic;
        value           nonuniform List<scalar> 
110
(
-9.4728e-07
-9.6597e-07
-9.84969e-07
-1.00428e-06
-1.02391e-06
-1.04386e-06
-1.06413e-06
-1.08473e-06
-1.10567e-06
-1.12694e-06
-1.14854e-06
-1.17049e-06
-1.19278e-06
-1.21542e-06
-1.23842e-06
-1.26176e-06
-1.28547e-06
-1.30953e-06
-1.33396e-06
-1.35875e-06
-1.38392e-06
-1.40945e-06
-1.43536e-06
-1.46165e-06
-1.48833e-06
-1.51539e-06
-1.54283e-06
-1.57067e-06
-1.59891e-06
-1.62755e-06
-1.65659e-06
-1.68604e-06
-1.71591e-06
-1.7462e-06
-1.77691e-06
-1.80807e-06
-1.83966e-06
-1.87171e-06
-1.90421e-06
-1.93719e-06
-1.97066e-06
-2.00463e-06
-2.03911e-06
-2.07414e-06
-2.10971e-06
-2.14588e-06
-2.18265e-06
-2.22006e-06
-2.25816e-06
-2.29697e-06
-2.33656e-06
-2.37697e-06
-2.41827e-06
-2.46051e-06
-2.5038e-06
-2.54819e-06
-2.5938e-06
-2.64072e-06
-2.68906e-06
-2.73892e-06
-2.79041e-06
-2.84364e-06
-2.89868e-06
-2.95562e-06
-3.0145e-06
-3.07536e-06
-3.1382e-06
-3.20301e-06
-3.26979e-06
-3.33849e-06
-3.40907e-06
-3.48148e-06
-3.55566e-06
-3.63153e-06
-3.709e-06
-3.78797e-06
-3.86826e-06
-3.94967e-06
-4.03126e-06
-4.11325e-06
-4.19674e-06
-4.28192e-06
-4.36884e-06
-4.45751e-06
-4.54799e-06
-4.6403e-06
-4.73449e-06
-4.83058e-06
-4.92863e-06
-5.02867e-06
-5.13074e-06
-5.23488e-06
-5.34113e-06
-5.44954e-06
-5.56015e-06
-5.67301e-06
-5.78816e-06
-5.90564e-06
-6.02551e-06
-6.14781e-06
-6.2726e-06
-6.39991e-06
-6.52981e-06
-6.66235e-06
-6.79758e-06
-6.93555e-06
-7.07633e-06
-7.21996e-06
-7.3665e-06
-7.51602e-06
)
;
    }
    inandouthalf41
    {
        type            cyclic;
        value           nonuniform List<scalar> 
50
(
6.72761e-06
6.72761e-06
6.72761e-06
6.72761e-06
6.72761e-06
6.72761e-06
6.72761e-06
6.72761e-06
6.72761e-06
6.72761e-06
6.72761e-06
6.72761e-06
6.72761e-06
6.72761e-06
6.72761e-06
6.72761e-06
6.72761e-06
6.72761e-06
6.72761e-06
6.72761e-06
6.72761e-06
6.72761e-06
6.72761e-06
6.72761e-06
6.72761e-06
6.72761e-06
6.72761e-06
6.72761e-06
6.72761e-06
6.72761e-06
6.72761e-06
6.72761e-06
6.72761e-06
6.72761e-06
6.72761e-06
6.72761e-06
6.72761e-06
6.72761e-06
6.72761e-06
6.72761e-06
6.72761e-06
6.72761e-06
6.72761e-06
6.72761e-06
6.72761e-06
6.72761e-06
6.72761e-06
6.72761e-06
6.72761e-06
6.72761e-06
)
;
    }
    inandouthalf42
    {
        type            cyclic;
        value           nonuniform List<scalar> 
50
(
-6.72761e-06
-6.72761e-06
-6.72761e-06
-6.72761e-06
-6.72761e-06
-6.72761e-06
-6.72761e-06
-6.72761e-06
-6.72761e-06
-6.72761e-06
-6.72761e-06
-6.72761e-06
-6.72761e-06
-6.72761e-06
-6.72761e-06
-6.72761e-06
-6.72761e-06
-6.72761e-06
-6.72761e-06
-6.72761e-06
-6.72761e-06
-6.72761e-06
-6.72761e-06
-6.72761e-06
-6.72761e-06
-6.72761e-06
-6.72761e-06
-6.72761e-06
-6.72761e-06
-6.72761e-06
-6.72761e-06
-6.72761e-06
-6.72761e-06
-6.72761e-06
-6.72761e-06
-6.72761e-06
-6.72761e-06
-6.72761e-06
-6.72761e-06
-6.72761e-06
-6.72761e-06
-6.72761e-06
-6.72761e-06
-6.72761e-06
-6.72761e-06
-6.72761e-06
-6.72761e-06
-6.72761e-06
-6.72761e-06
-6.72761e-06
)
;
    }
    top
    {
        type            symmetryPlane;
        value           uniform 0;
    }
    walls
    {
        type            fixedValue;
        value           uniform 0;
    }
    frontAndBackPlanes
    {
        type            empty;
        value           nonuniform 0();
    }
}


// ************************************************************************* //
