/*--------------------------------*- C++ -*----------------------------------*\
| =========                 |                                                 |
| \\      /  F ield         | OpenFOAM: The Open Source CFD Toolbox           |
|  \\    /   O peration     | Version:  2.4.x                                 |
|   \\  /    A nd           | Web:      www.OpenFOAM.org                      |
|    \\/     M anipulation  |                                                 |
\*---------------------------------------------------------------------------*/
FoamFile
{
    version     2.0;
    format      ascii;
    class       volTensorField;
    location    "11.9";
    object      Tauf;
}
// * * * * * * * * * * * * * * * * * * * * * * * * * * * * * * * * * * * * * //

dimensions      [0 2 -2 0 0 0 0];

internalField   nonuniform List<tensor> 
360
(
(0 -8.07525e-08 0 -8.07525e-08 1.28477e-11 0 0 0 0)
(0 2.54989e-10 0 2.54989e-10 1.56453e-11 0 0 0 0)
(0 -2.04235e-12 0 -2.04235e-12 1.65638e-11 0 0 0 0)
(0 -4.66541e-11 0 -4.66541e-11 1.63624e-11 0 0 0 0)
(6.46235e-24 -2.07384e-11 0 -2.07384e-11 1.69328e-11 0 0 0 0)
(6.46235e-24 -1.23494e-11 0 -1.23494e-11 1.7692e-11 0 0 0 0)
(1.29247e-23 -1.54118e-11 0 -1.54118e-11 1.83034e-11 0 0 0 0)
(0 -1.73892e-11 0 -1.73892e-11 1.88328e-11 0 0 0 0)
(6.46235e-24 -1.77257e-11 0 -1.77257e-11 1.93657e-11 0 0 0 0)
(0 -1.79387e-11 0 -1.79387e-11 1.99137e-11 0 0 0 0)
(1.29247e-23 -1.80774e-11 0 -1.80774e-11 2.0453e-11 0 0 0 0)
(0 -1.822e-11 0 -1.822e-11 2.09588e-11 0 0 0 0)
(1.29247e-23 -1.84278e-11 0 -1.84278e-11 2.14176e-11 0 0 0 0)
(0 -1.8634e-11 0 -1.8634e-11 2.18227e-11 0 0 0 0)
(0 -1.88764e-11 0 -1.88764e-11 2.21717e-11 0 0 0 0)
(0 -1.91146e-11 0 -1.91146e-11 2.24631e-11 0 0 0 0)
(0 -1.9308e-11 0 -1.9308e-11 2.2694e-11 0 0 0 0)
(6.46235e-24 -1.94802e-11 0 -1.94802e-11 2.2862e-11 0 0 0 0)
(0 -1.9713e-11 0 -1.9713e-11 2.2968e-11 0 0 0 0)
(0 -1.98788e-11 0 -1.98788e-11 2.30131e-11 0 0 0 0)
(0 -2.00433e-11 0 -2.00433e-11 2.2999e-11 0 0 0 0)
(6.46235e-24 -2.02646e-11 0 -2.02646e-11 2.29309e-11 0 0 0 0)
(0 -2.0422e-11 0 -2.0422e-11 2.28125e-11 0 0 0 0)
(0 -2.05988e-11 0 -2.05988e-11 2.26478e-11 0 0 0 0)
(0 -2.07751e-11 0 -2.07751e-11 2.24416e-11 0 0 0 0)
(6.46235e-24 -2.09114e-11 0 -2.09114e-11 2.21977e-11 0 0 0 0)
(0 -2.10988e-11 0 -2.10988e-11 2.19223e-11 0 0 0 0)
(0 -2.12908e-11 0 -2.12908e-11 2.16212e-11 0 0 0 0)
(0 -2.142e-11 0 -2.142e-11 2.12978e-11 0 0 0 0)
(0 -2.15729e-11 0 -2.15729e-11 2.0956e-11 0 0 0 0)
(0 -2.17951e-11 0 -2.17951e-11 2.0602e-11 0 0 0 0)
(0 -2.18974e-11 0 -2.18974e-11 2.02382e-11 0 0 0 0)
(0 -2.21001e-11 0 -2.21001e-11 1.98692e-11 0 0 0 0)
(0 -2.23081e-11 0 -2.23081e-11 1.94993e-11 0 0 0 0)
(0 -2.24298e-11 0 -2.24298e-11 1.91294e-11 0 0 0 0)
(-6.46235e-24 -2.26162e-11 0 -2.26162e-11 1.87624e-11 0 0 0 0)
(0 -2.27941e-11 0 -2.27941e-11 1.84008e-11 0 0 0 0)
(0 -2.30726e-11 0 -2.30726e-11 1.80494e-11 0 0 0 0)
(0 -2.31471e-11 0 -2.31471e-11 1.77056e-11 0 0 0 0)
(0 -2.33718e-11 0 -2.33718e-11 1.73716e-11 0 0 0 0)
(0 -2.36862e-11 0 -2.36862e-11 1.70517e-11 0 0 0 0)
(0 -2.37363e-11 0 -2.37363e-11 1.67415e-11 0 0 0 0)
(-1.29247e-23 -2.40233e-11 0 -2.40233e-11 1.64446e-11 0 0 0 0)
(0 -2.42868e-11 0 -2.42868e-11 1.61626e-11 0 0 0 0)
(0 -2.44515e-11 0 -2.44515e-11 1.58932e-11 0 0 0 0)
(0 -2.47753e-11 0 -2.47753e-11 1.56389e-11 0 0 0 0)
(0 -2.49071e-11 0 -2.49071e-11 1.53955e-11 0 0 0 0)
(0 -2.51173e-11 0 -2.51173e-11 1.51632e-11 0 0 0 0)
(0 -2.55654e-11 0 -2.55654e-11 1.4948e-11 0 0 0 0)
(0 -2.57221e-11 0 -2.57221e-11 1.4745e-11 0 0 0 0)
(-1.29247e-23 -2.59291e-11 0 -2.59291e-11 1.45527e-11 0 0 0 0)
(0 -2.62812e-11 0 -2.62812e-11 1.43725e-11 0 0 0 0)
(0 -2.65678e-11 0 -2.65678e-11 1.42036e-11 0 0 0 0)
(0 -2.68003e-11 0 -2.68003e-11 1.40444e-11 0 0 0 0)
(0 -2.71557e-11 0 -2.71557e-11 1.38964e-11 0 0 0 0)
(0 -2.74515e-11 0 -2.74515e-11 1.37577e-11 0 0 0 0)
(0 -2.77358e-11 0 -2.77358e-11 1.36269e-11 0 0 0 0)
(0 -2.8137e-11 0 -2.8137e-11 1.35058e-11 0 0 0 0)
(0 -2.83113e-11 0 -2.83113e-11 1.33882e-11 0 0 0 0)
(0 -2.87604e-11 0 -2.87604e-11 1.32797e-11 0 0 0 0)
(0 -2.91192e-11 0 -2.91192e-11 1.31785e-11 0 0 0 0)
(0 -2.94255e-11 0 -2.94255e-11 1.30834e-11 0 0 0 0)
(0 -2.9849e-11 0 -2.9849e-11 1.29954e-11 0 0 0 0)
(0 -3.01746e-11 0 -3.01746e-11 1.2911e-11 0 0 0 0)
(0 -3.05456e-11 0 -3.05456e-11 1.28304e-11 0 0 0 0)
(0 -3.09477e-11 0 -3.09477e-11 1.2753e-11 0 0 0 0)
(0 -3.14069e-11 0 -3.14069e-11 1.26798e-11 0 0 0 0)
(0 -3.17914e-11 0 -3.17914e-11 1.2609e-11 0 0 0 0)
(0 -3.2104e-11 0 -3.2104e-11 1.25377e-11 0 0 0 0)
(0 -3.26061e-11 0 -3.26061e-11 1.24688e-11 0 0 0 0)
(0 -3.31996e-11 0 -3.31996e-11 1.24055e-11 0 0 0 0)
(0 -3.34798e-11 0 -3.34798e-11 1.2341e-11 0 0 0 0)
(0 -3.39354e-11 0 -3.39354e-11 1.22775e-11 0 0 0 0)
(0 -3.45121e-11 0 -3.45121e-11 1.22157e-11 0 0 0 0)
(0 -3.50163e-11 0 -3.50163e-11 1.2155e-11 0 0 0 0)
(0 -3.54989e-11 0 -3.54989e-11 1.20944e-11 0 0 0 0)
(0 -3.59412e-11 0 -3.59412e-11 1.20305e-11 0 0 0 0)
(0 -3.65278e-11 0 -3.65278e-11 1.19653e-11 0 0 0 0)
(0 -3.71063e-11 0 -3.71063e-11 1.18987e-11 0 0 0 0)
(0 -3.76282e-11 0 -3.76282e-11 1.183e-11 0 0 0 0)
(0 -3.81958e-11 0 -3.81958e-11 1.17595e-11 0 0 0 0)
(0 -3.88349e-11 0 -3.88349e-11 1.16884e-11 0 0 0 0)
(0 -3.94455e-11 0 -3.94455e-11 1.1616e-11 0 0 0 0)
(0 -4.0077e-11 0 -4.0077e-11 1.15426e-11 0 0 0 0)
(0 -4.07305e-11 0 -4.07305e-11 1.14673e-11 0 0 0 0)
(0 -4.14096e-11 0 -4.14096e-11 1.13896e-11 0 0 0 0)
(0 -4.20993e-11 0 -4.20993e-11 1.13088e-11 0 0 0 0)
(0 -4.27908e-11 0 -4.27908e-11 1.12237e-11 0 0 0 0)
(0 -4.35316e-11 0 -4.35316e-11 1.11346e-11 0 0 0 0)
(0 -4.42976e-11 0 -4.42976e-11 1.10415e-11 0 0 0 0)
(0 -4.50757e-11 0 -4.50757e-11 1.09448e-11 0 0 0 0)
(0 -4.58943e-11 0 -4.58943e-11 1.08451e-11 0 0 0 0)
(0 -4.67483e-11 0 -4.67483e-11 1.0743e-11 0 0 0 0)
(0 -4.76212e-11 0 -4.76212e-11 1.06386e-11 0 0 0 0)
(0 -4.85236e-11 0 -4.85236e-11 1.05319e-11 0 0 0 0)
(0 -4.94574e-11 0 -4.94574e-11 1.04227e-11 0 0 0 0)
(0 -5.04209e-11 0 -5.04209e-11 1.03105e-11 0 0 0 0)
(0 -5.14177e-11 0 -5.14177e-11 1.01952e-11 0 0 0 0)
(0 -5.24542e-11 0 -5.24542e-11 1.00768e-11 0 0 0 0)
(0 -5.35313e-11 0 -5.35313e-11 9.95547e-12 0 0 0 0)
(0 -5.46501e-11 0 -5.46501e-11 9.8316e-12 0 0 0 0)
(0 -5.58152e-11 0 -5.58152e-11 9.70578e-12 0 0 0 0)
(0 -5.70272e-11 0 -5.70272e-11 9.57859e-12 0 0 0 0)
(0 -5.82862e-11 0 -5.82862e-11 9.45058e-12 0 0 0 0)
(0 -5.95951e-11 0 -5.95951e-11 9.32228e-12 0 0 0 0)
(0 -6.09571e-11 0 -6.09571e-11 9.19417e-12 0 0 0 0)
(0 -6.23747e-11 0 -6.23747e-11 9.06671e-12 0 0 0 0)
(0 -6.38518e-11 0 -6.38518e-11 8.9403e-12 0 0 0 0)
(0 -6.53921e-11 0 -6.53921e-11 8.81531e-12 0 0 0 0)
(0 -6.69994e-11 0 -6.69994e-11 8.69193e-12 0 0 0 0)
(0 -6.86775e-11 0 -6.86775e-11 8.5702e-12 0 0 0 0)
(0 -7.04309e-11 0 -7.04309e-11 8.44985e-12 0 0 0 0)
(0 -7.22646e-11 0 -7.22646e-11 8.33028e-12 0 0 0 0)
(0 -7.41843e-11 0 -7.41843e-11 8.21047e-12 0 0 0 0)
(0 -7.61962e-11 0 -7.61962e-11 8.08901e-12 0 0 0 0)
(0 -7.83073e-11 0 -7.83073e-11 7.96407e-12 0 0 0 0)
(0 -8.05256e-11 0 -8.05256e-11 7.83351e-12 0 0 0 0)
(0 -8.28602e-11 0 -8.28602e-11 7.695e-12 0 0 0 0)
(0 -8.53213e-11 0 -8.53213e-11 7.54632e-12 0 0 0 0)
(0 -8.79195e-11 0 -8.79195e-11 7.38563e-12 0 0 0 0)
(0 -9.06653e-11 0 -9.06653e-11 7.21193e-12 0 0 0 0)
(0 -9.35676e-11 0 -9.35676e-11 7.02551e-12 0 0 0 0)
(0 -9.66342e-11 0 -9.66342e-11 6.82851e-12 0 0 0 0)
(0 -9.98735e-11 0 -9.98735e-11 6.62547e-12 0 0 0 0)
(0 -1.03302e-10 0 -1.03302e-10 6.4238e-12 0 0 0 0)
(0 -1.06954e-10 0 -1.06954e-10 6.23393e-12 0 0 0 0)
(0 -1.10883e-10 0 -1.10883e-10 6.06875e-12 0 0 0 0)
(0 -1.15146e-10 0 -1.15146e-10 5.94184e-12 0 0 0 0)
(0 -1.19762e-10 0 -1.19762e-10 5.86403e-12 0 0 0 0)
(0 -1.24681e-10 0 -1.24681e-10 5.83791e-12 0 0 0 0)
(0 -1.29872e-10 0 -1.29872e-10 5.85093e-12 0 0 0 0)
(0 -1.35591e-10 0 -1.35591e-10 5.86905e-12 0 0 0 0)
(0 -1.42557e-10 0 -1.42557e-10 5.83232e-12 0 0 0 0)
(0 -1.5134e-10 0 -1.5134e-10 5.64584e-12 0 0 0 0)
(0 -1.61282e-10 0 -1.61282e-10 5.16817e-12 0 0 0 0)
(0 -1.71131e-10 0 -1.71131e-10 4.24695e-12 0 0 0 0)
(0 -1.81786e-10 0 -1.81786e-10 2.83943e-12 0 0 0 0)
(0 -1.9762e-10 0 -1.9762e-10 1.13772e-12 0 0 0 0)
(0 -2.22029e-10 0 -2.22029e-10 -4.40416e-13 0 0 0 0)
(0 -2.45843e-10 0 -2.45843e-10 -1.73123e-12 0 0 0 0)
(0 -2.79126e-10 0 -2.79126e-10 -9.36172e-12 0 0 0 0)
(0 -1.19777e-09 0 -1.19777e-09 -2.39137e-12 0 0 0 0)
(0 -8.9066e-10 0 -8.9066e-10 -4.44857e-11 0 0 0 0)
(0 -3.67467e-11 0 -3.67467e-11 4.4099e-10 0 0 0 0)
(0 -6.2323e-10 0 -6.2323e-10 -1.83058e-09 0 0 0 0)
(0 -1.08329e-07 0 -1.08329e-07 6.79846e-09 0 0 0 0)
(0 -4.1899e-05 0 -4.1899e-05 -4.10335e-08 0 0 0 0)
(0 -0.000595993 0 -0.000595993 -1.06678e-06 0 0 0 0)
(0 -0.00259054 0 -0.00259054 -2.02254e-06 0 0 0 0)
(0 -0.00354591 0 -0.00354591 1.38355e-06 0 0 0 0)
(0 -0.00387652 0 -0.00387652 8.70432e-07 0 0 0 0)
(0 -0.00399714 0 -0.00399714 1.29548e-06 0 0 0 0)
(0 -0.00400981 0 -0.00400981 1.16608e-06 0 0 0 0)
(0 -0.00395919 0 -0.00395919 9.09491e-07 0 0 0 0)
(0 -0.00387177 0 -0.00387177 6.5356e-07 0 0 0 0)
(0 -0.00376295 0 -0.00376295 4.76732e-07 0 0 0 0)
(0 -0.0036416 0 -0.0036416 4.08606e-07 0 0 0 0)
(0 -0.0035128 0 -0.0035128 4.41434e-07 0 0 0 0)
(0 -0.00337938 0 -0.00337938 5.46435e-07 0 0 0 0)
(0 -0.0032429 0 -0.0032429 6.89039e-07 0 0 0 0)
(0 -0.00310427 0 -0.00310427 8.38758e-07 0 0 0 0)
(0 -0.00296406 0 -0.00296406 9.7388e-07 0 0 0 0)
(0 -0.00282273 0 -0.00282273 1.08136e-06 0 0 0 0)
(0 -0.00268068 0 -0.00268068 1.15509e-06 0 0 0 0)
(0 -0.00253836 0 -0.00253836 1.19377e-06 0 0 0 0)
(0 -0.0023962 0 -0.0023962 1.19882e-06 0 0 0 0)
(0 -0.00225469 0 -0.00225469 1.17345e-06 0 0 0 0)
(0 -0.00211433 0 -0.00211433 1.12282e-06 0 0 0 0)
(0 -0.00197566 0 -0.00197566 1.05458e-06 0 0 0 0)
(0 -0.00183923 0 -0.00183923 9.77696e-07 0 0 0 0)
(0 -0.00170565 0 -0.00170565 8.97842e-07 0 0 0 0)
(0 -0.0015755 0 -0.0015755 8.12528e-07 0 0 0 0)
(0 -0.00144941 0 -0.00144941 7.1345e-07 0 0 0 0)
(0 -0.00132801 0 -0.00132801 5.97251e-07 0 0 0 0)
(0 -0.0012119 0 -0.0012119 4.73185e-07 0 0 0 0)
(0 -0.00110163 0 -0.00110163 3.5779e-07 0 0 0 0)
(0 -0.000997593 0 -0.000997593 2.63261e-07 0 0 0 0)
(0 -0.000900033 0 -0.000900033 1.92288e-07 0 0 0 0)
(0 -0.00080899 0 -0.00080899 1.41135e-07 0 0 0 0)
(0 -0.000724323 0 -0.000724323 1.04467e-07 0 0 0 0)
(0 -0.000645741 0 -0.000645741 7.7815e-08 0 0 0 0)
(0 -0.000572849 0 -0.000572849 5.80183e-08 0 0 0 0)
(0 -0.000505187 0 -0.000505187 4.29934e-08 0 0 0 0)
(0 -0.000442274 0 -0.000442274 3.13678e-08 0 0 0 0)
(0 -0.000383631 0 -0.000383631 2.21989e-08 0 0 0 0)
(0 -0.000328807 0 -0.000328807 1.48449e-08 0 0 0 0)
(0 -0.000277385 0 -0.000277385 8.8671e-09 0 0 0 0)
(0 -0.000228994 0 -0.000228994 3.95955e-09 0 0 0 0)
(0 -0.000183307 0 -0.000183307 -9.59493e-11 0 0 0 0)
(0 -0.000140037 0 -0.000140037 -3.45884e-09 0 0 0 0)
(0 -9.89404e-05 0 -9.89404e-05 -6.24859e-09 0 0 0 0)
(0 -5.98061e-05 0 -5.98061e-05 -8.55695e-09 0 0 0 0)
(0 -2.24553e-05 0 -2.24553e-05 -1.04563e-08 0 0 0 0)
(0 1.32645e-05 0 1.32645e-05 -1.20051e-08 0 0 0 0)
(0 4.74833e-05 0 4.74833e-05 -1.32514e-08 0 0 0 0)
(0 8.03114e-05 0 8.03114e-05 -1.42357e-08 0 0 0 0)
(0 0.000111843 0 0.000111843 -1.49924e-08 0 0 0 0)
(0 0.000142159 0 0.000142159 -1.55509e-08 0 0 0 0)
(0 0.000171329 0 0.000171329 -1.59367e-08 0 0 0 0)
(0 0.000199414 0 0.000199414 -1.61719e-08 0 0 0 0)
(0 0.000226468 0 0.000226468 -1.62765e-08 0 0 0 0)
(0 0.000252798 0 0.000252798 -1.62666e-08 0 0 0 0)
(4.82581e-17 0.000278684 0 0.000278684 -1.61527e-08 0 0 0 0)
(0 0.000304119 0 0.000304119 -1.59433e-08 0 0 0 0)
(0 0.000329093 0 0.000329093 -1.56465e-08 0 0 0 0)
(-4.79261e-17 0.000353591 0 0.000353591 -1.527e-08 0 0 0 0)
(0 0.000377594 0 0.000377594 -1.48219e-08 0 0 0 0)
(4.74944e-17 0.000401083 0 0.000401083 -1.43103e-08 0 0 0 0)
(0 0.000424034 0 0.000424034 -1.3744e-08 0 0 0 0)
(0 0.000446425 0 0.000446425 -1.31321e-08 0 0 0 0)
(0 0.000468227 0 0.000468227 -1.24844e-08 0 0 0 0)
(0 0.000489412 0 0.000489412 -1.1811e-08 0 0 0 0)
(0 0.00050995 0 0.00050995 -1.11221e-08 0 0 0 0)
(-4.53558e-17 0.000529809 0 0.000529809 -1.04278e-08 0 0 0 0)
(0 0.000548953 0 0.000548953 -9.73702e-09 0 0 0 0)
(0 0.000567349 0 0.000567349 -9.05767e-09 0 0 0 0)
(0 0.000584958 0 0.000584958 -8.39611e-09 0 0 0 0)
(0 0.000601742 0 0.000601742 -7.75706e-09 0 0 0 0)
(0 0.000617661 0 0.000617661 -7.14367e-09 0 0 0 0)
(4.2231e-17 0.000632674 0 0.000632674 -6.55759e-09 0 0 0 0)
(0 0.000646739 0 0.000646739 -5.9993e-09 0 0 0 0)
(0 0.000659812 0 0.000659812 -5.46842e-09 0 0 0 0)
(0 0.000671849 0 0.000671849 -4.96412e-09 0 0 0 0)
(3.9734e-17 0.000682804 0 0.000682804 -4.48538e-09 0 0 0 0)
(0 0.000692631 0 0.000692631 -4.03148e-09 0 0 0 0)
(0 0.000701284 0 0.000701284 -3.60315e-09 0 0 0 0)
(0 0.000708715 0 0.000708715 -3.20426e-09 0 0 0 0)
(0 0.000714876 0 0.000714876 -2.84309e-09 0 0 0 0)
(-3.62374e-17 0.00071972 0 0.00071972 -2.53139e-09 0 0 0 0)
(-3.54934e-17 0.000723199 0 0.000723199 -2.27691e-09 0 0 0 0)
(0 0.000725264 0 0.000725264 -2.06319e-09 0 0 0 0)
(0 0.000725869 0 0.000725869 -1.82847e-09 0 0 0 0)
(0 0.000724966 0 0.000724966 -1.49566e-09 0 0 0 0)
(0 0.000722511 0 0.000722511 -1.07427e-09 0 0 0 0)
(0 0.00071846 0 0.00071846 -7.02474e-10 0 0 0 0)
(0 0.000712771 0 0.000712771 -4.9723e-10 0 0 0 0)
(0 0.000705407 0 0.000705407 -4.25244e-10 0 0 0 0)
(0 0.000696328 0 0.000696328 -3.89716e-10 0 0 0 0)
(0 0.000685503 0 0.000685503 -3.42209e-10 0 0 0 0)
(0 0.000672911 0 0.000672911 -2.86401e-10 0 0 0 0)
(0 0.000658532 0 0.000658532 -2.34665e-10 0 0 0 0)
(0 0.000642353 0 0.000642353 -1.89191e-10 0 0 0 0)
(0 0.000624371 0 0.000624371 -1.49622e-10 0 0 0 0)
(4.76247e-17 0.000604592 0 0.000604592 -1.15743e-10 0 0 0 0)
(0 0.000583035 0 0.000583035 -8.74064e-11 0 0 0 0)
(0 0.000559732 0 0.000559732 -6.4303e-11 0 0 0 0)
(0 0.000534732 0 0.000534732 -4.59709e-11 0 0 0 0)
(4.03459e-17 0.000508103 0 0.000508103 -3.18399e-11 0 0 0 0)
(0 0.000479934 0 0.000479934 -2.13698e-11 0 0 0 0)
(0 0.000450341 0 0.000450341 -1.38959e-11 0 0 0 0)
(3.487e-17 0.000419466 0 0.000419466 -7.99759e-12 0 0 0 0)
(0 0.000387485 0 0.000387485 -2.5881e-12 0 0 0 0)
(0 0.000354609 0 0.000354609 -8.72503e-13 0 0 0 0)
(0 0.000321086 0 0.000321086 -2.33939e-12 0 0 0 0)
(0 0.000287207 0 0.000287207 -1.40002e-12 0 0 0 0)
(0 0.000253303 0 0.000253303 1.38897e-13 0 0 0 0)
(0 0.000219748 0 0.000219748 8.84207e-14 0 0 0 0)
(0 0.000186947 0 0.000186947 -1.53393e-14 0 0 0 0)
(0 0.000155333 0 0.000155333 -2.6006e-14 0 0 0 0)
(0 0.000125347 0 0.000125347 -1.76348e-14 0 0 0 0)
(0 9.74172e-05 0 9.74172e-05 -1.4074e-14 0 0 0 0)
(0 7.19336e-05 0 7.19336e-05 -1.27676e-14 0 0 0 0)
(0 4.92178e-05 0 4.92178e-05 -1.15792e-14 0 0 0 0)
(0 2.95001e-05 0 2.95001e-05 -1.05002e-14 0 0 0 0)
(0 1.29032e-05 0 1.29032e-05 -9.5325e-15 0 0 0 0)
(0 -5.60339e-07 0 -5.60339e-07 -8.53017e-15 0 0 0 0)
(0 -1.09793e-05 0 -1.09793e-05 -8.12043e-15 0 0 0 0)
(0 -1.85269e-05 0 -1.85269e-05 -7.74048e-15 0 0 0 0)
(0 -2.34402e-05 0 -2.34402e-05 1.19429e-15 0 0 0 0)
(0 -2.60018e-05 0 -2.60018e-05 3.91544e-14 0 0 0 0)
(0 -2.65247e-05 0 -2.65247e-05 -2.3514e-13 0 0 0 0)
(0 -2.53409e-05 0 -2.53409e-05 5.22712e-13 0 0 0 0)
(0 -2.27931e-05 0 -2.27931e-05 -8.26722e-13 0 0 0 0)
(0 -1.92283e-05 0 -1.92283e-05 1.04354e-12 0 0 0 0)
(0 -1.49954e-05 0 -1.49954e-05 -1.13428e-12 0 0 0 0)
(0 -1.04479e-05 0 -1.04479e-05 1.05579e-12 0 0 0 0)
(0 -5.99586e-06 0 -5.99586e-06 -8.12902e-13 0 0 0 0)
(0 -1.88429e-06 0 -1.88429e-06 4.17241e-13 0 0 0 0)
(0 -1.51261e-07 0 -1.51261e-07 -9.66126e-14 0 0 0 0)
(0 -7.42494e-09 0 -7.42494e-09 4.5501e-14 0 0 0 0)
(0 -1.54249e-10 0 -1.54249e-10 -4.35405e-14 0 0 0 0)
(0 -1.88176e-12 0 -1.88176e-12 4.26384e-14 0 0 0 0)
(0 1.97536e-14 0 1.97536e-14 -4.1812e-14 0 0 0 0)
(0 2.77315e-14 0 2.77315e-14 4.09996e-14 0 0 0 0)
(0 1.82531e-14 0 1.82531e-14 -4.02137e-14 0 0 0 0)
(0 1.17504e-14 0 1.17504e-14 3.94632e-14 0 0 0 0)
(-1.50452e-19 7.54999e-15 0 7.54999e-15 -3.86961e-14 0 0 0 0)
(0 4.76558e-15 0 4.76558e-15 3.80046e-14 0 0 0 0)
(0 2.96465e-15 0 2.96465e-15 -3.72536e-14 0 0 0 0)
(0 1.79273e-15 0 1.79273e-15 3.6574e-14 0 0 0 0)
(0 1.11583e-15 0 1.11583e-15 -3.58316e-14 0 0 0 0)
(0 7.54069e-16 0 7.54069e-16 3.51794e-14 0 0 0 0)
(0 4.72174e-16 0 4.72174e-16 -3.44275e-14 0 0 0 0)
(0 2.28776e-16 0 2.28776e-16 3.37782e-14 0 0 0 0)
(0 8.32717e-17 0 8.32717e-17 -3.30221e-14 0 0 0 0)
(0 -3.13904e-19 0 -3.13904e-19 3.2369e-14 0 0 0 0)
(-1.23064e-19 4.56875e-17 0 4.56875e-17 -3.16275e-14 0 0 0 0)
(0 9.52261e-17 0 9.52261e-17 3.09179e-14 0 0 0 0)
(0 1.64321e-17 0 1.64321e-17 -3.01851e-14 0 0 0 0)
(1.15864e-19 -5.88302e-17 0 -5.88302e-17 2.94634e-14 0 0 0 0)
(0 5.27484e-17 0 5.27484e-17 -2.87118e-14 0 0 0 0)
(0 5.37303e-17 0 5.37303e-17 2.79609e-14 0 0 0 0)
(0 -3.17168e-17 0 -3.17168e-17 -2.71943e-14 0 0 0 0)
(0 4.09222e-17 0 4.09222e-17 2.6424e-14 0 0 0 0)
(0 -1.15085e-16 0 -1.15085e-16 -2.56325e-14 0 0 0 0)
(0 -1.37367e-16 0 -1.37367e-16 2.48312e-14 0 0 0 0)
(0 1.39693e-16 0 1.39693e-16 -2.4012e-14 0 0 0 0)
(0 1.92854e-16 0 1.92854e-16 2.31819e-14 0 0 0 0)
(0 -3.39162e-17 0 -3.39162e-17 -2.23278e-14 0 0 0 0)
(0 -1.98691e-16 0 -1.98691e-16 2.1486e-14 0 0 0 0)
(0 -1.40634e-16 0 -1.40634e-16 -2.36137e-14 0 0 0 0)
(0 -7.03831e-17 0 -7.03831e-17 2.33159e-14 0 0 0 0)
(0 3.48872e-17 0 3.48872e-17 -2.30312e-14 0 0 0 0)
(0 4.95514e-17 0 4.95514e-17 2.27516e-14 0 0 0 0)
(0 3.03873e-17 0 3.03873e-17 -2.24648e-14 0 0 0 0)
(0 4.49457e-17 0 4.49457e-17 2.21823e-14 0 0 0 0)
(0 5.0822e-18 0 5.0822e-18 -2.18915e-14 0 0 0 0)
(0 -1.11438e-17 0 -1.11438e-17 2.16059e-14 0 0 0 0)
(0 -2.89579e-17 0 -2.89579e-17 -2.13105e-14 0 0 0 0)
(0 -1.14482e-16 0 -1.14482e-16 2.10216e-14 0 0 0 0)
(0 -4.01017e-17 0 -4.01017e-17 -2.07216e-14 0 0 0 0)
(0 1.05376e-16 0 1.05376e-16 2.04284e-14 0 0 0 0)
(0 5.57983e-17 0 5.57983e-17 -2.01233e-14 0 0 0 0)
(0 -2.16258e-17 0 -2.16258e-17 1.98259e-14 0 0 0 0)
(0 2.09111e-18 0 2.09111e-18 -1.95146e-14 0 0 0 0)
(0 1.50878e-18 0 1.50878e-18 1.92132e-14 0 0 0 0)
(0 4.31457e-18 0 4.31457e-18 -1.88933e-14 0 0 0 0)
(0 2.01964e-17 0 2.01964e-17 1.85891e-14 0 0 0 0)
(0 -2.64698e-17 0 -2.64698e-17 -1.82572e-14 0 0 0 0)
(0 3.59989e-18 0 3.59989e-18 1.79533e-14 0 0 0 0)
(0 1.39496e-17 0 1.39496e-17 -1.76062e-14 0 0 0 0)
(0 -3.6343e-17 0 -3.6343e-17 1.73007e-14 0 0 0 0)
(0 -2.1467e-17 0 -2.1467e-17 -1.69389e-14 0 0 0 0)
(0 3.57077e-17 0 3.57077e-17 1.66292e-14 0 0 0 0)
(0 1.31025e-17 0 1.31025e-17 -1.62516e-14 0 0 0 0)
(0 2.41669e-17 0 2.41669e-17 1.59354e-14 0 0 0 0)
(0 2.79256e-17 0 2.79256e-17 -1.55429e-14 0 0 0 0)
(0 -3.30078e-17 0 -3.30078e-17 1.52167e-14 0 0 0 0)
(0 -1.03973e-16 0 -1.03973e-16 -1.48086e-14 0 0 0 0)
(0 -1.93706e-16 0 -1.93706e-16 1.44692e-14 0 0 0 0)
(0 -4.14676e-16 0 -4.14676e-16 -1.40406e-14 0 0 0 0)
(0 -4.24311e-17 0 -4.24311e-17 1.36869e-14 0 0 0 0)
(0 3.96332e-16 0 3.96332e-16 -1.32393e-14 0 0 0 0)
(0 2.25814e-16 0 2.25814e-16 1.28668e-14 0 0 0 0)
(0 9.21413e-17 0 9.21413e-17 -1.23762e-14 0 0 0 0)
(0 2.7158e-17 0 2.7158e-17 1.20026e-14 0 0 0 0)
(0 4.25369e-17 0 4.25369e-17 -1.14848e-14 0 0 0 0)
(0 1.21232e-17 0 1.21232e-17 1.10458e-14 0 0 0 0)
(0 -2.88256e-17 0 -2.88256e-17 -1.05223e-14 0 0 0 0)
(0 -8.92561e-17 0 -8.92561e-17 1.00076e-14 0 0 0 0)
(0 2.017e-17 0 2.017e-17 -9.48735e-15 0 0 0 0)
(0 1.70307e-16 0 1.70307e-16 8.84298e-15 0 0 0 0)
(0 9.9447e-17 0 9.9447e-17 -8.27542e-15 0 0 0 0)
(0 -5.691e-17 0 -5.691e-17 7.54456e-15 0 0 0 0)
(0 -1.01459e-16 0 -1.01459e-16 -6.93229e-15 0 0 0 0)
(0 -8.01505e-17 0 -8.01505e-17 5.84296e-15 0 0 0 0)
(0 -4.22458e-17 0 -4.22458e-17 -5.13663e-15 0 0 0 0)
(0 1.49025e-17 0 1.49025e-17 3.58333e-15 0 0 0 0)
(0 -9.71706e-17 0 -9.71706e-17 -2.53237e-15 0 0 0 0)
(0 -1.0535e-16 0 -1.0535e-16 1.27028e-15 0 0 0 0)
)
;

boundaryField
{
    inandouthalf11
    {
        type            cyclic;
    }
    inandouthalf12
    {
        type            cyclic;
    }
    inandouthalf21
    {
        type            cyclic;
    }
    inandouthalf22
    {
        type            cyclic;
    }
    inandouthalf31
    {
        type            cyclic;
    }
    inandouthalf32
    {
        type            cyclic;
    }
    inandouthalf41
    {
        type            cyclic;
    }
    inandouthalf42
    {
        type            cyclic;
    }
    top
    {
        type            symmetryPlane;
    }
    walls
    {
        type            zeroGradient;
    }
    frontAndBackPlanes
    {
        type            empty;
    }
}


// ************************************************************************* //
