/*--------------------------------*- C++ -*----------------------------------*\
| =========                 |                                                 |
| \\      /  F ield         | OpenFOAM: The Open Source CFD Toolbox           |
|  \\    /   O peration     | Version:  2.4.x                                 |
|   \\  /    A nd           | Web:      www.OpenFOAM.org                      |
|    \\/     M anipulation  |                                                 |
\*---------------------------------------------------------------------------*/
FoamFile
{
    version     2.0;
    format      ascii;
    class       volScalarField;
    location    "11.9";
    object      tmf;
}
// * * * * * * * * * * * * * * * * * * * * * * * * * * * * * * * * * * * * * //

dimensions      [0 0 0 0 0 0 0];

internalField   nonuniform List<scalar> 
360
(
0.999206
0.999209
0.99921
0.999209
0.999209
0.999209
0.999209
0.999209
0.999209
0.999209
0.999209
0.999209
0.999209
0.999209
0.999208
0.999208
0.999208
0.999208
0.999208
0.999208
0.999208
0.999208
0.999208
0.999208
0.999208
0.999208
0.999207
0.999207
0.999207
0.999207
0.999207
0.999207
0.999207
0.999207
0.999207
0.999207
0.999206
0.999206
0.999206
0.999206
0.999206
0.999206
0.999206
0.999206
0.999206
0.999206
0.999205
0.999205
0.999205
0.999205
0.999205
0.999205
0.999205
0.999205
0.999204
0.999204
0.999204
0.999204
0.999204
0.999204
0.999204
0.999204
0.999203
0.999203
0.999203
0.999203
0.999203
0.999203
0.999203
0.999202
0.999202
0.999202
0.999202
0.999202
0.999202
0.999202
0.999201
0.999201
0.999201
0.999201
0.999201
0.999201
0.9992
0.9992
0.9992
0.9992
0.9992
0.999199
0.999199
0.999199
0.999199
0.999199
0.999198
0.999198
0.999198
0.999198
0.999197
0.999197
0.999197
0.999197
0.999196
0.999196
0.999196
0.999196
0.999195
0.999195
0.999195
0.999195
0.999194
0.999194
0.999194
0.999193
0.999193
0.999193
0.999192
0.999192
0.999192
0.999191
0.999191
0.99919
0.99919
0.999189
0.999189
0.999189
0.999188
0.999188
0.999187
0.999187
0.999186
0.999185
0.999185
0.999184
0.999177
0.998307
0.997996
0.997714
0.997374
0.996956
0.996434
0.995768
0.994899
0.993759
0.99231
0.990484
0.987982
0.984759
0.980076
0.950853
0.902196
0.886186
0.87483
0.875427
0.876862
0.879009
0.881862
0.885426
0.889661
0.894471
0.899722
0.905264
0.910953
0.916671
0.922325
0.927847
0.93319
0.938321
0.943216
0.947862
0.95225
0.956374
0.960231
0.96382
0.967142
0.970202
0.973004
0.975555
0.977862
0.979935
0.981784
0.983422
0.984864
0.986123
0.987219
0.988167
0.988985
0.989689
0.990294
0.990814
0.99126
0.991644
0.991973
0.992256
0.992499
0.992708
0.992887
0.993041
0.993172
0.993283
0.993377
0.993455
0.99352
0.993574
0.993617
0.99365
0.993674
0.993689
0.993696
0.993694
0.993683
0.993664
0.993638
0.993602
0.993559
0.993507
0.993446
0.993376
0.993296
0.993207
0.993109
0.993002
0.992889
0.992778
0.992681
0.992623
0.992631
0.992719
0.992869
0.993055
0.993254
0.993456
0.993654
0.993847
0.994033
0.994213
0.994387
0.994556
0.994718
0.993022
0.993082
0.993142
0.993201
0.99326
0.993321
0.993383
0.993448
0.993511
0.993615
0.993605
0.993896
0.993647
0.994317
0.994153
0.995031
0.996371
0.996662
0.996791
0.996929
0.997073
0.997221
0.997373
0.997526
0.997678
0.997827
0.99797
0.998104
0.998227
0.998338
0.998437
0.998525
0.998604
0.998676
0.998745
0.998814
0.998888
0.998971
0.999071
0.999198
0.999362
0.999496
0.999537
0.999536
0.999533
0.999531
0.999528
0.999517
0.99865
0.99419
0.99419
0.99419
0.99419
0.99419
0.99419
0.99419
0.99419
0.99419
0.99419
0.99419
0.99419
0.99419
0.99419
0.99419
0.99419
0.99419
0.99419
0.99419
0.99419
0.99419
0.99419
0.99419
0.99419
0.99419
0.99419
0.99419
0.99419
0.99419
0.99419
0.99419
0.99419
0.99419
0.99419
0.99419
0.99419
0.99419
0.99419
0.99419
0.99419
0.99419
0.99419
0.99419
0.99419
0.99419
0.99419
0.99419
0.99419
0.99419
0.99419
0.99419
0.99419
0.99419
0.99419
0.99419
0.99419
0.99419
0.99419
0.99419
0.99419
0.99419
0.99419
0.99419
0.99419
0.99419
0.99419
0.99419
0.99419
0.99419
0.99419
0.99419
0.994189
0.994174
0.99324
)
;

boundaryField
{
    inandouthalf11
    {
        type            cyclic;
    }
    inandouthalf12
    {
        type            cyclic;
    }
    inandouthalf21
    {
        type            cyclic;
    }
    inandouthalf22
    {
        type            cyclic;
    }
    inandouthalf31
    {
        type            cyclic;
    }
    inandouthalf32
    {
        type            cyclic;
    }
    inandouthalf41
    {
        type            cyclic;
    }
    inandouthalf42
    {
        type            cyclic;
    }
    top
    {
        type            symmetryPlane;
    }
    walls
    {
        type            calculated;
        value           uniform 0;
    }
    frontAndBackPlanes
    {
        type            empty;
    }
}


// ************************************************************************* //
