/*--------------------------------*- C++ -*----------------------------------*\
| =========                 |                                                 |
| \\      /  F ield         | OpenFOAM: The Open Source CFD Toolbox           |
|  \\    /   O peration     | Version:  2.4.x                                 |
|   \\  /    A nd           | Web:      www.OpenFOAM.org                      |
|    \\/     M anipulation  |                                                 |
\*---------------------------------------------------------------------------*/
FoamFile
{
    version     2.0;
    format      ascii;
    class       volVectorField;
    location    "11.9";
    object      Ua_0;
}
// * * * * * * * * * * * * * * * * * * * * * * * * * * * * * * * * * * * * * //

dimensions      [0 1 -1 0 0 0 0];

internalField   nonuniform List<vector> 
360
(
(-1.92457e-32 -1.01964e-31 0)
(-9.07949e-10 -3.35201e-09 0)
(-1.90252e-09 -6.01128e-09 0)
(-2.81805e-09 -8.41e-09 0)
(-3.77653e-09 -1.10069e-08 0)
(-4.80226e-09 -1.37867e-08 0)
(-5.87286e-09 -1.66596e-08 0)
(-6.97845e-09 -1.96074e-08 0)
(-8.12021e-09 -2.26388e-08 0)
(-9.30025e-09 -2.5759e-08 0)
(-1.0519e-08 -2.89686e-08 0)
(-1.17752e-08 -3.22632e-08 0)
(-1.30666e-08 -3.56358e-08 0)
(-1.43901e-08 -3.90779e-08 0)
(-1.57426e-08 -4.25807e-08 0)
(-1.71207e-08 -4.61352e-08 0)
(-1.8521e-08 -4.97322e-08 0)
(-1.99396e-08 -5.33617e-08 0)
(-2.13727e-08 -5.70136e-08 0)
(-2.28166e-08 -6.06783e-08 0)
(-2.42673e-08 -6.4346e-08 0)
(-2.57213e-08 -6.80074e-08 0)
(-2.71753e-08 -7.16546e-08 0)
(-2.8626e-08 -7.52798e-08 0)
(-3.00707e-08 -7.8876e-08 0)
(-3.15066e-08 -8.24369e-08 0)
(-3.29314e-08 -8.59568e-08 0)
(-3.43431e-08 -8.94314e-08 0)
(-3.574e-08 -9.28569e-08 0)
(-3.71206e-08 -9.623e-08 0)
(-3.84837e-08 -9.95482e-08 0)
(-3.98284e-08 -1.0281e-07 0)
(-4.1154e-08 -1.06014e-07 0)
(-4.24602e-08 -1.0916e-07 0)
(-4.37468e-08 -1.12247e-07 0)
(-4.50137e-08 -1.15277e-07 0)
(-4.62608e-08 -1.18249e-07 0)
(-4.74887e-08 -1.21166e-07 0)
(-4.86977e-08 -1.24028e-07 0)
(-4.98882e-08 -1.26836e-07 0)
(-5.10609e-08 -1.29594e-07 0)
(-5.22165e-08 -1.32302e-07 0)
(-5.33555e-08 -1.34962e-07 0)
(-5.44788e-08 -1.37578e-07 0)
(-5.55872e-08 -1.4015e-07 0)
(-5.66816e-08 -1.42682e-07 0)
(-5.77627e-08 -1.45175e-07 0)
(-5.88311e-08 -1.4763e-07 0)
(-5.98876e-08 -1.50051e-07 0)
(-6.09334e-08 -1.5244e-07 0)
(-6.1969e-08 -1.54798e-07 0)
(-6.29952e-08 -1.57128e-07 0)
(-6.40127e-08 -1.5943e-07 0)
(-6.50222e-08 -1.61708e-07 0)
(-6.60244e-08 -1.63962e-07 0)
(-6.70199e-08 -1.66194e-07 0)
(-6.80093e-08 -1.68406e-07 0)
(-6.89932e-08 -1.70599e-07 0)
(-6.99721e-08 -1.72774e-07 0)
(-7.09463e-08 -1.74932e-07 0)
(-7.19164e-08 -1.77074e-07 0)
(-7.28829e-08 -1.79202e-07 0)
(-7.38463e-08 -1.81316e-07 0)
(-7.48069e-08 -1.83417e-07 0)
(-7.57649e-08 -1.85507e-07 0)
(-7.67208e-08 -1.87585e-07 0)
(-7.76746e-08 -1.89653e-07 0)
(-7.86268e-08 -1.9171e-07 0)
(-7.95773e-08 -1.93757e-07 0)
(-8.05262e-08 -1.95794e-07 0)
(-8.14738e-08 -1.97821e-07 0)
(-8.24204e-08 -1.9984e-07 0)
(-8.3366e-08 -2.01851e-07 0)
(-8.43107e-08 -2.03852e-07 0)
(-8.52545e-08 -2.05845e-07 0)
(-8.61978e-08 -2.07829e-07 0)
(-8.71403e-08 -2.09806e-07 0)
(-8.80818e-08 -2.11773e-07 0)
(-8.90224e-08 -2.13731e-07 0)
(-8.99619e-08 -2.1568e-07 0)
(-9.09002e-08 -2.1762e-07 0)
(-9.18374e-08 -2.19549e-07 0)
(-9.27733e-08 -2.21469e-07 0)
(-9.3708e-08 -2.23379e-07 0)
(-9.46414e-08 -2.25278e-07 0)
(-9.55734e-08 -2.27168e-07 0)
(-9.65039e-08 -2.29046e-07 0)
(-9.74326e-08 -2.30913e-07 0)
(-9.83593e-08 -2.32768e-07 0)
(-9.92838e-08 -2.3461e-07 0)
(-1.00206e-07 -2.36438e-07 0)
(-1.01125e-07 -2.38253e-07 0)
(-1.02041e-07 -2.40054e-07 0)
(-1.02955e-07 -2.41841e-07 0)
(-1.03865e-07 -2.43612e-07 0)
(-1.04773e-07 -2.45369e-07 0)
(-1.05677e-07 -2.4711e-07 0)
(-1.06578e-07 -2.48835e-07 0)
(-1.07475e-07 -2.50544e-07 0)
(-1.08369e-07 -2.52237e-07 0)
(-1.09259e-07 -2.53912e-07 0)
(-1.10145e-07 -2.55569e-07 0)
(-1.11028e-07 -2.57209e-07 0)
(-1.11906e-07 -2.58831e-07 0)
(-1.12782e-07 -2.60436e-07 0)
(-1.13654e-07 -2.62023e-07 0)
(-1.14523e-07 -2.63592e-07 0)
(-1.15389e-07 -2.65144e-07 0)
(-1.16253e-07 -2.6668e-07 0)
(-1.17115e-07 -2.68198e-07 0)
(-1.17975e-07 -2.69701e-07 0)
(-1.18835e-07 -2.71188e-07 0)
(-1.19695e-07 -2.72659e-07 0)
(-1.20555e-07 -2.74116e-07 0)
(-1.21415e-07 -2.75557e-07 0)
(-1.22277e-07 -2.76983e-07 0)
(-1.2314e-07 -2.78393e-07 0)
(-1.24004e-07 -2.79787e-07 0)
(-1.24869e-07 -2.81162e-07 0)
(-1.25735e-07 -2.82518e-07 0)
(-1.26601e-07 -2.83852e-07 0)
(-1.27467e-07 -2.85162e-07 0)
(-1.28333e-07 -2.86448e-07 0)
(-1.29197e-07 -2.87707e-07 0)
(-1.30062e-07 -2.88939e-07 0)
(-1.30928e-07 -2.90145e-07 0)
(-1.318e-07 -2.91329e-07 0)
(-1.32683e-07 -2.92496e-07 0)
(-1.33586e-07 -2.93655e-07 0)
(-1.34519e-07 -2.94814e-07 0)
(-1.35493e-07 -2.95984e-07 0)
(-1.36519e-07 -2.9717e-07 0)
(-1.37604e-07 -2.98374e-07 0)
(-1.38743e-07 -2.99584e-07 0)
(-1.39913e-07 -3.00771e-07 0)
(-1.41054e-07 -3.01873e-07 0)
(-1.42068e-07 -3.02801e-07 0)
(-1.42849e-07 -3.03474e-07 0)
(-1.43346e-07 -3.03874e-07 0)
(-1.436e-07 -3.0406e-07 0)
(-1.43708e-07 -3.04128e-07 0)
(-1.43769e-07 -3.04151e-07 0)
(-1.43841e-07 -3.04205e-07 0)
(-1.43991e-07 -3.04368e-07 0)
(-1.44085e-07 -3.04412e-07 0)
(-1.44166e-07 -3.0442e-07 0)
(-1.44362e-07 -3.04406e-07 0)
(-0.0315766 1.74853e-05 0)
(-0.134421 0.000250686 0)
(-0.229994 0.000335763 0)
(-0.307908 0.000386341 0)
(-0.373548 0.000416041 0)
(-0.429844 0.000455523 0)
(-0.478832 0.000511399 0)
(-0.521949 0.000591257 0)
(-0.560248 0.000700711 0)
(-0.594526 0.00084299 0)
(-0.625398 0.00101914 0)
(-0.653351 0.00122843 0)
(-0.678768 0.00146871 0)
(-0.701955 0.00173672 0)
(-0.723156 0.0020282 0)
(-0.742564 0.00233784 0)
(-0.760334 0.0026592 0)
(-0.77659 0.00298446 0)
(-0.791434 0.00330436 0)
(-0.804953 0.00360829 0)
(-0.817221 0.00388463 0)
(-0.828308 0.00412037 0)
(-0.838284 0.00429921 0)
(-0.847219 0.0043978 0)
(-0.855192 0.00438476 0)
(-0.862286 0.00422915 0)
(-0.868593 0.00391767 0)
(-0.874208 0.00346604 0)
(-0.879218 0.00291288 0)
(-0.883702 0.00230301 0)
(-0.887724 0.00167431 0)
(-0.891339 0.00105337 0)
(-0.894593 0.000456728 0)
(-0.897524 -0.000106418 0)
(-0.900165 -0.000631656 0)
(-0.902544 -0.00111758 0)
(-0.904688 -0.0015646 0)
(-0.906619 -0.00197414 0)
(-0.908356 -0.00234819 0)
(-0.909918 -0.00268902 0)
(-0.91132 -0.00299893 0)
(-0.912577 -0.00328025 0)
(-0.913703 -0.00353519 0)
(-0.914709 -0.00376584 0)
(-0.915605 -0.00397417 0)
(-0.916402 -0.00416202 0)
(-0.917109 -0.00433107 0)
(-0.917733 -0.00448292 0)
(-0.918283 -0.00461903 0)
(-0.918764 -0.00474074 0)
(-0.919184 -0.00484933 0)
(-0.919548 -0.00494596 0)
(-0.919861 -0.00503172 0)
(-0.920128 -0.00510763 0)
(-0.920357 -0.00517532 0)
(-0.920551 -0.00523597 0)
(-0.920713 -0.00529006 0)
(-0.920843 -0.00533808 0)
(-0.920945 -0.00538053 0)
(-0.921018 -0.0054179 0)
(-0.921066 -0.00545068 0)
(-0.92109 -0.00547933 0)
(-0.921091 -0.00550426 0)
(-0.921072 -0.00552583 0)
(-0.921035 -0.00554433 0)
(-0.92098 -0.00555998 0)
(-0.920909 -0.00557289 0)
(-0.920824 -0.00558308 0)
(-0.920727 -0.00559048 0)
(-0.920619 -0.00559493 0)
(-0.920501 -0.00559616 0)
(-0.920375 -0.0055938 0)
(-0.920241 -0.00558736 0)
(-0.920101 -0.00557624 0)
(-0.919956 -0.00555973 0)
(-0.919806 -0.00553699 0)
(-0.919652 -0.00550709 0)
(-0.919495 -0.00546915 0)
(-0.919336 -0.0054224 0)
(-0.919175 -0.00536629 0)
(-0.919012 -0.00530052 0)
(-0.918849 -0.0052251 0)
(-0.918687 -0.00514078 0)
(-0.918525 -0.00505005 0)
(-0.918364 -0.00495891 0)
(-0.918203 -0.00487864 0)
(-0.918042 -0.00482275 0)
(-0.917888 -0.00479335 0)
(-0.917754 -0.00477577 0)
(-0.917592 -0.00475574 0)
(-0.888457 -0.00466051 0)
(-0.885943 -0.00467044 0)
(-0.88334 -0.00462841 0)
(-0.880707 -0.0045475 0)
(-0.878048 -0.0044269 0)
(-0.875368 -0.00426882 0)
(-0.872672 -0.00407627 0)
(-0.869967 -0.00385513 0)
(-0.867258 -0.00356761 0)
(-0.864563 -0.0035077 0)
(-0.861849 -0.00257721 0)
(-0.859214 -0.00372501 0)
(-0.856527 -0.000723088 0)
(-0.854084 -0.00483415 0)
(-0.851494 0.00228532 0)
(-0.849008 -0.00895183 0)
(-0.84685 -0.0338083 0)
(-0.844803 -0.0397025 0)
(-0.842552 -0.039621 0)
(-0.84062 -0.0396232 0)
(-0.838839 -0.0396192 0)
(-0.837243 -0.0396149 0)
(-0.835848 -0.0396101 0)
(-0.83467 -0.039605 0)
(-0.833718 -0.0395996 0)
(-0.832996 -0.0395942 0)
(-0.832503 -0.0395888 0)
(-0.832257 -0.0395841 0)
(-0.832202 -0.03958 0)
(-0.832347 -0.0395759 0)
(-0.832669 -0.0395728 0)
(-0.833144 -0.0395703 0)
(-0.833747 -0.0395683 0)
(-0.834453 -0.0395667 0)
(-0.835235 -0.0395655 0)
(-0.836068 -0.0395646 0)
(-0.836922 -0.0395637 0)
(-0.83777 -0.0395627 0)
(-0.838577 -0.0395614 0)
(-0.839308 -0.0395595 0)
(-0.839891 -0.0395555 0)
(-0.840136 -0.0395507 0)
(-0.840163 -0.0395485 0)
(-0.840164 -0.0395482 0)
(-0.840164 -0.0395482 0)
(-0.840164 -0.0395482 0)
(-0.840164 -0.0395482 0)
(-0.840164 -0.0395482 0)
(-0.840164 -0.0395482 0)
(-0.840164 -0.0395482 0)
(-0.840164 -0.0395482 0)
(-0.840164 -0.0395482 0)
(-0.840164 -0.0395482 0)
(-0.840164 -0.0395482 0)
(-0.840164 -0.0395482 0)
(-0.840164 -0.0395482 0)
(-0.840164 -0.0395482 0)
(-0.840164 -0.0395482 0)
(-0.840164 -0.0395482 0)
(-0.840164 -0.0395482 0)
(-0.840164 -0.0395482 0)
(-0.840164 -0.0395482 0)
(-0.840164 -0.0395482 0)
(-0.840164 -0.0395482 0)
(-0.840164 -0.0395482 0)
(-0.840164 -0.0395482 0)
(-0.840164 -0.0395482 0)
(-0.840164 -0.0395482 0)
(-0.840164 -0.0395482 0)
(-0.840164 -0.0395482 0)
(-0.840164 -0.0395482 0)
(-0.840164 -0.0395482 0)
(-0.840164 -0.0395482 0)
(-0.840164 -0.0395482 0)
(-0.840164 -0.0395482 0)
(-0.840164 -0.0395482 0)
(-0.840164 -0.0395482 0)
(-0.840164 -0.0395482 0)
(-0.840164 -0.0395482 0)
(-0.840164 -0.0395482 0)
(-0.840164 -0.0395482 0)
(-0.840164 -0.0395482 0)
(-0.840164 -0.0395482 0)
(-0.840164 -0.0395482 0)
(-0.840164 -0.0395482 0)
(-0.840164 -0.0395482 0)
(-0.840164 -0.0395482 0)
(-0.840164 -0.0395482 0)
(-0.840164 -0.0395482 0)
(-0.840164 -0.0395482 0)
(-0.840164 -0.0395482 0)
(-0.840164 -0.0395482 0)
(-0.840164 -0.0395482 0)
(-0.840164 -0.0395482 0)
(-0.840164 -0.0395482 0)
(-0.840164 -0.0395482 0)
(-0.840164 -0.0395482 0)
(-0.840164 -0.0395482 0)
(-0.840164 -0.0395482 0)
(-0.840164 -0.0395482 0)
(-0.840164 -0.0395482 0)
(-0.840164 -0.0395482 0)
(-0.840164 -0.0395482 0)
(-0.840164 -0.0395482 0)
(-0.840164 -0.0395482 0)
(-0.840164 -0.0395482 0)
(-0.840164 -0.0395482 0)
(-0.840164 -0.0395482 0)
(-0.840164 -0.0395482 0)
(-0.840164 -0.0395482 0)
(-0.840164 -0.0395482 0)
(-0.840164 -0.0395482 0)
(-0.840164 -0.0395482 0)
(-0.840164 -0.0395482 0)
(-0.840164 -0.0395482 0)
(-0.840164 -0.0395482 0)
(-0.840164 -0.0395482 0)
(-0.840164 -0.0395482 0)
(-0.840164 -0.0395482 0)
(-0.840164 -0.039548 0)
(-0.840164 -0.0395396 0)
(-0.840158 -0.0391949 0)
(-0.840028 -0.0224965 0)
)
;

boundaryField
{
    inandouthalf11
    {
        type            cyclic;
    }
    inandouthalf12
    {
        type            cyclic;
    }
    inandouthalf21
    {
        type            cyclic;
    }
    inandouthalf22
    {
        type            cyclic;
    }
    inandouthalf31
    {
        type            cyclic;
    }
    inandouthalf32
    {
        type            cyclic;
    }
    inandouthalf41
    {
        type            cyclic;
    }
    inandouthalf42
    {
        type            cyclic;
    }
    top
    {
        type            symmetryPlane;
    }
    walls
    {
        type            fixedValue;
        value           uniform (0 0 0);
    }
    frontAndBackPlanes
    {
        type            empty;
    }
}


// ************************************************************************* //
