/*--------------------------------*- C++ -*----------------------------------*\
| =========                 |                                                 |
| \\      /  F ield         | OpenFOAM: The Open Source CFD Toolbox           |
|  \\    /   O peration     | Version:  2.4.x                                 |
|   \\  /    A nd           | Web:      www.OpenFOAM.org                      |
|    \\/     M anipulation  |                                                 |
\*---------------------------------------------------------------------------*/
FoamFile
{
    version     2.0;
    format      ascii;
    class       volVectorField;
    location    "11.9";
    object      Ur;
}
// * * * * * * * * * * * * * * * * * * * * * * * * * * * * * * * * * * * * * //

dimensions      [0 1 -1 0 0 0 0];

internalField   nonuniform List<vector> 
360
(
(-4.0489e-05 1.41551e-09 0)
(-4.02625e-05 8.35958e-09 0)
(-4.02321e-05 1.5248e-08 0)
(-4.02627e-05 2.16982e-08 0)
(-4.02769e-05 2.84236e-08 0)
(-4.02814e-05 3.55401e-08 0)
(-4.02872e-05 4.29209e-08 0)
(-4.02946e-05 5.0511e-08 0)
(-4.03023e-05 5.83151e-08 0)
(-4.03101e-05 6.63441e-08 0)
(-4.03179e-05 7.46003e-08 0)
(-4.03257e-05 8.30733e-08 0)
(-4.03335e-05 9.17454e-08 0)
(-4.03415e-05 1.00595e-07 0)
(-4.03495e-05 1.096e-07 0)
(-4.03576e-05 1.18737e-07 0)
(-4.03658e-05 1.27982e-07 0)
(-4.03741e-05 1.37309e-07 0)
(-4.03825e-05 1.46693e-07 0)
(-4.03909e-05 1.56109e-07 0)
(-4.03994e-05 1.65531e-07 0)
(-4.04081e-05 1.74937e-07 0)
(-4.04168e-05 1.84304e-07 0)
(-4.04256e-05 1.93614e-07 0)
(-4.04345e-05 2.02849e-07 0)
(-4.04435e-05 2.11992e-07 0)
(-4.04526e-05 2.21028e-07 0)
(-4.04618e-05 2.29947e-07 0)
(-4.0471e-05 2.38738e-07 0)
(-4.04804e-05 2.47394e-07 0)
(-4.04899e-05 2.55907e-07 0)
(-4.04995e-05 2.64275e-07 0)
(-4.05091e-05 2.72492e-07 0)
(-4.0519e-05 2.80559e-07 0)
(-4.05288e-05 2.88475e-07 0)
(-4.05388e-05 2.96241e-07 0)
(-4.05489e-05 3.03858e-07 0)
(-4.05592e-05 3.11329e-07 0)
(-4.05695e-05 3.1866e-07 0)
(-4.05799e-05 3.25853e-07 0)
(-4.05906e-05 3.32912e-07 0)
(-4.06013e-05 3.39844e-07 0)
(-4.0612e-05 3.46651e-07 0)
(-4.0623e-05 3.53342e-07 0)
(-4.06341e-05 3.5992e-07 0)
(-4.06453e-05 3.66392e-07 0)
(-4.06567e-05 3.72764e-07 0)
(-4.0668e-05 3.79038e-07 0)
(-4.06796e-05 3.85222e-07 0)
(-4.06915e-05 3.91322e-07 0)
(-4.07033e-05 3.97341e-07 0)
(-4.07154e-05 4.03286e-07 0)
(-4.07275e-05 4.09159e-07 0)
(-4.07399e-05 4.14967e-07 0)
(-4.07523e-05 4.20713e-07 0)
(-4.07651e-05 4.26401e-07 0)
(-4.07778e-05 4.32035e-07 0)
(-4.07908e-05 4.37619e-07 0)
(-4.0804e-05 4.43155e-07 0)
(-4.08172e-05 4.48645e-07 0)
(-4.08308e-05 4.54095e-07 0)
(-4.08444e-05 4.59504e-07 0)
(-4.08583e-05 4.64878e-07 0)
(-4.08723e-05 4.70217e-07 0)
(-4.08865e-05 4.75524e-07 0)
(-4.09009e-05 4.80799e-07 0)
(-4.09156e-05 4.86045e-07 0)
(-4.09304e-05 4.91263e-07 0)
(-4.09455e-05 4.96453e-07 0)
(-4.09606e-05 5.01615e-07 0)
(-4.09762e-05 5.06752e-07 0)
(-4.09919e-05 5.11864e-07 0)
(-4.10077e-05 5.16951e-07 0)
(-4.1024e-05 5.22013e-07 0)
(-4.10404e-05 5.27052e-07 0)
(-4.10571e-05 5.32068e-07 0)
(-4.1074e-05 5.37059e-07 0)
(-4.10912e-05 5.42026e-07 0)
(-4.11086e-05 5.46967e-07 0)
(-4.11264e-05 5.51882e-07 0)
(-4.11444e-05 5.56769e-07 0)
(-4.11627e-05 5.6163e-07 0)
(-4.11813e-05 5.66462e-07 0)
(-4.12003e-05 5.71266e-07 0)
(-4.12196e-05 5.76042e-07 0)
(-4.12392e-05 5.80788e-07 0)
(-4.12591e-05 5.85504e-07 0)
(-4.12794e-05 5.90187e-07 0)
(-4.13e-05 5.94836e-07 0)
(-4.13211e-05 5.9945e-07 0)
(-4.13425e-05 6.04027e-07 0)
(-4.13643e-05 6.08565e-07 0)
(-4.13866e-05 6.13065e-07 0)
(-4.14092e-05 6.17523e-07 0)
(-4.14323e-05 6.21941e-07 0)
(-4.14559e-05 6.26317e-07 0)
(-4.148e-05 6.3065e-07 0)
(-4.15045e-05 6.34938e-07 0)
(-4.15296e-05 6.39181e-07 0)
(-4.15552e-05 6.43377e-07 0)
(-4.15814e-05 6.47525e-07 0)
(-4.16081e-05 6.51624e-07 0)
(-4.16354e-05 6.55674e-07 0)
(-4.16634e-05 6.59675e-07 0)
(-4.16919e-05 6.63626e-07 0)
(-4.17212e-05 6.67527e-07 0)
(-4.17512e-05 6.71378e-07 0)
(-4.17818e-05 6.75181e-07 0)
(-4.18133e-05 6.78935e-07 0)
(-4.18455e-05 6.82642e-07 0)
(-4.18786e-05 6.86302e-07 0)
(-4.19125e-05 6.89916e-07 0)
(-4.19473e-05 6.93485e-07 0)
(-4.1983e-05 6.97008e-07 0)
(-4.20197e-05 7.00487e-07 0)
(-4.20575e-05 7.03919e-07 0)
(-4.20963e-05 7.07304e-07 0)
(-4.21363e-05 7.10639e-07 0)
(-4.21774e-05 7.1392e-07 0)
(-4.22199e-05 7.17142e-07 0)
(-4.22636e-05 7.20302e-07 0)
(-4.23088e-05 7.23393e-07 0)
(-4.23555e-05 7.2641e-07 0)
(-4.24037e-05 7.29351e-07 0)
(-4.24536e-05 7.32213e-07 0)
(-4.25053e-05 7.35e-07 0)
(-4.25588e-05 7.3772e-07 0)
(-4.26144e-05 7.40385e-07 0)
(-4.26722e-05 7.43016e-07 0)
(-4.27323e-05 7.45634e-07 0)
(-4.2795e-05 7.48263e-07 0)
(-4.28602e-05 7.50915e-07 0)
(-4.29284e-05 7.53587e-07 0)
(-4.30005e-05 7.56244e-07 0)
(-4.30775e-05 7.58806e-07 0)
(-4.31595e-05 7.61117e-07 0)
(-4.32465e-05 7.62959e-07 0)
(-4.33395e-05 7.64137e-07 0)
(-4.34428e-05 7.646e-07 0)
(-4.35608e-05 7.64503e-07 0)
(-4.36883e-05 7.63989e-07 0)
(-4.38397e-05 7.59912e-07 0)
(-4.48859e-05 7.6287e-07 0)
(-4.47302e-05 7.37887e-07 0)
(-4.49224e-05 9.8357e-07 0)
(-4.53531e-05 -1.77097e-07 0)
(-0.00015251 4.35952e-06 0)
(-0.00361655 -3.51344e-05 0)
(-0.0103322 -0.000375409 0)
(-0.00894313 -0.000432178 0)
(-0.00772067 -0.000477492 0)
(-0.00656752 -0.000496536 0)
(-0.00569879 -0.000527222 0)
(-0.00506907 -0.000576755 0)
(-0.00463897 -0.000652402 0)
(-0.00438853 -0.000759099 0)
(-0.00430829 -0.000899347 0)
(-0.00439355 -0.0010736 0)
(-0.00464192 -0.00128075 0)
(-0.00505318 -0.00151845 0)
(-0.00562951 -0.00178339 0)
(-0.0063756 -0.00207137 0)
(-0.00729819 -0.00237718 0)
(-0.008405 -0.00269449 0)
(-0.00970312 -0.00301563 0)
(-0.011197 -0.00333146 0)
(-0.0128864 -0.00363148 0)
(-0.0147639 -0.00390414 0)
(-0.0168132 -0.00413654 0)
(-0.0190073 -0.0043124 0)
(-0.0213073 -0.00440843 0)
(-0.0236613 -0.00439327 0)
(-0.0260051 -0.00423599 0)
(-0.0282659 -0.00392325 0)
(-0.0303707 -0.00347069 0)
(-0.0322569 -0.00291687 0)
(-0.0338797 -0.00230652 0)
(-0.0352143 -0.00167746 0)
(-0.0362553 -0.00105626 0)
(-0.0370124 -0.000459406 0)
(-0.0375068 0.000103903 0)
(-0.0377669 0.000629269 0)
(-0.0378243 0.00111529 0)
(-0.0377113 0.00156239 0)
(-0.0374583 0.00197199 0)
(-0.0370925 0.00234608 0)
(-0.0366379 0.00268694 0)
(-0.0361141 0.00299688 0)
(-0.0355375 0.00327821 0)
(-0.0349209 0.00353316 0)
(-0.0342746 0.00376381 0)
(-0.0336062 0.00397214 0)
(-0.0329215 0.00415998 0)
(-0.0322248 0.00432903 0)
(-0.0315189 0.00448087 0)
(-0.030806 0.00461696 0)
(-0.030087 0.00473866 0)
(-0.0293626 0.00484724 0)
(-0.028633 0.00494386 0)
(-0.0278978 0.00502961 0)
(-0.0271567 0.00510551 0)
(-0.0264014 0.00517318 0)
(-0.0256234 0.00523382 0)
(-0.0248213 0.0052879 0)
(-0.0239937 0.00533591 0)
(-0.0231389 0.00537835 0)
(-0.0222552 0.00541572 0)
(-0.0213408 0.00544849 0)
(-0.020394 0.00547713 0)
(-0.0194127 0.00550206 0)
(-0.018395 0.00552363 0)
(-0.0173392 0.00554214 0)
(-0.0162432 0.00555779 0)
(-0.0151053 0.0055707 0)
(-0.0139236 0.0055809 0)
(-0.0126965 0.00558831 0)
(-0.0114224 0.00559278 0)
(-0.0100997 0.00559403 0)
(-0.00872711 0.00559168 0)
(-0.00730338 0.00558527 0)
(-0.00582744 0.00557419 0)
(-0.00429836 0.00555772 0)
(-0.00271541 0.00553502 0)
(-0.00107805 0.00550518 0)
(0.000614083 0.00546729 0)
(0.00236121 0.0054206 0)
(0.00416347 0.00536455 0)
(0.00602097 0.00529884 0)
(0.00793383 0.00522348 0)
(0.00990204 0.00513923 0)
(0.0119251 0.00504856 0)
(0.0140018 0.00495748 0)
(0.0161295 0.00487729 0)
(0.0183071 0.00482147 0)
(0.0205396 0.00479212 0)
(0.0228387 0.00477457 0)
(0.0251529 0.00475455 0)
(-0.00145254 0.00465965 0)
(-0.00141147 0.0046696 0)
(-0.00142578 0.00462771 0)
(-0.00143855 0.00454694 0)
(-0.00145109 0.00442648 0)
(-0.00146336 0.00426855 0)
(-0.00147535 0.00407615 0)
(-0.00148696 0.00385515 0)
(-0.00149945 0.00356775 0)
(-0.0015034 0.00350797 0)
(-0.00153924 0.0025775 0)
(-0.00151845 0.00372558 0)
(-0.00158427 0.000723306 0)
(-0.00145083 0.00483527 0)
(-0.00152259 -0.00228554 0)
(-0.00156416 0.00895675 0)
(-0.00136553 0.0338115 0)
(-0.00116174 0.0397026 0)
(-0.00128606 0.039621 0)
(-0.00123397 0.0396232 0)
(-0.0011934 0.0396192 0)
(-0.00114842 0.0396149 0)
(-0.00110096 0.0396101 0)
(-0.00105176 0.039605 0)
(-0.00100203 0.0395996 0)
(-0.00095461 0.0395942 0)
(-0.000912884 0.0395888 0)
(-0.000852169 0.0395841 0)
(-0.000816906 0.03958 0)
(-0.000783534 0.0395759 0)
(-0.000752486 0.0395728 0)
(-0.000726792 0.0395703 0)
(-0.000706293 0.0395683 0)
(-0.000690881 0.0395667 0)
(-0.000680404 0.0395655 0)
(-0.000674713 0.0395646 0)
(-0.000673708 0.0395637 0)
(-0.000677406 0.0395627 0)
(-0.000685915 0.0395614 0)
(-0.000695412 0.0395595 0)
(-0.000728373 0.0395555 0)
(-0.000779141 0.0395507 0)
(-0.000786251 0.0395485 0)
(-0.000786419 0.0395482 0)
(-0.000786421 0.0395482 0)
(-0.000786422 0.0395482 0)
(-0.000786422 0.0395482 0)
(-0.000786422 0.0395482 0)
(-0.000786422 0.0395482 0)
(-0.000786422 0.0395482 0)
(-0.000786422 0.0395482 0)
(-0.000786421 0.0395482 0)
(-0.000786422 0.0395482 0)
(-0.000786421 0.0395482 0)
(-0.000786422 0.0395482 0)
(-0.000786421 0.0395482 0)
(-0.000786422 0.0395482 0)
(-0.000786421 0.0395482 0)
(-0.000786422 0.0395482 0)
(-0.000786421 0.0395482 0)
(-0.000786422 0.0395482 0)
(-0.000786421 0.0395482 0)
(-0.000786422 0.0395482 0)
(-0.000786421 0.0395482 0)
(-0.000786422 0.0395482 0)
(-0.000786421 0.0395482 0)
(-0.000786422 0.0395482 0)
(-0.000786421 0.0395482 0)
(-0.000786422 0.0395482 0)
(-0.000786421 0.0395482 0)
(-0.000786422 0.0395482 0)
(-0.000786421 0.0395482 0)
(-0.000786422 0.0395482 0)
(-0.000786421 0.0395482 0)
(-0.000786422 0.0395482 0)
(-0.000786421 0.0395482 0)
(-0.000786422 0.0395482 0)
(-0.000786421 0.0395482 0)
(-0.000786422 0.0395482 0)
(-0.000786421 0.0395482 0)
(-0.000786422 0.0395482 0)
(-0.000786421 0.0395482 0)
(-0.000786422 0.0395482 0)
(-0.000786421 0.0395482 0)
(-0.000786422 0.0395482 0)
(-0.000786421 0.0395482 0)
(-0.000786422 0.0395482 0)
(-0.000786421 0.0395482 0)
(-0.000786422 0.0395482 0)
(-0.000786421 0.0395482 0)
(-0.000786422 0.0395482 0)
(-0.000786421 0.0395482 0)
(-0.000786422 0.0395482 0)
(-0.000786421 0.0395482 0)
(-0.000786422 0.0395482 0)
(-0.000786421 0.0395482 0)
(-0.000786422 0.0395482 0)
(-0.000786421 0.0395482 0)
(-0.000786422 0.0395482 0)
(-0.000786421 0.0395482 0)
(-0.000786422 0.0395482 0)
(-0.000786421 0.0395482 0)
(-0.000786422 0.0395482 0)
(-0.000786421 0.0395482 0)
(-0.000786422 0.0395482 0)
(-0.000786421 0.0395482 0)
(-0.000786422 0.0395482 0)
(-0.000786421 0.0395482 0)
(-0.000786422 0.0395482 0)
(-0.000786421 0.0395482 0)
(-0.000786422 0.0395482 0)
(-0.000786421 0.0395482 0)
(-0.000786422 0.0395482 0)
(-0.000786421 0.0395482 0)
(-0.000786422 0.0395482 0)
(-0.000786421 0.0395482 0)
(-0.000786422 0.0395482 0)
(-0.000786421 0.0395482 0)
(-0.000786422 0.0395482 0)
(-0.000786431 0.039548 0)
(-0.000786667 0.0395396 0)
(-0.000792351 0.0391949 0)
(-0.000922643 0.0224965 0)
)
;

boundaryField
{
    inandouthalf11
    {
        type            cyclic;
    }
    inandouthalf12
    {
        type            cyclic;
    }
    inandouthalf21
    {
        type            cyclic;
    }
    inandouthalf22
    {
        type            cyclic;
    }
    inandouthalf31
    {
        type            cyclic;
    }
    inandouthalf32
    {
        type            cyclic;
    }
    inandouthalf41
    {
        type            cyclic;
    }
    inandouthalf42
    {
        type            cyclic;
    }
    top
    {
        type            symmetryPlane;
    }
    walls
    {
        type            calculated;
        value           uniform (0 0 0);
    }
    frontAndBackPlanes
    {
        type            empty;
    }
}


// ************************************************************************* //
