/*--------------------------------*- C++ -*----------------------------------*\
| =========                 |                                                 |
| \\      /  F ield         | OpenFOAM: The Open Source CFD Toolbox           |
|  \\    /   O peration     | Version:  2.4.x                                 |
|   \\  /    A nd           | Web:      www.OpenFOAM.org                      |
|    \\/     M anipulation  |                                                 |
\*---------------------------------------------------------------------------*/
FoamFile
{
    version     2.0;
    format      ascii;
    class       surfaceScalarField;
    location    "4.8";
    object      ddt0(phia);
}
// * * * * * * * * * * * * * * * * * * * * * * * * * * * * * * * * * * * * * //

dimensions      [0 3 -2 0 0 0 0];

internalField   nonuniform List<scalar> 
359
(
7.80441e-14
2.91798e-13
5.12487e-13
7.06281e-13
8.88263e-13
1.07797e-12
1.28303e-12
1.50119e-12
1.72726e-12
1.95901e-12
2.19715e-12
2.44342e-12
2.69957e-12
2.96669e-12
3.24616e-12
3.54025e-12
3.85219e-12
4.18565e-12
4.54393e-12
4.92915e-12
5.34e-12
5.77157e-12
6.21292e-12
6.64676e-12
7.05035e-12
7.39915e-12
7.67346e-12
7.86767e-12
7.99848e-12
8.11164e-12
8.28388e-12
8.62251e-12
9.26356e-12
1.03796e-11
1.21793e-11
1.48916e-11
1.86363e-11
2.30601e-11
2.67209e-11
2.70055e-11
2.20732e-11
1.36896e-11
6.20312e-12
2.03887e-12
4.96187e-13
8.35749e-14
-6.61256e-15
-2.54146e-14
-2.96396e-14
-3.06481e-14
-3.07903e-14
-3.06018e-14
-3.02071e-14
-2.96305e-14
-2.88846e-14
-2.79979e-14
-2.70223e-14
-2.60168e-14
-2.50338e-14
-2.41061e-14
-2.32429e-14
-2.2439e-14
-2.16788e-14
-2.09453e-14
-2.02222e-14
-1.94965e-14
-1.87572e-14
-1.79957e-14
-1.72049e-14
-1.63788e-14
-1.55111e-14
-1.45977e-14
-1.36371e-14
-1.26282e-14
-1.15736e-14
-1.04767e-14
-9.34382e-15
-8.18082e-15
-6.9928e-15
-5.78339e-15
-4.55477e-15
-3.30688e-15
-2.03847e-15
-7.47743e-16
5.67104e-16
1.90712e-15
3.27254e-15
4.66239e-15
6.07501e-15
7.50846e-15
8.9608e-15
1.04304e-14
1.19163e-14
1.34178e-14
1.49345e-14
1.6466e-14
1.80121e-14
1.9572e-14
2.11448e-14
2.27293e-14
2.43244e-14
2.59285e-14
2.75403e-14
2.91581e-14
3.07803e-14
3.24053e-14
3.40314e-14
3.56567e-14
3.72796e-14
3.88984e-14
4.05117e-14
4.21182e-14
4.37168e-14
4.53068e-14
4.68875e-14
4.84591e-14
5.00218e-14
5.15764e-14
5.31237e-14
5.4665e-14
5.62012e-14
5.77329e-14
5.92597e-14
6.07798e-14
6.22894e-14
6.37827e-14
6.52515e-14
6.66853e-14
6.80713e-14
6.93951e-14
7.06413e-14
7.17964e-14
7.28519e-14
7.38065e-14
7.46645e-14
7.5431e-14
7.61104e-14
7.67079e-14
7.72276e-14
7.76642e-14
7.79921e-14
7.8177e-14
7.82565e-14
7.82786e-14
7.82722e-14
7.81989e-14
7.67355e-12
-1.13724e-09
-2.15933e-09
-2.78159e-09
-3.17849e-09
-3.51751e-09
-3.84545e-09
-4.18996e-09
-4.57351e-09
-5.00831e-09
-5.49673e-09
-6.05037e-09
-6.71142e-09
-7.44266e-09
-8.2415e-09
-9.1165e-09
-1.00599e-08
-1.10643e-08
-1.21208e-08
-1.32179e-08
-1.43419e-08
-1.54763e-08
-1.6602e-08
-1.76961e-08
-1.87314e-08
-1.96759e-08
-2.04921e-08
-2.11318e-08
-2.15197e-08
-2.15202e-08
-2.091e-08
-1.94108e-08
-1.68235e-08
-1.32078e-08
-8.95756e-09
-4.66545e-09
-8.70927e-10
2.11555e-09
4.22605e-09
5.55112e-09
6.24948e-09
6.4895e-09
6.42289e-09
6.18587e-09
5.90619e-09
5.68258e-09
5.54355e-09
5.44549e-09
5.33675e-09
5.21106e-09
5.08841e-09
4.9801e-09
4.88447e-09
4.79909e-09
4.73511e-09
4.70139e-09
4.67685e-09
4.64459e-09
4.64229e-09
4.6844e-09
4.70884e-09
4.72459e-09
4.79487e-09
4.87744e-09
4.94114e-09
5.04054e-09
5.15798e-09
5.26462e-09
5.41226e-09
5.57481e-09
5.70555e-09
5.8888e-09
6.11346e-09
6.29611e-09
6.5171e-09
6.77649e-09
7.03509e-09
7.33955e-09
7.63473e-09
7.95554e-09
8.33947e-09
8.68361e-09
9.0633e-09
9.48883e-09
9.91179e-09
1.03306e-08
1.05538e-08
1.04316e-08
1.02116e-08
8.53268e-09
1.60676e-07
2.0483e-07
-5.14632e-09
-8.23447e-10
2.45359e-10
1.21582e-10
-1.30485e-11
-1.92852e-10
-9.83165e-10
-1.10081e-09
-7.49917e-11
6.01633e-12
-3.68496e-13
-2.89136e-12
-2.78922e-12
-2.79369e-12
-2.79518e-12
-2.79223e-12
-2.79459e-12
-2.79152e-12
-2.79424e-12
-2.79104e-12
-2.79407e-12
-2.7907e-12
-2.794e-12
-2.79047e-12
-2.794e-12
-2.7903e-12
-2.79403e-12
-2.79017e-12
-2.79407e-12
-2.78997e-12
-2.79418e-12
-2.79017e-12
-2.79363e-12
-2.7905e-12
-2.79399e-12
-2.79014e-12
-2.79404e-12
-2.79011e-12
-2.79407e-12
-2.79008e-12
-2.7941e-12
-2.79006e-12
-2.79413e-12
-2.79005e-12
-2.79412e-12
-2.79008e-12
-2.79408e-12
-2.79008e-12
-2.79408e-12
-2.79008e-12
-2.79412e-12
-2.79004e-12
-2.7941e-12
-2.79006e-12
-2.79402e-12
-2.7901e-12
-2.79394e-12
-2.79016e-12
-2.79383e-12
-2.79019e-12
-2.79369e-12
-2.79025e-12
-2.79355e-12
-2.7903e-12
-2.79339e-12
-2.79039e-12
-2.79322e-12
-2.79047e-12
-2.79304e-12
-2.79058e-12
-2.79282e-12
-2.79062e-12
-2.79271e-12
-2.79082e-12
-2.79258e-12
-2.7909e-12
-2.79244e-12
-2.79099e-12
-2.79232e-12
-2.7911e-12
-2.79223e-12
-2.79121e-12
-2.79214e-12
-2.79131e-12
-2.79206e-12
-2.79142e-12
-2.792e-12
-2.7915e-12
-2.79197e-12
-2.79144e-12
-2.79174e-12
-2.7911e-12
-2.79135e-12
-2.79079e-12
-2.79103e-12
-2.79056e-12
-2.79089e-12
-2.79058e-12
-2.7908e-12
-2.7905e-12
-2.79081e-12
-2.79073e-12
-2.79105e-12
-2.79111e-12
-2.79149e-12
-2.79173e-12
-2.79205e-12
-2.79229e-12
-2.7926e-12
-2.79295e-12
-2.79324e-12
-2.7937e-12
-2.79405e-12
-2.79504e-12
-2.7951e-12
-2.79606e-12
-2.79659e-12
-2.79934e-12
-2.80019e-12
-2.83444e-12
-4.46149e-12
)
;

boundaryField
{
    inandouthalf11
    {
        type            cyclic;
        value           nonuniform List<scalar> 
100
(
-5.83447e-40
-1.22423e-14
-3.09762e-14
-4.80008e-14
-6.35679e-14
-7.92162e-14
-9.57285e-14
-1.13163e-13
-1.31249e-13
-1.49753e-13
-1.68636e-13
-1.87992e-13
-2.07936e-13
-2.28557e-13
-2.49928e-13
-2.72165e-13
-2.95445e-13
-3.19995e-13
-3.46058e-13
-3.73827e-13
-4.03361e-13
-4.345e-13
-4.66764e-13
-4.99266e-13
-5.30695e-13
-5.59449e-13
-5.83976e-13
-6.03307e-13
-6.17679e-13
-6.29097e-13
-6.41678e-13
-6.61702e-13
-6.97558e-13
-7.59906e-13
-8.62118e-13
-1.02012e-12
-1.24863e-12
-1.54562e-12
-1.85465e-12
-2.02077e-12
-1.84095e-12
-1.29136e-12
-6.57075e-13
-2.38046e-13
-6.34418e-14
-1.31736e-14
-1.73847e-15
6.83451e-16
1.23047e-15
1.36648e-15
1.3961e-15
1.38911e-15
1.36223e-15
1.31853e-15
1.25802e-15
1.18156e-15
1.09233e-15
9.95412e-16
8.96289e-16
7.99291e-16
7.06735e-16
6.19045e-16
5.35372e-16
4.54252e-16
3.74119e-16
2.93544e-16
2.113e-16
1.26336e-16
3.77457e-17
-5.52936e-17
-1.53581e-16
-2.57827e-16
-3.68528e-16
-4.85964e-16
-6.10197e-16
-7.41012e-16
-8.77926e-16
-1.02031e-15
-1.16754e-15
-1.31915e-15
-1.47482e-15
-1.63446e-15
-1.79821e-15
-1.96632e-15
-2.13907e-15
-2.31673e-15
-2.49945e-15
-2.68725e-15
-2.88001e-15
-3.07756e-15
-3.2797e-15
-3.48623e-15
-3.69703e-15
-3.91205e-15
-4.13128e-15
-4.35475e-15
-4.58248e-15
-4.81448e-15
-5.0507e-15
-5.29109e-15
)
;
    }
    inandouthalf12
    {
        type            cyclic;
        value           nonuniform List<scalar> 
100
(
5.83447e-40
1.22423e-14
3.09762e-14
4.80008e-14
6.35679e-14
7.92162e-14
9.57285e-14
1.13163e-13
1.31249e-13
1.49753e-13
1.68636e-13
1.87992e-13
2.07936e-13
2.28557e-13
2.49928e-13
2.72165e-13
2.95445e-13
3.19995e-13
3.46058e-13
3.73827e-13
4.03361e-13
4.345e-13
4.66764e-13
4.99266e-13
5.30695e-13
5.59449e-13
5.83976e-13
6.03307e-13
6.17679e-13
6.29097e-13
6.41678e-13
6.61702e-13
6.97558e-13
7.59906e-13
8.62118e-13
1.02012e-12
1.24863e-12
1.54562e-12
1.85465e-12
2.02077e-12
1.84095e-12
1.29136e-12
6.57075e-13
2.38046e-13
6.34418e-14
1.31736e-14
1.73847e-15
-6.83451e-16
-1.23047e-15
-1.36648e-15
-1.3961e-15
-1.38911e-15
-1.36223e-15
-1.31853e-15
-1.25802e-15
-1.18156e-15
-1.09233e-15
-9.95412e-16
-8.96289e-16
-7.99291e-16
-7.06735e-16
-6.19045e-16
-5.35372e-16
-4.54252e-16
-3.74119e-16
-2.93544e-16
-2.113e-16
-1.26336e-16
-3.77457e-17
5.52936e-17
1.53581e-16
2.57827e-16
3.68528e-16
4.85964e-16
6.10197e-16
7.41012e-16
8.77926e-16
1.02031e-15
1.16754e-15
1.31915e-15
1.47482e-15
1.63446e-15
1.79821e-15
1.96632e-15
2.13907e-15
2.31673e-15
2.49945e-15
2.68725e-15
2.88001e-15
3.07756e-15
3.2797e-15
3.48623e-15
3.69703e-15
3.91205e-15
4.13128e-15
4.35475e-15
4.58248e-15
4.81448e-15
5.0507e-15
5.29109e-15
)
;
    }
    inandouthalf21
    {
        type            cyclic;
        value           nonuniform List<scalar> 
100
(
-5.53556e-15
-5.78401e-15
-6.0363e-15
-6.2923e-15
-6.55186e-15
-6.81483e-15
-7.08104e-15
-7.35033e-15
-7.62251e-15
-7.89744e-15
-8.17499e-15
-8.45503e-15
-8.73751e-15
-9.02242e-15
-9.30982e-15
-9.59985e-15
-9.89275e-15
-1.01889e-14
-1.04887e-14
-1.07927e-14
-1.11016e-14
-1.14159e-14
-1.17363e-14
-1.20632e-14
-1.23966e-14
-1.27363e-14
-1.30816e-14
-1.34309e-14
-1.37823e-14
-1.41328e-14
-1.4479e-14
-1.4817e-14
-1.51435e-14
-1.54566e-14
-1.5756e-14
-1.60424e-14
-1.63172e-14
-1.65819e-14
-1.68386e-14
-1.70849e-14
-1.73067e-14
-1.74786e-14
-1.75877e-14
-1.76446e-14
-1.76716e-14
-1.76886e-14
-1.77147e-14
-3.0349e-08
-5.69249e-08
-5.94683e-08
-6.44766e-08
-7.10503e-08
-7.82547e-08
-8.56217e-08
-9.28875e-08
-9.98883e-08
-1.06522e-07
-1.1273e-07
-1.18483e-07
-1.23769e-07
-1.28585e-07
-1.32932e-07
-1.36805e-07
-1.402e-07
-1.43106e-07
-1.45509e-07
-1.47394e-07
-1.48744e-07
-1.49543e-07
-1.49777e-07
-1.49434e-07
-1.48512e-07
-1.47014e-07
-1.44953e-07
-1.42355e-07
-1.3926e-07
-1.35725e-07
-1.3183e-07
-1.27685e-07
-1.23421e-07
-1.19181e-07
-1.15092e-07
-1.11241e-07
-1.07665e-07
-1.04363e-07
-1.0131e-07
-9.84749e-08
-9.58293e-08
-9.33521e-08
-9.10319e-08
-8.88671e-08
-8.68656e-08
-8.50373e-08
-8.33823e-08
-8.18858e-08
-8.05264e-08
-7.92866e-08
-7.81536e-08
-7.7115e-08
-7.61588e-08
)
;
    }
    inandouthalf22
    {
        type            cyclic;
        value           nonuniform List<scalar> 
100
(
5.53556e-15
5.78401e-15
6.0363e-15
6.2923e-15
6.55186e-15
6.81483e-15
7.08104e-15
7.35033e-15
7.62251e-15
7.89744e-15
8.17499e-15
8.45503e-15
8.73751e-15
9.02242e-15
9.30982e-15
9.59985e-15
9.89275e-15
1.01889e-14
1.04887e-14
1.07927e-14
1.11016e-14
1.14159e-14
1.17363e-14
1.20632e-14
1.23966e-14
1.27363e-14
1.30816e-14
1.34309e-14
1.37823e-14
1.41328e-14
1.4479e-14
1.4817e-14
1.51435e-14
1.54566e-14
1.5756e-14
1.60424e-14
1.63172e-14
1.65819e-14
1.68386e-14
1.70849e-14
1.73067e-14
1.74786e-14
1.75877e-14
1.76446e-14
1.76716e-14
1.76886e-14
1.77147e-14
3.0349e-08
5.69249e-08
5.94683e-08
6.44766e-08
7.10503e-08
7.82547e-08
8.56217e-08
9.28875e-08
9.98883e-08
1.06522e-07
1.1273e-07
1.18483e-07
1.23769e-07
1.28585e-07
1.32932e-07
1.36805e-07
1.402e-07
1.43106e-07
1.45509e-07
1.47394e-07
1.48744e-07
1.49543e-07
1.49777e-07
1.49434e-07
1.48512e-07
1.47014e-07
1.44953e-07
1.42355e-07
1.3926e-07
1.35725e-07
1.3183e-07
1.27685e-07
1.23421e-07
1.19181e-07
1.15092e-07
1.11241e-07
1.07665e-07
1.04363e-07
1.0131e-07
9.84749e-08
9.58293e-08
9.33521e-08
9.10319e-08
8.88671e-08
8.68656e-08
8.50373e-08
8.33823e-08
8.18858e-08
8.05264e-08
7.92866e-08
7.81536e-08
7.7115e-08
7.61588e-08
)
;
    }
    inandouthalf31
    {
        type            cyclic;
        value           nonuniform List<scalar> 
110
(
-7.52766e-08
-7.59648e-08
-7.66953e-08
-7.74601e-08
-7.82603e-08
-7.91006e-08
-7.997e-08
-8.08581e-08
-8.1775e-08
-8.27211e-08
-8.36817e-08
-8.46585e-08
-8.56545e-08
-8.66607e-08
-8.768e-08
-8.87105e-08
-8.97383e-08
-9.07735e-08
-9.18225e-08
-9.28646e-08
-9.39027e-08
-9.49476e-08
-9.59913e-08
-9.7032e-08
-9.80641e-08
-9.90912e-08
-1.00118e-07
-1.01131e-07
-1.02137e-07
-1.03144e-07
-1.04142e-07
-1.05124e-07
-1.06075e-07
-1.07022e-07
-1.08067e-07
-1.09274e-07
-1.10326e-07
9.91476e-08
1.06945e-07
1.10548e-07
1.13317e-07
1.15342e-07
1.16188e-07
1.15196e-07
1.11153e-07
9.232e-08
7.83034e-08
7.78488e-08
7.93816e-08
8.09956e-08
8.26393e-08
8.43166e-08
8.6028e-08
8.77741e-08
8.95556e-08
9.13733e-08
9.32279e-08
9.51202e-08
9.70509e-08
9.90207e-08
1.01031e-07
1.03081e-07
1.05173e-07
1.07308e-07
1.09486e-07
1.11709e-07
1.13976e-07
1.16289e-07
1.1865e-07
1.21058e-07
1.23515e-07
1.26022e-07
1.2858e-07
1.3119e-07
1.33853e-07
1.3657e-07
1.39342e-07
1.4217e-07
1.45056e-07
1.48e-07
1.51004e-07
1.54069e-07
1.57196e-07
1.60387e-07
1.63642e-07
1.66963e-07
1.70352e-07
1.7381e-07
1.77338e-07
1.80937e-07
1.8461e-07
1.88357e-07
1.9218e-07
1.96081e-07
2.00061e-07
2.04122e-07
2.08265e-07
2.12492e-07
2.16805e-07
2.21206e-07
2.25695e-07
2.30276e-07
2.3495e-07
2.39719e-07
2.44585e-07
2.49549e-07
2.54615e-07
2.59783e-07
2.65055e-07
2.70435e-07
)
;
    }
    inandouthalf32
    {
        type            cyclic;
        value           nonuniform List<scalar> 
110
(
7.52766e-08
7.59648e-08
7.66953e-08
7.74601e-08
7.82603e-08
7.91006e-08
7.997e-08
8.08581e-08
8.1775e-08
8.27211e-08
8.36817e-08
8.46585e-08
8.56545e-08
8.66607e-08
8.768e-08
8.87105e-08
8.97383e-08
9.07735e-08
9.18225e-08
9.28646e-08
9.39027e-08
9.49476e-08
9.59913e-08
9.7032e-08
9.80641e-08
9.90912e-08
1.00118e-07
1.01131e-07
1.02137e-07
1.03144e-07
1.04142e-07
1.05124e-07
1.06075e-07
1.07022e-07
1.08067e-07
1.09274e-07
1.10326e-07
-9.91476e-08
-1.06945e-07
-1.10548e-07
-1.13317e-07
-1.15342e-07
-1.16188e-07
-1.15196e-07
-1.11153e-07
-9.232e-08
-7.83034e-08
-7.78488e-08
-7.93816e-08
-8.09956e-08
-8.26393e-08
-8.43166e-08
-8.6028e-08
-8.77741e-08
-8.95556e-08
-9.13733e-08
-9.32279e-08
-9.51202e-08
-9.70509e-08
-9.90207e-08
-1.01031e-07
-1.03081e-07
-1.05173e-07
-1.07308e-07
-1.09486e-07
-1.11709e-07
-1.13976e-07
-1.16289e-07
-1.1865e-07
-1.21058e-07
-1.23515e-07
-1.26022e-07
-1.2858e-07
-1.3119e-07
-1.33853e-07
-1.3657e-07
-1.39342e-07
-1.4217e-07
-1.45056e-07
-1.48e-07
-1.51004e-07
-1.54069e-07
-1.57196e-07
-1.60387e-07
-1.63642e-07
-1.66963e-07
-1.70352e-07
-1.7381e-07
-1.77338e-07
-1.80937e-07
-1.8461e-07
-1.88357e-07
-1.9218e-07
-1.96081e-07
-2.00061e-07
-2.04122e-07
-2.08265e-07
-2.12492e-07
-2.16805e-07
-2.21206e-07
-2.25695e-07
-2.30276e-07
-2.3495e-07
-2.39719e-07
-2.44585e-07
-2.49549e-07
-2.54615e-07
-2.59783e-07
-2.65055e-07
-2.70435e-07
)
;
    }
    inandouthalf41
    {
        type            cyclic;
        value           nonuniform List<scalar> 
50
(
2.42067e-07
2.42067e-07
2.42067e-07
2.42067e-07
2.42067e-07
2.42067e-07
2.42067e-07
2.42067e-07
2.42067e-07
2.42067e-07
2.42067e-07
2.42067e-07
2.42067e-07
2.42067e-07
2.42067e-07
2.42067e-07
2.42067e-07
2.42067e-07
2.42067e-07
2.42067e-07
2.42067e-07
2.42067e-07
2.42067e-07
2.42067e-07
2.42067e-07
2.42067e-07
2.42067e-07
2.42067e-07
2.42067e-07
2.42067e-07
2.42067e-07
2.42067e-07
2.42067e-07
2.42067e-07
2.42067e-07
2.42067e-07
2.42067e-07
2.42067e-07
2.42067e-07
2.42067e-07
2.42067e-07
2.42067e-07
2.42067e-07
2.42067e-07
2.42067e-07
2.42067e-07
2.42067e-07
2.4207e-07
2.42122e-07
2.4333e-07
)
;
    }
    inandouthalf42
    {
        type            cyclic;
        value           nonuniform List<scalar> 
50
(
-2.42067e-07
-2.42067e-07
-2.42067e-07
-2.42067e-07
-2.42067e-07
-2.42067e-07
-2.42067e-07
-2.42067e-07
-2.42067e-07
-2.42067e-07
-2.42067e-07
-2.42067e-07
-2.42067e-07
-2.42067e-07
-2.42067e-07
-2.42067e-07
-2.42067e-07
-2.42067e-07
-2.42067e-07
-2.42067e-07
-2.42067e-07
-2.42067e-07
-2.42067e-07
-2.42067e-07
-2.42067e-07
-2.42067e-07
-2.42067e-07
-2.42067e-07
-2.42067e-07
-2.42067e-07
-2.42067e-07
-2.42067e-07
-2.42067e-07
-2.42067e-07
-2.42067e-07
-2.42067e-07
-2.42067e-07
-2.42067e-07
-2.42067e-07
-2.42067e-07
-2.42067e-07
-2.42067e-07
-2.42067e-07
-2.42067e-07
-2.42067e-07
-2.42067e-07
-2.42067e-07
-2.4207e-07
-2.42122e-07
-2.4333e-07
)
;
    }
    top
    {
        type            symmetryPlane;
        value           uniform 0;
    }
    walls
    {
        type            calculated;
        value           uniform 0;
    }
    frontAndBackPlanes
    {
        type            empty;
        value           nonuniform 0();
    }
}


// ************************************************************************* //
