/*--------------------------------*- C++ -*----------------------------------*\
| =========                 |                                                 |
| \\      /  F ield         | OpenFOAM: The Open Source CFD Toolbox           |
|  \\    /   O peration     | Version:  2.4.x                                 |
|   \\  /    A nd           | Web:      www.OpenFOAM.org                      |
|    \\/     M anipulation  |                                                 |
\*---------------------------------------------------------------------------*/
FoamFile
{
    version     2.0;
    format      ascii;
    class       volScalarField;
    location    "4.8";
    object      k;
}
// * * * * * * * * * * * * * * * * * * * * * * * * * * * * * * * * * * * * * //

dimensions      [0 2 -2 0 0 0 0];

internalField   nonuniform List<scalar> 
360
(
1e-20
1e-20
1e-20
1e-20
1e-20
1e-20
1e-20
1e-20
1e-20
1e-20
1e-20
1e-20
1e-20
1e-20
1e-20
1e-20
1e-20
1e-20
1e-20
1e-20
1e-20
1e-20
1e-20
1e-20
1e-20
1e-20
1e-20
1e-20
1e-20
1e-20
1e-20
1e-20
1e-20
1e-20
1e-20
1e-20
1e-20
1e-20
1e-20
1e-20
1e-20
1e-20
1e-20
1e-20
1e-20
1e-20
1e-20
1e-20
1e-20
1e-20
1e-20
1e-20
1e-20
1e-20
1e-20
1e-20
1e-20
1e-20
1e-20
1e-20
1e-20
1e-20
1e-20
1e-20
1e-20
1e-20
1e-20
1e-20
1e-20
1e-20
1e-20
1e-20
1e-20
1e-20
1e-20
1e-20
1e-20
1e-20
1e-20
1e-20
1e-20
1e-20
1e-20
1e-20
1e-20
1e-20
1e-20
1e-20
1e-20
1e-20
1e-20
1e-20
1e-20
1e-20
1e-20
1e-20
1e-20
1e-20
1e-20
1e-20
1e-20
1e-20
1e-20
1e-20
1e-20
1e-20
1e-20
1e-20
1e-20
1e-20
1e-20
1e-20
1e-20
1e-20
1e-20
1e-20
1e-20
1e-20
1e-20
1e-20
1e-20
1e-20
1e-20
1e-20
1e-20
1e-20
1e-20
1e-20
1e-20
1e-20
1e-20
1e-20
1.44787e-20
7.80451e-20
5.00211e-19
3.3627e-18
2.39918e-17
1.85615e-16
1.59454e-15
1.55621e-14
1.75982e-13
2.34542e-12
3.7472e-11
7.27785e-10
1.73537e-08
5.11907e-07
1.82101e-05
0.000506235
0.00350951
0.00604163
0.00729487
0.00801132
0.00844476
0.0087078
0.00886072
0.00893781
0.00895927
0.00893747
0.0088804
0.00879358
0.00868112
0.00854629
0.00839178
0.00821995
0.00803281
0.00783218
0.0076197
0.00739683
0.00716493
0.00692526
0.00667901
0.00642731
0.00617125
0.00591192
0.00565038
0.00538772
0.00512505
0.00486352
0.00460431
0.00434866
0.00409784
0.00385316
0.00361593
0.00338747
0.00316907
0.00296195
0.00276724
0.00258591
0.0024187
0.0022661
0.0021283
0.00200517
0.00189629
0.00180094
0.0017182
0.00164698
0.00158613
0.00153446
0.00149083
0.00145417
0.00142349
0.00139765
0.00137583
0.00135752
0.00134226
0.00132962
0.00131919
0.00131058
0.00130346
0.00129747
0.00129233
0.00128772
0.00128336
0.00127898
0.00127431
0.0012691
0.00126309
0.00125605
0.00124772
0.00123788
0.00122629
0.00121273
0.00119698
0.00117884
0.00115808
0.00113452
0.00110797
0.00107825
0.0010452
0.00100867
0.000968528
0.000924666
0.000877002
0.000825488
0.000770116
0.000710931
0.000648042
0.000581642
0.000512034
0.000439671
0.000365206
0.000289586
0.000214193
0.000141111
7.38368e-05
2.00917e-05
1.3484e-06
2.43817e-08
3.42715e-10
4.53683e-12
5.68288e-14
6.73954e-16
7.57728e-18
8.91254e-20
1.02984e-20
1e-20
1e-20
1e-20
1e-20
1e-20
1e-20
1e-20
1e-20
1e-20
1e-20
1e-20
1e-20
1e-20
1e-20
1e-20
1e-20
1e-20
1e-20
1e-20
1e-20
1e-20
1e-20
1e-20
1e-20
1e-20
1e-20
1e-20
1e-20
1e-20
1e-20
1e-20
1e-20
1e-20
1e-20
1e-20
1e-20
1e-20
1e-20
1e-20
1e-20
1e-20
1e-20
1e-20
1e-20
1e-20
1e-20
1e-20
1e-20
1e-20
1e-20
1e-20
1e-20
1e-20
1e-20
1e-20
1e-20
1e-20
1e-20
1e-20
1e-20
1e-20
1e-20
1e-20
1e-20
1e-20
1e-20
1e-20
1e-20
1e-20
1e-20
1e-20
1e-20
1e-20
1e-20
1e-20
1e-20
1e-20
1e-20
1e-20
1e-20
1e-20
1e-20
1e-20
1e-20
1e-20
1e-20
1e-20
1e-20
1e-20
1e-20
1e-20
1e-20
1e-20
1e-20
1e-20
1e-20
1e-20
1e-20
1e-20
1e-20
1e-20
1e-20
1e-20
1e-20
1e-20
)
;

boundaryField
{
    inandouthalf11
    {
        type            cyclic;
    }
    inandouthalf12
    {
        type            cyclic;
    }
    inandouthalf21
    {
        type            cyclic;
    }
    inandouthalf22
    {
        type            cyclic;
    }
    inandouthalf31
    {
        type            cyclic;
    }
    inandouthalf32
    {
        type            cyclic;
    }
    inandouthalf41
    {
        type            cyclic;
    }
    inandouthalf42
    {
        type            cyclic;
    }
    top
    {
        type            symmetryPlane;
    }
    walls
    {
        type            zeroGradient;
    }
    frontAndBackPlanes
    {
        type            empty;
    }
}


// ************************************************************************* //
