/*--------------------------------*- C++ -*----------------------------------*\
| =========                 |                                                 |
| \\      /  F ield         | OpenFOAM: The Open Source CFD Toolbox           |
|  \\    /   O peration     | Version:  2.4.x                                 |
|   \\  /    A nd           | Web:      www.OpenFOAM.org                      |
|    \\/     M anipulation  |                                                 |
\*---------------------------------------------------------------------------*/
FoamFile
{
    version     2.0;
    format      ascii;
    class       volScalarField;
    location    "4.8";
    object      nutb;
}
// * * * * * * * * * * * * * * * * * * * * * * * * * * * * * * * * * * * * * //

dimensions      [0 2 -1 0 0 0 0];

internalField   nonuniform List<scalar> 
360
(
9e-22
9e-22
9e-22
9e-22
9e-22
9e-22
9e-22
9e-22
9e-22
9e-22
9e-22
9e-22
9e-22
9e-22
9e-22
9e-22
9e-22
9e-22
9e-22
9e-22
9e-22
9e-22
9e-22
9e-22
9e-22
9e-22
9e-22
9e-22
9e-22
9e-22
9e-22
9e-22
9e-22
9e-22
9e-22
9e-22
9e-22
9e-22
9e-22
9e-22
9e-22
9e-22
9e-22
9e-22
9e-22
9e-22
9e-22
9e-22
9e-22
9e-22
9e-22
9e-22
9e-22
9e-22
9e-22
9e-22
9e-22
9e-22
9e-22
9e-22
9e-22
9e-22
9e-22
9e-22
9e-22
9e-22
9e-22
9e-22
9e-22
9e-22
9e-22
9e-22
9e-22
9e-22
9e-22
9e-22
9e-22
9e-22
9e-22
9e-22
9e-22
9e-22
9e-22
9e-22
9e-22
9e-22
9e-22
9e-22
9e-22
9e-22
9e-22
9e-22
9e-22
9e-22
9e-22
9e-22
9e-22
9e-22
9e-22
9e-22
9e-22
9e-22
9e-22
9e-22
9e-22
9e-22
9e-22
9e-22
9e-22
9e-22
9e-22
9e-22
9e-22
9e-22
9e-22
9e-22
9e-22
9e-22
9e-22
9e-22
9e-22
9e-22
9e-22
9e-22
9e-22
9e-22
9e-22
9e-22
9e-22
9e-22
9e-22
9e-22
8.42989e-22
3.89482e-21
2.21991e-20
1.3096e-19
8.06523e-19
5.29818e-18
3.80737e-17
3.06876e-16
2.83345e-15
3.05098e-14
3.90555e-13
6.04046e-12
1.14103e-10
2.65569e-09
7.3954e-08
1.59452e-06
8.97125e-06
1.71819e-05
2.39862e-05
3.00521e-05
3.57152e-05
4.11335e-05
4.63905e-05
5.15183e-05
5.65138e-05
6.13525e-05
6.59994e-05
7.04178e-05
7.45736e-05
7.84384e-05
8.19901e-05
8.52128e-05
8.80966e-05
9.06365e-05
9.28322e-05
9.46867e-05
9.62063e-05
9.74003e-05
9.82801e-05
9.88594e-05
9.91539e-05
9.91814e-05
9.89614e-05
9.85158e-05
9.78686e-05
9.70463e-05
9.6078e-05
9.4996e-05
9.38347e-05
9.26315e-05
9.14257e-05
9.02594e-05
8.91767e-05
8.82238e-05
8.74476e-05
8.68942e-05
8.66066e-05
8.66218e-05
8.6968e-05
8.7662e-05
8.87066e-05
9.00897e-05
9.17844e-05
9.37506e-05
9.59385e-05
9.82923e-05
0.000100754
0.000103268
0.000105781
0.000108276
0.000110733
0.000113115
0.000115388
0.000117526
0.000119506
0.000121312
0.000122931
0.000124357
0.000125584
0.000126609
0.000127432
0.000128052
0.00012847
0.000128686
0.000128698
0.000128507
0.000128108
0.0001275
0.000126676
0.000125632
0.00012436
0.000122852
0.0001211
0.000119092
0.000116818
0.000114267
0.000111426
0.000108281
0.00010482
0.000101027
9.68896e-05
9.23914e-05
8.75177e-05
8.22534e-05
7.65833e-05
7.04926e-05
6.3967e-05
5.6993e-05
4.95585e-05
4.16529e-05
3.32677e-05
2.43976e-05
1.50681e-05
5.23823e-06
4.29961e-07
8.07055e-09
1.12961e-10
1.48764e-12
1.8539e-14
2.18763e-16
2.44141e-18
2.3053e-20
9.54512e-22
9e-22
9e-22
9e-22
9e-22
9e-22
9e-22
9e-22
9e-22
9e-22
9e-22
9e-22
9e-22
9e-22
9e-22
9e-22
9e-22
9e-22
9e-22
9e-22
9e-22
9e-22
9e-22
9e-22
9e-22
9e-22
9e-22
9e-22
9e-22
9e-22
9e-22
9e-22
9e-22
9e-22
9e-22
9e-22
9e-22
9e-22
9e-22
9e-22
9e-22
9e-22
9e-22
9e-22
9e-22
9e-22
9e-22
9e-22
9e-22
9e-22
9e-22
9e-22
9e-22
9e-22
9e-22
9e-22
9e-22
9e-22
9e-22
9e-22
9e-22
9e-22
9e-22
9e-22
9e-22
9e-22
9e-22
9e-22
9e-22
9e-22
9e-22
9e-22
9e-22
9e-22
9e-22
9e-22
9e-22
9e-22
9e-22
9e-22
9e-22
9e-22
9e-22
9e-22
9e-22
9e-22
9e-22
9e-22
9e-22
9e-22
9e-22
9e-22
9e-22
9e-22
9e-22
9e-22
9e-22
9e-22
9e-22
9e-22
9e-22
9e-22
9e-22
9e-22
9e-22
9e-22
)
;

boundaryField
{
    inandouthalf11
    {
        type            cyclic;
    }
    inandouthalf12
    {
        type            cyclic;
    }
    inandouthalf21
    {
        type            cyclic;
    }
    inandouthalf22
    {
        type            cyclic;
    }
    inandouthalf31
    {
        type            cyclic;
    }
    inandouthalf32
    {
        type            cyclic;
    }
    inandouthalf41
    {
        type            cyclic;
    }
    inandouthalf42
    {
        type            cyclic;
    }
    top
    {
        type            symmetryPlane;
    }
    walls
    {
        type            calculated;
        value           uniform 0;
    }
    frontAndBackPlanes
    {
        type            empty;
    }
}


// ************************************************************************* //
