/*--------------------------------*- C++ -*----------------------------------*\
| =========                 |                                                 |
| \\      /  F ield         | OpenFOAM: The Open Source CFD Toolbox           |
|  \\    /   O peration     | Version:  2.4.x                                 |
|   \\  /    A nd           | Web:      www.OpenFOAM.org                      |
|    \\/     M anipulation  |                                                 |
\*---------------------------------------------------------------------------*/
FoamFile
{
    version     2.0;
    format      ascii;
    class       volScalarField;
    location    "4.8";
    object      p;
}
// * * * * * * * * * * * * * * * * * * * * * * * * * * * * * * * * * * * * * //

dimensions      [1 -1 -2 0 0 0 0];

internalField   nonuniform List<scalar> 
360
(
4900.28
4895.38
4890.47
4885.56
4880.65
4875.74
4870.83
4865.91
4861
4856.08
4851.17
4846.25
4841.33
4836.41
4831.49
4826.56
4821.64
4816.71
4811.78
4806.85
4801.92
4796.99
4792.06
4787.12
4782.19
4777.25
4772.31
4767.37
4762.43
4757.48
4752.54
4747.59
4742.64
4737.69
4732.74
4727.79
4722.83
4717.88
4712.92
4707.96
4702.99
4698.02
4693.05
4688.08
4683.11
4678.14
4673.16
4668.19
4663.22
4658.25
4653.28
4648.3
4643.33
4638.36
4633.39
4628.42
4623.44
4618.47
4613.5
4608.53
4603.56
4598.58
4593.61
4588.64
4583.67
4578.7
4573.73
4568.75
4563.78
4558.81
4553.84
4548.87
4543.9
4538.92
4533.95
4528.98
4524.01
4519.04
4514.07
4509.09
4504.12
4499.15
4494.18
4489.21
4484.24
4479.27
4474.3
4469.32
4464.35
4459.38
4454.41
4449.44
4444.47
4439.5
4434.53
4429.56
4424.59
4419.62
4414.64
4409.67
4404.7
4399.73
4394.76
4389.79
4384.82
4379.85
4374.88
4369.91
4364.94
4359.97
4355
4350.03
4345.06
4340.09
4335.12
4330.15
4325.18
4320.21
4315.24
4310.27
4305.3
4300.34
4295.37
4290.4
4285.43
4280.46
4275.49
4270.52
4265.55
4260.59
4255.62
4250.65
4245.68
4240.71
4235.75
4230.78
4225.81
4220.84
4215.88
4210.91
4205.94
4200.98
4196.01
4191.04
4186.08
4181.11
4176.13
4170.48
4161.45
4153.62
4147.06
4140.99
4135.17
4129.55
4124.06
4118.7
4113.43
4108.25
4103.15
4098.11
4093.11
4088.17
4083.26
4078.38
4073.52
4068.69
4063.87
4059.08
4054.29
4049.52
4044.75
4039.99
4035.24
4030.49
4025.75
4021.01
4016.27
4011.54
4006.8
4002.06
3997.31
3992.57
3987.82
3983.06
3978.3
3973.53
3968.76
3963.97
3959.18
3954.38
3949.56
3944.74
3939.91
3935.06
3930.21
3925.36
3920.49
3915.62
3910.74
3905.86
3900.98
3896.04
3891
3885.85
3880.6
3875.24
3869.77
3864.19
3858.49
3852.67
3846.74
3840.68
3834.51
3828.2
3821.77
3815.21
3808.52
3801.69
3794.72
3787.61
3780.36
3772.97
3765.42
3757.73
3749.87
3741.86
3733.69
3725.36
3716.86
3708.18
3699.34
3690.31
3681.11
3671.72
3662.14
3652.36
3642.4
3632.23
3621.85
3611.27
3600.47
3589.45
3578.21
3566.73
3555.02
3543.06
3530.84
3518.35
3505.61
3492.61
3479.35
3465.82
3452.01
3437.92
3423.55
3408.88
3393.92
3378.66
3363.08
3347.19
3330.97
3314.43
3297.55
3280.33
3262.76
3244.83
3226.54
3207.87
3188.83
3169.4
3149.58
3129.35
3108.72
3087.66
3066.18
3044.26
3021.9
2999.08
2975.8
2952.05
2927.81
2903.09
2877.86
2852.12
2825.86
2799.06
2771.72
2743.82
2715.36
2686.32
2656.7
2626.47
2595.62
2564.15
2532.05
2499.29
2465.86
2431.76
2396.96
2361.46
2325.24
2288.28
2250.57
2212.1
2172.85
2132.8
2091.93
2050.24
2007.7
1964.3
1922.76
1883.52
1844.28
1805.04
1765.8
1726.56
1687.32
1648.08
1608.84
1569.6
1530.36
1491.12
1451.88
1412.64
1373.4
1334.16
1294.92
1255.68
1216.44
1177.2
1137.96
1098.72
1059.48
1020.24
981
941.76
902.52
863.28
824.04
784.8
745.56
706.32
667.08
627.84
588.6
549.36
510.12
470.88
431.64
392.4
353.16
313.92
274.68
235.44
196.2
156.96
117.72
78.48
39.24
1.8532e-07
)
;

boundaryField
{
    inandouthalf11
    {
        type            cyclic;
    }
    inandouthalf12
    {
        type            cyclic;
    }
    inandouthalf21
    {
        type            cyclic;
    }
    inandouthalf22
    {
        type            cyclic;
    }
    inandouthalf31
    {
        type            cyclic;
    }
    inandouthalf32
    {
        type            cyclic;
    }
    inandouthalf41
    {
        type            cyclic;
    }
    inandouthalf42
    {
        type            cyclic;
    }
    top
    {
        type            symmetryPlane;
    }
    walls
    {
        type            slip;
    }
    frontAndBackPlanes
    {
        type            empty;
    }
}


// ************************************************************************* //
