/*--------------------------------*- C++ -*----------------------------------*\
| =========                 |                                                 |
| \\      /  F ield         | OpenFOAM: The Open Source CFD Toolbox           |
|  \\    /   O peration     | Version:  2.4.x                                 |
|   \\  /    A nd           | Web:      www.OpenFOAM.org                      |
|    \\/     M anipulation  |                                                 |
\*---------------------------------------------------------------------------*/
FoamFile
{
    version     2.0;
    format      ascii;
    class       volVectorField;
    location    "4.8";
    object      susb;
}
// * * * * * * * * * * * * * * * * * * * * * * * * * * * * * * * * * * * * * //

dimensions      [0 1 -2 0 0 0 0];

internalField   nonuniform List<vector> 
360
(
(0 4.35196e-18 0)
(0 5.3564e-18 0)
(0 6.08368e-19 0)
(0 -7.32979e-19 0)
(-3.68482e-31 -5.44513e-19 0)
(-3.68414e-31 -3.54962e-19 0)
(-3.68355e-31 -3.36239e-19 0)
(0 -3.3996e-19 0)
(-7.36467e-31 -3.45049e-19 0)
(0 -3.60703e-19 0)
(-3.68104e-31 -3.70142e-19 0)
(0 -3.73075e-19 0)
(-3.67971e-31 -3.73508e-19 0)
(0 -3.72931e-19 0)
(0 -3.75721e-19 0)
(0 -3.80324e-19 0)
(0 -3.84197e-19 0)
(-3.67633e-31 -3.87174e-19 0)
(0 -3.92672e-19 0)
(0 -3.95732e-19 0)
(0 -3.99523e-19 0)
(-3.67351e-31 -4.06639e-19 0)
(0 -4.11435e-19 0)
(0 -4.16491e-19 0)
(0 -4.20465e-19 0)
(-3.67054e-31 -4.21616e-19 0)
(0 -4.23304e-19 0)
(0 -4.22809e-19 0)
(0 -4.17251e-19 0)
(0 -4.11012e-19 0)
(0 -4.08749e-19 0)
(0 -4.04517e-19 0)
(0 -4.1062e-19 0)
(0 -4.26127e-19 0)
(0 -4.51444e-19 0)
(3.66302e-31 -4.98947e-19 0)
(0 -5.68141e-19 0)
(0 -6.59833e-19 0)
(0 -7.36165e-19 0)
(0 -7.67304e-19 0)
(0 -7.05839e-19 0)
(0 -5.39266e-19 0)
(3.65509e-31 -3.60442e-19 0)
(0 -2.30432e-19 0)
(0 -1.63609e-19 0)
(0 -1.48938e-19 0)
(0 -1.46335e-19 0)
(0 -1.55505e-19 0)
(0 -1.77809e-19 0)
(0 -1.86954e-19 0)
(3.6525e-31 -1.9647e-19 0)
(0 -2.12011e-19 0)
(0 -2.26416e-19 0)
(0 -2.39796e-19 0)
(0 -2.58054e-19 0)
(0 -2.7465e-19 0)
(0 -2.89729e-19 0)
(0 -3.08902e-19 0)
(0 -3.1948e-19 0)
(0 -3.38974e-19 0)
(0 -3.54178e-19 0)
(0 -3.64887e-19 0)
(0 -3.76982e-19 0)
(0 -3.84458e-19 0)
(0 -3.93728e-19 0)
(0 -4.0511e-19 0)
(0 -4.19759e-19 0)
(0 -4.33592e-19 0)
(0 -4.467e-19 0)
(0 -4.66133e-19 0)
(0 -4.88408e-19 0)
(0 -5.00191e-19 0)
(0 -5.14969e-19 0)
(0 -5.31876e-19 0)
(0 -5.45151e-19 0)
(0 -5.56234e-19 0)
(0 -5.65237e-19 0)
(0 -5.78468e-19 0)
(0 -5.92439e-19 0)
(0 -6.05776e-19 0)
(0 -6.20899e-19 0)
(0 -6.38407e-19 0)
(0 -6.5515e-19 0)
(0 -6.71768e-19 0)
(0 -6.87948e-19 0)
(0 -7.0367e-19 0)
(0 -7.18671e-19 0)
(0 -7.32948e-19 0)
(0 -7.48076e-19 0)
(0 -7.63838e-19 0)
(0 -7.80067e-19 0)
(0 -7.97472e-19 0)
(0 -8.15875e-19 0)
(0 -8.34683e-19 0)
(0 -8.53949e-19 0)
(0 -8.73586e-19 0)
(0 -8.93498e-19 0)
(0 -9.13766e-19 0)
(0 -9.34584e-19 0)
(0 -9.5604e-19 0)
(0 -9.78203e-19 0)
(0 -1.0012e-18 0)
(0 -1.02506e-18 0)
(0 -1.04976e-18 0)
(0 -1.07535e-18 0)
(0 -1.1019e-18 0)
(0 -1.12947e-18 0)
(0 -1.15813e-18 0)
(0 -1.18797e-18 0)
(0 -1.21906e-18 0)
(0 -1.25146e-18 0)
(0 -1.28525e-18 0)
(0 -1.32049e-18 0)
(0 -1.35725e-18 0)
(0 -1.39561e-18 0)
(0 -1.43566e-18 0)
(0 -1.47747e-18 0)
(0 -1.52116e-18 0)
(0 -1.56683e-18 0)
(0 -1.6146e-18 0)
(0 -1.66458e-18 0)
(0 -1.71685e-18 0)
(0 -1.77149e-18 0)
(0 -1.8287e-18 0)
(0 -1.88886e-18 0)
(0 -1.95277e-18 0)
(0 -2.02157e-18 0)
(0 -2.09631e-18 0)
(0 -2.17708e-18 0)
(0 -2.26247e-18 0)
(0 -2.35126e-18 0)
(0 -2.44749e-18 0)
(0 -2.40112e-18 0)
(0 -1.17194e-17 0)
(0 -7.06995e-17 0)
(0 -4.38659e-16 0)
(0 -2.84566e-15 0)
(0 -2.02437e-14 0)
(0 -1.63824e-13 0)
(0 -1.46698e-12 0)
(0 -1.37133e-11 0)
(0 -1.5729e-10 0)
(0 -2.507e-09 0)
(0 -4.86667e-08 0)
(0 -1.37822e-06 0)
(0 -9.10727e-05 0)
(0 -0.058829 0)
(0 -1.65046 0)
(0 -2.87472 0)
(0 -1.53529 0)
(0 -1.03353 0)
(0 -0.915009 0)
(0 -0.819194 0)
(0 -0.727697 0)
(0 -0.637055 0)
(0 -0.549691 0)
(0 -0.468707 0)
(0 -0.396209 0)
(0 -0.333042 0)
(0 -0.27906 0)
(0 -0.23352 0)
(0 -0.195409 0)
(0 -0.163659 0)
(0 -0.13726 0)
(0 -0.115315 0)
(0 -0.0970571 0)
(0 -0.0818412 0)
(0 -0.0691342 0)
(0 -0.0584972 0)
(0 -0.0495712 0)
(0 -0.0420621 0)
(0 -0.0357296 0)
(0 -0.0303769 0)
(0 -0.0258447 0)
(0 -0.0220083 0)
(0 -0.0187737 0)
(0 -0.0160657 0)
(0 -0.0138052 0)
(0 -0.0118888 0)
(0 -0.0101955 0)
(0 -0.00862542 0)
(0 -0.00714189 0)
(0 -0.00577365 0)
(0 -0.00457601 0)
(0 -0.00358692 0)
(0 -0.00280927 0)
(0 -0.00221868 0)
(0 -0.00177902 0)
(0 -0.00145565 0)
(0 -0.00122327 0)
(0 -0.00106291 0)
(0 -0.000949287 0)
(0 -0.000848043 0)
(0 -0.00073594 0)
(0 -0.000618594 0)
(0 -0.000515745 0)
(0 -0.000435205 0)
(0 -0.000371062 0)
(0 -0.000316596 0)
(0 -0.000270721 0)
(0 -0.000234939 0)
(0 -0.000205012 0)
(-4.28043e-20 -0.000174439 0)
(0 -0.000147129 0)
(0 -0.00012979 0)
(4.23805e-20 -0.00011433 0)
(0 -9.40182e-05 0)
(-4.16548e-20 -7.9203e-05 0)
(0 -7.12833e-05 0)
(2.02874e-20 -6.04798e-05 0)
(0 -4.97527e-05 0)
(0 -4.34211e-05 0)
(0 -3.68466e-05 0)
(9.37007e-21 -3.04949e-05 0)
(0 -2.65648e-05 0)
(0 -2.19648e-05 0)
(0 -1.74998e-05 0)
(0 -1.55206e-05 0)
(0 -1.30836e-05 0)
(0 -1.00735e-05 0)
(0 -8.5744e-06 0)
(-1.79498e-21 -7.19907e-06 0)
(0 -5.77472e-06 0)
(-1.63756e-21 -4.75689e-06 0)
(0 -3.68156e-06 0)
(0 -3.01171e-06 0)
(0 -2.46697e-06 0)
(0 -1.80701e-06 0)
(6.13206e-22 -1.45675e-06 0)
(2.85675e-22 -1.16699e-06 0)
(0 -8.80311e-07 0)
(0 -6.55025e-07 0)
(0 -4.01208e-07 0)
(0 -2.08024e-07 0)
(0 -1.61701e-07 0)
(0 -5.13472e-08 0)
(0 -3.11141e-07 0)
(0 -2.7341e-07 0)
(0 -7.76305e-10 0)
(0 1.74941e-18 0)
(0 -6.43913e-18 0)
(0 -5.27641e-18 0)
(0 -1.88783e-18 0)
(-4.83366e-35 -4.77371e-19 0)
(1.46278e-35 -1.05357e-19 0)
(0 -1.49944e-20 0)
(0 -5.63662e-22 0)
(-1.84324e-39 -5.22485e-24 0)
(0 -3.97241e-26 0)
(0 -3.65203e-28 0)
(-3.98642e-45 -4.38185e-30 0)
(0 -5.82634e-32 0)
(0 -7.26474e-34 0)
(0 -6.14327e-36 0)
(0 -1.45466e-37 0)
(0 -5.1382e-38 0)
(0 -2.15043e-38 0)
(0 -1.02219e-38 0)
(0 -5.5076e-39 0)
(0 -4.03049e-39 0)
(0 -4.13054e-39 0)
(0 -3.76263e-39 0)
(0 -2.1251e-39 0)
(0 -7.83265e-40 0)
(0 -3.37244e-40 0)
(0 -1.64929e-40 0)
(3.42572e-56 -9.16032e-41 0)
(0 -6.2518e-41 0)
(0 -3.95974e-41 0)
(0 -1.82352e-41 0)
(0 -8.35385e-42 0)
(0 -4.18787e-42 0)
(0 -2.14118e-42 0)
(0 -1.06731e-42 0)
(0 -5.20256e-43 0)
(0 -2.49983e-43 0)
(0 -1.17597e-43 0)
(0 -5.41147e-44 0)
(0 -2.43383e-44 0)
(0 -1.06887e-44 0)
(0 -4.57924e-45 0)
(0 -1.91184e-45 0)
(0 -7.76999e-46 0)
(0 -3.07033e-46 0)
(0 -1.17814e-46 0)
(0 -4.38392e-47 0)
(2.73229e-63 -1.57961e-47 0)
(0 -5.50254e-48 0)
(0 -1.84994e-48 0)
(0 -5.99124e-49 0)
(0 -1.86529e-49 0)
(0 -5.57014e-50 0)
(0 -1.59144e-50 0)
(0 -4.33829e-51 0)
(0 -1.12487e-51 0)
(0 -2.76462e-52 0)
(0 -6.41503e-53 0)
(0 -1.39906e-53 0)
(0 -2.85291e-54 0)
(0 -5.40652e-55 0)
(0 -9.45375e-56 0)
(0 -1.51216e-56 0)
(0 -2.1893e-57 0)
(0 -2.8312e-58 0)
(0 -3.21478e-59 0)
(0 -3.13228e-60 0)
(0 -2.53491e-61 0)
(0 -1.62128e-62 0)
(0 -7.52195e-64 0)
(0 -2.10467e-65 0)
(0 -1.75008e-67 0)
(0 -1.41707e-70 0)
(0 -1.95296e-72 0)
(0 -1.33568e-74 0)
(0 -2.64304e-85 0)
(0 -2.63727e-96 0)
(0 -1.93205e-107 0)
(0 -1.04771e-118 0)
(0 -4.84856e-130 0)
(0 -1.82995e-141 0)
(0 -6.56811e-153 0)
(0 -1.49248e-161 0)
(0 -4.34575e-172 0)
(0 -5.14632e-180 0)
(0 -1.37911e-190 0)
(0 -1.77042e-198 0)
(0 -5.80566e-209 0)
(0 -6.0898e-217 0)
(0 -2.572e-227 0)
(0 -2.09654e-235 0)
(0 -1.70979e-245 0)
(0 -7.29331e-254 0)
(0 -1.13112e-263 0)
(0 -2.57842e-272 0)
(0 -5.67141e-282 0)
(0 -9.2581e-291 0)
(0 -2.68748e-300 0)
(0 -3.37399e-309 0)
(0 -1.18466e-318 0)
(0 -0 0)
(0 -0 0)
(0 0 0)
(0 0 0)
(0 0 0)
(0 0 0)
(0 0 0)
(0 0 0)
(0 0 0)
(0 0 0)
(0 0 0)
(0 0 0)
(0 0 0)
(0 0 0)
(0 0 0)
(0 0 0)
(0 0 0)
(0 0 0)
(0 0 0)
(0 0 0)
(0 0 0)
)
;

boundaryField
{
    inandouthalf11
    {
        type            cyclic;
    }
    inandouthalf12
    {
        type            cyclic;
    }
    inandouthalf21
    {
        type            cyclic;
    }
    inandouthalf22
    {
        type            cyclic;
    }
    inandouthalf31
    {
        type            cyclic;
    }
    inandouthalf32
    {
        type            cyclic;
    }
    inandouthalf41
    {
        type            cyclic;
    }
    inandouthalf42
    {
        type            cyclic;
    }
    top
    {
        type            symmetryPlane;
    }
    walls
    {
        type            zeroGradient;
    }
    frontAndBackPlanes
    {
        type            empty;
    }
}


// ************************************************************************* //
