/*--------------------------------*- C++ -*----------------------------------*\
| =========                 |                                                 |
| \\      /  F ield         | OpenFOAM: The Open Source CFD Toolbox           |
|  \\    /   O peration     | Version:  2.4.x                                 |
|   \\  /    A nd           | Web:      www.OpenFOAM.org                      |
|    \\/     M anipulation  |                                                 |
\*---------------------------------------------------------------------------*/
FoamFile
{
    version     2.0;
    format      ascii;
    class       volScalarField;
    location    "4.8";
    object      Theta_0;
}
// * * * * * * * * * * * * * * * * * * * * * * * * * * * * * * * * * * * * * //

dimensions      [0 2 -2 0 0 0 0];

internalField   nonuniform List<scalar> 
360
(
6.66959e-21
6.69236e-21
6.68593e-21
6.68163e-21
6.68222e-21
6.68363e-21
6.68459e-21
6.68511e-21
6.68541e-21
6.68571e-21
6.68613e-21
6.68664e-21
6.68718e-21
6.6877e-21
6.68821e-21
6.68874e-21
6.68931e-21
6.68995e-21
6.69067e-21
6.69148e-21
6.69238e-21
6.69337e-21
6.6944e-21
6.69539e-21
6.69622e-21
6.69674e-21
6.69683e-21
6.69644e-21
6.69559e-21
6.69447e-21
6.69345e-21
6.69299e-21
6.69371e-21
6.69647e-21
6.70254e-21
6.71406e-21
6.73424e-21
6.76571e-21
6.80312e-21
6.82178e-21
6.79149e-21
6.72738e-21
6.6804e-21
6.66435e-21
6.66162e-21
6.66137e-21
6.66135e-21
6.66135e-21
6.66135e-21
6.66135e-21
6.66135e-21
6.66135e-21
6.66135e-21
6.66135e-21
6.66135e-21
6.66135e-21
6.66135e-21
6.66135e-21
6.66135e-21
6.66135e-21
6.66135e-21
6.66135e-21
6.66135e-21
6.66135e-21
6.66135e-21
6.66135e-21
6.66134e-21
6.66134e-21
6.66134e-21
6.66134e-21
6.66134e-21
6.66134e-21
6.66134e-21
6.66134e-21
6.66134e-21
6.66134e-21
6.66134e-21
6.66134e-21
6.66133e-21
6.66133e-21
6.66133e-21
6.66133e-21
6.66133e-21
6.66133e-21
6.66133e-21
6.66133e-21
6.66133e-21
6.66132e-21
6.66132e-21
6.66132e-21
6.66132e-21
6.66132e-21
6.66132e-21
6.66132e-21
6.66132e-21
6.66131e-21
6.66131e-21
6.66131e-21
6.66131e-21
6.66122e-21
0
0
0
0
0
0
0
0
0
0
0
0
0
0
0
6.66128e-21
6.66127e-21
6.66127e-21
6.66127e-21
6.66127e-21
6.66126e-21
6.66126e-21
6.66126e-21
6.66126e-21
6.66125e-21
6.66125e-21
6.66125e-21
6.66124e-21
6.66124e-21
6.66123e-21
6.66123e-21
6.66124e-21
9.62922e-21
5.18942e-20
3.32641e-19
2.23633e-18
1.59549e-17
1.23415e-16
1.05985e-15
1.03386e-14
1.16835e-13
1.55608e-12
2.48743e-11
4.94172e-10
1.85537e-08
1.25859e-06
3.2489e-05
0.000426259
0.00188174
0.00304215
0.00360505
0.00398744
0.00428057
0.00452218
0.00472738
0.0049014
0.00504552
0.00516008
0.00524564
0.00530347
0.00533543
0.00534376
0.0053309
0.00529927
0.00525121
0.00518899
0.00511469
0.00503033
0.00493775
0.00483872
0.00473489
0.00462784
0.00451902
0.0044098
0.00430142
0.004195
0.00409151
0.00399174
0.00389631
0.00380558
0.00371974
0.00363872
0.00356234
0.00349032
0.00342234
0.00335811
0.00329732
0.00323971
0.00318504
0.00313307
0.00308356
0.00303628
0.00299098
0.00294739
0.00290525
0.00286434
0.00282446
0.00278543
0.0027471
0.00270936
0.00267208
0.00263479
0.00259705
0.00255877
0.00251987
0.00248028
0.00243993
0.00239874
0.00235663
0.00231354
0.00226939
0.0022241
0.00217759
0.00212979
0.0020806
0.00202993
0.00197769
0.00192377
0.00186806
0.00181043
0.00175075
0.00168886
0.00162459
0.00155773
0.00148805
0.00141529
0.00133912
0.00125914
0.00117488
0.0010857
0.000990795
0.000889052
0.000778861
0.000657713
0.000521201
0.000359735
0
0
0
0
0
0
0
0
0
0
0
0
0
0
0
0
0
0
0
0
0
0
0
0
0
0
0
0
0
0
0
0
0
0
0
0
0
0
0
0
0
0
0
0
0
0
0
0
0
0
0
0
0
0
0
0
0
0
0
0
0
0
0
0
0
0
0
0
0
0
0
0
0
0
0
0
0
0
0
0
0
0
0
0
0
0
0
0
0
0
0
0
0
0
0
0
0
0
0
0
0
0
0
0
0
0
0
0
0
0
0
0
0
0
0
0
0
0
0
0
0
0
0
0
)
;

boundaryField
{
    inandouthalf11
    {
        type            cyclic;
    }
    inandouthalf12
    {
        type            cyclic;
    }
    inandouthalf21
    {
        type            cyclic;
    }
    inandouthalf22
    {
        type            cyclic;
    }
    inandouthalf31
    {
        type            cyclic;
    }
    inandouthalf32
    {
        type            cyclic;
    }
    inandouthalf41
    {
        type            cyclic;
    }
    inandouthalf42
    {
        type            cyclic;
    }
    top
    {
        type            symmetryPlane;
    }
    walls
    {
        type            zeroGradient;
    }
    frontAndBackPlanes
    {
        type            empty;
    }
}


// ************************************************************************* //
