/*--------------------------------*- C++ -*----------------------------------*\
| =========                 |                                                 |
| \\      /  F ield         | OpenFOAM: The Open Source CFD Toolbox           |
|  \\    /   O peration     | Version:  2.4.x                                 |
|   \\  /    A nd           | Web:      www.OpenFOAM.org                      |
|    \\/     M anipulation  |                                                 |
\*---------------------------------------------------------------------------*/
FoamFile
{
    version     2.0;
    format      ascii;
    class       volScalarField;
    location    "4.8";
    object      Theta;
}
// * * * * * * * * * * * * * * * * * * * * * * * * * * * * * * * * * * * * * //

dimensions      [0 2 -2 0 0 0 0];

internalField   nonuniform List<scalar> 
360
(
6.66959e-21
6.69235e-21
6.68592e-21
6.68162e-21
6.68222e-21
6.68363e-21
6.68458e-21
6.68511e-21
6.68541e-21
6.68571e-21
6.68612e-21
6.68663e-21
6.68718e-21
6.6877e-21
6.68821e-21
6.68873e-21
6.6893e-21
6.68994e-21
6.69066e-21
6.69148e-21
6.69238e-21
6.69336e-21
6.69439e-21
6.69539e-21
6.69622e-21
6.69674e-21
6.69683e-21
6.69644e-21
6.69559e-21
6.69447e-21
6.69344e-21
6.69298e-21
6.6937e-21
6.69645e-21
6.70251e-21
6.71402e-21
6.73416e-21
6.7656e-21
6.80302e-21
6.82177e-21
6.79163e-21
6.72755e-21
6.68048e-21
6.66437e-21
6.66162e-21
6.66137e-21
6.66135e-21
6.66135e-21
6.66135e-21
6.66135e-21
6.66135e-21
6.66135e-21
6.66135e-21
6.66135e-21
6.66135e-21
6.66135e-21
6.66135e-21
6.66135e-21
6.66135e-21
6.66135e-21
6.66135e-21
6.66135e-21
6.66135e-21
6.66135e-21
6.66135e-21
6.66135e-21
6.66134e-21
6.66134e-21
6.66134e-21
6.66134e-21
6.66134e-21
6.66134e-21
6.66134e-21
6.66134e-21
6.66134e-21
6.66134e-21
6.66134e-21
6.66134e-21
6.66133e-21
6.66133e-21
6.66133e-21
6.66133e-21
6.66133e-21
6.66133e-21
6.66133e-21
6.66133e-21
6.66133e-21
6.66132e-21
6.66132e-21
6.66132e-21
6.66132e-21
6.66132e-21
6.66132e-21
6.66132e-21
6.66132e-21
6.66131e-21
6.66131e-21
6.66131e-21
6.66131e-21
6.66122e-21
0
0
0
0
0
0
0
0
0
0
0
0
0
0
0
6.66128e-21
6.66127e-21
6.66127e-21
6.66127e-21
6.66127e-21
6.66126e-21
6.66126e-21
6.66126e-21
6.66126e-21
6.66125e-21
6.66125e-21
6.66125e-21
6.66124e-21
6.66124e-21
6.66123e-21
6.66123e-21
6.66124e-21
9.63419e-21
5.1921e-20
3.32769e-19
2.23691e-18
1.59572e-17
1.23421e-16
1.05983e-15
1.03378e-14
1.1682e-13
1.55582e-12
2.48691e-11
4.94051e-10
1.85469e-08
1.25814e-06
3.24808e-05
0.000426171
0.00188156
0.00304202
0.00360493
0.00398734
0.00428047
0.0045221
0.00472731
0.00490134
0.00504548
0.00516005
0.00524563
0.00530348
0.00533546
0.00534382
0.00533099
0.00529938
0.00525135
0.00518915
0.00511489
0.00503055
0.004938
0.00483899
0.00473519
0.00462816
0.00451936
0.00441015
0.00430178
0.00419537
0.00409188
0.00399212
0.00389668
0.00380595
0.0037201
0.00363908
0.00356269
0.00349066
0.00342268
0.00335843
0.00329764
0.00324002
0.00318534
0.00313337
0.00308385
0.00303656
0.00299125
0.00294765
0.00290551
0.00286459
0.0028247
0.00278567
0.00274734
0.00270959
0.00267231
0.00263502
0.00259727
0.00255899
0.00252008
0.00248049
0.00244014
0.00239894
0.00235683
0.00231374
0.00226958
0.00222429
0.00217778
0.00212997
0.00208077
0.0020301
0.00197786
0.00192393
0.00186822
0.00181059
0.0017509
0.001689
0.00162472
0.00155786
0.00148818
0.00141541
0.00133923
0.00125925
0.00117498
0.00108579
0.000990879
0.000889128
0.000778927
0.000657769
0.000521245
0.000359766
0
0
0
0
0
0
0
0
0
0
0
0
0
0
0
0
0
0
0
0
0
0
0
0
0
0
0
0
0
0
0
0
0
0
0
0
0
0
0
0
0
0
0
0
0
0
0
0
0
0
0
0
0
0
0
0
0
0
0
0
0
0
0
0
0
0
0
0
0
0
0
0
0
0
0
0
0
0
0
0
0
0
0
0
0
0
0
0
0
0
0
0
0
0
0
0
0
0
0
0
0
0
0
0
0
0
0
0
0
0
0
0
0
0
0
0
0
0
0
0
0
0
0
0
)
;

boundaryField
{
    inandouthalf11
    {
        type            cyclic;
    }
    inandouthalf12
    {
        type            cyclic;
    }
    inandouthalf21
    {
        type            cyclic;
    }
    inandouthalf22
    {
        type            cyclic;
    }
    inandouthalf31
    {
        type            cyclic;
    }
    inandouthalf32
    {
        type            cyclic;
    }
    inandouthalf41
    {
        type            cyclic;
    }
    inandouthalf42
    {
        type            cyclic;
    }
    top
    {
        type            symmetryPlane;
    }
    walls
    {
        type            zeroGradient;
    }
    frontAndBackPlanes
    {
        type            empty;
    }
}


// ************************************************************************* //
