/*--------------------------------*- C++ -*----------------------------------*\
| =========                 |                                                 |
| \\      /  F ield         | OpenFOAM: The Open Source CFD Toolbox           |
|  \\    /   O peration     | Version:  2.4.x                                 |
|   \\  /    A nd           | Web:      www.OpenFOAM.org                      |
|    \\/     M anipulation  |                                                 |
\*---------------------------------------------------------------------------*/
FoamFile
{
    version     2.0;
    format      ascii;
    class       volVectorField;
    location    "4.8";
    object      Ua;
}
// * * * * * * * * * * * * * * * * * * * * * * * * * * * * * * * * * * * * * //

dimensions      [0 1 -1 0 0 0 0];

internalField   nonuniform List<vector> 
360
(
(-1.01884e-32 -8.4486e-32 0)
(-4.10345e-08 -2.45956e-07 0)
(-9.0768e-08 -4.75632e-07 0)
(-1.35075e-07 -6.68221e-07 0)
(-1.78269e-07 -8.59048e-07 0)
(-2.22961e-07 -1.05739e-06 0)
(-2.69186e-07 -1.26117e-06 0)
(-3.16463e-07 -1.46798e-06 0)
(-3.64466e-07 -1.67632e-06 0)
(-4.13089e-07 -1.88573e-06 0)
(-4.62401e-07 -2.09663e-06 0)
(-5.12522e-07 -2.30955e-06 0)
(-5.63521e-07 -2.52476e-06 0)
(-6.15411e-07 -2.74221e-06 0)
(-6.68174e-07 -2.96175e-06 0)
(-7.21818e-07 -3.18335e-06 0)
(-7.7638e-07 -3.40712e-06 0)
(-8.31923e-07 -3.63329e-06 0)
(-8.88526e-07 -3.86212e-06 0)
(-9.46282e-07 -4.09394e-06 0)
(-1.00528e-06 -4.32905e-06 0)
(-1.06562e-06 -4.56774e-06 0)
(-1.12736e-06 -4.81026e-06 0)
(-1.19052e-06 -5.05659e-06 0)
(-1.255e-06 -5.30633e-06 0)
(-1.32061e-06 -5.55861e-06 0)
(-1.387e-06 -5.81204e-06 0)
(-1.45374e-06 -6.06494e-06 0)
(-1.52039e-06 -6.31553e-06 0)
(-1.58658e-06 -6.56227e-06 0)
(-1.65216e-06 -6.80461e-06 0)
(-1.71746e-06 -7.04361e-06 0)
(-1.78334e-06 -7.28235e-06 0)
(-1.8514e-06 -7.52657e-06 0)
(-1.92415e-06 -7.78517e-06 0)
(-2.00516e-06 -8.07075e-06 0)
(-2.09919e-06 -8.40027e-06 0)
(-2.21161e-06 -8.79334e-06 0)
(-2.34593e-06 -9.26405e-06 0)
(-2.4978e-06 -9.79948e-06 0)
(-2.64866e-06 -1.03351e-05 0)
(-2.76995e-06 -1.07672e-05 0)
(-2.84351e-06 -1.10276e-05 0)
(-2.87591e-06 -1.11405e-05 0)
(-2.88636e-06 -1.11761e-05 0)
(-2.889e-06 -1.11849e-05 0)
(-2.8896e-06 -1.11868e-05 0)
(-2.88974e-06 -1.11873e-05 0)
(-2.88978e-06 -1.11874e-05 0)
(-2.8898e-06 -1.11874e-05 0)
(-2.88981e-06 -1.11875e-05 0)
(-2.88982e-06 -1.11875e-05 0)
(-2.88982e-06 -1.11875e-05 0)
(-2.88983e-06 -1.11875e-05 0)
(-2.88984e-06 -1.11875e-05 0)
(-2.88985e-06 -1.11876e-05 0)
(-2.88986e-06 -1.11876e-05 0)
(-2.88988e-06 -1.11877e-05 0)
(-2.8899e-06 -1.11877e-05 0)
(-2.88992e-06 -1.11878e-05 0)
(-2.88994e-06 -1.11878e-05 0)
(-2.88996e-06 -1.11879e-05 0)
(-2.88998e-06 -1.11879e-05 0)
(-2.89e-06 -1.1188e-05 0)
(-2.89003e-06 -1.1188e-05 0)
(-2.89005e-06 -1.11881e-05 0)
(-2.89007e-06 -1.11881e-05 0)
(-2.89009e-06 -1.11882e-05 0)
(-2.89011e-06 -1.11882e-05 0)
(-2.89013e-06 -1.11883e-05 0)
(-2.89016e-06 -1.11883e-05 0)
(-2.89018e-06 -1.11884e-05 0)
(-2.8902e-06 -1.11885e-05 0)
(-2.89023e-06 -1.11885e-05 0)
(-2.89026e-06 -1.11886e-05 0)
(-2.89029e-06 -1.11886e-05 0)
(-2.89032e-06 -1.11887e-05 0)
(-2.89035e-06 -1.11888e-05 0)
(-2.89038e-06 -1.11888e-05 0)
(-2.89041e-06 -1.11889e-05 0)
(-2.89045e-06 -1.1189e-05 0)
(-2.89049e-06 -1.11891e-05 0)
(-2.89052e-06 -1.11891e-05 0)
(-2.89056e-06 -1.11892e-05 0)
(-2.8906e-06 -1.11893e-05 0)
(-2.89064e-06 -1.11894e-05 0)
(-2.89068e-06 -1.11895e-05 0)
(-2.89072e-06 -1.11896e-05 0)
(-2.89077e-06 -1.11896e-05 0)
(-2.89081e-06 -1.11897e-05 0)
(-2.89086e-06 -1.11898e-05 0)
(-2.89091e-06 -1.11899e-05 0)
(-2.89096e-06 -1.119e-05 0)
(-2.89101e-06 -1.11901e-05 0)
(-2.89106e-06 -1.11902e-05 0)
(-2.89111e-06 -1.11903e-05 0)
(-2.89116e-06 -1.11904e-05 0)
(-2.89121e-06 -1.11905e-05 0)
(-2.89127e-06 -1.11906e-05 0)
(-2.89132e-06 -1.11907e-05 0)
(-2.89138e-06 -1.11908e-05 0)
(-2.89143e-06 -1.11909e-05 0)
(-2.89149e-06 -1.1191e-05 0)
(-2.89155e-06 -1.11911e-05 0)
(-2.89161e-06 -1.11912e-05 0)
(-2.89167e-06 -1.11913e-05 0)
(-2.89173e-06 -1.11914e-05 0)
(-2.89179e-06 -1.11915e-05 0)
(-2.89185e-06 -1.11916e-05 0)
(-2.89192e-06 -1.11917e-05 0)
(-2.89198e-06 -1.11918e-05 0)
(-2.89204e-06 -1.11919e-05 0)
(-2.89211e-06 -1.1192e-05 0)
(-2.89217e-06 -1.11921e-05 0)
(-2.89224e-06 -1.11922e-05 0)
(-2.8923e-06 -1.11923e-05 0)
(-2.89237e-06 -1.11924e-05 0)
(-2.89244e-06 -1.11925e-05 0)
(-2.89251e-06 -1.11926e-05 0)
(-2.89258e-06 -1.11927e-05 0)
(-2.89265e-06 -1.11928e-05 0)
(-2.89272e-06 -1.11929e-05 0)
(-2.89279e-06 -1.11929e-05 0)
(-2.89287e-06 -1.1193e-05 0)
(-2.89294e-06 -1.11931e-05 0)
(-2.89302e-06 -1.11932e-05 0)
(-2.8931e-06 -1.11933e-05 0)
(-2.89318e-06 -1.11934e-05 0)
(-2.89326e-06 -1.11935e-05 0)
(-2.89335e-06 -1.11936e-05 0)
(-2.89343e-06 -1.11937e-05 0)
(-2.89351e-06 -1.11938e-05 0)
(-2.89358e-06 -1.11938e-05 0)
(-2.89366e-06 -1.11939e-05 0)
(-2.89373e-06 -1.11939e-05 0)
(-2.89379e-06 -1.1194e-05 0)
(-2.89386e-06 -1.1194e-05 0)
(-2.89392e-06 -1.11941e-05 0)
(-2.89398e-06 -1.11941e-05 0)
(-2.89404e-06 -1.11942e-05 0)
(-2.89409e-06 -1.11942e-05 0)
(-2.89414e-06 -1.11942e-05 0)
(-2.89417e-06 -1.11942e-05 0)
(-2.89418e-06 -1.11942e-05 0)
(-2.89419e-06 -1.11942e-05 0)
(-2.89419e-06 -1.11942e-05 0)
(-2.89419e-06 -1.11942e-05 0)
(-0.0117234 -3.0648e-05 0)
(-0.103896 -0.000214041 0)
(-0.202227 -0.0002792 0)
(-0.280675 -0.000316208 0)
(-0.345351 -0.000327806 0)
(-0.399781 -0.000329009 0)
(-0.446335 -0.000315515 0)
(-0.486676 -0.000285282 0)
(-0.522023 -0.000236996 0)
(-0.553303 -0.000169855 0)
(-0.581236 -8.34688e-05 0)
(-0.606387 2.23375e-05 0)
(-0.629199 0.000147237 0)
(-0.650024 0.000290571 0)
(-0.669139 0.000451686 0)
(-0.686767 0.00062983 0)
(-0.703083 0.000824159 0)
(-0.718228 0.00103377 0)
(-0.732314 0.00125773 0)
(-0.745434 0.00149502 0)
(-0.75766 0.00174459 0)
(-0.769053 0.00200527 0)
(-0.779661 0.00227582 0)
(-0.789526 0.0025548 0)
(-0.798681 0.00284062 0)
(-0.807155 0.00313146 0)
(-0.814976 0.00342523 0)
(-0.822168 0.00371951 0)
(-0.828754 0.00401095 0)
(-0.834757 0.00429433 0)
(-0.840204 0.0045612 0)
(-0.845122 0.0047996 0)
(-0.849543 0.00499595 0)
(-0.853504 0.00513922 0)
(-0.857045 0.00522525 0)
(-0.860208 0.00525844 0)
(-0.863034 0.00524984 0)
(-0.86556 0.00521333 0)
(-0.867819 0.00516217 0)
(-0.869838 0.00510699 0)
(-0.871643 0.00505526 0)
(-0.873254 0.00501152 0)
(-0.87469 0.00497788 0)
(-0.875967 0.00495426 0)
(-0.877102 0.00493836 0)
(-0.878111 0.0049264 0)
(-0.879013 0.00491494 0)
(-0.879822 0.00490249 0)
(-0.880551 0.00488929 0)
(-0.881211 0.00487593 0)
(-0.881811 0.00486261 0)
(-0.882359 0.00484928 0)
(-0.88286 0.004836 0)
(-0.883322 0.00482287 0)
(-0.883753 0.0048095 0)
(-0.88416 0.00479538 0)
(-0.884546 0.00478072 0)
(-0.884913 0.00476596 0)
(-0.885261 0.00475048 0)
(-0.885595 0.00473354 0)
(-0.885915 0.00471602 0)
(-0.88622 0.00469823 0)
(-0.886514 0.00467893 0)
(-0.886797 0.00465816 0)
(-0.88707 0.00463656 0)
(-0.887333 0.00461335 0)
(-0.887587 0.0045884 0)
(-0.887833 0.00456208 0)
(-0.888071 0.00453327 0)
(-0.888301 0.00450216 0)
(-0.888523 0.00446996 0)
(-0.888737 0.00443482 0)
(-0.888944 0.00439601 0)
(-0.889143 0.00435538 0)
(-0.889333 0.00431172 0)
(-0.889516 0.00426416 0)
(-0.889691 0.00421274 0)
(-0.889858 0.00415624 0)
(-0.890016 0.00409592 0)
(-0.890166 0.00403027 0)
(-0.890308 0.0039572 0)
(-0.890441 0.00387932 0)
(-0.890564 0.00379452 0)
(-0.890679 0.00370023 0)
(-0.890787 0.00359502 0)
(-0.890887 0.00347684 0)
(-0.890975 0.00335643 0)
(-0.891046 0.00325592 0)
(-0.891098 0.00318512 0)
(-0.89115 0.00319549 0)
(-0.898024 -0.00344118 0)
(-0.895732 -0.0395995 0)
(-0.892843 -0.0396321 0)
(-0.890348 -0.0396324 0)
(-0.88789 -0.0396309 0)
(-0.885555 -0.0396276 0)
(-0.883396 -0.0396209 0)
(-0.881483 -0.0396066 0)
(-0.880243 -0.0395809 0)
(-0.879881 -0.039558 0)
(-0.879855 -0.0395505 0)
(-0.879853 -0.03955 0)
(-0.879852 -0.03955 0)
(-0.879851 -0.03955 0)
(-0.87985 -0.03955 0)
(-0.87985 -0.03955 0)
(-0.879849 -0.03955 0)
(-0.879849 -0.03955 0)
(-0.879849 -0.03955 0)
(-0.879848 -0.03955 0)
(-0.879848 -0.03955 0)
(-0.879848 -0.03955 0)
(-0.879848 -0.03955 0)
(-0.879848 -0.03955 0)
(-0.879848 -0.03955 0)
(-0.879848 -0.03955 0)
(-0.879848 -0.03955 0)
(-0.879847 -0.03955 0)
(-0.879847 -0.03955 0)
(-0.879847 -0.03955 0)
(-0.879847 -0.03955 0)
(-0.879847 -0.03955 0)
(-0.879847 -0.03955 0)
(-0.879847 -0.03955 0)
(-0.879847 -0.03955 0)
(-0.879847 -0.03955 0)
(-0.879847 -0.03955 0)
(-0.879847 -0.03955 0)
(-0.879847 -0.03955 0)
(-0.879847 -0.03955 0)
(-0.879847 -0.03955 0)
(-0.879847 -0.03955 0)
(-0.879847 -0.03955 0)
(-0.879847 -0.03955 0)
(-0.879847 -0.03955 0)
(-0.879847 -0.03955 0)
(-0.879847 -0.03955 0)
(-0.879847 -0.03955 0)
(-0.879847 -0.03955 0)
(-0.879847 -0.03955 0)
(-0.879847 -0.03955 0)
(-0.879847 -0.03955 0)
(-0.879847 -0.03955 0)
(-0.879847 -0.03955 0)
(-0.879847 -0.03955 0)
(-0.879847 -0.03955 0)
(-0.879847 -0.03955 0)
(-0.879847 -0.03955 0)
(-0.879847 -0.03955 0)
(-0.879847 -0.03955 0)
(-0.879847 -0.03955 0)
(-0.879847 -0.03955 0)
(-0.879847 -0.03955 0)
(-0.879847 -0.03955 0)
(-0.879847 -0.03955 0)
(-0.879847 -0.03955 0)
(-0.879847 -0.03955 0)
(-0.879847 -0.03955 0)
(-0.879847 -0.03955 0)
(-0.879847 -0.03955 0)
(-0.879847 -0.03955 0)
(-0.879847 -0.03955 0)
(-0.879847 -0.03955 0)
(-0.879847 -0.03955 0)
(-0.879847 -0.03955 0)
(-0.879847 -0.03955 0)
(-0.879847 -0.03955 0)
(-0.879847 -0.03955 0)
(-0.879847 -0.03955 0)
(-0.879847 -0.03955 0)
(-0.879847 -0.03955 0)
(-0.879847 -0.03955 0)
(-0.879847 -0.03955 0)
(-0.879847 -0.03955 0)
(-0.879847 -0.03955 0)
(-0.879847 -0.03955 0)
(-0.879847 -0.03955 0)
(-0.879847 -0.03955 0)
(-0.879847 -0.03955 0)
(-0.879847 -0.03955 0)
(-0.879847 -0.03955 0)
(-0.879847 -0.03955 0)
(-0.879847 -0.03955 0)
(-0.879847 -0.03955 0)
(-0.879847 -0.03955 0)
(-0.879847 -0.03955 0)
(-0.879847 -0.03955 0)
(-0.879847 -0.03955 0)
(-0.879847 -0.03955 0)
(-0.879847 -0.03955 0)
(-0.879847 -0.03955 0)
(-0.879847 -0.03955 0)
(-0.879847 -0.03955 0)
(-0.879847 -0.03955 0)
(-0.879847 -0.03955 0)
(-0.879847 -0.03955 0)
(-0.879847 -0.03955 0)
(-0.879847 -0.03955 0)
(-0.879847 -0.03955 0)
(-0.879847 -0.03955 0)
(-0.879847 -0.03955 0)
(-0.879847 -0.03955 0)
(-0.879847 -0.03955 0)
(-0.879847 -0.03955 0)
(-0.879847 -0.03955 0)
(-0.879847 -0.03955 0)
(-0.879847 -0.03955 0)
(-0.879847 -0.03955 0)
(-0.879847 -0.03955 0)
(-0.879847 -0.0395498 0)
(-0.879847 -0.0395414 0)
(-0.879846 -0.0391968 0)
(-0.879825 -0.0225002 0)
)
;

boundaryField
{
    inandouthalf11
    {
        type            cyclic;
    }
    inandouthalf12
    {
        type            cyclic;
    }
    inandouthalf21
    {
        type            cyclic;
    }
    inandouthalf22
    {
        type            cyclic;
    }
    inandouthalf31
    {
        type            cyclic;
    }
    inandouthalf32
    {
        type            cyclic;
    }
    inandouthalf41
    {
        type            cyclic;
    }
    inandouthalf42
    {
        type            cyclic;
    }
    top
    {
        type            symmetryPlane;
    }
    walls
    {
        type            fixedValue;
        value           uniform (0 0 0);
    }
    frontAndBackPlanes
    {
        type            empty;
    }
}


// ************************************************************************* //
