/*--------------------------------*- C++ -*----------------------------------*\
| =========                 |                                                 |
| \\      /  F ield         | OpenFOAM: The Open Source CFD Toolbox           |
|  \\    /   O peration     | Version:  2.4.x                                 |
|   \\  /    A nd           | Web:      www.OpenFOAM.org                      |
|    \\/     M anipulation  |                                                 |
\*---------------------------------------------------------------------------*/
FoamFile
{
    version     2.0;
    format      ascii;
    class       volVectorField;
    location    "4.8";
    object      Ua_0;
}
// * * * * * * * * * * * * * * * * * * * * * * * * * * * * * * * * * * * * * //

dimensions      [0 1 -1 0 0 0 0];

internalField   nonuniform List<vector> 
360
(
(-1.01885e-32 -8.44844e-32 0)
(-4.1037e-08 -2.45964e-07 0)
(-9.07742e-08 -4.75652e-07 0)
(-1.35085e-07 -6.68252e-07 0)
(-1.78282e-07 -8.59088e-07 0)
(-2.22977e-07 -1.05743e-06 0)
(-2.69205e-07 -1.26123e-06 0)
(-3.16485e-07 -1.46805e-06 0)
(-3.64492e-07 -1.6764e-06 0)
(-4.13118e-07 -1.88583e-06 0)
(-4.62435e-07 -2.09673e-06 0)
(-5.12559e-07 -2.30967e-06 0)
(-5.63563e-07 -2.52489e-06 0)
(-6.15456e-07 -2.74235e-06 0)
(-6.68224e-07 -2.96191e-06 0)
(-7.21872e-07 -3.18351e-06 0)
(-7.76439e-07 -3.40731e-06 0)
(-8.31986e-07 -3.63349e-06 0)
(-8.88594e-07 -3.86233e-06 0)
(-9.46357e-07 -4.09417e-06 0)
(-1.00536e-06 -4.32931e-06 0)
(-1.06571e-06 -4.56802e-06 0)
(-1.12745e-06 -4.81056e-06 0)
(-1.19062e-06 -5.05691e-06 0)
(-1.25511e-06 -5.30667e-06 0)
(-1.32072e-06 -5.55897e-06 0)
(-1.38711e-06 -5.81242e-06 0)
(-1.45386e-06 -6.06533e-06 0)
(-1.52052e-06 -6.31592e-06 0)
(-1.5867e-06 -6.56267e-06 0)
(-1.65229e-06 -6.80502e-06 0)
(-1.71759e-06 -7.04403e-06 0)
(-1.78348e-06 -7.28279e-06 0)
(-1.85155e-06 -7.52705e-06 0)
(-1.92432e-06 -7.78572e-06 0)
(-2.00536e-06 -8.07141e-06 0)
(-2.09943e-06 -8.40109e-06 0)
(-2.21192e-06 -8.79437e-06 0)
(-2.3463e-06 -9.26532e-06 0)
(-2.4982e-06 -9.80088e-06 0)
(-2.64903e-06 -1.03364e-05 0)
(-2.77021e-06 -1.07681e-05 0)
(-2.84364e-06 -1.10281e-05 0)
(-2.87596e-06 -1.11407e-05 0)
(-2.88637e-06 -1.11762e-05 0)
(-2.889e-06 -1.11849e-05 0)
(-2.8896e-06 -1.11868e-05 0)
(-2.88974e-06 -1.11873e-05 0)
(-2.88978e-06 -1.11874e-05 0)
(-2.8898e-06 -1.11874e-05 0)
(-2.88981e-06 -1.11875e-05 0)
(-2.88982e-06 -1.11875e-05 0)
(-2.88982e-06 -1.11875e-05 0)
(-2.88983e-06 -1.11875e-05 0)
(-2.88984e-06 -1.11875e-05 0)
(-2.88985e-06 -1.11876e-05 0)
(-2.88986e-06 -1.11876e-05 0)
(-2.88988e-06 -1.11877e-05 0)
(-2.8899e-06 -1.11877e-05 0)
(-2.88992e-06 -1.11878e-05 0)
(-2.88994e-06 -1.11878e-05 0)
(-2.88996e-06 -1.11879e-05 0)
(-2.88998e-06 -1.11879e-05 0)
(-2.89e-06 -1.1188e-05 0)
(-2.89002e-06 -1.1188e-05 0)
(-2.89005e-06 -1.11881e-05 0)
(-2.89007e-06 -1.11881e-05 0)
(-2.89009e-06 -1.11882e-05 0)
(-2.89011e-06 -1.11882e-05 0)
(-2.89013e-06 -1.11883e-05 0)
(-2.89016e-06 -1.11883e-05 0)
(-2.89018e-06 -1.11884e-05 0)
(-2.8902e-06 -1.11885e-05 0)
(-2.89023e-06 -1.11885e-05 0)
(-2.89026e-06 -1.11886e-05 0)
(-2.89029e-06 -1.11886e-05 0)
(-2.89032e-06 -1.11887e-05 0)
(-2.89035e-06 -1.11888e-05 0)
(-2.89038e-06 -1.11888e-05 0)
(-2.89041e-06 -1.11889e-05 0)
(-2.89045e-06 -1.1189e-05 0)
(-2.89049e-06 -1.11891e-05 0)
(-2.89052e-06 -1.11891e-05 0)
(-2.89056e-06 -1.11892e-05 0)
(-2.8906e-06 -1.11893e-05 0)
(-2.89064e-06 -1.11894e-05 0)
(-2.89068e-06 -1.11895e-05 0)
(-2.89073e-06 -1.11896e-05 0)
(-2.89077e-06 -1.11896e-05 0)
(-2.89081e-06 -1.11897e-05 0)
(-2.89086e-06 -1.11898e-05 0)
(-2.89091e-06 -1.11899e-05 0)
(-2.89096e-06 -1.119e-05 0)
(-2.89101e-06 -1.11901e-05 0)
(-2.89106e-06 -1.11902e-05 0)
(-2.89111e-06 -1.11903e-05 0)
(-2.89116e-06 -1.11904e-05 0)
(-2.89121e-06 -1.11905e-05 0)
(-2.89127e-06 -1.11906e-05 0)
(-2.89132e-06 -1.11907e-05 0)
(-2.89138e-06 -1.11908e-05 0)
(-2.89144e-06 -1.11909e-05 0)
(-2.89149e-06 -1.1191e-05 0)
(-2.89155e-06 -1.11911e-05 0)
(-2.89161e-06 -1.11912e-05 0)
(-2.89167e-06 -1.11913e-05 0)
(-2.89173e-06 -1.11914e-05 0)
(-2.89179e-06 -1.11915e-05 0)
(-2.89186e-06 -1.11916e-05 0)
(-2.89192e-06 -1.11917e-05 0)
(-2.89198e-06 -1.11918e-05 0)
(-2.89204e-06 -1.11919e-05 0)
(-2.89211e-06 -1.1192e-05 0)
(-2.89217e-06 -1.11921e-05 0)
(-2.89224e-06 -1.11922e-05 0)
(-2.89231e-06 -1.11923e-05 0)
(-2.89237e-06 -1.11924e-05 0)
(-2.89244e-06 -1.11925e-05 0)
(-2.89251e-06 -1.11926e-05 0)
(-2.89258e-06 -1.11927e-05 0)
(-2.89265e-06 -1.11928e-05 0)
(-2.89272e-06 -1.11929e-05 0)
(-2.89279e-06 -1.1193e-05 0)
(-2.89287e-06 -1.1193e-05 0)
(-2.89295e-06 -1.11931e-05 0)
(-2.89302e-06 -1.11932e-05 0)
(-2.8931e-06 -1.11933e-05 0)
(-2.89319e-06 -1.11934e-05 0)
(-2.89327e-06 -1.11935e-05 0)
(-2.89335e-06 -1.11936e-05 0)
(-2.89343e-06 -1.11937e-05 0)
(-2.89351e-06 -1.11938e-05 0)
(-2.89359e-06 -1.11938e-05 0)
(-2.89366e-06 -1.11939e-05 0)
(-2.89373e-06 -1.11939e-05 0)
(-2.8938e-06 -1.1194e-05 0)
(-2.89386e-06 -1.1194e-05 0)
(-2.89392e-06 -1.11941e-05 0)
(-2.89398e-06 -1.11941e-05 0)
(-2.89404e-06 -1.11942e-05 0)
(-2.8941e-06 -1.11942e-05 0)
(-2.89414e-06 -1.11942e-05 0)
(-2.89417e-06 -1.11942e-05 0)
(-2.89418e-06 -1.11942e-05 0)
(-2.89419e-06 -1.11942e-05 0)
(-2.89419e-06 -1.11942e-05 0)
(-2.8942e-06 -1.11942e-05 0)
(-0.0117295 -3.06443e-05 0)
(-0.103908 -0.000213949 0)
(-0.202239 -0.000279071 0)
(-0.280688 -0.000316056 0)
(-0.345366 -0.000327638 0)
(-0.399797 -0.000328825 0)
(-0.446352 -0.000315315 0)
(-0.486694 -0.000285065 0)
(-0.522043 -0.000236758 0)
(-0.553324 -0.000169594 0)
(-0.581259 -8.3183e-05 0)
(-0.60641 2.26538e-05 0)
(-0.629223 0.000147588 0)
(-0.650049 0.000290961 0)
(-0.669166 0.000452117 0)
(-0.686794 0.000630306 0)
(-0.703111 0.000824684 0)
(-0.718256 0.00103435 0)
(-0.732343 0.00125836 0)
(-0.745464 0.00149571 0)
(-0.75769 0.00174533 0)
(-0.769083 0.00200607 0)
(-0.779691 0.00227667 0)
(-0.789556 0.00255571 0)
(-0.79871 0.00284158 0)
(-0.807185 0.00313246 0)
(-0.815005 0.00342627 0)
(-0.822196 0.00372057 0)
(-0.828781 0.00401203 0)
(-0.834784 0.00429539 0)
(-0.84023 0.00456221 0)
(-0.845147 0.00480051 0)
(-0.849567 0.0049967 0)
(-0.853528 0.00513977 0)
(-0.857068 0.00522559 0)
(-0.86023 0.00525857 0)
(-0.863055 0.0052498 0)
(-0.865581 0.00521316 0)
(-0.867839 0.00516191 0)
(-0.869858 0.00510669 0)
(-0.871663 0.00505494 0)
(-0.873273 0.00501119 0)
(-0.874708 0.00497757 0)
(-0.875984 0.00495396 0)
(-0.877119 0.00493807 0)
(-0.878128 0.00492612 0)
(-0.87903 0.00491467 0)
(-0.879838 0.00490222 0)
(-0.880567 0.00488903 0)
(-0.881227 0.00487568 0)
(-0.881826 0.00486236 0)
(-0.882374 0.00484904 0)
(-0.882876 0.00483576 0)
(-0.883337 0.00482263 0)
(-0.883768 0.00480927 0)
(-0.884175 0.00479515 0)
(-0.884561 0.00478048 0)
(-0.884927 0.00476573 0)
(-0.885276 0.00475025 0)
(-0.885609 0.00473331 0)
(-0.885929 0.00471579 0)
(-0.886234 0.00469799 0)
(-0.886528 0.00467869 0)
(-0.886811 0.00465792 0)
(-0.887083 0.00463631 0)
(-0.887346 0.0046131 0)
(-0.887601 0.00458814 0)
(-0.887846 0.00456181 0)
(-0.888084 0.004533 0)
(-0.888314 0.00450188 0)
(-0.888535 0.00446968 0)
(-0.888749 0.00443452 0)
(-0.888957 0.0043957 0)
(-0.889155 0.00435506 0)
(-0.889345 0.00431139 0)
(-0.889528 0.00426381 0)
(-0.889703 0.00421238 0)
(-0.88987 0.00415587 0)
(-0.890028 0.00409554 0)
(-0.890178 0.00402987 0)
(-0.89032 0.00395677 0)
(-0.890452 0.00387888 0)
(-0.890576 0.00379406 0)
(-0.890691 0.00369975 0)
(-0.890798 0.00359451 0)
(-0.890898 0.00347632 0)
(-0.890986 0.0033559 0)
(-0.891057 0.00325541 0)
(-0.891109 0.00318463 0)
(-0.891161 0.00319505 0)
(-0.898015 -0.00345687 0)
(-0.895722 -0.0396021 0)
(-0.892833 -0.039632 0)
(-0.890338 -0.0396324 0)
(-0.88788 -0.0396309 0)
(-0.885545 -0.0396276 0)
(-0.883386 -0.0396209 0)
(-0.881474 -0.0396066 0)
(-0.880236 -0.0395809 0)
(-0.879874 -0.039558 0)
(-0.879849 -0.0395505 0)
(-0.879847 -0.03955 0)
(-0.879846 -0.03955 0)
(-0.879845 -0.03955 0)
(-0.879844 -0.03955 0)
(-0.879844 -0.03955 0)
(-0.879843 -0.03955 0)
(-0.879843 -0.03955 0)
(-0.879843 -0.03955 0)
(-0.879842 -0.03955 0)
(-0.879842 -0.03955 0)
(-0.879842 -0.03955 0)
(-0.879842 -0.03955 0)
(-0.879842 -0.03955 0)
(-0.879842 -0.03955 0)
(-0.879842 -0.03955 0)
(-0.879841 -0.03955 0)
(-0.879841 -0.03955 0)
(-0.879841 -0.03955 0)
(-0.879841 -0.03955 0)
(-0.879841 -0.03955 0)
(-0.879841 -0.03955 0)
(-0.879841 -0.03955 0)
(-0.879841 -0.03955 0)
(-0.879841 -0.03955 0)
(-0.879841 -0.03955 0)
(-0.879841 -0.03955 0)
(-0.879841 -0.03955 0)
(-0.879841 -0.03955 0)
(-0.879841 -0.03955 0)
(-0.879841 -0.03955 0)
(-0.879841 -0.03955 0)
(-0.879841 -0.03955 0)
(-0.879841 -0.03955 0)
(-0.879841 -0.03955 0)
(-0.879841 -0.03955 0)
(-0.879841 -0.03955 0)
(-0.879841 -0.03955 0)
(-0.879841 -0.03955 0)
(-0.879841 -0.03955 0)
(-0.879841 -0.03955 0)
(-0.879841 -0.03955 0)
(-0.879841 -0.03955 0)
(-0.879841 -0.03955 0)
(-0.879841 -0.03955 0)
(-0.879841 -0.03955 0)
(-0.879841 -0.03955 0)
(-0.879841 -0.03955 0)
(-0.879841 -0.03955 0)
(-0.879841 -0.03955 0)
(-0.879841 -0.03955 0)
(-0.879841 -0.03955 0)
(-0.879841 -0.03955 0)
(-0.879841 -0.03955 0)
(-0.879841 -0.03955 0)
(-0.879841 -0.03955 0)
(-0.879841 -0.03955 0)
(-0.879841 -0.03955 0)
(-0.879841 -0.03955 0)
(-0.879841 -0.03955 0)
(-0.879841 -0.03955 0)
(-0.879841 -0.03955 0)
(-0.879841 -0.03955 0)
(-0.879841 -0.03955 0)
(-0.879841 -0.03955 0)
(-0.879841 -0.03955 0)
(-0.879841 -0.03955 0)
(-0.879841 -0.03955 0)
(-0.879841 -0.03955 0)
(-0.879841 -0.03955 0)
(-0.879841 -0.03955 0)
(-0.879841 -0.03955 0)
(-0.879841 -0.03955 0)
(-0.879841 -0.03955 0)
(-0.879841 -0.03955 0)
(-0.879841 -0.03955 0)
(-0.879841 -0.03955 0)
(-0.879841 -0.03955 0)
(-0.879841 -0.03955 0)
(-0.879841 -0.03955 0)
(-0.879841 -0.03955 0)
(-0.879841 -0.03955 0)
(-0.879841 -0.03955 0)
(-0.879841 -0.03955 0)
(-0.879841 -0.03955 0)
(-0.879841 -0.03955 0)
(-0.879841 -0.03955 0)
(-0.879841 -0.03955 0)
(-0.879841 -0.03955 0)
(-0.879841 -0.03955 0)
(-0.879841 -0.03955 0)
(-0.879841 -0.03955 0)
(-0.879841 -0.03955 0)
(-0.879841 -0.03955 0)
(-0.879841 -0.03955 0)
(-0.879841 -0.03955 0)
(-0.879841 -0.03955 0)
(-0.879841 -0.03955 0)
(-0.879841 -0.03955 0)
(-0.879841 -0.03955 0)
(-0.879841 -0.03955 0)
(-0.879841 -0.03955 0)
(-0.879841 -0.03955 0)
(-0.879841 -0.03955 0)
(-0.879841 -0.03955 0)
(-0.879841 -0.03955 0)
(-0.879841 -0.03955 0)
(-0.879841 -0.03955 0)
(-0.879841 -0.03955 0)
(-0.879841 -0.0395498 0)
(-0.879841 -0.0395414 0)
(-0.87984 -0.0391968 0)
(-0.879819 -0.0225002 0)
)
;

boundaryField
{
    inandouthalf11
    {
        type            cyclic;
    }
    inandouthalf12
    {
        type            cyclic;
    }
    inandouthalf21
    {
        type            cyclic;
    }
    inandouthalf22
    {
        type            cyclic;
    }
    inandouthalf31
    {
        type            cyclic;
    }
    inandouthalf32
    {
        type            cyclic;
    }
    inandouthalf41
    {
        type            cyclic;
    }
    inandouthalf42
    {
        type            cyclic;
    }
    top
    {
        type            symmetryPlane;
    }
    walls
    {
        type            fixedValue;
        value           uniform (0 0 0);
    }
    frontAndBackPlanes
    {
        type            empty;
    }
}


// ************************************************************************* //
