/*--------------------------------*- C++ -*----------------------------------*\
| =========                 |                                                 |
| \\      /  F ield         | OpenFOAM: The Open Source CFD Toolbox           |
|  \\    /   O peration     | Version:  2.4.x                                 |
|   \\  /    A nd           | Web:      www.OpenFOAM.org                      |
|    \\/     M anipulation  |                                                 |
\*---------------------------------------------------------------------------*/
FoamFile
{
    version     2.0;
    format      ascii;
    class       volScalarField;
    location    "11.05";
    object      alpha;
}
// * * * * * * * * * * * * * * * * * * * * * * * * * * * * * * * * * * * * * //

dimensions      [0 0 0 0 0 0 0];

internalField   nonuniform List<scalar> 
360
(
0.610892
0.611759
0.611848
0.611758
0.611716
0.611702
0.611685
0.611663
0.611641
0.611618
0.611595
0.611572
0.611549
0.611525
0.611502
0.611478
0.611454
0.61143
0.611405
0.61138
0.611355
0.61133
0.611304
0.611279
0.611253
0.611226
0.6112
0.611173
0.611146
0.611118
0.611091
0.611062
0.611034
0.611005
0.610977
0.610947
0.610918
0.610888
0.610857
0.610827
0.610796
0.610765
0.610733
0.610701
0.610669
0.610636
0.610603
0.610569
0.610536
0.610501
0.610466
0.610431
0.610396
0.61036
0.610323
0.610286
0.610249
0.610211
0.610173
0.610134
0.610095
0.610055
0.610015
0.609974
0.609933
0.609891
0.609848
0.609805
0.609761
0.609717
0.609672
0.609626
0.609581
0.609533
0.609486
0.609437
0.609389
0.609339
0.609288
0.609237
0.609185
0.609132
0.609078
0.609023
0.608968
0.608911
0.608854
0.608795
0.608736
0.608675
0.608613
0.608551
0.608487
0.608421
0.608355
0.608287
0.608218
0.608148
0.608076
0.608003
0.607928
0.607851
0.607773
0.607693
0.607611
0.607528
0.607442
0.607355
0.607265
0.607173
0.607079
0.606983
0.606884
0.606782
0.606678
0.606571
0.606461
0.606348
0.606232
0.606112
0.605988
0.605861
0.605729
0.605593
0.605453
0.605308
0.605157
0.605001
0.604839
0.604671
0.604496
0.604313
0.604123
0.603922
0.603709
0.603482
0.603242
0.602986
0.602702
0.602378
0.602028
0.601619
0.59878
0.599204
0.598689
0.597838
0.597033
0.596126
0.587597
0.301482
0.172504
0.119673
0.0831443
0.0557666
0.0360357
0.0226802
0.0141683
0.00901787
0.00604873
0.0043652
0.00336845
0.00273144
0.00229504
0.00197938
0.00174086
0.00155413
0.00140368
0.00127956
0.0011751
0.00108571
0.00100813
0.000939962
0.000879434
0.000825198
0.00077621
0.000731653
0.000690876
0.000653358
0.00061867
0.000586463
0.000556445
0.000528371
0.000502036
0.000477263
0.0004539
0.000431818
0.000410903
0.000391055
0.000372185
0.000354217
0.000337081
0.000320716
0.000305065
0.000290081
0.000275718
0.000261939
0.000248709
0.000235999
0.000223784
0.000212043
0.000200759
0.000189809
0.000179092
0.000168622
0.000158414
0.000148485
0.000138851
0.000129526
0.000120525
0.000111858
0.000103531
9.55499e-05
8.79155e-05
8.06284e-05
7.36885e-05
6.70966e-05
6.0855e-05
5.49679e-05
4.94411e-05
4.42805e-05
3.94904e-05
3.50712e-05
3.10181e-05
2.73209e-05
2.39642e-05
2.09288e-05
1.81933e-05
1.5737e-05
1.35411e-05
1.15776e-05
9.85725e-06
8.30699e-06
7.01091e-06
5.79938e-06
4.89872e-06
3.82785e-06
2.89329e-06
2.43525e-06
1.93864e-06
1.51778e-06
1.16873e-06
8.83819e-07
6.55382e-07
4.75698e-07
3.37248e-07
2.32861e-07
1.5598e-07
1.0073e-07
6.20317e-08
3.57419e-08
1.80388e-08
7.4941e-09
2.31366e-19
2.29562e-30
1.76005e-41
1.17412e-52
1.83077e-63
6.87129e-66
2.83732e-66
1.46951e-66
7.60254e-67
3.73815e-67
1.86381e-67
9.14955e-68
4.41984e-68
2.09998e-68
9.80861e-69
4.5015e-69
2.02873e-69
8.97345e-70
3.8931e-70
1.65559e-70
6.89664e-71
2.81214e-71
1.12156e-71
4.37165e-72
1.66376e-72
6.17604e-73
2.23457e-73
7.87264e-74
2.69787e-74
8.98243e-75
2.90201e-75
9.08565e-76
2.75258e-76
8.05705e-77
2.27473e-77
6.18303e-78
1.6148e-78
4.04321e-79
9.68202e-80
2.21142e-80
4.80326e-81
9.88792e-82
1.9219e-82
3.51186e-83
6.00316e-84
9.5448e-85
1.40209e-85
1.88772e-86
2.307e-87
2.52887e-88
2.4492e-89
2.05487e-90
1.45401e-91
8.34836e-93
3.66074e-94
1.09925e-95
1.74557e-97
2.02557e-100
3.98913e-107
2.43473e-109
7.35098e-112
3.10508e-122
6.71151e-133
1.09211e-143
1.29614e-154
1.34449e-165
1.07933e-176
7.44367e-188
1.25068e-198
5.19392e-209
2.84337e-217
1.45969e-227
9.77818e-236
5.94472e-246
3.36689e-254
2.51241e-264
1.16123e-272
1.615e-282
4.12271e-291
1.0738e-300
1.52738e-309
3.69871e-318
7.46039e-321
7.83094e-321
2.51973e-321
8.86848e-321
4.57737e-319
2.8055e-319
6.80328e-321
7.09478e-321
6.08689e-321
8.5424e-321
0
0
0
0
0
0
0
0
0
0
0
0
0
0
0
0
)
;

boundaryField
{
    inandouthalf11
    {
        type            cyclic;
    }
    inandouthalf12
    {
        type            cyclic;
    }
    inandouthalf21
    {
        type            cyclic;
    }
    inandouthalf22
    {
        type            cyclic;
    }
    inandouthalf31
    {
        type            cyclic;
    }
    inandouthalf32
    {
        type            cyclic;
    }
    inandouthalf41
    {
        type            cyclic;
    }
    inandouthalf42
    {
        type            cyclic;
    }
    top
    {
        type            symmetryPlane;
    }
    walls
    {
        type            zeroGradient;
    }
    frontAndBackPlanes
    {
        type            empty;
    }
}


// ************************************************************************* //
