/*--------------------------------*- C++ -*----------------------------------*\
| =========                 |                                                 |
| \\      /  F ield         | OpenFOAM: The Open Source CFD Toolbox           |
|  \\    /   O peration     | Version:  2.4.x                                 |
|   \\  /    A nd           | Web:      www.OpenFOAM.org                      |
|    \\/     M anipulation  |                                                 |
\*---------------------------------------------------------------------------*/
FoamFile
{
    version     2.0;
    format      ascii;
    class       volVectorField;
    location    "11.05";
    object      ddt0(Ua);
}
// * * * * * * * * * * * * * * * * * * * * * * * * * * * * * * * * * * * * * //

dimensions      [0 1 -2 0 0 0 0];

internalField   nonuniform List<vector> 
360
(
(-5.84261e-33 2.13555e-33 0)
(1.46378e-09 7.77651e-09 0)
(2.91282e-09 1.36702e-08 0)
(4.06789e-09 1.85705e-08 0)
(5.08239e-09 2.33831e-08 0)
(5.96212e-09 2.79991e-08 0)
(6.67246e-09 3.22146e-08 0)
(7.20585e-09 3.59902e-08 0)
(7.57133e-09 3.93487e-08 0)
(7.78314e-09 4.23221e-08 0)
(7.85821e-09 4.49474e-08 0)
(7.81551e-09 4.72659e-08 0)
(7.67539e-09 4.93224e-08 0)
(7.45873e-09 5.11644e-08 0)
(7.18604e-09 5.28403e-08 0)
(6.87678e-09 5.43973e-08 0)
(6.54885e-09 5.58798e-08 0)
(6.2183e-09 5.73284e-08 0)
(5.89919e-09 5.87793e-08 0)
(5.60351e-09 6.02643e-08 0)
(5.34126e-09 6.18106e-08 0)
(5.12054e-09 6.34412e-08 0)
(4.94773e-09 6.51751e-08 0)
(4.82764e-09 6.70276e-08 0)
(4.76377e-09 6.90109e-08 0)
(4.75841e-09 7.11341e-08 0)
(4.81286e-09 7.34037e-08 0)
(4.92757e-09 7.58244e-08 0)
(5.10231e-09 7.83991e-08 0)
(5.33623e-09 8.11288e-08 0)
(5.628e-09 8.4013e-08 0)
(5.97592e-09 8.70509e-08 0)
(6.37797e-09 9.02399e-08 0)
(6.83189e-09 9.35772e-08 0)
(7.33527e-09 9.70597e-08 0)
(7.88547e-09 1.00683e-07 0)
(8.47977e-09 1.04441e-07 0)
(9.11549e-09 1.08332e-07 0)
(9.78989e-09 1.12349e-07 0)
(1.05001e-08 1.16487e-07 0)
(1.12435e-08 1.20741e-07 0)
(1.20173e-08 1.25106e-07 0)
(1.28189e-08 1.29576e-07 0)
(1.36456e-08 1.34147e-07 0)
(1.44951e-08 1.38813e-07 0)
(1.53651e-08 1.4357e-07 0)
(1.62532e-08 1.48413e-07 0)
(1.71571e-08 1.53335e-07 0)
(1.80747e-08 1.58333e-07 0)
(1.90043e-08 1.63405e-07 0)
(1.9944e-08 1.68544e-07 0)
(2.0892e-08 1.73747e-07 0)
(2.18467e-08 1.79011e-07 0)
(2.28066e-08 1.84331e-07 0)
(2.37701e-08 1.89704e-07 0)
(2.47361e-08 1.95127e-07 0)
(2.57032e-08 2.00598e-07 0)
(2.66701e-08 2.06113e-07 0)
(2.76357e-08 2.11668e-07 0)
(2.85988e-08 2.1726e-07 0)
(2.95585e-08 2.22887e-07 0)
(3.05139e-08 2.28548e-07 0)
(3.14642e-08 2.3424e-07 0)
(3.24086e-08 2.3996e-07 0)
(3.33461e-08 2.45707e-07 0)
(3.42758e-08 2.51476e-07 0)
(3.51969e-08 2.57267e-07 0)
(3.61088e-08 2.63076e-07 0)
(3.70105e-08 2.68902e-07 0)
(3.79012e-08 2.74739e-07 0)
(3.87803e-08 2.80588e-07 0)
(3.96474e-08 2.86448e-07 0)
(4.05016e-08 2.92315e-07 0)
(4.13422e-08 2.98187e-07 0)
(4.21688e-08 3.04063e-07 0)
(4.29807e-08 3.09942e-07 0)
(4.37772e-08 3.1582e-07 0)
(4.45574e-08 3.21694e-07 0)
(4.53206e-08 3.27561e-07 0)
(4.60661e-08 3.33419e-07 0)
(4.67934e-08 3.39266e-07 0)
(4.75018e-08 3.45099e-07 0)
(4.81908e-08 3.50917e-07 0)
(4.886e-08 3.56719e-07 0)
(4.95089e-08 3.62504e-07 0)
(5.01368e-08 3.68269e-07 0)
(5.07434e-08 3.74013e-07 0)
(5.13278e-08 3.79732e-07 0)
(5.18896e-08 3.85425e-07 0)
(5.24281e-08 3.91088e-07 0)
(5.29428e-08 3.96719e-07 0)
(5.34333e-08 4.02316e-07 0)
(5.38991e-08 4.07878e-07 0)
(5.434e-08 4.13404e-07 0)
(5.47555e-08 4.18892e-07 0)
(5.51452e-08 4.24342e-07 0)
(5.55087e-08 4.29752e-07 0)
(5.58455e-08 4.3512e-07 0)
(5.6155e-08 4.40444e-07 0)
(5.64367e-08 4.45724e-07 0)
(5.66901e-08 4.50959e-07 0)
(5.69148e-08 4.56149e-07 0)
(5.71102e-08 4.61294e-07 0)
(5.72759e-08 4.66396e-07 0)
(5.74116e-08 4.71459e-07 0)
(5.7517e-08 4.76486e-07 0)
(5.75917e-08 4.81483e-07 0)
(5.76355e-08 4.86454e-07 0)
(5.76482e-08 4.91406e-07 0)
(5.76294e-08 4.96346e-07 0)
(5.75786e-08 5.0128e-07 0)
(5.74953e-08 5.06212e-07 0)
(5.73786e-08 5.11145e-07 0)
(5.72275e-08 5.16079e-07 0)
(5.70404e-08 5.21012e-07 0)
(5.68159e-08 5.25937e-07 0)
(5.6552e-08 5.30845e-07 0)
(5.62471e-08 5.35726e-07 0)
(5.58994e-08 5.40574e-07 0)
(5.55078e-08 5.45386e-07 0)
(5.50714e-08 5.50169e-07 0)
(5.45894e-08 5.54946e-07 0)
(5.40614e-08 5.59761e-07 0)
(5.3486e-08 5.64682e-07 0)
(5.28606e-08 5.69812e-07 0)
(5.21799e-08 5.75294e-07 0)
(5.1435e-08 5.8132e-07 0)
(5.06104e-08 5.88144e-07 0)
(4.96818e-08 5.96086e-07 0)
(4.86102e-08 6.05514e-07 0)
(4.73349e-08 6.16793e-07 0)
(4.57652e-08 6.30164e-07 0)
(4.37814e-08 6.45564e-07 0)
(4.12587e-08 6.62419e-07 0)
(3.81428e-08 6.79486e-07 0)
(3.45728e-08 6.94884e-07 0)
(3.09871e-08 7.06647e-07 0)
(2.80055e-08 7.13802e-07 0)
(2.60751e-08 7.17e-07 0)
(2.51531e-08 7.17913e-07 0)
(2.48394e-08 7.18043e-07 0)
(2.47255e-08 7.18103e-07 0)
(2.46959e-08 7.18247e-07 0)
(2.82622e-08 7.25424e-07 0)
(3.07563e-08 7.30085e-07 0)
(2.34609e-08 7.30457e-07 0)
(-4.79887e-08 7.11353e-07 0)
(-8.9355e-07 6.9275e-07 0)
(-6.88364e-05 5.74068e-06 0)
(-0.282291 0.00477339 0)
(-0.234848 0.000770132 0)
(-0.201513 -0.000208983 0)
(-0.209237 0.000183427 0)
(-0.245769 0.00228175 0)
(-0.302608 0.00659551 0)
(-0.370319 0.0138867 0)
(-0.438013 0.024178 0)
(-0.497082 0.0355279 0)
(-0.544495 0.0434507 0)
(-0.582061 0.0463305 0)
(-0.612373 0.0458808 0)
(-0.63738 0.0438766 0)
(-0.658401 0.0413019 0)
(-0.67636 0.038544 0)
(-0.691919 0.0357777 0)
(-0.705565 0.0330872 0)
(-0.717663 0.0305127 0)
(-0.728494 0.0280726 0)
(-0.738277 0.0257736 0)
(-0.747184 0.0236156 0)
(-0.755355 0.0215947 0)
(-0.762903 0.0197045 0)
(-0.769922 0.0179379 0)
(-0.776488 0.0162869 0)
(-0.782664 0.0147437 0)
(-0.788503 0.0133006 0)
(-0.794051 0.0119501 0)
(-0.799344 0.0106853 0)
(-0.804413 0.00949982 0)
(-0.809285 0.00838754 0)
(-0.813983 0.00734295 0)
(-0.818523 0.00636097 0)
(-0.822923 0.00543691 0)
(-0.827196 0.00456649 0)
(-0.831353 0.00374579 0)
(-0.835403 0.00297121 0)
(-0.839353 0.00223947 0)
(-0.843211 0.00154757 0)
(-0.846982 0.000892771 0)
(-0.850669 0.000272579 0)
(-0.854277 -0.000315244 0)
(-0.857807 -0.000872693 0)
(-0.861262 -0.00140152 0)
(-0.864643 -0.00190322 0)
(-0.86795 -0.00237904 0)
(-0.871184 -0.00282995 0)
(-0.874345 -0.00325669 0)
(-0.877432 -0.00365973 0)
(-0.880444 -0.00403938 0)
(-0.883379 -0.00439578 0)
(-0.886237 -0.00472898 0)
(-0.889045 -0.00504223 0)
(-0.891828 -0.00533784 0)
(-0.894584 -0.00561505 0)
(-0.897309 -0.00587345 0)
(-0.900002 -0.00611315 0)
(-0.902658 -0.00633491 0)
(-0.905275 -0.00654028 0)
(-0.907848 -0.00673157 0)
(-0.910375 -0.00691184 0)
(-0.912851 -0.00708473 0)
(-0.915272 -0.00725421 0)
(-0.917635 -0.00742415 0)
(-0.919935 -0.00759784 0)
(-0.92217 -0.00777741 0)
(-0.924335 -0.00796327 0)
(-0.926428 -0.00815366 0)
(-0.928444 -0.0083447 0)
(-0.93038 -0.00853084 0)
(-0.932234 -0.00870575 0)
(-0.934003 -0.0088633 0)
(-0.935684 -0.0089983 0)
(-0.937275 -0.00910696 0)
(-0.938774 -0.00918694 0)
(-0.940181 -0.0092373 0)
(-0.941494 -0.00925817 0)
(-0.942712 -0.00925033 0)
(-0.943835 -0.0092146 0)
(-0.944861 -0.00915251 0)
(-0.945792 -0.00906341 0)
(-0.946626 -0.00894868 0)
(-0.947366 -0.00880512 0)
(-0.948012 -0.00863316 0)
(-0.94857 -0.00842052 0)
(-0.949029 -0.0081694 0)
(-0.94933 -0.00799076 0)
(-0.949576 -0.00789632 0)
(-0.981047 -0.00868191 0)
(-0.981581 -0.00855377 0)
(-0.98171 -0.00909464 0)
(-0.981561 -0.00909446 0)
(-0.981116 -0.00917135 0)
(-0.980357 -0.00923295 0)
(-0.979266 -0.00892202 0)
(-0.977827 -0.00878919 0)
(-0.976082 -0.00709721 0)
(-0.973827 -0.00902876 0)
(-0.971639 -0.00244569 0)
(-0.968332 -0.0101031 0)
(-0.966342 0.0151849 0)
(-0.960981 -0.0370244 0)
(-0.963347 0.0700694 0)
(-0.950475 0.0882025 0)
(-0.950573 -0.000180822 0)
(-0.946769 -0.000157885 0)
(-0.943644 -0.000136678 0)
(-0.941368 -0.000144237 0)
(-0.938743 -0.000122872 0)
(-0.936614 -0.000112473 0)
(-0.934741 -0.000102091 0)
(-0.933115 -9.33103e-05 0)
(-0.931712 -8.60651e-05 0)
(-0.93051 -8.02876e-05 0)
(-0.929492 -7.58503e-05 0)
(-0.92864 -7.26056e-05 0)
(-0.927941 -7.04074e-05 0)
(-0.927385 -6.91231e-05 0)
(-0.926962 -6.86415e-05 0)
(-0.926665 -6.88793e-05 0)
(-0.926492 -6.97883e-05 0)
(-0.926442 -7.1372e-05 0)
(-0.926519 -7.37328e-05 0)
(-0.926735 -7.71581e-05 0)
(-0.927117 -8.20901e-05 0)
(-0.927705 -9.69794e-05 0)
(-0.929046 -0.000102039 0)
(-0.929687 -8.85655e-05 0)
(-0.929726 -8.09777e-05 0)
(-0.929727 -8.05071e-05 0)
(-0.929727 -8.05005e-05 0)
(-0.929727 -8.05008e-05 0)
(-0.929727 -8.05006e-05 0)
(-0.929727 -8.05008e-05 0)
(-0.929727 -8.05006e-05 0)
(-0.929727 -8.05008e-05 0)
(-0.929727 -8.05006e-05 0)
(-0.929727 -8.05008e-05 0)
(-0.929727 -8.05006e-05 0)
(-0.929727 -8.05008e-05 0)
(-0.929727 -8.05006e-05 0)
(-0.929727 -8.05008e-05 0)
(-0.929727 -8.05006e-05 0)
(-0.929727 -8.05009e-05 0)
(-0.929727 -8.05006e-05 0)
(-0.929727 -8.05009e-05 0)
(-0.929727 -8.05005e-05 0)
(-0.929727 -8.05009e-05 0)
(-0.929727 -8.05005e-05 0)
(-0.929727 -8.05008e-05 0)
(-0.929727 -8.05005e-05 0)
(-0.929727 -8.05008e-05 0)
(-0.929727 -8.05004e-05 0)
(-0.929727 -8.05008e-05 0)
(-0.929727 -8.05004e-05 0)
(-0.929727 -8.05008e-05 0)
(-0.929727 -8.05003e-05 0)
(-0.929727 -8.05007e-05 0)
(-0.929727 -8.05002e-05 0)
(-0.929727 -8.05007e-05 0)
(-0.929727 -8.05002e-05 0)
(-0.929727 -8.05006e-05 0)
(-0.929727 -8.05001e-05 0)
(-0.929727 -8.05005e-05 0)
(-0.929727 -8.05e-05 0)
(-0.929727 -8.05005e-05 0)
(-0.929727 -8.04999e-05 0)
(-0.929727 -8.05004e-05 0)
(-0.929727 -8.04999e-05 0)
(-0.929727 -8.05003e-05 0)
(-0.929727 -8.04998e-05 0)
(-0.929727 -8.05002e-05 0)
(-0.929727 -8.04996e-05 0)
(-0.929727 -8.05001e-05 0)
(-0.929727 -8.04995e-05 0)
(-0.929727 -8.05e-05 0)
(-0.929727 -8.04993e-05 0)
(-0.929727 -8.04997e-05 0)
(-0.929727 -8.04986e-05 0)
(-0.929727 -8.04984e-05 0)
(-0.929727 -8.04968e-05 0)
(-0.929727 -8.0496e-05 0)
(-0.929727 -8.04942e-05 0)
(-0.929727 -8.04934e-05 0)
(-0.929727 -8.04915e-05 0)
(-0.929727 -8.04909e-05 0)
(-0.929727 -8.04894e-05 0)
(-0.929727 -8.04888e-05 0)
(-0.929727 -8.0487e-05 0)
(-0.929727 -8.04865e-05 0)
(-0.929727 -8.04853e-05 0)
(-0.929727 -8.04854e-05 0)
(-0.929727 -8.04844e-05 0)
(-0.929727 -8.04851e-05 0)
(-0.929727 -8.04849e-05 0)
(-0.929727 -8.04852e-05 0)
(-0.929727 -8.04839e-05 0)
(-0.929727 -8.04843e-05 0)
(-0.929727 -8.04844e-05 0)
(-0.929727 -8.0486e-05 0)
(-0.929727 -8.04868e-05 0)
(-0.929727 -8.04899e-05 0)
(-0.929727 -8.04927e-05 0)
(-0.929727 -8.04971e-05 0)
(-0.929727 -8.05006e-05 0)
(-0.929727 -8.0506e-05 0)
(-0.929727 -8.05105e-05 0)
(-0.929727 -8.05216e-05 0)
(-0.929728 -8.06102e-05 0)
(-0.929752 -8.24272e-05 0)
(-0.930311 -0.000156749 0)
)
;

boundaryField
{
    inandouthalf11
    {
        type            cyclic;
    }
    inandouthalf12
    {
        type            cyclic;
    }
    inandouthalf21
    {
        type            cyclic;
    }
    inandouthalf22
    {
        type            cyclic;
    }
    inandouthalf31
    {
        type            cyclic;
    }
    inandouthalf32
    {
        type            cyclic;
    }
    inandouthalf41
    {
        type            cyclic;
    }
    inandouthalf42
    {
        type            cyclic;
    }
    top
    {
        type            symmetryPlane;
    }
    walls
    {
        type            calculated;
        value           uniform (0 0 0);
    }
    frontAndBackPlanes
    {
        type            empty;
    }
}


// ************************************************************************* //
