/*--------------------------------*- C++ -*----------------------------------*\
| =========                 |                                                 |
| \\      /  F ield         | OpenFOAM: The Open Source CFD Toolbox           |
|  \\    /   O peration     | Version:  2.4.x                                 |
|   \\  /    A nd           | Web:      www.OpenFOAM.org                      |
|    \\/     M anipulation  |                                                 |
\*---------------------------------------------------------------------------*/
FoamFile
{
    version     2.0;
    format      ascii;
    class       surfaceScalarField;
    location    "11.05";
    object      ddt0(phib);
}
// * * * * * * * * * * * * * * * * * * * * * * * * * * * * * * * * * * * * * //

dimensions      [0 3 -2 0 0 0 0];

internalField   nonuniform List<scalar> 
359
(
-2.65321e-14
-6.6034e-14
-1.00981e-13
-1.32306e-13
-1.62018e-13
-1.8977e-13
-2.14921e-13
-2.37386e-13
-2.57334e-13
-2.74941e-13
-2.90438e-13
-3.04196e-13
-3.16431e-13
-3.27478e-13
-3.37595e-13
-3.47144e-13
-3.56343e-13
-3.65417e-13
-3.74652e-13
-3.84119e-13
-3.94025e-13
-4.04565e-13
-4.1581e-13
-4.27829e-13
-4.40691e-13
-4.54452e-13
-4.69167e-13
-4.84797e-13
-5.01424e-13
-5.19011e-13
-5.37557e-13
-5.57035e-13
-5.77477e-13
-5.98818e-13
-6.2108e-13
-6.44155e-13
-6.6811e-13
-6.92837e-13
-7.18338e-13
-7.44596e-13
-7.71523e-13
-7.9915e-13
-8.27402e-13
-8.56294e-13
-8.85742e-13
-9.15707e-13
-9.46169e-13
-9.77162e-13
-1.00858e-12
-1.04043e-12
-1.07268e-12
-1.10532e-12
-1.13831e-12
-1.17165e-12
-1.20527e-12
-1.23922e-12
-1.27341e-12
-1.30787e-12
-1.34254e-12
-1.37743e-12
-1.4125e-12
-1.44778e-12
-1.48325e-12
-1.51887e-12
-1.55461e-12
-1.59046e-12
-1.62643e-12
-1.66246e-12
-1.69859e-12
-1.7348e-12
-1.77102e-12
-1.80729e-12
-1.84356e-12
-1.8799e-12
-1.91621e-12
-1.95248e-12
-1.98875e-12
-2.02493e-12
-2.06107e-12
-2.09711e-12
-2.13305e-12
-2.16885e-12
-2.20457e-12
-2.24012e-12
-2.27558e-12
-2.31086e-12
-2.34599e-12
-2.38092e-12
-2.41563e-12
-2.45012e-12
-2.48442e-12
-2.51844e-12
-2.55222e-12
-2.58574e-12
-2.61899e-12
-2.65195e-12
-2.68464e-12
-2.717e-12
-2.74909e-12
-2.78083e-12
-2.81229e-12
-2.84338e-12
-2.8742e-12
-2.90468e-12
-2.93493e-12
-2.96491e-12
-2.99468e-12
-3.02424e-12
-3.05369e-12
-3.08301e-12
-3.11227e-12
-3.14145e-12
-3.17059e-12
-3.19966e-12
-3.22866e-12
-3.25752e-12
-3.28614e-12
-3.31454e-12
-3.34262e-12
-3.37042e-12
-3.39806e-12
-3.4257e-12
-3.4537e-12
-3.48256e-12
-3.51304e-12
-3.54612e-12
-3.58324e-12
-3.62605e-12
-3.67667e-12
-3.73732e-12
-3.80984e-12
-3.89469e-12
-3.9899e-12
-4.08983e-12
-4.18493e-12
-4.26351e-12
-4.31667e-12
-4.34326e-12
-4.35022e-12
-4.3473e-12
-4.34108e-12
-4.31198e-12
-4.31482e-12
-4.34523e-12
-4.351e-12
-4.28881e-12
-3.21502e-12
-4.26968e-11
-7.30155e-09
-1.11891e-09
-4.07e-10
-1.06535e-09
-1.91423e-09
-2.4299e-09
-2.47633e-09
-2.16273e-09
-1.67565e-09
-1.15026e-09
-8.18073e-10
-5.95333e-10
-4.69152e-10
-3.92111e-10
-3.4018e-10
-3.02344e-10
-2.72932e-10
-2.48896e-10
-2.28513e-10
-2.10757e-10
-1.94984e-10
-1.80772e-10
-1.67833e-10
-1.55962e-10
-1.4501e-10
-1.34861e-10
-1.25428e-10
-1.16639e-10
-1.08434e-10
-1.00766e-10
-9.35924e-11
-8.68764e-11
-8.05867e-11
-7.46947e-11
-6.91752e-11
-6.40049e-11
-5.9163e-11
-5.463e-11
-5.03881e-11
-4.64206e-11
-4.27122e-11
-3.92482e-11
-3.6015e-11
-3.29998e-11
-3.01906e-11
-2.75759e-11
-2.51451e-11
-2.28879e-11
-2.0795e-11
-1.88574e-11
-1.70667e-11
-1.54151e-11
-1.38951e-11
-1.24725e-11
-1.11472e-11
-9.91843e-12
-8.78513e-12
-7.74547e-12
-6.79692e-12
-5.93604e-12
-5.15851e-12
-4.45924e-12
-3.83248e-12
-3.272e-12
-2.77147e-12
-2.32483e-12
-1.92659e-12
-1.57223e-12
-1.25834e-12
-9.82596e-13
-7.43499e-13
-5.39872e-13
-3.70459e-13
-2.33357e-13
-1.2597e-13
-4.50396e-14
1.31279e-14
5.25058e-14
7.70604e-14
8.98073e-14
9.46613e-14
9.29289e-14
8.78975e-14
7.95688e-14
7.1516e-14
5.92484e-14
3.38702e-14
1.61111e-14
2.5914e-14
3.56219e-14
3.84173e-14
3.65933e-14
3.21896e-14
2.63886e-14
2.02676e-14
1.46767e-14
9.67372e-15
5.52517e-15
3.65841e-15
3.68569e-16
3.19678e-16
4.31722e-16
-6.4436e-16
-6.46851e-16
1.08192e-16
1.09426e-16
1.10463e-16
1.1057e-16
1.14407e-16
1.14139e-16
1.19613e-16
1.18761e-16
1.08175e-16
1.07571e-16
1.05899e-16
1.06588e-16
1.03115e-16
9.98105e-17
1.06221e-16
1.11081e-16
1.14548e-16
1.1736e-16
1.15762e-16
1.12961e-16
1.16671e-16
1.17839e-16
1.15881e-16
1.19589e-16
1.21311e-16
1.25207e-16
1.30877e-16
1.35693e-16
1.50343e-16
1.4893e-16
1.50725e-16
1.68124e-16
1.71433e-16
1.76543e-16
1.88269e-16
1.93564e-16
2.0785e-16
2.2461e-16
2.44771e-16
2.67391e-16
2.93242e-16
3.33145e-16
3.83079e-16
4.44698e-16
5.64302e-16
7.09773e-16
8.64724e-16
1.04812e-15
1.22684e-15
1.44253e-15
1.66589e-15
1.91548e-15
2.14022e-15
2.4067e-15
2.67694e-15
2.99792e-15
3.30746e-15
3.66721e-15
3.99979e-15
4.36147e-15
4.80071e-15
5.2346e-15
5.6952e-15
6.10042e-15
6.58155e-15
6.95358e-15
7.37253e-15
7.82549e-15
8.59607e-15
9.23889e-15
9.9487e-15
1.05283e-14
1.14103e-14
1.25452e-14
1.47183e-14
2.37666e-14
3.13082e-14
4.50073e-14
5.96741e-14
7.27937e-14
8.81142e-14
9.98647e-14
1.11873e-13
1.20163e-13
1.36366e-13
1.4685e-13
1.57364e-13
1.59234e-13
1.68471e-13
1.66632e-13
1.6582e-13
1.57792e-13
1.7101e-13
1.72836e-13
1.75079e-13
1.5723e-13
1.53111e-13
1.2632e-13
9.82623e-14
5.48845e-14
1.65291e-14
-3.38096e-14
-8.68378e-14
-1.39998e-13
-2.35025e-13
-2.71589e-13
-2.80307e-13
)
;

boundaryField
{
    inandouthalf11
    {
        type            cyclic;
        value           nonuniform List<scalar> 
100
(
-1.93924e-10
-1.9285e-10
-1.92705e-10
-1.92851e-10
-1.92921e-10
-1.92944e-10
-1.92972e-10
-1.93009e-10
-1.93046e-10
-1.93083e-10
-1.9312e-10
-1.93157e-10
-1.93194e-10
-1.93231e-10
-1.93269e-10
-1.93307e-10
-1.93346e-10
-1.93385e-10
-1.93424e-10
-1.93464e-10
-1.93504e-10
-1.93545e-10
-1.93586e-10
-1.93627e-10
-1.9367e-10
-1.93712e-10
-1.93755e-10
-1.93799e-10
-1.93844e-10
-1.93889e-10
-1.93934e-10
-1.9398e-10
-1.94026e-10
-1.94074e-10
-1.94121e-10
-1.9417e-10
-1.94219e-10
-1.94268e-10
-1.94319e-10
-1.94369e-10
-1.9442e-10
-1.94472e-10
-1.94525e-10
-1.94578e-10
-1.94632e-10
-1.94686e-10
-1.94742e-10
-1.94797e-10
-1.94853e-10
-1.94911e-10
-1.94968e-10
-1.95027e-10
-1.95086e-10
-1.95147e-10
-1.95207e-10
-1.95269e-10
-1.95331e-10
-1.95394e-10
-1.95458e-10
-1.95522e-10
-1.95588e-10
-1.95654e-10
-1.95722e-10
-1.9579e-10
-1.95859e-10
-1.95928e-10
-1.95999e-10
-1.96071e-10
-1.96144e-10
-1.96217e-10
-1.96293e-10
-1.96369e-10
-1.96445e-10
-1.96524e-10
-1.96603e-10
-1.96684e-10
-1.96765e-10
-1.96848e-10
-1.96932e-10
-1.97018e-10
-1.97105e-10
-1.97193e-10
-1.97283e-10
-1.97374e-10
-1.97466e-10
-1.97561e-10
-1.97657e-10
-1.97754e-10
-1.97853e-10
-1.97954e-10
-1.98057e-10
-1.98162e-10
-1.98268e-10
-1.98377e-10
-1.98488e-10
-1.98601e-10
-1.98716e-10
-1.98834e-10
-1.98954e-10
-1.99076e-10
)
;
    }
    inandouthalf12
    {
        type            cyclic;
        value           nonuniform List<scalar> 
100
(
1.93924e-10
1.9285e-10
1.92705e-10
1.92851e-10
1.92921e-10
1.92944e-10
1.92972e-10
1.93009e-10
1.93046e-10
1.93083e-10
1.9312e-10
1.93157e-10
1.93194e-10
1.93231e-10
1.93269e-10
1.93307e-10
1.93346e-10
1.93385e-10
1.93424e-10
1.93464e-10
1.93504e-10
1.93545e-10
1.93586e-10
1.93627e-10
1.9367e-10
1.93712e-10
1.93755e-10
1.93799e-10
1.93844e-10
1.93889e-10
1.93934e-10
1.9398e-10
1.94026e-10
1.94074e-10
1.94121e-10
1.9417e-10
1.94219e-10
1.94268e-10
1.94319e-10
1.94369e-10
1.9442e-10
1.94472e-10
1.94525e-10
1.94578e-10
1.94632e-10
1.94686e-10
1.94742e-10
1.94797e-10
1.94853e-10
1.94911e-10
1.94968e-10
1.95027e-10
1.95086e-10
1.95147e-10
1.95207e-10
1.95269e-10
1.95331e-10
1.95394e-10
1.95458e-10
1.95522e-10
1.95588e-10
1.95654e-10
1.95722e-10
1.9579e-10
1.95859e-10
1.95928e-10
1.95999e-10
1.96071e-10
1.96144e-10
1.96217e-10
1.96293e-10
1.96369e-10
1.96445e-10
1.96524e-10
1.96603e-10
1.96684e-10
1.96765e-10
1.96848e-10
1.96932e-10
1.97018e-10
1.97105e-10
1.97193e-10
1.97283e-10
1.97374e-10
1.97466e-10
1.97561e-10
1.97657e-10
1.97754e-10
1.97853e-10
1.97954e-10
1.98057e-10
1.98162e-10
1.98268e-10
1.98377e-10
1.98488e-10
1.98601e-10
1.98716e-10
1.98834e-10
1.98954e-10
1.99076e-10
)
;
    }
    inandouthalf21
    {
        type            cyclic;
        value           nonuniform List<scalar> 
100
(
-1.99201e-10
-1.99329e-10
-1.9946e-10
-1.99593e-10
-1.9973e-10
-1.9987e-10
-2.00013e-10
-2.0016e-10
-2.0031e-10
-2.00464e-10
-2.00622e-10
-2.00784e-10
-2.0095e-10
-2.0112e-10
-2.01296e-10
-2.01476e-10
-2.01661e-10
-2.01851e-10
-2.02048e-10
-2.0225e-10
-2.02458e-10
-2.02674e-10
-2.02896e-10
-2.03126e-10
-2.03364e-10
-2.03611e-10
-2.03867e-10
-2.04133e-10
-2.04409e-10
-2.04698e-10
-2.04998e-10
-2.05311e-10
-2.05637e-10
-2.0598e-10
-2.06343e-10
-2.06728e-10
-2.07135e-10
-2.0757e-10
-2.08056e-10
-2.08616e-10
-2.09224e-10
-2.09931e-10
-2.14959e-10
-2.14206e-10
-2.15129e-10
-2.16649e-10
-2.18043e-10
-2.14953e-10
2.91812e-09
3.3348e-07
2.22526e-07
1.85873e-07
1.88704e-07
2.17014e-07
2.65905e-07
3.32689e-07
4.11355e-07
4.91024e-07
5.60906e-07
6.15907e-07
6.56706e-07
6.86455e-07
7.0838e-07
7.24967e-07
7.37939e-07
7.48444e-07
7.57239e-07
7.64829e-07
7.71553e-07
7.77642e-07
7.83257e-07
7.8851e-07
7.93481e-07
7.98229e-07
8.02795e-07
8.07211e-07
8.11498e-07
8.15676e-07
8.19755e-07
8.23746e-07
8.27656e-07
8.3149e-07
8.35254e-07
8.3895e-07
8.42581e-07
8.4615e-07
8.49657e-07
8.53104e-07
8.56493e-07
8.59824e-07
8.63098e-07
8.66316e-07
8.69478e-07
8.72586e-07
8.75639e-07
8.78638e-07
8.81584e-07
8.84477e-07
8.87317e-07
8.90106e-07
)
;
    }
    inandouthalf22
    {
        type            cyclic;
        value           nonuniform List<scalar> 
100
(
1.99201e-10
1.99329e-10
1.9946e-10
1.99593e-10
1.9973e-10
1.9987e-10
2.00013e-10
2.0016e-10
2.0031e-10
2.00464e-10
2.00622e-10
2.00784e-10
2.0095e-10
2.0112e-10
2.01296e-10
2.01476e-10
2.01661e-10
2.01851e-10
2.02048e-10
2.0225e-10
2.02458e-10
2.02674e-10
2.02896e-10
2.03126e-10
2.03364e-10
2.03611e-10
2.03867e-10
2.04133e-10
2.04409e-10
2.04698e-10
2.04998e-10
2.05311e-10
2.05637e-10
2.0598e-10
2.06343e-10
2.06728e-10
2.07135e-10
2.0757e-10
2.08056e-10
2.08616e-10
2.09224e-10
2.09931e-10
2.14959e-10
2.14206e-10
2.15129e-10
2.16649e-10
2.18043e-10
2.14953e-10
-2.91812e-09
-3.3348e-07
-2.22526e-07
-1.85873e-07
-1.88704e-07
-2.17014e-07
-2.65905e-07
-3.32689e-07
-4.11355e-07
-4.91024e-07
-5.60906e-07
-6.15907e-07
-6.56706e-07
-6.86455e-07
-7.0838e-07
-7.24967e-07
-7.37939e-07
-7.48444e-07
-7.57239e-07
-7.64829e-07
-7.71553e-07
-7.77642e-07
-7.83257e-07
-7.8851e-07
-7.93481e-07
-7.98229e-07
-8.02795e-07
-8.07211e-07
-8.11498e-07
-8.15676e-07
-8.19755e-07
-8.23746e-07
-8.27656e-07
-8.3149e-07
-8.35254e-07
-8.3895e-07
-8.42581e-07
-8.4615e-07
-8.49657e-07
-8.53104e-07
-8.56493e-07
-8.59824e-07
-8.63098e-07
-8.66316e-07
-8.69478e-07
-8.72586e-07
-8.75639e-07
-8.78638e-07
-8.81584e-07
-8.84477e-07
-8.87317e-07
-8.90106e-07
)
;
    }
    inandouthalf31
    {
        type            cyclic;
        value           nonuniform List<scalar> 
110
(
8.92845e-07
9.13735e-07
9.35109e-07
9.56974e-07
9.79341e-07
1.00222e-06
1.02562e-06
1.04956e-06
1.07404e-06
1.09907e-06
1.12466e-06
1.15082e-06
1.17757e-06
1.2049e-06
1.23284e-06
1.26139e-06
1.29055e-06
1.32034e-06
1.35077e-06
1.38184e-06
1.41356e-06
1.44593e-06
1.47896e-06
1.51265e-06
1.54701e-06
1.58204e-06
1.61774e-06
1.65411e-06
1.69114e-06
1.72882e-06
1.76715e-06
1.80612e-06
1.84571e-06
1.8859e-06
1.92666e-06
1.96797e-06
2.00978e-06
2.05206e-06
2.09476e-06
2.13781e-06
2.18115e-06
2.2247e-06
2.26839e-06
2.31214e-06
2.35586e-06
2.39948e-06
2.44295e-06
2.48623e-06
2.52936e-06
2.57241e-06
2.61553e-06
2.65894e-06
2.70292e-06
2.74777e-06
2.79379e-06
2.84124e-06
2.89031e-06
2.94112e-06
2.99373e-06
3.04816e-06
3.10441e-06
3.16248e-06
3.22234e-06
3.284e-06
3.34745e-06
3.4127e-06
3.47978e-06
3.54868e-06
3.61946e-06
3.69215e-06
3.7668e-06
3.84349e-06
3.92232e-06
4.00347e-06
4.08701e-06
4.17588e-06
4.2643e-06
4.35109e-06
4.43941e-06
4.52952e-06
4.62145e-06
4.71526e-06
4.81096e-06
4.90861e-06
5.00825e-06
5.1099e-06
5.21362e-06
5.31944e-06
5.42741e-06
5.53757e-06
5.64997e-06
5.76465e-06
5.88166e-06
6.00104e-06
6.12284e-06
6.24712e-06
6.37392e-06
6.5033e-06
6.63529e-06
6.76997e-06
6.90739e-06
7.04759e-06
7.19063e-06
7.33659e-06
7.4855e-06
7.63743e-06
7.79245e-06
7.95062e-06
8.112e-06
8.27665e-06
)
;
    }
    inandouthalf32
    {
        type            cyclic;
        value           nonuniform List<scalar> 
110
(
-8.92845e-07
-9.13735e-07
-9.35109e-07
-9.56974e-07
-9.79341e-07
-1.00222e-06
-1.02562e-06
-1.04956e-06
-1.07404e-06
-1.09907e-06
-1.12466e-06
-1.15082e-06
-1.17757e-06
-1.2049e-06
-1.23284e-06
-1.26139e-06
-1.29055e-06
-1.32034e-06
-1.35077e-06
-1.38184e-06
-1.41356e-06
-1.44593e-06
-1.47896e-06
-1.51265e-06
-1.54701e-06
-1.58204e-06
-1.61774e-06
-1.65411e-06
-1.69114e-06
-1.72882e-06
-1.76715e-06
-1.80612e-06
-1.84571e-06
-1.8859e-06
-1.92666e-06
-1.96797e-06
-2.00978e-06
-2.05206e-06
-2.09476e-06
-2.13781e-06
-2.18115e-06
-2.2247e-06
-2.26839e-06
-2.31214e-06
-2.35586e-06
-2.39948e-06
-2.44295e-06
-2.48623e-06
-2.52936e-06
-2.57241e-06
-2.61553e-06
-2.65894e-06
-2.70292e-06
-2.74777e-06
-2.79379e-06
-2.84124e-06
-2.89031e-06
-2.94112e-06
-2.99373e-06
-3.04816e-06
-3.10441e-06
-3.16248e-06
-3.22234e-06
-3.284e-06
-3.34745e-06
-3.4127e-06
-3.47978e-06
-3.54868e-06
-3.61946e-06
-3.69215e-06
-3.7668e-06
-3.84349e-06
-3.92232e-06
-4.00347e-06
-4.08701e-06
-4.17588e-06
-4.2643e-06
-4.35109e-06
-4.43941e-06
-4.52952e-06
-4.62145e-06
-4.71526e-06
-4.81096e-06
-4.90861e-06
-5.00825e-06
-5.1099e-06
-5.21362e-06
-5.31944e-06
-5.42741e-06
-5.53757e-06
-5.64997e-06
-5.76465e-06
-5.88166e-06
-6.00104e-06
-6.12284e-06
-6.24712e-06
-6.37392e-06
-6.5033e-06
-6.63529e-06
-6.76997e-06
-6.90739e-06
-7.04759e-06
-7.19063e-06
-7.33659e-06
-7.4855e-06
-7.63743e-06
-7.79245e-06
-7.95062e-06
-8.112e-06
-8.27665e-06
)
;
    }
    inandouthalf41
    {
        type            cyclic;
        value           nonuniform List<scalar> 
50
(
7.40844e-06
7.40844e-06
7.40844e-06
7.40844e-06
7.40844e-06
7.40844e-06
7.40844e-06
7.40844e-06
7.40844e-06
7.40844e-06
7.40844e-06
7.40844e-06
7.40844e-06
7.40844e-06
7.40844e-06
7.40844e-06
7.40844e-06
7.40844e-06
7.40844e-06
7.40844e-06
7.40844e-06
7.40844e-06
7.40844e-06
7.40844e-06
7.40844e-06
7.40844e-06
7.40844e-06
7.40844e-06
7.40844e-06
7.40844e-06
7.40844e-06
7.40844e-06
7.40844e-06
7.40844e-06
7.40844e-06
7.40844e-06
7.40844e-06
7.40844e-06
7.40844e-06
7.40844e-06
7.40844e-06
7.40844e-06
7.40844e-06
7.40844e-06
7.40844e-06
7.40844e-06
7.40844e-06
7.40844e-06
7.40844e-06
7.40844e-06
)
;
    }
    inandouthalf42
    {
        type            cyclic;
        value           nonuniform List<scalar> 
50
(
-7.40844e-06
-7.40844e-06
-7.40844e-06
-7.40844e-06
-7.40844e-06
-7.40844e-06
-7.40844e-06
-7.40844e-06
-7.40844e-06
-7.40844e-06
-7.40844e-06
-7.40844e-06
-7.40844e-06
-7.40844e-06
-7.40844e-06
-7.40844e-06
-7.40844e-06
-7.40844e-06
-7.40844e-06
-7.40844e-06
-7.40844e-06
-7.40844e-06
-7.40844e-06
-7.40844e-06
-7.40844e-06
-7.40844e-06
-7.40844e-06
-7.40844e-06
-7.40844e-06
-7.40844e-06
-7.40844e-06
-7.40844e-06
-7.40844e-06
-7.40844e-06
-7.40844e-06
-7.40844e-06
-7.40844e-06
-7.40844e-06
-7.40844e-06
-7.40844e-06
-7.40844e-06
-7.40844e-06
-7.40844e-06
-7.40844e-06
-7.40844e-06
-7.40844e-06
-7.40844e-06
-7.40844e-06
-7.40844e-06
-7.40844e-06
)
;
    }
    top
    {
        type            symmetryPlane;
        value           uniform 0;
    }
    walls
    {
        type            calculated;
        value           uniform 0;
    }
    frontAndBackPlanes
    {
        type            empty;
        value           nonuniform 0();
    }
}


// ************************************************************************* //
