/*--------------------------------*- C++ -*----------------------------------*\
| =========                 |                                                 |
| \\      /  F ield         | OpenFOAM: The Open Source CFD Toolbox           |
|  \\    /   O peration     | Version:  2.4.x                                 |
|   \\  /    A nd           | Web:      www.OpenFOAM.org                      |
|    \\/     M anipulation  |                                                 |
\*---------------------------------------------------------------------------*/
FoamFile
{
    version     2.0;
    format      ascii;
    class       volScalarField;
    location    "11.05";
    object      ddt0(epsilon);
}
// * * * * * * * * * * * * * * * * * * * * * * * * * * * * * * * * * * * * * //

dimensions      [0 2 -4 0 0 0 0];

internalField   nonuniform List<scalar> 
360
(
0
0
0
0
0
0
0
0
0
0
0
0
0
0
0
0
0
0
0
0
0
0
0
0
0
0
0
0
0
0
0
0
0
0
0
0
0
0
0
0
0
0
0
0
0
0
0
0
0
0
0
0
0
0
0
0
0
0
0
0
0
0
0
0
0
0
0
0
0
0
0
0
0
0
0
0
0
0
0
0
0
0
0
0
0
0
0
0
0
0
0
0
0
0
0
0
0
0
0
0
0
0
0
0
0
0
0
0
0
0
0
0
0
0
0
0
0
0
0
0
0
0
0
0
0
0
0
0
-2.40731e-267
-2.92694e-70
-9.72546e-20
-2.1338e-19
-4.30467e-19
-8.43847e-19
-1.63061e-18
-3.12539e-18
-5.79575e-18
-9.09977e-18
2.27719e-18
3.34393e-16
6.74727e-15
1.45945e-13
3.61601e-12
1.02441e-10
3.41231e-09
1.36003e-07
6.53734e-06
0.000382059
0.02455
0.524783
0.32148
0.328952
0.344358
0.343981
0.319957
0.272801
0.211409
0.150415
0.100931
0.0658005
0.0425021
0.0273355
0.0173452
0.0105807
0.00584135
0.00240027
-0.000185954
-0.00219283
-0.00379548
-0.00510787
-0.00620591
-0.00714123
-0.00794968
-0.00865659
-0.00928026
-0.00983398
-0.0103277
-0.0107689
-0.0111633
-0.0115155
-0.0118289
-0.0121066
-0.0123509
-0.0125637
-0.012747
-0.0129021
-0.0130305
-0.0131335
-0.0132121
-0.0132674
-0.0133006
-0.0133125
-0.0133041
-0.0132765
-0.0132303
-0.0131666
-0.0130863
-0.01299
-0.0128788
-0.0127534
-0.0126146
-0.0124616
-0.0122932
-0.0121092
-0.0119097
-0.0116948
-0.0114646
-0.0112192
-0.0109589
-0.0106837
-0.0103941
-0.0100903
-0.00977269
-0.00944171
-0.00909783
-0.00874161
-0.00837368
-0.00799472
-0.00760549
-0.00720685
-0.00679971
-0.0063851
-0.00596411
-0.00553796
-0.00510795
-0.00467548
-0.00424209
-0.00380942
-0.00337923
-0.00295342
-0.00253401
-0.00212317
-0.00172321
-0.00133655
-0.000965785
-0.000613604
-0.000282816
2.369e-05
0.000302981
0.000552137
0.000768343
0.000949006
0.0010919
0.00119536
0.00125851
0.00128153
0.0012659
0.00121466
0.0011325
0.00102574
0.000902002
0.000769592
0.000636696
0.000510477
0.00039636
0.000297672
0.000215707
0.000150127
9.95046e-05
6.1852e-05
3.50177e-05
1.69346e-05
5.74407e-06
-1.6319e-07
-2.15088e-06
-1.3618e-06
1.25086e-06
4.89175e-06
8.89333e-06
1.26885e-05
1.57858e-05
1.77435e-05
1.81278e-05
1.64263e-05
1.22894e-05
3.71306e-06
1.86369e-07
2.52967e-09
2.89216e-11
3.10736e-13
3.14581e-15
3.0029e-17
2.67348e-19
0
0
0
0
0
0
0
0
0
0
0
0
0
0
0
0
0
0
0
0
0
0
0
0
0
0
0
0
0
0
0
0
0
0
0
0
0
0
0
0
0
0
0
0
0
0
0
0
0
0
0
0
0
0
0
0
0
0
0
0
0
0
0
0
0
0
0
0
0
0
0
0
0
0
0
0
0
)
;

boundaryField
{
    inandouthalf11
    {
        type            cyclic;
    }
    inandouthalf12
    {
        type            cyclic;
    }
    inandouthalf21
    {
        type            cyclic;
    }
    inandouthalf22
    {
        type            cyclic;
    }
    inandouthalf31
    {
        type            cyclic;
    }
    inandouthalf32
    {
        type            cyclic;
    }
    inandouthalf41
    {
        type            cyclic;
    }
    inandouthalf42
    {
        type            cyclic;
    }
    top
    {
        type            symmetryPlane;
    }
    walls
    {
        type            calculated;
        value           uniform 0;
    }
    frontAndBackPlanes
    {
        type            empty;
    }
}


// ************************************************************************* //
