/*--------------------------------*- C++ -*----------------------------------*\
| =========                 |                                                 |
| \\      /  F ield         | OpenFOAM: The Open Source CFD Toolbox           |
|  \\    /   O peration     | Version:  2.4.x                                 |
|   \\  /    A nd           | Web:      www.OpenFOAM.org                      |
|    \\/     M anipulation  |                                                 |
\*---------------------------------------------------------------------------*/
FoamFile
{
    version     2.0;
    format      ascii;
    class       volScalarField;
    location    "11.05";
    object      ddt0(alpha);
}
// * * * * * * * * * * * * * * * * * * * * * * * * * * * * * * * * * * * * * //

dimensions      [0 0 -1 0 0 0 0];

internalField   nonuniform List<scalar> 
360
(
5.68089e-06
8.50076e-06
7.96758e-06
7.73973e-06
7.96267e-06
8.09541e-06
8.06808e-06
7.97883e-06
7.87104e-06
7.75338e-06
7.621e-06
7.47068e-06
7.30752e-06
7.13536e-06
6.96001e-06
6.78594e-06
6.61584e-06
6.45151e-06
6.29484e-06
6.14881e-06
6.01184e-06
5.88759e-06
5.7751e-06
5.67463e-06
5.58624e-06
5.5094e-06
5.44337e-06
5.38911e-06
5.34465e-06
5.30948e-06
5.28303e-06
5.26604e-06
5.25429e-06
5.25247e-06
5.2545e-06
5.26335e-06
5.27618e-06
5.29436e-06
5.3175e-06
5.34083e-06
5.37047e-06
5.4012e-06
5.43227e-06
5.46808e-06
5.50331e-06
5.54019e-06
5.5781e-06
5.61341e-06
5.65103e-06
5.69069e-06
5.72616e-06
5.76342e-06
5.79866e-06
5.83465e-06
5.86701e-06
5.90206e-06
5.93194e-06
5.96319e-06
5.99138e-06
6.01592e-06
6.04364e-06
6.06615e-06
6.09026e-06
6.11055e-06
6.12962e-06
6.14569e-06
6.16094e-06
6.17389e-06
6.18393e-06
6.19029e-06
6.19802e-06
6.20453e-06
6.20494e-06
6.20712e-06
6.20601e-06
6.20478e-06
6.19838e-06
6.18977e-06
6.17909e-06
6.16645e-06
6.15068e-06
6.13376e-06
6.1155e-06
6.09549e-06
6.07393e-06
6.05008e-06
6.02413e-06
5.99509e-06
5.96313e-06
5.92866e-06
5.89179e-06
5.85277e-06
5.81221e-06
5.77013e-06
5.7265e-06
5.68123e-06
5.63423e-06
5.5855e-06
5.53522e-06
5.48384e-06
5.43193e-06
5.38023e-06
5.32955e-06
5.28069e-06
5.23437e-06
5.19126e-06
5.15183e-06
5.11631e-06
5.08463e-06
5.05624e-06
5.03009e-06
5.0046e-06
4.97766e-06
4.94685e-06
4.90968e-06
4.86405e-06
4.80884e-06
4.74457e-06
4.67402e-06
4.60283e-06
4.53976e-06
4.49691e-06
4.48968e-06
4.53676e-06
4.66041e-06
4.88666e-06
5.24519e-06
5.76713e-06
6.47819e-06
7.38345e-06
8.44243e-06
9.53966e-06
1.04632e-05
1.09042e-05
1.04985e-05
8.98169e-06
6.49198e-06
3.7077e-06
1.46154e-06
1.71011e-07
-3.37882e-07
-6.33082e-06
4.46928e-06
1.34027e-07
1.34755e-06
1.89493e-06
1.1506e-05
-0.000144014
-0.110468
-0.440208
-0.0313148
0.0653508
0.107815
0.119735
0.108917
0.0856223
0.0595819
0.0369708
0.0198106
0.00980217
0.00457987
0.00190738
0.0004569
-0.000365893
-0.000844844
-0.00112663
-0.00129018
-0.00138023
-0.00142322
-0.00143545
-0.00142724
-0.00140535
-0.0013743
-0.00133716
-0.00129608
-0.00125257
-0.00120768
-0.0011622
-0.00111667
-0.0010715
-0.00102697
-0.000983289
-0.00094061
-0.00089903
-0.00085862
-0.000819421
-0.000781457
-0.000744735
-0.000709249
-0.000674987
-0.000641925
-0.000610036
-0.000579286
-0.000549638
-0.000521051
-0.000493486
-0.000466901
-0.000441259
-0.000416529
-0.000392683
-0.000369705
-0.000347363
-0.000325477
-0.000304102
-0.000283308
-0.000263172
-0.00024377
-0.000225178
-0.00020746
-0.000190664
-0.000174814
-0.000159909
-0.000145922
-0.0001328
-0.000120476
-0.000108876
-9.79314e-05
-8.75954e-05
-7.78488e-05
-6.87048e-05
-6.01996e-05
-5.23782e-05
-4.52767e-05
-3.89102e-05
-3.32694e-05
-2.8321e-05
-2.4008e-05
-2.02599e-05
-1.70495e-05
-1.42078e-05
-1.18785e-05
-9.71099e-06
-8.08924e-06
-6.35996e-06
-5.61918e-06
-5.48268e-06
-4.32173e-06
-3.43561e-06
-2.49292e-06
-1.7383e-06
-1.1632e-06
-7.36906e-07
-4.33606e-07
-2.27345e-07
-9.64389e-08
-1.8613e-08
2.02542e-08
3.74063e-08
3.67532e-08
3.68043e-08
1.50768e-08
3.41692e-08
3.30676e-18
4.58502e-29
4.47038e-40
3.71793e-51
-3.33566e-62
-1.69272e-64
-5.01916e-65
-2.5266e-65
-1.32863e-65
-6.49924e-66
-3.2413e-66
-1.59186e-66
-7.69311e-67
-3.65684e-67
-1.70883e-67
-7.84608e-68
-3.53776e-68
-1.56557e-68
-6.7955e-69
-2.89131e-69
-1.20503e-69
-4.91608e-70
-1.96167e-70
-7.65027e-71
-2.91291e-71
-1.08185e-71
-3.91638e-72
-1.38055e-72
-4.73365e-73
-1.57695e-73
-5.0977e-74
-1.59694e-74
-4.84099e-75
-1.41787e-75
-4.00554e-76
-1.08945e-76
-2.84715e-77
-7.13354e-78
-1.70938e-78
-3.90701e-79
-8.49217e-80
-1.74946e-80
-3.40292e-81
-6.22289e-82
-1.06458e-82
-1.69401e-83
-2.49053e-84
-3.35605e-85
-4.10518e-86
-4.50424e-87
-4.36665e-88
-3.66746e-89
-2.598e-90
-1.49349e-91
-6.55792e-93
-1.97239e-94
-3.13898e-96
-3.69419e-99
-7.83974e-106
-4.80666e-108
-1.45786e-110
-6.15989e-121
-1.33182e-131
-2.16541e-142
-2.57029e-153
-2.6631e-164
-2.14022e-175
-1.47598e-186
-2.48057e-197
-1.029e-207
-5.63903e-216
-2.89556e-226
-1.93922e-234
-1.17888e-244
-6.67727e-253
-4.98167e-263
-2.30298e-271
-3.20243e-281
-8.17614e-290
-2.12904e-299
-3.02912e-308
5.83442e-320
0
0
0
0
0
0
0
0
0
0
0
0
0
0
0
0
0
0
0
0
0
0
0
0
0
0
)
;

boundaryField
{
    inandouthalf11
    {
        type            cyclic;
    }
    inandouthalf12
    {
        type            cyclic;
    }
    inandouthalf21
    {
        type            cyclic;
    }
    inandouthalf22
    {
        type            cyclic;
    }
    inandouthalf31
    {
        type            cyclic;
    }
    inandouthalf32
    {
        type            cyclic;
    }
    inandouthalf41
    {
        type            cyclic;
    }
    inandouthalf42
    {
        type            cyclic;
    }
    top
    {
        type            symmetryPlane;
    }
    walls
    {
        type            calculated;
        value           uniform 5.68089e-06;
    }
    frontAndBackPlanes
    {
        type            empty;
    }
}


// ************************************************************************* //
