/*--------------------------------*- C++ -*----------------------------------*\
| =========                 |                                                 |
| \\      /  F ield         | OpenFOAM: The Open Source CFD Toolbox           |
|  \\    /   O peration     | Version:  2.4.x                                 |
|   \\  /    A nd           | Web:      www.OpenFOAM.org                      |
|    \\/     M anipulation  |                                                 |
\*---------------------------------------------------------------------------*/
FoamFile
{
    version     2.0;
    format      ascii;
    class       volVectorField;
    location    "11.05";
    object      Ub;
}
// * * * * * * * * * * * * * * * * * * * * * * * * * * * * * * * * * * * * * //

dimensions      [0 1 -1 0 0 0 0];

internalField   nonuniform List<vector> 
360
(
(-0.000195959 3.5892e-09 0)
(-0.000194869 1.26978e-08 0)
(-0.000194724 2.33833e-08 0)
(-0.000194874 3.35014e-08 0)
(-0.000194946 4.36036e-08 0)
(-0.00019497 5.39344e-08 0)
(-0.000195001 6.43353e-08 0)
(-0.00019504 7.46606e-08 0)
(-0.000195079 8.48574e-08 0)
(-0.000195119 9.49081e-08 0)
(-0.000195159 1.04797e-07 0)
(-0.0001952 1.14503e-07 0)
(-0.00019524 1.24006e-07 0)
(-0.000195281 1.33292e-07 0)
(-0.000195322 1.42353e-07 0)
(-0.000195363 1.51188e-07 0)
(-0.000195405 1.59801e-07 0)
(-0.000195447 1.68198e-07 0)
(-0.000195489 1.76387e-07 0)
(-0.000195532 1.8438e-07 0)
(-0.000195575 1.92189e-07 0)
(-0.000195618 1.9983e-07 0)
(-0.000195662 2.07317e-07 0)
(-0.000195707 2.14666e-07 0)
(-0.000195751 2.21892e-07 0)
(-0.000195796 2.29011e-07 0)
(-0.000195842 2.36036e-07 0)
(-0.000195888 2.42984e-07 0)
(-0.000195934 2.49866e-07 0)
(-0.000195981 2.56696e-07 0)
(-0.000196029 2.63485e-07 0)
(-0.000196077 2.70245e-07 0)
(-0.000196125 2.76985e-07 0)
(-0.000196174 2.83715e-07 0)
(-0.000196223 2.90444e-07 0)
(-0.000196274 2.97179e-07 0)
(-0.000196324 3.03926e-07 0)
(-0.000196375 3.10692e-07 0)
(-0.000196427 3.17483e-07 0)
(-0.000196479 3.24302e-07 0)
(-0.000196532 3.31154e-07 0)
(-0.000196586 3.38043e-07 0)
(-0.000196639 3.4497e-07 0)
(-0.000196694 3.5194e-07 0)
(-0.000196749 3.58952e-07 0)
(-0.000196805 3.6601e-07 0)
(-0.000196862 3.73114e-07 0)
(-0.000196919 3.80263e-07 0)
(-0.000196977 3.87458e-07 0)
(-0.000197036 3.94701e-07 0)
(-0.000197095 4.01989e-07 0)
(-0.000197155 4.09323e-07 0)
(-0.000197216 4.16702e-07 0)
(-0.000197278 4.24124e-07 0)
(-0.00019734 4.31588e-07 0)
(-0.000197403 4.39095e-07 0)
(-0.000197467 4.46639e-07 0)
(-0.000197532 4.54222e-07 0)
(-0.000197597 4.61841e-07 0)
(-0.000197663 4.6949e-07 0)
(-0.000197731 4.77173e-07 0)
(-0.000197799 4.84884e-07 0)
(-0.000197868 4.92624e-07 0)
(-0.000197938 5.00389e-07 0)
(-0.000198009 5.08177e-07 0)
(-0.00019808 5.15985e-07 0)
(-0.000198153 5.23812e-07 0)
(-0.000198227 5.31653e-07 0)
(-0.000198302 5.39507e-07 0)
(-0.000198377 5.47368e-07 0)
(-0.000198454 5.55237e-07 0)
(-0.000198533 5.63111e-07 0)
(-0.000198611 5.70986e-07 0)
(-0.000198692 5.78862e-07 0)
(-0.000198773 5.86734e-07 0)
(-0.000198856 5.94603e-07 0)
(-0.00019894 6.02462e-07 0)
(-0.000199025 6.1031e-07 0)
(-0.000199111 6.18141e-07 0)
(-0.000199199 6.25955e-07 0)
(-0.000199288 6.33747e-07 0)
(-0.000199379 6.41515e-07 0)
(-0.000199471 6.49257e-07 0)
(-0.000199565 6.5697e-07 0)
(-0.00019966 6.64653e-07 0)
(-0.000199757 6.72304e-07 0)
(-0.000199855 6.79919e-07 0)
(-0.000199955 6.87494e-07 0)
(-0.000200057 6.95027e-07 0)
(-0.000200161 7.02513e-07 0)
(-0.000200266 7.09949e-07 0)
(-0.000200374 7.17333e-07 0)
(-0.000200483 7.24661e-07 0)
(-0.000200595 7.31931e-07 0)
(-0.000200708 7.39142e-07 0)
(-0.000200824 7.46292e-07 0)
(-0.000200943 7.53377e-07 0)
(-0.000201063 7.60397e-07 0)
(-0.000201186 7.67348e-07 0)
(-0.000201312 7.74228e-07 0)
(-0.00020144 7.81037e-07 0)
(-0.000201571 7.87775e-07 0)
(-0.000201705 7.94441e-07 0)
(-0.000201842 8.01037e-07 0)
(-0.000201982 8.07567e-07 0)
(-0.000202125 8.14032e-07 0)
(-0.000202272 8.20439e-07 0)
(-0.000202422 8.26791e-07 0)
(-0.000202575 8.33092e-07 0)
(-0.000202733 8.39348e-07 0)
(-0.000202895 8.45562e-07 0)
(-0.00020306 8.51734e-07 0)
(-0.00020323 8.57865e-07 0)
(-0.000203405 8.6395e-07 0)
(-0.000203584 8.69982e-07 0)
(-0.000203768 8.75953e-07 0)
(-0.000203958 8.8185e-07 0)
(-0.000204153 8.8766e-07 0)
(-0.000204353 8.93374e-07 0)
(-0.00020456 8.98987e-07 0)
(-0.000204773 9.04502e-07 0)
(-0.000204993 9.09938e-07 0)
(-0.00020522 9.15329e-07 0)
(-0.000205455 9.20732e-07 0)
(-0.000205698 9.26228e-07 0)
(-0.00020595 9.3193e-07 0)
(-0.000206211 9.37985e-07 0)
(-0.000206482 9.44578e-07 0)
(-0.000206764 9.51931e-07 0)
(-0.000207058 9.60284e-07 0)
(-0.000207364 9.69853e-07 0)
(-0.000207683 9.80756e-07 0)
(-0.000208018 9.929e-07 0)
(-0.000208371 1.00587e-06 0)
(-0.000208747 1.01881e-06 0)
(-0.000209147 1.03051e-06 0)
(-0.000209569 1.03962e-06 0)
(-0.000210019 1.04534e-06 0)
(-0.000210518 1.04781e-06 0)
(-0.000211088 1.04803e-06 0)
(-0.000211704 1.04692e-06 0)
(-0.000212431 1.03759e-06 0)
(-0.000217498 1.04452e-06 0)
(-0.000216742 1.03448e-06 0)
(-0.000217673 1.03623e-06 0)
(-0.000219219 1.03677e-06 0)
(-0.000220696 1.04329e-06 0)
(-0.000222739 1.20581e-06 0)
(-0.000542304 -1.2854e-07 0)
(-0.0854524 -0.000171824 0)
(-0.218905 -0.000448573 0)
(-0.30994 -0.000296213 0)
(-0.379311 -0.000259076 0)
(-0.433677 -0.000187073 0)
(-0.476504 -0.000120234 0)
(-0.509772 -6.72583e-05 0)
(-0.534829 -2.96549e-05 0)
(-0.552964 -5.62169e-06 0)
(-0.565627 7.88481e-06 0)
(-0.574273 1.46115e-05 0)
(-0.580124 1.77913e-05 0)
(-0.584069 1.91871e-05 0)
(-0.586706 1.96623e-05 0)
(-0.588424 1.96256e-05 0)
(-0.589478 1.92899e-05 0)
(-0.590036 1.87771e-05 0)
(-0.59021 1.81604e-05 0)
(-0.59008 1.74846e-05 0)
(-0.589701 1.67782e-05 0)
(-0.589116 1.60598e-05 0)
(-0.588354 1.53415e-05 0)
(-0.587439 1.46314e-05 0)
(-0.586391 1.39352e-05 0)
(-0.585224 1.32563e-05 0)
(-0.58395 1.25973e-05 0)
(-0.582581 1.19597e-05 0)
(-0.581125 1.13443e-05 0)
(-0.57959 1.07516e-05 0)
(-0.577982 1.01818e-05 0)
(-0.576308 9.63469e-06 0)
(-0.574572 9.11007e-06 0)
(-0.57278 8.60755e-06 0)
(-0.570936 8.12664e-06 0)
(-0.569044 7.66683e-06 0)
(-0.567107 7.22753e-06 0)
(-0.56513 6.80814e-06 0)
(-0.563114 6.40806e-06 0)
(-0.561064 6.02666e-06 0)
(-0.558982 5.66331e-06 0)
(-0.55687 5.3174e-06 0)
(-0.554731 4.98833e-06 0)
(-0.552568 4.67549e-06 0)
(-0.550382 4.37831e-06 0)
(-0.548175 4.09622e-06 0)
(-0.54595 3.82869e-06 0)
(-0.543708 3.5752e-06 0)
(-0.541451 3.33524e-06 0)
(-0.539181 3.10833e-06 0)
(-0.536899 2.89401e-06 0)
(-0.534606 2.69183e-06 0)
(-0.532305 2.50135e-06 0)
(-0.529972 2.32034e-06 0)
(-0.527585 2.14704e-06 0)
(-0.525142 1.98162e-06 0)
(-0.522645 1.82415e-06 0)
(-0.520091 1.67469e-06 0)
(-0.517481 1.53326e-06 0)
(-0.514815 1.39978e-06 0)
(-0.512092 1.27416e-06 0)
(-0.509312 1.15622e-06 0)
(-0.506475 1.04578e-06 0)
(-0.503581 9.42578e-07 0)
(-0.500631 8.46381e-07 0)
(-0.497625 7.56935e-07 0)
(-0.494562 6.74006e-07 0)
(-0.491444 5.97387e-07 0)
(-0.488272 5.26899e-07 0)
(-0.485046 4.62387e-07 0)
(-0.481767 4.037e-07 0)
(-0.478436 3.50675e-07 0)
(-0.475055 3.03108e-07 0)
(-0.471626 2.60744e-07 0)
(-0.46815 2.23271e-07 0)
(-0.46463 1.90329e-07 0)
(-0.461067 1.61529e-07 0)
(-0.457465 1.36466e-07 0)
(-0.453827 1.14749e-07 0)
(-0.450156 9.60088e-08 0)
(-0.446456 7.99008e-08 0)
(-0.442732 6.61315e-08 0)
(-0.438988 5.44135e-08 0)
(-0.43523 4.45166e-08 0)
(-0.431465 3.62239e-08 0)
(-0.427698 2.93867e-08 0)
(-0.423939 2.35836e-08 0)
(-0.420195 1.8111e-08 0)
(-0.416477 1.30802e-08 0)
(-0.412795 8.96479e-09 0)
(-0.409161 5.83403e-09 0)
(-0.405588 3.58235e-09 0)
(-0.402093 2.02419e-09 0)
(-0.39869 9.91899e-10 0)
(-0.395397 3.50092e-10 0)
(-0.392234 -1.28244e-11 0)
(-0.389221 -1.87708e-10 0)
(-0.386381 -2.44212e-10 0)
(-0.383734 -2.33451e-10 0)
(-0.381304 -1.9066e-10 0)
(-0.379111 -1.38459e-10 0)
(-0.377174 -8.83563e-11 0)
(-0.375508 -5.88391e-11 0)
(-0.374121 -5.02741e-12 0)
(-0.373017 2.37847e-11 0)
(-0.372191 -1.30135e-12 0)
(-0.371632 2.82661e-13 0)
(-0.371325 1.62962e-12 0)
(-0.371248 1.67089e-12 0)
(-0.37138 1.46807e-12 0)
(-0.371698 1.35066e-12 0)
(-0.372178 1.26748e-12 0)
(-0.372801 1.18364e-12 0)
(-0.373547 1.09908e-12 0)
(-0.374396 1.01809e-12 0)
(-0.375332 9.45476e-13 0)
(-0.376337 8.87451e-13 0)
(-0.377395 8.14187e-13 0)
(-0.37849 6.29795e-13 0)
(-0.379606 4.92974e-13 0)
(-0.380727 4.87659e-12 0)
(-0.381835 -1.40795e-11 0)
(-0.382912 3.47146e-11 0)
(-0.383938 -6.30856e-11 0)
(-0.384892 1.04622e-10 0)
(-0.385744 -1.54299e-10 0)
(-0.386458 2.1513e-10 0)
(-0.386919 -2.80531e-10 0)
(-0.387017 3.51975e-10 0)
(-0.387021 -4.23758e-10 0)
(-0.387021 4.98914e-10 0)
(-0.387021 -5.73849e-10 0)
(-0.387021 6.51975e-10 0)
(-0.387021 -7.30165e-10 0)
(-0.387021 8.11504e-10 0)
(-0.387021 -8.93159e-10 0)
(-0.387021 9.7791e-10 0)
(-0.387021 -1.06322e-09 0)
(-0.387021 1.15154e-09 0)
(-0.387021 -1.24063e-09 0)
(-0.387021 1.33266e-09 0)
(-0.387021 -1.42568e-09 0)
(-0.387021 1.52151e-09 0)
(-0.387021 -1.61854e-09 0)
(-0.387021 1.71822e-09 0)
(-0.387021 -1.81933e-09 0)
(-0.387021 1.92291e-09 0)
(-0.387021 -2.02811e-09 0)
(-0.387021 2.13562e-09 0)
(-0.387021 -2.24492e-09 0)
(-0.387021 2.35634e-09 0)
(-0.387021 -2.46964e-09 0)
(-0.387021 2.585e-09 0)
(-0.387021 -2.70221e-09 0)
(-0.387021 2.82142e-09 0)
(-0.387021 -2.94246e-09 0)
(-0.387021 3.06538e-09 0)
(-0.387021 -3.1901e-09 0)
(-0.387021 3.31659e-09 0)
(-0.387021 -3.4448e-09 0)
(-0.387021 3.57463e-09 0)
(-0.387021 -3.70607e-09 0)
(-0.387021 3.3715e-09 0)
(-0.387021 -3.428e-09 0)
(-0.387021 3.48373e-09 0)
(-0.387021 -3.5389e-09 0)
(-0.387021 3.59326e-09 0)
(-0.387021 -3.64709e-09 0)
(-0.387021 3.70007e-09 0)
(-0.387021 -3.75253e-09 0)
(-0.387021 3.80411e-09 0)
(-0.387021 -3.8552e-09 0)
(-0.387021 3.90535e-09 0)
(-0.387021 -3.95505e-09 0)
(-0.387021 4.00375e-09 0)
(-0.387021 -4.05203e-09 0)
(-0.387021 4.09925e-09 0)
(-0.387021 -4.1461e-09 0)
(-0.387021 4.19181e-09 0)
(-0.387021 -4.23725e-09 0)
(-0.387021 4.28127e-09 0)
(-0.387021 -4.32546e-09 0)
(-0.387021 4.36758e-09 0)
(-0.387021 -4.41066e-09 0)
(-0.387021 4.45073e-09 0)
(-0.387021 -4.49268e-09 0)
(-0.387021 4.53069e-09 0)
(-0.387021 -4.57139e-09 0)
(-0.387021 4.60734e-09 0)
(-0.387021 -4.64673e-09 0)
(-0.387021 4.68054e-09 0)
(-0.387021 -4.7185e-09 0)
(-0.387021 4.75025e-09 0)
(-0.387021 -4.78653e-09 0)
(-0.387021 4.81629e-09 0)
(-0.387021 -4.85059e-09 0)
(-0.387021 4.8784e-09 0)
(-0.387021 -4.91071e-09 0)
(-0.387021 4.93624e-09 0)
(-0.387021 -4.96638e-09 0)
(-0.387021 4.98981e-09 0)
(-0.387021 -5.0172e-09 0)
(-0.387021 5.0387e-09 0)
(-0.387021 -5.06258e-09 0)
(-0.387021 5.08244e-09 0)
(-0.387021 -5.10201e-09 0)
(-0.387021 5.12017e-09 0)
(-0.387021 -5.13459e-09 0)
(-0.387021 5.15077e-09 0)
(-0.387021 -5.15846e-09 0)
(-0.387021 5.17093e-09 0)
(-0.387021 -5.17154e-09 0)
)
;

boundaryField
{
    inandouthalf11
    {
        type            cyclic;
    }
    inandouthalf12
    {
        type            cyclic;
    }
    inandouthalf21
    {
        type            cyclic;
    }
    inandouthalf22
    {
        type            cyclic;
    }
    inandouthalf31
    {
        type            cyclic;
    }
    inandouthalf32
    {
        type            cyclic;
    }
    inandouthalf41
    {
        type            cyclic;
    }
    inandouthalf42
    {
        type            cyclic;
    }
    top
    {
        type            symmetryPlane;
    }
    walls
    {
        type            fixedValue;
        value           uniform (0 0 0);
    }
    frontAndBackPlanes
    {
        type            empty;
    }
}


// ************************************************************************* //
