/*--------------------------------*- C++ -*----------------------------------*\
| =========                 |                                                 |
| \\      /  F ield         | OpenFOAM: The Open Source CFD Toolbox           |
|  \\    /   O peration     | Version:  2.4.x                                 |
|   \\  /    A nd           | Web:      www.OpenFOAM.org                      |
|    \\/     M anipulation  |                                                 |
\*---------------------------------------------------------------------------*/
FoamFile
{
    version     2.0;
    format      ascii;
    class       surfaceScalarField;
    location    "12.05";
    object      ddt0(phia);
}
// * * * * * * * * * * * * * * * * * * * * * * * * * * * * * * * * * * * * * //

dimensions      [0 3 -2 0 0 0 0];

internalField   nonuniform List<scalar> 
359
(
7.00409e-15
1.75635e-14
2.77504e-14
3.80216e-14
4.89803e-14
6.05361e-14
7.24969e-14
8.47837e-14
9.73614e-14
1.10194e-13
1.23226e-13
1.36379e-13
1.49575e-13
1.62729e-13
1.75759e-13
1.88588e-13
2.0114e-13
2.1334e-13
2.25123e-13
2.36432e-13
2.47213e-13
2.5743e-13
2.67049e-13
2.76049e-13
2.84417e-13
2.92151e-13
2.99255e-13
3.05742e-13
3.11633e-13
3.16952e-13
3.2173e-13
3.26005e-13
3.29811e-13
3.33191e-13
3.36187e-13
3.38841e-13
3.41194e-13
3.43291e-13
3.45172e-13
3.46875e-13
3.48438e-13
3.49898e-13
3.51286e-13
3.52634e-13
3.53971e-13
3.55322e-13
3.5671e-13
3.58156e-13
3.5968e-13
3.61298e-13
3.63024e-13
3.64871e-13
3.66849e-13
3.68969e-13
3.71236e-13
3.73658e-13
3.76237e-13
3.78979e-13
3.81885e-13
3.84955e-13
3.88192e-13
3.91594e-13
3.95161e-13
3.9889e-13
4.02778e-13
4.06823e-13
4.11021e-13
4.15369e-13
4.1986e-13
4.2449e-13
4.29255e-13
4.34152e-13
4.39171e-13
4.4431e-13
4.49562e-13
4.54923e-13
4.60384e-13
4.6594e-13
4.71585e-13
4.77311e-13
4.83112e-13
4.88983e-13
4.94919e-13
5.00912e-13
5.06959e-13
5.13052e-13
5.19185e-13
5.25353e-13
5.31548e-13
5.37763e-13
5.43995e-13
5.50235e-13
5.56481e-13
5.62727e-13
5.68968e-13
5.75201e-13
5.81419e-13
5.8762e-13
5.93798e-13
5.99949e-13
6.0607e-13
6.12157e-13
6.18207e-13
6.2422e-13
6.30192e-13
6.36124e-13
6.42014e-13
6.47864e-13
6.53674e-13
6.59444e-13
6.65176e-13
6.7087e-13
6.76527e-13
6.82146e-13
6.87725e-13
6.93262e-13
6.9875e-13
7.04183e-13
7.09553e-13
7.14851e-13
7.20068e-13
7.25196e-13
7.30232e-13
7.35178e-13
7.40041e-13
7.44839e-13
7.49601e-13
7.54364e-13
7.59173e-13
7.64073e-13
7.69096e-13
7.74246e-13
7.79483e-13
7.84689e-13
7.89637e-13
7.93984e-13
7.97363e-13
7.99587e-13
8.00783e-13
8.01298e-13
8.01515e-13
8.01479e-13
8.02117e-13
8.02301e-13
8.02442e-13
8.02198e-13
-7.00649e-11
-3.48279e-09
-5.81969e-09
-7.1338e-09
-7.96019e-09
-8.62819e-09
-9.25307e-09
-1.00309e-08
-1.09847e-08
-1.18932e-08
-1.29527e-08
-1.43339e-08
-1.58843e-08
-1.76109e-08
-1.9479e-08
-2.1445e-08
-2.34568e-08
-2.54548e-08
-2.73575e-08
-2.90808e-08
-3.05174e-08
-3.15527e-08
-3.20467e-08
-3.18329e-08
-3.06742e-08
-2.82036e-08
-2.39056e-08
-1.73305e-08
-8.58443e-09
1.34744e-09
1.09971e-08
1.92216e-08
2.55869e-08
3.01887e-08
3.33459e-08
3.54113e-08
3.66913e-08
3.74252e-08
3.77902e-08
3.79139e-08
3.78866e-08
3.77712e-08
3.7611e-08
3.74353e-08
3.72633e-08
3.71073e-08
3.69746e-08
3.68689e-08
3.67916e-08
3.67427e-08
3.67209e-08
3.67246e-08
3.67515e-08
3.67994e-08
3.68659e-08
3.69507e-08
3.70528e-08
3.7171e-08
3.73041e-08
3.74509e-08
3.76102e-08
3.77806e-08
3.79605e-08
3.81481e-08
3.83413e-08
3.85373e-08
3.8733e-08
3.89246e-08
3.91074e-08
3.92759e-08
3.94239e-08
3.95437e-08
3.96267e-08
3.96625e-08
3.96388e-08
3.95451e-08
3.93543e-08
3.90563e-08
3.86368e-08
3.8055e-08
3.72827e-08
3.62963e-08
3.50985e-08
3.37362e-08
3.22679e-08
3.07445e-08
2.9297e-08
2.8192e-08
2.75266e-08
2.66481e-08
2.29972e-08
1.96461e-08
1.7079e-08
1.45571e-08
1.20691e-08
9.60937e-09
7.1793e-09
4.78304e-09
2.42935e-09
1.00915e-10
-2.27375e-09
-4.4203e-09
-8.0317e-09
-9.75219e-09
-2.37899e-08
-8.21099e-08
-1.2893e-07
-2.16814e-08
-4.02623e-10
1.37985e-10
6.88479e-11
3.82044e-11
4.69188e-12
-2.76248e-11
-5.72633e-11
-8.24472e-11
-1.01672e-10
-1.15944e-10
-1.15755e-10
-1.10071e-10
-1.04334e-10
-9.00761e-11
-7.46001e-11
-5.90137e-11
-4.48905e-11
-3.32397e-11
-2.46689e-11
-1.95212e-11
-1.81281e-11
-2.16431e-11
-2.70249e-11
-7.83802e-11
-5.83137e-11
-2.11259e-11
-2.06581e-11
-2.07892e-11
-2.07919e-11
-2.07918e-11
-2.07919e-11
-2.07918e-11
-2.07919e-11
-2.07918e-11
-2.0792e-11
-2.07919e-11
-2.0792e-11
-2.07919e-11
-2.0792e-11
-2.07919e-11
-2.0792e-11
-2.07919e-11
-2.0792e-11
-2.07919e-11
-2.0792e-11
-2.07918e-11
-2.07919e-11
-2.07918e-11
-2.07919e-11
-2.07918e-11
-2.07919e-11
-2.07918e-11
-2.07919e-11
-2.07918e-11
-2.07918e-11
-2.07917e-11
-2.07918e-11
-2.07917e-11
-2.07917e-11
-2.07916e-11
-2.07917e-11
-2.07916e-11
-2.07916e-11
-2.07916e-11
-2.07916e-11
-2.07916e-11
-2.07915e-11
-2.07915e-11
-2.07915e-11
-2.07915e-11
-2.07914e-11
-2.07915e-11
-2.07915e-11
-2.07916e-11
-2.07903e-11
-2.07895e-11
-2.07885e-11
-2.07886e-11
-2.07874e-11
-2.07877e-11
-2.07879e-11
-2.07898e-11
-2.07883e-11
-2.0789e-11
-2.07895e-11
-2.07925e-11
-2.07933e-11
-2.07965e-11
-2.07995e-11
-2.08041e-11
-2.08072e-11
-2.08114e-11
-2.08155e-11
-2.082e-11
-2.08253e-11
-2.0829e-11
-2.08335e-11
-2.08355e-11
-2.08457e-11
-2.08495e-11
-2.08551e-11
-2.08556e-11
-2.08709e-11
-2.11542e-11
-3.3199e-11
)
;

boundaryField
{
    inandouthalf11
    {
        type            cyclic;
        value           nonuniform List<scalar> 
100
(
-6.86792e-39
-1.10907e-15
-2.34239e-15
-3.4943e-15
-4.71188e-15
-6.02213e-15
-7.39335e-15
-8.80931e-15
-1.02675e-14
-1.17662e-14
-1.33017e-14
-1.48679e-14
-1.64572e-14
-1.80616e-14
-1.96724e-14
-2.12814e-14
-2.28804e-14
-2.44611e-14
-2.60156e-14
-2.75367e-14
-2.90178e-14
-3.04529e-14
-3.18371e-14
-3.31666e-14
-3.44381e-14
-3.56495e-14
-3.67994e-14
-3.78875e-14
-3.89143e-14
-3.98807e-14
-4.07887e-14
-4.16406e-14
-4.24392e-14
-4.31878e-14
-4.38899e-14
-4.45492e-14
-4.51695e-14
-4.5755e-14
-4.63095e-14
-4.68371e-14
-4.73414e-14
-4.78263e-14
-4.82954e-14
-4.87519e-14
-4.91992e-14
-4.96403e-14
-5.00778e-14
-5.05144e-14
-5.09523e-14
-5.13938e-14
-5.18408e-14
-5.2295e-14
-5.2758e-14
-5.32311e-14
-5.37156e-14
-5.42124e-14
-5.47226e-14
-5.52467e-14
-5.57855e-14
-5.63394e-14
-5.69087e-14
-5.74939e-14
-5.80952e-14
-5.87126e-14
-5.93463e-14
-5.9996e-14
-6.06618e-14
-6.13435e-14
-6.20407e-14
-6.27531e-14
-6.34805e-14
-6.42227e-14
-6.49791e-14
-6.57493e-14
-6.65329e-14
-6.73297e-14
-6.81389e-14
-6.896e-14
-6.97923e-14
-7.06352e-14
-7.14882e-14
-7.23507e-14
-7.32221e-14
-7.41021e-14
-7.499e-14
-7.58852e-14
-7.67873e-14
-7.76954e-14
-7.8609e-14
-7.95273e-14
-8.04496e-14
-8.13755e-14
-8.23043e-14
-8.32357e-14
-8.41691e-14
-8.51041e-14
-8.60403e-14
-8.69772e-14
-8.79143e-14
-8.88512e-14
)
;
    }
    inandouthalf12
    {
        type            cyclic;
        value           nonuniform List<scalar> 
100
(
6.86792e-39
1.10907e-15
2.34239e-15
3.4943e-15
4.71188e-15
6.02213e-15
7.39335e-15
8.80931e-15
1.02675e-14
1.17662e-14
1.33017e-14
1.48679e-14
1.64572e-14
1.80616e-14
1.96724e-14
2.12814e-14
2.28804e-14
2.44611e-14
2.60156e-14
2.75367e-14
2.90178e-14
3.04529e-14
3.18371e-14
3.31666e-14
3.44381e-14
3.56495e-14
3.67994e-14
3.78875e-14
3.89143e-14
3.98807e-14
4.07887e-14
4.16406e-14
4.24392e-14
4.31878e-14
4.38899e-14
4.45492e-14
4.51695e-14
4.5755e-14
4.63095e-14
4.68371e-14
4.73414e-14
4.78263e-14
4.82954e-14
4.87519e-14
4.91992e-14
4.96403e-14
5.00778e-14
5.05144e-14
5.09523e-14
5.13938e-14
5.18408e-14
5.2295e-14
5.2758e-14
5.32311e-14
5.37156e-14
5.42124e-14
5.47226e-14
5.52467e-14
5.57855e-14
5.63394e-14
5.69087e-14
5.74939e-14
5.80952e-14
5.87126e-14
5.93463e-14
5.9996e-14
6.06618e-14
6.13435e-14
6.20407e-14
6.27531e-14
6.34805e-14
6.42227e-14
6.49791e-14
6.57493e-14
6.65329e-14
6.73297e-14
6.81389e-14
6.896e-14
6.97923e-14
7.06352e-14
7.14882e-14
7.23507e-14
7.32221e-14
7.41021e-14
7.499e-14
7.58852e-14
7.67873e-14
7.76954e-14
7.8609e-14
7.95273e-14
8.04496e-14
8.13755e-14
8.23043e-14
8.32357e-14
8.41691e-14
8.51041e-14
8.60403e-14
8.69772e-14
8.79143e-14
8.88512e-14
)
;
    }
    inandouthalf21
    {
        type            cyclic;
        value           nonuniform List<scalar> 
100
(
-8.97875e-14
-9.07229e-14
-9.16572e-14
-9.25903e-14
-9.35222e-14
-9.44528e-14
-9.53824e-14
-9.63111e-14
-9.72395e-14
-9.81678e-14
-9.90966e-14
-1.00026e-13
-1.00958e-13
-1.01891e-13
-1.02827e-13
-1.03765e-13
-1.04706e-13
-1.05648e-13
-1.06592e-13
-1.07537e-13
-1.08482e-13
-1.09426e-13
-1.10368e-13
-1.1131e-13
-1.12253e-13
-1.132e-13
-1.14158e-13
-1.15135e-13
-1.16142e-13
-1.17193e-13
-1.18301e-13
-1.19477e-13
-1.20728e-13
-1.22044e-13
-1.23388e-13
-1.24685e-13
-1.2582e-13
-1.26678e-13
-1.27216e-13
-1.27485e-13
-1.27601e-13
-1.27665e-13
-1.27738e-13
-1.27877e-13
-1.27977e-13
-1.28081e-13
-1.28383e-13
-1.95733e-08
-2.43145e-08
-2.28912e-08
-2.4691e-08
-2.8561e-08
-3.38439e-08
-4.01637e-08
-4.72153e-08
-5.47377e-08
-6.2477e-08
-7.01941e-08
-7.76913e-08
-8.48018e-08
-9.13826e-08
-9.73114e-08
-1.02483e-07
-1.06806e-07
-1.10202e-07
-1.12606e-07
-1.1397e-07
-1.14263e-07
-1.13481e-07
-1.11644e-07
-1.08805e-07
-1.05053e-07
-1.00518e-07
-9.53778e-08
-8.98534e-08
-8.41817e-08
-7.85666e-08
-7.31378e-08
-6.79461e-08
-6.29903e-08
-5.8248e-08
-5.36945e-08
-4.93107e-08
-4.50841e-08
-4.10077e-08
-3.70778e-08
-3.32926e-08
-2.96508e-08
-2.6151e-08
-2.27912e-08
-1.9569e-08
-1.64813e-08
-1.35248e-08
-1.06957e-08
-7.98994e-09
-5.40365e-09
-2.9328e-09
-5.73498e-10
1.67804e-09
3.82544e-09
)
;
    }
    inandouthalf22
    {
        type            cyclic;
        value           nonuniform List<scalar> 
100
(
8.97875e-14
9.07229e-14
9.16572e-14
9.25903e-14
9.35222e-14
9.44528e-14
9.53824e-14
9.63111e-14
9.72395e-14
9.81678e-14
9.90966e-14
1.00026e-13
1.00958e-13
1.01891e-13
1.02827e-13
1.03765e-13
1.04706e-13
1.05648e-13
1.06592e-13
1.07537e-13
1.08482e-13
1.09426e-13
1.10368e-13
1.1131e-13
1.12253e-13
1.132e-13
1.14158e-13
1.15135e-13
1.16142e-13
1.17193e-13
1.18301e-13
1.19477e-13
1.20728e-13
1.22044e-13
1.23388e-13
1.24685e-13
1.2582e-13
1.26678e-13
1.27216e-13
1.27485e-13
1.27601e-13
1.27665e-13
1.27738e-13
1.27877e-13
1.27977e-13
1.28081e-13
1.28383e-13
1.95733e-08
2.43145e-08
2.28912e-08
2.4691e-08
2.8561e-08
3.38439e-08
4.01637e-08
4.72153e-08
5.47377e-08
6.2477e-08
7.01941e-08
7.76913e-08
8.48018e-08
9.13826e-08
9.73114e-08
1.02483e-07
1.06806e-07
1.10202e-07
1.12606e-07
1.1397e-07
1.14263e-07
1.13481e-07
1.11644e-07
1.08805e-07
1.05053e-07
1.00518e-07
9.53778e-08
8.98534e-08
8.41817e-08
7.85666e-08
7.31378e-08
6.79461e-08
6.29903e-08
5.8248e-08
5.36945e-08
4.93107e-08
4.50841e-08
4.10077e-08
3.70778e-08
3.32926e-08
2.96508e-08
2.6151e-08
2.27912e-08
1.9569e-08
1.64813e-08
1.35248e-08
1.06957e-08
7.98994e-09
5.40365e-09
2.9328e-09
5.73498e-10
-1.67804e-09
-3.82544e-09
)
;
    }
    inandouthalf31
    {
        type            cyclic;
        value           nonuniform List<scalar> 
110
(
5.87215e-09
8.00057e-09
1.01533e-08
1.23294e-08
1.45279e-08
1.67479e-08
1.89884e-08
2.12484e-08
2.35272e-08
2.58236e-08
2.81368e-08
3.04659e-08
3.28099e-08
3.51681e-08
3.75396e-08
3.99235e-08
4.23193e-08
4.47261e-08
4.71433e-08
4.95705e-08
5.20073e-08
5.4453e-08
5.6826e-08
5.93671e-08
6.18641e-08
6.43744e-08
6.68998e-08
6.94429e-08
7.20081e-08
7.46006e-08
7.72247e-08
7.98859e-08
8.2593e-08
8.53425e-08
8.80861e-08
9.07298e-08
9.35852e-08
2.54432e-07
2.62411e-07
2.70747e-07
2.79228e-07
2.87856e-07
2.96617e-07
3.055e-07
3.14486e-07
3.23564e-07
3.32652e-07
3.41896e-07
3.5082e-07
3.60358e-07
3.68445e-07
3.76959e-07
3.8483e-07
3.94067e-07
3.97179e-07
4.0714e-07
4.1391e-07
4.20335e-07
4.26117e-07
4.31236e-07
4.35676e-07
4.39469e-07
4.42693e-07
4.4549e-07
4.48176e-07
4.49897e-07
4.53547e-07
4.56131e-07
4.59737e-07
4.63987e-07
4.69012e-07
4.74875e-07
4.81624e-07
4.89292e-07
4.97904e-07
5.07499e-07
5.18159e-07
5.30021e-07
5.45411e-07
5.59029e-07
5.70556e-07
5.8214e-07
5.93956e-07
6.06011e-07
6.18312e-07
6.30862e-07
6.43667e-07
6.56731e-07
6.70061e-07
6.83662e-07
6.97538e-07
7.11696e-07
7.26142e-07
7.40881e-07
7.55918e-07
7.71262e-07
7.86916e-07
8.02888e-07
8.19185e-07
8.35812e-07
8.52777e-07
8.70086e-07
8.87747e-07
9.05765e-07
9.2415e-07
9.42908e-07
9.62046e-07
9.81573e-07
1.0015e-06
1.02182e-06
)
;
    }
    inandouthalf32
    {
        type            cyclic;
        value           nonuniform List<scalar> 
110
(
-5.87215e-09
-8.00057e-09
-1.01533e-08
-1.23294e-08
-1.45279e-08
-1.67479e-08
-1.89884e-08
-2.12484e-08
-2.35272e-08
-2.58236e-08
-2.81368e-08
-3.04659e-08
-3.28099e-08
-3.51681e-08
-3.75396e-08
-3.99235e-08
-4.23193e-08
-4.47261e-08
-4.71433e-08
-4.95705e-08
-5.20073e-08
-5.4453e-08
-5.6826e-08
-5.93671e-08
-6.18641e-08
-6.43744e-08
-6.68998e-08
-6.94429e-08
-7.20081e-08
-7.46006e-08
-7.72247e-08
-7.98859e-08
-8.2593e-08
-8.53425e-08
-8.80861e-08
-9.07298e-08
-9.35852e-08
-2.54432e-07
-2.62411e-07
-2.70747e-07
-2.79228e-07
-2.87856e-07
-2.96617e-07
-3.055e-07
-3.14486e-07
-3.23564e-07
-3.32652e-07
-3.41896e-07
-3.5082e-07
-3.60358e-07
-3.68445e-07
-3.76959e-07
-3.8483e-07
-3.94067e-07
-3.97179e-07
-4.0714e-07
-4.1391e-07
-4.20335e-07
-4.26117e-07
-4.31236e-07
-4.35676e-07
-4.39469e-07
-4.42693e-07
-4.4549e-07
-4.48176e-07
-4.49897e-07
-4.53547e-07
-4.56131e-07
-4.59737e-07
-4.63987e-07
-4.69012e-07
-4.74875e-07
-4.81624e-07
-4.89292e-07
-4.97904e-07
-5.07499e-07
-5.18159e-07
-5.30021e-07
-5.45411e-07
-5.59029e-07
-5.70556e-07
-5.8214e-07
-5.93956e-07
-6.06011e-07
-6.18312e-07
-6.30862e-07
-6.43667e-07
-6.56731e-07
-6.70061e-07
-6.83662e-07
-6.97538e-07
-7.11696e-07
-7.26142e-07
-7.40881e-07
-7.55918e-07
-7.71262e-07
-7.86916e-07
-8.02888e-07
-8.19185e-07
-8.35812e-07
-8.52777e-07
-8.70086e-07
-8.87747e-07
-9.05765e-07
-9.2415e-07
-9.42908e-07
-9.62046e-07
-9.81573e-07
-1.0015e-06
-1.02182e-06
)
;
    }
    inandouthalf41
    {
        type            cyclic;
        value           nonuniform List<scalar> 
50
(
9.14637e-07
9.14637e-07
9.14637e-07
9.14637e-07
9.14637e-07
9.14637e-07
9.14637e-07
9.14637e-07
9.14637e-07
9.14637e-07
9.14637e-07
9.14637e-07
9.14637e-07
9.14637e-07
9.14637e-07
9.14637e-07
9.14637e-07
9.14637e-07
9.14637e-07
9.14637e-07
9.14637e-07
9.14637e-07
9.14637e-07
9.14637e-07
9.14637e-07
9.14637e-07
9.14637e-07
9.14637e-07
9.14637e-07
9.14637e-07
9.14637e-07
9.14637e-07
9.14637e-07
9.14637e-07
9.14637e-07
9.14637e-07
9.14637e-07
9.14637e-07
9.14637e-07
9.14637e-07
9.14637e-07
9.14637e-07
9.14637e-07
9.14637e-07
9.14637e-07
9.14637e-07
9.14637e-07
9.14641e-07
9.14747e-07
9.17177e-07
)
;
    }
    inandouthalf42
    {
        type            cyclic;
        value           nonuniform List<scalar> 
50
(
-9.14637e-07
-9.14637e-07
-9.14637e-07
-9.14637e-07
-9.14637e-07
-9.14637e-07
-9.14637e-07
-9.14637e-07
-9.14637e-07
-9.14637e-07
-9.14637e-07
-9.14637e-07
-9.14637e-07
-9.14637e-07
-9.14637e-07
-9.14637e-07
-9.14637e-07
-9.14637e-07
-9.14637e-07
-9.14637e-07
-9.14637e-07
-9.14637e-07
-9.14637e-07
-9.14637e-07
-9.14637e-07
-9.14637e-07
-9.14637e-07
-9.14637e-07
-9.14637e-07
-9.14637e-07
-9.14637e-07
-9.14637e-07
-9.14637e-07
-9.14637e-07
-9.14637e-07
-9.14637e-07
-9.14637e-07
-9.14637e-07
-9.14637e-07
-9.14637e-07
-9.14637e-07
-9.14637e-07
-9.14637e-07
-9.14637e-07
-9.14637e-07
-9.14637e-07
-9.14637e-07
-9.14641e-07
-9.14747e-07
-9.17177e-07
)
;
    }
    top
    {
        type            symmetryPlane;
        value           uniform 0;
    }
    walls
    {
        type            calculated;
        value           uniform 0;
    }
    frontAndBackPlanes
    {
        type            empty;
        value           nonuniform 0();
    }
}


// ************************************************************************* //
