/*--------------------------------*- C++ -*----------------------------------*\
| =========                 |                                                 |
| \\      /  F ield         | OpenFOAM: The Open Source CFD Toolbox           |
|  \\    /   O peration     | Version:  2.4.x                                 |
|   \\  /    A nd           | Web:      www.OpenFOAM.org                      |
|    \\/     M anipulation  |                                                 |
\*---------------------------------------------------------------------------*/
FoamFile
{
    version     2.0;
    format      ascii;
    class       volVectorField;
    location    "12.05";
    object      ddt0(Ua);
}
// * * * * * * * * * * * * * * * * * * * * * * * * * * * * * * * * * * * * * //

dimensions      [0 1 -2 0 0 0 0];

internalField   nonuniform List<vector> 
360
(
(6.86792e-33 -2.3165e-33 0)
(1.10907e-09 3.20345e-09 0)
(2.34239e-09 5.7943e-09 0)
(3.4943e-09 8.18606e-09 0)
(4.71188e-09 1.08163e-08 0)
(6.02213e-09 1.36579e-08 0)
(7.39335e-09 1.66094e-08 0)
(8.80931e-09 1.96414e-08 0)
(1.02675e-08 2.27507e-08 0)
(1.17662e-08 2.593e-08 0)
(1.33017e-08 2.91673e-08 0)
(1.48679e-08 3.24453e-08 0)
(1.64572e-08 3.57442e-08 0)
(1.80616e-08 3.90431e-08 0)
(1.96724e-08 4.23212e-08 0)
(2.12814e-08 4.55585e-08 0)
(2.28804e-08 4.87357e-08 0)
(2.44611e-08 5.1834e-08 0)
(2.60156e-08 5.48358e-08 0)
(2.75367e-08 5.77257e-08 0)
(2.90178e-08 6.04899e-08 0)
(3.04529e-08 6.31169e-08 0)
(3.18371e-08 6.5598e-08 0)
(3.31666e-08 6.79264e-08 0)
(3.44381e-08 7.0098e-08 0)
(3.56495e-08 7.21107e-08 0)
(3.67994e-08 7.39648e-08 0)
(3.78875e-08 7.56626e-08 0)
(3.89143e-08 7.72084e-08 0)
(3.98807e-08 7.86079e-08 0)
(4.07887e-08 7.9868e-08 0)
(4.16406e-08 8.09973e-08 0)
(4.24392e-08 8.20049e-08 0)
(4.31878e-08 8.29006e-08 0)
(4.38899e-08 8.3695e-08 0)
(4.45492e-08 8.43985e-08 0)
(4.51695e-08 8.50218e-08 0)
(4.5755e-08 8.55755e-08 0)
(4.63095e-08 8.60701e-08 0)
(4.68371e-08 8.65156e-08 0)
(4.73414e-08 8.69217e-08 0)
(4.78263e-08 8.72974e-08 0)
(4.82954e-08 8.76514e-08 0)
(4.87519e-08 8.79916e-08 0)
(4.91992e-08 8.83256e-08 0)
(4.96403e-08 8.86599e-08 0)
(5.00778e-08 8.90009e-08 0)
(5.05144e-08 8.9354e-08 0)
(5.09523e-08 8.97241e-08 0)
(5.13938e-08 9.01158e-08 0)
(5.18408e-08 9.0533e-08 0)
(5.2295e-08 9.09789e-08 0)
(5.2758e-08 9.14565e-08 0)
(5.32311e-08 9.19682e-08 0)
(5.37156e-08 9.25161e-08 0)
(5.42124e-08 9.31019e-08 0)
(5.47226e-08 9.37268e-08 0)
(5.52467e-08 9.43918e-08 0)
(5.57855e-08 9.50977e-08 0)
(5.63394e-08 9.58447e-08 0)
(5.69087e-08 9.66331e-08 0)
(5.74939e-08 9.7463e-08 0)
(5.80952e-08 9.83341e-08 0)
(5.87126e-08 9.92462e-08 0)
(5.93463e-08 1.00199e-07 0)
(5.9996e-08 1.01191e-07 0)
(6.06618e-08 1.02221e-07 0)
(6.13435e-08 1.0329e-07 0)
(6.20407e-08 1.04395e-07 0)
(6.27531e-08 1.05535e-07 0)
(6.34805e-08 1.0671e-07 0)
(6.42227e-08 1.07918e-07 0)
(6.49791e-08 1.09158e-07 0)
(6.57493e-08 1.10428e-07 0)
(6.65329e-08 1.11727e-07 0)
(6.73297e-08 1.13054e-07 0)
(6.81389e-08 1.14407e-07 0)
(6.896e-08 1.15785e-07 0)
(6.97923e-08 1.17185e-07 0)
(7.06352e-08 1.18607e-07 0)
(7.14882e-08 1.20048e-07 0)
(7.23507e-08 1.21508e-07 0)
(7.32221e-08 1.22984e-07 0)
(7.41021e-08 1.24475e-07 0)
(7.499e-08 1.25981e-07 0)
(7.58852e-08 1.27499e-07 0)
(7.67873e-08 1.29027e-07 0)
(7.76954e-08 1.30565e-07 0)
(7.8609e-08 1.32111e-07 0)
(7.95273e-08 1.33663e-07 0)
(8.04496e-08 1.35219e-07 0)
(8.13755e-08 1.36778e-07 0)
(8.23043e-08 1.38339e-07 0)
(8.32357e-08 1.39901e-07 0)
(8.41691e-08 1.41462e-07 0)
(8.51041e-08 1.43022e-07 0)
(8.60403e-08 1.44578e-07 0)
(8.69772e-08 1.46131e-07 0)
(8.79143e-08 1.47679e-07 0)
(8.88512e-08 1.4922e-07 0)
(8.97875e-08 1.50754e-07 0)
(9.07229e-08 1.52281e-07 0)
(9.16572e-08 1.53798e-07 0)
(9.25903e-08 1.55306e-07 0)
(9.35222e-08 1.56804e-07 0)
(9.44528e-08 1.58292e-07 0)
(9.53824e-08 1.5977e-07 0)
(9.63111e-08 1.61237e-07 0)
(9.72395e-08 1.62695e-07 0)
(9.81678e-08 1.64142e-07 0)
(9.90966e-08 1.6558e-07 0)
(1.00026e-07 1.67008e-07 0)
(1.00958e-07 1.68427e-07 0)
(1.01891e-07 1.69837e-07 0)
(1.02827e-07 1.71236e-07 0)
(1.03765e-07 1.72626e-07 0)
(1.04706e-07 1.74005e-07 0)
(1.05648e-07 1.7537e-07 0)
(1.06592e-07 1.76721e-07 0)
(1.07537e-07 1.78055e-07 0)
(1.08482e-07 1.7937e-07 0)
(1.09426e-07 1.80664e-07 0)
(1.10368e-07 1.81934e-07 0)
(1.1131e-07 1.83182e-07 0)
(1.12253e-07 1.84407e-07 0)
(1.132e-07 1.85613e-07 0)
(1.14158e-07 1.86806e-07 0)
(1.15135e-07 1.87994e-07 0)
(1.16142e-07 1.89188e-07 0)
(1.17193e-07 1.90399e-07 0)
(1.18301e-07 1.91638e-07 0)
(1.19477e-07 1.9291e-07 0)
(1.20728e-07 1.94213e-07 0)
(1.22044e-07 1.95528e-07 0)
(1.23388e-07 1.96816e-07 0)
(1.24685e-07 1.98003e-07 0)
(1.2582e-07 1.98989e-07 0)
(1.26678e-07 1.99692e-07 0)
(1.27216e-07 2.00102e-07 0)
(1.27485e-07 2.0029e-07 0)
(1.27601e-07 2.00358e-07 0)
(1.27665e-07 2.0038e-07 0)
(1.27738e-07 2.00429e-07 0)
(1.27877e-07 2.00563e-07 0)
(1.27977e-07 2.006e-07 0)
(1.28081e-07 2.00602e-07 0)
(1.28383e-07 2.00574e-07 0)
(0.0195733 -0.000104244 0)
(0.0243145 -0.00131888 0)
(0.0228912 -0.00166869 0)
(0.024691 -0.00193152 0)
(0.028561 -0.00208217 0)
(0.0338439 -0.00223218 0)
(0.0401637 -0.00239991 0)
(0.0472153 -0.00258638 0)
(0.0547377 -0.00282497 0)
(0.062477 -0.00310199 0)
(0.0701941 -0.00340355 0)
(0.0776913 -0.003769 0)
(0.0848018 -0.00418043 0)
(0.0913826 -0.00463157 0)
(0.0973114 -0.00511334 0)
(0.102483 -0.00561389 0)
(0.106806 -0.0061192 0)
(0.110202 -0.0066117 0)
(0.112606 -0.00707077 0)
(0.11397 -0.00747246 0)
(0.114263 -0.00778939 0)
(0.113481 -0.00799089 0)
(0.111644 -0.00804149 0)
(0.108805 -0.00789323 0)
(0.105053 -0.00746748 0)
(0.100518 -0.00664004 0)
(0.0953778 -0.00527162 0)
(0.0898534 -0.00331267 0)
(0.0841817 -0.000914372 0)
(0.0785666 0.00159229 0)
(0.0731378 0.00386437 0)
(0.0679461 0.00570083 0)
(0.0629903 0.0070649 0)
(0.058248 0.0080181 0)
(0.0536945 0.00865247 0)
(0.0493107 0.0090545 0)
(0.0450841 0.00929353 0)
(0.0410077 0.00942145 0)
(0.0370778 0.00947573 0)
(0.0332926 0.00948294 0)
(0.0296508 0.00946172 0)
(0.026151 0.00942494 0)
(0.0227912 0.00938137 0)
(0.019569 0.00933688 0)
(0.0164813 0.00929524 0)
(0.0135248 0.00925877 0)
(0.0106957 0.00922877 0)
(0.00798994 0.00920584 0)
(0.00540365 0.0091901 0)
(0.0029328 0.00918134 0)
(0.000573498 0.0091792 0)
(-0.00167804 0.00918315 0)
(-0.00382544 0.00919263 0)
(-0.00587213 0.00920707 0)
(-0.00784138 0.00922608 0)
(-0.00975331 0.00924954 0)
(-0.0116081 0.00927716 0)
(-0.0134058 0.00930866 0)
(-0.0151469 0.00934375 0)
(-0.0168316 0.00938211 0)
(-0.0184603 0.00942343 0)
(-0.0200334 0.00946734 0)
(-0.0215513 0.00951341 0)
(-0.0230147 0.00956116 0)
(-0.0244241 0.00961 0)
(-0.02578 0.00965919 0)
(-0.0270832 0.00970785 0)
(-0.0283343 0.00975495 0)
(-0.0295343 0.00979922 0)
(-0.0306838 0.00983919 0)
(-0.0317837 0.00987313 0)
(-0.032835 0.00989902 0)
(-0.0338387 0.0099145 0)
(-0.0347959 0.00991679 0)
(-0.0357074 0.00990245 0)
(-0.0365222 0.00986984 0)
(-0.0373963 0.00980671 0)
(-0.038194 0.00972031 0)
(-0.0389532 0.00959652 0)
(-0.039676 0.00942832 0)
(-0.0403649 0.00920851 0)
(-0.0410233 0.00893402 0)
(-0.0416548 0.008611 0)
(-0.0422622 0.00825288 0)
(-0.0428488 0.00787361 0)
(-0.0434196 0.00749578 0)
(-0.0439725 0.00716909 0)
(-0.0444832 0.00693998 0)
(-0.0449068 0.00679287 0)
(-0.0453986 0.00666101 0)
(-0.120971 0.00456153 0)
(-0.122282 0.0047027 0)
(-0.123657 0.00394168 0)
(-0.124994 0.00332714 0)
(-0.126292 0.00270838 0)
(-0.127547 0.00209787 0)
(-0.128754 0.00149547 0)
(-0.129904 0.00090314 0)
(-0.130995 0.000287608 0)
(-0.131995 -0.000170799 0)
(-0.132964 -0.00106319 0)
(-0.133721 -0.00107662 0)
(-0.134624 -0.0029074 0)
(-0.134907 -0.00219627 0)
(-0.135278 -0.00849927 0)
(-0.135355 -0.0387434 0)
(-0.135847 -0.0175885 0)
(-0.134196 -0.000246582 0)
(-0.134825 4.79376e-05 0)
(-0.13434 2.05128e-05 0)
(-0.133712 1.37053e-05 0)
(-0.132854 5.35438e-06 0)
(-0.131776 -2.81963e-06 0)
(-0.130484 -1.05278e-05 0)
(-0.129001 -1.73407e-05 0)
(-0.127363 -2.28407e-05 0)
(-0.125618 -2.67476e-05 0)
(-0.123861 -2.99319e-05 0)
(-0.121863 -2.68265e-05 0)
(-0.120408 -2.73497e-05 0)
(-0.118685 -2.4116e-05 0)
(-0.117243 -2.0553e-05 0)
(-0.115973 -1.66952e-05 0)
(-0.114897 -1.30097e-05 0)
(-0.114019 -9.80544e-06 0)
(-0.113339 -7.28724e-06 0)
(-0.112853 -5.57709e-06 0)
(-0.112555 -4.76546e-06 0)
(-0.112442 -4.98152e-06 0)
(-0.11252 -6.39591e-06 0)
(-0.112806 -1.33683e-05 0)
(-0.113772 -1.63037e-05 0)
(-0.114293 -1.0016e-05 0)
(-0.114329 -5.51704e-06 0)
(-0.11433 -5.20263e-06 0)
(-0.11433 -5.19807e-06 0)
(-0.11433 -5.1979e-06 0)
(-0.11433 -5.19803e-06 0)
(-0.11433 -5.1979e-06 0)
(-0.11433 -5.19804e-06 0)
(-0.11433 -5.1979e-06 0)
(-0.11433 -5.19805e-06 0)
(-0.11433 -5.19789e-06 0)
(-0.11433 -5.19806e-06 0)
(-0.11433 -5.19789e-06 0)
(-0.11433 -5.19807e-06 0)
(-0.11433 -5.19788e-06 0)
(-0.11433 -5.19808e-06 0)
(-0.11433 -5.19787e-06 0)
(-0.11433 -5.19809e-06 0)
(-0.11433 -5.19786e-06 0)
(-0.11433 -5.1981e-06 0)
(-0.11433 -5.19785e-06 0)
(-0.11433 -5.19811e-06 0)
(-0.11433 -5.19783e-06 0)
(-0.11433 -5.19811e-06 0)
(-0.11433 -5.19782e-06 0)
(-0.11433 -5.19812e-06 0)
(-0.11433 -5.1978e-06 0)
(-0.11433 -5.19812e-06 0)
(-0.11433 -5.19778e-06 0)
(-0.11433 -5.19813e-06 0)
(-0.11433 -5.19776e-06 0)
(-0.11433 -5.19811e-06 0)
(-0.11433 -5.19777e-06 0)
(-0.11433 -5.1981e-06 0)
(-0.11433 -5.19775e-06 0)
(-0.11433 -5.19809e-06 0)
(-0.11433 -5.19773e-06 0)
(-0.11433 -5.19808e-06 0)
(-0.11433 -5.19772e-06 0)
(-0.11433 -5.19808e-06 0)
(-0.11433 -5.19772e-06 0)
(-0.11433 -5.19808e-06 0)
(-0.11433 -5.19769e-06 0)
(-0.11433 -5.19806e-06 0)
(-0.11433 -5.19768e-06 0)
(-0.11433 -5.19807e-06 0)
(-0.11433 -5.19767e-06 0)
(-0.11433 -5.19807e-06 0)
(-0.11433 -5.19769e-06 0)
(-0.11433 -5.19795e-06 0)
(-0.11433 -5.19727e-06 0)
(-0.11433 -5.19746e-06 0)
(-0.11433 -5.19693e-06 0)
(-0.11433 -5.1972e-06 0)
(-0.11433 -5.19668e-06 0)
(-0.11433 -5.19716e-06 0)
(-0.11433 -5.197e-06 0)
(-0.11433 -5.19748e-06 0)
(-0.11433 -5.19695e-06 0)
(-0.11433 -5.19754e-06 0)
(-0.11433 -5.19754e-06 0)
(-0.11433 -5.19845e-06 0)
(-0.11433 -5.19851e-06 0)
(-0.11433 -5.19972e-06 0)
(-0.11433 -5.20022e-06 0)
(-0.11433 -5.20163e-06 0)
(-0.11433 -5.20211e-06 0)
(-0.11433 -5.20359e-06 0)
(-0.11433 -5.2042e-06 0)
(-0.11433 -5.20588e-06 0)
(-0.11433 -5.20656e-06 0)
(-0.11433 -5.20804e-06 0)
(-0.11433 -5.2084e-06 0)
(-0.11433 -5.21039e-06 0)
(-0.11433 -5.21167e-06 0)
(-0.11433 -5.21333e-06 0)
(-0.11433 -5.21352e-06 0)
(-0.11433 -5.21463e-06 0)
(-0.11433 -5.22178e-06 0)
(-0.114343 -5.35713e-06 0)
(-0.114647 -1.05534e-05 0)
)
;

boundaryField
{
    inandouthalf11
    {
        type            cyclic;
    }
    inandouthalf12
    {
        type            cyclic;
    }
    inandouthalf21
    {
        type            cyclic;
    }
    inandouthalf22
    {
        type            cyclic;
    }
    inandouthalf31
    {
        type            cyclic;
    }
    inandouthalf32
    {
        type            cyclic;
    }
    inandouthalf41
    {
        type            cyclic;
    }
    inandouthalf42
    {
        type            cyclic;
    }
    top
    {
        type            symmetryPlane;
    }
    walls
    {
        type            calculated;
        value           uniform (0 0 0);
    }
    frontAndBackPlanes
    {
        type            empty;
    }
}


// ************************************************************************* //
