/*--------------------------------*- C++ -*----------------------------------*\
| =========                 |                                                 |
| \\      /  F ield         | OpenFOAM: The Open Source CFD Toolbox           |
|  \\    /   O peration     | Version:  2.4.x                                 |
|   \\  /    A nd           | Web:      www.OpenFOAM.org                      |
|    \\/     M anipulation  |                                                 |
\*---------------------------------------------------------------------------*/
FoamFile
{
    version     2.0;
    format      ascii;
    class       volScalarField;
    location    "12.05";
    object      ddt0(((1.5*(alpha+1e-08))*rho),Theta);
}
// * * * * * * * * * * * * * * * * * * * * * * * * * * * * * * * * * * * * * //

dimensions      [1 -1 -3 0 0 0 0];

internalField   nonuniform List<scalar> 
360
(
-8.8908e-24
-2.30888e-23
-1.76646e-23
-1.75256e-23
-2.00163e-23
-2.19668e-23
-2.32112e-23
-2.43599e-23
-2.5573e-23
-2.67904e-23
-2.79337e-23
-2.89318e-23
-2.9739e-23
-3.03297e-23
-3.06905e-23
-3.0814e-23
-3.06919e-23
-3.03208e-23
-2.97125e-23
-2.88838e-23
-2.78557e-23
-2.66603e-23
-2.53297e-23
-2.38944e-23
-2.23877e-23
-2.08409e-23
-1.92861e-23
-1.7753e-23
-1.62636e-23
-1.48371e-23
-1.34928e-23
-1.22423e-23
-1.10947e-23
-1.00567e-23
-9.12907e-24
-8.31092e-24
-7.60123e-24
-6.99638e-24
-6.48927e-24
-6.07307e-24
-5.74199e-24
-5.48734e-24
-5.30141e-24
-5.17795e-24
-5.10924e-24
-5.08806e-24
-5.1078e-24
-5.1622e-24
-5.24765e-24
-5.35911e-24
-5.49061e-24
-5.63874e-24
-5.80106e-24
-5.97374e-24
-6.15435e-24
-6.34105e-24
-6.53115e-24
-6.72299e-24
-6.91411e-24
-7.10395e-24
-7.29333e-24
-7.48029e-24
-7.66377e-24
-7.84278e-24
-8.01565e-24
-8.18267e-24
-8.34419e-24
-8.49885e-24
-8.64396e-24
-8.78143e-24
-8.91523e-24
-9.0415e-24
-9.15735e-24
-9.26651e-24
-9.37013e-24
-9.46512e-24
-9.54879e-24
-9.62214e-24
-9.68724e-24
-9.74327e-24
-9.7897e-24
-9.82848e-24
-9.86038e-24
-9.88488e-24
-9.90144e-24
-9.90975e-24
-9.90904e-24
-9.89847e-24
-9.878e-24
-9.84851e-24
-9.81068e-24
-9.76568e-24
-9.71442e-24
-9.65749e-24
-9.59509e-24
-9.52711e-24
-9.45345e-24
-9.37396e-24
-9.28903e-24
-9.19939e-24
-9.10566e-24
-9.00906e-24
-8.91055e-24
-8.81111e-24
-8.71167e-24
-8.61319e-24
-8.51633e-24
-8.42206e-24
-8.33077e-24
-8.24302e-24
-8.15897e-24
-8.07831e-24
-8.00025e-24
-7.92391e-24
-7.84729e-24
-7.76829e-24
-7.68446e-24
-7.59341e-24
-7.493e-24
-7.38174e-24
-7.25963e-24
-7.12834e-24
-6.9918e-24
-6.85648e-24
-6.73185e-24
-6.63009e-24
-6.56539e-24
-6.55267e-24
-6.60429e-24
-6.72581e-24
-6.90964e-24
-1.75721e-24
4.51111e-17
5.74348e-16
3.99073e-15
2.61166e-14
1.63261e-13
9.78933e-13
5.63198e-12
2.93662e-11
8.21873e-11
-1.71174e-09
-6.61194e-08
-2.33348e-06
-0.000208942
-0.010009
-0.129512
-0.616788
-0.610728
-0.524508
-0.503238
-0.471707
-0.419437
-0.3531
-0.281775
-0.213013
-0.15047
-0.0968665
-0.0530387
-0.0186349
0.00723834
0.0256811
0.0379584
0.0451889
0.0484799
0.0487947
0.0469685
0.0436937
0.0395361
0.0349396
0.0302423
0.0256861
0.0214315
0.0175769
0.0141858
0.0113029
0.00894597
0.00708815
0.00566011
0.00457285
0.0037423
0.00310063
0.00259756
0.00219702
0.00187345
0.00160855
0.00138914
0.00120555
0.00105057
0.00091872
0.000805811
0.000708558
0.000624368
0.000551166
0.000487276
0.000431328
0.000382193
0.000338934
0.000300767
0.000267034
0.000237174
0.000210447
0.000186309
0.000164544
0.000144954
0.000127358
0.000111589
9.74925e-05
8.49274e-05
7.37605e-05
6.38671e-05
5.51297e-05
4.74383e-05
4.06898e-05
3.47878e-05
2.96422e-05
2.51696e-05
2.12935e-05
1.79443e-05
1.5059e-05
1.25815e-05
1.04612e-05
8.64656e-06
7.10462e-06
5.79894e-06
4.69719e-06
3.77029e-06
2.99163e-06
2.33686e-06
1.78497e-06
1.32022e-06
9.36096e-07
6.37361e-07
4.27115e-07
2.83907e-07
1.68262e-07
0
0
0
0
0
0
0
0
0
0
0
0
0
0
0
0
0
0
0
0
0
0
0
0
0
0
0
0
0
0
0
0
0
0
0
0
0
0
0
0
0
0
0
0
0
0
0
0
0
0
0
0
0
0
0
0
0
0
0
0
0
0
0
0
0
0
0
0
0
0
0
0
0
0
0
0
0
0
0
0
0
0
0
0
0
0
0
0
0
0
0
0
0
0
0
0
0
0
0
0
0
0
0
0
0
0
0
0
0
0
0
0
0
0
0
0
0
0
0
0
0
0
0
0
)
;

boundaryField
{
    inandouthalf11
    {
        type            cyclic;
    }
    inandouthalf12
    {
        type            cyclic;
    }
    inandouthalf21
    {
        type            cyclic;
    }
    inandouthalf22
    {
        type            cyclic;
    }
    inandouthalf31
    {
        type            cyclic;
    }
    inandouthalf32
    {
        type            cyclic;
    }
    inandouthalf41
    {
        type            cyclic;
    }
    inandouthalf42
    {
        type            cyclic;
    }
    top
    {
        type            symmetryPlane;
    }
    walls
    {
        type            calculated;
        value           uniform -8.8908e-24;
    }
    frontAndBackPlanes
    {
        type            empty;
    }
}


// ************************************************************************* //
