/*--------------------------------*- C++ -*----------------------------------*\
| =========                 |                                                 |
| \\      /  F ield         | OpenFOAM: The Open Source CFD Toolbox           |
|  \\    /   O peration     | Version:  2.4.x                                 |
|   \\  /    A nd           | Web:      www.OpenFOAM.org                      |
|    \\/     M anipulation  |                                                 |
\*---------------------------------------------------------------------------*/
FoamFile
{
    version     2.0;
    format      ascii;
    class       volScalarField;
    location    "12.05";
    object      epsilon;
}
// * * * * * * * * * * * * * * * * * * * * * * * * * * * * * * * * * * * * * //

dimensions      [0 2 -3 0 0 0 0];

internalField   nonuniform List<scalar> 
360
(
1e-20
1e-20
1e-20
1e-20
1e-20
1e-20
1e-20
1e-20
1e-20
1e-20
1e-20
1e-20
1e-20
1e-20
1e-20
1e-20
1e-20
1e-20
1e-20
1e-20
1e-20
1e-20
1e-20
1e-20
1e-20
1e-20
1e-20
1e-20
1e-20
1e-20
1e-20
1e-20
1e-20
1e-20
1e-20
1e-20
1e-20
1e-20
1e-20
1e-20
1e-20
1e-20
1e-20
1e-20
1e-20
1e-20
1e-20
1e-20
1e-20
1e-20
1e-20
1e-20
1e-20
1e-20
1e-20
1e-20
1e-20
1e-20
1e-20
1e-20
1e-20
1e-20
1e-20
1e-20
1e-20
1e-20
1e-20
1e-20
1e-20
1e-20
1e-20
1e-20
1e-20
1e-20
1e-20
1e-20
1e-20
1e-20
1e-20
1e-20
1e-20
1e-20
1e-20
1e-20
1e-20
1e-20
1e-20
1e-20
1e-20
1e-20
1e-20
1e-20
1e-20
1e-20
1e-20
1e-20
1e-20
1e-20
1e-20
1e-20
1e-20
1e-20
1e-20
1e-20
1e-20
1e-20
1e-20
1e-20
1e-20
1e-20
1e-20
1e-20
1e-20
1e-20
1e-20
1e-20
1e-20
1e-20
1e-20
1e-20
1e-20
1e-20
1e-20
1e-20
1e-20
1e-20
1e-20
1e-20
1e-20
1e-20
1e-20
1e-20
1.69724e-20
1.14177e-19
1.00269e-18
9.27842e-18
9.04032e-17
9.44866e-16
1.08645e-14
1.41261e-13
2.13024e-12
3.80723e-11
8.20295e-10
2.11033e-08
6.67627e-07
2.63004e-05
0.00121103
0.0331843
0.163385
0.209718
0.214042
0.20531
0.192207
0.177922
0.163795
0.150391
0.137922
0.126429
0.115876
0.106193
0.0972996
0.0891148
0.0815636
0.0745796
0.0681051
0.0620909
0.0564961
0.0512866
0.0464349
0.0419186
0.0377201
0.0338255
0.030224
0.0269069
0.0238671
0.021098
0.0185928
0.0163437
0.0143409
0.0125729
0.0110255
0.00968241
0.00852576
0.00753648
0.00669522
0.00598302
0.00538198
0.00487569
0.0044495
0.00409061
0.00378808
0.00353262
0.00331645
0.00313313
0.00297729
0.00284453
0.00273119
0.00263425
0.00255122
0.00248003
0.00241893
0.00236594
0.00231969
0.00227945
0.00224461
0.00221458
0.00218887
0.00216699
0.00214853
0.00213307
0.00212027
0.00210977
0.00210126
0.00209443
0.00208899
0.00208467
0.0020812
0.00207833
0.0020758
0.00207337
0.0020708
0.00206786
0.00206432
0.00205996
0.00205454
0.00204786
0.0020397
0.00202985
0.0020181
0.00200426
0.00198814
0.00196954
0.00194831
0.00192428
0.00189728
0.0018672
0.0018339
0.00179729
0.00175727
0.0017138
0.00166684
0.00161639
0.00156249
0.00150519
0.00144461
0.00138091
0.00131428
0.00124499
0.00117334
0.0010997
0.00102452
0.000948277
0.000871545
0.000794941
0.00071914
0.000644859
0.000572846
0.000503854
0.000438614
0.000377802
0.000321997
0.000271639
0.000226995
0.000188123
0.000154871
0.00012688
0.00010363
8.44886e-05
6.8777e-05
5.58299e-05
4.50433e-05
3.59079e-05
2.80276e-05
2.11273e-05
1.50542e-05
9.77457e-06
5.37234e-06
2.04495e-06
3.09412e-07
1.0665e-08
1.52449e-10
1.93362e-12
2.30564e-14
2.58712e-16
2.73934e-18
3.50405e-20
1e-20
1e-20
1e-20
1e-20
1e-20
1e-20
1e-20
1e-20
1e-20
1e-20
1e-20
1e-20
1e-20
1e-20
1e-20
1e-20
1e-20
1e-20
1e-20
1e-20
1e-20
1e-20
1e-20
1e-20
1e-20
1e-20
1e-20
1e-20
1e-20
1e-20
1e-20
1e-20
1e-20
1e-20
1e-20
1e-20
1e-20
1e-20
1e-20
1e-20
1e-20
1e-20
1e-20
1e-20
1e-20
1e-20
1e-20
1e-20
1e-20
1e-20
1e-20
1e-20
1e-20
1e-20
1e-20
1e-20
1e-20
1e-20
1e-20
1e-20
1e-20
1e-20
1e-20
1e-20
1e-20
1e-20
1e-20
1e-20
1e-20
1e-20
1e-20
1e-20
1e-20
1e-20
)
;

boundaryField
{
    inandouthalf11
    {
        type            cyclic;
    }
    inandouthalf12
    {
        type            cyclic;
    }
    inandouthalf21
    {
        type            cyclic;
    }
    inandouthalf22
    {
        type            cyclic;
    }
    inandouthalf31
    {
        type            cyclic;
    }
    inandouthalf32
    {
        type            cyclic;
    }
    inandouthalf41
    {
        type            cyclic;
    }
    inandouthalf42
    {
        type            cyclic;
    }
    top
    {
        type            symmetryPlane;
    }
    walls
    {
        type            zeroGradient;
    }
    frontAndBackPlanes
    {
        type            empty;
    }
}


// ************************************************************************* //
