/*--------------------------------*- C++ -*----------------------------------*\
| =========                 |                                                 |
| \\      /  F ield         | OpenFOAM: The Open Source CFD Toolbox           |
|  \\    /   O peration     | Version:  2.4.x                                 |
|   \\  /    A nd           | Web:      www.OpenFOAM.org                      |
|    \\/     M anipulation  |                                                 |
\*---------------------------------------------------------------------------*/
FoamFile
{
    version     2.0;
    format      ascii;
    class       volVectorField;
    location    "12.05";
    object      gradPf;
}
// * * * * * * * * * * * * * * * * * * * * * * * * * * * * * * * * * * * * * //

dimensions      [0 1 -2 0 0 0 0];

internalField   nonuniform List<vector> 
360
(
(0 72.5816 0)
(0 81.0927 0)
(0 -0.0905484 0)
(0 -12.6763 0)
(-3.34406e-14 -5.20708 0)
(-3.34413e-14 -2.8184 0)
(-3.34422e-14 -3.62328 0)
(0 -4.11963 0)
(-3.34447e-14 -4.16074 0)
(0 -4.16714 0)
(-3.34472e-14 -4.15371 0)
(0 -4.14205 0)
(-3.34497e-14 -4.14888 0)
(0 -4.15627 0)
(0 -4.17411 0)
(0 -4.19184 0)
(0 -4.19921 0)
(-3.34562e-14 -4.20251 0)
(0 -4.22231 0)
(0 -4.22658 0)
(0 -4.23154 0)
(-3.34617e-14 -4.25162 0)
(0 -4.25673 0)
(0 -4.26727 0)
(0 -4.27826 0)
(-3.34674e-14 -4.28015 0)
(0 -4.29432 0)
(0 -4.30964 0)
(0 -4.31015 0)
(0 -4.31606 0)
(0 -4.33734 0)
(0 -4.33107 0)
(0 -4.34648 0)
(0 -4.36264 0)
(0 -4.35848 0)
(3.34827e-14 -4.36806 0)
(0 -4.37453 0)
(0 -4.40145 0)
(0 -4.38395 0)
(0 -4.39678 0)
(0 -4.42737 0)
(0 -4.40169 0)
(1.67472e-14 -4.42349 0)
(0 -4.43927 0)
(0 -4.43336 0)
(0 -4.45799 0)
(0 -4.44354 0)
(0 -4.44303 0)
(0 -4.48689 0)
(0 -4.47345 0)
(3.35091e-14 -4.46807 0)
(0 -4.48891 0)
(0 -4.49557 0)
(0 -4.49129 0)
(0 -4.50739 0)
(0 -4.51176 0)
(0 -4.51206 0)
(0 -4.53177 0)
(0 -4.51065 0)
(0 -4.53495 0)
(0 -4.54264 0)
(0 -4.53938 0)
(0 -4.55441 0)
(0 -4.5515 0)
(0 -4.55468 0)
(0 -4.56102 0)
(0 -4.57461 0)
(0 -4.57483 0)
(0 -4.56278 0)
(0 -4.57749 0)
(0 -4.60375 0)
(0 -4.58216 0)
(0 -4.5843 0)
(0 -4.60222 0)
(0 -4.60722 0)
(0 -4.60766 0)
(0 -4.60059 0)
(0 -4.61125 0)
(0 -4.61851 0)
(0 -4.61627 0)
(0 -4.61779 0)
(0 -4.62618 0)
(0 -4.62853 0)
(0 -4.63106 0)
(0 -4.63386 0)
(0 -4.63716 0)
(0 -4.63919 0)
(0 -4.63884 0)
(0 -4.64144 0)
(0 -4.64407 0)
(0 -4.64513 0)
(0 -4.64757 0)
(0 -4.65062 0)
(0 -4.65237 0)
(0 -4.65382 0)
(0 -4.655 0)
(0 -4.65558 0)
(0 -4.65576 0)
(0 -4.65593 0)
(0 -4.65599 0)
(0 -4.65578 0)
(0 -4.65549 0)
(0 -4.65491 0)
(0 -4.65379 0)
(0 -4.65215 0)
(0 -4.64995 0)
(0 -4.64714 0)
(0 -4.64372 0)
(0 -4.63968 0)
(0 -4.63497 0)
(0 -4.62954 0)
(0 -4.62337 0)
(0 -4.61643 0)
(0 -4.60872 0)
(0 -4.60024 0)
(0 -4.59101 0)
(0 -4.58106 0)
(0 -4.57044 0)
(0 -4.55918 0)
(0 -4.54729 0)
(0 -4.53468 0)
(0 -4.52112 0)
(0 -4.50627 0)
(0 -4.48978 0)
(0 -4.47158 0)
(0 -4.45222 0)
(0 -4.43276 0)
(0 -4.41406 0)
(0 -4.39524 0)
(0 -4.37311 0)
(0 -4.34554 0)
(0 -4.31996 0)
(0 -4.31597 0)
(0 -4.34423 0)
(0 -4.37895 0)
(0 -4.38406 0)
(0 -4.38184 0)
(0 -4.46231 0)
(0 -4.66241 0)
(0 -4.76378 0)
(0 -4.91073 0)
(0 -14.4384 0)
(0 -10.6584 0)
(0 -0.271917 0)
(0 -3.76349 0)
(0 -7.81141 0)
(0 -9.66277 0)
(0 -5.63275 0)
(0 0 0)
(0 0 0)
(0 0 0)
(0 0 0)
(0 0 0)
(0 0 0)
(0 0 0)
(0 0 0)
(0 0 0)
(0 0 0)
(0 0 0)
(0 0 0)
(0 0 0)
(0 0 0)
(0 0 0)
(0 0 0)
(0 0 0)
(0 0 0)
(0 0 0)
(0 0 0)
(0 0 0)
(0 0 0)
(0 0 0)
(0 0 0)
(0 0 0)
(0 0 0)
(0 0 0)
(0 0 0)
(0 0 0)
(0 0 0)
(0 0 0)
(0 0 0)
(0 0 0)
(0 0 0)
(0 0 0)
(0 0 0)
(0 0 0)
(0 0 0)
(0 0 0)
(0 0 0)
(0 0 0)
(0 0 0)
(0 0 0)
(0 0 0)
(0 0 0)
(0 0 0)
(0 0 0)
(0 0 0)
(0 0 0)
(0 0 0)
(0 0 0)
(0 0 0)
(0 0 0)
(0 0 0)
(0 0 0)
(0 0 0)
(0 0 0)
(0 0 0)
(0 0 0)
(0 0 0)
(0 0 0)
(0 0 0)
(0 0 0)
(0 0 0)
(0 0 0)
(0 0 0)
(0 0 0)
(0 0 0)
(0 0 0)
(0 0 0)
(0 0 0)
(0 0 0)
(0 0 0)
(0 0 0)
(0 0 0)
(0 0 0)
(0 0 0)
(0 0 0)
(0 0 0)
(0 0 0)
(0 0 0)
(0 0 0)
(0 0 0)
(0 0 0)
(0 0 0)
(0 0 0)
(0 0 0)
(0 0 0)
(0 0 0)
(0 0 0)
(0 0 0)
(0 0 0)
(0 0 0)
(0 0 0)
(0 0 0)
(0 0 0)
(0 0 0)
(0 0 0)
(0 0 0)
(0 0 0)
(0 0 0)
(0 0 0)
(0 0 0)
(0 0 0)
(0 0 0)
(0 0 0)
(0 0 0)
(0 0 0)
(0 0 0)
(0 0 0)
(0 0 0)
(0 0 0)
(0 0 0)
(0 0 0)
(0 0 0)
(0 0 0)
(0 0 0)
(0 0 0)
(0 0 0)
(0 0 0)
(0 0 0)
(0 0 0)
(0 0 0)
(0 0 0)
(0 0 0)
(0 0 0)
(0 0 0)
(0 0 0)
(0 0 0)
(0 0 0)
(0 0 0)
(0 0 0)
(0 0 0)
(0 0 0)
(0 0 0)
(0 0 0)
(0 0 0)
(0 0 0)
(0 0 0)
(0 0 0)
(0 0 0)
(0 0 0)
(0 0 0)
(0 0 0)
(0 0 0)
(0 0 0)
(0 0 0)
(0 0 0)
(0 0 0)
(0 0 0)
(0 0 0)
(0 0 0)
(0 0 0)
(0 0 0)
(0 0 0)
(0 0 0)
(0 0 0)
(0 0 0)
(0 0 0)
(0 0 0)
(0 0 0)
(0 0 0)
(0 0 0)
(0 0 0)
(0 0 0)
(0 0 0)
(0 0 0)
(0 0 0)
(0 0 0)
(0 0 0)
(0 0 0)
(0 0 0)
(0 0 0)
(0 0 0)
(0 0 0)
(0 0 0)
(0 0 0)
(0 0 0)
(0 0 0)
(0 0 0)
(0 0 0)
(0 0 0)
(0 0 0)
(0 0 0)
(0 0 0)
(0 0 0)
(0 0 0)
(0 0 0)
(0 0 0)
(0 0 0)
(0 0 0)
(0 0 0)
(0 0 0)
(0 0 0)
(0 0 0)
(0 0 0)
(0 0 0)
(0 0 0)
(0 0 0)
(0 0 0)
(0 0 0)
(0 0 0)
(0 0 0)
(0 0 0)
(0 0 0)
(0 0 0)
(0 0 0)
(0 0 0)
(0 0 0)
(0 0 0)
(0 0 0)
(0 0 0)
)
;

boundaryField
{
    inandouthalf11
    {
        type            cyclic;
    }
    inandouthalf12
    {
        type            cyclic;
    }
    inandouthalf21
    {
        type            cyclic;
    }
    inandouthalf22
    {
        type            cyclic;
    }
    inandouthalf31
    {
        type            cyclic;
    }
    inandouthalf32
    {
        type            cyclic;
    }
    inandouthalf41
    {
        type            cyclic;
    }
    inandouthalf42
    {
        type            cyclic;
    }
    top
    {
        type            symmetryPlane;
    }
    walls
    {
        type            calculated;
        value           uniform (0 0 0);
    }
    frontAndBackPlanes
    {
        type            empty;
    }
}


// ************************************************************************* //
