/*--------------------------------*- C++ -*----------------------------------*\
| =========                 |                                                 |
| \\      /  F ield         | OpenFOAM: The Open Source CFD Toolbox           |
|  \\    /   O peration     | Version:  2.4.x                                 |
|   \\  /    A nd           | Web:      www.OpenFOAM.org                      |
|    \\/     M anipulation  |                                                 |
\*---------------------------------------------------------------------------*/
FoamFile
{
    version     2.0;
    format      ascii;
    class       volVectorField;
    location    "12.05";
    object      gradPs;
}
// * * * * * * * * * * * * * * * * * * * * * * * * * * * * * * * * * * * * * //

dimensions      [0 1 -2 0 0 0 0];

internalField   nonuniform List<vector> 
360
(
(0 1.55784e-18 0)
(0 1.71627e-18 0)
(0 -1.74312e-21 0)
(0 -2.3796e-19 0)
(-2.90051e-32 -9.92748e-20 0)
(-1.45029e-32 -5.42104e-20 0)
(-2.90065e-32 -7.00685e-20 0)
(0 -8.01431e-20 0)
(-1.45043e-32 -8.1488e-20 0)
(0 -8.2173e-20 0)
(-2.90108e-32 -8.24717e-20 0)
(0 -8.28116e-20 0)
(-2.9013e-32 -8.35261e-20 0)
(0 -8.42637e-20 0)
(0 -8.52268e-20 0)
(0 -8.62031e-20 0)
(0 -8.69806e-20 0)
(-2.90187e-32 -8.76856e-20 0)
(0 -8.87504e-20 0)
(0 -8.95002e-20 0)
(0 -9.0281e-20 0)
(-1.45117e-32 -9.13967e-20 0)
(0 -9.22079e-20 0)
(0 -9.31517e-20 0)
(0 -9.41202e-20 0)
(-1.45142e-32 -9.49031e-20 0)
(0 -9.59753e-20 0)
(0 -9.70897e-20 0)
(0 -9.78883e-20 0)
(0 -9.88239e-20 0)
(0 -1.00132e-19 0)
(0 -1.00817e-19 0)
(0 -1.02032e-19 0)
(0 -1.03276e-19 0)
(0 -1.04067e-19 0)
(1.45208e-32 -1.05196e-19 0)
(0 -1.06275e-19 0)
(0 -1.07874e-19 0)
(0 -1.084e-19 0)
(0 -1.09704e-19 0)
(0 -1.11468e-19 0)
(0 -1.11841e-19 0)
(1.45259e-32 -1.13443e-19 0)
(0 -1.14911e-19 0)
(0 -1.15851e-19 0)
(0 -1.17612e-19 0)
(0 -1.18362e-19 0)
(0 -1.19511e-19 0)
(0 -1.21885e-19 0)
(0 -1.22732e-19 0)
(2.90645e-32 -1.23831e-19 0)
(0 -1.25675e-19 0)
(0 -1.27166e-19 0)
(0 -1.28368e-19 0)
(0 -1.30197e-19 0)
(0 -1.31708e-19 0)
(0 -1.3315e-19 0)
(0 -1.35189e-19 0)
(0 -1.36046e-19 0)
(0 -1.38316e-19 0)
(0 -1.4011e-19 0)
(0 -1.41623e-19 0)
(0 -1.43734e-19 0)
(0 -1.45333e-19 0)
(0 -1.47159e-19 0)
(0 -1.49138e-19 0)
(0 -1.51403e-19 0)
(0 -1.53278e-19 0)
(0 -1.54779e-19 0)
(0 -1.57245e-19 0)
(0 -1.60172e-19 0)
(0 -1.61486e-19 0)
(0 -1.63693e-19 0)
(0 -1.66513e-19 0)
(0 -1.68953e-19 0)
(0 -1.71277e-19 0)
(0 -1.73391e-19 0)
(0 -1.76236e-19 0)
(0 -1.79031e-19 0)
(0 -1.81533e-19 0)
(0 -1.8426e-19 0)
(0 -1.87343e-19 0)
(0 -1.90272e-19 0)
(0 -1.93298e-19 0)
(0 -1.96428e-19 0)
(0 -1.99679e-19 0)
(0 -2.02975e-19 0)
(0 -2.06273e-19 0)
(0 -2.09811e-19 0)
(0 -2.13466e-19 0)
(0 -2.17172e-19 0)
(0 -2.21071e-19 0)
(0 -2.25135e-19 0)
(0 -2.2928e-19 0)
(0 -2.33559e-19 0)
(0 -2.3798e-19 0)
(0 -2.42534e-19 0)
(0 -2.47239e-19 0)
(0 -2.52124e-19 0)
(0 -2.57193e-19 0)
(0 -2.6245e-19 0)
(0 -2.67915e-19 0)
(0 -2.73588e-19 0)
(0 -2.79469e-19 0)
(0 -2.85568e-19 0)
(0 -2.91899e-19 0)
(0 -2.98473e-19 0)
(0 -3.05304e-19 0)
(0 -3.12409e-19 0)
(0 -3.19802e-19 0)
(0 -3.27499e-19 0)
(0 -3.35519e-19 0)
(0 -3.43883e-19 0)
(0 -3.52615e-19 0)
(0 -3.61743e-19 0)
(0 -3.71297e-19 0)
(0 -3.81312e-19 0)
(0 -3.9183e-19 0)
(0 -4.02895e-19 0)
(0 -4.14553e-19 0)
(0 -4.26847e-19 0)
(0 -4.39812e-19 0)
(0 -4.53473e-19 0)
(0 -4.67854e-19 0)
(0 -4.83016e-19 0)
(0 -4.99091e-19 0)
(0 -5.16301e-19 0)
(0 -5.34875e-19 0)
(0 -5.54859e-19 0)
(0 -5.75989e-19 0)
(0 -5.98088e-19 0)
(0 9.57611e-18 0)
(0 7.73262e-16 0)
(0 7.19504e-15 0)
(0 5.95009e-14 0)
(0 5.0609e-13 0)
(0 4.53311e-12 0)
(0 4.38635e-11 0)
(0 4.72103e-10 0)
(0 5.81046e-09 0)
(0 8.37696e-08 0)
(0 1.43651e-06 0)
(0 3.20174e-05 0)
(0 0.00169569 0)
(0 0.0952208 0)
(0 1.68086 0)
(0 3.86834 0)
(0 2.98223 0)
(0 -1.36818 0)
(0 -2.85264 0)
(0 -3.42727 0)
(0 -3.51873 0)
(0 -3.47793 0)
(0 -3.39729 0)
(0 -3.30313 0)
(0 -3.20797 0)
(0 -3.11715 0)
(0 -3.03195 0)
(0 -2.9522 0)
(0 -2.87688 0)
(0 -2.80484 0)
(0 -2.73508 0)
(0 -2.66679 0)
(0 -2.59935 0)
(0 -2.53235 0)
(0 -2.46556 0)
(0 -2.39895 0)
(0 -2.33263 0)
(0 -2.26692 0)
(0 -2.20255 0)
(0 -2.14122 0)
(0 -2.08634 0)
(0 -2.04252 0)
(0 -2.01124 0)
(0 -1.98421 0)
(0 -1.94208 0)
(0 -1.86462 0)
(0 -1.74582 0)
(0 -1.59791 0)
(0 -1.44086 0)
(0 -1.29058 0)
(0 -1.1553 0)
(0 -1.03739 0)
(0 -0.936188 0)
(0 -0.849803 0)
(0 -0.776092 0)
(0 -0.713031 0)
(0 -0.658866 0)
(0 -0.612124 0)
(0 -0.571591 0)
(0 -0.536271 0)
(0 -0.505351 0)
(0 -0.478161 0)
(0 -0.454149 0)
(0 -0.432859 0)
(0 -0.413909 0)
(0 -0.396974 0)
(0 -0.381779 0)
(0 -0.368084 0)
(0 -0.35568 0)
(0 -0.344362 0)
(0 -0.333923 0)
(-1.46035e-16 -0.32415 0)
(0 -0.31491 0)
(0 -0.306087 0)
(1.65495e-16 -0.297568 0)
(0 -0.289236 0)
(-1.80311e-16 -0.28098 0)
(0 -0.2727 0)
(1.96791e-16 -0.264309 0)
(0 -0.25574 0)
(0 -0.246947 0)
(0 -0.237905 0)
(1.17506e-16 -0.228608 0)
(0 -0.219061 0)
(0 -0.209279 0)
(0 -0.199278 0)
(0 -0.189077 0)
(0 -0.178687 0)
(0 -0.168118 0)
(0 -0.15738 0)
(-4.10422e-17 -0.146494 0)
(0 -0.135493 0)
(-4.40684e-17 -0.124437 0)
(0 -0.113424 0)
(0 -0.102614 0)
(0 -0.0922496 0)
(0 -0.0826415 0)
(2.53239e-17 -0.0740489 0)
(1.29452e-17 -0.0664334 0)
(0 -0.0590591 0)
(0 -0.0503716 0)
(0 -0.039394 0)
(0 -0.0282645 0)
(0 -0.0211361 0)
(0 -0.0236309 0)
(0 -0.0142258 0)
(0 0 0)
(0 0 0)
(0 0 0)
(0 0 0)
(0 0 0)
(0 0 0)
(0 0 0)
(0 0 0)
(0 0 0)
(0 0 0)
(0 0 0)
(0 0 0)
(0 0 0)
(0 0 0)
(0 0 0)
(0 0 0)
(0 0 0)
(0 0 0)
(0 0 0)
(0 0 0)
(0 0 0)
(0 0 0)
(0 0 0)
(0 0 0)
(0 0 0)
(0 0 0)
(0 0 0)
(0 0 0)
(0 0 0)
(0 0 0)
(0 0 0)
(0 0 0)
(0 0 0)
(0 0 0)
(0 0 0)
(0 0 0)
(0 0 0)
(0 0 0)
(0 0 0)
(0 0 0)
(0 0 0)
(0 0 0)
(0 0 0)
(0 0 0)
(0 0 0)
(0 0 0)
(0 0 0)
(0 0 0)
(0 0 0)
(0 0 0)
(0 0 0)
(0 0 0)
(0 0 0)
(0 0 0)
(0 0 0)
(0 0 0)
(0 0 0)
(0 0 0)
(0 0 0)
(0 0 0)
(0 0 0)
(0 0 0)
(0 0 0)
(0 0 0)
(0 0 0)
(0 0 0)
(0 0 0)
(0 0 0)
(0 0 0)
(0 0 0)
(0 0 0)
(0 0 0)
(0 0 0)
(0 0 0)
(0 0 0)
(0 0 0)
(0 0 0)
(0 0 0)
(0 0 0)
(0 0 0)
(0 0 0)
(0 0 0)
(0 0 0)
(0 0 0)
(0 0 0)
(0 0 0)
(0 0 0)
(0 0 0)
(0 0 0)
(0 0 0)
(0 0 0)
(0 0 0)
(0 0 0)
(0 0 0)
(0 0 0)
(0 0 0)
(0 0 0)
(0 0 0)
(0 0 0)
(0 0 0)
(0 0 0)
(0 0 0)
(0 0 0)
(0 0 0)
(0 0 0)
(0 0 0)
(0 0 0)
(0 0 0)
(0 0 0)
(0 0 0)
(0 0 0)
(0 0 0)
(0 0 0)
(0 0 0)
(0 0 0)
(0 0 0)
(0 0 0)
(0 0 0)
(0 0 0)
(0 0 0)
(0 0 0)
(0 0 0)
(0 0 0)
)
;

boundaryField
{
    inandouthalf11
    {
        type            cyclic;
    }
    inandouthalf12
    {
        type            cyclic;
    }
    inandouthalf21
    {
        type            cyclic;
    }
    inandouthalf22
    {
        type            cyclic;
    }
    inandouthalf31
    {
        type            cyclic;
    }
    inandouthalf32
    {
        type            cyclic;
    }
    inandouthalf41
    {
        type            cyclic;
    }
    inandouthalf42
    {
        type            cyclic;
    }
    top
    {
        type            symmetryPlane;
    }
    walls
    {
        type            calculated;
        value           uniform (0 0 0);
    }
    frontAndBackPlanes
    {
        type            empty;
    }
}


// ************************************************************************* //
