/*--------------------------------*- C++ -*----------------------------------*\
| =========                 |                                                 |
| \\      /  F ield         | OpenFOAM: The Open Source CFD Toolbox           |
|  \\    /   O peration     | Version:  2.4.x                                 |
|   \\  /    A nd           | Web:      www.OpenFOAM.org                      |
|    \\/     M anipulation  |                                                 |
\*---------------------------------------------------------------------------*/
FoamFile
{
    version     2.0;
    format      ascii;
    class       volScalarField;
    location    "12.05";
    object      p;
}
// * * * * * * * * * * * * * * * * * * * * * * * * * * * * * * * * * * * * * //

dimensions      [1 -1 -2 0 0 0 0];

internalField   nonuniform List<scalar> 
360
(
4892.67
4887.76
4882.86
4877.95
4873.05
4868.14
4863.24
4858.33
4853.43
4848.52
4843.62
4838.71
4833.8
4828.9
4823.99
4819.09
4814.18
4809.28
4804.37
4799.47
4794.56
4789.66
4784.75
4779.85
4774.94
4770.04
4765.13
4760.22
4755.32
4750.41
4745.51
4740.6
4735.7
4730.79
4725.89
4720.98
4716.07
4711.17
4706.26
4701.36
4696.45
4691.55
4686.64
4681.73
4676.83
4671.92
4667.02
4662.11
4657.21
4652.3
4647.39
4642.49
4637.58
4632.68
4627.77
4622.86
4617.96
4613.05
4608.15
4603.24
4598.34
4593.43
4588.52
4583.62
4578.71
4573.81
4568.9
4563.99
4559.09
4554.18
4549.27
4544.37
4539.46
4534.56
4529.65
4524.74
4519.84
4514.93
4510.03
4505.12
4500.21
4495.31
4490.4
4485.5
4480.59
4475.68
4470.78
4465.87
4460.96
4456.06
4451.15
4446.25
4441.34
4436.43
4431.53
4426.62
4421.71
4416.81
4411.9
4406.99
4402.09
4397.18
4392.28
4387.37
4382.46
4377.56
4372.65
4367.74
4362.84
4357.93
4353.02
4348.12
4343.21
4338.31
4333.4
4328.49
4323.59
4318.68
4313.77
4308.87
4303.96
4299.05
4294.15
4289.24
4284.33
4279.43
4274.52
4269.61
4264.71
4259.8
4254.9
4249.99
4245.08
4240.18
4235.27
4230.36
4225.46
4220.55
4215.64
4210.74
4205.83
4200.92
4196.02
4191.11
4186.2
4181.3
4176.35
4169.84
4160.66
4153.24
4146.8
4140.77
4134.98
4129.36
4123.89
4118.53
4113.28
4108.12
4103.04
4098.02
4093.06
4088.15
4083.28
4078.45
4073.64
4068.85
4064.09
4059.34
4054.6
4049.87
4045.15
4040.43
4035.71
4031
4026.27
4021.55
4016.81
4012.07
4007.31
4002.55
3997.77
3992.98
3988.18
3983.36
3978.53
3973.69
3968.84
3963.99
3959.12
3954.24
3949.37
3944.48
3939.59
3934.7
3929.8
3924.9
3920
3915.1
3910.19
3905.29
3900.38
3895.42
3890.36
3885.2
3879.93
3874.55
3869.06
3863.47
3857.76
3851.93
3845.98
3839.92
3833.73
3827.41
3820.97
3814.4
3807.69
3800.85
3793.87
3786.75
3779.49
3772.08
3764.52
3756.8
3748.94
3740.91
3732.72
3724.37
3715.85
3707.16
3698.29
3689.24
3680.02
3670.6
3661
3651.21
3641.21
3631.02
3620.62
3610.02
3599.2
3588.16
3576.9
3565.42
3553.7
3541.75
3529.55
3517.11
3504.42
3491.48
3478.27
3464.79
3451.04
3437.02
3422.7
3408.1
3393.2
3377.99
3362.48
3346.64
3330.48
3313.99
3297.16
3279.98
3262.45
3244.56
3226.3
3207.67
3188.65
3169.25
3149.45
3129.24
3108.63
3087.59
3066.12
3044.22
3021.87
2999.07
2975.8
2952.05
2927.81
2903.09
2877.86
2852.12
2825.86
2799.06
2771.72
2743.82
2715.36
2686.32
2656.7
2626.47
2595.62
2564.15
2532.05
2499.29
2465.86
2431.76
2396.96
2361.46
2325.24
2288.28
2250.57
2212.1
2172.85
2132.8
2091.93
2050.24
2007.7
1964.3
1922.76
1883.52
1844.28
1805.04
1765.8
1726.56
1687.32
1648.08
1608.84
1569.6
1530.36
1491.12
1451.88
1412.64
1373.4
1334.16
1294.92
1255.68
1216.44
1177.2
1137.96
1098.72
1059.48
1020.24
981
941.76
902.52
863.28
824.04
784.8
745.56
706.32
667.08
627.84
588.6
549.36
510.12
470.88
431.64
392.4
353.16
313.92
274.68
235.44
196.2
156.96
117.72
78.48
39.24
1.91878e-07
)
;

boundaryField
{
    inandouthalf11
    {
        type            cyclic;
    }
    inandouthalf12
    {
        type            cyclic;
    }
    inandouthalf21
    {
        type            cyclic;
    }
    inandouthalf22
    {
        type            cyclic;
    }
    inandouthalf31
    {
        type            cyclic;
    }
    inandouthalf32
    {
        type            cyclic;
    }
    inandouthalf41
    {
        type            cyclic;
    }
    inandouthalf42
    {
        type            cyclic;
    }
    top
    {
        type            symmetryPlane;
    }
    walls
    {
        type            slip;
    }
    frontAndBackPlanes
    {
        type            empty;
    }
}


// ************************************************************************* //
