/*--------------------------------*- C++ -*----------------------------------*\
| =========                 |                                                 |
| \\      /  F ield         | OpenFOAM: The Open Source CFD Toolbox           |
|  \\    /   O peration     | Version:  2.4.x                                 |
|   \\  /    A nd           | Web:      www.OpenFOAM.org                      |
|    \\/     M anipulation  |                                                 |
\*---------------------------------------------------------------------------*/
FoamFile
{
    version     2.0;
    format      ascii;
    class       volScalarField;
    location    "12.05";
    object      pa;
}
// * * * * * * * * * * * * * * * * * * * * * * * * * * * * * * * * * * * * * //

dimensions      [1 -1 -2 0 0 0 0];

internalField   nonuniform List<scalar> 
360
(
2.90393e-16
2.92915e-16
2.93175e-16
2.92912e-16
2.92789e-16
2.92751e-16
2.92701e-16
2.92637e-16
2.92571e-16
2.92505e-16
2.92438e-16
2.92371e-16
2.92304e-16
2.92236e-16
2.92167e-16
2.92098e-16
2.92028e-16
2.91957e-16
2.91886e-16
2.91813e-16
2.91741e-16
2.91667e-16
2.91593e-16
2.91518e-16
2.91442e-16
2.91365e-16
2.91288e-16
2.9121e-16
2.91131e-16
2.91051e-16
2.90971e-16
2.90889e-16
2.90807e-16
2.90724e-16
2.9064e-16
2.90555e-16
2.9047e-16
2.90383e-16
2.90295e-16
2.90208e-16
2.90118e-16
2.90027e-16
2.89937e-16
2.89844e-16
2.89751e-16
2.89656e-16
2.8956e-16
2.89465e-16
2.89367e-16
2.89267e-16
2.89168e-16
2.89067e-16
2.88965e-16
2.88861e-16
2.88757e-16
2.88651e-16
2.88544e-16
2.88436e-16
2.88326e-16
2.88216e-16
2.88102e-16
2.87989e-16
2.87873e-16
2.87757e-16
2.87638e-16
2.87519e-16
2.87397e-16
2.87274e-16
2.8715e-16
2.87024e-16
2.86896e-16
2.86765e-16
2.86635e-16
2.86501e-16
2.86366e-16
2.86228e-16
2.86089e-16
2.85948e-16
2.85804e-16
2.85659e-16
2.85511e-16
2.85361e-16
2.85209e-16
2.85054e-16
2.84897e-16
2.84737e-16
2.84575e-16
2.8441e-16
2.84242e-16
2.84071e-16
2.83898e-16
2.83721e-16
2.83541e-16
2.83358e-16
2.83171e-16
2.82981e-16
2.82788e-16
2.82591e-16
2.82389e-16
2.82184e-16
2.81975e-16
2.81761e-16
2.81543e-16
2.81321e-16
2.81093e-16
2.80861e-16
2.80623e-16
2.8038e-16
2.80132e-16
2.79878e-16
2.79617e-16
2.79351e-16
2.79078e-16
2.78798e-16
2.78511e-16
2.78216e-16
2.77914e-16
2.77603e-16
2.77284e-16
2.76956e-16
2.76618e-16
2.76271e-16
2.75912e-16
2.75543e-16
2.75161e-16
2.74768e-16
2.74361e-16
2.7394e-16
2.73503e-16
2.7305e-16
2.7258e-16
2.72092e-16
2.87916e-16
1.51006e-15
1.18031e-14
9.67034e-14
8.21173e-13
7.34345e-12
7.09126e-11
7.6138e-10
9.34631e-09
1.34407e-07
2.29959e-06
5.09397e-05
0.00269492
0.151124
2.66567
6.24282
6.01499
5.21628
4.29261
3.46809
2.77569
2.20808
1.74998
1.38406
1.09363
0.864004
0.68277
0.539804
0.42699
0.337905
0.267493
0.211791
0.167689
0.132753
0.105067
0.0831242
0.0657329
0.0519516
0.041031
0.0323711
0.0254884
0.0200004
0.0156217
0.0121552
0.00945977
0.00740913
0.00587384
0.00472956
0.00387135
0.00321915
0.00271529
0.00231928
0.00200279
0.00174588
0.00153435
0.00135792
0.00120906
0.00108214
0.000972911
0.000878115
0.000795216
0.000722223
0.000657552
0.000599932
0.000548335
0.000501918
0.000459988
0.000421972
0.00038739
0.000355525
0.000325839
0.000298168
0.000272369
0.000248318
0.000225907
0.000205042
0.000185641
0.000167628
0.000150936
0.000135501
0.000121261
0.000108156
9.61269e-05
8.51133e-05
7.50574e-05
6.59016e-05
5.75907e-05
5.00711e-05
4.32922e-05
3.72057e-05
3.17655e-05
2.69272e-05
2.26472e-05
1.88818e-05
1.55851e-05
1.27067e-05
1.01917e-05
7.98571e-06
6.04889e-06
4.38176e-06
3.03914e-06
2.06862e-06
1.39315e-06
8.34112e-07
0
0
0
0
0
0
0
0
0
0
0
0
0
0
0
0
0
0
0
0
0
0
0
0
0
0
0
0
0
0
0
0
0
0
0
0
0
0
0
0
0
0
0
0
0
0
0
0
0
0
0
0
0
0
0
0
0
0
0
0
0
0
0
0
0
0
0
0
0
0
0
0
0
0
0
0
0
0
0
0
0
0
0
0
0
0
0
0
0
0
0
0
0
0
0
0
0
0
0
0
0
0
0
0
0
0
0
0
0
0
0
0
0
0
0
0
0
0
0
0
0
0
0
0
)
;

boundaryField
{
    inandouthalf11
    {
        type            cyclic;
    }
    inandouthalf12
    {
        type            cyclic;
    }
    inandouthalf21
    {
        type            cyclic;
    }
    inandouthalf22
    {
        type            cyclic;
    }
    inandouthalf31
    {
        type            cyclic;
    }
    inandouthalf32
    {
        type            cyclic;
    }
    inandouthalf41
    {
        type            cyclic;
    }
    inandouthalf42
    {
        type            cyclic;
    }
    top
    {
        type            symmetryPlane;
    }
    walls
    {
        type            calculated;
        value           uniform 2.90393e-16;
    }
    frontAndBackPlanes
    {
        type            empty;
    }
}


// ************************************************************************* //
