/*--------------------------------*- C++ -*----------------------------------*\
| =========                 |                                                 |
| \\      /  F ield         | OpenFOAM: The Open Source CFD Toolbox           |
|  \\    /   O peration     | Version:  2.4.x                                 |
|   \\  /    A nd           | Web:      www.OpenFOAM.org                      |
|    \\/     M anipulation  |                                                 |
\*---------------------------------------------------------------------------*/
FoamFile
{
    version     2.0;
    format      ascii;
    class       surfaceScalarField;
    location    "12.05";
    object      phib_0;
}
// * * * * * * * * * * * * * * * * * * * * * * * * * * * * * * * * * * * * * //

dimensions      [0 3 -1 0 0 0 0];

internalField   nonuniform List<scalar> 
359
(
9.67376e-15
2.42282e-14
3.78817e-14
5.12885e-14
6.53946e-14
8.01588e-14
9.53944e-14
1.11075e-13
1.27234e-13
1.43909e-13
1.61106e-13
1.78808e-13
1.9699e-13
2.1562e-13
2.34662e-13
2.54079e-13
2.73829e-13
2.93864e-13
3.14135e-13
3.34596e-13
3.55193e-13
3.75881e-13
3.96612e-13
4.17341e-13
4.38025e-13
4.58624e-13
4.79099e-13
4.9942e-13
5.19554e-13
5.39475e-13
5.59157e-13
5.78586e-13
5.97736e-13
6.16604e-13
6.35171e-13
6.53435e-13
6.71385e-13
6.89024e-13
7.06352e-13
7.23362e-13
7.40068e-13
7.56469e-13
7.72566e-13
7.88375e-13
8.03899e-13
8.19147e-13
8.3413e-13
8.48849e-13
8.63319e-13
8.77556e-13
8.91559e-13
9.05344e-13
9.18917e-13
9.32292e-13
9.45471e-13
9.58472e-13
9.71295e-13
9.83953e-13
9.96453e-13
1.0088e-12
1.021e-12
1.03306e-12
1.04499e-12
1.0568e-12
1.06849e-12
1.08007e-12
1.09153e-12
1.10289e-12
1.11414e-12
1.12529e-12
1.13635e-12
1.14732e-12
1.15819e-12
1.16897e-12
1.17967e-12
1.19029e-12
1.20082e-12
1.21126e-12
1.22162e-12
1.2319e-12
1.24209e-12
1.2522e-12
1.26222e-12
1.27216e-12
1.28202e-12
1.29179e-12
1.30148e-12
1.31108e-12
1.32059e-12
1.33e-12
1.33932e-12
1.34854e-12
1.35766e-12
1.36668e-12
1.3756e-12
1.38442e-12
1.39313e-12
1.40174e-12
1.41024e-12
1.41862e-12
1.4269e-12
1.43506e-12
1.44311e-12
1.45105e-12
1.45887e-12
1.46657e-12
1.47417e-12
1.48165e-12
1.48901e-12
1.49627e-12
1.50342e-12
1.51046e-12
1.5174e-12
1.52422e-12
1.53094e-12
1.53756e-12
1.54405e-12
1.55043e-12
1.55668e-12
1.56279e-12
1.56875e-12
1.57455e-12
1.58018e-12
1.58563e-12
1.59089e-12
1.59598e-12
1.60091e-12
1.60569e-12
1.61038e-12
1.61501e-12
1.61962e-12
1.62422e-12
1.62878e-12
1.6332e-12
1.63726e-12
1.64061e-12
1.64282e-12
1.6436e-12
1.64296e-12
1.64129e-12
1.63895e-12
1.62787e-12
1.6206e-12
1.62058e-12
1.61616e-12
1.60112e-12
8.29587e-12
1.13887e-10
1.0837e-10
9.83491e-11
8.51087e-11
6.84315e-11
4.87428e-11
2.71413e-11
5.26689e-12
-1.555e-11
-3.38335e-11
-4.89353e-11
-6.05469e-11
-6.87215e-11
-7.37487e-11
-7.60399e-11
-7.60542e-11
-7.42429e-11
-7.1023e-11
-6.6764e-11
-6.17825e-11
-5.63442e-11
-5.06665e-11
-4.4922e-11
-3.92366e-11
-3.36853e-11
-2.83005e-11
-2.31163e-11
-1.8234e-11
-1.38371e-11
-1.01091e-11
-7.13026e-12
-4.8548e-12
-3.16338e-12
-1.92306e-12
-1.0187e-12
-3.60959e-13
1.16187e-13
4.60591e-13
7.06808e-13
8.79885e-13
9.98116e-13
1.07499e-12
1.12055e-12
1.14235e-12
1.14611e-12
1.13623e-12
1.11606e-12
1.08824e-12
1.05481e-12
1.01736e-12
9.77167e-13
9.35214e-13
8.92294e-13
8.49028e-13
8.05037e-13
7.60738e-13
7.165e-13
6.72652e-13
6.29484e-13
5.87252e-13
5.46178e-13
5.0645e-13
4.68222e-13
4.31617e-13
3.96725e-13
3.63604e-13
3.32284e-13
3.02771e-13
2.75048e-13
2.49083e-13
2.24833e-13
2.02246e-13
1.81265e-13
1.61833e-13
1.43889e-13
1.27377e-13
1.12234e-13
9.83922e-14
8.57731e-14
7.42712e-14
6.37449e-14
5.40199e-14
4.49355e-14
3.64718e-14
2.89472e-14
2.30048e-14
1.90016e-14
1.63191e-14
1.39958e-14
1.20656e-14
1.00571e-14
8.24795e-15
6.65252e-15
5.27332e-15
4.10327e-15
3.12929e-15
2.33401e-15
1.69789e-15
1.20017e-15
8.2031e-16
5.37075e-16
3.35563e-16
1.90015e-16
9.93974e-17
7.27283e-17
4.23945e-17
1.89201e-19
5.11826e-20
-1.46405e-19
-2.54011e-19
-4.12549e-19
-4.77788e-19
-5.85828e-19
-6.20569e-19
-6.92679e-19
-7.014e-19
-7.6587e-19
-8.3217e-19
-9.42544e-19
-1.01721e-18
-1.09627e-18
-1.16757e-18
-1.22626e-18
-1.2516e-18
-1.26433e-18
-1.31719e-18
-1.35219e-18
-1.36994e-18
-1.34759e-18
-1.3482e-18
-1.30568e-18
-1.25474e-18
-1.17204e-18
-1.17205e-18
-1.14419e-18
-1.11904e-18
-1.05501e-18
-1.02112e-18
-9.55274e-19
-8.7928e-19
-7.85972e-19
-7.32001e-19
-6.5929e-19
-5.87097e-19
-4.9671e-19
-4.231e-19
-3.32867e-19
-2.48811e-19
-1.5191e-19
-1.47799e-19
-1.26104e-19
-1.11766e-19
7.73497e-21
2.2295e-20
3.6817e-20
5.22993e-20
6.40337e-20
8.1742e-20
9.18725e-20
1.04226e-19
1.04402e-19
1.17512e-19
1.16082e-19
1.17219e-19
1.06106e-19
1.20797e-19
1.2381e-19
1.28814e-19
1.2196e-19
1.27037e-19
1.21451e-19
1.17007e-19
1.01163e-19
1.06418e-19
9.99656e-20
9.46435e-20
7.62834e-20
7.45563e-20
5.59968e-20
4.41367e-20
1.86802e-20
5.30851e-20
4.92206e-20
5.66495e-20
-1.88779e-20
8.85745e-21
-8.8658e-20
-1.63134e-19
-3.85438e-19
-3.38743e-19
-4.68577e-19
-5.69687e-19
-8.52582e-19
-9.84049e-19
-1.26336e-18
-1.52986e-18
-1.84679e-18
-2.27393e-18
-2.67419e-18
-3.07813e-18
-3.38538e-18
-3.90895e-18
-4.13625e-18
-4.45752e-18
-4.36112e-18
-5.31883e-18
-5.51044e-18
-5.90837e-18
-5.62458e-18
-5.77968e-18
-6.42163e-18
-8.27746e-18
)
;

boundaryField
{
    inandouthalf11
    {
        type            cyclic;
        value           nonuniform List<scalar> 
100
(
2.38298e-11
2.36971e-11
2.368e-11
2.36987e-11
2.37079e-11
2.37113e-11
2.37156e-11
2.37208e-11
2.37262e-11
2.37317e-11
2.37373e-11
2.37429e-11
2.37485e-11
2.37543e-11
2.37601e-11
2.3766e-11
2.3772e-11
2.3778e-11
2.37841e-11
2.37904e-11
2.37966e-11
2.38029e-11
2.38093e-11
2.38157e-11
2.38223e-11
2.38288e-11
2.38354e-11
2.38421e-11
2.38488e-11
2.38556e-11
2.38624e-11
2.38693e-11
2.38762e-11
2.38832e-11
2.38902e-11
2.38973e-11
2.39044e-11
2.39115e-11
2.39188e-11
2.3926e-11
2.39334e-11
2.39408e-11
2.39482e-11
2.39557e-11
2.39632e-11
2.39709e-11
2.39786e-11
2.39863e-11
2.39941e-11
2.40021e-11
2.401e-11
2.4018e-11
2.40261e-11
2.40343e-11
2.40426e-11
2.4051e-11
2.40594e-11
2.40679e-11
2.40766e-11
2.40852e-11
2.40941e-11
2.41029e-11
2.4112e-11
2.41211e-11
2.41303e-11
2.41396e-11
2.41491e-11
2.41587e-11
2.41684e-11
2.41781e-11
2.41881e-11
2.41982e-11
2.42083e-11
2.42187e-11
2.42291e-11
2.42398e-11
2.42505e-11
2.42614e-11
2.42725e-11
2.42838e-11
2.42951e-11
2.43067e-11
2.43185e-11
2.43304e-11
2.43425e-11
2.43548e-11
2.43674e-11
2.43801e-11
2.4393e-11
2.44062e-11
2.44195e-11
2.44331e-11
2.4447e-11
2.44611e-11
2.44755e-11
2.44901e-11
2.4505e-11
2.45202e-11
2.45357e-11
2.45515e-11
)
;
    }
    inandouthalf12
    {
        type            cyclic;
        value           nonuniform List<scalar> 
100
(
-2.38298e-11
-2.36971e-11
-2.368e-11
-2.36987e-11
-2.37079e-11
-2.37113e-11
-2.37156e-11
-2.37208e-11
-2.37262e-11
-2.37317e-11
-2.37373e-11
-2.37429e-11
-2.37485e-11
-2.37543e-11
-2.37601e-11
-2.3766e-11
-2.3772e-11
-2.3778e-11
-2.37841e-11
-2.37904e-11
-2.37966e-11
-2.38029e-11
-2.38093e-11
-2.38157e-11
-2.38223e-11
-2.38288e-11
-2.38354e-11
-2.38421e-11
-2.38488e-11
-2.38556e-11
-2.38624e-11
-2.38693e-11
-2.38762e-11
-2.38832e-11
-2.38902e-11
-2.38973e-11
-2.39044e-11
-2.39115e-11
-2.39188e-11
-2.3926e-11
-2.39334e-11
-2.39408e-11
-2.39482e-11
-2.39557e-11
-2.39632e-11
-2.39709e-11
-2.39786e-11
-2.39863e-11
-2.39941e-11
-2.40021e-11
-2.401e-11
-2.4018e-11
-2.40261e-11
-2.40343e-11
-2.40426e-11
-2.4051e-11
-2.40594e-11
-2.40679e-11
-2.40766e-11
-2.40852e-11
-2.40941e-11
-2.41029e-11
-2.4112e-11
-2.41211e-11
-2.41303e-11
-2.41396e-11
-2.41491e-11
-2.41587e-11
-2.41684e-11
-2.41781e-11
-2.41881e-11
-2.41982e-11
-2.42083e-11
-2.42187e-11
-2.42291e-11
-2.42398e-11
-2.42505e-11
-2.42614e-11
-2.42725e-11
-2.42838e-11
-2.42951e-11
-2.43067e-11
-2.43185e-11
-2.43304e-11
-2.43425e-11
-2.43548e-11
-2.43674e-11
-2.43801e-11
-2.4393e-11
-2.44062e-11
-2.44195e-11
-2.44331e-11
-2.4447e-11
-2.44611e-11
-2.44755e-11
-2.44901e-11
-2.4505e-11
-2.45202e-11
-2.45357e-11
-2.45515e-11
)
;
    }
    inandouthalf21
    {
        type            cyclic;
        value           nonuniform List<scalar> 
100
(
2.45677e-11
2.45841e-11
2.46009e-11
2.46181e-11
2.46357e-11
2.46536e-11
2.4672e-11
2.46907e-11
2.47099e-11
2.47296e-11
2.47498e-11
2.47705e-11
2.47917e-11
2.48134e-11
2.48357e-11
2.48587e-11
2.48822e-11
2.49065e-11
2.49314e-11
2.49571e-11
2.49836e-11
2.50109e-11
2.50391e-11
2.50682e-11
2.50983e-11
2.51294e-11
2.51616e-11
2.51951e-11
2.52298e-11
2.5266e-11
2.53036e-11
2.53429e-11
2.53839e-11
2.54273e-11
2.54735e-11
2.55227e-11
2.55747e-11
2.56301e-11
2.56914e-11
2.5761e-11
2.58362e-11
2.59255e-11
2.65413e-11
2.64498e-11
2.65631e-11
2.68672e-11
1.38229e-10
3.66571e-08
1.47311e-07
2.40992e-07
3.1682e-07
3.80179e-07
4.34264e-07
4.81119e-07
5.22198e-07
5.58589e-07
5.91128e-07
6.2047e-07
6.47133e-07
6.71527e-07
6.93982e-07
7.14762e-07
7.34079e-07
7.52106e-07
7.68982e-07
7.84819e-07
7.99709e-07
8.13725e-07
8.26927e-07
8.39361e-07
8.51064e-07
8.62064e-07
8.72382e-07
8.82031e-07
8.91024e-07
8.99367e-07
9.07067e-07
9.1413e-07
9.20565e-07
9.26386e-07
9.31611e-07
9.36264e-07
9.40373e-07
9.43973e-07
9.47102e-07
9.49801e-07
9.52111e-07
9.54073e-07
9.55727e-07
9.57108e-07
9.58249e-07
9.59179e-07
9.59925e-07
9.60509e-07
9.6095e-07
9.61264e-07
9.61467e-07
9.6157e-07
9.61584e-07
9.61517e-07
)
;
    }
    inandouthalf22
    {
        type            cyclic;
        value           nonuniform List<scalar> 
100
(
-2.45677e-11
-2.45841e-11
-2.46009e-11
-2.46181e-11
-2.46357e-11
-2.46536e-11
-2.4672e-11
-2.46907e-11
-2.47099e-11
-2.47296e-11
-2.47498e-11
-2.47705e-11
-2.47917e-11
-2.48134e-11
-2.48357e-11
-2.48587e-11
-2.48822e-11
-2.49065e-11
-2.49314e-11
-2.49571e-11
-2.49836e-11
-2.50109e-11
-2.50391e-11
-2.50682e-11
-2.50983e-11
-2.51294e-11
-2.51616e-11
-2.51951e-11
-2.52298e-11
-2.5266e-11
-2.53036e-11
-2.53429e-11
-2.53839e-11
-2.54273e-11
-2.54735e-11
-2.55227e-11
-2.55747e-11
-2.56301e-11
-2.56914e-11
-2.5761e-11
-2.58362e-11
-2.59255e-11
-2.65413e-11
-2.64498e-11
-2.65631e-11
-2.68672e-11
-1.38229e-10
-3.66571e-08
-1.47311e-07
-2.40992e-07
-3.1682e-07
-3.80179e-07
-4.34264e-07
-4.81119e-07
-5.22198e-07
-5.58589e-07
-5.91128e-07
-6.2047e-07
-6.47133e-07
-6.71527e-07
-6.93982e-07
-7.14762e-07
-7.34079e-07
-7.52106e-07
-7.68982e-07
-7.84819e-07
-7.99709e-07
-8.13725e-07
-8.26927e-07
-8.39361e-07
-8.51064e-07
-8.62064e-07
-8.72382e-07
-8.82031e-07
-8.91024e-07
-8.99367e-07
-9.07067e-07
-9.1413e-07
-9.20565e-07
-9.26386e-07
-9.31611e-07
-9.36264e-07
-9.40373e-07
-9.43973e-07
-9.47102e-07
-9.49801e-07
-9.52111e-07
-9.54073e-07
-9.55727e-07
-9.57108e-07
-9.58249e-07
-9.59179e-07
-9.59925e-07
-9.60509e-07
-9.6095e-07
-9.61264e-07
-9.61467e-07
-9.6157e-07
-9.61584e-07
-9.61517e-07
)
;
    }
    inandouthalf31
    {
        type            cyclic;
        value           nonuniform List<scalar> 
110
(
9.61382e-07
9.80684e-07
1.0003e-06
1.02025e-06
1.04052e-06
1.06112e-06
1.08206e-06
1.10335e-06
1.12498e-06
1.14696e-06
1.16929e-06
1.19199e-06
1.21505e-06
1.23848e-06
1.26228e-06
1.28646e-06
1.31102e-06
1.33596e-06
1.36128e-06
1.387e-06
1.41311e-06
1.43963e-06
1.46654e-06
1.49386e-06
1.52158e-06
1.54972e-06
1.57828e-06
1.60726e-06
1.63667e-06
1.6665e-06
1.69677e-06
1.72749e-06
1.75864e-06
1.79025e-06
1.82232e-06
1.85485e-06
1.88785e-06
1.92134e-06
1.95531e-06
1.98979e-06
2.02478e-06
2.06029e-06
2.09634e-06
2.13295e-06
2.17013e-06
2.20791e-06
2.24632e-06
2.28536e-06
2.32509e-06
2.36553e-06
2.40673e-06
2.44872e-06
2.49157e-06
2.53533e-06
2.58007e-06
2.62585e-06
2.67277e-06
2.72092e-06
2.77039e-06
2.82128e-06
2.87371e-06
2.92778e-06
2.9836e-06
3.04127e-06
3.10086e-06
3.16246e-06
3.22608e-06
3.29177e-06
3.35951e-06
3.42929e-06
3.50109e-06
3.57485e-06
3.65053e-06
3.72804e-06
3.80731e-06
3.88821e-06
3.97063e-06
4.05435e-06
4.1388e-06
4.22331e-06
4.30905e-06
4.39651e-06
4.48575e-06
4.5768e-06
4.6697e-06
4.76448e-06
4.86118e-06
4.95985e-06
5.06052e-06
5.16324e-06
5.26804e-06
5.37497e-06
5.48406e-06
5.59538e-06
5.70895e-06
5.82482e-06
5.94305e-06
6.06368e-06
6.18676e-06
6.31233e-06
6.44046e-06
6.57118e-06
6.70456e-06
6.84064e-06
6.97949e-06
7.12115e-06
7.26569e-06
7.41317e-06
7.56364e-06
7.71716e-06
)
;
    }
    inandouthalf32
    {
        type            cyclic;
        value           nonuniform List<scalar> 
110
(
-9.61382e-07
-9.80684e-07
-1.0003e-06
-1.02025e-06
-1.04052e-06
-1.06112e-06
-1.08206e-06
-1.10335e-06
-1.12498e-06
-1.14696e-06
-1.16929e-06
-1.19199e-06
-1.21505e-06
-1.23848e-06
-1.26228e-06
-1.28646e-06
-1.31102e-06
-1.33596e-06
-1.36128e-06
-1.387e-06
-1.41311e-06
-1.43963e-06
-1.46654e-06
-1.49386e-06
-1.52158e-06
-1.54972e-06
-1.57828e-06
-1.60726e-06
-1.63667e-06
-1.6665e-06
-1.69677e-06
-1.72749e-06
-1.75864e-06
-1.79025e-06
-1.82232e-06
-1.85485e-06
-1.88785e-06
-1.92134e-06
-1.95531e-06
-1.98979e-06
-2.02478e-06
-2.06029e-06
-2.09634e-06
-2.13295e-06
-2.17013e-06
-2.20791e-06
-2.24632e-06
-2.28536e-06
-2.32509e-06
-2.36553e-06
-2.40673e-06
-2.44872e-06
-2.49157e-06
-2.53533e-06
-2.58007e-06
-2.62585e-06
-2.67277e-06
-2.72092e-06
-2.77039e-06
-2.82128e-06
-2.87371e-06
-2.92778e-06
-2.9836e-06
-3.04127e-06
-3.10086e-06
-3.16246e-06
-3.22608e-06
-3.29177e-06
-3.35951e-06
-3.42929e-06
-3.50109e-06
-3.57485e-06
-3.65053e-06
-3.72804e-06
-3.80731e-06
-3.88821e-06
-3.97063e-06
-4.05435e-06
-4.1388e-06
-4.22331e-06
-4.30905e-06
-4.39651e-06
-4.48575e-06
-4.5768e-06
-4.6697e-06
-4.76448e-06
-4.86118e-06
-4.95985e-06
-5.06052e-06
-5.16324e-06
-5.26804e-06
-5.37497e-06
-5.48406e-06
-5.59538e-06
-5.70895e-06
-5.82482e-06
-5.94305e-06
-6.06368e-06
-6.18676e-06
-6.31233e-06
-6.44046e-06
-6.57118e-06
-6.70456e-06
-6.84064e-06
-6.97949e-06
-7.12115e-06
-7.26569e-06
-7.41317e-06
-7.56364e-06
-7.71716e-06
)
;
    }
    inandouthalf41
    {
        type            cyclic;
        value           nonuniform List<scalar> 
50
(
6.90764e-06
6.90764e-06
6.90764e-06
6.90764e-06
6.90764e-06
6.90764e-06
6.90764e-06
6.90764e-06
6.90764e-06
6.90764e-06
6.90764e-06
6.90764e-06
6.90764e-06
6.90764e-06
6.90764e-06
6.90764e-06
6.90764e-06
6.90764e-06
6.90764e-06
6.90764e-06
6.90764e-06
6.90764e-06
6.90764e-06
6.90764e-06
6.90764e-06
6.90764e-06
6.90764e-06
6.90764e-06
6.90764e-06
6.90764e-06
6.90764e-06
6.90764e-06
6.90764e-06
6.90764e-06
6.90764e-06
6.90764e-06
6.90764e-06
6.90764e-06
6.90764e-06
6.90764e-06
6.90764e-06
6.90764e-06
6.90764e-06
6.90764e-06
6.90764e-06
6.90764e-06
6.90764e-06
6.90764e-06
6.90764e-06
6.90764e-06
)
;
    }
    inandouthalf42
    {
        type            cyclic;
        value           nonuniform List<scalar> 
50
(
-6.90764e-06
-6.90764e-06
-6.90764e-06
-6.90764e-06
-6.90764e-06
-6.90764e-06
-6.90764e-06
-6.90764e-06
-6.90764e-06
-6.90764e-06
-6.90764e-06
-6.90764e-06
-6.90764e-06
-6.90764e-06
-6.90764e-06
-6.90764e-06
-6.90764e-06
-6.90764e-06
-6.90764e-06
-6.90764e-06
-6.90764e-06
-6.90764e-06
-6.90764e-06
-6.90764e-06
-6.90764e-06
-6.90764e-06
-6.90764e-06
-6.90764e-06
-6.90764e-06
-6.90764e-06
-6.90764e-06
-6.90764e-06
-6.90764e-06
-6.90764e-06
-6.90764e-06
-6.90764e-06
-6.90764e-06
-6.90764e-06
-6.90764e-06
-6.90764e-06
-6.90764e-06
-6.90764e-06
-6.90764e-06
-6.90764e-06
-6.90764e-06
-6.90764e-06
-6.90764e-06
-6.90764e-06
-6.90764e-06
-6.90764e-06
)
;
    }
    top
    {
        type            symmetryPlane;
        value           uniform 0;
    }
    walls
    {
        type            fixedValue;
        value           uniform 0;
    }
    frontAndBackPlanes
    {
        type            empty;
        value           nonuniform 0();
    }
}


// ************************************************************************* //
