/*--------------------------------*- C++ -*----------------------------------*\
| =========                 |                                                 |
| \\      /  F ield         | OpenFOAM: The Open Source CFD Toolbox           |
|  \\    /   O peration     | Version:  2.4.x                                 |
|   \\  /    A nd           | Web:      www.OpenFOAM.org                      |
|    \\/     M anipulation  |                                                 |
\*---------------------------------------------------------------------------*/
FoamFile
{
    version     2.0;
    format      ascii;
    class       volVectorField;
    location    "12.05";
    object      susb;
}
// * * * * * * * * * * * * * * * * * * * * * * * * * * * * * * * * * * * * * //

dimensions      [0 1 -2 0 0 0 0];

internalField   nonuniform List<vector> 
360
(
(0 6.03582e-18 0)
(0 6.69513e-18 0)
(0 -6.65418e-21 0)
(0 -9.23905e-19 0)
(-3.699e-31 -3.85599e-19 0)
(-3.69867e-31 -2.10624e-19 0)
(-7.39649e-31 -2.72227e-19 0)
(0 -3.11379e-19 0)
(-3.69713e-31 -3.16631e-19 0)
(0 -3.19319e-19 0)
(-3.69598e-31 -3.20503e-19 0)
(0 -3.21847e-19 0)
(-3.69482e-31 -3.24645e-19 0)
(0 -3.27533e-19 0)
(0 -3.31298e-19 0)
(0 -3.35113e-19 0)
(0 -3.38156e-19 0)
(-7.38367e-31 -3.40918e-19 0)
(0 -3.45078e-19 0)
(0 -3.48014e-19 0)
(0 -3.51072e-19 0)
(-3.68934e-31 -3.55433e-19 0)
(0 -3.58611e-19 0)
(0 -3.62305e-19 0)
(0 -3.66097e-19 0)
(-3.68673e-31 -3.69168e-19 0)
(0 -3.73366e-19 0)
(0 -3.77729e-19 0)
(0 -3.80866e-19 0)
(0 -3.84536e-19 0)
(0 -3.8966e-19 0)
(0 -3.92357e-19 0)
(0 -3.97121e-19 0)
(0 -4.01998e-19 0)
(0 -4.05114e-19 0)
(3.67975e-31 -4.09546e-19 0)
(0 -4.13785e-19 0)
(0 -4.20054e-19 0)
(0 -4.2214e-19 0)
(0 -4.27261e-19 0)
(0 -4.34174e-19 0)
(0 -4.35671e-19 0)
(3.67441e-31 -4.41958e-19 0)
(0 -4.47722e-19 0)
(0 -4.51434e-19 0)
(0 -4.58345e-19 0)
(0 -4.61317e-19 0)
(0 -4.65845e-19 0)
(0 -4.75152e-19 0)
(0 -4.78504e-19 0)
(3.66778e-31 -4.82844e-19 0)
(0 -4.90088e-19 0)
(0 -4.95961e-19 0)
(0 -5.00706e-19 0)
(0 -5.07903e-19 0)
(0 -5.13853e-19 0)
(0 -5.19543e-19 0)
(0 -5.27562e-19 0)
(0 -5.30971e-19 0)
(0 -5.39899e-19 0)
(0 -5.46966e-19 0)
(0 -5.52946e-19 0)
(0 -5.61258e-19 0)
(0 -5.67573e-19 0)
(0 -5.74779e-19 0)
(0 -5.82586e-19 0)
(0 -5.91514e-19 0)
(0 -5.9892e-19 0)
(0 -6.04867e-19 0)
(0 -6.14593e-19 0)
(0 -6.26117e-19 0)
(0 -6.31343e-19 0)
(0 -6.40068e-19 0)
(0 -6.51188e-19 0)
(0 -6.6083e-19 0)
(0 -6.7002e-19 0)
(0 -6.78394e-19 0)
(0 -6.8963e-19 0)
(0 -7.00681e-19 0)
(0 -7.10585e-19 0)
(0 -7.21377e-19 0)
(0 -7.33568e-19 0)
(0 -7.4516e-19 0)
(0 -7.57142e-19 0)
(0 -7.69535e-19 0)
(0 -7.82408e-19 0)
(0 -7.95468e-19 0)
(0 -8.08537e-19 0)
(0 -8.22558e-19 0)
(0 -8.37046e-19 0)
(0 -8.51742e-19 0)
(0 -8.67202e-19 0)
(0 -8.83319e-19 0)
(0 -8.99763e-19 0)
(0 -9.16743e-19 0)
(0 -9.34294e-19 0)
(0 -9.52378e-19 0)
(0 -9.71065e-19 0)
(0 -9.90473e-19 0)
(0 -1.01062e-18 0)
(0 -1.03151e-18 0)
(0 -1.05324e-18 0)
(0 -1.0758e-18 0)
(0 -1.0992e-18 0)
(0 -1.12347e-18 0)
(0 -1.14868e-18 0)
(0 -1.17486e-18 0)
(0 -1.20207e-18 0)
(0 -1.23038e-18 0)
(0 -1.25986e-18 0)
(0 -1.29056e-18 0)
(0 -1.32255e-18 0)
(0 -1.35594e-18 0)
(0 -1.3908e-18 0)
(0 -1.42726e-18 0)
(0 -1.46544e-18 0)
(0 -1.50548e-18 0)
(0 -1.54754e-18 0)
(0 -1.59181e-18 0)
(0 -1.63848e-18 0)
(0 -1.68771e-18 0)
(0 -1.73965e-18 0)
(0 -1.79441e-18 0)
(0 -1.85209e-18 0)
(0 -1.91293e-18 0)
(0 -1.97747e-18 0)
(0 -2.04661e-18 0)
(0 -2.12124e-18 0)
(0 -2.20159e-18 0)
(0 -2.2866e-18 0)
(0 -2.37561e-18 0)
(0 -2.47338e-18 0)
(0 -1.72127e-18 0)
(0 -7.50265e-18 0)
(0 -5.57463e-17 0)
(0 -4.30358e-16 0)
(0 -3.39707e-15 0)
(0 -2.83989e-14 0)
(0 -2.60104e-13 0)
(0 -2.56542e-12 0)
(0 -2.91497e-11 0)
(0 -1.44493e-09 0)
(0 -1.50715e-08 0)
(0 -9.75184e-09 0)
(0 -2.77445e-06 0)
(0 -0.000219425 0)
(0 -0.230048 0)
(0 -2.40394 0)
(0 -2.57954 0)
(0 -1.40277 0)
(0 -1.02387 0)
(0 -0.92639 0)
(0 -0.836764 0)
(0 -0.748199 0)
(0 -0.659176 0)
(0 -0.572293 0)
(0 -0.490676 0)
(0 -0.4166 0)
(0 -0.35124 0)
(0 -0.294771 0)
(0 -0.246703 0)
(0 -0.206191 0)
(0 -0.17226 0)
(0 -0.143943 0)
(0 -0.12035 0)
(0 -0.100701 0)
(0 -0.0843279 0)
(0 -0.0706726 0)
(0 -0.0592712 0)
(0 -0.0497465 0)
(0 -0.0418018 0)
(0 -0.0352086 0)
(0 -0.0297663 0)
(0 -0.0252376 0)
(0 -0.0213274 0)
(0 -0.0177743 0)
(0 -0.0144854 0)
(0 -0.011545 0)
(0 -0.00907888 0)
(0 -0.00713191 0)
(0 -0.00565491 0)
(0 -0.00455465 0)
(0 -0.00373697 0)
(0 -0.00312488 0)
(0 -0.00266092 0)
(0 -0.0023038 0)
(0 -0.0020243 0)
(0 -0.00180175 0)
(0 -0.00162146 0)
(0 -0.00147291 0)
(0 -0.00134851 0)
(0 -0.00124273 0)
(0 -0.00115149 0)
(0 -0.00107176 0)
(0 -0.00100128 0)
(0 -0.000938313 0)
(0 -0.000881532 0)
(0 -0.000829901 0)
(0 -0.000782596 0)
(0 -0.000738958 0)
(0 -0.00069845 0)
(0 -0.000660322 0)
(-5.13342e-19 -0.000623905 0)
(0 -0.000588966 0)
(0 -0.000555299 0)
(2.53358e-19 -0.000522726 0)
(0 -0.000491099 0)
(-2.49322e-19 -0.000460314 0)
(0 -0.000430303 0)
(2.43914e-19 -0.000401048 0)
(0 -0.000372572 0)
(0 -0.000344935 0)
(0 -0.00031822 0)
(2.29339e-19 -0.000292522 0)
(0 -0.00026793 0)
(0 -0.000244518 0)
(0 -0.000222339 0)
(0 -0.00020142 0)
(0 -0.00018176 0)
(-9.96744e-20 -0.000163338 0)
(0 -0.000146119 0)
(-4.68633e-20 -0.000130065 0)
(0 -0.000115142 0)
(-4.36768e-20 -0.000101333 0)
(0 -8.86486e-05 0)
(0 -7.71599e-05 0)
(0 -6.70398e-05 0)
(0 -5.85932e-05 0)
(1.79232e-20 -5.22326e-05 0)
(0 -4.81483e-05 0)
(0 -4.53956e-05 0)
(0 -4.15017e-05 0)
(0 -3.39224e-05 0)
(0 -2.35954e-05 0)
(0 -1.59604e-05 0)
(0 -1.35648e-05 0)
(0 -1.32759e-05 0)
(0 -1.01221e-05 0)
(0 -8.66906e-06 0)
(0 -6.98053e-06 0)
(0 -5.5879e-06 0)
(0 -4.44566e-06 0)
(0 -3.51183e-06 0)
(-1.51856e-21 -2.75163e-06 0)
(7.30254e-22 -2.13654e-06 0)
(0 -1.63943e-06 0)
(0 -1.24917e-06 0)
(-3.16137e-22 -9.26567e-07 0)
(0 -6.97936e-07 0)
(0 -4.83869e-07 0)
(-7.34303e-23 -3.64105e-07 0)
(0 -2.37186e-07 0)
(0 -1.73248e-07 0)
(0 -2.24673e-08 0)
(0 -1.00945e-19 0)
(0 -2.78856e-31 0)
(0 -1.10273e-42 0)
(0 -6.01307e-54 0)
(0 -5.21828e-65 0)
(0 -1.19201e-72 0)
(0 -5.894e-73 0)
(0 -2.67717e-73 0)
(0 -1.25872e-73 0)
(0 -5.82808e-74 0)
(0 -2.65074e-74 0)
(0 -1.18313e-74 0)
(6.76707e-91 -5.17518e-75 0)
(0 -2.21436e-75 0)
(0 -9.24725e-76 0)
(0 -3.75863e-76 0)
(0 -1.48217e-76 0)
(0 -5.64822e-77 0)
(0 -2.06939e-77 0)
(0 -7.23582e-78 0)
(0 -2.38655e-78 0)
(0 -7.27159e-79 0)
(0 -1.95788e-79 0)
(0 -4.09743e-80 0)
(0 -3.72879e-81 0)
(0 -6.28118e-83 0)
(0 -3.16438e-85 0)
(0 -1.32998e-87 0)
(0 -5.1051e-90 0)
(0 -1.79028e-92 0)
(0 -5.71527e-95 0)
(0 -1.33658e-97 0)
(1.83494e-116 -1.45084e-100 0)
(0 -3.11046e-101 0)
(0 -8.25612e-102 0)
(0 -2.10472e-102 0)
(0 -5.14181e-103 0)
(0 -1.20082e-103 0)
(0 -2.67363e-104 0)
(0 -5.65817e-105 0)
(0 -1.13431e-105 0)
(0 -2.14589e-106 0)
(2.78161e-123 -3.81434e-107 0)
(0 -6.33873e-108 0)
(0 -9.79143e-109 0)
(-1.023e-125 -1.39639e-109 0)
(0 -1.82384e-110 0)
(0 -2.16048e-111 0)
(0 -2.29337e-112 0)
(0 -2.14855e-113 0)
(0 -1.74155e-114 0)
(0 -1.18875e-115 0)
(0 -6.57124e-117 0)
(0 -2.76674e-118 0)
(0 -7.94254e-120 0)
(0 -1.19406e-121 0)
(0 -1.12795e-124 0)
(0 -5.73419e-132 0)
(0 -3.21528e-134 0)
(0 -8.9109e-137 0)
(0 -3.88616e-147 0)
(0 -8.69136e-158 0)
(0 -1.48094e-168 0)
(0 -1.83508e-179 0)
(0 -2.00822e-190 0)
(0 -1.68112e-201 0)
(0 -1.22141e-212 0)
(0 -1.74301e-223 0)
(0 -6.82617e-234 0)
(0 -3.44882e-242 0)
(0 -1.85652e-252 0)
(0 -1.18598e-260 0)
(0 -7.59542e-271 0)
(0 -4.08441e-279 0)
(0 -3.21878e-289 0)
(0 -1.40932e-297 0)
(0 -2.07952e-307 0)
(0 -5.02319e-316 0)
(0 -0 0)
(0 -0 0)
(0 0 0)
(0 0 0)
(0 0 0)
(0 0 0)
(0 0 0)
(0 0 0)
(0 0 0)
(0 0 0)
(0 0 0)
(0 0 0)
(0 0 0)
(0 0 0)
(0 0 0)
(0 0 0)
(0 0 0)
(0 0 0)
(0 0 0)
(0 0 0)
(0 0 0)
(0 0 0)
(0 0 0)
(0 0 0)
(0 0 0)
(0 0 0)
(0 0 0)
(0 0 0)
)
;

boundaryField
{
    inandouthalf11
    {
        type            cyclic;
    }
    inandouthalf12
    {
        type            cyclic;
    }
    inandouthalf21
    {
        type            cyclic;
    }
    inandouthalf22
    {
        type            cyclic;
    }
    inandouthalf31
    {
        type            cyclic;
    }
    inandouthalf32
    {
        type            cyclic;
    }
    inandouthalf41
    {
        type            cyclic;
    }
    inandouthalf42
    {
        type            cyclic;
    }
    top
    {
        type            symmetryPlane;
    }
    walls
    {
        type            zeroGradient;
    }
    frontAndBackPlanes
    {
        type            empty;
    }
}


// ************************************************************************* //
