/*--------------------------------*- C++ -*----------------------------------*\
| =========                 |                                                 |
| \\      /  F ield         | OpenFOAM: The Open Source CFD Toolbox           |
|  \\    /   O peration     | Version:  2.4.x                                 |
|   \\  /    A nd           | Web:      www.OpenFOAM.org                      |
|    \\/     M anipulation  |                                                 |
\*---------------------------------------------------------------------------*/
FoamFile
{
    version     2.0;
    format      ascii;
    class       volTensorField;
    location    "12.05";
    object      Tauf;
}
// * * * * * * * * * * * * * * * * * * * * * * * * * * * * * * * * * * * * * //

dimensions      [0 2 -2 0 0 0 0];

internalField   nonuniform List<tensor> 
360
(
(0 -4.74889e-08 0 -4.74889e-08 1.08066e-11 0 0 0 0)
(0 1.49623e-10 0 1.49623e-10 1.31368e-11 0 0 0 0)
(0 -1.59414e-12 0 -1.59414e-12 1.38638e-11 0 0 0 0)
(0 -2.78137e-11 0 -2.78137e-11 1.36455e-11 0 0 0 0)
(6.46235e-24 -1.25838e-11 0 -1.25838e-11 1.40909e-11 0 0 0 0)
(6.46235e-24 -7.67253e-12 0 -7.67253e-12 1.47121e-11 0 0 0 0)
(3.23117e-24 -9.49243e-12 0 -9.49243e-12 1.52254e-11 0 0 0 0)
(0 -1.06728e-11 0 -1.06728e-11 1.56855e-11 0 0 0 0)
(3.23117e-24 -1.089e-11 0 -1.089e-11 1.61646e-11 0 0 0 0)
(0 -1.10373e-11 0 -1.10373e-11 1.66723e-11 0 0 0 0)
(6.46235e-24 -1.11429e-11 0 -1.11429e-11 1.71884e-11 0 0 0 0)
(0 -1.12521e-11 0 -1.12521e-11 1.76918e-11 0 0 0 0)
(6.46235e-24 -1.14006e-11 0 -1.14006e-11 1.81702e-11 0 0 0 0)
(0 -1.15485e-11 0 -1.15485e-11 1.8617e-11 0 0 0 0)
(0 -1.1718e-11 0 -1.1718e-11 1.90287e-11 0 0 0 0)
(0 -1.1885e-11 0 -1.1885e-11 1.94024e-11 0 0 0 0)
(0 -1.20253e-11 0 -1.20253e-11 1.97339e-11 0 0 0 0)
(6.46235e-24 -1.21525e-11 0 -1.21525e-11 2.00189e-11 0 0 0 0)
(0 -1.23145e-11 0 -1.23145e-11 2.02561e-11 0 0 0 0)
(0 -1.24358e-11 0 -1.24358e-11 2.04442e-11 0 0 0 0)
(0 -1.25549e-11 0 -1.25549e-11 2.05823e-11 0 0 0 0)
(6.46235e-24 -1.27058e-11 0 -1.27058e-11 2.06727e-11 0 0 0 0)
(0 -1.28174e-11 0 -1.28174e-11 2.07166e-11 0 0 0 0)
(0 -1.29384e-11 0 -1.29384e-11 2.07154e-11 0 0 0 0)
(0 -1.30571e-11 0 -1.30571e-11 2.06716e-11 0 0 0 0)
(6.46235e-24 -1.31501e-11 0 -1.31501e-11 2.05869e-11 0 0 0 0)
(0 -1.3271e-11 0 -1.3271e-11 2.04652e-11 0 0 0 0)
(0 -1.33925e-11 0 -1.33925e-11 2.03109e-11 0 0 0 0)
(0 -1.3475e-11 0 -1.3475e-11 2.01258e-11 0 0 0 0)
(0 -1.35693e-11 0 -1.35693e-11 1.99128e-11 0 0 0 0)
(0 -1.37023e-11 0 -1.37023e-11 1.96773e-11 0 0 0 0)
(0 -1.37629e-11 0 -1.37629e-11 1.94209e-11 0 0 0 0)
(0 -1.38807e-11 0 -1.38807e-11 1.91479e-11 0 0 0 0)
(0 -1.4e-11 0 -1.4e-11 1.88625e-11 0 0 0 0)
(0 -1.40671e-11 0 -1.40671e-11 1.85657e-11 0 0 0 0)
(-3.23117e-24 -1.41707e-11 0 -1.41707e-11 1.82605e-11 0 0 0 0)
(0 -1.42681e-11 0 -1.42681e-11 1.79498e-11 0 0 0 0)
(0 -1.44235e-11 0 -1.44235e-11 1.76387e-11 0 0 0 0)
(0 -1.44581e-11 0 -1.44581e-11 1.73256e-11 0 0 0 0)
(0 -1.45802e-11 0 -1.45802e-11 1.70129e-11 0 0 0 0)
(0 -1.47543e-11 0 -1.47543e-11 1.67056e-11 0 0 0 0)
(0 -1.47725e-11 0 -1.47725e-11 1.64002e-11 0 0 0 0)
(-6.46235e-24 -1.49294e-11 0 -1.49294e-11 1.61008e-11 0 0 0 0)
(0 -1.50723e-11 0 -1.50723e-11 1.58097e-11 0 0 0 0)
(0 -1.51569e-11 0 -1.51569e-11 1.55254e-11 0 0 0 0)
(0 -1.53349e-11 0 -1.53349e-11 1.52509e-11 0 0 0 0)
(0 -1.53999e-11 0 -1.53999e-11 1.49828e-11 0 0 0 0)
(0 -1.55109e-11 0 -1.55109e-11 1.47218e-11 0 0 0 0)
(0 -1.57619e-11 0 -1.57619e-11 1.44742e-11 0 0 0 0)
(0 -1.58418e-11 0 -1.58418e-11 1.4236e-11 0 0 0 0)
(-6.46235e-24 -1.59515e-11 0 -1.59515e-11 1.40061e-11 0 0 0 0)
(0 -1.61466e-11 0 -1.61466e-11 1.37862e-11 0 0 0 0)
(0 -1.63035e-11 0 -1.63035e-11 1.3576e-11 0 0 0 0)
(0 -1.64289e-11 0 -1.64289e-11 1.33744e-11 0 0 0 0)
(0 -1.66269e-11 0 -1.66269e-11 1.3183e-11 0 0 0 0)
(0 -1.67901e-11 0 -1.67901e-11 1.30003e-11 0 0 0 0)
(0 -1.6947e-11 0 -1.6947e-11 1.28252e-11 0 0 0 0)
(0 -1.71728e-11 0 -1.71728e-11 1.26597e-11 0 0 0 0)
(0 -1.72656e-11 0 -1.72656e-11 1.24983e-11 0 0 0 0)
(0 -1.75203e-11 0 -1.75203e-11 1.23461e-11 0 0 0 0)
(0 -1.77223e-11 0 -1.77223e-11 1.22017e-11 0 0 0 0)
(0 -1.78939e-11 0 -1.78939e-11 1.20641e-11 0 0 0 0)
(0 -1.81347e-11 0 -1.81347e-11 1.19344e-11 0 0 0 0)
(0 -1.83184e-11 0 -1.83184e-11 1.18094e-11 0 0 0 0)
(0 -1.8529e-11 0 -1.8529e-11 1.16894e-11 0 0 0 0)
(0 -1.87583e-11 0 -1.87583e-11 1.15738e-11 0 0 0 0)
(0 -1.90214e-11 0 -1.90214e-11 1.14637e-11 0 0 0 0)
(0 -1.9241e-11 0 -1.9241e-11 1.13574e-11 0 0 0 0)
(0 -1.94184e-11 0 -1.94184e-11 1.12523e-11 0 0 0 0)
(0 -1.97076e-11 0 -1.97076e-11 1.1151e-11 0 0 0 0)
(0 -2.00509e-11 0 -2.00509e-11 1.10565e-11 0 0 0 0)
(0 -2.02103e-11 0 -2.02103e-11 1.09626e-11 0 0 0 0)
(0 -2.0473e-11 0 -2.0473e-11 1.08712e-11 0 0 0 0)
(0 -2.08072e-11 0 -2.08072e-11 1.07831e-11 0 0 0 0)
(0 -2.10991e-11 0 -2.10991e-11 1.06975e-11 0 0 0 0)
(0 -2.13785e-11 0 -2.13785e-11 1.06138e-11 0 0 0 0)
(0 -2.16343e-11 0 -2.16343e-11 1.05286e-11 0 0 0 0)
(0 -2.19751e-11 0 -2.19751e-11 1.04439e-11 0 0 0 0)
(0 -2.23114e-11 0 -2.23114e-11 1.03596e-11 0 0 0 0)
(0 -2.26145e-11 0 -2.26145e-11 1.02749e-11 0 0 0 0)
(0 -2.29446e-11 0 -2.29446e-11 1.019e-11 0 0 0 0)
(0 -2.33169e-11 0 -2.33169e-11 1.0106e-11 0 0 0 0)
(0 -2.36726e-11 0 -2.36726e-11 1.00222e-11 0 0 0 0)
(0 -2.40408e-11 0 -2.40408e-11 9.93879e-12 0 0 0 0)
(0 -2.44221e-11 0 -2.44221e-11 9.85503e-12 0 0 0 0)
(0 -2.48185e-11 0 -2.48185e-11 9.7704e-12 0 0 0 0)
(0 -2.52213e-11 0 -2.52213e-11 9.68419e-12 0 0 0 0)
(0 -2.56251e-11 0 -2.56251e-11 9.59538e-12 0 0 0 0)
(0 -2.6058e-11 0 -2.6058e-11 9.50418e-12 0 0 0 0)
(0 -2.65057e-11 0 -2.65057e-11 9.4106e-12 0 0 0 0)
(0 -2.69605e-11 0 -2.69605e-11 9.31478e-12 0 0 0 0)
(0 -2.74392e-11 0 -2.74392e-11 9.21735e-12 0 0 0 0)
(0 -2.79388e-11 0 -2.79388e-11 9.11871e-12 0 0 0 0)
(0 -2.84496e-11 0 -2.84496e-11 9.0189e-12 0 0 0 0)
(0 -2.89778e-11 0 -2.89778e-11 8.9179e-12 0 0 0 0)
(0 -2.95245e-11 0 -2.95245e-11 8.81543e-12 0 0 0 0)
(0 -3.00888e-11 0 -3.00888e-11 8.71115e-12 0 0 0 0)
(0 -3.06727e-11 0 -3.06727e-11 8.60484e-12 0 0 0 0)
(0 -3.12799e-11 0 -3.12799e-11 8.49647e-12 0 0 0 0)
(0 -3.19111e-11 0 -3.19111e-11 8.38616e-12 0 0 0 0)
(0 -3.25669e-11 0 -3.25669e-11 8.27419e-12 0 0 0 0)
(0 -3.32499e-11 0 -3.32499e-11 8.161e-12 0 0 0 0)
(0 -3.39606e-11 0 -3.39606e-11 8.04701e-12 0 0 0 0)
(0 -3.4699e-11 0 -3.4699e-11 7.93261e-12 0 0 0 0)
(0 -3.5467e-11 0 -3.5467e-11 7.81818e-12 0 0 0 0)
(0 -3.62662e-11 0 -3.62662e-11 7.70405e-12 0 0 0 0)
(0 -3.70983e-11 0 -3.70983e-11 7.59051e-12 0 0 0 0)
(0 -3.79656e-11 0 -3.79656e-11 7.47788e-12 0 0 0 0)
(0 -3.88704e-11 0 -3.88704e-11 7.36637e-12 0 0 0 0)
(0 -3.98146e-11 0 -3.98146e-11 7.25616e-12 0 0 0 0)
(0 -4.08008e-11 0 -4.08008e-11 7.14727e-12 0 0 0 0)
(0 -4.18316e-11 0 -4.18316e-11 7.03952e-12 0 0 0 0)
(0 -4.29099e-11 0 -4.29099e-11 6.93249e-12 0 0 0 0)
(0 -4.40391e-11 0 -4.40391e-11 6.82547e-12 0 0 0 0)
(0 -4.52228e-11 0 -4.52228e-11 6.71741e-12 0 0 0 0)
(0 -4.64651e-11 0 -4.64651e-11 6.60694e-12 0 0 0 0)
(0 -4.77707e-11 0 -4.77707e-11 6.4924e-12 0 0 0 0)
(0 -4.91449e-11 0 -4.91449e-11 6.37189e-12 0 0 0 0)
(0 -5.05935e-11 0 -5.05935e-11 6.2435e-12 0 0 0 0)
(0 -5.21228e-11 0 -5.21228e-11 6.10544e-12 0 0 0 0)
(0 -5.37386e-11 0 -5.37386e-11 5.95644e-12 0 0 0 0)
(0 -5.54463e-11 0 -5.54463e-11 5.79604e-12 0 0 0 0)
(0 -5.725e-11 0 -5.725e-11 5.62515e-12 0 0 0 0)
(0 -5.91549e-11 0 -5.91549e-11 5.44654e-12 0 0 0 0)
(0 -6.1171e-11 0 -6.1171e-11 5.26534e-12 0 0 0 0)
(0 -6.33184e-11 0 -6.33184e-11 5.0893e-12 0 0 0 0)
(0 -6.56294e-11 0 -6.56294e-11 4.9285e-12 0 0 0 0)
(0 -6.81384e-11 0 -6.81384e-11 4.79401e-12 0 0 0 0)
(0 -7.08574e-11 0 -7.08574e-11 4.69522e-12 0 0 0 0)
(0 -7.37589e-11 0 -7.37589e-11 4.63558e-12 0 0 0 0)
(0 -7.68246e-11 0 -7.68246e-11 4.60709e-12 0 0 0 0)
(0 -8.02056e-11 0 -8.02056e-11 4.58539e-12 0 0 0 0)
(0 -8.43239e-11 0 -8.43239e-11 4.52643e-12 0 0 0 0)
(0 -8.95101e-11 0 -8.95101e-11 4.35864e-12 0 0 0 0)
(0 -9.53666e-11 0 -9.53666e-11 3.97107e-12 0 0 0 0)
(0 -1.01141e-10 0 -1.01141e-10 3.23814e-12 0 0 0 0)
(0 -1.07347e-10 0 -1.07347e-10 2.11507e-12 0 0 0 0)
(0 -1.16559e-10 0 -1.16559e-10 7.44534e-13 0 0 0 0)
(0 -1.308e-10 0 -1.308e-10 -5.37663e-13 0 0 0 0)
(0 -1.44714e-10 0 -1.44714e-10 -1.60951e-12 0 0 0 0)
(0 -1.64319e-10 0 -1.64319e-10 -8.36395e-12 0 0 0 0)
(0 -7.04568e-10 0 -7.04568e-10 -2.33864e-12 0 0 0 0)
(0 -5.23916e-10 0 -5.23916e-10 -2.87694e-12 0 0 0 0)
(0 -2.17747e-11 0 -2.17747e-11 -7.30436e-11 0 0 0 0)
(0 -4.17195e-10 0 -4.17195e-10 5.5579e-10 0 0 0 0)
(0 -1.12421e-07 0 -1.12421e-07 -2.05536e-09 0 0 0 0)
(0 -4.36346e-05 0 -4.36346e-05 1.74516e-08 0 0 0 0)
(0 -0.00060525 0 -0.00060525 3.11999e-07 0 0 0 0)
(0 -0.00256073 0 -0.00256073 4.10969e-07 0 0 0 0)
(0 -0.00345137 0 -0.00345137 -5.57917e-07 0 0 0 0)
(0 -0.00375108 0 -0.00375108 -2.53719e-07 0 0 0 0)
(0 -0.00385429 0 -0.00385429 -5.64321e-07 0 0 0 0)
(0 -0.00386009 0 -0.00386009 -7.65826e-07 0 0 0 0)
(0 -0.00381195 0 -0.00381195 -9.42176e-07 0 0 0 0)
(0 -0.0037352 0 -0.0037352 -1.06126e-06 0 0 0 0)
(0 -0.00364395 0 -0.00364395 -1.0991e-06 0 0 0 0)
(0 -0.0035458 0 -0.0035458 -1.05112e-06 0 0 0 0)
(0 -0.00344456 0 -0.00344456 -9.31772e-07 0 0 0 0)
(0 -0.0033419 0 -0.0033419 -7.6329e-07 0 0 0 0)
(0 -0.00323838 0 -0.00323838 -5.68055e-07 0 0 0 0)
(0 -0.00313403 0 -0.00313403 -3.66795e-07 0 0 0 0)
(0 -0.00302868 0 -0.00302868 -1.74993e-07 0 0 0 0)
(0 -0.00292212 0 -0.00292212 -2.62407e-09 0 0 0 0)
(0 -0.00281418 0 -0.00281418 1.44833e-07 0 0 0 0)
(0 -0.0027048 0 -0.0027048 2.65228e-07 0 0 0 0)
(0 -0.00259398 0 -0.00259398 3.58714e-07 0 0 0 0)
(0 -0.0024818 0 -0.0024818 4.26966e-07 0 0 0 0)
(0 -0.00236841 0 -0.00236841 4.72552e-07 0 0 0 0)
(0 -0.00225406 0 -0.00225406 4.98535e-07 0 0 0 0)
(0 -0.00213903 0 -0.00213903 5.08426e-07 0 0 0 0)
(0 -0.00202366 0 -0.00202366 5.06425e-07 0 0 0 0)
(0 -0.00190835 0 -0.00190835 4.97211e-07 0 0 0 0)
(0 -0.00179353 0 -0.00179353 4.8424e-07 0 0 0 0)
(0 -0.00167968 0 -0.00167968 4.66934e-07 0 0 0 0)
(0 -0.00156731 0 -0.00156731 4.39991e-07 0 0 0 0)
(0 -0.00145698 0 -0.00145698 3.97683e-07 0 0 0 0)
(0 -0.00134925 0 -0.00134925 3.40223e-07 0 0 0 0)
(0 -0.00124472 0 -0.00124472 2.75327e-07 0 0 0 0)
(0 -0.00114394 0 -0.00114394 2.13239e-07 0 0 0 0)
(0 -0.00104741 0 -0.00104741 1.60868e-07 0 0 0 0)
(0 -0.00095552 0 -0.00095552 1.20099e-07 0 0 0 0)
(0 -0.000868544 0 -0.000868544 8.95947e-08 0 0 0 0)
(0 -0.00078661 0 -0.00078661 6.70251e-08 0 0 0 0)
(0 -0.000709722 0 -0.000709722 5.02524e-08 0 0 0 0)
(0 -0.000637762 0 -0.000637762 3.764e-08 0 0 0 0)
(0 -0.000570522 0 -0.000570522 2.80094e-08 0 0 0 0)
(0 -0.000507727 0 -0.000507727 2.05418e-08 0 0 0 0)
(0 -0.000449058 0 -0.000449058 1.46662e-08 0 0 0 0)
(0 -0.000394179 0 -0.000394179 9.97667e-09 0 0 0 0)
(0 -0.000342753 0 -0.000342753 6.18829e-09 0 0 0 0)
(0 -0.000294457 0 -0.000294457 3.09909e-09 0 0 0 0)
(0 -0.000248987 0 -0.000248987 5.63708e-10 0 0 0 0)
(0 -0.000206067 0 -0.000206067 -1.52433e-09 0 0 0 0)
(0 -0.000165449 0 -0.000165449 -3.24462e-09 0 0 0 0)
(0 -0.000126912 0 -0.000126912 -4.65793e-09 0 0 0 0)
(0 -9.0265e-05 0 -9.0265e-05 -5.81175e-09 0 0 0 0)
(0 -5.53379e-05 0 -5.53379e-05 -6.74401e-09 0 0 0 0)
(0 -2.1985e-05 0 -2.1985e-05 -7.48569e-09 0 0 0 0)
(0 9.92016e-06 0 9.92016e-06 -8.06252e-09 0 0 0 0)
(0 4.04872e-05 0 4.04872e-05 -8.49628e-09 0 0 0 0)
(0 6.98113e-05 0 6.98113e-05 -8.80592e-09 0 0 0 0)
(0 9.82455e-05 0 9.82455e-05 -9.00896e-09 0 0 0 0)
(4.36107e-17 0.000126118 0 0.000126118 -9.11766e-09 0 0 0 0)
(0 0.00015344 0 0.00015344 -9.13985e-09 0 0 0 0)
(0 0.000180219 0 0.000180219 -9.0833e-09 0 0 0 0)
(-4.39574e-17 0.000206457 0 0.000206457 -8.95571e-09 0 0 0 0)
(0 0.000232153 0 0.000232153 -8.76483e-09 0 0 0 0)
(4.39421e-17 0.000257302 0 0.000257302 -8.51854e-09 0 0 0 0)
(0 0.000281895 0 0.000281895 -8.22489e-09 0 0 0 0)
(-4.3742e-17 0.00030592 0 0.00030592 -7.89215e-09 0 0 0 0)
(0 0.000329362 0 0.000329362 -7.52863e-09 0 0 0 0)
(0 0.000352204 0 0.000352204 -7.14256e-09 0 0 0 0)
(0 0.000374424 0 0.000374424 -6.74179e-09 0 0 0 0)
(-4.28451e-17 0.000396 0 0.000396 -6.33355e-09 0 0 0 0)
(0 0.000416906 0 0.000416906 -5.9242e-09 0 0 0 0)
(0 0.000437116 0 0.000437116 -5.51905e-09 0 0 0 0)
(0 0.0004566 0 0.0004566 -5.12233e-09 0 0 0 0)
(0 0.000475327 0 0.000475327 -4.73716e-09 0 0 0 0)
(0 0.000493263 0 0.000493263 -4.36565e-09 0 0 0 0)
(4.04873e-17 0.000510376 0 0.000510376 -4.00913e-09 0 0 0 0)
(0 0.000526627 0 0.000526627 -3.66835e-09 0 0 0 0)
(3.94863e-17 0.00054198 0 0.00054198 -3.34374e-09 0 0 0 0)
(0 0.000556397 0 0.000556397 -3.03546e-09 0 0 0 0)
(3.8396e-17 0.000569838 0 0.000569838 -2.74394e-09 0 0 0 0)
(0 0.000582261 0 0.000582261 -2.47025e-09 0 0 0 0)
(0 0.000593624 0 0.000593624 -2.21666e-09 0 0 0 0)
(0 0.000603887 0 0.000603887 -1.98746e-09 0 0 0 0)
(0 0.000613003 0 0.000613003 -1.78873e-09 0 0 0 0)
(-3.53332e-17 0.000620931 0 0.000620931 -1.62507e-09 0 0 0 0)
(-3.46692e-17 0.000627626 0 0.000627626 -1.49052e-09 0 0 0 0)
(0 0.000633044 0 0.000633044 -1.35533e-09 0 0 0 0)
(0 0.000637139 0 0.000637139 -1.16845e-09 0 0 0 0)
(0 0.000639869 0 0.000639869 -9.03339e-10 0 0 0 0)
(0 0.000641189 0 0.000641189 -6.16595e-10 0 0 0 0)
(0 0.000641057 0 0.000641057 -4.12501e-10 0 0 0 0)
(0 0.000639433 0 0.000639433 -3.16823e-10 0 0 0 0)
(0 0.000636275 0 0.000636275 -2.79637e-10 0 0 0 0)
(0 0.000631544 0 0.000631544 -2.62881e-10 0 0 0 0)
(0 0.000625206 0 0.000625206 -2.40323e-10 0 0 0 0)
(0 0.000617231 0 0.000617231 -2.06336e-10 0 0 0 0)
(0 0.000607593 0 0.000607593 -1.72342e-10 0 0 0 0)
(0 0.000596269 0 0.000596269 -1.41468e-10 0 0 0 0)
(0 0.000583245 0 0.000583245 -1.13976e-10 0 0 0 0)
(4.78968e-17 0.000568511 0 0.000568511 -8.993e-11 0 0 0 0)
(-4.62022e-17 0.000552067 0 0.000552067 -6.93911e-11 0 0 0 0)
(0 0.000533926 0 0.000533926 -5.22764e-11 0 0 0 0)
(0 0.000514109 0 0.000514109 -3.83769e-11 0 0 0 0)
(0 0.000492653 0 0.000492653 -2.73546e-11 0 0 0 0)
(0 0.000469612 0 0.000469612 -1.89712e-11 0 0 0 0)
(0 0.000445058 0 0.000445058 -1.26628e-11 0 0 0 0)
(3.58104e-17 0.000419087 0 0.000419087 -7.13989e-12 0 0 0 0)
(0 0.000391817 0 0.000391817 -3.12236e-12 0 0 0 0)
(0 0.000363396 0 0.000363396 -2.25235e-12 0 0 0 0)
(0 0.000334004 0 0.000334004 -2.11237e-12 0 0 0 0)
(0 0.000303856 0 0.000303856 -7.35265e-13 0 0 0 0)
(0 0.000273204 0 0.000273204 1.10849e-13 0 0 0 0)
(0 0.000242339 0 0.000242339 5.91134e-14 0 0 0 0)
(0 0.000211592 0 0.000211592 -6.26565e-15 0 0 0 0)
(0 0.000181329 0 0.000181329 -1.10458e-14 0 0 0 0)
(0 0.000151947 0 0.000151947 -5.25125e-15 0 0 0 0)
(0 0.000123861 0 0.000123861 -3.03375e-15 0 0 0 0)
(0 9.74856e-05 0 9.74856e-05 -2.30542e-15 0 0 0 0)
(0 7.32137e-05 0 7.32137e-05 -1.85644e-15 0 0 0 0)
(0 5.13899e-05 0 5.13899e-05 -2.00152e-15 0 0 0 0)
(0 3.22848e-05 0 3.22848e-05 -2.52943e-15 0 0 0 0)
(0 1.6074e-05 0 1.6074e-05 -2.75489e-15 0 0 0 0)
(-1.20755e-17 2.82816e-06 0 2.82816e-06 -2.70193e-15 0 0 0 0)
(0 -7.48655e-06 0 -7.48655e-06 -1.64254e-15 0 0 0 0)
(0 -1.4997e-05 0 -1.4997e-05 3.54269e-15 0 0 0 0)
(0 -1.99064e-05 0 -1.99064e-05 6.59581e-15 0 0 0 0)
(0 -2.24767e-05 0 -2.24767e-05 -1.26874e-13 0 0 0 0)
(0 -2.30129e-05 0 -2.30129e-05 3.75479e-13 0 0 0 0)
(0 -2.18498e-05 0 -2.18498e-05 -6.72271e-13 0 0 0 0)
(0 -1.93426e-05 0 -1.93426e-05 9.2201e-13 0 0 0 0)
(0 -1.58595e-05 0 -1.58595e-05 -1.06401e-12 0 0 0 0)
(0 -1.17807e-05 0 -1.17807e-05 1.05686e-12 0 0 0 0)
(0 -7.50805e-06 0 -7.50805e-06 -8.86952e-13 0 0 0 0)
(0 -3.34444e-06 0 -3.34444e-06 5.67855e-13 0 0 0 0)
(0 -4.95187e-07 0 -4.95187e-07 -1.8052e-13 0 0 0 0)
(0 -2.55e-08 0 -2.55e-08 4.93071e-14 0 0 0 0)
(0 -8.69291e-10 0 -8.69291e-10 -4.2212e-14 0 0 0 0)
(0 -1.20781e-11 0 -1.20781e-11 4.131e-14 0 0 0 0)
(0 -1.05522e-13 0 -1.05522e-13 -4.04751e-14 0 0 0 0)
(0 2.63888e-14 0 2.63888e-14 3.9699e-14 0 0 0 0)
(0 1.83144e-14 0 1.83144e-14 -3.89172e-14 0 0 0 0)
(0 1.17912e-14 0 1.17912e-14 3.81944e-14 0 0 0 0)
(-1.50452e-19 7.57157e-15 0 7.57157e-15 -3.74483e-14 0 0 0 0)
(0 4.78457e-15 0 4.78457e-15 3.67691e-14 0 0 0 0)
(0 2.97755e-15 0 2.97755e-15 -3.60491e-14 0 0 0 0)
(0 1.80477e-15 0 1.80477e-15 3.53834e-14 0 0 0 0)
(0 1.12697e-15 0 1.12697e-15 -3.46792e-14 0 0 0 0)
(0 7.55396e-16 0 7.55396e-16 3.40268e-14 0 0 0 0)
(0 4.63239e-16 0 4.63239e-16 -3.33257e-14 0 0 0 0)
(0 2.29691e-16 0 2.29691e-16 3.26731e-14 0 0 0 0)
(0 9.43853e-17 0 9.43853e-17 -3.19689e-14 0 0 0 0)
(0 1.62602e-17 0 1.62602e-17 3.13113e-14 0 0 0 0)
(-1.23064e-19 3.82421e-17 0 3.82421e-17 -3.06101e-14 0 0 0 0)
(0 7.73448e-17 0 7.73448e-17 2.99204e-14 0 0 0 0)
(0 1.52203e-17 0 1.52203e-17 -2.92148e-14 0 0 0 0)
(1.15864e-19 -4.6143e-17 0 -4.6143e-17 2.85234e-14 0 0 0 0)
(0 5.91361e-17 0 5.91361e-17 -2.77878e-14 0 0 0 0)
(0 5.82936e-17 0 5.82936e-17 2.70633e-14 0 0 0 0)
(0 -3.3844e-17 0 -3.3844e-17 -2.63214e-14 0 0 0 0)
(0 2.21049e-17 0 2.21049e-17 2.55731e-14 0 0 0 0)
(0 -1.02982e-16 0 -1.02982e-16 -2.4807e-14 0 0 0 0)
(0 -1.12256e-16 0 -1.12256e-16 2.40325e-14 0 0 0 0)
(0 1.23914e-16 0 1.23914e-16 -2.32386e-14 0 0 0 0)
(0 1.70951e-16 0 1.70951e-16 2.24311e-14 0 0 0 0)
(0 -2.63981e-17 0 -2.63981e-17 -2.16052e-14 0 0 0 0)
(0 -1.87129e-16 0 -1.87129e-16 2.07854e-14 0 0 0 0)
(0 -1.38172e-16 0 -1.38172e-16 -2.28473e-14 0 0 0 0)
(0 -6.86626e-17 0 -6.86626e-17 2.25519e-14 0 0 0 0)
(0 3.34049e-17 0 3.34049e-17 -2.22808e-14 0 0 0 0)
(0 4.94455e-17 0 4.94455e-17 2.20079e-14 0 0 0 0)
(0 2.79521e-17 0 2.79521e-17 -2.17336e-14 0 0 0 0)
(0 4.34898e-17 0 4.34898e-17 2.14559e-14 0 0 0 0)
(0 5.02926e-18 0 5.02926e-18 -2.11788e-14 0 0 0 0)
(0 -1.0482e-17 0 -1.0482e-17 2.0898e-14 0 0 0 0)
(0 -2.73962e-17 0 -2.73962e-17 -2.06172e-14 0 0 0 0)
(0 -1.11835e-16 0 -1.11835e-16 2.03315e-14 0 0 0 0)
(0 -3.90429e-17 0 -3.90429e-17 -2.00476e-14 0 0 0 0)
(0 1.00188e-16 0 1.00188e-16 1.97569e-14 0 0 0 0)
(0 5.43689e-17 0 5.43689e-17 -1.94686e-14 0 0 0 0)
(0 -1.92965e-17 0 -1.92965e-17 1.91733e-14 0 0 0 0)
(0 3.97047e-19 0 3.97047e-19 -1.88801e-14 0 0 0 0)
(0 3.1499e-18 0 3.1499e-18 1.85785e-14 0 0 0 0)
(0 3.944e-18 0 3.944e-18 -1.8279e-14 0 0 0 0)
(0 1.83171e-17 0 1.83171e-17 1.79668e-14 0 0 0 0)
(0 -2.14405e-17 0 -2.14405e-17 -1.76829e-14 0 0 0 0)
(0 3.1499e-18 0 3.1499e-18 1.73322e-14 0 0 0 0)
(0 9.07913e-18 0 9.07913e-18 -1.70551e-14 0 0 0 0)
(0 -3.38284e-17 0 -3.38284e-17 1.67033e-14 0 0 0 0)
(0 -1.83965e-17 0 -1.83965e-17 -1.64089e-14 0 0 0 0)
(0 3.25049e-17 0 3.25049e-17 1.60553e-14 0 0 0 0)
(0 1.49554e-17 0 1.49554e-17 -1.57303e-14 0 0 0 0)
(0 2.25787e-17 0 2.25787e-17 1.53908e-14 0 0 0 0)
(0 2.39022e-17 0 2.39022e-17 -1.50551e-14 0 0 0 0)
(0 -3.19755e-17 0 -3.19755e-17 1.46854e-14 0 0 0 0)
(0 -1.03576e-16 0 -1.03576e-16 -1.43261e-14 0 0 0 0)
(0 -1.96432e-16 0 -1.96432e-16 1.39833e-14 0 0 0 0)
(0 -4.21478e-16 0 -4.21478e-16 -1.35749e-14 0 0 0 0)
(0 -3.92547e-17 0 -3.92547e-17 1.32345e-14 0 0 0 0)
(0 4.04749e-16 0 4.04749e-16 -1.2775e-14 0 0 0 0)
(0 2.2682e-16 0 2.2682e-16 1.24562e-14 0 0 0 0)
(0 9.19825e-17 0 9.19825e-17 -1.19621e-14 0 0 0 0)
(0 2.70786e-17 0 2.70786e-17 1.16022e-14 0 0 0 0)
(0 4.05252e-17 0 4.05252e-17 -1.10772e-14 0 0 0 0)
(0 1.32084e-17 0 1.32084e-17 1.07123e-14 0 0 0 0)
(0 -2.76609e-17 0 -2.76609e-17 -1.01254e-14 0 0 0 0)
(0 -8.93884e-17 0 -8.93884e-17 9.72549e-15 0 0 0 0)
(0 2.05141e-17 0 2.05141e-17 -9.08918e-15 0 0 0 0)
(0 1.70968e-16 0 1.70968e-16 8.64496e-15 0 0 0 0)
(0 1.00188e-16 0 1.00188e-16 -7.90091e-15 0 0 0 0)
(0 -5.871e-17 0 -5.871e-17 7.40121e-15 0 0 0 0)
(0 -1.0167e-16 0 -1.0167e-16 -6.56239e-15 0 0 0 0)
(0 -7.72388e-17 0 -7.72388e-17 5.86371e-15 0 0 0 0)
(0 -4.02605e-17 0 -4.02605e-17 -4.82604e-15 0 0 0 0)
(0 1.17261e-17 0 1.17261e-17 3.88166e-15 0 0 0 0)
(0 -9.66941e-17 0 -9.66941e-17 -2.11923e-15 0 0 0 0)
(0 -1.0167e-16 0 -1.0167e-16 -3.05878e-16 0 0 0 0)
)
;

boundaryField
{
    inandouthalf11
    {
        type            cyclic;
    }
    inandouthalf12
    {
        type            cyclic;
    }
    inandouthalf21
    {
        type            cyclic;
    }
    inandouthalf22
    {
        type            cyclic;
    }
    inandouthalf31
    {
        type            cyclic;
    }
    inandouthalf32
    {
        type            cyclic;
    }
    inandouthalf41
    {
        type            cyclic;
    }
    inandouthalf42
    {
        type            cyclic;
    }
    top
    {
        type            symmetryPlane;
    }
    walls
    {
        type            zeroGradient;
    }
    frontAndBackPlanes
    {
        type            empty;
    }
}


// ************************************************************************* //
