/*--------------------------------*- C++ -*----------------------------------*\
| =========                 |                                                 |
| \\      /  F ield         | OpenFOAM: The Open Source CFD Toolbox           |
|  \\    /   O peration     | Version:  2.4.x                                 |
|   \\  /    A nd           | Web:      www.OpenFOAM.org                      |
|    \\/     M anipulation  |                                                 |
\*---------------------------------------------------------------------------*/
FoamFile
{
    version     2.0;
    format      ascii;
    class       surfaceScalarField;
    location    "6.45";
    object      ddt0(phib);
}
// * * * * * * * * * * * * * * * * * * * * * * * * * * * * * * * * * * * * * //

dimensions      [0 3 -2 0 0 0 0];

internalField   nonuniform List<scalar> 
359
(
-2.50191e-13
-6.79285e-13
-1.07859e-12
-1.45239e-12
-1.83128e-12
-2.22177e-12
-2.61908e-12
-3.01901e-12
-3.41994e-12
-3.8224e-12
-4.22728e-12
-4.63492e-12
-5.04523e-12
-5.45788e-12
-5.87264e-12
-6.28945e-12
-6.70839e-12
-7.12944e-12
-7.55263e-12
-7.97807e-12
-8.40551e-12
-8.83504e-12
-9.26651e-12
-9.69966e-12
-1.01342e-11
-1.05695e-11
-1.10052e-11
-1.14407e-11
-1.18756e-11
-1.23096e-11
-1.27427e-11
-1.31758e-11
-1.36097e-11
-1.4047e-11
-1.44901e-11
-1.49426e-11
-1.54082e-11
-1.58907e-11
-1.63933e-11
-1.69169e-11
-1.74611e-11
-1.80215e-11
-1.85889e-11
-1.91507e-11
-1.96885e-11
-2.01806e-11
-2.06037e-11
-2.09364e-11
-2.11643e-11
-2.12845e-11
-2.13083e-11
-2.12651e-11
-2.12026e-11
-2.11852e-11
-2.12926e-11
-2.16193e-11
-2.22758e-11
-2.33962e-11
-2.51464e-11
-2.77338e-11
-3.14154e-11
-3.64573e-11
-4.30432e-11
-5.10197e-11
-5.95049e-11
-6.64892e-11
-6.89968e-11
-6.4407e-11
-5.25836e-11
-3.6794e-11
-2.18321e-11
-1.09823e-11
-4.73015e-12
-1.77327e-12
-5.91496e-13
-1.79026e-13
-4.90731e-14
-1.07674e-14
1.98511e-16
3.33803e-15
4.25066e-15
4.54826e-15
4.58434e-15
4.5946e-15
4.58445e-15
4.53e-15
4.53643e-15
4.51558e-15
4.46379e-15
4.43656e-15
4.40637e-15
4.34661e-15
4.28524e-15
4.21899e-15
4.16782e-15
4.10609e-15
4.0724e-15
4.00109e-15
3.95367e-15
3.90811e-15
3.82763e-15
3.80964e-15
3.73714e-15
3.67218e-15
3.55443e-15
3.48175e-15
3.41006e-15
3.35697e-15
3.28253e-15
3.1799e-15
3.09061e-15
3.02246e-15
2.92777e-15
2.86546e-15
2.79256e-15
2.72259e-15
2.65375e-15
2.59206e-15
2.509e-15
2.45335e-15
2.35651e-15
2.28278e-15
2.19902e-15
2.11118e-15
2.0163e-15
1.95898e-15
1.89847e-15
1.80314e-15
1.69254e-15
1.61925e-15
1.52869e-15
1.44488e-15
1.32527e-15
1.20246e-15
1.08624e-15
9.68061e-16
8.2327e-16
6.44358e-16
3.78642e-16
2.3006e-16
1.05407e-16
-3.00139e-16
-9.78863e-16
-2.39927e-15
-1.31004e-14
-1.27243e-14
3.19721e-13
-7.27169e-10
2.1095e-09
2.66852e-09
2.53873e-09
1.90527e-09
1.41463e-09
1.03686e-09
7.68182e-10
5.80134e-10
4.48017e-10
3.53787e-10
2.85223e-10
2.34183e-10
1.95312e-10
1.65057e-10
1.41021e-10
1.21576e-10
1.05595e-10
9.22892e-11
8.10949e-11
7.1601e-11
6.34985e-11
5.65501e-11
5.05674e-11
4.53976e-11
4.09146e-11
3.70126e-11
3.36028e-11
3.06099e-11
2.79703e-11
2.56304e-11
2.3545e-11
2.16766e-11
1.99933e-11
1.8469e-11
1.70818e-11
1.58136e-11
1.46491e-11
1.3576e-11
1.25838e-11
1.16637e-11
1.08084e-11
1.00115e-11
9.26773e-12
8.57201e-12
7.92005e-12
7.30765e-12
6.73092e-12
6.18602e-12
5.66941e-12
5.17774e-12
4.70841e-12
4.2602e-12
3.83351e-12
3.42074e-12
3.02306e-12
2.64191e-12
2.2774e-12
1.92903e-12
1.59978e-12
1.29498e-12
1.02042e-12
7.81554e-13
5.81588e-13
4.21343e-13
2.97794e-13
2.05322e-13
1.38854e-13
9.26223e-14
6.07997e-14
3.94416e-14
2.5489e-14
1.62986e-14
1.00114e-14
5.91047e-15
3.35569e-15
1.6254e-15
5.0014e-16
-1.30723e-16
-4.83533e-16
-6.97112e-16
-8.13381e-16
-8.51276e-16
-8.47475e-16
-8.60818e-16
-7.46941e-16
-5.92058e-16
-6.60536e-16
-6.69645e-16
7.06783e-16
-5.91753e-15
-8.30318e-16
-3.51835e-15
-7.15403e-16
-3.35074e-16
-3.21598e-16
-2.91438e-16
-2.84875e-16
-2.76899e-16
-2.57049e-16
-2.4155e-16
-2.32779e-16
-2.26568e-16
-2.11832e-16
-2.04324e-16
-1.95126e-16
-1.77691e-16
-1.7426e-16
-1.71361e-16
-1.54829e-16
-1.49554e-16
-1.33284e-16
-1.258e-16
-1.21876e-16
-1.14968e-16
-1.14942e-16
-1.20091e-16
-1.1597e-16
-1.21156e-16
-1.23806e-16
-1.26668e-16
-1.32294e-16
-1.44691e-16
-1.3562e-16
-1.36205e-16
-1.45622e-16
-1.52173e-16
-1.56777e-16
-1.58169e-16
-1.62459e-16
-1.61688e-16
-1.7019e-16
-1.67088e-16
-1.81717e-16
-1.80498e-16
-1.88069e-16
-1.89261e-16
-1.83818e-16
-1.85634e-16
-1.73824e-16
-1.59692e-16
-1.54637e-16
-1.48923e-16
-1.32763e-16
-1.10878e-16
-9.93213e-17
-8.65133e-17
-7.51336e-17
-4.47384e-17
-9.36758e-17
-1.47027e-16
-1.99766e-16
-2.47442e-16
-3.14246e-16
-3.56274e-16
-3.97275e-16
-4.30188e-16
-4.91279e-16
-5.40965e-16
-5.81145e-16
-6.04534e-16
-6.58845e-16
-6.69104e-16
-6.89433e-16
-6.72676e-16
-7.20925e-16
-7.51281e-16
-7.8076e-16
-7.93001e-16
-8.15185e-16
-8.32569e-16
-8.3664e-16
-8.31819e-16
-8.61444e-16
-8.83807e-16
-9.26133e-16
-9.52179e-16
-1.01566e-15
-1.09163e-15
-1.21361e-15
-1.36976e-15
-2.11538e-15
-2.90173e-15
-3.75175e-15
-4.63755e-15
-5.51039e-15
-6.46606e-15
-7.42273e-15
-8.49278e-15
-9.3599e-15
-1.04297e-14
-1.1506e-14
-1.28637e-14
-1.40463e-14
-1.55708e-14
-1.71502e-14
-1.90801e-14
-2.12157e-14
-2.37469e-14
-2.63555e-14
-2.93715e-14
-3.24091e-14
-3.55191e-14
-3.89455e-14
-4.3443e-14
-4.82243e-14
-5.23844e-14
-5.68486e-14
-6.13726e-14
-6.20157e-14
-7.0047e-14
-9.03798e-14
)
;

boundaryField
{
    inandouthalf11
    {
        type            cyclic;
        value           nonuniform List<scalar> 
100
(
-1.57339e-10
-1.56577e-10
-1.56462e-10
-1.56591e-10
-1.56674e-10
-1.5672e-10
-1.56768e-10
-1.56821e-10
-1.56875e-10
-1.5693e-10
-1.56985e-10
-1.57041e-10
-1.57096e-10
-1.57153e-10
-1.57209e-10
-1.57266e-10
-1.57324e-10
-1.57382e-10
-1.57441e-10
-1.575e-10
-1.57559e-10
-1.57619e-10
-1.5768e-10
-1.57741e-10
-1.57802e-10
-1.57864e-10
-1.57926e-10
-1.57989e-10
-1.58052e-10
-1.58116e-10
-1.5818e-10
-1.58244e-10
-1.58309e-10
-1.58374e-10
-1.5844e-10
-1.58507e-10
-1.58574e-10
-1.58642e-10
-1.58712e-10
-1.58783e-10
-1.58855e-10
-1.58929e-10
-1.59003e-10
-1.59079e-10
-1.59154e-10
-1.59229e-10
-1.59303e-10
-1.59373e-10
-1.59441e-10
-1.59505e-10
-1.59564e-10
-1.5962e-10
-1.59674e-10
-1.59728e-10
-1.59786e-10
-1.59851e-10
-1.59928e-10
-1.60023e-10
-1.60143e-10
-1.60297e-10
-1.60499e-10
-1.6076e-10
-1.61097e-10
-1.61514e-10
-1.61992e-10
-1.62465e-10
-1.62799e-10
-1.6283e-10
-1.62456e-10
-1.61755e-10
-1.60966e-10
-1.60329e-10
-1.59943e-10
-1.59772e-10
-1.5973e-10
-1.5975e-10
-1.59793e-10
-1.59846e-10
-1.59902e-10
-1.5996e-10
-1.6002e-10
-1.60082e-10
-1.60146e-10
-1.60211e-10
-1.60278e-10
-1.60346e-10
-1.60416e-10
-1.60487e-10
-1.6056e-10
-1.60635e-10
-1.60711e-10
-1.60789e-10
-1.60869e-10
-1.6095e-10
-1.61034e-10
-1.6112e-10
-1.61207e-10
-1.61297e-10
-1.61389e-10
-1.61483e-10
)
;
    }
    inandouthalf12
    {
        type            cyclic;
        value           nonuniform List<scalar> 
100
(
1.57339e-10
1.56577e-10
1.56462e-10
1.56591e-10
1.56674e-10
1.5672e-10
1.56768e-10
1.56821e-10
1.56875e-10
1.5693e-10
1.56985e-10
1.57041e-10
1.57096e-10
1.57153e-10
1.57209e-10
1.57266e-10
1.57324e-10
1.57382e-10
1.57441e-10
1.575e-10
1.57559e-10
1.57619e-10
1.5768e-10
1.57741e-10
1.57802e-10
1.57864e-10
1.57926e-10
1.57989e-10
1.58052e-10
1.58116e-10
1.5818e-10
1.58244e-10
1.58309e-10
1.58374e-10
1.5844e-10
1.58507e-10
1.58574e-10
1.58642e-10
1.58712e-10
1.58783e-10
1.58855e-10
1.58929e-10
1.59003e-10
1.59079e-10
1.59154e-10
1.59229e-10
1.59303e-10
1.59373e-10
1.59441e-10
1.59505e-10
1.59564e-10
1.5962e-10
1.59674e-10
1.59728e-10
1.59786e-10
1.59851e-10
1.59928e-10
1.60023e-10
1.60143e-10
1.60297e-10
1.60499e-10
1.6076e-10
1.61097e-10
1.61514e-10
1.61992e-10
1.62465e-10
1.62799e-10
1.6283e-10
1.62456e-10
1.61755e-10
1.60966e-10
1.60329e-10
1.59943e-10
1.59772e-10
1.5973e-10
1.5975e-10
1.59793e-10
1.59846e-10
1.59902e-10
1.5996e-10
1.6002e-10
1.60082e-10
1.60146e-10
1.60211e-10
1.60278e-10
1.60346e-10
1.60416e-10
1.60487e-10
1.6056e-10
1.60635e-10
1.60711e-10
1.60789e-10
1.60869e-10
1.6095e-10
1.61034e-10
1.6112e-10
1.61207e-10
1.61297e-10
1.61389e-10
1.61483e-10
)
;
    }
    inandouthalf21
    {
        type            cyclic;
        value           nonuniform List<scalar> 
100
(
-1.61579e-10
-1.61678e-10
-1.61779e-10
-1.61883e-10
-1.61989e-10
-1.62098e-10
-1.6221e-10
-1.62325e-10
-1.62442e-10
-1.62564e-10
-1.62688e-10
-1.62816e-10
-1.62948e-10
-1.63083e-10
-1.63222e-10
-1.63366e-10
-1.63514e-10
-1.63667e-10
-1.63824e-10
-1.63986e-10
-1.64154e-10
-1.64327e-10
-1.64506e-10
-1.64692e-10
-1.64883e-10
-1.65081e-10
-1.65287e-10
-1.655e-10
-1.65722e-10
-1.65954e-10
-1.66195e-10
-1.66446e-10
-1.66708e-10
-1.66985e-10
-1.6728e-10
-1.67592e-10
-1.6792e-10
-1.68269e-10
-1.68657e-10
-1.69103e-10
-1.69585e-10
-1.70046e-10
-1.706e-10
-1.71321e-10
-1.72224e-10
-1.73937e-10
-1.7944e-10
-4.23453e-10
-1.16915e-07
-1.9739e-07
-1.94147e-07
-2.06294e-07
-2.21202e-07
-2.35881e-07
-2.49316e-07
-2.61243e-07
-2.71705e-07
-2.80856e-07
-2.88877e-07
-2.95937e-07
-3.02186e-07
-3.07748e-07
-3.12729e-07
-3.17214e-07
-3.21274e-07
-3.24967e-07
-3.28341e-07
-3.31438e-07
-3.34291e-07
-3.36929e-07
-3.39377e-07
-3.41654e-07
-3.4378e-07
-3.45769e-07
-3.47635e-07
-3.49389e-07
-3.5104e-07
-3.52599e-07
-3.54072e-07
-3.55467e-07
-3.56788e-07
-3.58042e-07
-3.59232e-07
-3.60364e-07
-3.6144e-07
-3.62463e-07
-3.63436e-07
-3.64363e-07
-3.65243e-07
-3.6608e-07
-3.66876e-07
-3.6763e-07
-3.68345e-07
-3.6902e-07
-3.69658e-07
-3.70258e-07
-3.7082e-07
-3.71345e-07
-3.71832e-07
-3.7228e-07
)
;
    }
    inandouthalf22
    {
        type            cyclic;
        value           nonuniform List<scalar> 
100
(
1.61579e-10
1.61678e-10
1.61779e-10
1.61883e-10
1.61989e-10
1.62098e-10
1.6221e-10
1.62325e-10
1.62442e-10
1.62564e-10
1.62688e-10
1.62816e-10
1.62948e-10
1.63083e-10
1.63222e-10
1.63366e-10
1.63514e-10
1.63667e-10
1.63824e-10
1.63986e-10
1.64154e-10
1.64327e-10
1.64506e-10
1.64692e-10
1.64883e-10
1.65081e-10
1.65287e-10
1.655e-10
1.65722e-10
1.65954e-10
1.66195e-10
1.66446e-10
1.66708e-10
1.66985e-10
1.6728e-10
1.67592e-10
1.6792e-10
1.68269e-10
1.68657e-10
1.69103e-10
1.69585e-10
1.70046e-10
1.706e-10
1.71321e-10
1.72224e-10
1.73937e-10
1.7944e-10
4.23453e-10
1.16915e-07
1.9739e-07
1.94147e-07
2.06294e-07
2.21202e-07
2.35881e-07
2.49316e-07
2.61243e-07
2.71705e-07
2.80856e-07
2.88877e-07
2.95937e-07
3.02186e-07
3.07748e-07
3.12729e-07
3.17214e-07
3.21274e-07
3.24967e-07
3.28341e-07
3.31438e-07
3.34291e-07
3.36929e-07
3.39377e-07
3.41654e-07
3.4378e-07
3.45769e-07
3.47635e-07
3.49389e-07
3.5104e-07
3.52599e-07
3.54072e-07
3.55467e-07
3.56788e-07
3.58042e-07
3.59232e-07
3.60364e-07
3.6144e-07
3.62463e-07
3.63436e-07
3.64363e-07
3.65243e-07
3.6608e-07
3.66876e-07
3.6763e-07
3.68345e-07
3.6902e-07
3.69658e-07
3.70258e-07
3.7082e-07
3.71345e-07
3.71832e-07
3.7228e-07
)
;
    }
    inandouthalf31
    {
        type            cyclic;
        value           nonuniform List<scalar> 
110
(
-3.72691e-07
-3.80637e-07
-3.88717e-07
-3.96928e-07
-4.05269e-07
-4.13738e-07
-4.22329e-07
-4.31037e-07
-4.39856e-07
-4.48778e-07
-4.57792e-07
-4.66887e-07
-4.76051e-07
-4.85267e-07
-4.94516e-07
-5.0378e-07
-5.13033e-07
-5.2225e-07
-5.31398e-07
-5.40444e-07
-5.49351e-07
-5.58077e-07
-5.66578e-07
-5.74809e-07
-5.82725e-07
-5.90286e-07
-5.97457e-07
-6.04218e-07
-6.10569e-07
-6.16532e-07
-6.22164e-07
-6.27552e-07
-6.32815e-07
-6.38093e-07
-6.43534e-07
-6.49276e-07
-6.55436e-07
-6.62097e-07
-6.69311e-07
-6.77103e-07
-6.8548e-07
-6.94439e-07
-7.03977e-07
-7.14091e-07
-7.24781e-07
-7.3605e-07
-7.47902e-07
-7.60343e-07
-7.73383e-07
-7.87035e-07
-8.01325e-07
-8.163e-07
-8.32035e-07
-8.48665e-07
-8.66408e-07
-8.85658e-07
-9.09875e-07
-9.36886e-07
-9.57253e-07
-9.76722e-07
-9.96548e-07
-1.01678e-06
-1.03741e-06
-1.05847e-06
-1.07995e-06
-1.10187e-06
-1.12424e-06
-1.14706e-06
-1.17034e-06
-1.1941e-06
-1.21833e-06
-1.24306e-06
-1.26829e-06
-1.29404e-06
-1.3203e-06
-1.3471e-06
-1.37444e-06
-1.40234e-06
-1.4308e-06
-1.45984e-06
-1.48948e-06
-1.51971e-06
-1.55055e-06
-1.58203e-06
-1.61414e-06
-1.6469e-06
-1.68033e-06
-1.71443e-06
-1.74923e-06
-1.78474e-06
-1.82096e-06
-1.85792e-06
-1.89563e-06
-1.93411e-06
-1.97337e-06
-2.01342e-06
-2.05429e-06
-2.09598e-06
-2.13853e-06
-2.18193e-06
-2.22622e-06
-2.27141e-06
-2.31751e-06
-2.36455e-06
-2.41254e-06
-2.46151e-06
-2.51147e-06
-2.56245e-06
-2.61446e-06
-2.66753e-06
)
;
    }
    inandouthalf32
    {
        type            cyclic;
        value           nonuniform List<scalar> 
110
(
3.72691e-07
3.80637e-07
3.88717e-07
3.96928e-07
4.05269e-07
4.13738e-07
4.22329e-07
4.31037e-07
4.39856e-07
4.48778e-07
4.57792e-07
4.66887e-07
4.76051e-07
4.85267e-07
4.94516e-07
5.0378e-07
5.13033e-07
5.2225e-07
5.31398e-07
5.40444e-07
5.49351e-07
5.58077e-07
5.66578e-07
5.74809e-07
5.82725e-07
5.90286e-07
5.97457e-07
6.04218e-07
6.10569e-07
6.16532e-07
6.22164e-07
6.27552e-07
6.32815e-07
6.38093e-07
6.43534e-07
6.49276e-07
6.55436e-07
6.62097e-07
6.69311e-07
6.77103e-07
6.8548e-07
6.94439e-07
7.03977e-07
7.14091e-07
7.24781e-07
7.3605e-07
7.47902e-07
7.60343e-07
7.73383e-07
7.87035e-07
8.01325e-07
8.163e-07
8.32035e-07
8.48665e-07
8.66408e-07
8.85658e-07
9.09875e-07
9.36886e-07
9.57253e-07
9.76722e-07
9.96548e-07
1.01678e-06
1.03741e-06
1.05847e-06
1.07995e-06
1.10187e-06
1.12424e-06
1.14706e-06
1.17034e-06
1.1941e-06
1.21833e-06
1.24306e-06
1.26829e-06
1.29404e-06
1.3203e-06
1.3471e-06
1.37444e-06
1.40234e-06
1.4308e-06
1.45984e-06
1.48948e-06
1.51971e-06
1.55055e-06
1.58203e-06
1.61414e-06
1.6469e-06
1.68033e-06
1.71443e-06
1.74923e-06
1.78474e-06
1.82096e-06
1.85792e-06
1.89563e-06
1.93411e-06
1.97337e-06
2.01342e-06
2.05429e-06
2.09598e-06
2.13853e-06
2.18193e-06
2.22622e-06
2.27141e-06
2.31751e-06
2.36455e-06
2.41254e-06
2.46151e-06
2.51147e-06
2.56245e-06
2.61446e-06
2.66753e-06
)
;
    }
    inandouthalf41
    {
        type            cyclic;
        value           nonuniform List<scalar> 
50
(
-2.38771e-06
-2.38771e-06
-2.38771e-06
-2.38771e-06
-2.38771e-06
-2.38771e-06
-2.38771e-06
-2.38771e-06
-2.38771e-06
-2.38771e-06
-2.38771e-06
-2.38771e-06
-2.38771e-06
-2.38771e-06
-2.38771e-06
-2.38771e-06
-2.38771e-06
-2.38771e-06
-2.38771e-06
-2.38771e-06
-2.38771e-06
-2.38771e-06
-2.38771e-06
-2.38771e-06
-2.38771e-06
-2.38771e-06
-2.38771e-06
-2.38771e-06
-2.38771e-06
-2.38771e-06
-2.38771e-06
-2.38771e-06
-2.38771e-06
-2.38771e-06
-2.38771e-06
-2.38771e-06
-2.38771e-06
-2.38771e-06
-2.38771e-06
-2.38771e-06
-2.38771e-06
-2.38771e-06
-2.38771e-06
-2.38771e-06
-2.38771e-06
-2.38771e-06
-2.38771e-06
-2.38771e-06
-2.38771e-06
-2.38771e-06
)
;
    }
    inandouthalf42
    {
        type            cyclic;
        value           nonuniform List<scalar> 
50
(
2.38771e-06
2.38771e-06
2.38771e-06
2.38771e-06
2.38771e-06
2.38771e-06
2.38771e-06
2.38771e-06
2.38771e-06
2.38771e-06
2.38771e-06
2.38771e-06
2.38771e-06
2.38771e-06
2.38771e-06
2.38771e-06
2.38771e-06
2.38771e-06
2.38771e-06
2.38771e-06
2.38771e-06
2.38771e-06
2.38771e-06
2.38771e-06
2.38771e-06
2.38771e-06
2.38771e-06
2.38771e-06
2.38771e-06
2.38771e-06
2.38771e-06
2.38771e-06
2.38771e-06
2.38771e-06
2.38771e-06
2.38771e-06
2.38771e-06
2.38771e-06
2.38771e-06
2.38771e-06
2.38771e-06
2.38771e-06
2.38771e-06
2.38771e-06
2.38771e-06
2.38771e-06
2.38771e-06
2.38771e-06
2.38771e-06
2.38771e-06
)
;
    }
    top
    {
        type            symmetryPlane;
        value           uniform 0;
    }
    walls
    {
        type            calculated;
        value           uniform 0;
    }
    frontAndBackPlanes
    {
        type            empty;
        value           nonuniform 0();
    }
}


// ************************************************************************* //
