/*--------------------------------*- C++ -*----------------------------------*\
| =========                 |                                                 |
| \\      /  F ield         | OpenFOAM: The Open Source CFD Toolbox           |
|  \\    /   O peration     | Version:  2.4.x                                 |
|   \\  /    A nd           | Web:      www.OpenFOAM.org                      |
|    \\/     M anipulation  |                                                 |
\*---------------------------------------------------------------------------*/
FoamFile
{
    version     2.0;
    format      ascii;
    class       volVectorField;
    location    "6.45";
    object      ddt0(Ub);
}
// * * * * * * * * * * * * * * * * * * * * * * * * * * * * * * * * * * * * * //

dimensions      [0 1 -2 0 0 0 0];

internalField   nonuniform List<vector> 
360
(
(0.000157339 -3.01014e-08 0)
(0.000156577 -1.1493e-07 0)
(0.000156462 -2.1969e-07 0)
(0.000156591 -3.16368e-07 0)
(0.000156674 -4.10468e-07 0)
(0.00015672 -5.06626e-07 0)
(0.000156768 -6.05095e-07 0)
(0.000156821 -7.04752e-07 0)
(0.000156875 -8.04858e-07 0)
(0.00015693 -9.05282e-07 0)
(0.000156985 -1.0062e-06 0)
(0.000157041 -1.10776e-06 0)
(0.000157096 -1.21001e-06 0)
(0.000157153 -1.31288e-06 0)
(0.000157209 -1.4163e-06 0)
(0.000157266 -1.52025e-06 0)
(0.000157324 -1.62472e-06 0)
(0.000157382 -1.72972e-06 0)
(0.000157441 -1.83525e-06 0)
(0.0001575 -1.94133e-06 0)
(0.000157559 -2.04794e-06 0)
(0.000157619 -2.15506e-06 0)
(0.00015768 -2.26268e-06 0)
(0.000157741 -2.37076e-06 0)
(0.000157802 -2.47922e-06 0)
(0.000157864 -2.58795e-06 0)
(0.000157926 -2.69683e-06 0)
(0.000157989 -2.80573e-06 0)
(0.000158052 -2.91453e-06 0)
(0.000158116 -3.02314e-06 0)
(0.00015818 -3.13153e-06 0)
(0.000158244 -3.2398e-06 0)
(0.000158309 -3.34816e-06 0)
(0.000158374 -3.45708e-06 0)
(0.00015844 -3.56712e-06 0)
(0.000158507 -3.67908e-06 0)
(0.000158574 -3.79383e-06 0)
(0.000158642 -3.91233e-06 0)
(0.000158712 -4.03547e-06 0)
(0.000158783 -4.16373e-06 0)
(0.000158855 -4.29723e-06 0)
(0.000158929 -4.4353e-06 0)
(0.000159003 -4.57627e-06 0)
(0.000159079 -4.71744e-06 0)
(0.000159154 -4.8549e-06 0)
(0.000159229 -4.98364e-06 0)
(0.000159303 -5.09806e-06 0)
(0.000159373 -5.19252e-06 0)
(0.000159441 -5.2626e-06 0)
(0.000159505 -5.30615e-06 0)
(0.000159564 -5.32411e-06 0)
(0.00015962 -5.32169e-06 0)
(0.000159674 -5.30846e-06 0)
(0.000159728 -5.29846e-06 0)
(0.000159786 -5.30965e-06 0)
(0.000159851 -5.36389e-06 0)
(0.000159928 -5.48672e-06 0)
(0.000160023 -5.70877e-06 0)
(0.000160143 -6.06749e-06 0)
(0.000160297 -6.6095e-06 0)
(0.000160499 -7.39297e-06 0)
(0.00016076 -8.48316e-06 0)
(0.000161097 -9.93654e-06 0)
(0.000161514 -1.1757e-05 0)
(0.000161992 -1.38155e-05 0)
(0.000162465 -1.57504e-05 0)
(0.000162799 -1.6938e-05 0)
(0.00016283 -1.66792e-05 0)
(0.000162456 -1.46279e-05 0)
(0.000161755 -1.11739e-05 0)
(0.000160966 -7.32713e-06 0)
(0.000160329 -4.09961e-06 0)
(0.000159943 -1.96231e-06 0)
(0.000159772 -8.1196e-07 0)
(0.00015973 -2.95145e-07 0)
(0.00015975 -9.61305e-08 0)
(0.000159793 -2.84446e-08 0)
(0.000159846 -7.45748e-09 0)
(0.000159902 -1.31414e-09 0)
(0.00015996 4.43984e-10 0)
(0.00016002 9.49044e-10 0)
(0.000160082 1.1001e-09 0)
(0.000160146 1.14165e-09 0)
(0.000160211 1.14743e-09 0)
(0.000160278 1.14744e-09 0)
(0.000160346 1.13937e-09 0)
(0.000160416 1.13337e-09 0)
(0.000160487 1.13147e-09 0)
(0.00016056 1.12241e-09 0)
(0.000160635 1.11254e-09 0)
(0.000160711 1.10532e-09 0)
(0.000160789 1.09409e-09 0)
(0.000160869 1.07898e-09 0)
(0.00016095 1.06303e-09 0)
(0.000161034 1.04836e-09 0)
(0.00016112 1.03425e-09 0)
(0.000161207 1.02232e-09 0)
(0.000161297 1.00918e-09 0)
(0.000161389 9.94338e-10 0)
(0.000161483 9.82711e-10 0)
(0.000161579 9.6695e-10 0)
(0.000161678 9.54642e-10 0)
(0.000161779 9.43333e-10 0)
(0.000161883 9.26148e-10 0)
(0.000161989 9.03307e-10 0)
(0.000162098 8.79501e-10 0)
(0.00016221 8.61453e-10 0)
(0.000162325 8.45852e-10 0)
(0.000162442 8.29907e-10 0)
(0.000162564 8.07773e-10 0)
(0.000162688 7.83781e-10 0)
(0.000162816 7.64099e-10 0)
(0.000162948 7.43741e-10 0)
(0.000163083 7.24113e-10 0)
(0.000163222 7.0721e-10 0)
(0.000163366 6.89349e-10 0)
(0.000163514 6.71995e-10 0)
(0.000163667 6.55675e-10 0)
(0.000163824 6.37578e-10 0)
(0.000163986 6.20236e-10 0)
(0.000164154 6.01174e-10 0)
(0.000164327 5.79851e-10 0)
(0.000164506 5.60158e-10 0)
(0.000164692 5.38686e-10 0)
(0.000164883 5.15805e-10 0)
(0.000165081 4.96717e-10 0)
(0.000165287 4.81936e-10 0)
(0.0001655 4.62465e-10 0)
(0.000165722 4.36818e-10 0)
(0.000165954 4.13906e-10 0)
(0.000166195 3.93174e-10 0)
(0.000166446 3.70654e-10 0)
(0.000166708 3.44775e-10 0)
(0.000166985 3.15447e-10 0)
(0.00016728 2.86945e-10 0)
(0.000167592 2.56149e-10 0)
(0.00016792 2.1791e-10 0)
(0.000168269 1.73925e-10 0)
(0.000168657 1.2959e-10 0)
(0.000169103 9.90071e-11 0)
(0.000169585 2.6482e-11 0)
(0.000170046 -7.43863e-11 0)
(0.0001706 -1.50993e-10 0)
(0.000171321 -7.50698e-10 0)
(0.000172224 3.10713e-09 0)
(0.000173937 -1.53e-06 0)
(0.00017944 2.44496e-05 0)
(0.000423453 -9.17757e-05 0)
(0.116915 -0.00030413 0)
(0.19739 0.00104837 0)
(0.194147 0.00051066 0)
(0.206294 0.000654215 0)
(0.221202 0.000403454 0)
(0.235881 0.000296272 0)
(0.249316 0.000220172 0)
(0.261243 0.000164962 0)
(0.271705 0.00012586 0)
(0.280856 9.83259e-05 0)
(0.288877 7.85598e-05 0)
(0.295937 6.40133e-05 0)
(0.302186 5.30441e-05 0)
(0.307748 4.4585e-05 0)
(0.312729 3.79226e-05 0)
(0.317214 3.25733e-05 0)
(0.321274 2.82051e-05 0)
(0.324967 2.45869e-05 0)
(0.328341 2.15553e-05 0)
(0.331438 1.8992e-05 0)
(0.334291 1.68095e-05 0)
(0.336929 1.49414e-05 0)
(0.339377 1.33354e-05 0)
(0.341654 1.19498e-05 0)
(0.34378 1.07502e-05 0)
(0.345769 9.70794e-06 0)
(0.347635 8.79891e-06 0)
(0.349389 8.00274e-06 0)
(0.35104 7.30221e-06 0)
(0.352599 6.68276e-06 0)
(0.354072 6.13213e-06 0)
(0.355467 5.64003e-06 0)
(0.356788 5.19784e-06 0)
(0.358042 4.79838e-06 0)
(0.359232 4.43568e-06 0)
(0.360364 4.10478e-06 0)
(0.36144 3.80156e-06 0)
(0.362463 3.52259e-06 0)
(0.363436 3.26503e-06 0)
(0.364363 3.0265e-06 0)
(0.365243 2.805e-06 0)
(0.36608 2.59886e-06 0)
(0.366876 2.40661e-06 0)
(0.36763 2.22697e-06 0)
(0.368345 2.05879e-06 0)
(0.36902 1.901e-06 0)
(0.369658 1.75261e-06 0)
(0.370258 1.61265e-06 0)
(0.37082 1.48017e-06 0)
(0.371345 1.35431e-06 0)
(0.371832 1.2343e-06 0)
(0.37228 1.11966e-06 0)
(0.37269 1.01032e-06 0)
(0.373064 9.05313e-07 0)
(0.373403 8.03961e-07 0)
(0.373706 7.0659e-07 0)
(0.373969 6.13344e-07 0)
(0.374188 5.24144e-07 0)
(0.374359 4.39267e-07 0)
(0.374478 3.59743e-07 0)
(0.374537 2.87041e-07 0)
(0.374532 2.22653e-07 0)
(0.374455 1.67732e-07 0)
(0.374297 1.22808e-07 0)
(0.374051 8.75767e-08 0)
(0.373707 6.09253e-08 0)
(0.373254 4.14465e-08 0)
(0.372682 2.77196e-08 0)
(0.371977 1.82843e-08 0)
(0.371126 1.19019e-08 0)
(0.370115 7.68456e-09 0)
(0.368928 4.9323e-09 0)
(0.367548 3.0985e-09 0)
(0.365958 1.8657e-09 0)
(0.364141 1.07228e-09 0)
(0.362082 5.65501e-10 0)
(0.359766 2.29668e-10 0)
(0.357184 2.1867e-11 0)
(0.354331 -9.23035e-11 0)
(0.351213 -1.56211e-10 0)
(0.347844 -1.93086e-10 0)
(0.344254 -2.10052e-10 0)
(0.340487 -2.13812e-10 0)
(0.336604 -2.17148e-10 0)
(0.332674 -2.1055e-10 0)
(0.328776 -1.58489e-10 0)
(0.324983 5.3478e-12 0)
(0.32136 -3.80819e-10 0)
(0.317955 4.37946e-10 0)
(0.314797 -7.75907e-10 0)
(0.311896 -9.96346e-10 0)
(0.30925 -3.11173e-10 0)
(0.306848 -8.3132e-10 0)
(0.304674 2.31865e-10 0)
(0.302715 -2.88613e-10 0)
(0.300955 8.18892e-12 0)
(0.299384 -5.56859e-11 0)
(0.29799 -7.24842e-11 0)
(0.296765 -6.6354e-11 0)
(0.2957 -6.54546e-11 0)
(0.294787 -2.41048e-11 0)
(0.294023 -1.42912e-10 0)
(0.293407 7.04946e-11 0)
(0.292944 -1.78788e-10 0)
(0.29265 2.4235e-11 0)
(0.292561 -1.39844e-11 0)
(0.292736 -2.25965e-10 0)
(0.293287 3.11357e-10 0)
(0.295313 -5.71497e-10 0)
(0.29803 6.58312e-10 0)
(0.298451 -8.81632e-10 0)
(0.298464 9.45384e-10 0)
(0.298464 -1.12156e-09 0)
(0.298464 1.15508e-09 0)
(0.298464 -1.29516e-09 0)
(0.298464 1.31016e-09 0)
(0.298464 -1.43976e-09 0)
(0.298464 1.44985e-09 0)
(0.298464 -1.58164e-09 0)
(0.298464 1.59293e-09 0)
(0.298464 -1.73275e-09 0)
(0.298464 1.74425e-09 0)
(0.298464 -1.89471e-09 0)
(0.298464 1.90882e-09 0)
(0.298464 -2.06472e-09 0)
(0.298464 2.08084e-09 0)
(0.298464 -2.24785e-09 0)
(0.298464 2.26369e-09 0)
(0.298464 -2.43948e-09 0)
(0.298464 2.45796e-09 0)
(0.298464 -2.64167e-09 0)
(0.298464 2.66211e-09 0)
(0.298464 -2.85471e-09 0)
(0.298464 2.87507e-09 0)
(0.298464 -3.07819e-09 0)
(0.298464 3.10001e-09 0)
(0.298464 -3.31092e-09 0)
(0.298464 3.3379e-09 0)
(0.298464 -3.55124e-09 0)
(0.298464 3.59015e-09 0)
(0.298464 -3.79923e-09 0)
(0.298464 3.85269e-09 0)
(0.298464 -4.05881e-09 0)
(0.298464 4.12956e-09 0)
(0.298464 -4.32535e-09 0)
(0.298464 4.41761e-09 0)
(0.298464 -4.6049e-09 0)
(0.298464 4.71563e-09 0)
(0.298464 -4.90097e-09 0)
(0.298464 5.00605e-09 0)
(0.298464 -5.23498e-09 0)
(0.298464 5.29492e-09 0)
(0.298464 -5.58632e-09 0)
(0.298464 5.59888e-09 0)
(0.298464 -5.94108e-09 0)
(0.298464 5.91463e-09 0)
(0.298464 -6.30737e-09 0)
(0.298464 6.2386e-09 0)
(0.298464 -6.68374e-09 0)
(0.298464 6.57362e-09 0)
(0.298464 -7.05874e-09 0)
(0.298464 6.91508e-09 0)
(0.298464 -6.54211e-09 0)
(0.298464 6.23715e-09 0)
(0.298464 -6.61841e-09 0)
(0.298464 6.29509e-09 0)
(0.298464 -6.70599e-09 0)
(0.298464 6.35433e-09 0)
(0.298464 -6.7886e-09 0)
(0.298464 6.41831e-09 0)
(0.298464 -6.86879e-09 0)
(0.298464 6.48736e-09 0)
(0.298464 -6.94336e-09 0)
(0.298464 6.54813e-09 0)
(0.298464 -7.02731e-09 0)
(0.298464 6.59989e-09 0)
(0.298464 -7.11498e-09 0)
(0.298464 6.63812e-09 0)
(0.298464 -7.22276e-09 0)
(0.298464 6.63881e-09 0)
(0.298464 -7.43741e-09 0)
(0.298464 6.39981e-09 0)
(0.298464 -7.89194e-09 0)
(0.298464 6.03934e-09 0)
(0.298464 -8.38769e-09 0)
(0.298464 5.64826e-09 0)
(0.298464 -8.91398e-09 0)
(0.298464 5.21487e-09 0)
(0.298464 -9.46114e-09 0)
(0.298464 4.78072e-09 0)
(0.298464 -1.00282e-08 0)
(0.298464 4.262e-09 0)
(0.298464 -1.06988e-08 0)
(0.298464 3.65433e-09 0)
(0.298464 -1.14755e-08 0)
(0.298464 2.87207e-09 0)
(0.298464 -1.24678e-08 0)
(0.298464 1.82723e-09 0)
(0.298464 -1.373e-08 0)
(0.298464 5.20215e-10 0)
(0.298464 -1.52254e-08 0)
(0.298464 -9.66103e-10 0)
(0.298464 -1.68446e-08 0)
(0.298464 -2.75436e-09 0)
(0.298464 -1.90263e-08 0)
(0.298464 -4.98811e-09 0)
(0.298464 -2.12419e-08 0)
(0.298464 -7.16043e-09 0)
(0.298464 -2.30367e-08 0)
(0.298464 -8.92075e-09 0)
(0.298464 -2.75919e-08 0)
(0.298464 -3.583e-09 0)
)
;

boundaryField
{
    inandouthalf11
    {
        type            cyclic;
    }
    inandouthalf12
    {
        type            cyclic;
    }
    inandouthalf21
    {
        type            cyclic;
    }
    inandouthalf22
    {
        type            cyclic;
    }
    inandouthalf31
    {
        type            cyclic;
    }
    inandouthalf32
    {
        type            cyclic;
    }
    inandouthalf41
    {
        type            cyclic;
    }
    inandouthalf42
    {
        type            cyclic;
    }
    top
    {
        type            symmetryPlane;
    }
    walls
    {
        type            calculated;
        value           uniform (0 0 0);
    }
    frontAndBackPlanes
    {
        type            empty;
    }
}


// ************************************************************************* //
