/*--------------------------------*- C++ -*----------------------------------*\
| =========                 |                                                 |
| \\      /  F ield         | OpenFOAM: The Open Source CFD Toolbox           |
|  \\    /   O peration     | Version:  2.4.x                                 |
|   \\  /    A nd           | Web:      www.OpenFOAM.org                      |
|    \\/     M anipulation  |                                                 |
\*---------------------------------------------------------------------------*/
FoamFile
{
    version     2.0;
    format      ascii;
    class       volScalarField;
    location    "6.45";
    object      ddt0(alpha);
}
// * * * * * * * * * * * * * * * * * * * * * * * * * * * * * * * * * * * * * //

dimensions      [0 0 -1 0 0 0 0];

internalField   nonuniform List<scalar> 
360
(
0.000100808
0.000159255
0.000145116
0.000136168
0.000138612
0.000142092
0.000143631
0.000144255
0.000144804
0.00014565
0.000146722
0.00014782
0.000148891
0.000149882
0.000150842
0.000151817
0.000152816
0.00015382
0.000154818
0.000155853
0.000156835
0.000157863
0.000158895
0.000159932
0.000160971
0.000161998
0.000162995
0.000164015
0.000164992
0.000165925
0.000166814
0.000167733
0.000168543
0.000169498
0.00017039
0.000171413
0.000172518
0.000173829
0.000175383
0.000177001
0.000178958
0.000181001
0.000183035
0.00018515
0.000186949
0.00018833
0.000189058
0.000188801
0.000187669
0.000185607
0.000182407
0.000178543
0.000174223
0.000170091
0.0001666
0.000164731
0.000164992
0.000168554
0.000176341
0.000189628
0.000210273
0.000239566
0.000279117
0.000328285
0.000383114
0.000432958
0.000460584
0.00044703
0.00038443
0.000286082
0.000181646
9.77242e-05
4.45169e-05
1.71857e-05
5.44361e-06
1.10372e-06
-3.26832e-07
-7.73886e-07
-9.18367e-07
-9.74648e-07
-1.00958e-06
-1.04148e-06
-1.07008e-06
-1.0979e-06
-1.12481e-06
-1.15091e-06
-1.17582e-06
-1.19962e-06
-1.22486e-06
-1.25115e-06
-1.27825e-06
-1.30733e-06
-1.33804e-06
-1.36945e-06
-1.40163e-06
-1.43447e-06
-1.46779e-06
-1.50175e-06
-1.53666e-06
-1.57268e-06
-1.60991e-06
-1.64858e-06
-1.68872e-06
-1.73031e-06
-1.77344e-06
-1.81823e-06
-1.86476e-06
-1.91319e-06
-1.96366e-06
-2.01628e-06
-2.07118e-06
-2.12847e-06
-2.18828e-06
-2.25074e-06
-2.31599e-06
-2.38416e-06
-2.45543e-06
-2.52997e-06
-2.60799e-06
-2.6897e-06
-2.77528e-06
-2.8649e-06
-2.95874e-06
-3.0571e-06
-3.16072e-06
-3.27097e-06
-3.38981e-06
-3.519e-06
-3.65867e-06
-3.80651e-06
-3.96066e-06
-4.12841e-06
-4.3308e-06
-4.58201e-06
-4.85618e-06
-5.11472e-06
-5.39927e-06
-5.8642e-06
-6.61832e-06
-7.35336e-06
-7.45751e-06
-7.99518e-06
-1.00078e-05
-1.26701e-05
-1.99896e-05
-8.90027e-05
-1.82556e-05
0.00234912
0.361518
0.0773063
-0.0267304
-0.0518027
-0.0575269
-0.05438
-0.0473881
-0.03951
-0.0322068
-0.025998
-0.0209374
-0.0168925
-0.0136842
-0.0111422
-0.00912286
-0.00751131
-0.00621798
-0.00517376
-0.0043255
-0.00363227
-0.00306245
-0.00259147
-0.00220019
-0.00187351
-0.00159954
-0.0013688
-0.00117369
-0.00100811
-0.000867113
-0.000746667
-0.000643477
-0.000554833
-0.000478496
-0.000412608
-0.000355619
-0.000306235
-0.000263367
-0.000226098
-0.000193652
-0.00016537
-0.000140691
-0.000119133
-0.000100279
-8.37674e-05
-6.92769e-05
-5.65251e-05
-4.52628e-05
-3.52681e-05
-2.63423e-05
-1.83177e-05
-1.10648e-05
-4.51951e-06
1.29623e-06
6.44211e-06
1.1026e-05
1.50438e-05
1.8552e-05
2.17083e-05
2.44468e-05
2.65614e-05
2.79144e-05
2.83666e-05
2.79058e-05
2.65831e-05
2.45522e-05
2.21394e-05
1.95217e-05
1.68503e-05
1.43328e-05
1.20484e-05
1.00172e-05
8.25623e-06
6.78636e-06
5.56212e-06
4.5277e-06
3.68132e-06
2.99046e-06
2.41654e-06
1.94914e-06
1.56727e-06
1.26129e-06
1.00719e-06
8.07274e-07
6.4025e-07
5.1691e-07
3.87061e-07
3.24921e-07
2.34671e-07
3.33704e-07
1.04699e-07
1.55913e-07
6.90799e-09
6.98773e-08
-1.1635e-27
-1.36811e-28
-1.57625e-28
-2.19613e-28
-1.34855e-28
-5.01777e-29
-1.98669e-29
-9.1961e-30
-4.62843e-30
-2.57929e-30
-2.01845e-30
-2.13952e-30
-2.12967e-30
-8.40077e-31
-3.36757e-31
-1.60147e-31
-8.17782e-32
-4.86771e-32
-3.8939e-32
-2.40596e-32
-9.82199e-33
-4.79214e-33
-2.45261e-33
-1.38707e-33
-7.27029e-34
-3.53182e-34
-1.76506e-34
-8.70115e-35
-4.2146e-35
-2.00446e-35
-9.35475e-36
-4.28131e-36
-1.92014e-36
-8.43304e-37
-3.62409e-37
-1.52273e-37
-6.25004e-38
-2.50368e-38
-9.77888e-39
-3.72014e-39
-1.37691e-39
-4.95234e-40
-1.72869e-40
-5.84821e-41
-1.91461e-41
-6.05603e-42
-1.84747e-42
-5.42521e-43
-1.53034e-43
-4.13701e-44
-1.06904e-44
-2.63315e-45
-6.16226e-46
-1.36529e-46
-2.85203e-47
-5.59109e-48
-1.02306e-48
-1.73628e-49
-2.71262e-50
-3.86615e-51
-4.97117e-52
-5.68652e-53
-5.68267e-54
-4.84077e-55
-3.3941e-56
-1.85558e-57
-7.19306e-59
-1.5975e-60
-6.99167e-63
-7.38387e-67
-7.68744e-69
-3.971e-71
-1.30162e-81
-2.11347e-92
-2.39835e-103
-1.98129e-114
-1.35161e-125
-7.22715e-137
-3.27333e-148
-4.534e-158
-1.79486e-168
-1.53145e-176
-5.40822e-187
-5.26776e-195
-2.15625e-205
-1.81231e-213
-9.07539e-224
-6.24032e-232
-5.72005e-242
-2.17607e-250
-3.72037e-260
-7.72792e-269
-1.83417e-278
-2.79224e-287
-8.66947e-297
-1.02405e-305
-3.88815e-315
5.9614e-320
0
0
0
0
0
0
0
0
0
0
0
0
0
0
0
0
0
0
0
0
0
)
;

boundaryField
{
    inandouthalf11
    {
        type            cyclic;
    }
    inandouthalf12
    {
        type            cyclic;
    }
    inandouthalf21
    {
        type            cyclic;
    }
    inandouthalf22
    {
        type            cyclic;
    }
    inandouthalf31
    {
        type            cyclic;
    }
    inandouthalf32
    {
        type            cyclic;
    }
    inandouthalf41
    {
        type            cyclic;
    }
    inandouthalf42
    {
        type            cyclic;
    }
    top
    {
        type            symmetryPlane;
    }
    walls
    {
        type            calculated;
        value           uniform 0.000100808;
    }
    frontAndBackPlanes
    {
        type            empty;
    }
}


// ************************************************************************* //
