/*--------------------------------*- C++ -*----------------------------------*\
| =========                 |                                                 |
| \\      /  F ield         | OpenFOAM: The Open Source CFD Toolbox           |
|  \\    /   O peration     | Version:  2.4.x                                 |
|   \\  /    A nd           | Web:      www.OpenFOAM.org                      |
|    \\/     M anipulation  |                                                 |
\*---------------------------------------------------------------------------*/
FoamFile
{
    version     2.0;
    format      ascii;
    class       surfaceScalarField;
    location    "6.45";
    object      ddt0(phia);
}
// * * * * * * * * * * * * * * * * * * * * * * * * * * * * * * * * * * * * * //

dimensions      [0 3 -2 0 0 0 0];

internalField   nonuniform List<scalar> 
359
(
1.59473e-13
4.32162e-13
6.8607e-13
9.24038e-13
1.16529e-12
1.4139e-12
1.66689e-12
1.92161e-12
2.17702e-12
2.43347e-12
2.69152e-12
2.95138e-12
3.21303e-12
3.47621e-12
3.74078e-12
4.00671e-12
4.27406e-12
4.54284e-12
4.81306e-12
5.08477e-12
5.35783e-12
5.63229e-12
5.90804e-12
6.18494e-12
6.46278e-12
6.74124e-12
7.01996e-12
7.29869e-12
7.5771e-12
7.85499e-12
8.13239e-12
8.40984e-12
8.68793e-12
8.96828e-12
9.25241e-12
9.54262e-12
9.84126e-12
1.01508e-11
1.04733e-11
1.08093e-11
1.11587e-11
1.15184e-11
1.18827e-11
1.22437e-11
1.25893e-11
1.29059e-11
1.31785e-11
1.33932e-11
1.35411e-11
1.362e-11
1.36373e-11
1.36117e-11
1.35737e-11
1.35646e-11
1.36353e-11
1.38465e-11
1.42691e-11
1.4989e-11
1.61127e-11
1.77734e-11
2.01363e-11
2.33721e-11
2.75995e-11
3.27207e-11
3.81708e-11
4.26607e-11
4.42802e-11
4.13447e-11
3.37633e-11
2.36312e-11
1.40262e-11
7.05872e-12
3.04267e-12
1.14284e-12
3.83347e-13
1.18202e-13
3.4661e-14
1.00098e-14
2.94251e-15
9.0391e-16
2.94067e-16
1.00165e-16
3.35722e-17
8.69164e-18
-1.38758e-18
-5.73386e-18
-7.6378e-18
-8.37933e-18
-8.48321e-18
-8.1676e-18
-7.51484e-18
-6.5409e-18
-5.22908e-18
-3.54645e-18
-1.45534e-18
1.07982e-18
4.08479e-18
7.57201e-18
1.15375e-17
1.59605e-17
2.08043e-17
2.60201e-17
3.15499e-17
3.73294e-17
4.32932e-17
4.93767e-17
5.55186e-17
6.16634e-17
6.77626e-17
7.37739e-17
7.96633e-17
8.54043e-17
9.09771e-17
9.63678e-17
1.01568e-16
1.06576e-16
1.11391e-16
1.16018e-16
1.20465e-16
1.24739e-16
1.2885e-16
1.32805e-16
1.36611e-16
1.40271e-16
1.43785e-16
1.47148e-16
1.50351e-16
1.53381e-16
1.56221e-16
1.58854e-16
1.6126e-16
1.63425e-16
1.65348e-16
1.6704e-16
1.68524e-16
1.69825e-16
1.70967e-16
1.71978e-16
1.72883e-16
1.7368e-16
1.74323e-16
1.7473e-16
1.74938e-16
1.75019e-16
1.75037e-16
1.74997e-16
1.75401e-16
7.18962e-10
-1.68904e-09
-9.18778e-09
-1.56853e-08
-1.82385e-08
-2.02232e-08
-2.16179e-08
-2.2687e-08
-2.3515e-08
-2.41642e-08
-2.46815e-08
-2.51033e-08
-2.54523e-08
-2.57439e-08
-2.59873e-08
-2.61867e-08
-2.63445e-08
-2.64619e-08
-2.65416e-08
-2.65873e-08
-2.66047e-08
-2.66008e-08
-2.65839e-08
-2.65626e-08
-2.65452e-08
-2.65393e-08
-2.65514e-08
-2.65866e-08
-2.66485e-08
-2.67394e-08
-2.68602e-08
-2.70106e-08
-2.71894e-08
-2.73948e-08
-2.76241e-08
-2.78746e-08
-2.81432e-08
-2.84266e-08
-2.87216e-08
-2.90252e-08
-2.93344e-08
-2.96463e-08
-2.99582e-08
-3.02674e-08
-3.05712e-08
-3.08663e-08
-3.11491e-08
-3.1415e-08
-3.16587e-08
-3.18734e-08
-3.20517e-08
-3.21852e-08
-3.2266e-08
-3.22895e-08
-3.22531e-08
-3.21507e-08
-3.19774e-08
-3.17288e-08
-3.13928e-08
-3.09602e-08
-3.04311e-08
-2.9811e-08
-2.91158e-08
-2.83664e-08
-2.75879e-08
-2.68086e-08
-2.6044e-08
-2.53085e-08
-2.46152e-08
-2.39656e-08
-2.33591e-08
-2.27947e-08
-2.2271e-08
-2.17807e-08
-2.13177e-08
-2.08834e-08
-2.0473e-08
-2.00826e-08
-1.97147e-08
-1.93677e-08
-1.90439e-08
-1.87398e-08
-1.84617e-08
-1.82045e-08
-1.79773e-08
-1.77513e-08
-1.76052e-08
-1.74392e-08
-1.77005e-08
-1.10937e-08
3.53906e-08
-1.83737e-09
1.19104e-07
4.65691e-07
1.77496e-07
2.53185e-10
2.1058e-11
6.96866e-11
8.81229e-11
1.03505e-10
1.14121e-10
1.20549e-10
1.22991e-10
1.21388e-10
1.15187e-10
1.02948e-10
8.06598e-11
4.62595e-11
-9.08452e-11
-1.23124e-10
6.21534e-11
8.20802e-11
8.10143e-11
8.0969e-11
8.09404e-11
8.09602e-11
8.09406e-11
8.09607e-11
8.09406e-11
8.0961e-11
8.09404e-11
8.09614e-11
8.09402e-11
8.09616e-11
8.09401e-11
8.09617e-11
8.094e-11
8.09617e-11
8.09399e-11
8.0962e-11
8.09396e-11
8.09623e-11
8.09394e-11
8.09625e-11
8.09391e-11
8.09628e-11
8.09389e-11
8.0963e-11
8.09387e-11
8.09631e-11
8.09386e-11
8.09632e-11
8.09385e-11
8.09633e-11
8.09385e-11
8.09633e-11
8.09385e-11
8.09633e-11
8.09386e-11
8.09632e-11
8.09387e-11
8.0963e-11
8.09389e-11
8.09627e-11
8.09391e-11
8.09623e-11
8.09395e-11
8.09619e-11
8.09398e-11
8.09614e-11
8.09403e-11
8.09609e-11
8.09408e-11
8.09604e-11
8.09412e-11
8.09599e-11
8.09416e-11
8.09595e-11
8.0942e-11
8.09591e-11
8.09424e-11
8.09587e-11
8.09428e-11
8.09583e-11
8.09432e-11
8.09578e-11
8.09435e-11
8.09574e-11
8.09439e-11
8.09569e-11
8.09442e-11
8.09562e-11
8.0944e-11
8.09551e-11
8.09437e-11
8.09541e-11
8.09434e-11
8.09529e-11
8.0943e-11
8.09518e-11
8.09427e-11
8.09506e-11
8.09422e-11
8.09492e-11
8.09416e-11
8.09477e-11
8.09407e-11
8.09457e-11
8.09394e-11
8.09434e-11
8.09377e-11
8.09408e-11
8.09358e-11
8.0938e-11
8.09332e-11
8.09342e-11
8.09303e-11
8.09309e-11
8.0919e-11
7.92673e-11
-7.66709e-11
4.28726e-09
)
;

boundaryField
{
    inandouthalf11
    {
        type            cyclic;
        value           nonuniform List<scalar> 
100
(
-5.36557e-39
-2.23417e-14
-4.77878e-14
-7.03098e-14
-9.2578e-14
-1.15633e-13
-1.39185e-13
-1.62926e-13
-1.86757e-13
-2.10684e-13
-2.34748e-13
-2.5898e-13
-2.83383e-13
-3.07946e-13
-3.32654e-13
-3.57504e-13
-3.82497e-13
-4.07637e-13
-4.32926e-13
-4.58365e-13
-4.83953e-13
-5.09688e-13
-5.35569e-13
-5.61593e-13
-5.8775e-13
-6.14024e-13
-6.40397e-13
-6.66851e-13
-6.93368e-13
-7.19928e-13
-7.46524e-13
-7.73165e-13
-7.99883e-13
-8.26741e-13
-8.53833e-13
-8.81279e-13
-9.09226e-13
-9.37841e-13
-9.67283e-13
-9.97662e-13
-1.02902e-12
-1.06128e-12
-1.0942e-12
-1.12735e-12
-1.16006e-12
-1.19147e-12
-1.22055e-12
-1.24622e-12
-1.26759e-12
-1.28411e-12
-1.29581e-12
-1.30345e-12
-1.30869e-12
-1.31404e-12
-1.32288e-12
-1.3394e-12
-1.36864e-12
-1.41676e-12
-1.4914e-12
-1.60233e-12
-1.76192e-12
-1.98486e-12
-2.28528e-12
-2.66849e-12
-3.11354e-12
-3.548e-12
-3.83197e-12
-3.79064e-12
-3.32111e-12
-2.50752e-12
-1.60392e-12
-8.64811e-13
-3.95843e-13
-1.56442e-13
-5.47005e-14
-1.74357e-14
-5.24396e-15
-1.5445e-15
-4.62758e-16
-1.46806e-16
-5.1695e-17
-2.14273e-17
-1.10607e-17
-7.20244e-18
-5.64025e-18
-4.95815e-18
-4.64424e-18
-4.49957e-18
-4.4416e-18
-4.43448e-18
-4.46259e-18
-4.51984e-18
-4.60502e-18
-4.71944e-18
-4.8658e-18
-5.04731e-18
-5.26704e-18
-5.5275e-18
-5.83029e-18
-6.17589e-18
)
;
    }
    inandouthalf12
    {
        type            cyclic;
        value           nonuniform List<scalar> 
100
(
5.36557e-39
2.23417e-14
4.77878e-14
7.03098e-14
9.2578e-14
1.15633e-13
1.39185e-13
1.62926e-13
1.86757e-13
2.10684e-13
2.34748e-13
2.5898e-13
2.83383e-13
3.07946e-13
3.32654e-13
3.57504e-13
3.82497e-13
4.07637e-13
4.32926e-13
4.58365e-13
4.83953e-13
5.09688e-13
5.35569e-13
5.61593e-13
5.8775e-13
6.14024e-13
6.40397e-13
6.66851e-13
6.93368e-13
7.19928e-13
7.46524e-13
7.73165e-13
7.99883e-13
8.26741e-13
8.53833e-13
8.81279e-13
9.09226e-13
9.37841e-13
9.67283e-13
9.97662e-13
1.02902e-12
1.06128e-12
1.0942e-12
1.12735e-12
1.16006e-12
1.19147e-12
1.22055e-12
1.24622e-12
1.26759e-12
1.28411e-12
1.29581e-12
1.30345e-12
1.30869e-12
1.31404e-12
1.32288e-12
1.3394e-12
1.36864e-12
1.41676e-12
1.4914e-12
1.60233e-12
1.76192e-12
1.98486e-12
2.28528e-12
2.66849e-12
3.11354e-12
3.548e-12
3.83197e-12
3.79064e-12
3.32111e-12
2.50752e-12
1.60392e-12
8.64811e-13
3.95843e-13
1.56442e-13
5.47005e-14
1.74357e-14
5.24396e-15
1.5445e-15
4.62758e-16
1.46806e-16
5.1695e-17
2.14273e-17
1.10607e-17
7.20244e-18
5.64025e-18
4.95815e-18
4.64424e-18
4.49957e-18
4.4416e-18
4.43448e-18
4.46259e-18
4.51984e-18
4.60502e-18
4.71944e-18
4.8658e-18
5.04731e-18
5.26704e-18
5.5275e-18
5.83029e-18
6.17589e-18
)
;
    }
    inandouthalf21
    {
        type            cyclic;
        value           nonuniform List<scalar> 
100
(
-6.56346e-18
-6.99112e-18
-7.456e-18
-7.9544e-18
-8.48207e-18
-9.03449e-18
-9.60708e-18
-1.01954e-17
-1.0795e-17
-1.1402e-17
-1.20131e-17
-1.26251e-17
-1.32357e-17
-1.38428e-17
-1.4445e-17
-1.50412e-17
-1.56311e-17
-1.62146e-17
-1.67919e-17
-1.7364e-17
-1.79316e-17
-1.84958e-17
-1.90576e-17
-1.96179e-17
-2.01769e-17
-2.07344e-17
-2.12894e-17
-2.18397e-17
-2.23825e-17
-2.29133e-17
-2.34268e-17
-2.39175e-17
-2.43807e-17
-2.48143e-17
-2.52191e-17
-2.55978e-17
-2.59544e-17
-2.62955e-17
-2.6629e-17
-2.69593e-17
-2.72721e-17
-2.75312e-17
-2.77064e-17
-2.77996e-17
-2.78375e-17
-2.78553e-17
-2.7872e-17
-2.80713e-17
-1.0682e-07
-1.92478e-07
-1.93347e-07
-2.03647e-07
-2.17765e-07
-2.32185e-07
-2.45582e-07
-2.57539e-07
-2.68039e-07
-2.77221e-07
-2.85264e-07
-2.92344e-07
-2.98616e-07
-3.04212e-07
-3.09241e-07
-3.13795e-07
-3.17949e-07
-3.21763e-07
-3.25288e-07
-3.28562e-07
-3.31616e-07
-3.34474e-07
-3.37155e-07
-3.39672e-07
-3.42036e-07
-3.44256e-07
-3.46339e-07
-3.48289e-07
-3.50111e-07
-3.51808e-07
-3.53383e-07
-3.54839e-07
-3.56176e-07
-3.57398e-07
-3.58506e-07
-3.59501e-07
-3.60386e-07
-3.61161e-07
-3.61829e-07
-3.62392e-07
-3.62852e-07
-3.6321e-07
-3.63471e-07
-3.63635e-07
-3.63707e-07
-3.63689e-07
-3.63586e-07
-3.634e-07
-3.63136e-07
-3.62799e-07
-3.62394e-07
-3.61925e-07
)
;
    }
    inandouthalf22
    {
        type            cyclic;
        value           nonuniform List<scalar> 
100
(
6.56346e-18
6.99112e-18
7.456e-18
7.9544e-18
8.48207e-18
9.03449e-18
9.60708e-18
1.01954e-17
1.0795e-17
1.1402e-17
1.20131e-17
1.26251e-17
1.32357e-17
1.38428e-17
1.4445e-17
1.50412e-17
1.56311e-17
1.62146e-17
1.67919e-17
1.7364e-17
1.79316e-17
1.84958e-17
1.90576e-17
1.96179e-17
2.01769e-17
2.07344e-17
2.12894e-17
2.18397e-17
2.23825e-17
2.29133e-17
2.34268e-17
2.39175e-17
2.43807e-17
2.48143e-17
2.52191e-17
2.55978e-17
2.59544e-17
2.62955e-17
2.6629e-17
2.69593e-17
2.72721e-17
2.75312e-17
2.77064e-17
2.77996e-17
2.78375e-17
2.78553e-17
2.7872e-17
2.80713e-17
1.0682e-07
1.92478e-07
1.93347e-07
2.03647e-07
2.17765e-07
2.32185e-07
2.45582e-07
2.57539e-07
2.68039e-07
2.77221e-07
2.85264e-07
2.92344e-07
2.98616e-07
3.04212e-07
3.09241e-07
3.13795e-07
3.17949e-07
3.21763e-07
3.25288e-07
3.28562e-07
3.31616e-07
3.34474e-07
3.37155e-07
3.39672e-07
3.42036e-07
3.44256e-07
3.46339e-07
3.48289e-07
3.50111e-07
3.51808e-07
3.53383e-07
3.54839e-07
3.56176e-07
3.57398e-07
3.58506e-07
3.59501e-07
3.60386e-07
3.61161e-07
3.61829e-07
3.62392e-07
3.62852e-07
3.6321e-07
3.63471e-07
3.63635e-07
3.63707e-07
3.63689e-07
3.63586e-07
3.634e-07
3.63136e-07
3.62799e-07
3.62394e-07
3.61925e-07
)
;
    }
    inandouthalf31
    {
        type            cyclic;
        value           nonuniform List<scalar> 
110
(
-3.61402e-07
-3.68144e-07
-3.74952e-07
-3.81828e-07
-3.88778e-07
-3.95809e-07
-4.02931e-07
-4.10157e-07
-4.17501e-07
-4.2498e-07
-4.32612e-07
-4.40415e-07
-4.48405e-07
-4.56595e-07
-4.64997e-07
-4.73621e-07
-4.82471e-07
-4.91552e-07
-5.00866e-07
-5.10412e-07
-5.2019e-07
-5.302e-07
-5.40441e-07
-5.50908e-07
-5.61603e-07
-5.72522e-07
-5.83662e-07
-5.95021e-07
-6.06598e-07
-6.18393e-07
-6.30408e-07
-6.42648e-07
-6.55129e-07
-6.67836e-07
-6.80787e-07
-6.9402e-07
-7.07416e-07
-6.4861e-07
-6.60947e-07
-6.65826e-07
-6.78905e-07
-6.83393e-07
-6.96242e-07
-7.05923e-07
-7.16632e-07
-7.2786e-07
-7.39666e-07
-7.52052e-07
-7.65028e-07
-7.78612e-07
-7.92834e-07
-8.07743e-07
-8.23428e-07
-8.4004e-07
-8.57825e-07
-8.77185e-07
-9.02968e-07
-9.27933e-07
-9.47734e-07
-9.66998e-07
-9.86626e-07
-1.00665e-06
-1.02708e-06
-1.04793e-06
-1.0692e-06
-1.0909e-06
-1.11305e-06
-1.13564e-06
-1.15869e-06
-1.18221e-06
-1.2062e-06
-1.23068e-06
-1.25566e-06
-1.28115e-06
-1.30715e-06
-1.33369e-06
-1.36076e-06
-1.38838e-06
-1.41656e-06
-1.44531e-06
-1.47465e-06
-1.50458e-06
-1.53512e-06
-1.56627e-06
-1.59807e-06
-1.6305e-06
-1.6636e-06
-1.69736e-06
-1.73182e-06
-1.76697e-06
-1.80283e-06
-1.83942e-06
-1.87676e-06
-1.91485e-06
-1.95372e-06
-1.99337e-06
-2.03383e-06
-2.07512e-06
-2.11724e-06
-2.16021e-06
-2.20406e-06
-2.24879e-06
-2.29444e-06
-2.34101e-06
-2.38852e-06
-2.437e-06
-2.48647e-06
-2.53694e-06
-2.58843e-06
-2.64097e-06
)
;
    }
    inandouthalf32
    {
        type            cyclic;
        value           nonuniform List<scalar> 
110
(
3.61402e-07
3.68144e-07
3.74952e-07
3.81828e-07
3.88778e-07
3.95809e-07
4.02931e-07
4.10157e-07
4.17501e-07
4.2498e-07
4.32612e-07
4.40415e-07
4.48405e-07
4.56595e-07
4.64997e-07
4.73621e-07
4.82471e-07
4.91552e-07
5.00866e-07
5.10412e-07
5.2019e-07
5.302e-07
5.40441e-07
5.50908e-07
5.61603e-07
5.72522e-07
5.83662e-07
5.95021e-07
6.06598e-07
6.18393e-07
6.30408e-07
6.42648e-07
6.55129e-07
6.67836e-07
6.80787e-07
6.9402e-07
7.07416e-07
6.4861e-07
6.60947e-07
6.65826e-07
6.78905e-07
6.83393e-07
6.96242e-07
7.05923e-07
7.16632e-07
7.2786e-07
7.39666e-07
7.52052e-07
7.65028e-07
7.78612e-07
7.92834e-07
8.07743e-07
8.23428e-07
8.4004e-07
8.57825e-07
8.77185e-07
9.02968e-07
9.27933e-07
9.47734e-07
9.66998e-07
9.86626e-07
1.00665e-06
1.02708e-06
1.04793e-06
1.0692e-06
1.0909e-06
1.11305e-06
1.13564e-06
1.15869e-06
1.18221e-06
1.2062e-06
1.23068e-06
1.25566e-06
1.28115e-06
1.30715e-06
1.33369e-06
1.36076e-06
1.38838e-06
1.41656e-06
1.44531e-06
1.47465e-06
1.50458e-06
1.53512e-06
1.56627e-06
1.59807e-06
1.6305e-06
1.6636e-06
1.69736e-06
1.73182e-06
1.76697e-06
1.80283e-06
1.83942e-06
1.87676e-06
1.91485e-06
1.95372e-06
1.99337e-06
2.03383e-06
2.07512e-06
2.11724e-06
2.16021e-06
2.20406e-06
2.24879e-06
2.29444e-06
2.34101e-06
2.38852e-06
2.437e-06
2.48647e-06
2.53694e-06
2.58843e-06
2.64097e-06
)
;
    }
    inandouthalf41
    {
        type            cyclic;
        value           nonuniform List<scalar> 
50
(
-2.36394e-06
-2.36394e-06
-2.36394e-06
-2.36394e-06
-2.36394e-06
-2.36394e-06
-2.36394e-06
-2.36394e-06
-2.36394e-06
-2.36394e-06
-2.36394e-06
-2.36394e-06
-2.36394e-06
-2.36394e-06
-2.36394e-06
-2.36394e-06
-2.36394e-06
-2.36394e-06
-2.36394e-06
-2.36394e-06
-2.36394e-06
-2.36394e-06
-2.36394e-06
-2.36394e-06
-2.36394e-06
-2.36394e-06
-2.36394e-06
-2.36394e-06
-2.36394e-06
-2.36394e-06
-2.36394e-06
-2.36394e-06
-2.36394e-06
-2.36394e-06
-2.36394e-06
-2.36394e-06
-2.36394e-06
-2.36394e-06
-2.36394e-06
-2.36394e-06
-2.36394e-06
-2.36394e-06
-2.36394e-06
-2.36394e-06
-2.36394e-06
-2.36394e-06
-2.36394e-06
-2.36393e-06
-2.36378e-06
-2.35998e-06
)
;
    }
    inandouthalf42
    {
        type            cyclic;
        value           nonuniform List<scalar> 
50
(
2.36394e-06
2.36394e-06
2.36394e-06
2.36394e-06
2.36394e-06
2.36394e-06
2.36394e-06
2.36394e-06
2.36394e-06
2.36394e-06
2.36394e-06
2.36394e-06
2.36394e-06
2.36394e-06
2.36394e-06
2.36394e-06
2.36394e-06
2.36394e-06
2.36394e-06
2.36394e-06
2.36394e-06
2.36394e-06
2.36394e-06
2.36394e-06
2.36394e-06
2.36394e-06
2.36394e-06
2.36394e-06
2.36394e-06
2.36394e-06
2.36394e-06
2.36394e-06
2.36394e-06
2.36394e-06
2.36394e-06
2.36394e-06
2.36394e-06
2.36394e-06
2.36394e-06
2.36394e-06
2.36394e-06
2.36394e-06
2.36394e-06
2.36394e-06
2.36394e-06
2.36394e-06
2.36394e-06
2.36393e-06
2.36378e-06
2.35998e-06
)
;
    }
    top
    {
        type            symmetryPlane;
        value           uniform 0;
    }
    walls
    {
        type            calculated;
        value           uniform 0;
    }
    frontAndBackPlanes
    {
        type            empty;
        value           nonuniform 0();
    }
}


// ************************************************************************* //
