/*--------------------------------*- C++ -*----------------------------------*\
| =========                 |                                                 |
| \\      /  F ield         | OpenFOAM: The Open Source CFD Toolbox           |
|  \\    /   O peration     | Version:  2.4.x                                 |
|   \\  /    A nd           | Web:      www.OpenFOAM.org                      |
|    \\/     M anipulation  |                                                 |
\*---------------------------------------------------------------------------*/
FoamFile
{
    version     2.0;
    format      ascii;
    class       volScalarField;
    location    "6.45";
    object      ddt0(((1.5*(alpha+1e-08))*rho),Theta);
}
// * * * * * * * * * * * * * * * * * * * * * * * * * * * * * * * * * * * * * //

dimensions      [1 -1 -3 0 0 0 0];

internalField   nonuniform List<scalar> 
360
(
-7.61249e-21
-2.68385e-20
-1.99541e-20
-1.7172e-20
-1.82832e-20
-1.94915e-20
-2.00078e-20
-2.02049e-20
-2.03526e-20
-2.0559e-20
-2.08402e-20
-2.1152e-20
-2.14536e-20
-2.17296e-20
-2.19893e-20
-2.2251e-20
-2.25208e-20
-2.27955e-20
-2.30752e-20
-2.33566e-20
-2.36339e-20
-2.39118e-20
-2.41891e-20
-2.4456e-20
-2.47041e-20
-2.49232e-20
-2.5112e-20
-2.5274e-20
-2.5405e-20
-2.55097e-20
-2.56166e-20
-2.57559e-20
-2.59698e-20
-2.63147e-20
-2.68316e-20
-2.75638e-20
-2.85555e-20
-2.98266e-20
-3.13323e-20
-3.29797e-20
-3.46427e-20
-3.60798e-20
-3.6991e-20
-3.70492e-20
-3.58665e-20
-3.31193e-20
-2.86554e-20
-2.26268e-20
-1.55772e-20
-8.34741e-21
-2.01806e-21
2.23195e-21
3.35497e-21
5.37844e-22
-6.86828e-21
-1.96206e-20
-3.90462e-20
-6.77405e-20
-1.10497e-19
-1.75749e-19
-2.7714e-19
-4.33137e-19
-6.59569e-19
-9.41012e-19
-1.16872e-18
-1.08519e-18
-4.05064e-19
7.54099e-19
1.64139e-18
1.61786e-18
9.68468e-19
3.77682e-19
1.00023e-19
1.8823e-20
2.662e-21
3.06695e-22
3.49561e-23
7.35941e-24
4.42273e-24
4.01188e-24
3.93039e-24
3.91053e-24
3.90592e-24
3.90569e-24
3.90687e-24
3.90857e-24
3.91056e-24
3.91285e-24
3.91506e-24
3.91736e-24
3.91973e-24
3.922e-24
3.92434e-24
3.92666e-24
3.92904e-24
3.93155e-24
3.9341e-24
3.93675e-24
3.93946e-24
3.94216e-24
3.94496e-24
3.94779e-24
3.95066e-24
3.95363e-24
3.95665e-24
3.95962e-24
3.96274e-24
3.9659e-24
3.96907e-24
3.97231e-24
3.97567e-24
3.97891e-24
3.98231e-24
3.9858e-24
3.98927e-24
3.99282e-24
3.99647e-24
4.00011e-24
4.00383e-24
4.00767e-24
4.01152e-24
4.01543e-24
4.01935e-24
4.02339e-24
4.02757e-24
4.03164e-24
4.03557e-24
4.03937e-24
4.04317e-24
4.04687e-24
4.05064e-24
-2.90343e-23
-6.51862e-18
-4.05608e-17
-2.6757e-16
-1.89466e-15
-1.42787e-14
-1.14856e-13
-9.95868e-13
-9.44071e-12
-9.95004e-11
-1.18827e-09
-1.64535e-08
-2.70407e-07
-5.50764e-06
-0.000208578
-0.012277
-0.24585
-2.33134
-2.5793
-1.31116
-0.818606
-0.55077
-0.383727
-0.275595
-0.203535
-0.153797
-0.118263
-0.092145
-0.0725223
-0.0575342
-0.0459407
-0.0368823
-0.0297454
-0.0240815
-0.0195583
-0.0159246
-0.0129903
-0.0106085
-0.00866757
-0.00707858
-0.00577351
-0.00469835
-0.00381018
-0.00307515
-0.002466
-0.00196075
-0.00154151
-0.0011939
-0.000905954
-0.000667992
-0.000471877
-0.00031095
-0.000179572
-7.30955e-05
1.24506e-05
8.03817e-05
0.000133502
0.000174188
0.000204459
0.000226033
0.000240372
0.000248722
0.000252142
0.000251532
0.000247655
0.000241157
0.000232583
0.000222391
0.000210976
0.000198704
0.000185765
0.000172279
0.000158464
0.000144533
0.00013062
0.000116846
0.000103388
9.04291e-05
7.81677e-05
6.67892e-05
5.64284e-05
4.72055e-05
3.91388e-05
3.218e-05
2.62836e-05
2.13448e-05
1.72431e-05
1.38643e-05
1.11034e-05
8.86111e-06
7.0341e-06
5.55822e-06
4.37044e-06
3.41397e-06
2.64827e-06
2.03925e-06
1.55475e-06
1.17393e-06
8.71562e-07
6.40028e-07
4.5489e-07
3.19231e-07
2.06787e-07
1.36225e-07
6.48315e-08
0
0
0
0
0
0
0
0
0
0
0
0
0
0
0
0
0
0
0
0
0
0
0
0
0
0
0
0
0
0
0
0
0
0
0
0
0
0
0
0
0
0
0
0
0
0
0
0
0
0
0
0
0
0
0
0
0
0
0
0
0
0
0
0
0
0
0
0
0
0
0
0
0
0
0
0
0
0
0
0
0
0
0
0
0
0
0
0
0
0
0
0
0
0
0
0
0
0
0
0
0
0
0
0
0
0
0
0
0
0
0
0
0
0
0
0
0
0
0
0
0
0
0
0
)
;

boundaryField
{
    inandouthalf11
    {
        type            cyclic;
    }
    inandouthalf12
    {
        type            cyclic;
    }
    inandouthalf21
    {
        type            cyclic;
    }
    inandouthalf22
    {
        type            cyclic;
    }
    inandouthalf31
    {
        type            cyclic;
    }
    inandouthalf32
    {
        type            cyclic;
    }
    inandouthalf41
    {
        type            cyclic;
    }
    inandouthalf42
    {
        type            cyclic;
    }
    top
    {
        type            symmetryPlane;
    }
    walls
    {
        type            calculated;
        value           uniform -7.61249e-21;
    }
    frontAndBackPlanes
    {
        type            empty;
    }
}


// ************************************************************************* //
