/*--------------------------------*- C++ -*----------------------------------*\
| =========                 |                                                 |
| \\      /  F ield         | OpenFOAM: The Open Source CFD Toolbox           |
|  \\    /   O peration     | Version:  2.4.x                                 |
|   \\  /    A nd           | Web:      www.OpenFOAM.org                      |
|    \\/     M anipulation  |                                                 |
\*---------------------------------------------------------------------------*/
FoamFile
{
    version     2.0;
    format      ascii;
    class       volScalarField;
    location    "6.45";
    object      epsilon_0;
}
// * * * * * * * * * * * * * * * * * * * * * * * * * * * * * * * * * * * * * //

dimensions      [0 2 -3 0 0 0 0];

internalField   nonuniform List<scalar> 
360
(
1.60309e-27
1e-20
1e-20
1e-20
1e-20
1e-20
1e-20
1e-20
1e-20
1e-20
1e-20
1e-20
1e-20
1e-20
1e-20
1e-20
1e-20
1e-20
1e-20
1e-20
1e-20
1e-20
1e-20
1e-20
1e-20
1e-20
1e-20
1e-20
1e-20
1e-20
1e-20
1e-20
1e-20
1e-20
1e-20
1e-20
1e-20
1e-20
1e-20
1e-20
1e-20
1e-20
1e-20
1e-20
1e-20
1e-20
1e-20
1e-20
1e-20
1e-20
1e-20
1e-20
1e-20
1e-20
1e-20
1e-20
1e-20
1e-20
1e-20
1e-20
1e-20
1e-20
1e-20
1e-20
1e-20
1e-20
1e-20
1e-20
1e-20
1e-20
1e-20
1e-20
1e-20
1e-20
1e-20
1e-20
1e-20
1e-20
1e-20
1e-20
1e-20
1e-20
1e-20
1e-20
1e-20
1e-20
1e-20
1e-20
1e-20
1e-20
1e-20
1e-20
1e-20
1e-20
1e-20
1e-20
1e-20
1e-20
1e-20
1e-20
1e-20
1e-20
1e-20
1e-20
1e-20
1e-20
1e-20
1e-20
1e-20
1e-20
1e-20
1e-20
1e-20
1e-20
1e-20
1e-20
1e-20
1e-20
1e-20
1e-20
1e-20
1e-20
1e-20
1e-20
1e-20
1e-20
1e-20
1e-20
1e-20
1e-20
1e-20
1e-20
1.62429e-20
7.61849e-20
4.24201e-19
2.55901e-18
1.68119e-17
1.2179e-16
9.87377e-16
9.10263e-15
9.70141e-14
1.2163e-12
1.82684e-11
3.33829e-10
7.50942e-09
2.09944e-07
7.32496e-06
0.000309685
0.0109709
0.0872713
0.118398
0.116105
0.107714
0.0984964
0.0899197
0.0823304
0.0757224
0.0699845
0.0649861
0.0606071
0.0567447
0.0533142
0.0502467
0.047486
0.0449865
0.0427109
0.0406283
0.0387134
0.0369448
0.0353049
0.0337786
0.0323531
0.0310175
0.0297625
0.0285798
0.0274626
0.0264047
0.0254007
0.0244458
0.023536
0.0226675
0.021837
0.0210417
0.0202788
0.0195461
0.0188415
0.018163
0.017509
0.0168778
0.0162681
0.0156786
0.0151082
0.0145558
0.0140204
0.0135012
0.0129973
0.0125082
0.012033
0.0115712
0.0111222
0.0106856
0.0102565
0.00983086
0.00940869
0.00899019
0.00857554
0.00816497
0.00775873
0.00735709
0.0069604
0.006569
0.00618332
0.00580383
0.00543102
0.00506549
0.00470786
0.00435882
0.00401912
0.00368957
0.00337104
0.00306443
0.00277072
0.00249086
0.00222585
0.00197663
0.00174412
0.00152909
0.00133218
0.00115383
0.000994175
0.00085307
0.000729997
0.000624089
0.000534142
0.000458681
0.000396043
0.000344478
0.000302242
0.000267683
0.000239291
0.00021573
0.000195843
0.000178653
0.000163342
0.000149245
0.000135834
0.000122707
0.000109579
9.62762e-05
8.27353e-05
6.90001e-05
5.52272e-05
4.16963e-05
2.88299e-05
1.72247e-05
7.72017e-06
1.70061e-06
1.06632e-07
2.49501e-09
4.81107e-11
8.68373e-13
1.4733e-14
2.35142e-16
3.53924e-18
5.77282e-20
1e-20
1e-20
1e-20
1e-20
1e-20
1e-20
1e-20
1e-20
1e-20
1e-20
1e-20
1e-20
1e-20
1e-20
1e-20
1e-20
1e-20
1e-20
1e-20
1e-20
1e-20
1e-20
1e-20
1e-20
1e-20
1e-20
1e-20
1e-20
1e-20
1e-20
1e-20
1e-20
1e-20
1e-20
1e-20
1e-20
1e-20
1e-20
1e-20
1e-20
1e-20
1e-20
1e-20
1e-20
1e-20
1e-20
1e-20
1e-20
1e-20
1e-20
1e-20
1e-20
1e-20
1e-20
1e-20
1e-20
1e-20
1e-20
1e-20
1e-20
1e-20
1e-20
1e-20
1e-20
1e-20
1e-20
1e-20
1e-20
1e-20
1e-20
1e-20
1e-20
1e-20
1e-20
1e-20
1e-20
1e-20
1e-20
1e-20
1e-20
1e-20
1e-20
1e-20
1e-20
1e-20
1e-20
1e-20
1e-20
1e-20
1e-20
1e-20
1e-20
1e-20
1e-20
1e-20
)
;

boundaryField
{
    inandouthalf11
    {
        type            cyclic;
    }
    inandouthalf12
    {
        type            cyclic;
    }
    inandouthalf21
    {
        type            cyclic;
    }
    inandouthalf22
    {
        type            cyclic;
    }
    inandouthalf31
    {
        type            cyclic;
    }
    inandouthalf32
    {
        type            cyclic;
    }
    inandouthalf41
    {
        type            cyclic;
    }
    inandouthalf42
    {
        type            cyclic;
    }
    top
    {
        type            symmetryPlane;
    }
    walls
    {
        type            zeroGradient;
    }
    frontAndBackPlanes
    {
        type            empty;
    }
}


// ************************************************************************* //
