/*--------------------------------*- C++ -*----------------------------------*\
| =========                 |                                                 |
| \\      /  F ield         | OpenFOAM: The Open Source CFD Toolbox           |
|  \\    /   O peration     | Version:  2.4.x                                 |
|   \\  /    A nd           | Web:      www.OpenFOAM.org                      |
|    \\/     M anipulation  |                                                 |
\*---------------------------------------------------------------------------*/
FoamFile
{
    version     2.0;
    format      ascii;
    class       volVectorField;
    location    "6.45";
    object      gradPs;
}
// * * * * * * * * * * * * * * * * * * * * * * * * * * * * * * * * * * * * * //

dimensions      [0 1 -2 0 0 0 0];

internalField   nonuniform List<vector> 
360
(
(0 1.58733e-18 0)
(0 1.70141e-18 0)
(0 -4.98323e-20 0)
(0 -2.38471e-19 0)
(-1.45083e-32 -9.49689e-20 0)
(-1.45088e-32 -5.22891e-20 0)
(-1.45092e-32 -6.86858e-20 0)
(0 -7.85297e-20 0)
(-1.45103e-32 -7.9827e-20 0)
(0 -8.04174e-20 0)
(-2.90228e-32 -8.03011e-20 0)
(0 -8.03924e-20 0)
(-1.45126e-32 -8.10939e-20 0)
(0 -8.18406e-20 0)
(0 -8.28089e-20 0)
(0 -8.37164e-20 0)
(0 -8.43762e-20 0)
(-1.45155e-32 -8.4914e-20 0)
(0 -8.59046e-20 0)
(0 -8.6506e-20 0)
(0 -8.71284e-20 0)
(-1.4518e-32 -8.81422e-20 0)
(0 -8.87656e-20 0)
(0 -8.96018e-20 0)
(0 -9.05109e-20 0)
(-1.45205e-32 -9.1208e-20 0)
(0 -9.22647e-20 0)
(0 -9.34154e-20 0)
(0 -9.42578e-20 0)
(0 -9.52351e-20 0)
(0 -9.6665e-20 0)
(0 -9.71998e-20 0)
(0 -9.82619e-20 0)
(0 -9.91787e-20 0)
(0 -9.93469e-20 0)
(1.45274e-32 -9.96961e-20 0)
(0 -9.95246e-20 0)
(0 -9.98972e-20 0)
(0 -9.88055e-20 0)
(0 -9.86105e-20 0)
(0 -9.9222e-20 0)
(0 -9.85295e-20 0)
(1.45326e-32 -1.00086e-19 0)
(0 -1.02449e-19 0)
(0 -1.05572e-19 0)
(0 -1.11468e-19 0)
(0 -1.17611e-19 0)
(0 -1.25094e-19 0)
(0 -1.34462e-19 0)
(0 -1.41688e-19 0)
(1.4539e-32 -1.47935e-19 0)
(0 -1.52443e-19 0)
(0 -1.53194e-19 0)
(0 -1.49755e-19 0)
(0 -1.42967e-19 0)
(0 -1.31356e-19 0)
(0 -1.14386e-19 0)
(0 -9.1226e-20 0)
(0 -5.56736e-20 0)
(0 -4.57561e-21 0)
(0 7.43631e-20 0)
(0 1.92483e-19 0)
(0 3.53816e-19 0)
(0 5.34238e-19 0)
(0 6.37389e-19 0)
(0 4.87166e-19 0)
(0 -5.31309e-20 0)
(0 -8.27092e-19 0)
(0 -1.35791e-18 0)
(0 -1.31285e-18 0)
(0 -8.76194e-19 0)
(0 -4.53433e-19 0)
(0 -2.31716e-19 0)
(0 -1.58716e-19 0)
(0 -1.43485e-19 0)
(0 -1.42847e-19 0)
(0 -1.44576e-19 0)
(0 -1.4786e-19 0)
(0 -1.51386e-19 0)
(0 -1.5477e-19 0)
(0 -1.58627e-19 0)
(0 -1.63079e-19 0)
(0 -1.67323e-19 0)
(0 -1.71534e-19 0)
(0 -1.75631e-19 0)
(0 -1.79607e-19 0)
(0 -1.83397e-19 0)
(0 -1.87008e-19 0)
(0 -1.9084e-19 0)
(0 -1.9483e-19 0)
(0 -1.98939e-19 0)
(0 -2.03348e-19 0)
(0 -2.08005e-19 0)
(0 -2.12761e-19 0)
(0 -2.1763e-19 0)
(0 -2.22589e-19 0)
(0 -2.27616e-19 0)
(0 -2.32732e-19 0)
(0 -2.37985e-19 0)
(0 -2.43398e-19 0)
(0 -2.48989e-19 0)
(0 -2.54788e-19 0)
(0 -2.60802e-19 0)
(0 -2.67026e-19 0)
(0 -2.73473e-19 0)
(0 -2.8016e-19 0)
(0 -2.87099e-19 0)
(0 -2.94312e-19 0)
(0 -3.01819e-19 0)
(0 -3.09637e-19 0)
(0 -3.17783e-19 0)
(0 -3.26273e-19 0)
(0 -3.35125e-19 0)
(0 -3.44355e-19 0)
(0 -3.53982e-19 0)
(0 -3.64026e-19 0)
(0 -3.7451e-19 0)
(0 -3.85458e-19 0)
(0 -3.96898e-19 0)
(0 -4.08857e-19 0)
(0 -4.21361e-19 0)
(0 -4.34431e-19 0)
(0 -4.48088e-19 0)
(0 -4.62376e-19 0)
(0 -4.77399e-19 0)
(0 -4.93357e-19 0)
(0 -5.10536e-19 0)
(0 -5.29193e-19 0)
(0 -5.49334e-19 0)
(0 -5.70599e-19 0)
(0 -5.92471e-19 0)
(0 4.43582e-17 0)
(0 7.00566e-16 0)
(0 4.0923e-15 0)
(0 2.19966e-14 0)
(0 1.26186e-13 0)
(0 7.86774e-13 0)
(0 5.41325e-12 0)
(0 4.17807e-11 0)
(0 3.67697e-10 0)
(0 3.75357e-09 0)
(0 4.53452e-08 0)
(0 6.60806e-07 0)
(0 1.19154e-05 0)
(0 0.000337553 0)
(0 0.0181987 0)
(0 0.491635 0)
(0 2.07535 0)
(0 1.79221 0)
(0 -1.53051 0)
(0 -2.6046 0)
(0 -2.95376 0)
(0 -2.89273 0)
(0 -2.75113 0)
(0 -2.59784 0)
(0 -2.45363 0)
(0 -2.32374 0)
(0 -2.20827 0)
(0 -2.10573 0)
(0 -2.01429 0)
(0 -1.9323 0)
(0 -1.8583 0)
(0 -1.79109 0)
(0 -1.72969 0)
(0 -1.67327 0)
(0 -1.62117 0)
(0 -1.57284 0)
(0 -1.52779 0)
(0 -1.48565 0)
(0 -1.44607 0)
(0 -1.40876 0)
(0 -1.37349 0)
(0 -1.34003 0)
(0 -1.3082 0)
(0 -1.27785 0)
(0 -1.24883 0)
(0 -1.22102 0)
(0 -1.19431 0)
(0 -1.16862 0)
(0 -1.14386 0)
(0 -1.11997 0)
(0 -1.09688 0)
(0 -1.07454 0)
(0 -1.0529 0)
(0 -1.03192 0)
(0 -1.01156 0)
(0 -0.991795 0)
(0 -0.9726 0)
(0 -0.953958 0)
(0 -0.935864 0)
(0 -0.918338 0)
(0 -0.901429 0)
(0 -0.885214 0)
(0 -0.869792 0)
(0 -0.855299 0)
(0 -0.841923 0)
(0 -0.829876 0)
(0 -0.819367 0)
(0 -0.810483 0)
(0 -0.802767 0)
(0 -0.795409 0)
(0 -0.788526 0)
(-3.31559e-16 -0.782479 0)
(0 -0.777044 0)
(0 -0.773235 0)
(4.17943e-16 -0.772843 0)
(0 -0.77484 0)
(-2.48721e-16 -0.776903 0)
(0 -0.777014 0)
(3.01703e-16 -0.772413 0)
(0 -0.761186 0)
(0 -0.741013 0)
(0 -0.710737 0)
(0 -0.672732 0)
(0 -0.627163 0)
(0 -0.57464 0)
(0 -0.518894 0)
(0 -0.461958 0)
(0 -0.405099 0)
(-9.6461e-17 -0.350155 0)
(0 -0.299633 0)
(-5.37557e-17 -0.253735 0)
(0 -0.211885 0)
(-5.79632e-17 -0.175307 0)
(0 -0.143772 0)
(0 -0.116478 0)
(0 -0.0934995 0)
(0 -0.0743067 0)
(1.56005e-17 -0.058643 0)
(7.80414e-18 -0.0456595 0)
(0 -0.0353452 0)
(0 -0.0269442 0)
(0 -0.0205286 0)
(0 -0.0149182 0)
(0 -0.0112817 0)
(0 -0.010522 0)
(0 -0.00484431 0)
(0 0 0)
(0 0 0)
(0 0 0)
(0 0 0)
(0 0 0)
(0 0 0)
(0 0 0)
(0 0 0)
(0 0 0)
(0 0 0)
(0 0 0)
(0 0 0)
(0 0 0)
(0 0 0)
(0 0 0)
(0 0 0)
(0 0 0)
(0 0 0)
(0 0 0)
(0 0 0)
(0 0 0)
(0 0 0)
(0 0 0)
(0 0 0)
(0 0 0)
(0 0 0)
(0 0 0)
(0 0 0)
(0 0 0)
(0 0 0)
(0 0 0)
(0 0 0)
(0 0 0)
(0 0 0)
(0 0 0)
(0 0 0)
(0 0 0)
(0 0 0)
(0 0 0)
(0 0 0)
(0 0 0)
(0 0 0)
(0 0 0)
(0 0 0)
(0 0 0)
(0 0 0)
(0 0 0)
(0 0 0)
(0 0 0)
(0 0 0)
(0 0 0)
(0 0 0)
(0 0 0)
(0 0 0)
(0 0 0)
(0 0 0)
(0 0 0)
(0 0 0)
(0 0 0)
(0 0 0)
(0 0 0)
(0 0 0)
(0 0 0)
(0 0 0)
(0 0 0)
(0 0 0)
(0 0 0)
(0 0 0)
(0 0 0)
(0 0 0)
(0 0 0)
(0 0 0)
(0 0 0)
(0 0 0)
(0 0 0)
(0 0 0)
(0 0 0)
(0 0 0)
(0 0 0)
(0 0 0)
(0 0 0)
(0 0 0)
(0 0 0)
(0 0 0)
(0 0 0)
(0 0 0)
(0 0 0)
(0 0 0)
(0 0 0)
(0 0 0)
(0 0 0)
(0 0 0)
(0 0 0)
(0 0 0)
(0 0 0)
(0 0 0)
(0 0 0)
(0 0 0)
(0 0 0)
(0 0 0)
(0 0 0)
(0 0 0)
(0 0 0)
(0 0 0)
(0 0 0)
(0 0 0)
(0 0 0)
(0 0 0)
(0 0 0)
(0 0 0)
(0 0 0)
(0 0 0)
(0 0 0)
(0 0 0)
(0 0 0)
(0 0 0)
(0 0 0)
(0 0 0)
(0 0 0)
(0 0 0)
(0 0 0)
(0 0 0)
(0 0 0)
)
;

boundaryField
{
    inandouthalf11
    {
        type            cyclic;
    }
    inandouthalf12
    {
        type            cyclic;
    }
    inandouthalf21
    {
        type            cyclic;
    }
    inandouthalf22
    {
        type            cyclic;
    }
    inandouthalf31
    {
        type            cyclic;
    }
    inandouthalf32
    {
        type            cyclic;
    }
    inandouthalf41
    {
        type            cyclic;
    }
    inandouthalf42
    {
        type            cyclic;
    }
    top
    {
        type            symmetryPlane;
    }
    walls
    {
        type            calculated;
        value           uniform (0 0 0);
    }
    frontAndBackPlanes
    {
        type            empty;
    }
}


// ************************************************************************* //
