/*--------------------------------*- C++ -*----------------------------------*\
| =========                 |                                                 |
| \\      /  F ield         | OpenFOAM: The Open Source CFD Toolbox           |
|  \\    /   O peration     | Version:  2.4.x                                 |
|   \\  /    A nd           | Web:      www.OpenFOAM.org                      |
|    \\/     M anipulation  |                                                 |
\*---------------------------------------------------------------------------*/
FoamFile
{
    version     2.0;
    format      ascii;
    class       volVectorField;
    location    "6.45";
    object      gradPf;
}
// * * * * * * * * * * * * * * * * * * * * * * * * * * * * * * * * * * * * * //

dimensions      [0 1 -2 0 0 0 0];

internalField   nonuniform List<vector> 
360
(
(0 60.2913 0)
(0 70.1968 0)
(0 3.03798 0)
(0 -11.1188 0)
(-3.34539e-14 -5.80868 0)
(-3.34549e-14 -3.25372 0)
(-3.34559e-14 -3.54836 0)
(0 -3.89539 0)
(-3.34584e-14 -3.97653 0)
(0 -4.04099 0)
(-3.34611e-14 -4.04425 0)
(0 -4.02247 0)
(-1.67319e-14 -4.01227 0)
(0 -4.00557 0)
(0 -4.01942 0)
(0 -4.03721 0)
(0 -4.04234 0)
(-3.34705e-14 -4.03978 0)
(0 -4.05613 0)
(0 -4.05273 0)
(0 -4.05084 0)
(-1.67381e-14 -4.06915 0)
(0 -4.06909 0)
(0 -4.07485 0)
(0 -4.08033 0)
(-3.34821e-14 -4.07508 0)
(0 -4.08584 0)
(0 -4.09758 0)
(0 -4.08983 0)
(0 -4.08721 0)
(0 -4.1048 0)
(0 -4.08825 0)
(0 -4.09909 0)
(0 -4.1102 0)
(0 -4.09514 0)
(3.34979e-14 -4.09971 0)
(0 -4.10161 0)
(0 -4.13189 0)
(0 -4.10599 0)
(0 -4.11801 0)
(0 -4.15438 0)
(0 -4.11998 0)
(1.67549e-14 -4.14628 0)
(0 -4.16529 0)
(0 -4.15239 0)
(0 -4.17159 0)
(0 -4.1381 0)
(0 -4.12082 0)
(0 -4.15806 0)
(0 -4.11623 0)
(3.35247e-14 -4.077 0)
(0 -4.0675 0)
(0 -4.04255 0)
(0 -4.00684 0)
(0 -4.00309 0)
(0 -3.99519 0)
(0 -3.99351 0)
(0 -4.03456 0)
(0 -4.0454 0)
(0 -4.14033 0)
(0 -4.24138 0)
(0 -4.35265 0)
(0 -4.50672 0)
(0 -4.6501 0)
(0 -4.79441 0)
(0 -4.89819 0)
(0 -4.91596 0)
(0 -4.7818 0)
(0 -4.50306 0)
(0 -4.19163 0)
(0 -3.91692 0)
(0 -3.66442 0)
(0 -3.54353 0)
(0 -3.52297 0)
(0 -3.52861 0)
(0 -3.5441 0)
(0 -3.55524 0)
(0 -3.59495 0)
(0 -3.6373 0)
(0 -3.67376 0)
(0 -3.71871 0)
(0 -3.77468 0)
(0 -3.8226 0)
(0 -3.86663 0)
(0 -3.90506 0)
(0 -3.93784 0)
(0 -3.96379 0)
(0 -3.98322 0)
(0 -4.00478 0)
(0 -4.02692 0)
(0 -4.04868 0)
(0 -4.0735 0)
(0 -4.10006 0)
(0 -4.12517 0)
(0 -4.14903 0)
(0 -4.17111 0)
(0 -4.19089 0)
(0 -4.20872 0)
(0 -4.2254 0)
(0 -4.24118 0)
(0 -4.2562 0)
(0 -4.27083 0)
(0 -4.28492 0)
(0 -4.29821 0)
(0 -4.31072 0)
(0 -4.32244 0)
(0 -4.33337 0)
(0 -4.34356 0)
(0 -4.35305 0)
(0 -4.36178 0)
(0 -4.3697 0)
(0 -4.3767 0)
(0 -4.38269 0)
(0 -4.38755 0)
(0 -4.39117 0)
(0 -4.39342 0)
(0 -4.39419 0)
(0 -4.39339 0)
(0 -4.39092 0)
(0 -4.38666 0)
(0 -4.38044 0)
(0 -4.37202 0)
(0 -4.36117 0)
(0 -4.34786 0)
(0 -4.33254 0)
(0 -4.31635 0)
(0 -4.30087 0)
(0 -4.28702 0)
(0 -4.27353 0)
(0 -4.25645 0)
(0 -4.23294 0)
(0 -4.20963 0)
(0 -4.20455 0)
(0 -4.22512 0)
(0 -4.24176 0)
(0 -4.22019 0)
(0 -4.19488 0)
(0 -4.27062 0)
(0 -4.48815 0)
(0 -4.61453 0)
(0 -4.31827 0)
(0 -4.22623 0)
(0 -4.77495 0)
(0 -5.33847 0)
(0 -6.89979 0)
(0 -11.577 0)
(0 -8.83074 0)
(0 -5.3265 0)
(0 -5.27367 0)
(0 0 0)
(0 0 0)
(0 0 0)
(0 0 0)
(0 0 0)
(0 0 0)
(0 0 0)
(0 0 0)
(0 0 0)
(0 0 0)
(0 0 0)
(0 0 0)
(0 0 0)
(0 0 0)
(0 0 0)
(0 0 0)
(0 0 0)
(0 0 0)
(0 0 0)
(0 0 0)
(0 0 0)
(0 0 0)
(0 0 0)
(0 0 0)
(0 0 0)
(0 0 0)
(0 0 0)
(0 0 0)
(0 0 0)
(0 0 0)
(0 0 0)
(0 0 0)
(0 0 0)
(0 0 0)
(0 0 0)
(0 0 0)
(0 0 0)
(0 0 0)
(0 0 0)
(0 0 0)
(0 0 0)
(0 0 0)
(0 0 0)
(0 0 0)
(0 0 0)
(0 0 0)
(0 0 0)
(0 0 0)
(0 0 0)
(0 0 0)
(0 0 0)
(0 0 0)
(0 0 0)
(0 0 0)
(0 0 0)
(0 0 0)
(0 0 0)
(0 0 0)
(0 0 0)
(0 0 0)
(0 0 0)
(0 0 0)
(0 0 0)
(0 0 0)
(0 0 0)
(0 0 0)
(0 0 0)
(0 0 0)
(0 0 0)
(0 0 0)
(0 0 0)
(0 0 0)
(0 0 0)
(0 0 0)
(0 0 0)
(0 0 0)
(0 0 0)
(0 0 0)
(0 0 0)
(0 0 0)
(0 0 0)
(0 0 0)
(0 0 0)
(0 0 0)
(0 0 0)
(0 0 0)
(0 0 0)
(0 0 0)
(0 0 0)
(0 0 0)
(0 0 0)
(0 0 0)
(0 0 0)
(0 0 0)
(0 0 0)
(0 0 0)
(0 0 0)
(0 0 0)
(0 0 0)
(0 0 0)
(0 0 0)
(0 0 0)
(0 0 0)
(0 0 0)
(0 0 0)
(0 0 0)
(0 0 0)
(0 0 0)
(0 0 0)
(0 0 0)
(0 0 0)
(0 0 0)
(0 0 0)
(0 0 0)
(0 0 0)
(0 0 0)
(0 0 0)
(0 0 0)
(0 0 0)
(0 0 0)
(0 0 0)
(0 0 0)
(0 0 0)
(0 0 0)
(0 0 0)
(0 0 0)
(0 0 0)
(0 0 0)
(0 0 0)
(0 0 0)
(0 0 0)
(0 0 0)
(0 0 0)
(0 0 0)
(0 0 0)
(0 0 0)
(0 0 0)
(0 0 0)
(0 0 0)
(0 0 0)
(0 0 0)
(0 0 0)
(0 0 0)
(0 0 0)
(0 0 0)
(0 0 0)
(0 0 0)
(0 0 0)
(0 0 0)
(0 0 0)
(0 0 0)
(0 0 0)
(0 0 0)
(0 0 0)
(0 0 0)
(0 0 0)
(0 0 0)
(0 0 0)
(0 0 0)
(0 0 0)
(0 0 0)
(0 0 0)
(0 0 0)
(0 0 0)
(0 0 0)
(0 0 0)
(0 0 0)
(0 0 0)
(0 0 0)
(0 0 0)
(0 0 0)
(0 0 0)
(0 0 0)
(0 0 0)
(0 0 0)
(0 0 0)
(0 0 0)
(0 0 0)
(0 0 0)
(0 0 0)
(0 0 0)
(0 0 0)
(0 0 0)
(0 0 0)
(0 0 0)
(0 0 0)
(0 0 0)
(0 0 0)
(0 0 0)
(0 0 0)
(0 0 0)
(0 0 0)
(0 0 0)
(0 0 0)
(0 0 0)
(0 0 0)
(0 0 0)
(0 0 0)
(0 0 0)
(0 0 0)
(0 0 0)
(0 0 0)
(0 0 0)
(0 0 0)
(0 0 0)
(0 0 0)
(0 0 0)
(0 0 0)
(0 0 0)
(0 0 0)
(0 0 0)
)
;

boundaryField
{
    inandouthalf11
    {
        type            cyclic;
    }
    inandouthalf12
    {
        type            cyclic;
    }
    inandouthalf21
    {
        type            cyclic;
    }
    inandouthalf22
    {
        type            cyclic;
    }
    inandouthalf31
    {
        type            cyclic;
    }
    inandouthalf32
    {
        type            cyclic;
    }
    inandouthalf41
    {
        type            cyclic;
    }
    inandouthalf42
    {
        type            cyclic;
    }
    top
    {
        type            symmetryPlane;
    }
    walls
    {
        type            calculated;
        value           uniform (0 0 0);
    }
    frontAndBackPlanes
    {
        type            empty;
    }
}


// ************************************************************************* //
