/*--------------------------------*- C++ -*----------------------------------*\
| =========                 |                                                 |
| \\      /  F ield         | OpenFOAM: The Open Source CFD Toolbox           |
|  \\    /   O peration     | Version:  2.4.x                                 |
|   \\  /    A nd           | Web:      www.OpenFOAM.org                      |
|    \\/     M anipulation  |                                                 |
\*---------------------------------------------------------------------------*/
FoamFile
{
    version     2.0;
    format      ascii;
    class       volScalarField;
    location    "6.45";
    object      k_0;
}
// * * * * * * * * * * * * * * * * * * * * * * * * * * * * * * * * * * * * * //

dimensions      [0 2 -2 0 0 0 0];

internalField   nonuniform List<scalar> 
360
(
1e-20
1e-20
1e-20
1e-20
1e-20
1e-20
1e-20
1e-20
1e-20
1e-20
1e-20
1e-20
1e-20
1e-20
1e-20
1e-20
1e-20
1e-20
1e-20
1e-20
1e-20
1e-20
1e-20
1e-20
1e-20
1e-20
1e-20
1e-20
1e-20
1e-20
1e-20
1e-20
1e-20
1e-20
1e-20
1e-20
1e-20
1e-20
1e-20
1e-20
1e-20
1e-20
1e-20
1e-20
1e-20
1e-20
1e-20
1e-20
1e-20
1e-20
1e-20
1e-20
1e-20
1e-20
1e-20
1e-20
1e-20
1e-20
1e-20
1e-20
1e-20
1e-20
1e-20
1e-20
1e-20
1e-20
1e-20
1e-20
1e-20
1e-20
1e-20
1e-20
1e-20
1e-20
1e-20
1e-20
1e-20
1e-20
1e-20
1e-20
1e-20
1e-20
1e-20
1e-20
1e-20
1e-20
1e-20
1e-20
1e-20
1e-20
1e-20
1e-20
1e-20
1e-20
1e-20
1e-20
1e-20
1e-20
1e-20
1e-20
1e-20
1e-20
1e-20
1e-20
1e-20
1e-20
1e-20
1e-20
1e-20
1e-20
1e-20
1e-20
1e-20
1e-20
1e-20
1e-20
1e-20
1e-20
1e-20
1e-20
1e-20
1e-20
1e-20
1e-20
1e-20
1e-20
1e-20
1e-20
1e-20
1e-20
1e-20
1e-20
1.26559e-20
5.1456e-20
2.55085e-19
1.3571e-18
7.761e-18
4.82646e-17
3.31346e-16
2.55345e-15
2.24531e-14
2.29128e-13
2.77048e-12
4.04343e-11
7.21675e-10
1.59435e-08
4.4014e-07
1.45192e-05
0.000415169
0.00281946
0.0045946
0.00546207
0.00600966
0.00639863
0.00669461
0.00692777
0.00711401
0.00726301
0.00738143
0.0074742
0.00754521
0.00759753
0.0076337
0.00765578
0.00766553
0.00766437
0.00765355
0.00763411
0.00760692
0.00757277
0.00753232
0.00748614
0.00743474
0.00737857
0.00731802
0.00725343
0.00718513
0.00711339
0.00703846
0.00696056
0.00687992
0.0067967
0.0067111
0.00662325
0.00653332
0.00644144
0.00634772
0.0062523
0.00615529
0.00605678
0.00595688
0.00585568
0.00575327
0.00564975
0.00554519
0.00543968
0.0053333
0.00522613
0.00511825
0.00500973
0.00490065
0.00478997
0.00467662
0.00456061
0.00444196
0.0043207
0.00419688
0.00407056
0.00394181
0.00381071
0.00367739
0.00354196
0.00340459
0.00326545
0.00312477
0.0029828
0.00283984
0.00269621
0.00255231
0.00240857
0.00226548
0.00212361
0.00198356
0.001846
0.00171167
0.00158132
0.00145577
0.00133581
0.00122223
0.00111574
0.00101696
0.000926338
0.000844111
0.000770296
0.00070466
0.000646742
0.000595882
0.000551283
0.000512062
0.000477308
0.000446119
0.000417644
0.000391093
0.000365756
0.000341008
0.000316314
0.000291232
0.000265415
0.000238621
0.00021071
0.000181665
0.000151602
0.000120808
8.9799e-05
5.94356e-05
3.12363e-05
8.67355e-06
6.51298e-07
1.56964e-08
3.00881e-10
5.39434e-12
9.09321e-14
1.44235e-15
2.15458e-17
3.10054e-19
1.25839e-20
1e-20
1e-20
1e-20
1e-20
1e-20
1e-20
1e-20
1e-20
1e-20
1e-20
1e-20
1e-20
1e-20
1e-20
1e-20
1e-20
1e-20
1e-20
1e-20
1e-20
1e-20
1e-20
1e-20
1e-20
1e-20
1e-20
1e-20
1e-20
1e-20
1e-20
1e-20
1e-20
1e-20
1e-20
1e-20
1e-20
1e-20
1e-20
1e-20
1e-20
1e-20
1e-20
1e-20
1e-20
1e-20
1e-20
1e-20
1e-20
1e-20
1e-20
1e-20
1e-20
1e-20
1e-20
1e-20
1e-20
1e-20
1e-20
1e-20
1e-20
1e-20
1e-20
1e-20
1e-20
1e-20
1e-20
1e-20
1e-20
1e-20
1e-20
1e-20
1e-20
1e-20
1e-20
1e-20
1e-20
1e-20
1e-20
1e-20
1e-20
1e-20
1e-20
1e-20
1e-20
1e-20
1e-20
1e-20
1e-20
1e-20
1e-20
1e-20
1e-20
1e-20
1e-20
)
;

boundaryField
{
    inandouthalf11
    {
        type            cyclic;
    }
    inandouthalf12
    {
        type            cyclic;
    }
    inandouthalf21
    {
        type            cyclic;
    }
    inandouthalf22
    {
        type            cyclic;
    }
    inandouthalf31
    {
        type            cyclic;
    }
    inandouthalf32
    {
        type            cyclic;
    }
    inandouthalf41
    {
        type            cyclic;
    }
    inandouthalf42
    {
        type            cyclic;
    }
    top
    {
        type            symmetryPlane;
    }
    walls
    {
        type            zeroGradient;
    }
    frontAndBackPlanes
    {
        type            empty;
    }
}


// ************************************************************************* //
