/*--------------------------------*- C++ -*----------------------------------*\
| =========                 |                                                 |
| \\      /  F ield         | OpenFOAM: The Open Source CFD Toolbox           |
|  \\    /   O peration     | Version:  2.4.x                                 |
|   \\  /    A nd           | Web:      www.OpenFOAM.org                      |
|    \\/     M anipulation  |                                                 |
\*---------------------------------------------------------------------------*/
FoamFile
{
    version     2.0;
    format      ascii;
    class       volScalarField;
    location    "6.45";
    object      mua;
}
// * * * * * * * * * * * * * * * * * * * * * * * * * * * * * * * * * * * * * //

dimensions      [1 -1 -1 0 0 0 0];

internalField   nonuniform List<scalar> 
360
(
1.05449e+06
717489
882338
925104
880852
850879
838201
829633
820584
810053
798442
786769
775520
764805
754390
744014
733649
723394
713236
703155
693295
683462
673678
663999
654438
645062
635860
626742
617850
609247
600833
592561
584494
576299
568152
559852
551267
542148
532561
522694
512266
501727
491346
481166
471827
463744
457442
453402
451499
451928
455001
460124
466535
472959
477639
478103
472113
457248
432347
397518
354573
307510
260811
218923
185123
161517
149633
151879
173980
230234
356981
652051
1.39765e+06
3.46669e+06
9.75094e+06
3.03076e+07
1.01019e+08
3.48921e+08
1.20485e+09
4.01957e+09
1.25682e+10
3.58989e+10
9.1864e+10
2.07815e+11
4.12316e+11
7.15474e+11
1.08809e+12
1.46018e+12
1.7482e+12
1.89443e+12
1.88955e+12
1.76547e+12
1.5715e+12
1.35306e+12
1.14136e+12
9.52944e+11
7.9362e+11
6.62975e+11
5.57679e+11
4.73508e+11
4.06371e+11
3.52717e+11
3.09645e+11
2.74857e+11
2.46564e+11
2.23381e+11
2.04238e+11
1.88304e+11
1.74931e+11
1.63608e+11
1.53931e+11
1.45572e+11
1.38267e+11
1.31794e+11
1.25969e+11
1.20631e+11
1.15646e+11
1.10899e+11
1.06295e+11
1.01768e+11
9.7279e+10
9.28239e+10
8.84332e+10
8.41687e+10
8.01149e+10
7.63688e+10
7.30327e+10
7.02156e+10
6.80414e+10
6.66522e+10
6.61831e+10
6.66889e+10
6.80423e+10
6.99037e+10
7.18621e+10
7.35776e+10
7.45562e+10
7.38534e+10
7.09495e+10
6.80238e+10
7.09043e+10
8.80015e+10
1.33288e+11
2.53868e+11
6.01171e+11
9.45377e+11
9.78056e+10
1.40351
0.014893
0.00745306
0.00606303
0.00544072
0.00515305
0.00504711
0.00503607
0.00506967
0.00512082
0.00517594
0.00522862
0.00527618
0.00531771
0.00535313
0.00538277
0.00540709
0.00542658
0.0054417
0.00545288
0.00546049
0.00546486
0.00546627
0.00546499
0.00546122
0.00545515
0.00544696
0.0054368
0.00542479
0.00541106
0.00539572
0.00537887
0.00536059
0.00534098
0.00532012
0.00529808
0.00527493
0.00525074
0.00522557
0.00519949
0.00517256
0.00514483
0.00511635
0.00508718
0.00505737
0.00502697
0.00499603
0.00496458
0.00493267
0.00490035
0.00486764
0.00483458
0.00480121
0.00476755
0.00473327
0.00469805
0.00466186
0.00462468
0.0045865
0.00454728
0.00450699
0.00446556
0.00442294
0.00437905
0.00433379
0.00428705
0.0042387
0.0041886
0.00413658
0.00408245
0.004026
0.003967
0.00390518
0.00384023
0.00377179
0.00369946
0.00362274
0.00354107
0.00345372
0.00335985
0.00325834
0.0031478
0.00302634
0.0028914
0.00273925
0.00256417
0.00235657
0.00209801
0.00174316
0
0
0
0
0
0
0
0
0
0
0
0
0
0
0
0
0
0
0
0
0
0
0
0
0
0
0
0
0
0
0
0
0
0
0
0
0
0
0
0
0
0
0
0
0
0
0
0
0
0
0
0
0
0
0
0
0
0
0
0
0
0
0
0
0
0
0
0
0
0
0
0
0
0
0
0
0
0
0
0
0
0
0
0
0
0
0
0
0
0
0
0
0
0
0
0
0
0
0
0
0
0
0
0
0
0
0
0
0
0
0
0
0
0
0
0
0
0
0
0
0
0
0
0
)
;

boundaryField
{
    inandouthalf11
    {
        type            cyclic;
    }
    inandouthalf12
    {
        type            cyclic;
    }
    inandouthalf21
    {
        type            cyclic;
    }
    inandouthalf22
    {
        type            cyclic;
    }
    inandouthalf31
    {
        type            cyclic;
    }
    inandouthalf32
    {
        type            cyclic;
    }
    inandouthalf41
    {
        type            cyclic;
    }
    inandouthalf42
    {
        type            cyclic;
    }
    top
    {
        type            symmetryPlane;
    }
    walls
    {
        type            calculated;
        value           uniform 1e+30;
    }
    frontAndBackPlanes
    {
        type            empty;
    }
}


// ************************************************************************* //
