/*--------------------------------*- C++ -*----------------------------------*\
| =========                 |                                                 |
| \\      /  F ield         | OpenFOAM: The Open Source CFD Toolbox           |
|  \\    /   O peration     | Version:  2.4.x                                 |
|   \\  /    A nd           | Web:      www.OpenFOAM.org                      |
|    \\/     M anipulation  |                                                 |
\*---------------------------------------------------------------------------*/
FoamFile
{
    version     2.0;
    format      ascii;
    class       volScalarField;
    location    "6.45";
    object      pa;
}
// * * * * * * * * * * * * * * * * * * * * * * * * * * * * * * * * * * * * * //

dimensions      [1 -1 -2 0 0 0 0];

internalField   nonuniform List<scalar> 
360
(
2.90018e-16
2.92587e-16
2.92775e-16
2.92506e-16
2.92388e-16
2.92352e-16
2.92304e-16
2.92241e-16
2.92176e-16
2.92111e-16
2.92046e-16
2.91981e-16
2.91916e-16
2.9185e-16
2.91783e-16
2.91716e-16
2.91648e-16
2.91579e-16
2.9151e-16
2.9144e-16
2.9137e-16
2.91299e-16
2.91227e-16
2.91155e-16
2.91082e-16
2.91009e-16
2.90935e-16
2.90859e-16
2.90783e-16
2.90707e-16
2.90629e-16
2.9055e-16
2.90472e-16
2.90391e-16
2.90311e-16
2.9023e-16
2.9015e-16
2.90069e-16
2.89988e-16
2.89909e-16
2.89829e-16
2.89749e-16
2.89669e-16
2.89587e-16
2.89504e-16
2.89416e-16
2.89323e-16
2.89226e-16
2.89121e-16
2.89009e-16
2.88892e-16
2.88769e-16
2.88645e-16
2.88522e-16
2.88403e-16
2.8829e-16
2.88191e-16
2.88106e-16
2.88043e-16
2.88016e-16
2.88036e-16
2.88136e-16
2.88347e-16
2.88707e-16
2.8921e-16
2.89737e-16
2.89997e-16
2.89651e-16
2.88661e-16
2.87458e-16
2.86541e-16
2.86043e-16
2.85809e-16
2.85669e-16
2.85553e-16
2.85438e-16
2.85322e-16
2.85204e-16
2.85084e-16
2.8496e-16
2.84834e-16
2.84704e-16
2.84571e-16
2.84434e-16
2.84294e-16
2.84151e-16
2.84004e-16
2.83855e-16
2.83703e-16
2.83547e-16
2.83388e-16
2.83226e-16
2.83061e-16
2.82891e-16
2.82718e-16
2.8254e-16
2.82359e-16
2.82173e-16
2.81984e-16
2.8179e-16
2.81592e-16
2.81389e-16
2.81181e-16
2.80969e-16
2.80752e-16
2.80529e-16
2.80301e-16
2.80067e-16
2.79827e-16
2.79581e-16
2.79329e-16
2.7907e-16
2.78804e-16
2.78531e-16
2.7825e-16
2.77962e-16
2.77665e-16
2.7736e-16
2.77046e-16
2.76723e-16
2.76389e-16
2.76046e-16
2.75692e-16
2.75327e-16
2.7495e-16
2.74561e-16
2.74159e-16
2.73742e-16
2.7331e-16
2.72862e-16
2.72396e-16
2.71913e-16
3.43427e-16
1.39337e-15
6.89219e-15
3.65814e-14
2.08678e-13
1.29423e-12
8.85816e-12
6.80224e-11
5.958e-10
6.05633e-09
7.28987e-08
1.05903e-06
1.90437e-05
0.000537926
0.0289076
0.776241
3.29688
2.90703
2.27861
1.69214
1.25332
0.937926
0.712639
0.550387
0.431823
0.343729
0.277166
0.226069
0.186267
0.15485
0.129755
0.109495
0.0929803
0.0794014
0.0681491
0.0587587
0.0508717
0.0442088
0.0385498
0.0337201
0.0295797
0.0260155
0.0229358
0.0202653
0.0179421
0.0159151
0.0141414
0.0125853
0.0112169
0.0100108
0.00894549
0.00800262
0.00716659
0.006424
0.00576331
0.00517459
0.00464923
0.00417977
0.00375969
0.00338332
0.00304566
0.00274232
0.00246944
0.00222358
0.00200169
0.00180109
0.00161937
0.00145448
0.0013048
0.00116762
0.00104079
0.000923702
0.000815866
0.000716465
0.000624745
0.000540421
0.000463332
0.000393514
0.000331048
0.000275877
0.000227989
0.000186983
0.000152244
0.000123257
9.92996e-05
7.96366e-05
6.3609e-05
5.06367e-05
4.01758e-05
3.17219e-05
2.49409e-05
1.95191e-05
1.51792e-05
1.17239e-05
8.98948e-06
6.82455e-06
5.13057e-06
3.79158e-06
2.7707e-06
1.95817e-06
1.36577e-06
8.77415e-07
5.73866e-07
2.6851e-07
0
0
0
0
0
0
0
0
0
0
0
0
0
0
0
0
0
0
0
0
0
0
0
0
0
0
0
0
0
0
0
0
0
0
0
0
0
0
0
0
0
0
0
0
0
0
0
0
0
0
0
0
0
0
0
0
0
0
0
0
0
0
0
0
0
0
0
0
0
0
0
0
0
0
0
0
0
0
0
0
0
0
0
0
0
0
0
0
0
0
0
0
0
0
0
0
0
0
0
0
0
0
0
0
0
0
0
0
0
0
0
0
0
0
0
0
0
0
0
0
0
0
0
0
)
;

boundaryField
{
    inandouthalf11
    {
        type            cyclic;
    }
    inandouthalf12
    {
        type            cyclic;
    }
    inandouthalf21
    {
        type            cyclic;
    }
    inandouthalf22
    {
        type            cyclic;
    }
    inandouthalf31
    {
        type            cyclic;
    }
    inandouthalf32
    {
        type            cyclic;
    }
    inandouthalf41
    {
        type            cyclic;
    }
    inandouthalf42
    {
        type            cyclic;
    }
    top
    {
        type            symmetryPlane;
    }
    walls
    {
        type            calculated;
        value           uniform 2.90018e-16;
    }
    frontAndBackPlanes
    {
        type            empty;
    }
}


// ************************************************************************* //
