/*--------------------------------*- C++ -*----------------------------------*\
| =========                 |                                                 |
| \\      /  F ield         | OpenFOAM: The Open Source CFD Toolbox           |
|  \\    /   O peration     | Version:  2.4.x                                 |
|   \\  /    A nd           | Web:      www.OpenFOAM.org                      |
|    \\/     M anipulation  |                                                 |
\*---------------------------------------------------------------------------*/
FoamFile
{
    version     2.0;
    format      ascii;
    class       surfaceScalarField;
    location    "6.45";
    object      phia;
}
// * * * * * * * * * * * * * * * * * * * * * * * * * * * * * * * * * * * * * //

dimensions      [0 3 -1 0 0 0 0];

internalField   nonuniform List<scalar> 
359
(
-3.29385e-13
-8.50269e-13
-1.32493e-12
-1.77022e-12
-2.22358e-12
-2.68832e-12
-3.15814e-12
-3.63004e-12
-4.10378e-12
-4.58032e-12
-5.06041e-12
-5.54413e-12
-6.03139e-12
-6.52193e-12
-7.01566e-12
-7.51262e-12
-8.0129e-12
-8.5165e-12
-9.02341e-12
-9.53376e-12
-1.00474e-11
-1.05644e-11
-1.10848e-11
-1.16087e-11
-1.21361e-11
-1.26668e-11
-1.32009e-11
-1.37384e-11
-1.42791e-11
-1.48229e-11
-1.53697e-11
-1.59196e-11
-1.64722e-11
-1.70279e-11
-1.75867e-11
-1.81488e-11
-1.87147e-11
-1.92849e-11
-1.98602e-11
-2.04409e-11
-2.10281e-11
-2.16221e-11
-2.22228e-11
-2.28305e-11
-2.34442e-11
-2.40625e-11
-2.46832e-11
-2.53033e-11
-2.59197e-11
-2.65295e-11
-2.71289e-11
-2.77157e-11
-2.82885e-11
-2.88477e-11
-2.93956e-11
-2.99373e-11
-3.04799e-11
-3.10342e-11
-3.1614e-11
-3.22372e-11
-3.29281e-11
-3.37149e-11
-3.46313e-11
-3.57088e-11
-3.69665e-11
-3.83883e-11
-3.99021e-11
-4.13734e-11
-4.26411e-11
-4.3587e-11
-4.41898e-11
-4.45162e-11
-4.46667e-11
-4.47267e-11
-4.47478e-11
-4.47545e-11
-4.47565e-11
-4.47571e-11
-4.47572e-11
-4.47573e-11
-4.47573e-11
-4.47573e-11
-4.47573e-11
-4.47573e-11
-4.47573e-11
-4.47573e-11
-4.47573e-11
-4.47573e-11
-4.47573e-11
-4.47573e-11
-4.47573e-11
-4.47573e-11
-4.47573e-11
-4.47573e-11
-4.47573e-11
-4.47573e-11
-4.47573e-11
-4.47573e-11
-4.47573e-11
-4.47573e-11
-4.47573e-11
-4.47573e-11
-4.47573e-11
-4.47573e-11
-4.47573e-11
-4.47573e-11
-4.47573e-11
-4.47573e-11
-4.47573e-11
-4.47573e-11
-4.47573e-11
-4.47573e-11
-4.47573e-11
-4.47573e-11
-4.47573e-11
-4.47573e-11
-4.47573e-11
-4.47573e-11
-4.47573e-11
-4.47573e-11
-4.47573e-11
-4.47573e-11
-4.47573e-11
-4.47573e-11
-4.47573e-11
-4.47573e-11
-4.47573e-11
-4.47573e-11
-4.47573e-11
-4.47573e-11
-4.47573e-11
-4.47573e-11
-4.47573e-11
-4.47573e-11
-4.47573e-11
-4.47573e-11
-4.47573e-11
-4.47573e-11
-4.47573e-11
-4.47573e-11
-4.47573e-11
-4.47573e-11
-4.47573e-11
-4.47573e-11
-4.47573e-11
-4.47573e-11
-4.47573e-11
-7.03743e-11
-2.31414e-09
-4.26045e-09
-5.57932e-09
-6.563e-09
-7.3892e-09
-8.10425e-09
-8.72025e-09
-9.24224e-09
-9.6751e-09
-1.00249e-08
-1.02981e-08
-1.05015e-08
-1.06413e-08
-1.07231e-08
-1.07518e-08
-1.07318e-08
-1.06667e-08
-1.05599e-08
-1.0414e-08
-1.02316e-08
-1.00147e-08
-9.76515e-09
-9.4847e-09
-9.17477e-09
-8.8367e-09
-8.47171e-09
-8.08088e-09
-7.66526e-09
-7.22578e-09
-6.76337e-09
-6.27886e-09
-5.77309e-09
-5.24683e-09
-4.70087e-09
-4.13595e-09
-3.55279e-09
-2.95212e-09
-2.33462e-09
-1.701e-09
-1.05193e-09
-3.88103e-10
2.89798e-10
9.81045e-10
1.68484e-09
2.40025e-09
3.12614e-09
3.86113e-09
4.60347e-09
5.351e-09
6.101e-09
6.85028e-09
7.59509e-09
8.33178e-09
9.0719e-09
9.81146e-09
1.05459e-08
1.12708e-08
1.19798e-08
1.26647e-08
1.33172e-08
1.39286e-08
1.44919e-08
1.50021e-08
1.54556e-08
1.5853e-08
1.61961e-08
1.64873e-08
1.67312e-08
1.69324e-08
1.70952e-08
1.72235e-08
1.73214e-08
1.73923e-08
1.74377e-08
1.74596e-08
1.74599e-08
1.74387e-08
1.73961e-08
1.73328e-08
1.72468e-08
1.71392e-08
1.70023e-08
1.68419e-08
1.66335e-08
1.63999e-08
1.60454e-08
1.57613e-08
1.46367e-08
5.8406e-09
7.98547e-09
6.59611e-09
1.43301e-08
-4.3037e-08
-1.43122e-07
-1.58316e-07
-1.58291e-07
-1.58292e-07
-1.58292e-07
-1.58293e-07
-1.58296e-07
-1.58298e-07
-1.583e-07
-1.58301e-07
-1.58301e-07
-1.58299e-07
-1.58294e-07
-1.58282e-07
-1.58258e-07
-1.58206e-07
-1.58185e-07
-1.58184e-07
-1.58184e-07
-1.58184e-07
-1.58184e-07
-1.58184e-07
-1.58184e-07
-1.58184e-07
-1.58184e-07
-1.58184e-07
-1.58184e-07
-1.58184e-07
-1.58184e-07
-1.58184e-07
-1.58184e-07
-1.58184e-07
-1.58184e-07
-1.58184e-07
-1.58184e-07
-1.58184e-07
-1.58184e-07
-1.58184e-07
-1.58184e-07
-1.58184e-07
-1.58184e-07
-1.58184e-07
-1.58184e-07
-1.58184e-07
-1.58184e-07
-1.58184e-07
-1.58184e-07
-1.58184e-07
-1.58184e-07
-1.58184e-07
-1.58184e-07
-1.58184e-07
-1.58184e-07
-1.58184e-07
-1.58184e-07
-1.58184e-07
-1.58184e-07
-1.58184e-07
-1.58184e-07
-1.58184e-07
-1.58184e-07
-1.58184e-07
-1.58184e-07
-1.58184e-07
-1.58184e-07
-1.58184e-07
-1.58184e-07
-1.58184e-07
-1.58184e-07
-1.58184e-07
-1.58184e-07
-1.58184e-07
-1.58184e-07
-1.58184e-07
-1.58184e-07
-1.58184e-07
-1.58184e-07
-1.58184e-07
-1.58184e-07
-1.58184e-07
-1.58184e-07
-1.58184e-07
-1.58184e-07
-1.58184e-07
-1.58184e-07
-1.58184e-07
-1.58184e-07
-1.58184e-07
-1.58184e-07
-1.58184e-07
-1.58184e-07
-1.58184e-07
-1.58184e-07
-1.58184e-07
-1.58184e-07
-1.58184e-07
-1.58184e-07
-1.58184e-07
-1.58184e-07
-1.58184e-07
-1.58184e-07
-1.58184e-07
-1.58184e-07
-1.58184e-07
-1.58184e-07
-1.58184e-07
-1.58184e-07
-1.58184e-07
-1.58184e-07
-1.58184e-07
-1.58184e-07
-1.58184e-07
-1.58184e-07
-1.58184e-07
-1.58184e-07
-1.58167e-07
-1.57461e-07
-1.32365e-07
)
;

boundaryField
{
    inandouthalf11
    {
        type            cyclic;
        value           nonuniform List<scalar> 
100
(
8.47359e-39
1.92088e-14
4.05782e-14
5.95709e-14
7.86548e-14
9.86334e-14
1.19193e-13
1.4009e-13
1.61284e-13
1.82806e-13
2.04695e-13
2.26976e-13
2.49654e-13
2.72723e-13
2.9618e-13
3.20029e-13
3.44277e-13
3.68932e-13
3.94001e-13
4.19489e-13
4.45402e-13
4.71745e-13
4.98527e-13
5.25756e-13
5.5344e-13
5.81582e-13
6.10186e-13
6.3926e-13
6.68806e-13
6.98826e-13
7.29318e-13
7.60287e-13
7.91734e-13
8.23669e-13
8.56107e-13
8.89064e-13
9.22568e-13
9.56658e-13
9.91385e-13
1.0268e-12
1.06295e-12
1.09988e-12
1.13764e-12
1.17624e-12
1.21568e-12
1.25589e-12
1.29677e-12
1.33815e-12
1.37985e-12
1.42166e-12
1.46333e-12
1.50467e-12
1.54553e-12
1.58586e-12
1.62574e-12
1.66543e-12
1.70537e-12
1.74623e-12
1.78893e-12
1.83473e-12
1.88528e-12
1.94275e-12
2.00973e-12
2.08915e-12
2.18352e-12
2.29362e-12
2.41641e-12
2.54326e-12
2.66078e-12
2.75563e-12
2.82101e-12
2.8591e-12
2.87787e-12
2.88579e-12
2.8887e-12
2.88967e-12
2.88996e-12
2.89005e-12
2.89007e-12
2.89008e-12
2.89008e-12
2.89008e-12
2.89008e-12
2.89008e-12
2.89008e-12
2.89008e-12
2.89008e-12
2.89008e-12
2.89008e-12
2.89008e-12
2.89008e-12
2.89008e-12
2.89008e-12
2.89008e-12
2.89008e-12
2.89008e-12
2.89008e-12
2.89008e-12
2.89008e-12
2.89008e-12
)
;
    }
    inandouthalf12
    {
        type            cyclic;
        value           nonuniform List<scalar> 
100
(
-8.47359e-39
-1.92088e-14
-4.05782e-14
-5.95709e-14
-7.86548e-14
-9.86334e-14
-1.19193e-13
-1.4009e-13
-1.61284e-13
-1.82806e-13
-2.04695e-13
-2.26976e-13
-2.49654e-13
-2.72723e-13
-2.9618e-13
-3.20029e-13
-3.44277e-13
-3.68932e-13
-3.94001e-13
-4.19489e-13
-4.45402e-13
-4.71745e-13
-4.98527e-13
-5.25756e-13
-5.5344e-13
-5.81582e-13
-6.10186e-13
-6.3926e-13
-6.68806e-13
-6.98826e-13
-7.29318e-13
-7.60287e-13
-7.91734e-13
-8.23669e-13
-8.56107e-13
-8.89064e-13
-9.22568e-13
-9.56658e-13
-9.91385e-13
-1.0268e-12
-1.06295e-12
-1.09988e-12
-1.13764e-12
-1.17624e-12
-1.21568e-12
-1.25589e-12
-1.29677e-12
-1.33815e-12
-1.37985e-12
-1.42166e-12
-1.46333e-12
-1.50467e-12
-1.54553e-12
-1.58586e-12
-1.62574e-12
-1.66543e-12
-1.70537e-12
-1.74623e-12
-1.78893e-12
-1.83473e-12
-1.88528e-12
-1.94275e-12
-2.00973e-12
-2.08915e-12
-2.18352e-12
-2.29362e-12
-2.41641e-12
-2.54326e-12
-2.66078e-12
-2.75563e-12
-2.82101e-12
-2.8591e-12
-2.87787e-12
-2.88579e-12
-2.8887e-12
-2.88967e-12
-2.88996e-12
-2.89005e-12
-2.89007e-12
-2.89008e-12
-2.89008e-12
-2.89008e-12
-2.89008e-12
-2.89008e-12
-2.89008e-12
-2.89008e-12
-2.89008e-12
-2.89008e-12
-2.89008e-12
-2.89008e-12
-2.89008e-12
-2.89008e-12
-2.89008e-12
-2.89008e-12
-2.89008e-12
-2.89008e-12
-2.89008e-12
-2.89008e-12
-2.89008e-12
-2.89008e-12
)
;
    }
    inandouthalf21
    {
        type            cyclic;
        value           nonuniform List<scalar> 
100
(
2.89008e-12
2.89008e-12
2.89008e-12
2.89008e-12
2.89008e-12
2.89008e-12
2.89008e-12
2.89008e-12
2.89008e-12
2.89008e-12
2.89008e-12
2.89008e-12
2.89008e-12
2.89008e-12
2.89008e-12
2.89008e-12
2.89008e-12
2.89008e-12
2.89008e-12
2.89008e-12
2.89008e-12
2.89008e-12
2.89008e-12
2.89008e-12
2.89008e-12
2.89008e-12
2.89008e-12
2.89008e-12
2.89008e-12
2.89008e-12
2.89008e-12
2.89008e-12
2.89008e-12
2.89008e-12
2.89008e-12
2.89008e-12
2.89008e-12
2.89008e-12
2.89008e-12
2.89008e-12
2.89008e-12
2.89008e-12
2.89008e-12
2.89008e-12
2.89008e-12
2.89008e-12
2.89008e-12
2.89008e-12
2.0999e-09
8.32964e-08
1.62514e-07
2.21281e-07
2.66886e-07
3.03597e-07
3.34007e-07
3.59803e-07
3.82127e-07
4.01775e-07
4.19313e-07
4.35151e-07
4.49595e-07
4.62877e-07
4.75174e-07
4.86629e-07
4.97351e-07
5.07433e-07
5.16947e-07
5.25954e-07
5.34506e-07
5.42646e-07
5.50409e-07
5.57826e-07
5.64924e-07
5.71725e-07
5.78249e-07
5.84514e-07
5.90533e-07
5.96321e-07
6.01889e-07
6.07246e-07
6.12403e-07
6.17366e-07
6.22143e-07
6.26741e-07
6.31165e-07
6.35421e-07
6.39513e-07
6.43445e-07
6.47222e-07
6.50847e-07
6.54324e-07
6.57655e-07
6.60843e-07
6.63892e-07
6.66804e-07
6.69581e-07
6.72225e-07
6.7474e-07
6.77127e-07
6.79389e-07
)
;
    }
    inandouthalf22
    {
        type            cyclic;
        value           nonuniform List<scalar> 
100
(
-2.89008e-12
-2.89008e-12
-2.89008e-12
-2.89008e-12
-2.89008e-12
-2.89008e-12
-2.89008e-12
-2.89008e-12
-2.89008e-12
-2.89008e-12
-2.89008e-12
-2.89008e-12
-2.89008e-12
-2.89008e-12
-2.89008e-12
-2.89008e-12
-2.89008e-12
-2.89008e-12
-2.89008e-12
-2.89008e-12
-2.89008e-12
-2.89008e-12
-2.89008e-12
-2.89008e-12
-2.89008e-12
-2.89008e-12
-2.89008e-12
-2.89008e-12
-2.89008e-12
-2.89008e-12
-2.89008e-12
-2.89008e-12
-2.89008e-12
-2.89008e-12
-2.89008e-12
-2.89008e-12
-2.89008e-12
-2.89008e-12
-2.89008e-12
-2.89008e-12
-2.89008e-12
-2.89008e-12
-2.89008e-12
-2.89008e-12
-2.89008e-12
-2.89008e-12
-2.89008e-12
-2.89008e-12
-2.0999e-09
-8.32964e-08
-1.62514e-07
-2.21281e-07
-2.66886e-07
-3.03597e-07
-3.34007e-07
-3.59803e-07
-3.82127e-07
-4.01775e-07
-4.19313e-07
-4.35151e-07
-4.49595e-07
-4.62877e-07
-4.75174e-07
-4.86629e-07
-4.97351e-07
-5.07433e-07
-5.16947e-07
-5.25954e-07
-5.34506e-07
-5.42646e-07
-5.50409e-07
-5.57826e-07
-5.64924e-07
-5.71725e-07
-5.78249e-07
-5.84514e-07
-5.90533e-07
-5.96321e-07
-6.01889e-07
-6.07246e-07
-6.12403e-07
-6.17366e-07
-6.22143e-07
-6.26741e-07
-6.31165e-07
-6.35421e-07
-6.39513e-07
-6.43445e-07
-6.47222e-07
-6.50847e-07
-6.54324e-07
-6.57655e-07
-6.60843e-07
-6.63892e-07
-6.66804e-07
-6.69581e-07
-6.72225e-07
-6.7474e-07
-6.77127e-07
-6.79389e-07
)
;
    }
    inandouthalf31
    {
        type            cyclic;
        value           nonuniform List<scalar> 
110
(
6.8153e-07
6.97444e-07
7.13639e-07
7.30116e-07
7.46876e-07
7.63921e-07
7.81252e-07
7.98872e-07
8.16786e-07
8.35e-07
8.53519e-07
8.72354e-07
8.91514e-07
9.11011e-07
9.30858e-07
9.51069e-07
9.71658e-07
9.92641e-07
1.01403e-06
1.03585e-06
1.0581e-06
1.08081e-06
1.10399e-06
1.12766e-06
1.15182e-06
1.17651e-06
1.20171e-06
1.22746e-06
1.25377e-06
1.28063e-06
1.30807e-06
1.33608e-06
1.36466e-06
1.39382e-06
1.42351e-06
1.45376e-06
1.48503e-06
1.73468e-06
1.7724e-06
1.80756e-06
1.84258e-06
1.87666e-06
1.91264e-06
1.94873e-06
1.98549e-06
2.02267e-06
2.06032e-06
2.09848e-06
2.13719e-06
2.1765e-06
2.21647e-06
2.25715e-06
2.29864e-06
2.34103e-06
2.38449e-06
2.42918e-06
2.47592e-06
2.52537e-06
2.57657e-06
2.62886e-06
2.68222e-06
2.73666e-06
2.79221e-06
2.84888e-06
2.90671e-06
2.96571e-06
3.0259e-06
3.08732e-06
3.14999e-06
3.21392e-06
3.27916e-06
3.34571e-06
3.41362e-06
3.48291e-06
3.5536e-06
3.62573e-06
3.69933e-06
3.77441e-06
3.85102e-06
3.92919e-06
4.00894e-06
4.09031e-06
4.17333e-06
4.25804e-06
4.34447e-06
4.43265e-06
4.52262e-06
4.61442e-06
4.70808e-06
4.80364e-06
4.90114e-06
5.00062e-06
5.10212e-06
5.20568e-06
5.31134e-06
5.41915e-06
5.52914e-06
5.64137e-06
5.75587e-06
5.8727e-06
5.9919e-06
6.11352e-06
6.23761e-06
6.36422e-06
6.49339e-06
6.62519e-06
6.75967e-06
6.89687e-06
7.03686e-06
7.17969e-06
)
;
    }
    inandouthalf32
    {
        type            cyclic;
        value           nonuniform List<scalar> 
110
(
-6.8153e-07
-6.97444e-07
-7.13639e-07
-7.30116e-07
-7.46876e-07
-7.63921e-07
-7.81252e-07
-7.98872e-07
-8.16786e-07
-8.35e-07
-8.53519e-07
-8.72354e-07
-8.91514e-07
-9.11011e-07
-9.30858e-07
-9.51069e-07
-9.71658e-07
-9.92641e-07
-1.01403e-06
-1.03585e-06
-1.0581e-06
-1.08081e-06
-1.10399e-06
-1.12766e-06
-1.15182e-06
-1.17651e-06
-1.20171e-06
-1.22746e-06
-1.25377e-06
-1.28063e-06
-1.30807e-06
-1.33608e-06
-1.36466e-06
-1.39382e-06
-1.42351e-06
-1.45376e-06
-1.48503e-06
-1.73468e-06
-1.7724e-06
-1.80756e-06
-1.84258e-06
-1.87666e-06
-1.91264e-06
-1.94873e-06
-1.98549e-06
-2.02267e-06
-2.06032e-06
-2.09848e-06
-2.13719e-06
-2.1765e-06
-2.21647e-06
-2.25715e-06
-2.29864e-06
-2.34103e-06
-2.38449e-06
-2.42918e-06
-2.47592e-06
-2.52537e-06
-2.57657e-06
-2.62886e-06
-2.68222e-06
-2.73666e-06
-2.79221e-06
-2.84888e-06
-2.90671e-06
-2.96571e-06
-3.0259e-06
-3.08732e-06
-3.14999e-06
-3.21392e-06
-3.27916e-06
-3.34571e-06
-3.41362e-06
-3.48291e-06
-3.5536e-06
-3.62573e-06
-3.69933e-06
-3.77441e-06
-3.85102e-06
-3.92919e-06
-4.00894e-06
-4.09031e-06
-4.17333e-06
-4.25804e-06
-4.34447e-06
-4.43265e-06
-4.52262e-06
-4.61442e-06
-4.70808e-06
-4.80364e-06
-4.90114e-06
-5.00062e-06
-5.10212e-06
-5.20568e-06
-5.31134e-06
-5.41915e-06
-5.52914e-06
-5.64137e-06
-5.75587e-06
-5.8727e-06
-5.9919e-06
-6.11352e-06
-6.23761e-06
-6.36422e-06
-6.49339e-06
-6.62519e-06
-6.75967e-06
-6.89687e-06
-7.03686e-06
-7.17969e-06
)
;
    }
    inandouthalf41
    {
        type            cyclic;
        value           nonuniform List<scalar> 
50
(
6.42655e-06
6.42655e-06
6.42655e-06
6.42655e-06
6.42655e-06
6.42655e-06
6.42655e-06
6.42655e-06
6.42655e-06
6.42655e-06
6.42655e-06
6.42655e-06
6.42655e-06
6.42655e-06
6.42655e-06
6.42655e-06
6.42655e-06
6.42655e-06
6.42655e-06
6.42655e-06
6.42655e-06
6.42655e-06
6.42655e-06
6.42655e-06
6.42655e-06
6.42655e-06
6.42655e-06
6.42655e-06
6.42655e-06
6.42655e-06
6.42655e-06
6.42655e-06
6.42655e-06
6.42655e-06
6.42655e-06
6.42655e-06
6.42655e-06
6.42655e-06
6.42655e-06
6.42655e-06
6.42655e-06
6.42655e-06
6.42655e-06
6.42655e-06
6.42655e-06
6.42655e-06
6.42655e-06
6.42655e-06
6.42662e-06
6.42812e-06
)
;
    }
    inandouthalf42
    {
        type            cyclic;
        value           nonuniform List<scalar> 
50
(
-6.42655e-06
-6.42655e-06
-6.42655e-06
-6.42655e-06
-6.42655e-06
-6.42655e-06
-6.42655e-06
-6.42655e-06
-6.42655e-06
-6.42655e-06
-6.42655e-06
-6.42655e-06
-6.42655e-06
-6.42655e-06
-6.42655e-06
-6.42655e-06
-6.42655e-06
-6.42655e-06
-6.42655e-06
-6.42655e-06
-6.42655e-06
-6.42655e-06
-6.42655e-06
-6.42655e-06
-6.42655e-06
-6.42655e-06
-6.42655e-06
-6.42655e-06
-6.42655e-06
-6.42655e-06
-6.42655e-06
-6.42655e-06
-6.42655e-06
-6.42655e-06
-6.42655e-06
-6.42655e-06
-6.42655e-06
-6.42655e-06
-6.42655e-06
-6.42655e-06
-6.42655e-06
-6.42655e-06
-6.42655e-06
-6.42655e-06
-6.42655e-06
-6.42655e-06
-6.42655e-06
-6.42655e-06
-6.42662e-06
-6.42812e-06
)
;
    }
    top
    {
        type            symmetryPlane;
        value           uniform 0;
    }
    walls
    {
        type            fixedValue;
        value           uniform 0;
    }
    frontAndBackPlanes
    {
        type            empty;
        value           nonuniform 0();
    }
}


// ************************************************************************* //
