/*--------------------------------*- C++ -*----------------------------------*\
| =========                 |                                                 |
| \\      /  F ield         | OpenFOAM: The Open Source CFD Toolbox           |
|  \\    /   O peration     | Version:  2.4.x                                 |
|   \\  /    A nd           | Web:      www.OpenFOAM.org                      |
|    \\/     M anipulation  |                                                 |
\*---------------------------------------------------------------------------*/
FoamFile
{
    version     2.0;
    format      ascii;
    class       volVectorField;
    location    "6.45";
    object      susb;
}
// * * * * * * * * * * * * * * * * * * * * * * * * * * * * * * * * * * * * * //

dimensions      [0 1 -2 0 0 0 0];

internalField   nonuniform List<vector> 
360
(
(0 5.37037e-18 0)
(0 6.18102e-18 0)
(0 2.41255e-19 0)
(0 -8.73535e-19 0)
(-3.69321e-31 -4.63078e-19 0)
(-3.69274e-31 -2.62039e-19 0)
(-3.69227e-31 -2.87558e-19 0)
(0 -3.17676e-19 0)
(-3.69113e-31 -3.26558e-19 0)
(0 -3.34223e-19 0)
(-7.37986e-31 -3.3691e-19 0)
(0 -3.37548e-19 0)
(-7.37744e-31 -3.39155e-19 0)
(0 -3.41083e-19 0)
(0 -3.44803e-19 0)
(0 -3.48922e-19 0)
(0 -3.52006e-19 0)
(-3.68561e-31 -3.54465e-19 0)
(0 -3.58643e-19 0)
(0 -3.61107e-19 0)
(0 -3.63771e-19 0)
(-3.68302e-31 -3.68287e-19 0)
(0 -3.71211e-19 0)
(0 -3.74719e-19 0)
(0 -3.78256e-19 0)
(-3.68033e-31 -3.80846e-19 0)
(0 -3.84999e-19 0)
(0 -3.89303e-19 0)
(0 -3.91819e-19 0)
(0 -3.94869e-19 0)
(0 -3.99949e-19 0)
(0 -4.01729e-19 0)
(0 -4.06309e-19 0)
(0 -4.10931e-19 0)
(0 -4.1305e-19 0)
(3.67318e-31 -4.17159e-19 0)
(0 -4.21096e-19 0)
(0 -4.28041e-19 0)
(0 -4.29213e-19 0)
(0 -4.34472e-19 0)
(0 -4.4236e-19 0)
(0 -4.42822e-19 0)
(3.66775e-31 -4.49907e-19 0)
(0 -4.56277e-19 0)
(0 -4.593e-19 0)
(0 -4.65945e-19 0)
(0 -4.66741e-19 0)
(0 -4.69432e-19 0)
(0 -4.78417e-19 0)
(0 -4.78347e-19 0)
(7.32212e-31 -4.7862e-19 0)
(0 -4.82317e-19 0)
(0 -4.8426e-19 0)
(0 -4.84857e-19 0)
(0 -4.89417e-19 0)
(0 -4.93449e-19 0)
(0 -4.98438e-19 0)
(0 -5.08863e-19 0)
(0 -5.15721e-19 0)
(0 -5.3369e-19 0)
(0 -5.52886e-19 0)
(0 -5.74156e-19 0)
(0 -6.01764e-19 0)
(0 -6.28927e-19 0)
(0 -6.57138e-19 0)
(0 -6.80731e-19 0)
(0 -6.92917e-19 0)
(0 -6.83592e-19 0)
(0 -6.52631e-19 0)
(0 -6.15534e-19 0)
(0 -5.8235e-19 0)
(0 -5.51228e-19 0)
(0 -5.39167e-19 0)
(0 -5.42024e-19 0)
(0 -5.49057e-19 0)
(0 -5.57747e-19 0)
(0 -5.66019e-19 0)
(0 -5.79108e-19 0)
(0 -5.93015e-19 0)
(0 -6.06356e-19 0)
(0 -6.21552e-19 0)
(0 -6.39089e-19 0)
(0 -6.55815e-19 0)
(0 -6.72424e-19 0)
(0 -6.88588e-19 0)
(0 -7.0429e-19 0)
(0 -7.19266e-19 0)
(0 -7.33547e-19 0)
(0 -7.48705e-19 0)
(0 -7.6449e-19 0)
(0 -7.80751e-19 0)
(0 -7.98199e-19 0)
(0 -8.16629e-19 0)
(0 -8.35456e-19 0)
(0 -8.54738e-19 0)
(0 -8.74389e-19 0)
(0 -8.94315e-19 0)
(0 -9.14602e-19 0)
(0 -9.35445e-19 0)
(0 -9.56928e-19 0)
(0 -9.79121e-19 0)
(0 -1.00215e-18 0)
(0 -1.02604e-18 0)
(0 -1.05078e-18 0)
(0 -1.07641e-18 0)
(0 -1.103e-18 0)
(0 -1.13061e-18 0)
(0 -1.15932e-18 0)
(0 -1.1892e-18 0)
(0 -1.22034e-18 0)
(0 -1.2528e-18 0)
(0 -1.28664e-18 0)
(0 -1.32194e-18 0)
(0 -1.35876e-18 0)
(0 -1.39719e-18 0)
(0 -1.4373e-18 0)
(0 -1.47919e-18 0)
(0 -1.52295e-18 0)
(0 -1.5687e-18 0)
(0 -1.61655e-18 0)
(0 -1.66662e-18 0)
(0 -1.71898e-18 0)
(0 -1.77372e-18 0)
(0 -1.83103e-18 0)
(0 -1.89133e-18 0)
(0 -1.95541e-18 0)
(0 -2.02442e-18 0)
(0 -2.09939e-18 0)
(0 -2.18036e-18 0)
(0 -2.26592e-18 0)
(0 -2.35493e-18 0)
(0 -2.45168e-18 0)
(0 -2.53282e-18 0)
(0 -9.4315e-18 0)
(0 -4.40544e-17 0)
(0 -2.17372e-16 0)
(0 -1.14047e-15 0)
(0 -6.60131e-15 0)
(0 -4.32289e-14 0)
(0 -3.08721e-13 0)
(0 -2.26608e-12 0)
(0 -2.01336e-11 0)
(0 -2.44656e-10 0)
(0 -3.59799e-09 0)
(0 -8.00442e-08 0)
(0 -3.70936e-06 0)
(0 -7.95319e-05 0)
(0 -0.062015 0)
(0 -1.37835 0)
(0 -2.09788 0)
(0 -1.10059 0)
(0 -0.820333 0)
(0 -0.671972 0)
(0 -0.554179 0)
(0 -0.453828 0)
(0 -0.370108 0)
(0 -0.302017 0)
(0 -0.247472 0)
(0 -0.204026 0)
(0 -0.169398 0)
(0 -0.141672 0)
(0 -0.11933 0)
(0 -0.101194 0)
(0 -0.0863603 0)
(0 -0.0741355 0)
(0 -0.0639879 0)
(0 -0.0555069 0)
(0 -0.0483732 0)
(0 -0.0423367 0)
(0 -0.0372001 0)
(0 -0.0328063 0)
(0 -0.0290298 0)
(0 -0.0257691 0)
(0 -0.022942 0)
(0 -0.0204811 0)
(0 -0.0183312 0)
(0 -0.0164463 0)
(0 -0.0147886 0)
(0 -0.0133262 0)
(0 -0.0120323 0)
(0 -0.0108845 0)
(0 -0.00986354 0)
(0 -0.00895327 0)
(0 -0.00813979 0)
(0 -0.00741119 0)
(0 -0.00675724 0)
(0 -0.00616911 0)
(0 -0.00563917 0)
(0 -0.00516083 0)
(0 -0.00472838 0)
(0 -0.00433695 0)
(0 -0.00398236 0)
(0 -0.00366098 0)
(0 -0.00336967 0)
(0 -0.00310569 0)
(0 -0.00286673 0)
(0 -0.00265068 0)
(0 -0.00245552 0)
(0 -0.00227895 0)
(0 -0.00211726 0)
(0 -0.00196676 0)
(0 -0.00182555 0)
(-1.04117e-18 -0.00169253 0)
(0 -0.00156661 0)
(0 -0.00144956 0)
(5.0073e-19 -0.00134349 0)
(0 -0.00124425 0)
(0 -0.00114707 0)
(0 -0.00104931 0)
(2.34858e-19 -0.000948905 0)
(0 -0.000846535 0)
(0 -0.000742909 0)
(0 -0.000640829 0)
(2.16133e-19 -0.000545307 0)
(0 -0.000457426 0)
(0 -0.000378236 0)
(0 -0.000309708 0)
(0 -0.000251506 0)
(0 -0.000202525 0)
(-4.53805e-20 -0.00016196 0)
(0 -0.000129307 0)
(-4.21461e-20 -0.000102956 0)
(0 -8.14395e-05 0)
(0 -6.43416e-05 0)
(0 -5.0768e-05 0)
(0 -3.98383e-05 0)
(0 -3.12064e-05 0)
(0 -2.43631e-05 0)
(0 -1.90592e-05 0)
(3.6598e-21 -1.47826e-05 0)
(0 -1.15524e-05 0)
(0 -8.90177e-06 0)
(0 -7.05792e-06 0)
(0 -5.07154e-06 0)
(0 -4.33828e-06 0)
(0 -1.03597e-06 0)
(0 -1.92644e-07 0)
(0 -1.86279e-06 0)
(0 -1.62608e-06 0)
(0 -6.04029e-07 0)
(0 -3.56763e-07 0)
(0 -1.05719e-07 0)
(0 -2.59329e-27 0)
(-3.39914e-44 -1.20319e-28 0)
(3.16948e-44 -1.40298e-28 0)
(0 -1.02767e-28 0)
(0 -3.66264e-29 0)
(-3.07764e-45 -1.32655e-29 0)
(0 -5.24407e-30 0)
(0 -2.30338e-30 0)
(-5.38969e-46 -1.14545e-30 0)
(0 -7.8164e-31 0)
(0 -6.97366e-31 0)
(0 -4.9319e-31 0)
(0 -1.9465e-31 0)
(0 -4.40678e-32 0)
(0 -6.74902e-33 0)
(0 -3.02823e-34 0)
(0 -4.48408e-36 0)
(0 -6.54015e-38 0)
(0 -7.68268e-40 0)
(0 -5.6887e-42 0)
(0 -4.00174e-44 0)
(0 -2.99976e-46 0)
(0 -2.11546e-48 0)
(0 -1.10101e-50 0)
(4.9856e-67 -3.32418e-51 0)
(0 -1.63433e-51 0)
(0 -8.08842e-52 0)
(0 -3.94146e-52 0)
(0 -1.88676e-52 0)
(0 -8.86676e-53 0)
(0 -4.08816e-53 0)
(0 -1.84809e-53 0)
(0 -8.18556e-54 0)
(0 -3.54968e-54 0)
(0 -1.50594e-54 0)
(0 -6.24531e-55 0)
(0 -2.52958e-55 0)
(0 -9.99749e-56 0)
(0 -3.85173e-56 0)
(0 -1.44507e-56 0)
(0 -5.27359e-57 0)
(0 -1.86975e-57 0)
(0 -6.43227e-58 0)
(0 -2.14409e-58 0)
(9.94105e-75 -6.91465e-59 0)
(0 -2.15397e-59 0)
(0 -6.46966e-60 0)
(0 -1.87008e-60 0)
(0 -5.19104e-61 0)
(0 -1.38056e-61 0)
(0 -3.50869e-62 0)
(0 -8.49722e-63 0)
(0 -1.95461e-63 0)
(0 -4.25527e-64 0)
(7.7547e-81 -8.73164e-65 0)
(0 -1.68085e-65 0)
(0 -3.01905e-66 0)
(0 -5.02759e-67 0)
(0 -7.70423e-68 0)
(0 -1.07656e-68 0)
(0 -1.35656e-69 0)
(0 -1.51999e-70 0)
(0 -1.48707e-71 0)
(0 -1.23943e-72 0)
(0 -8.49704e-74 0)
(0 -4.53838e-75 0)
(0 -1.71681e-76 0)
(0 -3.71409e-78 0)
(0 -1.66653e-80 0)
(0 -1.73986e-84 0)
(0 -1.79742e-86 0)
(0 -9.21303e-89 0)
(0 -3.04326e-99 0)
(0 -4.98377e-110 0)
(0 -5.70948e-121 0)
(0 -4.76199e-132 0)
(0 -3.28288e-143 0)
(0 -1.77401e-154 0)
(0 -8.11722e-166 0)
(0 -1.05413e-175 0)
(0 -4.19936e-186 0)
(0 -3.55322e-194 0)
(0 -1.26455e-204 0)
(0 -1.2222e-212 0)
(0 -5.03779e-223 0)
(0 -4.20486e-231 0)
(0 -2.11823e-241 0)
(0 -1.44787e-249 0)
(0 -1.333e-259 0)
(0 -5.04938e-268 0)
(0 -8.66427e-278 0)
(0 -1.79355e-286 0)
(0 -4.2695e-296 0)
(0 -6.48218e-305 0)
(0 -2.01806e-314 0)
(0 -2.47033e-323 0)
(0 -0 0)
(0 0 0)
(0 0 0)
(0 0 0)
(0 0 0)
(0 0 0)
(0 0 0)
(0 0 0)
(0 0 0)
(0 0 0)
(0 0 0)
(0 0 0)
(0 0 0)
(0 0 0)
(0 0 0)
(0 0 0)
(0 0 0)
(0 0 0)
(0 0 0)
(0 0 0)
(0 0 0)
(0 0 0)
)
;

boundaryField
{
    inandouthalf11
    {
        type            cyclic;
    }
    inandouthalf12
    {
        type            cyclic;
    }
    inandouthalf21
    {
        type            cyclic;
    }
    inandouthalf22
    {
        type            cyclic;
    }
    inandouthalf31
    {
        type            cyclic;
    }
    inandouthalf32
    {
        type            cyclic;
    }
    inandouthalf41
    {
        type            cyclic;
    }
    inandouthalf42
    {
        type            cyclic;
    }
    top
    {
        type            symmetryPlane;
    }
    walls
    {
        type            zeroGradient;
    }
    frontAndBackPlanes
    {
        type            empty;
    }
}


// ************************************************************************* //
