/*--------------------------------*- C++ -*----------------------------------*\
| =========                 |                                                 |
| \\      /  F ield         | OpenFOAM: The Open Source CFD Toolbox           |
|  \\    /   O peration     | Version:  2.4.x                                 |
|   \\  /    A nd           | Web:      www.OpenFOAM.org                      |
|    \\/     M anipulation  |                                                 |
\*---------------------------------------------------------------------------*/
FoamFile
{
    version     2.0;
    format      ascii;
    class       volTensorField;
    location    "6.45";
    object      Tauf;
}
// * * * * * * * * * * * * * * * * * * * * * * * * * * * * * * * * * * * * * //

dimensions      [0 2 -2 0 0 0 0];

internalField   nonuniform List<tensor> 
360
(
(0 1.26202e-07 0 1.26202e-07 5.86469e-10 0 0 0 0)
(0 -4.03222e-10 0 -4.03222e-10 7.29845e-10 0 0 0 0)
(0 -5.88939e-11 0 -5.88939e-11 7.57817e-10 0 0 0 0)
(0 2.80831e-11 0 2.80831e-11 7.15499e-10 0 0 0 0)
(-2.58494e-23 -3.90548e-12 0 -3.90548e-12 7.14349e-10 0 0 0 0)
(-1.29247e-23 -2.06353e-11 0 -2.06353e-11 7.28445e-10 0 0 0 0)
(-1.29247e-23 -1.96249e-11 0 -1.96249e-11 7.37717e-10 0 0 0 0)
(0 -1.79664e-11 0 -1.79664e-11 7.41923e-10 0 0 0 0)
(-1.29247e-23 -1.79068e-11 0 -1.79068e-11 7.45113e-10 0 0 0 0)
(0 -1.80112e-11 0 -1.80112e-11 7.49281e-10 0 0 0 0)
(-1.29247e-23 -1.8558e-11 0 -1.8558e-11 7.54439e-10 0 0 0 0)
(0 -1.92892e-11 0 -1.92892e-11 7.59921e-10 0 0 0 0)
(-1.29247e-23 -1.99465e-11 0 -1.99465e-11 7.65265e-10 0 0 0 0)
(0 -2.05709e-11 0 -2.05709e-11 7.70323e-10 0 0 0 0)
(0 -2.10586e-11 0 -2.10586e-11 7.75218e-10 0 0 0 0)
(0 -2.15271e-11 0 -2.15271e-11 7.8014e-10 0 0 0 0)
(0 -2.20897e-11 0 -2.20897e-11 7.85144e-10 0 0 0 0)
(-1.29247e-23 -2.27129e-11 0 -2.27129e-11 7.90178e-10 0 0 0 0)
(0 -2.32181e-11 0 -2.32181e-11 7.95261e-10 0 0 0 0)
(0 -2.38647e-11 0 -2.38647e-11 8.00349e-10 0 0 0 0)
(0 -2.45064e-11 0 -2.45064e-11 8.05406e-10 0 0 0 0)
(-1.29247e-23 -2.50214e-11 0 -2.50214e-11 8.10526e-10 0 0 0 0)
(0 -2.56742e-11 0 -2.56742e-11 8.15706e-10 0 0 0 0)
(0 -2.62969e-11 0 -2.62969e-11 8.2091e-10 0 0 0 0)
(0 -2.69288e-11 0 -2.69288e-11 8.26111e-10 0 0 0 0)
(-1.29247e-23 -2.76415e-11 0 -2.76415e-11 8.31232e-10 0 0 0 0)
(0 -2.82442e-11 0 -2.82442e-11 8.36297e-10 0 0 0 0)
(0 -2.88457e-11 0 -2.88457e-11 8.41325e-10 0 0 0 0)
(0 -2.95877e-11 0 -2.95877e-11 8.46204e-10 0 0 0 0)
(0 -3.02881e-11 0 -3.02881e-11 8.50857e-10 0 0 0 0)
(0 -3.08362e-11 0 -3.08362e-11 8.55399e-10 0 0 0 0)
(0 -3.16419e-11 0 -3.16419e-11 8.59777e-10 0 0 0 0)
(0 -3.22457e-11 0 -3.22457e-11 8.6413e-10 0 0 0 0)
(0 -3.28701e-11 0 -3.28701e-11 8.68628e-10 0 0 0 0)
(0 -3.37164e-11 0 -3.37164e-11 8.73291e-10 0 0 0 0)
(1.29247e-23 -3.44533e-11 0 -3.44533e-11 8.78333e-10 0 0 0 0)
(0 -3.52708e-11 0 -3.52708e-11 8.83987e-10 0 0 0 0)
(0 -3.59487e-11 0 -3.59487e-11 8.90635e-10 0 0 0 0)
(0 -3.71656e-11 0 -3.71656e-11 8.9817e-10 0 0 0 0)
(0 -3.81686e-11 0 -3.81686e-11 9.06658e-10 0 0 0 0)
(0 -3.90761e-11 0 -3.90761e-11 9.16244e-10 0 0 0 0)
(0 -4.06365e-11 0 -4.06365e-11 9.26363e-10 0 0 0 0)
(1.29247e-23 -4.17382e-11 0 -4.17382e-11 9.36769e-10 0 0 0 0)
(0 -4.2906e-11 0 -4.2906e-11 9.46937e-10 0 0 0 0)
(0 -4.4266e-11 0 -4.4266e-11 9.55822e-10 0 0 0 0)
(0 -4.51834e-11 0 -4.51834e-11 9.62488e-10 0 0 0 0)
(0 -4.62786e-11 0 -4.62786e-11 9.65595e-10 0 0 0 0)
(0 -4.6869e-11 0 -4.6869e-11 9.64228e-10 0 0 0 0)
(0 -4.65748e-11 0 -4.65748e-11 9.58273e-10 0 0 0 0)
(0 -4.65411e-11 0 -4.65411e-11 9.47224e-10 0 0 0 0)
(1.29247e-23 -4.60357e-11 0 -4.60357e-11 9.31254e-10 0 0 0 0)
(0 -4.49079e-11 0 -4.49079e-11 9.11567e-10 0 0 0 0)
(0 -4.37255e-11 0 -4.37255e-11 8.90055e-10 0 0 0 0)
(0 -4.26858e-11 0 -4.26858e-11 8.69208e-10 0 0 0 0)
(0 -4.16795e-11 0 -4.16795e-11 8.52356e-10 0 0 0 0)
(0 -4.14128e-11 0 -4.14128e-11 8.43128e-10 0 0 0 0)
(0 -4.2182e-11 0 -4.2182e-11 8.45593e-10 0 0 0 0)
(0 -4.41277e-11 0 -4.41277e-11 8.64685e-10 0 0 0 0)
(0 -4.85317e-11 0 -4.85317e-11 9.05614e-10 0 0 0 0)
(0 -5.49945e-11 0 -5.49945e-11 9.7552e-10 0 0 0 0)
(0 -6.51774e-11 0 -6.51774e-11 1.08216e-09 0 0 0 0)
(0 -7.99666e-11 0 -7.99666e-11 1.23335e-09 0 0 0 0)
(0 -9.97887e-11 0 -9.97887e-11 1.43417e-09 0 0 0 0)
(0 -1.25069e-10 0 -1.25069e-10 1.67998e-09 0 0 0 0)
(0 -1.53543e-10 0 -1.53543e-10 1.94659e-09 0 0 0 0)
(0 -1.80049e-10 0 -1.80049e-10 2.17993e-09 0 0 0 0)
(0 -1.95697e-10 0 -1.95697e-10 2.29834e-09 0 0 0 0)
(0 -1.9093e-10 0 -1.9093e-10 2.22098e-09 0 0 0 0)
(0 -1.61121e-10 0 -1.61121e-10 1.91954e-09 0 0 0 0)
(0 -1.11735e-10 0 -1.11735e-10 1.45503e-09 0 0 0 0)
(0 -5.75479e-11 0 -5.75479e-11 9.54147e-10 0 0 0 0)
(0 -1.34465e-11 0 -1.34465e-11 5.36182e-10 0 0 0 0)
(0 1.56984e-11 0 1.56984e-11 2.56197e-10 0 0 0 0)
(0 3.1723e-11 0 3.1723e-11 1.0203e-10 0 0 0 0)
(0 3.92107e-11 0 3.92107e-11 3.06952e-11 0 0 0 0)
(0 4.2521e-11 0 4.2521e-11 2.32159e-12 0 0 0 0)
(0 4.40665e-11 0 4.40665e-11 -7.77259e-12 0 0 0 0)
(0 4.53876e-11 0 4.53876e-11 -1.10895e-11 0 0 0 0)
(0 4.65861e-11 0 4.65861e-11 -1.22775e-11 0 0 0 0)
(0 4.7687e-11 0 4.7687e-11 -1.28613e-11 0 0 0 0)
(0 4.89201e-11 0 4.89201e-11 -1.32681e-11 0 0 0 0)
(0 5.03351e-11 0 5.03351e-11 -1.36148e-11 0 0 0 0)
(0 5.16879e-11 0 5.16879e-11 -1.39907e-11 0 0 0 0)
(0 5.30337e-11 0 5.30337e-11 -1.43434e-11 0 0 0 0)
(0 5.4347e-11 0 5.4347e-11 -1.46901e-11 0 0 0 0)
(0 5.56266e-11 0 5.56266e-11 -1.50227e-11 0 0 0 0)
(0 5.68514e-11 0 5.68514e-11 -1.53444e-11 0 0 0 0)
(0 5.80241e-11 0 5.80241e-11 -1.56759e-11 0 0 0 0)
(0 5.92688e-11 0 5.92688e-11 -1.5997e-11 0 0 0 0)
(0 6.05659e-11 0 6.05659e-11 -1.63331e-11 0 0 0 0)
(0 6.1904e-11 0 6.1904e-11 -1.66933e-11 0 0 0 0)
(0 6.33394e-11 0 6.33394e-11 -1.70643e-11 0 0 0 0)
(0 6.48563e-11 0 6.48563e-11 -1.74502e-11 0 0 0 0)
(0 6.64086e-11 0 6.64086e-11 -1.78551e-11 0 0 0 0)
(0 6.80012e-11 0 6.80012e-11 -1.82674e-11 0 0 0 0)
(0 6.96273e-11 0 6.96273e-11 -1.86877e-11 0 0 0 0)
(0 7.12797e-11 0 7.12797e-11 -1.91169e-11 0 0 0 0)
(0 7.29654e-11 0 7.29654e-11 -1.95556e-11 0 0 0 0)
(0 7.47002e-11 0 7.47002e-11 -2.00045e-11 0 0 0 0)
(0 7.64913e-11 0 7.64913e-11 -2.04671e-11 0 0 0 0)
(0 7.83445e-11 0 7.83445e-11 -2.0946e-11 0 0 0 0)
(0 8.02705e-11 0 8.02705e-11 -2.14412e-11 0 0 0 0)
(0 8.22711e-11 0 8.22711e-11 -2.19544e-11 0 0 0 0)
(0 8.43458e-11 0 8.43458e-11 -2.24869e-11 0 0 0 0)
(0 8.64996e-11 0 8.64996e-11 -2.3039e-11 0 0 0 0)
(0 8.87376e-11 0 8.87376e-11 -2.36117e-11 0 0 0 0)
(0 9.10651e-11 0 9.10651e-11 -2.42069e-11 0 0 0 0)
(0 9.34895e-11 0 9.34895e-11 -2.48258e-11 0 0 0 0)
(0 9.60179e-11 0 9.60179e-11 -2.547e-11 0 0 0 0)
(0 9.86566e-11 0 9.86566e-11 -2.61413e-11 0 0 0 0)
(0 1.01412e-10 0 1.01412e-10 -2.68411e-11 0 0 0 0)
(0 1.04291e-10 0 1.04291e-10 -2.75709e-11 0 0 0 0)
(0 1.07299e-10 0 1.07299e-10 -2.83323e-11 0 0 0 0)
(0 1.10443e-10 0 1.10443e-10 -2.91268e-11 0 0 0 0)
(0 1.13731e-10 0 1.13731e-10 -2.99561e-11 0 0 0 0)
(0 1.17171e-10 0 1.17171e-10 -3.08221e-11 0 0 0 0)
(0 1.20771e-10 0 1.20771e-10 -3.17267e-11 0 0 0 0)
(0 1.2454e-10 0 1.2454e-10 -3.26722e-11 0 0 0 0)
(0 1.28491e-10 0 1.28491e-10 -3.3661e-11 0 0 0 0)
(0 1.32634e-10 0 1.32634e-10 -3.46953e-11 0 0 0 0)
(0 1.36979e-10 0 1.36979e-10 -3.57772e-11 0 0 0 0)
(0 1.41535e-10 0 1.41535e-10 -3.69092e-11 0 0 0 0)
(0 1.46313e-10 0 1.46313e-10 -3.80944e-11 0 0 0 0)
(0 1.51329e-10 0 1.51329e-10 -3.93394e-11 0 0 0 0)
(0 1.56621e-10 0 1.56621e-10 -4.06554e-11 0 0 0 0)
(0 1.62258e-10 0 1.62258e-10 -4.20591e-11 0 0 0 0)
(0 1.6834e-10 0 1.6834e-10 -4.35678e-11 0 0 0 0)
(0 1.74957e-10 0 1.74957e-10 -4.51899e-11 0 0 0 0)
(0 1.82119e-10 0 1.82119e-10 -4.69186e-11 0 0 0 0)
(0 1.89713e-10 0 1.89713e-10 -4.8752e-11 0 0 0 0)
(0 1.97652e-10 0 1.97652e-10 -5.07483e-11 0 0 0 0)
(0 2.06301e-10 0 2.06301e-10 -5.30438e-11 0 0 0 0)
(0 2.16721e-10 0 2.16721e-10 -5.57081e-11 0 0 0 0)
(0 2.29632e-10 0 2.29632e-10 -5.86045e-11 0 0 0 0)
(0 2.43753e-10 0 2.43753e-10 -6.16633e-11 0 0 0 0)
(0 2.57158e-10 0 2.57158e-10 -6.52766e-11 0 0 0 0)
(0 2.7195e-10 0 2.7195e-10 -7.02743e-11 0 0 0 0)
(0 2.95934e-10 0 2.95934e-10 -7.71007e-11 0 0 0 0)
(0 3.34679e-10 0 3.34679e-10 -8.36089e-11 0 0 0 0)
(0 3.72679e-10 0 3.72679e-10 -8.7e-11 0 0 0 0)
(0 3.78914e-10 0 3.78914e-10 -9.82233e-11 0 0 0 0)
(0 4.0739e-10 0 4.0739e-10 -1.14558e-10 0 0 0 0)
(0 5.11472e-10 0 5.11472e-10 -1.31735e-10 0 0 0 0)
(0 6.5019e-10 0 6.5019e-10 -2.00539e-10 0 0 0 0)
(0 1.03318e-09 0 1.03318e-09 -6.56125e-10 0 0 0 0)
(0 2.79578e-09 0 2.79578e-09 4.6791e-09 0 0 0 0)
(0 -4.77166e-09 0 -4.77166e-09 -3.26277e-08 0 0 0 0)
(0 -4.11616e-06 0 -4.11616e-06 1.04633e-07 0 0 0 0)
(0 -0.000224788 0 -0.000224788 2.08506e-06 0 0 0 0)
(0 -0.00153105 0 -0.00153105 3.06967e-06 0 0 0 0)
(0 -0.00228079 0 -0.00228079 -6.54279e-06 0 0 0 0)
(0 -0.00243396 0 -0.00243396 -1.93115e-06 0 0 0 0)
(0 -0.00250137 0 -0.00250137 -5.16666e-06 0 0 0 0)
(0 -0.00253213 0 -0.00253213 -5.2651e-06 0 0 0 0)
(0 -0.00254847 0 -0.00254847 -5.07707e-06 0 0 0 0)
(0 -0.00255871 0 -0.00255871 -4.72189e-06 0 0 0 0)
(0 -0.0025657 0 -0.0025657 -4.28207e-06 0 0 0 0)
(0 -0.00257034 0 -0.00257034 -3.81523e-06 0 0 0 0)
(0 -0.00257285 0 -0.00257285 -3.36371e-06 0 0 0 0)
(0 -0.00257328 0 -0.00257328 -2.94866e-06 0 0 0 0)
(0 -0.00257163 0 -0.00257163 -2.57718e-06 0 0 0 0)
(0 -0.00256796 0 -0.00256796 -2.24946e-06 0 0 0 0)
(0 -0.00256232 0 -0.00256232 -1.96267e-06 0 0 0 0)
(0 -0.00255479 0 -0.00255479 -1.7128e-06 0 0 0 0)
(0 -0.00254547 0 -0.00254547 -1.49558e-06 0 0 0 0)
(0 -0.00253444 0 -0.00253444 -1.30688e-06 0 0 0 0)
(0 -0.00252182 0 -0.00252182 -1.1429e-06 0 0 0 0)
(0 -0.00250768 0 -0.00250768 -1.00031e-06 0 0 0 0)
(0 -0.00249211 0 -0.00249211 -8.76174e-07 0 0 0 0)
(0 -0.00247521 0 -0.00247521 -7.6796e-07 0 0 0 0)
(0 -0.00245705 0 -0.00245705 -6.73496e-07 0 0 0 0)
(0 -0.00243771 0 -0.00243771 -5.90919e-07 0 0 0 0)
(0 -0.00241725 0 -0.00241725 -5.18632e-07 0 0 0 0)
(0 -0.00239573 0 -0.00239573 -4.55269e-07 0 0 0 0)
(0 -0.00237322 0 -0.00237322 -3.99657e-07 0 0 0 0)
(0 -0.00234976 0 -0.00234976 -3.5079e-07 0 0 0 0)
(0 -0.00232542 0 -0.00232542 -3.07803e-07 0 0 0 0)
(0 -0.00230023 0 -0.00230023 -2.6995e-07 0 0 0 0)
(0 -0.00227424 0 -0.00227424 -2.36589e-07 0 0 0 0)
(0 -0.0022475 0 -0.0022475 -2.07162e-07 0 0 0 0)
(0 -0.00222003 0 -0.00222003 -1.81188e-07 0 0 0 0)
(0 -0.00219187 0 -0.00219187 -1.58249e-07 0 0 0 0)
(0 -0.00216307 0 -0.00216307 -1.37981e-07 0 0 0 0)
(0 -0.00213364 0 -0.00213364 -1.20066e-07 0 0 0 0)
(0 -0.00210362 0 -0.00210362 -1.04228e-07 0 0 0 0)
(0 -0.00207304 0 -0.00207304 -9.02246e-08 0 0 0 0)
(0 -0.00204192 0 -0.00204192 -7.78434e-08 0 0 0 0)
(0 -0.00201029 0 -0.00201029 -6.68979e-08 0 0 0 0)
(0 -0.00197818 0 -0.00197818 -5.7224e-08 0 0 0 0)
(0 -0.0019456 0 -0.0019456 -4.86762e-08 0 0 0 0)
(0 -0.00191258 0 -0.00191258 -4.11245e-08 0 0 0 0)
(0 -0.00187914 0 -0.00187914 -3.44518e-08 0 0 0 0)
(0 -0.0018453 0 -0.0018453 -2.85517e-08 0 0 0 0)
(0 -0.00181108 0 -0.00181108 -2.33276e-08 0 0 0 0)
(0 -0.00177651 0 -0.00177651 -1.86919e-08 0 0 0 0)
(0 -0.00174159 0 -0.00174159 -1.45641e-08 0 0 0 0)
(0 -0.00170636 0 -0.00170636 -1.08716e-08 0 0 0 0)
(0 -0.00167082 0 -0.00167082 -7.55182e-09 0 0 0 0)
(0 -0.00163501 0 -0.00163501 -4.5599e-09 0 0 0 0)
(0 -0.00159893 0 -0.00159893 -1.87749e-09 0 0 0 0)
(0 -0.00156262 0 -0.00156262 4.95101e-10 0 0 0 0)
(0 -0.00152574 0 -0.00152574 2.58112e-09 0 0 0 0)
(4.09349e-17 -0.00148791 0 -0.00148791 4.40897e-09 0 0 0 0)
(0 -0.00144914 0 -0.00144914 5.99051e-09 0 0 0 0)
(0 -0.00140941 0 -0.00140941 7.35657e-09 0 0 0 0)
(-3.77171e-17 -0.00136873 0 -0.00136873 8.53895e-09 0 0 0 0)
(0 -0.00132709 0 -0.00132709 9.52181e-09 0 0 0 0)
(1.77734e-17 -0.00128449 0 -0.00128449 1.02449e-08 0 0 0 0)
(0 -0.00124093 0 -0.00124093 1.06472e-08 0 0 0 0)
(-1.66815e-17 -0.00119642 0 -0.00119642 1.06927e-08 0 0 0 0)
(0 -0.00115099 0 -0.00115099 1.03803e-08 0 0 0 0)
(0 -0.00110466 0 -0.00110466 9.74782e-09 0 0 0 0)
(0 -0.00105745 0 -0.00105745 8.87559e-09 0 0 0 0)
(0 -0.00100942 0 -0.00100942 7.86691e-09 0 0 0 0)
(0 -0.000960624 0 -0.000960624 6.80873e-09 0 0 0 0)
(0 -0.000911126 0 -0.000911126 5.76883e-09 0 0 0 0)
(0 -0.000861009 0 -0.000861009 4.80399e-09 0 0 0 0)
(0 -0.00081037 0 -0.00081037 3.94596e-09 0 0 0 0)
(0 -0.000759322 0 -0.000759322 3.20299e-09 0 0 0 0)
(0 -0.000707997 0 -0.000707997 2.57574e-09 0 0 0 0)
(0 -0.000656544 0 -0.000656544 2.05928e-09 0 0 0 0)
(2.04826e-17 -0.000605138 0 -0.000605138 1.63862e-09 0 0 0 0)
(0 -0.000553974 0 -0.000553974 1.29671e-09 0 0 0 0)
(1.85153e-17 -0.000503272 0 -0.000503272 1.02185e-09 0 0 0 0)
(0 -0.000453278 0 -0.000453278 8.02872e-10 0 0 0 0)
(0 -0.000404259 0 -0.000404259 6.28357e-10 0 0 0 0)
(0 -0.000356507 0 -0.000356507 4.89896e-10 0 0 0 0)
(0 -0.000310325 0 -0.000310325 3.81073e-10 0 0 0 0)
(-1.41794e-17 -0.000266026 0 -0.000266026 2.95888e-10 0 0 0 0)
(-1.34448e-17 -0.000223918 0 -0.000223918 2.2923e-10 0 0 0 0)
(0 -0.000184288 0 -0.000184288 1.77345e-10 0 0 0 0)
(0 -0.000147388 0 -0.000147388 1.37413e-10 0 0 0 0)
(0 -0.000113418 0 -0.000113418 1.06251e-10 0 0 0 0)
(0 -8.25125e-05 0 -8.25125e-05 8.14844e-11 0 0 0 0)
(0 -5.47375e-05 0 -5.47375e-05 5.06521e-11 0 0 0 0)
(0 -3.00894e-05 0 -3.00894e-05 5.1171e-11 0 0 0 0)
(0 -8.51013e-06 0 -8.51013e-06 6.24914e-11 0 0 0 0)
(0 1.01111e-05 0 1.01111e-05 3.17471e-11 0 0 0 0)
(0 2.59102e-05 0 2.59102e-05 1.30394e-11 0 0 0 0)
(0 3.90296e-05 0 3.90296e-05 1.22132e-11 0 0 0 0)
(0 4.96252e-05 0 4.96252e-05 9.16035e-12 0 0 0 0)
(0 5.7853e-05 0 5.7853e-05 3.11822e-13 0 0 0 0)
(0 6.38664e-05 0 6.38664e-05 -3.46998e-12 0 0 0 0)
(1.33356e-17 6.78156e-05 0 6.78156e-05 1.00789e-12 0 0 0 0)
(-1.24431e-17 6.98481e-05 0 6.98481e-05 3.16158e-14 0 0 0 0)
(0 7.0109e-05 0 7.0109e-05 -6.44321e-14 0 0 0 0)
(0 6.87418e-05 0 6.87418e-05 -8.50956e-14 0 0 0 0)
(9.6949e-18 6.58891e-05 0 6.58891e-05 6.09005e-13 0 0 0 0)
(0 6.16934e-05 0 6.16934e-05 -1.47933e-12 0 0 0 0)
(0 5.62999e-05 0 5.62999e-05 2.45499e-12 0 0 0 0)
(6.83087e-18 4.98602e-05 0 4.98602e-05 -3.31798e-12 0 0 0 0)
(0 4.25397e-05 0 4.25397e-05 3.93828e-12 0 0 0 0)
(0 3.453e-05 0 3.453e-05 -4.18189e-12 0 0 0 0)
(0 2.60685e-05 0 2.60685e-05 4.00024e-12 0 0 0 0)
(0 1.74643e-05 0 1.74643e-05 -3.3586e-12 0 0 0 0)
(0 9.13779e-06 0 9.13779e-06 2.31373e-12 0 0 0 0)
(0 2.13989e-06 0 2.13989e-06 -9.69371e-13 0 0 0 0)
(0 1.6148e-07 0 1.6148e-07 2.6705e-13 0 0 0 0)
(0 8.93597e-09 0 8.93597e-09 -1.9663e-13 0 0 0 0)
(0 2.84667e-10 0 2.84667e-10 1.92383e-13 0 0 0 0)
(0 6.35494e-11 0 6.35494e-11 -1.89347e-13 0 0 0 0)
(0 4.56033e-11 0 4.56033e-11 1.86719e-13 0 0 0 0)
(0 3.45713e-11 0 3.45713e-11 -1.83918e-13 0 0 0 0)
(0 2.61031e-11 0 2.61031e-11 1.81477e-13 0 0 0 0)
(0 1.9599e-11 0 1.9599e-11 -1.78898e-13 0 0 0 0)
(0 1.46303e-11 0 1.46303e-11 1.76596e-13 0 0 0 0)
(-1.12435e-19 1.08568e-11 0 1.08568e-11 -1.74191e-13 0 0 0 0)
(0 8.00826e-12 0 8.00826e-12 1.71997e-13 0 0 0 0)
(0 5.87041e-12 0 5.87041e-12 -1.69717e-13 0 0 0 0)
(0 4.27632e-12 0 4.27632e-12 1.67586e-13 0 0 0 0)
(0 3.09524e-12 0 3.09524e-12 -1.65375e-13 0 0 0 0)
(0 2.22566e-12 0 2.22566e-12 1.63284e-13 0 0 0 0)
(0 1.5895e-12 0 1.5895e-12 -1.61114e-13 0 0 0 0)
(0 1.12764e-12 0 1.12764e-12 1.5903e-13 0 0 0 0)
(0 7.94765e-13 0 7.94765e-13 -1.56875e-13 0 0 0 0)
(0 5.55781e-13 0 5.55781e-13 1.5479e-13 0 0 0 0)
(0 3.85623e-13 0 3.85623e-13 -1.52625e-13 0 0 0 0)
(0 2.65791e-13 0 2.65791e-13 1.50524e-13 0 0 0 0)
(0 1.82003e-13 0 1.82003e-13 -1.48338e-13 0 0 0 0)
(0 1.23715e-13 0 1.23715e-13 1.46213e-13 0 0 0 0)
(0 8.33328e-14 0 8.33328e-14 -1.44004e-13 0 0 0 0)
(0 5.55072e-14 0 5.55072e-14 1.41841e-13 0 0 0 0)
(0 3.68893e-14 0 3.68893e-14 -1.39604e-13 0 0 0 0)
(0 2.41945e-14 0 2.41945e-14 1.37407e-13 0 0 0 0)
(0 1.57353e-14 0 1.57353e-14 -1.35133e-13 0 0 0 0)
(0 1.02708e-14 0 1.02708e-14 1.32901e-13 0 0 0 0)
(-1.50452e-19 6.49554e-15 0 6.49554e-15 -1.30577e-13 0 0 0 0)
(0 4.12211e-15 0 4.12211e-15 1.28319e-13 0 0 0 0)
(0 2.56489e-15 0 2.56489e-15 -1.25971e-13 0 0 0 0)
(0 1.54031e-15 0 1.54031e-15 1.23667e-13 0 0 0 0)
(0 1.03763e-15 0 1.03763e-15 -1.21285e-13 0 0 0 0)
(0 6.71338e-16 0 6.71338e-16 1.18949e-13 0 0 0 0)
(0 3.62116e-16 0 3.62116e-16 -1.16533e-13 0 0 0 0)
(0 1.89204e-16 0 1.89204e-16 1.14164e-13 0 0 0 0)
(0 1.86208e-16 0 1.86208e-16 -1.11718e-13 0 0 0 0)
(0 1.67405e-16 0 1.67405e-16 1.09317e-13 0 0 0 0)
(-1.23064e-19 -5.89168e-17 0 -5.89168e-17 -1.06851e-13 0 0 0 0)
(0 -7.5626e-17 0 -7.5626e-17 1.04409e-13 0 0 0 0)
(0 1.23831e-17 0 1.23831e-17 -1.01932e-13 0 0 0 0)
(0 6.16978e-17 0 6.16978e-17 9.94534e-14 0 0 0 0)
(0 8.09963e-17 0 8.09963e-17 -9.6954e-14 0 0 0 0)
(0 1.8615e-17 0 1.8615e-17 9.44496e-14 0 0 0 0)
(0 -4.94979e-17 0 -4.94979e-17 -9.19226e-14 0 0 0 0)
(0 -4.6856e-17 0 -4.6856e-17 8.93907e-14 0 0 0 0)
(0 1.16054e-17 0 1.16054e-17 -8.68367e-14 0 0 0 0)
(0 9.75437e-17 0 9.75437e-17 8.42757e-14 0 0 0 0)
(0 -2.88143e-17 0 -2.88143e-17 -8.16934e-14 0 0 0 0)
(0 -6.09465e-17 0 -6.09465e-17 7.91013e-14 0 0 0 0)
(0 5.61805e-17 0 5.61805e-17 -7.64888e-14 0 0 0 0)
(0 -4.48748e-17 0 -4.48748e-17 7.39082e-14 0 0 0 0)
(0 -9.18501e-17 0 -9.18501e-17 -8.15096e-14 0 0 0 0)
(0 -2.062e-17 0 -2.062e-17 8.06188e-14 0 0 0 0)
(0 3.95988e-17 0 3.95988e-17 -7.97604e-14 0 0 0 0)
(0 5.26749e-18 0 5.26749e-18 7.88982e-14 0 0 0 0)
(0 2.19699e-18 0 2.19699e-18 -7.80241e-14 0 0 0 0)
(0 4.6428e-17 0 4.6428e-17 7.71439e-14 0 0 0 0)
(0 -3.03079e-17 0 -3.03079e-17 -7.62525e-14 0 0 0 0)
(0 -1.16732e-17 0 -1.16732e-17 7.53528e-14 0 0 0 0)
(0 4.45222e-17 0 4.45222e-17 -7.44418e-14 0 0 0 0)
(0 -6.07746e-17 0 -6.07746e-17 7.35198e-14 0 0 0 0)
(0 -3.99164e-17 0 -3.99164e-17 -7.2587e-14 0 0 0 0)
(0 2.67874e-17 0 2.67874e-17 7.16431e-14 0 0 0 0)
(0 4.30134e-17 0 4.30134e-17 -7.06865e-14 0 0 0 0)
(0 1.11173e-17 0 1.11173e-17 6.97169e-14 0 0 0 0)
(0 -1.10644e-17 0 -1.10644e-17 -6.87349e-14 0 0 0 0)
(0 -7.46448e-18 0 -7.46448e-18 6.77386e-14 0 0 0 0)
(0 -2.64962e-17 0 -2.64962e-17 -6.67282e-14 0 0 0 0)
(0 3.65812e-17 0 3.65812e-17 6.57038e-14 0 0 0 0)
(0 5.45277e-18 0 5.45277e-18 -6.46584e-14 0 0 0 0)
(0 -7.46448e-18 0 -7.46448e-18 6.36122e-14 0 0 0 0)
(0 -4.94985e-18 0 -4.94985e-18 -6.25299e-14 0 0 0 0)
(0 -2.80315e-17 0 -2.80315e-17 6.14469e-14 0 0 0 0)
(0 2.96462e-18 0 2.96462e-18 -6.03285e-14 0 0 0 0)
(0 3.22137e-17 0 3.22137e-17 5.92044e-14 0 0 0 0)
(0 8.65562e-18 0 8.65562e-18 -5.80468e-14 0 0 0 0)
(0 -2.03817e-18 0 -2.03817e-18 5.68735e-14 0 0 0 0)
(0 -1.98788e-17 0 -1.98788e-17 -5.56702e-14 0 0 0 0)
(0 -8.60268e-18 0 -8.60268e-18 5.44479e-14 0 0 0 0)
(0 -1.72054e-18 0 -1.72054e-18 -5.31914e-14 0 0 0 0)
(0 -1.01512e-16 0 -1.01512e-16 5.19078e-14 0 0 0 0)
(0 -3.27272e-16 0 -3.27272e-16 -5.05914e-14 0 0 0 0)
(0 -1.16467e-18 0 -1.16467e-18 4.92402e-14 0 0 0 0)
(0 3.29999e-16 0 3.29999e-16 -4.78493e-14 0 0 0 0)
(0 9.33324e-17 0 9.33324e-17 4.64211e-14 0 0 0 0)
(0 -6.2204e-18 0 -6.2204e-18 -4.49448e-14 0 0 0 0)
(0 8.31151e-18 0 8.31151e-18 4.34228e-14 0 0 0 0)
(0 5.77041e-17 0 5.77041e-17 -4.1833e-14 0 0 0 0)
(0 2.6258e-17 0 2.6258e-17 4.02147e-14 0 0 0 0)
(0 -2.51992e-17 0 -2.51992e-17 -3.84781e-14 0 0 0 0)
(0 -8.7165e-17 0 -8.7165e-17 3.67284e-14 0 0 0 0)
(0 8.33798e-18 0 8.33798e-18 -3.47918e-14 0 0 0 0)
(0 1.1697e-16 0 1.1697e-16 3.28941e-14 0 0 0 0)
(0 5.92923e-17 0 5.92923e-17 -3.07027e-14 0 0 0 0)
(0 -2.62845e-17 0 -2.62845e-17 2.85119e-14 0 0 0 0)
(0 -4.38869e-17 0 -4.38869e-17 -2.59345e-14 0 0 0 0)
(0 -5.0372e-17 0 -5.0372e-17 2.33518e-14 0 0 0 0)
(0 -4.17164e-17 0 -4.17164e-17 -2.00901e-14 0 0 0 0)
(0 3.21343e-17 0 3.21343e-17 1.66604e-14 0 0 0 0)
(0 -3.80371e-17 0 -3.80371e-17 -1.1939e-14 0 0 0 0)
(0 -6.82656e-17 0 -6.82656e-17 4.03043e-15 0 0 0 0)
)
;

boundaryField
{
    inandouthalf11
    {
        type            cyclic;
    }
    inandouthalf12
    {
        type            cyclic;
    }
    inandouthalf21
    {
        type            cyclic;
    }
    inandouthalf22
    {
        type            cyclic;
    }
    inandouthalf31
    {
        type            cyclic;
    }
    inandouthalf32
    {
        type            cyclic;
    }
    inandouthalf41
    {
        type            cyclic;
    }
    inandouthalf42
    {
        type            cyclic;
    }
    top
    {
        type            symmetryPlane;
    }
    walls
    {
        type            zeroGradient;
    }
    frontAndBackPlanes
    {
        type            empty;
    }
}


// ************************************************************************* //
