/*--------------------------------*- C++ -*----------------------------------*\
| =========                 |                                                 |
| \\      /  F ield         | OpenFOAM: The Open Source CFD Toolbox           |
|  \\    /   O peration     | Version:  2.4.x                                 |
|   \\  /    A nd           | Web:      www.OpenFOAM.org                      |
|    \\/     M anipulation  |                                                 |
\*---------------------------------------------------------------------------*/
FoamFile
{
    version     2.0;
    format      ascii;
    class       volVectorField;
    location    "6.45";
    object      Ua_0;
}
// * * * * * * * * * * * * * * * * * * * * * * * * * * * * * * * * * * * * * //

dimensions      [0 1 -1 0 0 0 0];

internalField   nonuniform List<vector> 
360
(
(-8.47461e-33 -9.57831e-32 0)
(-1.9213e-08 -1.53237e-07 0)
(-4.05872e-08 -2.79628e-07 0)
(-5.95841e-08 -3.87267e-07 0)
(-7.86723e-08 -4.97894e-07 0)
(-9.86552e-08 -6.1346e-07 0)
(-1.19219e-07 -7.30763e-07 0)
(-1.40121e-07 -8.48523e-07 0)
(-1.6132e-07 -9.66678e-07 0)
(-1.82846e-07 -1.08542e-06 0)
(-2.04739e-07 -1.20498e-06 0)
(-2.27025e-07 -1.32547e-06 0)
(-2.49707e-07 -1.44687e-06 0)
(-2.72781e-07 -1.56912e-06 0)
(-2.96243e-07 -1.69217e-06 0)
(-3.20096e-07 -1.81601e-06 0)
(-3.44349e-07 -1.94068e-06 0)
(-3.69009e-07 -2.06617e-06 0)
(-3.94082e-07 -2.1925e-06 0)
(-4.19575e-07 -2.31967e-06 0)
(-4.45493e-07 -2.44768e-06 0)
(-4.71841e-07 -2.57652e-06 0)
(-4.98628e-07 -2.70621e-06 0)
(-5.25862e-07 -2.83676e-06 0)
(-5.53551e-07 -2.96818e-06 0)
(-5.81698e-07 -3.10046e-06 0)
(-6.10307e-07 -3.23358e-06 0)
(-6.39386e-07 -3.36754e-06 0)
(-6.68937e-07 -3.50233e-06 0)
(-6.98962e-07 -3.63792e-06 0)
(-7.29459e-07 -3.77427e-06 0)
(-7.60433e-07 -3.91137e-06 0)
(-7.91885e-07 -4.04919e-06 0)
(-8.23825e-07 -4.18774e-06 0)
(-8.56268e-07 -4.32706e-06 0)
(-8.89231e-07 -4.46717e-06 0)
(-9.22739e-07 -4.60814e-06 0)
(-9.56835e-07 -4.75012e-06 0)
(-9.91568e-07 -4.89329e-06 0)
(-1.02698e-06 -5.03777e-06 0)
(-1.06314e-06 -5.18374e-06 0)
(-1.10008e-06 -5.33138e-06 0)
(-1.13785e-06 -5.48073e-06 0)
(-1.17646e-06 -5.63181e-06 0)
(-1.2159e-06 -5.78457e-06 0)
(-1.25611e-06 -5.9387e-06 0)
(-1.297e-06 -6.09377e-06 0)
(-1.33839e-06 -6.24907e-06 0)
(-1.38009e-06 -6.40384e-06 0)
(-1.4219e-06 -6.55733e-06 0)
(-1.46358e-06 -6.70868e-06 0)
(-1.50492e-06 -6.85708e-06 0)
(-1.54578e-06 -7.00206e-06 0)
(-1.58611e-06 -7.14347e-06 0)
(-1.62599e-06 -7.28164e-06 0)
(-1.66568e-06 -7.41746e-06 0)
(-1.70563e-06 -7.55247e-06 0)
(-1.74649e-06 -7.68885e-06 0)
(-1.78921e-06 -7.82966e-06 0)
(-1.83503e-06 -7.9788e-06 0)
(-1.88562e-06 -8.14152e-06 0)
(-1.94312e-06 -8.32438e-06 0)
(-2.01017e-06 -8.53529e-06 0)
(-2.08965e-06 -8.78292e-06 0)
(-2.18411e-06 -9.0746e-06 0)
(-2.29429e-06 -9.41224e-06 0)
(-2.41713e-06 -9.78602e-06 0)
(-2.54398e-06 -1.01693e-05 0)
(-2.66141e-06 -1.05213e-05 0)
(-2.75611e-06 -1.08023e-05 0)
(-2.82131e-06 -1.09934e-05 0)
(-2.85926e-06 -1.11029e-05 0)
(-2.87794e-06 -1.11559e-05 0)
(-2.88582e-06 -1.11778e-05 0)
(-2.88871e-06 -1.11857e-05 0)
(-2.88967e-06 -1.11882e-05 0)
(-2.88996e-06 -1.1189e-05 0)
(-2.89005e-06 -1.11892e-05 0)
(-2.89007e-06 -1.11893e-05 0)
(-2.89008e-06 -1.11893e-05 0)
(-2.89008e-06 -1.11893e-05 0)
(-2.89008e-06 -1.11893e-05 0)
(-2.89008e-06 -1.11893e-05 0)
(-2.89008e-06 -1.11893e-05 0)
(-2.89008e-06 -1.11893e-05 0)
(-2.89008e-06 -1.11893e-05 0)
(-2.89008e-06 -1.11893e-05 0)
(-2.89008e-06 -1.11893e-05 0)
(-2.89008e-06 -1.11893e-05 0)
(-2.89008e-06 -1.11893e-05 0)
(-2.89008e-06 -1.11893e-05 0)
(-2.89008e-06 -1.11893e-05 0)
(-2.89008e-06 -1.11893e-05 0)
(-2.89008e-06 -1.11893e-05 0)
(-2.89008e-06 -1.11893e-05 0)
(-2.89008e-06 -1.11893e-05 0)
(-2.89008e-06 -1.11893e-05 0)
(-2.89008e-06 -1.11893e-05 0)
(-2.89008e-06 -1.11893e-05 0)
(-2.89008e-06 -1.11893e-05 0)
(-2.89008e-06 -1.11893e-05 0)
(-2.89008e-06 -1.11893e-05 0)
(-2.89008e-06 -1.11893e-05 0)
(-2.89008e-06 -1.11893e-05 0)
(-2.89008e-06 -1.11893e-05 0)
(-2.89008e-06 -1.11893e-05 0)
(-2.89008e-06 -1.11893e-05 0)
(-2.89008e-06 -1.11893e-05 0)
(-2.89008e-06 -1.11893e-05 0)
(-2.89008e-06 -1.11893e-05 0)
(-2.89008e-06 -1.11893e-05 0)
(-2.89008e-06 -1.11893e-05 0)
(-2.89008e-06 -1.11893e-05 0)
(-2.89008e-06 -1.11893e-05 0)
(-2.89008e-06 -1.11893e-05 0)
(-2.89008e-06 -1.11893e-05 0)
(-2.89008e-06 -1.11893e-05 0)
(-2.89008e-06 -1.11893e-05 0)
(-2.89008e-06 -1.11893e-05 0)
(-2.89008e-06 -1.11893e-05 0)
(-2.89008e-06 -1.11893e-05 0)
(-2.89008e-06 -1.11893e-05 0)
(-2.89008e-06 -1.11893e-05 0)
(-2.89008e-06 -1.11893e-05 0)
(-2.89008e-06 -1.11893e-05 0)
(-2.89008e-06 -1.11893e-05 0)
(-2.89008e-06 -1.11893e-05 0)
(-2.89008e-06 -1.11893e-05 0)
(-2.89008e-06 -1.11893e-05 0)
(-2.89008e-06 -1.11893e-05 0)
(-2.89008e-06 -1.11893e-05 0)
(-2.89008e-06 -1.11893e-05 0)
(-2.89008e-06 -1.11893e-05 0)
(-2.89008e-06 -1.11893e-05 0)
(-2.89008e-06 -1.11893e-05 0)
(-2.89008e-06 -1.11893e-05 0)
(-2.89008e-06 -1.11893e-05 0)
(-2.89008e-06 -1.11893e-05 0)
(-2.89008e-06 -1.11893e-05 0)
(-2.89008e-06 -1.11893e-05 0)
(-2.89008e-06 -1.11893e-05 0)
(-2.89008e-06 -1.11893e-05 0)
(-2.89008e-06 -1.11893e-05 0)
(-2.89008e-06 -1.11893e-05 0)
(-2.89008e-06 -1.11893e-05 0)
(-2.89008e-06 -1.11893e-05 0)
(-2.89008e-06 -1.11893e-05 0)
(-2.89008e-06 -1.11893e-05 0)
(-0.00212006 -5.46434e-05 0)
(-0.0833328 -0.000955187 0)
(-0.16255 -0.00127583 0)
(-0.221319 -0.00153353 0)
(-0.266927 -0.00175246 0)
(-0.303641 -0.00194329 0)
(-0.334054 -0.00210856 0)
(-0.359851 -0.00224996 0)
(-0.382178 -0.00236869 0)
(-0.401828 -0.00246602 0)
(-0.419367 -0.00254347 0)
(-0.435206 -0.00260267 0)
(-0.449652 -0.00264523 0)
(-0.462934 -0.00267263 0)
(-0.475233 -0.00268617 0)
(-0.486688 -0.00268703 0)
(-0.497411 -0.00267619 0)
(-0.507493 -0.00265453 0)
(-0.517008 -0.00262279 0)
(-0.526016 -0.00258162 0)
(-0.534569 -0.00253159 0)
(-0.542709 -0.00247318 0)
(-0.550472 -0.00240685 0)
(-0.55789 -0.00233297 0)
(-0.564988 -0.00225189 0)
(-0.57179 -0.00216394 0)
(-0.578315 -0.0020694 0)
(-0.58458 -0.00196853 0)
(-0.5906 -0.00186158 0)
(-0.596388 -0.00174879 0)
(-0.601956 -0.00163036 0)
(-0.607313 -0.00150652 0)
(-0.61247 -0.00137746 0)
(-0.617433 -0.00124338 0)
(-0.622211 -0.00110446 0)
(-0.626809 -0.000960891 0)
(-0.631233 -0.000812855 0)
(-0.635489 -0.000660526 0)
(-0.639581 -0.00050408 0)
(-0.643513 -0.000343686 0)
(-0.64729 -0.000179516 0)
(-0.650916 -1.17402e-05 0)
(-0.654392 0.000159467 0)
(-0.657723 0.000333918 0)
(-0.660912 0.000511399 0)
(-0.663961 0.000691657 0)
(-0.666873 0.000874381 0)
(-0.669649 0.00105919 0)
(-0.672294 0.00124559 0)
(-0.674808 0.00143297 0)
(-0.677195 0.0016206 0)
(-0.679457 0.00180758 0)
(-0.681596 0.00199299 0)
(-0.683635 0.00217784 0)
(-0.685594 0.00236305 0)
(-0.687469 0.00254759 0)
(-0.68926 0.00273036 0)
(-0.690964 0.00291 0)
(-0.692582 0.00308469 0)
(-0.694114 0.0032523 0)
(-0.695561 0.00341066 0)
(-0.696925 0.00355778 0)
(-0.69821 0.00369209 0)
(-0.69942 0.00381253 0)
(-0.700562 0.00391876 0)
(-0.701642 0.00401105 0)
(-0.702665 0.00409002 0)
(-0.703639 0.00415656 0)
(-0.704571 0.00421184 0)
(-0.705467 0.004257 0)
(-0.706332 0.00429309 0)
(-0.707174 0.0043211 0)
(-0.707997 0.00434197 0)
(-0.708806 0.00435632 0)
(-0.709605 0.0043646 0)
(-0.710397 0.00436728 0)
(-0.711186 0.00436458 0)
(-0.711973 0.00435657 0)
(-0.712761 0.0043433 0)
(-0.713551 0.00432467 0)
(-0.714342 0.00430051 0)
(-0.715133 0.00427014 0)
(-0.715921 0.00423317 0)
(-0.716704 0.00418773 0)
(-0.717474 0.00413288 0)
(-0.718227 0.00406165 0)
(-0.718936 0.00397719 0)
(-0.719604 0.00385088 0)
(-0.720459 0.00364655 0)
(-0.824819 -0.000396577 0)
(-0.825991 0.00296271 0)
(-0.825614 0.00155714 0)
(-0.824869 0.00402291 0)
(-0.823411 -0.0277669 0)
(-0.822506 -0.0395856 0)
(-0.821353 -0.0395728 0)
(-0.8202 -0.0395732 0)
(-0.818934 -0.039573 0)
(-0.817583 -0.0395732 0)
(-0.81616 -0.0395736 0)
(-0.81468 -0.0395742 0)
(-0.81316 -0.0395748 0)
(-0.811618 -0.0395752 0)
(-0.810073 -0.0395754 0)
(-0.808551 -0.0395751 0)
(-0.807083 -0.0395741 0)
(-0.805709 -0.039572 0)
(-0.804482 -0.0395673 0)
(-0.803649 -0.0395576 0)
(-0.803395 -0.0395491 0)
(-0.803376 -0.0395463 0)
(-0.803375 -0.0395461 0)
(-0.803375 -0.0395461 0)
(-0.803375 -0.0395461 0)
(-0.803375 -0.0395461 0)
(-0.803375 -0.0395461 0)
(-0.803375 -0.0395461 0)
(-0.803375 -0.0395461 0)
(-0.803375 -0.0395461 0)
(-0.803375 -0.0395461 0)
(-0.803375 -0.0395461 0)
(-0.803375 -0.0395461 0)
(-0.803375 -0.0395461 0)
(-0.803375 -0.0395461 0)
(-0.803375 -0.0395461 0)
(-0.803375 -0.0395461 0)
(-0.803375 -0.0395461 0)
(-0.803375 -0.0395461 0)
(-0.803375 -0.0395461 0)
(-0.803375 -0.0395461 0)
(-0.803375 -0.0395461 0)
(-0.803375 -0.0395461 0)
(-0.803375 -0.0395461 0)
(-0.803375 -0.0395461 0)
(-0.803375 -0.0395461 0)
(-0.803375 -0.0395461 0)
(-0.803375 -0.0395461 0)
(-0.803375 -0.0395461 0)
(-0.803375 -0.0395461 0)
(-0.803375 -0.0395461 0)
(-0.803375 -0.0395461 0)
(-0.803375 -0.0395461 0)
(-0.803375 -0.0395461 0)
(-0.803375 -0.0395461 0)
(-0.803375 -0.0395461 0)
(-0.803375 -0.0395461 0)
(-0.803375 -0.0395461 0)
(-0.803375 -0.0395461 0)
(-0.803375 -0.0395461 0)
(-0.803375 -0.0395461 0)
(-0.803375 -0.0395461 0)
(-0.803375 -0.0395461 0)
(-0.803375 -0.0395461 0)
(-0.803375 -0.0395461 0)
(-0.803375 -0.0395461 0)
(-0.803375 -0.0395461 0)
(-0.803375 -0.0395461 0)
(-0.803375 -0.0395461 0)
(-0.803375 -0.0395461 0)
(-0.803375 -0.0395461 0)
(-0.803375 -0.0395461 0)
(-0.803375 -0.0395461 0)
(-0.803375 -0.0395461 0)
(-0.803375 -0.0395461 0)
(-0.803375 -0.0395461 0)
(-0.803375 -0.0395461 0)
(-0.803375 -0.0395461 0)
(-0.803375 -0.0395461 0)
(-0.803375 -0.0395461 0)
(-0.803375 -0.0395461 0)
(-0.803375 -0.0395461 0)
(-0.803375 -0.0395461 0)
(-0.803375 -0.0395461 0)
(-0.803375 -0.0395461 0)
(-0.803375 -0.0395461 0)
(-0.803375 -0.0395461 0)
(-0.803375 -0.0395461 0)
(-0.803375 -0.0395461 0)
(-0.803375 -0.0395461 0)
(-0.803375 -0.0395461 0)
(-0.803375 -0.0395461 0)
(-0.803375 -0.0395461 0)
(-0.803375 -0.0395461 0)
(-0.803375 -0.0395461 0)
(-0.803375 -0.0395461 0)
(-0.803375 -0.0395461 0)
(-0.803375 -0.0395461 0)
(-0.803375 -0.0395461 0)
(-0.803375 -0.0395461 0)
(-0.803375 -0.0395461 0)
(-0.803375 -0.0395461 0)
(-0.803375 -0.0395461 0)
(-0.803375 -0.0395461 0)
(-0.803375 -0.0395461 0)
(-0.803375 -0.0395461 0)
(-0.803375 -0.0395461 0)
(-0.803375 -0.0395461 0)
(-0.803375 -0.0395461 0)
(-0.803375 -0.0395461 0)
(-0.803375 -0.0395461 0)
(-0.803375 -0.0395461 0)
(-0.803375 -0.0395461 0)
(-0.803375 -0.0395461 0)
(-0.803375 -0.0395461 0)
(-0.803375 -0.0395461 0)
(-0.803375 -0.0395461 0)
(-0.803375 -0.0395461 0)
(-0.803375 -0.0395461 0)
(-0.803375 -0.0395459 0)
(-0.803375 -0.0395374 0)
(-0.803383 -0.0391929 0)
(-0.803571 -0.0224926 0)
)
;

boundaryField
{
    inandouthalf11
    {
        type            cyclic;
    }
    inandouthalf12
    {
        type            cyclic;
    }
    inandouthalf21
    {
        type            cyclic;
    }
    inandouthalf22
    {
        type            cyclic;
    }
    inandouthalf31
    {
        type            cyclic;
    }
    inandouthalf32
    {
        type            cyclic;
    }
    inandouthalf41
    {
        type            cyclic;
    }
    inandouthalf42
    {
        type            cyclic;
    }
    top
    {
        type            symmetryPlane;
    }
    walls
    {
        type            fixedValue;
        value           uniform (0 0 0);
    }
    frontAndBackPlanes
    {
        type            empty;
    }
}


// ************************************************************************* //
