/*--------------------------------*- C++ -*----------------------------------*\
| =========                 |                                                 |
| \\      /  F ield         | OpenFOAM: The Open Source CFD Toolbox           |
|  \\    /   O peration     | Version:  2.4.x                                 |
|   \\  /    A nd           | Web:      www.OpenFOAM.org                      |
|    \\/     M anipulation  |                                                 |
\*---------------------------------------------------------------------------*/
FoamFile
{
    version     2.0;
    format      ascii;
    class       volVectorField;
    location    "6.45";
    object      Ub;
}
// * * * * * * * * * * * * * * * * * * * * * * * * * * * * * * * * * * * * * //

dimensions      [0 1 -1 0 0 0 0];

internalField   nonuniform List<vector> 
360
(
(6.32624e-05 6.30806e-08 0)
(6.294e-05 2.30154e-07 0)
(6.28592e-05 4.28003e-07 0)
(6.28811e-05 6.09062e-07 0)
(6.28872e-05 7.85753e-07 0)
(6.28772e-05 9.66236e-07 0)
(6.28666e-05 1.14998e-06 0)
(6.28576e-05 1.33509e-06 0)
(6.28486e-05 1.52094e-06 0)
(6.28397e-05 1.70765e-06 0)
(6.28306e-05 1.89558e-06 0)
(6.28211e-05 2.08487e-06 0)
(6.28113e-05 2.27554e-06 0)
(6.28012e-05 2.4675e-06 0)
(6.27908e-05 2.6607e-06 0)
(6.27801e-05 2.85511e-06 0)
(6.27692e-05 3.05077e-06 0)
(6.2758e-05 3.24768e-06 0)
(6.27465e-05 3.44586e-06 0)
(6.27348e-05 3.64532e-06 0)
(6.27227e-05 3.84603e-06 0)
(6.27103e-05 4.04802e-06 0)
(6.26976e-05 4.2513e-06 0)
(6.26846e-05 4.45587e-06 0)
(6.26713e-05 4.66175e-06 0)
(6.26577e-05 4.86893e-06 0)
(6.26437e-05 5.07737e-06 0)
(6.26295e-05 5.28707e-06 0)
(6.26149e-05 5.49803e-06 0)
(6.25999e-05 5.71018e-06 0)
(6.25846e-05 5.92346e-06 0)
(6.2569e-05 6.13788e-06 0)
(6.25529e-05 6.35335e-06 0)
(6.25368e-05 6.56994e-06 0)
(6.25201e-05 6.78766e-06 0)
(6.25031e-05 7.00659e-06 0)
(6.24856e-05 7.22683e-06 0)
(6.24678e-05 7.44858e-06 0)
(6.24497e-05 7.67214e-06 0)
(6.24306e-05 7.89767e-06 0)
(6.24115e-05 8.12547e-06 0)
(6.23916e-05 8.35579e-06 0)
(6.23709e-05 8.58865e-06 0)
(6.23498e-05 8.82417e-06 0)
(6.23279e-05 9.06212e-06 0)
(6.23056e-05 9.30208e-06 0)
(6.22828e-05 9.54337e-06 0)
(6.22593e-05 9.78488e-06 0)
(6.22359e-05 1.00255e-05 0)
(6.22127e-05 1.0264e-05 0)
(6.21894e-05 1.04991e-05 0)
(6.21667e-05 1.07296e-05 0)
(6.21444e-05 1.09549e-05 0)
(6.2123e-05 1.11747e-05 0)
(6.21018e-05 1.13895e-05 0)
(6.20813e-05 1.16008e-05 0)
(6.20603e-05 1.1811e-05 0)
(6.20391e-05 1.20236e-05 0)
(6.20162e-05 1.22434e-05 0)
(6.19906e-05 1.24765e-05 0)
(6.19612e-05 1.27311e-05 0)
(6.19254e-05 1.30175e-05 0)
(6.18813e-05 1.33478e-05 0)
(6.18256e-05 1.37346e-05 0)
(6.17562e-05 1.41878e-05 0)
(6.1672e-05 1.47079e-05 0)
(6.15761e-05 1.52778e-05 0)
(6.14764e-05 1.58571e-05 0)
(6.13852e-05 1.63883e-05 0)
(6.13152e-05 1.68169e-05 0)
(6.12735e-05 1.71158e-05 0)
(6.12577e-05 1.72939e-05 0)
(6.126e-05 1.73839e-05 0)
(6.12734e-05 1.7422e-05 0)
(6.12918e-05 1.74349e-05 0)
(6.13126e-05 1.74374e-05 0)
(6.13343e-05 1.74361e-05 0)
(6.13567e-05 1.74335e-05 0)
(6.13797e-05 1.74305e-05 0)
(6.14032e-05 1.74274e-05 0)
(6.14273e-05 1.74241e-05 0)
(6.14522e-05 1.74207e-05 0)
(6.14777e-05 1.74173e-05 0)
(6.15039e-05 1.74137e-05 0)
(6.15307e-05 1.74101e-05 0)
(6.15582e-05 1.74064e-05 0)
(6.15863e-05 1.74026e-05 0)
(6.16151e-05 1.73987e-05 0)
(6.16444e-05 1.73947e-05 0)
(6.16743e-05 1.73907e-05 0)
(6.17049e-05 1.73866e-05 0)
(6.17362e-05 1.73824e-05 0)
(6.17683e-05 1.7378e-05 0)
(6.18011e-05 1.73736e-05 0)
(6.18347e-05 1.73691e-05 0)
(6.18691e-05 1.73645e-05 0)
(6.19043e-05 1.73598e-05 0)
(6.19404e-05 1.73549e-05 0)
(6.19773e-05 1.735e-05 0)
(6.20151e-05 1.73449e-05 0)
(6.20538e-05 1.73398e-05 0)
(6.20934e-05 1.73345e-05 0)
(6.2134e-05 1.7329e-05 0)
(6.21757e-05 1.73235e-05 0)
(6.22184e-05 1.73178e-05 0)
(6.22622e-05 1.7312e-05 0)
(6.23071e-05 1.7306e-05 0)
(6.23532e-05 1.72999e-05 0)
(6.24006e-05 1.72936e-05 0)
(6.24493e-05 1.72871e-05 0)
(6.24993e-05 1.72805e-05 0)
(6.25507e-05 1.72737e-05 0)
(6.26036e-05 1.72667e-05 0)
(6.2658e-05 1.72595e-05 0)
(6.2714e-05 1.72522e-05 0)
(6.27717e-05 1.72446e-05 0)
(6.28312e-05 1.72368e-05 0)
(6.28925e-05 1.72287e-05 0)
(6.29557e-05 1.72204e-05 0)
(6.3021e-05 1.72119e-05 0)
(6.30883e-05 1.72031e-05 0)
(6.31579e-05 1.7194e-05 0)
(6.32299e-05 1.71846e-05 0)
(6.33043e-05 1.71749e-05 0)
(6.33812e-05 1.71649e-05 0)
(6.34609e-05 1.71546e-05 0)
(6.35435e-05 1.71439e-05 0)
(6.36292e-05 1.71328e-05 0)
(6.37184e-05 1.71213e-05 0)
(6.38113e-05 1.71094e-05 0)
(6.39081e-05 1.70969e-05 0)
(6.4009e-05 1.7084e-05 0)
(6.41144e-05 1.70704e-05 0)
(6.42257e-05 1.70561e-05 0)
(6.43441e-05 1.70411e-05 0)
(6.44695e-05 1.70253e-05 0)
(6.46012e-05 1.70085e-05 0)
(6.47414e-05 1.69902e-05 0)
(6.48972e-05 1.69699e-05 0)
(6.50761e-05 1.69484e-05 0)
(6.52698e-05 1.69264e-05 0)
(6.5455e-05 1.68993e-05 0)
(6.56772e-05 1.68692e-05 0)
(6.59665e-05 1.68334e-05 0)
(6.63274e-05 1.67689e-05 0)
(6.69997e-05 1.65053e-05 0)
(6.91229e-05 1.91082e-05 0)
(6.22393e-05 2.30175e-07 0)
(-0.00380965 6.84075e-05 0)
(-0.0930996 0.0004323 0)
(-0.170313 0.000235323 0)
(-0.226911 0.000240371 0)
(-0.271205 0.000195298 0)
(-0.307147 0.000157506 0)
(-0.33713 0.000126759 0)
(-0.362721 0.000102149 0)
(-0.384987 8.26005e-05 0)
(-0.404677 6.71371e-05 0)
(-0.422326 5.48892e-05 0)
(-0.438327 4.51401e-05 0)
(-0.452976 3.73288e-05 0)
(-0.466495 3.10256e-05 0)
(-0.479061 2.59036e-05 0)
(-0.490811 2.17132e-05 0)
(-0.501854 1.82631e-05 0)
(-0.512281 1.54058e-05 0)
(-0.522165 1.30266e-05 0)
(-0.531566 1.10357e-05 0)
(-0.540537 9.36223e-06 0)
(-0.54912 7.94987e-06 0)
(-0.557353 6.75355e-06 0)
(-0.565267 5.73692e-06 0)
(-0.57289 4.87048e-06 0)
(-0.580245 4.13016e-06 0)
(-0.587353 3.49619e-06 0)
(-0.594234 2.95226e-06 0)
(-0.600902 2.48483e-06 0)
(-0.607374 2.08263e-06 0)
(-0.613661 1.73619e-06 0)
(-0.619775 1.43759e-06 0)
(-0.625726 1.18013e-06 0)
(-0.631525 9.58111e-07 0)
(-0.637178 7.66722e-07 0)
(-0.642695 6.01844e-07 0)
(-0.648081 4.59957e-07 0)
(-0.653343 3.38039e-07 0)
(-0.658488 2.33493e-07 0)
(-0.663519 1.44079e-07 0)
(-0.668442 6.78604e-08 0)
(-0.673262 3.16232e-09 0)
(-0.677981 -5.14679e-08 0)
(-0.682605 -9.72881e-08 0)
(-0.687136 -1.35386e-07 0)
(-0.691577 -1.66699e-07 0)
(-0.695931 -1.92031e-07 0)
(-0.700201 -2.1207e-07 0)
(-0.704389 -2.27397e-07 0)
(-0.708498 -2.38499e-07 0)
(-0.712528 -2.45789e-07 0)
(-0.716482 -2.49633e-07 0)
(-0.720362 -2.50389e-07 0)
(-0.724208 -2.48396e-07 0)
(-0.728056 -2.43856e-07 0)
(-0.731905 -2.36968e-07 0)
(-0.735753 -2.27925e-07 0)
(-0.739598 -2.16871e-07 0)
(-0.743437 -2.03935e-07 0)
(-0.747269 -1.89334e-07 0)
(-0.751089 -1.73407e-07 0)
(-0.754895 -1.56608e-07 0)
(-0.758683 -1.3947e-07 0)
(-0.762448 -1.2255e-07 0)
(-0.766186 -1.06368e-07 0)
(-0.769893 -9.13161e-08 0)
(-0.773561 -7.76417e-08 0)
(-0.777186 -6.54842e-08 0)
(-0.780759 -5.48696e-08 0)
(-0.784273 -4.5725e-08 0)
(-0.78772 -3.79339e-08 0)
(-0.79109 -3.13591e-08 0)
(-0.794372 -2.5843e-08 0)
(-0.797555 -2.12271e-08 0)
(-0.800627 -1.73803e-08 0)
(-0.803574 -1.4188e-08 0)
(-0.806381 -1.15425e-08 0)
(-0.809034 -9.35532e-09 0)
(-0.811517 -7.55397e-09 0)
(-0.813813 -6.07415e-09 0)
(-0.815906 -4.86017e-09 0)
(-0.817783 -3.86694e-09 0)
(-0.819431 -3.0568e-09 0)
(-0.820839 -2.3971e-09 0)
(-0.822001 -1.85866e-09 0)
(-0.822916 -1.42421e-09 0)
(-0.823584 -1.07651e-09 0)
(-0.824014 -9.16615e-10 0)
(-0.824215 -5.36135e-10 0)
(-0.824199 -2.30486e-10 0)
(-0.823981 -1.73761e-10 0)
(-0.823574 -7.31276e-11 0)
(-0.822993 -2.00041e-11 0)
(-0.822253 4.87911e-11 0)
(-0.821367 -1.69775e-11 0)
(-0.820349 -2.0898e-12 0)
(-0.819212 -1.11273e-12 0)
(-0.81797 -1.56613e-12 0)
(-0.816638 -2.298e-12 0)
(-0.815229 -3.26483e-12 0)
(-0.813759 1.11586e-11 0)
(-0.812244 -3.97034e-11 0)
(-0.810702 7.95143e-11 0)
(-0.809152 -1.46025e-10 0)
(-0.80762 2.28217e-10 0)
(-0.806133 -3.38357e-10 0)
(-0.804732 4.63597e-10 0)
(-0.803479 -6.12584e-10 0)
(-0.802506 7.70471e-10 0)
(-0.802163 -9.43143e-10 0)
(-0.802136 1.11724e-09 0)
(-0.802135 -1.30068e-09 0)
(-0.802135 1.48425e-09 0)
(-0.802135 -1.67652e-09 0)
(-0.802135 1.86968e-09 0)
(-0.802134 -2.07138e-09 0)
(-0.802134 2.27473e-09 0)
(-0.802134 -2.48654e-09 0)
(-0.802134 2.70066e-09 0)
(-0.802134 -2.92322e-09 0)
(-0.802134 3.14867e-09 0)
(-0.802134 -3.38259e-09 0)
(-0.802134 3.61988e-09 0)
(-0.802134 -3.86568e-09 0)
(-0.802134 4.1153e-09 0)
(-0.802134 -4.37347e-09 0)
(-0.802134 4.63584e-09 0)
(-0.802134 -4.90683e-09 0)
(-0.802134 5.1824e-09 0)
(-0.802134 -5.46661e-09 0)
(-0.802134 5.75575e-09 0)
(-0.802134 -6.05356e-09 0)
(-0.802134 6.35666e-09 0)
(-0.802134 -6.66842e-09 0)
(-0.802134 6.98581e-09 0)
(-0.802134 -7.31188e-09 0)
(-0.802134 7.64388e-09 0)
(-0.802134 -7.98456e-09 0)
(-0.802134 8.33148e-09 0)
(-0.802134 -8.68703e-09 0)
(-0.802134 9.0492e-09 0)
(-0.802134 -9.41991e-09 0)
(-0.802134 9.79757e-09 0)
(-0.802134 -1.01837e-08 0)
(-0.802134 1.05771e-08 0)
(-0.802134 -1.09789e-08 0)
(-0.802134 1.13883e-08 0)
(-0.802134 -1.1806e-08 0)
(-0.802134 1.22316e-08 0)
(-0.802134 -1.26654e-08 0)
(-0.802134 1.31072e-08 0)
(-0.802134 -1.35574e-08 0)
(-0.802134 1.40157e-08 0)
(-0.802134 -1.44823e-08 0)
(-0.802134 1.49571e-08 0)
(-0.802134 -1.54403e-08 0)
(-0.802134 1.59318e-08 0)
(-0.802134 -1.64316e-08 0)
(-0.802134 1.69398e-08 0)
(-0.802134 -1.74562e-08 0)
(-0.802134 1.79809e-08 0)
(-0.802134 -1.85138e-08 0)
(-0.802134 1.67272e-08 0)
(-0.802134 -1.68892e-08 0)
(-0.802134 1.70497e-08 0)
(-0.802134 -1.72083e-08 0)
(-0.802134 1.73652e-08 0)
(-0.802134 -1.75204e-08 0)
(-0.802134 1.76738e-08 0)
(-0.802134 -1.78254e-08 0)
(-0.802134 1.79752e-08 0)
(-0.802134 -1.81231e-08 0)
(-0.802134 1.82693e-08 0)
(-0.802134 -1.84135e-08 0)
(-0.802134 1.85559e-08 0)
(-0.802134 -1.86962e-08 0)
(-0.802134 1.88348e-08 0)
(-0.802134 -1.89712e-08 0)
(-0.802134 1.91057e-08 0)
(-0.802134 -1.92381e-08 0)
(-0.802134 1.93685e-08 0)
(-0.802134 -1.94967e-08 0)
(-0.802134 1.9623e-08 0)
(-0.802134 -1.97468e-08 0)
(-0.802134 1.98688e-08 0)
(-0.802134 -1.99881e-08 0)
(-0.802134 2.01056e-08 0)
(-0.802134 -2.02203e-08 0)
(-0.802134 2.03331e-08 0)
(-0.802134 -2.0443e-08 0)
(-0.802134 2.05509e-08 0)
(-0.802134 -2.06558e-08 0)
(-0.802134 2.07585e-08 0)
(-0.802134 -2.08581e-08 0)
(-0.802134 2.09555e-08 0)
(-0.802134 -2.10495e-08 0)
(-0.802134 2.11411e-08 0)
(-0.802134 -2.12293e-08 0)
(-0.802134 2.13148e-08 0)
(-0.802134 -2.13966e-08 0)
(-0.802134 2.14757e-08 0)
(-0.802134 -2.15506e-08 0)
(-0.802134 2.16226e-08 0)
(-0.802134 -2.16897e-08 0)
(-0.802134 2.17542e-08 0)
(-0.802134 -2.18125e-08 0)
(-0.802134 2.18682e-08 0)
(-0.802134 -2.19163e-08 0)
(-0.802134 2.19616e-08 0)
(-0.802134 -2.19966e-08 0)
(-0.802134 2.20283e-08 0)
(-0.802134 -2.20444e-08 0)
)
;

boundaryField
{
    inandouthalf11
    {
        type            cyclic;
    }
    inandouthalf12
    {
        type            cyclic;
    }
    inandouthalf21
    {
        type            cyclic;
    }
    inandouthalf22
    {
        type            cyclic;
    }
    inandouthalf31
    {
        type            cyclic;
    }
    inandouthalf32
    {
        type            cyclic;
    }
    inandouthalf41
    {
        type            cyclic;
    }
    inandouthalf42
    {
        type            cyclic;
    }
    top
    {
        type            symmetryPlane;
    }
    walls
    {
        type            fixedValue;
        value           uniform (0 0 0);
    }
    frontAndBackPlanes
    {
        type            empty;
    }
}


// ************************************************************************* //
