/*--------------------------------*- C++ -*----------------------------------*\
| =========                 |                                                 |
| \\      /  F ield         | OpenFOAM: The Open Source CFD Toolbox           |
|  \\    /   O peration     | Version:  2.4.x                                 |
|   \\  /    A nd           | Web:      www.OpenFOAM.org                      |
|    \\/     M anipulation  |                                                 |
\*---------------------------------------------------------------------------*/
FoamFile
{
    version     2.0;
    format      ascii;
    class       volScalarField;
    location    "10.25";
    object      ddt0(alpha);
}
// * * * * * * * * * * * * * * * * * * * * * * * * * * * * * * * * * * * * * //

dimensions      [0 0 -1 0 0 0 0];

internalField   nonuniform List<scalar> 
360
(
9.50434e-06
1.41088e-05
1.25752e-05
1.15715e-05
1.1464e-05
1.13312e-05
1.10469e-05
1.07579e-05
1.05238e-05
1.03482e-05
1.02153e-05
1.0112e-05
1.00361e-05
9.98451e-06
9.95767e-06
9.95491e-06
9.97384e-06
1.00115e-05
1.0066e-05
1.01378e-05
1.02212e-05
1.03194e-05
1.04288e-05
1.05485e-05
1.06773e-05
1.08136e-05
1.09557e-05
1.11054e-05
1.1259e-05
1.14158e-05
1.15752e-05
1.17392e-05
1.18997e-05
1.20676e-05
1.22303e-05
1.23951e-05
1.25567e-05
1.2719e-05
1.28818e-05
1.3035e-05
1.31937e-05
1.33461e-05
1.34913e-05
1.36405e-05
1.37815e-05
1.39203e-05
1.40555e-05
1.4179e-05
1.43035e-05
1.44286e-05
1.45392e-05
1.46503e-05
1.47529e-05
1.48539e-05
1.4943e-05
1.50356e-05
1.51127e-05
1.51902e-05
1.52575e-05
1.53133e-05
1.53747e-05
1.54212e-05
1.54695e-05
1.55061e-05
1.55374e-05
1.55591e-05
1.55767e-05
1.55863e-05
1.55864e-05
1.55757e-05
1.55667e-05
1.55528e-05
1.55223e-05
1.54944e-05
1.54571e-05
1.54176e-05
1.53636e-05
1.53022e-05
1.52341e-05
1.51595e-05
1.50758e-05
1.49882e-05
1.48962e-05
1.47991e-05
1.46973e-05
1.4589e-05
1.44746e-05
1.43518e-05
1.4221e-05
1.40835e-05
1.39397e-05
1.37907e-05
1.36382e-05
1.34824e-05
1.33234e-05
1.31611e-05
1.29952e-05
1.28255e-05
1.26519e-05
1.24749e-05
1.22953e-05
1.21136e-05
1.19307e-05
1.17472e-05
1.15636e-05
1.13804e-05
1.11979e-05
1.10167e-05
1.08372e-05
1.06601e-05
1.04861e-05
1.0316e-05
1.01507e-05
9.99128e-06
9.83841e-06
9.69255e-06
9.55344e-06
9.41964e-06
9.28797e-06
9.15298e-06
9.00654e-06
8.83783e-06
8.63426e-06
8.3836e-06
8.07745e-06
7.71565e-06
7.31017e-06
6.88681e-06
6.48384e-06
6.14873e-06
5.93539e-06
5.90355e-06
6.11727e-06
6.6284e-06
7.4099e-06
8.20892e-06
8.42408e-06
7.31118e-06
4.70161e-06
1.64296e-06
-3.77139e-07
-1.56884e-05
0.000656097
0.00123843
0.00148331
0.00204712
0.00253435
0.00361774
1.5115
0.496515
-0.250944
-0.26613
-0.219201
-0.174623
-0.140845
-0.11581
-0.0969069
-0.0822973
-0.0707614
-0.0614739
-0.0538663
-0.0475391
-0.0422061
-0.0376586
-0.0337414
-0.0303378
-0.0273579
-0.0247319
-0.0224046
-0.020332
-0.0184783
-0.0168141
-0.0153152
-0.0139613
-0.0127353
-0.0116225
-0.0106106
-0.00968875
-0.00884764
-0.00807914
-0.00737613
-0.00673233
-0.00614222
-0.00560086
-0.00510388
-0.00464737
-0.00422782
-0.00384208
-0.0034873
-0.00316088
-0.00286047
-0.00258393
-0.00232929
-0.00209475
-0.00187869
-0.00167971
-0.00149663
-0.00132859
-0.001175
-0.00103557
-0.000910169
-0.000797575
-0.000697093
-0.000608892
-0.000532573
-0.000467063
-0.000410686
-0.000361492
-0.000317756
-0.000278241
-0.000242116
-0.000208785
-0.000177769
-0.000148681
-0.000121252
-9.54293e-05
-7.14544e-05
-4.98724e-05
-3.13924e-05
-1.66079e-05
-5.73531e-06
1.50371e-06
5.76076e-06
7.84953e-06
8.51704e-06
8.3585e-06
7.76146e-06
6.99886e-06
6.1578e-06
5.39481e-06
4.60332e-06
3.99197e-06
3.30141e-06
2.89223e-06
2.20641e-06
2.25473e-06
1.10415e-06
1.07712e-06
1.17006e-06
8.62357e-07
5.98491e-07
3.87762e-07
1.9841e-07
1.18663e-07
3.38173e-08
1.9697e-08
-1.48339e-08
-3.39685e-09
-1.91945e-08
-4.95018e-09
-1.24747e-08
-1.89273e-09
-7.39867e-20
-4.84023e-31
-1.37468e-39
-6.74569e-43
-3.2375e-44
-3.09176e-48
-1.54953e-49
-1.38395e-53
-7.24359e-55
-6.82529e-59
-6.65261e-60
-1.5738e-60
-7.54457e-61
-3.60407e-61
-1.69656e-61
-7.84821e-62
-3.5656e-62
-1.59001e-62
-6.95519e-63
-2.98246e-63
-1.25288e-63
-5.1512e-64
-2.07127e-64
-8.14083e-65
-3.12498e-65
-1.17053e-65
-4.27433e-66
-1.52007e-66
-5.25895e-67
-1.76798e-67
-5.7685e-68
-1.82422e-68
-5.58337e-69
-1.65139e-69
-4.71202e-70
-1.29471e-70
-3.41886e-71
-8.65721e-72
-2.09707e-72
-4.84646e-73
-1.06541e-73
-2.22045e-74
-4.37076e-75
-8.09108e-76
-1.40169e-76
-2.25955e-77
-3.36678e-78
-4.60023e-79
-5.70886e-80
-6.35893e-81
-6.26305e-82
-5.34908e-83
-3.85778e-84
-2.26136e-85
-1.01483e-86
-3.13157e-88
-5.15999e-90
-7.45812e-93
-4.82811e-99
-3.18701e-101
-1.04135e-103
-4.16965e-114
-8.51129e-125
-1.30047e-135
-1.44682e-146
-1.3991e-157
-1.04923e-168
-6.76483e-180
-1.52764e-190
-6.73176e-201
-4.02545e-209
-1.94078e-219
-1.3844e-227
-7.89893e-238
-4.76601e-246
-3.33964e-256
-1.64315e-264
-2.14517e-274
-5.81254e-283
-1.42456e-292
-2.13563e-301
-7.06923e-311
-2.35373e-320
0
0
0
0
0
0
0
0
0
0
0
0
0
0
0
0
0
0
0
0
0
0
0
0
0
)
;

boundaryField
{
    inandouthalf11
    {
        type            cyclic;
    }
    inandouthalf12
    {
        type            cyclic;
    }
    inandouthalf21
    {
        type            cyclic;
    }
    inandouthalf22
    {
        type            cyclic;
    }
    inandouthalf31
    {
        type            cyclic;
    }
    inandouthalf32
    {
        type            cyclic;
    }
    inandouthalf41
    {
        type            cyclic;
    }
    inandouthalf42
    {
        type            cyclic;
    }
    top
    {
        type            symmetryPlane;
    }
    walls
    {
        type            calculated;
        value           uniform 9.50434e-06;
    }
    frontAndBackPlanes
    {
        type            empty;
    }
}


// ************************************************************************* //
