/*--------------------------------*- C++ -*----------------------------------*\
| =========                 |                                                 |
| \\      /  F ield         | OpenFOAM: The Open Source CFD Toolbox           |
|  \\    /   O peration     | Version:  2.4.x                                 |
|   \\  /    A nd           | Web:      www.OpenFOAM.org                      |
|    \\/     M anipulation  |                                                 |
\*---------------------------------------------------------------------------*/
FoamFile
{
    version     2.0;
    format      ascii;
    class       volScalarField;
    location    "10.25";
    object      ddt0(((1.5*(alpha+1e-08))*rho),Theta);
}
// * * * * * * * * * * * * * * * * * * * * * * * * * * * * * * * * * * * * * //

dimensions      [1 -1 -3 0 0 0 0];

internalField   nonuniform List<scalar> 
360
(
-5.48757e-23
-1.66403e-22
-9.54291e-23
-7.56107e-23
-7.70012e-23
-7.85153e-23
-7.90868e-23
-8.12e-23
-8.52353e-23
-9.07201e-23
-9.71933e-23
-1.04292e-22
-1.11801e-22
-1.19617e-22
-1.27702e-22
-1.36039e-22
-1.44584e-22
-1.53286e-22
-1.62135e-22
-1.71115e-22
-1.80198e-22
-1.89409e-22
-1.98751e-22
-2.08198e-22
-2.1774e-22
-2.27351e-22
-2.37038e-22
-2.46825e-22
-2.5666e-22
-2.66499e-22
-2.76378e-22
-2.86258e-22
-2.96118e-22
-3.06e-22
-3.15815e-22
-3.25509e-22
-3.35128e-22
-3.44725e-22
-3.54175e-22
-3.63409e-22
-3.72572e-22
-3.81505e-22
-3.90153e-22
-3.98687e-22
-4.07005e-22
-4.15052e-22
-4.22702e-22
-4.29887e-22
-4.36938e-22
-4.43781e-22
-4.5008e-22
-4.55955e-22
-4.61505e-22
-4.66595e-22
-4.7125e-22
-4.75499e-22
-4.79232e-22
-4.82453e-22
-4.85026e-22
-4.87044e-22
-4.88745e-22
-4.89998e-22
-4.90767e-22
-4.9099e-22
-4.90561e-22
-4.89563e-22
-4.88087e-22
-4.86025e-22
-4.83186e-22
-4.79799e-22
-4.76218e-22
-4.72162e-22
-4.67418e-22
-4.62318e-22
-4.56955e-22
-4.51104e-22
-4.44587e-22
-4.37506e-22
-4.3004e-22
-4.22158e-22
-4.1387e-22
-4.05329e-22
-3.96614e-22
-3.87705e-22
-3.78595e-22
-3.6927e-22
-3.59695e-22
-3.49829e-22
-3.39695e-22
-3.29358e-22
-3.18875e-22
-3.08313e-22
-2.97748e-22
-2.87221e-22
-2.76743e-22
-2.66321e-22
-2.55957e-22
-2.45656e-22
-2.35437e-22
-2.25332e-22
-2.15376e-22
-2.05601e-22
-1.96036e-22
-1.86695e-22
-1.77575e-22
-1.68662e-22
-1.59925e-22
-1.51322e-22
-1.42802e-22
-1.34311e-22
-1.25797e-22
-1.17222e-22
-1.08571e-22
-9.98634e-23
-9.11641e-23
-8.25878e-23
-7.42991e-23
-6.65024e-23
-5.94195e-23
-5.32496e-23
-4.811e-23
-4.396e-23
-4.0524e-23
-3.72519e-23
-3.33669e-23
-7.77799e-23
-6.79839e-17
-2.94311e-16
-1.12527e-15
-4.01805e-15
-1.36138e-14
-4.42457e-14
-1.39122e-13
-4.26486e-13
-1.2848e-12
-3.83537e-12
-1.14654e-11
-3.49468e-11
-1.12205e-10
-4.00357e-10
-1.70052e-09
-9.07713e-09
-6.81072e-08
-5.90839e-07
-5.98875e-06
-7.88521e-05
-0.0016213
-0.049424
-1.11176
-3.80452
-2.33381
-1.35059
-0.926684
-0.704672
-0.567239
-0.472312
-0.402109
-0.347833
-0.304486
-0.269039
-0.239497
-0.214481
-0.193021
-0.174402
-0.158097
-0.143693
-0.130879
-0.119405
-0.109077
-0.0997364
-0.0912576
-0.0835341
-0.0764799
-0.0700244
-0.0641051
-0.05867
-0.0536744
-0.0490801
-0.0448523
-0.0409611
-0.0373791
-0.0340824
-0.0310486
-0.0282573
-0.0256924
-0.0233349
-0.02117
-0.0191835
-0.0173618
-0.0156927
-0.0141645
-0.0127666
-0.0114887
-0.0103216
-0.00925654
-0.00828536
-0.00740067
-0.00659573
-0.00586445
-0.0052014
-0.00460176
-0.00405585
-0.00355678
-0.00310352
-0.00269472
-0.00232861
-0.00200293
-0.00171498
-0.00146174
-0.00124002
-0.00104662
-0.000878519
-0.000732873
-0.000607097
-0.000498876
-0.000406188
-0.000327312
-0.000260798
-0.000205399
-0.000159961
-0.000123332
-9.43065e-05
-7.1655e-05
-5.41854e-05
-4.08251e-05
-3.06482e-05
-2.29302e-05
-1.70471e-05
-1.26209e-05
-9.20675e-06
-6.6944e-06
-4.70559e-06
-3.31441e-06
-2.15107e-06
-1.40342e-06
-7.13566e-07
0
0
0
0
0
0
0
0
0
0
0
0
0
0
0
0
0
0
0
0
0
0
0
0
0
0
0
0
0
0
0
0
0
0
0
0
0
0
0
0
0
0
0
0
0
0
0
0
0
0
0
0
0
0
0
0
0
0
0
0
0
0
0
0
0
0
0
0
0
0
0
0
0
0
0
0
0
0
0
0
0
0
0
0
0
0
0
0
0
0
0
0
0
0
0
0
0
0
0
0
0
0
0
0
0
0
0
0
0
0
0
0
0
0
0
0
0
0
0
0
0
0
0
0
)
;

boundaryField
{
    inandouthalf11
    {
        type            cyclic;
    }
    inandouthalf12
    {
        type            cyclic;
    }
    inandouthalf21
    {
        type            cyclic;
    }
    inandouthalf22
    {
        type            cyclic;
    }
    inandouthalf31
    {
        type            cyclic;
    }
    inandouthalf32
    {
        type            cyclic;
    }
    inandouthalf41
    {
        type            cyclic;
    }
    inandouthalf42
    {
        type            cyclic;
    }
    top
    {
        type            symmetryPlane;
    }
    walls
    {
        type            calculated;
        value           uniform -5.48757e-23;
    }
    frontAndBackPlanes
    {
        type            empty;
    }
}


// ************************************************************************* //
