/*--------------------------------*- C++ -*----------------------------------*\
| =========                 |                                                 |
| \\      /  F ield         | OpenFOAM: The Open Source CFD Toolbox           |
|  \\    /   O peration     | Version:  2.4.x                                 |
|   \\  /    A nd           | Web:      www.OpenFOAM.org                      |
|    \\/     M anipulation  |                                                 |
\*---------------------------------------------------------------------------*/
FoamFile
{
    version     2.0;
    format      ascii;
    class       volScalarField;
    location    "10.25";
    object      k_0;
}
// * * * * * * * * * * * * * * * * * * * * * * * * * * * * * * * * * * * * * //

dimensions      [0 2 -2 0 0 0 0];

internalField   nonuniform List<scalar> 
360
(
1e-20
1e-20
1e-20
1e-20
1e-20
1e-20
1e-20
1e-20
1e-20
1e-20
1e-20
1e-20
1e-20
1e-20
1e-20
1e-20
1e-20
1e-20
1e-20
1e-20
1e-20
1e-20
1e-20
1e-20
1e-20
1e-20
1e-20
1e-20
1e-20
1e-20
1e-20
1e-20
1e-20
1e-20
1e-20
1e-20
1e-20
1e-20
1e-20
1e-20
1e-20
1e-20
1e-20
1e-20
1e-20
1e-20
1e-20
1e-20
1e-20
1e-20
1e-20
1e-20
1e-20
1e-20
1e-20
1e-20
1e-20
1e-20
1e-20
1e-20
1e-20
1e-20
1e-20
1e-20
1e-20
1e-20
1e-20
1e-20
1e-20
1e-20
1e-20
1e-20
1e-20
1e-20
1e-20
1e-20
1e-20
1e-20
1e-20
1e-20
1e-20
1e-20
1e-20
1e-20
1e-20
1e-20
1e-20
1e-20
1e-20
1e-20
1e-20
1e-20
1e-20
1e-20
1e-20
1e-20
1e-20
1e-20
1e-20
1e-20
1e-20
1e-20
1e-20
1e-20
1e-20
1e-20
1e-20
1e-20
1e-20
1e-20
1e-20
1e-20
1e-20
1e-20
1e-20
1e-20
1e-20
1e-20
1e-20
1e-20
1e-20
1e-20
1e-20
1e-20
1e-20
1e-20
2.0819e-20
6.52459e-20
2.04438e-19
6.21235e-19
1.83156e-18
5.2524e-18
1.46952e-17
4.02742e-17
1.08707e-16
2.90914e-16
7.79755e-16
2.13694e-15
6.23165e-15
2.05513e-14
8.18739e-14
4.15646e-13
3.05647e-12
2.53005e-11
2.36125e-10
2.87141e-09
4.48486e-08
8.99105e-07
2.25543e-05
0.00046378
0.00170978
0.00271094
0.00349748
0.00414203
0.00468919
0.00516386
0.00558177
0.00595357
0.00628687
0.00658729
0.00685915
0.00710585
0.00733008
0.00753405
0.00771961
0.0078883
0.00804141
0.00818009
0.00830531
0.00841793
0.0085187
0.00860832
0.00868737
0.00875641
0.00881593
0.00886639
0.0089082
0.00894173
0.00896734
0.00898535
0.00899608
0.0089998
0.00899678
0.00898728
0.00897152
0.00894974
0.00892215
0.00888895
0.00885034
0.00880651
0.00875764
0.00870391
0.00864548
0.00858251
0.00851518
0.00844364
0.00836803
0.00828852
0.00820525
0.00811836
0.008028
0.00793336
0.00783344
0.00772813
0.00761734
0.00750097
0.00737892
0.00725111
0.00711744
0.00697787
0.00683232
0.00668075
0.00652316
0.00635955
0.00618994
0.00601441
0.00583305
0.00564601
0.00545348
0.00525569
0.00505296
0.00484566
0.00463425
0.00441928
0.00420139
0.00398136
0.0037601
0.00353862
0.00331811
0.0030999
0.00288544
0.00267631
0.00247418
0.00228075
0.00209769
0.00192653
0.00176854
0.00162468
0.00149546
0.00138088
0.00128047
0.00119329
0.0011181
0.00105345
0.00099781
0.000949678
0.000907639
0.000870409
0.000836849
0.000805964
0.000776895
0.000748902
0.000721355
0.000693724
0.000665562
0.000636503
0.000606257
0.000574601
0.000541379
0.0005065
0.000469939
0.000431735
0.000391994
0.000350895
0.000308693
0.000265728
0.000222438
0.000179374
0.000137237
9.69308e-05
5.96599e-05
2.71475e-05
5.10375e-06
1.84914e-07
2.17613e-09
2.23998e-11
2.18595e-13
2.02639e-15
1.78622e-17
1.56608e-19
1.02523e-20
1e-20
1e-20
1e-20
1e-20
1e-20
1e-20
1e-20
1e-20
1e-20
1e-20
1e-20
1e-20
1e-20
1e-20
1e-20
1e-20
1e-20
1e-20
1e-20
1e-20
1e-20
1e-20
1e-20
1e-20
1e-20
1e-20
1e-20
1e-20
1e-20
1e-20
1e-20
1e-20
1e-20
1e-20
1e-20
1e-20
1e-20
1e-20
1e-20
1e-20
1e-20
1e-20
1e-20
1e-20
1e-20
1e-20
1e-20
1e-20
1e-20
1e-20
1e-20
1e-20
1e-20
1e-20
1e-20
1e-20
1e-20
1e-20
1e-20
1e-20
1e-20
1e-20
1e-20
1e-20
1e-20
1e-20
1e-20
1e-20
1e-20
1e-20
1e-20
1e-20
1e-20
1e-20
1e-20
1e-20
1e-20
1e-20
1e-20
)
;

boundaryField
{
    inandouthalf11
    {
        type            cyclic;
    }
    inandouthalf12
    {
        type            cyclic;
    }
    inandouthalf21
    {
        type            cyclic;
    }
    inandouthalf22
    {
        type            cyclic;
    }
    inandouthalf31
    {
        type            cyclic;
    }
    inandouthalf32
    {
        type            cyclic;
    }
    inandouthalf41
    {
        type            cyclic;
    }
    inandouthalf42
    {
        type            cyclic;
    }
    top
    {
        type            symmetryPlane;
    }
    walls
    {
        type            zeroGradient;
    }
    frontAndBackPlanes
    {
        type            empty;
    }
}


// ************************************************************************* //
