/*--------------------------------*- C++ -*----------------------------------*\
| =========                 |                                                 |
| \\      /  F ield         | OpenFOAM: The Open Source CFD Toolbox           |
|  \\    /   O peration     | Version:  2.4.x                                 |
|   \\  /    A nd           | Web:      www.OpenFOAM.org                      |
|    \\/     M anipulation  |                                                 |
\*---------------------------------------------------------------------------*/
FoamFile
{
    version     2.0;
    format      ascii;
    class       volScalarField;
    location    "10.25";
    object      nutb;
}
// * * * * * * * * * * * * * * * * * * * * * * * * * * * * * * * * * * * * * //

dimensions      [0 2 -1 0 0 0 0];

internalField   nonuniform List<scalar> 
360
(
9e-22
9e-22
9e-22
9e-22
9e-22
9e-22
9e-22
9e-22
9e-22
9e-22
9e-22
9e-22
9e-22
9e-22
9e-22
9e-22
9e-22
9e-22
9e-22
9e-22
9e-22
9e-22
9e-22
9e-22
9e-22
9e-22
9e-22
9e-22
9e-22
9e-22
9e-22
9e-22
9e-22
9e-22
9e-22
9e-22
9e-22
9e-22
9e-22
9e-22
9e-22
9e-22
9e-22
9e-22
9e-22
9e-22
9e-22
9e-22
9e-22
9e-22
9e-22
9e-22
9e-22
9e-22
9e-22
9e-22
9e-22
9e-22
9e-22
9e-22
9e-22
9e-22
9e-22
9e-22
9e-22
9e-22
9e-22
9e-22
9e-22
9e-22
9e-22
9e-22
9e-22
9e-22
9e-22
9e-22
9e-22
9e-22
9e-22
9e-22
9e-22
9e-22
9e-22
9e-22
9e-22
9e-22
9e-22
9e-22
9e-22
9e-22
9e-22
9e-22
9e-22
9e-22
9e-22
9e-22
9e-22
9e-22
9e-22
9e-22
9e-22
9e-22
9e-22
9e-22
9e-22
9e-22
9e-22
9e-22
9e-22
9e-22
9e-22
9e-22
9e-22
9e-22
9e-22
9e-22
9e-22
9e-22
9e-22
9e-22
9e-22
9e-22
9e-22
9e-22
9e-22
9e-22
2.16697e-21
6.69329e-21
2.03079e-20
5.94825e-20
1.68245e-19
4.60206e-19
1.21932e-18
3.13723e-18
7.86664e-18
1.92876e-17
4.64437e-17
1.11358e-16
2.75324e-16
7.45653e-16
2.37237e-15
9.45911e-15
6.00184e-14
4.16624e-13
3.04976e-12
2.92691e-11
3.60167e-10
5.69377e-09
1.15374e-07
2.4549e-06
1.18511e-05
2.39116e-05
3.59438e-05
4.757e-05
5.87548e-05
6.95176e-05
7.9883e-05
8.98725e-05
9.9504e-05
0.000108793
0.000117753
0.000126396
0.000134732
0.000142771
0.000150523
0.000157994
0.000165193
0.000172126
0.000178799
0.000185219
0.000191389
0.000197316
0.000203003
0.000208456
0.000213677
0.000218671
0.00022344
0.00022799
0.000232322
0.00023644
0.000240346
0.000244044
0.000247537
0.000250826
0.000253916
0.000256807
0.000259504
0.000262007
0.000264321
0.000266447
0.000268388
0.000270147
0.000271725
0.000273126
0.000274351
0.000275404
0.000276288
0.000277003
0.000277554
0.000277943
0.000278172
0.000278245
0.000278157
0.000277899
0.000277466
0.000276848
0.000276039
0.000275029
0.000273812
0.000272379
0.000270723
0.000268837
0.000266716
0.000264352
0.000261741
0.00025888
0.000255765
0.000252395
0.000248771
0.000244893
0.000240767
0.000236397
0.000231795
0.000226973
0.000221949
0.000216748
0.000211399
0.00020594
0.000200417
0.000194888
0.000189419
0.000184088
0.000178982
0.0001742
0.000169842
0.000166011
0.000162797
0.00016027
0.000158473
0.000157401
0.000157001
0.000157167
0.000157754
0.000158592
0.000159503
0.00016032
0.0001609
0.000161131
0.000160933
0.000160257
0.000159075
0.000157378
0.000155165
0.000152442
0.000149215
0.00014549
0.00014127
0.000136556
0.000131344
0.00012563
0.000119408
0.000112671
0.000105409
9.76163e-05
8.92855e-05
8.04114e-05
7.09904e-05
6.10217e-05
5.05063e-05
3.94459e-05
2.7827e-05
1.55896e-05
3.82657e-06
1.65695e-07
1.98375e-09
2.03988e-11
1.98891e-13
1.84296e-15
1.61835e-17
9.59063e-20
9.46494e-22
9e-22
9e-22
9e-22
9e-22
9e-22
9e-22
9e-22
9e-22
9e-22
9e-22
9e-22
9e-22
9e-22
9e-22
9e-22
9e-22
9e-22
9e-22
9e-22
9e-22
9e-22
9e-22
9e-22
9e-22
9e-22
9e-22
9e-22
9e-22
9e-22
9e-22
9e-22
9e-22
9e-22
9e-22
9e-22
9e-22
9e-22
9e-22
9e-22
9e-22
9e-22
9e-22
9e-22
9e-22
9e-22
9e-22
9e-22
9e-22
9e-22
9e-22
9e-22
9e-22
9e-22
9e-22
9e-22
9e-22
9e-22
9e-22
9e-22
9e-22
9e-22
9e-22
9e-22
9e-22
9e-22
9e-22
9e-22
9e-22
9e-22
9e-22
9e-22
9e-22
9e-22
9e-22
9e-22
9e-22
9e-22
9e-22
9e-22
)
;

boundaryField
{
    inandouthalf11
    {
        type            cyclic;
    }
    inandouthalf12
    {
        type            cyclic;
    }
    inandouthalf21
    {
        type            cyclic;
    }
    inandouthalf22
    {
        type            cyclic;
    }
    inandouthalf31
    {
        type            cyclic;
    }
    inandouthalf32
    {
        type            cyclic;
    }
    inandouthalf41
    {
        type            cyclic;
    }
    inandouthalf42
    {
        type            cyclic;
    }
    top
    {
        type            symmetryPlane;
    }
    walls
    {
        type            calculated;
        value           uniform 0;
    }
    frontAndBackPlanes
    {
        type            empty;
    }
}


// ************************************************************************* //
