/*--------------------------------*- C++ -*----------------------------------*\
| =========                 |                                                 |
| \\      /  F ield         | OpenFOAM: The Open Source CFD Toolbox           |
|  \\    /   O peration     | Version:  2.4.x                                 |
|   \\  /    A nd           | Web:      www.OpenFOAM.org                      |
|    \\/     M anipulation  |                                                 |
\*---------------------------------------------------------------------------*/
FoamFile
{
    version     2.0;
    format      ascii;
    class       surfaceScalarField;
    location    "10.25";
    object      phia;
}
// * * * * * * * * * * * * * * * * * * * * * * * * * * * * * * * * * * * * * //

dimensions      [0 3 -1 0 0 0 0];

internalField   nonuniform List<scalar> 
359
(
-3.10375e-14
-7.71742e-14
-1.18297e-13
-1.56124e-13
-1.93607e-13
-2.30655e-13
-2.66777e-13
-3.01958e-13
-3.36375e-13
-3.70221e-13
-4.03634e-13
-4.36711e-13
-4.69542e-13
-5.02206e-13
-5.34785e-13
-5.67356e-13
-5.99992e-13
-6.32753e-13
-6.65695e-13
-6.98874e-13
-7.32328e-13
-7.66106e-13
-8.00245e-13
-8.34778e-13
-8.69735e-13
-9.05141e-13
-9.41016e-13
-9.77383e-13
-1.01426e-12
-1.05165e-12
-1.08956e-12
-1.12802e-12
-1.167e-12
-1.20654e-12
-1.24662e-12
-1.28723e-12
-1.32839e-12
-1.37007e-12
-1.4123e-12
-1.45503e-12
-1.49829e-12
-1.54205e-12
-1.58629e-12
-1.63102e-12
-1.67623e-12
-1.72189e-12
-1.768e-12
-1.81452e-12
-1.86146e-12
-1.90881e-12
-1.95653e-12
-2.00463e-12
-2.05306e-12
-2.10183e-12
-2.15091e-12
-2.20029e-12
-2.24993e-12
-2.29984e-12
-2.34997e-12
-2.4003e-12
-2.45083e-12
-2.50153e-12
-2.55239e-12
-2.60339e-12
-2.65449e-12
-2.70568e-12
-2.75693e-12
-2.80823e-12
-2.85953e-12
-2.91081e-12
-2.96207e-12
-3.0133e-12
-3.06444e-12
-3.1155e-12
-3.16644e-12
-3.21727e-12
-3.26794e-12
-3.31841e-12
-3.36868e-12
-3.41871e-12
-3.46849e-12
-3.51798e-12
-3.5672e-12
-3.6161e-12
-3.66469e-12
-3.71293e-12
-3.76082e-12
-3.80832e-12
-3.8554e-12
-3.90205e-12
-3.94824e-12
-3.99396e-12
-4.0392e-12
-4.08394e-12
-4.12818e-12
-4.17191e-12
-4.21511e-12
-4.25777e-12
-4.29988e-12
-4.34143e-12
-4.38241e-12
-4.42281e-12
-4.46264e-12
-4.50189e-12
-4.54055e-12
-4.57864e-12
-4.61616e-12
-4.6531e-12
-4.68948e-12
-4.72531e-12
-4.76059e-12
-4.79534e-12
-4.82958e-12
-4.86333e-12
-4.89661e-12
-4.92944e-12
-4.96185e-12
-4.99386e-12
-5.02547e-12
-5.05668e-12
-5.08746e-12
-5.11772e-12
-5.14736e-12
-5.17622e-12
-5.20412e-12
-5.23089e-12
-5.25638e-12
-5.28053e-12
-5.30342e-12
-5.32528e-12
-5.34651e-12
-5.36771e-12
-5.38972e-12
-5.41354e-12
-5.44008e-12
-5.4694e-12
-5.49958e-12
-5.52629e-12
-5.54467e-12
-5.55322e-12
-5.55542e-12
-5.55533e-12
-7.73094e-12
-1.18891e-11
-1.68675e-11
-2.37753e-11
-3.23766e-11
-4.61318e-11
-1.00654e-08
-2.51547e-08
-3.86945e-08
-4.88287e-08
-5.57483e-08
-6.0071e-08
-6.28323e-08
-6.45761e-08
-6.56127e-08
-6.61383e-08
-6.62826e-08
-6.61345e-08
-6.57571e-08
-6.51966e-08
-6.44878e-08
-6.36578e-08
-6.2728e-08
-6.17154e-08
-6.06338e-08
-5.94946e-08
-5.83073e-08
-5.70798e-08
-5.58185e-08
-5.45292e-08
-5.32164e-08
-5.18842e-08
-5.05361e-08
-4.91749e-08
-4.78034e-08
-4.64237e-08
-4.50378e-08
-4.36477e-08
-4.2255e-08
-4.08612e-08
-3.9468e-08
-3.80769e-08
-3.66894e-08
-3.53072e-08
-3.3932e-08
-3.25656e-08
-3.12103e-08
-2.98685e-08
-2.85429e-08
-2.72368e-08
-2.59541e-08
-2.46991e-08
-2.34771e-08
-2.22936e-08
-2.11546e-08
-2.00656e-08
-1.9031e-08
-1.80533e-08
-1.71316e-08
-1.62442e-08
-1.53839e-08
-1.45383e-08
-1.369e-08
-1.28194e-08
-1.19077e-08
-1.09409e-08
-9.91082e-09
-8.81505e-09
-7.65563e-09
-6.43889e-09
-5.17563e-09
-3.88172e-09
-2.57859e-09
-1.29297e-09
-5.53013e-11
1.10325e-09
2.15509e-09
3.08031e-09
3.86938e-09
4.52313e-09
5.05097e-09
5.467e-09
5.78803e-09
6.02814e-09
6.20434e-09
6.31961e-09
6.39558e-09
6.41164e-09
6.40972e-09
6.32275e-09
6.24642e-09
6.00624e-09
5.8859e-09
4.95221e-09
3.66742e-09
4.36568e-09
4.22257e-09
3.79512e-09
3.09389e-09
2.09284e-09
1.15304e-09
-1.19742e-10
-1.02456e-09
-2.38164e-09
-2.92526e-09
-4.30968e-09
-4.55573e-09
-5.47035e-09
-8.1221e-09
-1.03871e-07
-1.57145e-07
-1.58117e-07
-1.57996e-07
-1.58007e-07
-1.58011e-07
-1.58014e-07
-1.58018e-07
-1.58021e-07
-1.58023e-07
-1.58025e-07
-1.58026e-07
-1.58026e-07
-1.58024e-07
-1.58021e-07
-1.58016e-07
-1.58008e-07
-1.57999e-07
-1.57986e-07
-1.57968e-07
-1.57935e-07
-1.57889e-07
-1.57879e-07
-1.57879e-07
-1.57879e-07
-1.57879e-07
-1.57879e-07
-1.57879e-07
-1.57879e-07
-1.57879e-07
-1.57879e-07
-1.57879e-07
-1.57879e-07
-1.57879e-07
-1.57879e-07
-1.57879e-07
-1.57879e-07
-1.57879e-07
-1.57879e-07
-1.57879e-07
-1.57879e-07
-1.57879e-07
-1.57879e-07
-1.57879e-07
-1.57879e-07
-1.57879e-07
-1.57879e-07
-1.57879e-07
-1.57879e-07
-1.57879e-07
-1.57879e-07
-1.57879e-07
-1.57879e-07
-1.57879e-07
-1.57879e-07
-1.57879e-07
-1.57879e-07
-1.57879e-07
-1.57879e-07
-1.57879e-07
-1.57879e-07
-1.57879e-07
-1.57879e-07
-1.57879e-07
-1.57879e-07
-1.57879e-07
-1.57879e-07
-1.57879e-07
-1.57879e-07
-1.57879e-07
-1.57879e-07
-1.57879e-07
-1.57879e-07
-1.57879e-07
-1.57879e-07
-1.57879e-07
-1.57879e-07
-1.57879e-07
-1.57879e-07
-1.57879e-07
-1.57879e-07
-1.57879e-07
-1.57879e-07
-1.57879e-07
-1.57879e-07
-1.57879e-07
-1.57879e-07
-1.57879e-07
-1.57879e-07
-1.57879e-07
-1.57879e-07
-1.57879e-07
-1.57879e-07
-1.57879e-07
-1.57879e-07
-1.57879e-07
-1.57879e-07
-1.57879e-07
-1.57879e-07
-1.57879e-07
-1.57879e-07
-1.57879e-07
-1.57879e-07
-1.57879e-07
-1.57879e-07
-1.57862e-07
-1.57152e-07
-1.3211e-07
)
;

boundaryField
{
    inandouthalf11
    {
        type            cyclic;
        value           nonuniform List<scalar> 
100
(
7.50116e-39
1.43427e-15
2.89379e-15
4.12708e-15
5.31467e-15
6.48724e-15
7.61797e-15
8.69919e-15
9.73682e-15
1.07379e-14
1.17077e-14
1.26505e-14
1.35692e-14
1.44667e-14
1.53454e-14
1.62078e-14
1.7056e-14
1.78918e-14
1.87166e-14
1.95318e-14
2.03384e-14
2.11373e-14
2.19292e-14
2.27147e-14
2.34942e-14
2.42678e-14
2.50357e-14
2.5798e-14
2.65545e-14
2.73049e-14
2.80491e-14
2.87867e-14
2.95171e-14
3.024e-14
3.09548e-14
3.16609e-14
3.23577e-14
3.30444e-14
3.37206e-14
3.43853e-14
3.5038e-14
3.56779e-14
3.63041e-14
3.6916e-14
3.75128e-14
3.80939e-14
3.86583e-14
3.92053e-14
3.9734e-14
4.0244e-14
4.07345e-14
4.12045e-14
4.16535e-14
4.20808e-14
4.24856e-14
4.28674e-14
4.32254e-14
4.35591e-14
4.38677e-14
4.41507e-14
4.44076e-14
4.46377e-14
4.48407e-14
4.50161e-14
4.51632e-14
4.52818e-14
4.53713e-14
4.54315e-14
4.54618e-14
4.54621e-14
4.54321e-14
4.53714e-14
4.52799e-14
4.51574e-14
4.50036e-14
4.48185e-14
4.46018e-14
4.43536e-14
4.40739e-14
4.37627e-14
4.34199e-14
4.30458e-14
4.26403e-14
4.22035e-14
4.17356e-14
4.12365e-14
4.07066e-14
4.01459e-14
3.9555e-14
3.89341e-14
3.82836e-14
3.76038e-14
3.68951e-14
3.61577e-14
3.53918e-14
3.45978e-14
3.3776e-14
3.29265e-14
3.20497e-14
3.1146e-14
)
;
    }
    inandouthalf12
    {
        type            cyclic;
        value           nonuniform List<scalar> 
100
(
-7.50116e-39
-1.43427e-15
-2.89379e-15
-4.12708e-15
-5.31467e-15
-6.48724e-15
-7.61797e-15
-8.69919e-15
-9.73682e-15
-1.07379e-14
-1.17077e-14
-1.26505e-14
-1.35692e-14
-1.44667e-14
-1.53454e-14
-1.62078e-14
-1.7056e-14
-1.78918e-14
-1.87166e-14
-1.95318e-14
-2.03384e-14
-2.11373e-14
-2.19292e-14
-2.27147e-14
-2.34942e-14
-2.42678e-14
-2.50357e-14
-2.5798e-14
-2.65545e-14
-2.73049e-14
-2.80491e-14
-2.87867e-14
-2.95171e-14
-3.024e-14
-3.09548e-14
-3.16609e-14
-3.23577e-14
-3.30444e-14
-3.37206e-14
-3.43853e-14
-3.5038e-14
-3.56779e-14
-3.63041e-14
-3.6916e-14
-3.75128e-14
-3.80939e-14
-3.86583e-14
-3.92053e-14
-3.9734e-14
-4.0244e-14
-4.07345e-14
-4.12045e-14
-4.16535e-14
-4.20808e-14
-4.24856e-14
-4.28674e-14
-4.32254e-14
-4.35591e-14
-4.38677e-14
-4.41507e-14
-4.44076e-14
-4.46377e-14
-4.48407e-14
-4.50161e-14
-4.51632e-14
-4.52818e-14
-4.53713e-14
-4.54315e-14
-4.54618e-14
-4.54621e-14
-4.54321e-14
-4.53714e-14
-4.52799e-14
-4.51574e-14
-4.50036e-14
-4.48185e-14
-4.46018e-14
-4.43536e-14
-4.40739e-14
-4.37627e-14
-4.34199e-14
-4.30458e-14
-4.26403e-14
-4.22035e-14
-4.17356e-14
-4.12365e-14
-4.07066e-14
-4.01459e-14
-3.9555e-14
-3.89341e-14
-3.82836e-14
-3.76038e-14
-3.68951e-14
-3.61577e-14
-3.53918e-14
-3.45978e-14
-3.3776e-14
-3.29265e-14
-3.20497e-14
-3.1146e-14
)
;
    }
    inandouthalf21
    {
        type            cyclic;
        value           nonuniform List<scalar> 
100
(
3.02156e-14
2.92587e-14
2.82753e-14
2.72657e-14
2.62295e-14
2.51668e-14
2.40772e-14
2.29603e-14
2.18156e-14
2.06423e-14
1.94396e-14
1.8206e-14
1.69403e-14
1.56404e-14
1.43042e-14
1.2929e-14
1.15115e-14
1.00486e-14
8.53647e-15
6.97206e-15
5.35288e-15
3.67807e-15
1.9492e-15
1.71068e-16
-1.64799e-15
-3.49669e-15
-5.3628e-15
-7.23657e-15
-9.11529e-15
-1.10085e-14
-1.29437e-14
-1.49732e-14
-1.71841e-14
-1.97077e-14
-2.27191e-14
-2.63882e-14
-3.07302e-14
-3.53574e-14
-3.93638e-14
-4.17785e-14
-4.25459e-14
-4.26317e-14
-4.26273e-14
3.41855e-13
9.351e-13
1.63224e-12
2.49057e-12
3.5814e-12
5.00075e-12
-1.50076e-08
-4.68272e-08
-7.00412e-08
-8.8151e-08
-1.03506e-07
-1.17159e-07
-1.29639e-07
-1.41247e-07
-1.52168e-07
-1.62532e-07
-1.72427e-07
-1.81921e-07
-1.91065e-07
-1.99901e-07
-2.08461e-07
-2.16773e-07
-2.24858e-07
-2.32737e-07
-2.40425e-07
-2.47936e-07
-2.55282e-07
-2.62475e-07
-2.69523e-07
-2.76435e-07
-2.83219e-07
-2.89881e-07
-2.96427e-07
-3.02862e-07
-3.09191e-07
-3.15418e-07
-3.21547e-07
-3.27581e-07
-3.33522e-07
-3.39373e-07
-3.45136e-07
-3.50812e-07
-3.56401e-07
-3.61905e-07
-3.67323e-07
-3.72655e-07
-3.779e-07
-3.83058e-07
-3.88126e-07
-3.93103e-07
-3.97987e-07
-4.02775e-07
-4.07465e-07
-4.12054e-07
-4.16538e-07
-4.20914e-07
-4.25179e-07
)
;
    }
    inandouthalf22
    {
        type            cyclic;
        value           nonuniform List<scalar> 
100
(
-3.02156e-14
-2.92587e-14
-2.82753e-14
-2.72657e-14
-2.62295e-14
-2.51668e-14
-2.40772e-14
-2.29603e-14
-2.18156e-14
-2.06423e-14
-1.94396e-14
-1.8206e-14
-1.69403e-14
-1.56404e-14
-1.43042e-14
-1.2929e-14
-1.15115e-14
-1.00486e-14
-8.53647e-15
-6.97206e-15
-5.35288e-15
-3.67807e-15
-1.9492e-15
-1.71068e-16
1.64799e-15
3.49669e-15
5.3628e-15
7.23657e-15
9.11529e-15
1.10085e-14
1.29437e-14
1.49732e-14
1.71841e-14
1.97077e-14
2.27191e-14
2.63882e-14
3.07302e-14
3.53574e-14
3.93638e-14
4.17785e-14
4.25459e-14
4.26317e-14
4.26273e-14
-3.41855e-13
-9.351e-13
-1.63224e-12
-2.49057e-12
-3.5814e-12
-5.00075e-12
1.50076e-08
4.68272e-08
7.00412e-08
8.8151e-08
1.03506e-07
1.17159e-07
1.29639e-07
1.41247e-07
1.52168e-07
1.62532e-07
1.72427e-07
1.81921e-07
1.91065e-07
1.99901e-07
2.08461e-07
2.16773e-07
2.24858e-07
2.32737e-07
2.40425e-07
2.47936e-07
2.55282e-07
2.62475e-07
2.69523e-07
2.76435e-07
2.83219e-07
2.89881e-07
2.96427e-07
3.02862e-07
3.09191e-07
3.15418e-07
3.21547e-07
3.27581e-07
3.33522e-07
3.39373e-07
3.45136e-07
3.50812e-07
3.56401e-07
3.61905e-07
3.67323e-07
3.72655e-07
3.779e-07
3.83058e-07
3.88126e-07
3.93103e-07
3.97987e-07
4.02775e-07
4.07465e-07
4.12054e-07
4.16538e-07
4.20914e-07
4.25179e-07
)
;
    }
    inandouthalf31
    {
        type            cyclic;
        value           nonuniform List<scalar> 
110
(
-4.29332e-07
-4.42204e-07
-4.5538e-07
-4.68861e-07
-4.8265e-07
-4.96747e-07
-5.11151e-07
-5.25865e-07
-5.40886e-07
-5.56213e-07
-5.71844e-07
-5.87776e-07
-6.04003e-07
-6.20522e-07
-6.37325e-07
-6.54407e-07
-6.71761e-07
-6.89381e-07
-7.07262e-07
-7.25401e-07
-7.43795e-07
-7.62444e-07
-7.8135e-07
-8.00512e-07
-8.19932e-07
-8.39611e-07
-8.5955e-07
-8.79749e-07
-9.00205e-07
-9.2092e-07
-9.41885e-07
-9.63099e-07
-9.84543e-07
-1.00621e-06
-1.02805e-06
-1.05003e-06
-1.07253e-06
-1.25182e-06
-1.28196e-06
-1.31102e-06
-1.34001e-06
-1.369e-06
-1.39796e-06
-1.42697e-06
-1.45603e-06
-1.48517e-06
-1.5145e-06
-1.54384e-06
-1.57362e-06
-1.60313e-06
-1.63347e-06
-1.66177e-06
-1.68829e-06
-1.71909e-06
-1.75023e-06
-1.78191e-06
-1.81397e-06
-1.84648e-06
-1.87944e-06
-1.91292e-06
-1.94693e-06
-1.98152e-06
-2.01675e-06
-2.05266e-06
-2.08933e-06
-2.12682e-06
-2.16521e-06
-2.2046e-06
-2.24509e-06
-2.28681e-06
-2.32989e-06
-2.3745e-06
-2.42125e-06
-2.47011e-06
-2.52024e-06
-2.57139e-06
-2.62358e-06
-2.67683e-06
-2.73117e-06
-2.7866e-06
-2.84316e-06
-2.90087e-06
-2.95975e-06
-3.01983e-06
-3.08112e-06
-3.14366e-06
-3.20747e-06
-3.27257e-06
-3.339e-06
-3.40677e-06
-3.47592e-06
-3.54647e-06
-3.61845e-06
-3.6919e-06
-3.76683e-06
-3.84329e-06
-3.9213e-06
-4.00089e-06
-4.0821e-06
-4.16495e-06
-4.24949e-06
-4.33574e-06
-4.42375e-06
-4.51354e-06
-4.60515e-06
-4.69862e-06
-4.79399e-06
-4.8913e-06
-4.99058e-06
-5.09187e-06
)
;
    }
    inandouthalf32
    {
        type            cyclic;
        value           nonuniform List<scalar> 
110
(
4.29332e-07
4.42204e-07
4.5538e-07
4.68861e-07
4.8265e-07
4.96747e-07
5.11151e-07
5.25865e-07
5.40886e-07
5.56213e-07
5.71844e-07
5.87776e-07
6.04003e-07
6.20522e-07
6.37325e-07
6.54407e-07
6.71761e-07
6.89381e-07
7.07262e-07
7.25401e-07
7.43795e-07
7.62444e-07
7.8135e-07
8.00512e-07
8.19932e-07
8.39611e-07
8.5955e-07
8.79749e-07
9.00205e-07
9.2092e-07
9.41885e-07
9.63099e-07
9.84543e-07
1.00621e-06
1.02805e-06
1.05003e-06
1.07253e-06
1.25182e-06
1.28196e-06
1.31102e-06
1.34001e-06
1.369e-06
1.39796e-06
1.42697e-06
1.45603e-06
1.48517e-06
1.5145e-06
1.54384e-06
1.57362e-06
1.60313e-06
1.63347e-06
1.66177e-06
1.68829e-06
1.71909e-06
1.75023e-06
1.78191e-06
1.81397e-06
1.84648e-06
1.87944e-06
1.91292e-06
1.94693e-06
1.98152e-06
2.01675e-06
2.05266e-06
2.08933e-06
2.12682e-06
2.16521e-06
2.2046e-06
2.24509e-06
2.28681e-06
2.32989e-06
2.3745e-06
2.42125e-06
2.47011e-06
2.52024e-06
2.57139e-06
2.62358e-06
2.67683e-06
2.73117e-06
2.7866e-06
2.84316e-06
2.90087e-06
2.95975e-06
3.01983e-06
3.08112e-06
3.14366e-06
3.20747e-06
3.27257e-06
3.339e-06
3.40677e-06
3.47592e-06
3.54647e-06
3.61845e-06
3.6919e-06
3.76683e-06
3.84329e-06
3.9213e-06
4.00089e-06
4.0821e-06
4.16495e-06
4.24949e-06
4.33574e-06
4.42375e-06
4.51354e-06
4.60515e-06
4.69862e-06
4.79399e-06
4.8913e-06
4.99058e-06
5.09187e-06
)
;
    }
    inandouthalf41
    {
        type            cyclic;
        value           nonuniform List<scalar> 
50
(
-4.55775e-06
-4.55775e-06
-4.55775e-06
-4.55775e-06
-4.55775e-06
-4.55775e-06
-4.55775e-06
-4.55775e-06
-4.55775e-06
-4.55775e-06
-4.55775e-06
-4.55775e-06
-4.55775e-06
-4.55775e-06
-4.55775e-06
-4.55775e-06
-4.55775e-06
-4.55775e-06
-4.55775e-06
-4.55775e-06
-4.55775e-06
-4.55775e-06
-4.55775e-06
-4.55775e-06
-4.55775e-06
-4.55775e-06
-4.55775e-06
-4.55775e-06
-4.55775e-06
-4.55775e-06
-4.55775e-06
-4.55775e-06
-4.55775e-06
-4.55775e-06
-4.55775e-06
-4.55775e-06
-4.55775e-06
-4.55775e-06
-4.55775e-06
-4.55775e-06
-4.55775e-06
-4.55775e-06
-4.55775e-06
-4.55775e-06
-4.55775e-06
-4.55775e-06
-4.55775e-06
-4.55776e-06
-4.55804e-06
-4.5646e-06
)
;
    }
    inandouthalf42
    {
        type            cyclic;
        value           nonuniform List<scalar> 
50
(
4.55775e-06
4.55775e-06
4.55775e-06
4.55775e-06
4.55775e-06
4.55775e-06
4.55775e-06
4.55775e-06
4.55775e-06
4.55775e-06
4.55775e-06
4.55775e-06
4.55775e-06
4.55775e-06
4.55775e-06
4.55775e-06
4.55775e-06
4.55775e-06
4.55775e-06
4.55775e-06
4.55775e-06
4.55775e-06
4.55775e-06
4.55775e-06
4.55775e-06
4.55775e-06
4.55775e-06
4.55775e-06
4.55775e-06
4.55775e-06
4.55775e-06
4.55775e-06
4.55775e-06
4.55775e-06
4.55775e-06
4.55775e-06
4.55775e-06
4.55775e-06
4.55775e-06
4.55775e-06
4.55775e-06
4.55775e-06
4.55775e-06
4.55775e-06
4.55775e-06
4.55775e-06
4.55775e-06
4.55776e-06
4.55804e-06
4.5646e-06
)
;
    }
    top
    {
        type            symmetryPlane;
        value           uniform 0;
    }
    walls
    {
        type            fixedValue;
        value           uniform 0;
    }
    frontAndBackPlanes
    {
        type            empty;
        value           nonuniform 0();
    }
}


// ************************************************************************* //
