/*--------------------------------*- C++ -*----------------------------------*\
| =========                 |                                                 |
| \\      /  F ield         | OpenFOAM: The Open Source CFD Toolbox           |
|  \\    /   O peration     | Version:  2.4.x                                 |
|   \\  /    A nd           | Web:      www.OpenFOAM.org                      |
|    \\/     M anipulation  |                                                 |
\*---------------------------------------------------------------------------*/
FoamFile
{
    version     2.0;
    format      ascii;
    class       volScalarField;
    location    "10.25";
    object      tmf;
}
// * * * * * * * * * * * * * * * * * * * * * * * * * * * * * * * * * * * * * //

dimensions      [0 0 0 0 0 0 0];

internalField   nonuniform List<scalar> 
360
(
0.999207
0.99921
0.99921
0.99921
0.999209
0.999209
0.999209
0.999209
0.999209
0.999209
0.999209
0.999209
0.999209
0.999209
0.999209
0.999209
0.999209
0.999209
0.999208
0.999208
0.999208
0.999208
0.999208
0.999208
0.999208
0.999208
0.999208
0.999208
0.999208
0.999208
0.999207
0.999207
0.999207
0.999207
0.999207
0.999207
0.999207
0.999207
0.999207
0.999207
0.999206
0.999206
0.999206
0.999206
0.999206
0.999206
0.999206
0.999206
0.999206
0.999205
0.999205
0.999205
0.999205
0.999205
0.999205
0.999205
0.999205
0.999204
0.999204
0.999204
0.999204
0.999204
0.999204
0.999204
0.999204
0.999203
0.999203
0.999203
0.999203
0.999203
0.999203
0.999203
0.999202
0.999202
0.999202
0.999202
0.999202
0.999202
0.999201
0.999201
0.999201
0.999201
0.999201
0.999201
0.9992
0.9992
0.9992
0.9992
0.9992
0.999199
0.999199
0.999199
0.999199
0.999198
0.999198
0.999198
0.999198
0.999198
0.999197
0.999197
0.999197
0.999197
0.999196
0.999196
0.999196
0.999195
0.999195
0.999195
0.999195
0.999194
0.999194
0.999194
0.999193
0.999193
0.999193
0.999192
0.999192
0.999192
0.999191
0.999191
0.99919
0.99919
0.999189
0.999189
0.999188
0.999188
0.999298
0.999287
0.999263
0.999235
0.999202
0.999163
0.999116
0.999058
0.998985
0.998891
0.998765
0.998587
0.998332
0.997967
0.997451
0.996751
0.996181
0.995449
0.994185
0.992601
0.990565
0.987939
0.98397
0.944552
0.925956
0.936923
0.944285
0.949479
0.953262
0.956169
0.958494
0.960408
0.962018
0.963395
0.964589
0.965638
0.966567
0.967398
0.968147
0.968825
0.969444
0.970011
0.970533
0.971017
0.971466
0.971885
0.972276
0.972644
0.972991
0.973318
0.973627
0.973921
0.974201
0.974468
0.974722
0.974966
0.9752
0.975424
0.975639
0.975845
0.976044
0.976234
0.976416
0.97659
0.976755
0.976911
0.977058
0.977195
0.977321
0.977435
0.977536
0.977624
0.977697
0.977756
0.9778
0.977832
0.977857
0.97789
0.977957
0.978105
0.978392
0.978849
0.979449
0.980135
0.980861
0.981598
0.982331
0.983051
0.983755
0.984442
0.98511
0.985759
0.98639
0.987002
0.987595
0.988171
0.98873
0.989273
0.9898
0.990313
0.990812
0.9913
0.991775
0.99224
0.992694
0.993139
0.993573
0.993997
0.99441
0.99481
0.995189
0.992433
0.99303
0.993503
0.993958
0.994365
0.994739
0.995063
0.995348
0.995598
0.9958
0.996005
0.996132
0.996335
0.996406
0.996695
0.997533
0.997622
0.997668
0.997713
0.997756
0.9978
0.997845
0.997892
0.997942
0.997996
0.998055
0.99812
0.998192
0.998272
0.998361
0.998463
0.998579
0.998714
0.998878
0.999088
0.999301
0.999414
0.999424
0.999423
0.999423
0.999422
0.99942
0.999141
0.994344
0.994201
0.994201
0.994201
0.994201
0.994201
0.994201
0.994201
0.994201
0.994201
0.994201
0.994201
0.994201
0.994201
0.994201
0.994201
0.994201
0.994201
0.994201
0.994201
0.994201
0.994201
0.994201
0.994201
0.994201
0.994201
0.994201
0.994201
0.994201
0.994201
0.994201
0.994201
0.994201
0.994201
0.994201
0.994201
0.994201
0.994201
0.994201
0.994201
0.994201
0.994201
0.994201
0.994201
0.994201
0.994201
0.994201
0.994201
0.994201
0.994201
0.994201
0.994201
0.994201
0.994201
0.994201
0.994201
0.994201
0.994201
0.994201
0.994201
0.994201
0.994201
0.994201
0.994201
0.994201
0.994201
0.994201
0.994201
0.994201
0.994201
0.994201
0.994201
0.994201
0.994201
0.994201
0.994201
0.994201
0.994201
0.994186
0.993285
)
;

boundaryField
{
    inandouthalf11
    {
        type            cyclic;
    }
    inandouthalf12
    {
        type            cyclic;
    }
    inandouthalf21
    {
        type            cyclic;
    }
    inandouthalf22
    {
        type            cyclic;
    }
    inandouthalf31
    {
        type            cyclic;
    }
    inandouthalf32
    {
        type            cyclic;
    }
    inandouthalf41
    {
        type            cyclic;
    }
    inandouthalf42
    {
        type            cyclic;
    }
    top
    {
        type            symmetryPlane;
    }
    walls
    {
        type            calculated;
        value           uniform 0;
    }
    frontAndBackPlanes
    {
        type            empty;
    }
}


// ************************************************************************* //
