/*--------------------------------*- C++ -*----------------------------------*\
| =========                 |                                                 |
| \\      /  F ield         | OpenFOAM: The Open Source CFD Toolbox           |
|  \\    /   O peration     | Version:  2.4.x                                 |
|   \\  /    A nd           | Web:      www.OpenFOAM.org                      |
|    \\/     M anipulation  |                                                 |
\*---------------------------------------------------------------------------*/
FoamFile
{
    version     2.0;
    format      ascii;
    class       volVectorField;
    location    "10.25";
    object      Ua_0;
}
// * * * * * * * * * * * * * * * * * * * * * * * * * * * * * * * * * * * * * //

dimensions      [0 1 -1 0 0 0 0];

internalField   nonuniform List<vector> 
360
(
(-7.4962e-33 -1.04472e-31 0)
(-1.43341e-09 -1.4309e-08 0)
(-2.89203e-09 -2.51822e-08 0)
(-4.12454e-09 -3.43583e-08 0)
(-5.31135e-09 -4.36785e-08 0)
(-6.48313e-09 -5.30816e-08 0)
(-7.61309e-09 -6.22529e-08 0)
(-8.69356e-09 -7.11527e-08 0)
(-9.73046e-09 -7.98386e-08 0)
(-1.07308e-08 -8.83624e-08 0)
(-1.17e-08 -9.67635e-08 0)
(-1.2642e-08 -1.0507e-07 0)
(-1.35601e-08 -1.13304e-07 0)
(-1.44569e-08 -1.21487e-07 0)
(-1.53349e-08 -1.29639e-07 0)
(-1.61967e-08 -1.37779e-07 0)
(-1.70442e-08 -1.45927e-07 0)
(-1.78793e-08 -1.541e-07 0)
(-1.87035e-08 -1.62311e-07 0)
(-1.9518e-08 -1.70574e-07 0)
(-2.0324e-08 -1.78902e-07 0)
(-2.11222e-08 -1.87306e-07 0)
(-2.19134e-08 -1.95795e-07 0)
(-2.26982e-08 -2.04378e-07 0)
(-2.34769e-08 -2.13065e-07 0)
(-2.42498e-08 -2.21861e-07 0)
(-2.5017e-08 -2.30772e-07 0)
(-2.57784e-08 -2.39803e-07 0)
(-2.65341e-08 -2.48959e-07 0)
(-2.72838e-08 -2.58244e-07 0)
(-2.80272e-08 -2.67658e-07 0)
(-2.87639e-08 -2.77207e-07 0)
(-2.94935e-08 -2.86889e-07 0)
(-3.02155e-08 -2.96706e-07 0)
(-3.09294e-08 -3.0666e-07 0)
(-3.16346e-08 -3.1675e-07 0)
(-3.23304e-08 -3.26974e-07 0)
(-3.30162e-08 -3.37331e-07 0)
(-3.36914e-08 -3.47824e-07 0)
(-3.43551e-08 -3.58446e-07 0)
(-3.50067e-08 -3.69198e-07 0)
(-3.56455e-08 -3.80079e-07 0)
(-3.62707e-08 -3.91082e-07 0)
(-3.68815e-08 -4.02207e-07 0)
(-3.74772e-08 -4.13453e-07 0)
(-3.8057e-08 -4.24815e-07 0)
(-3.86203e-08 -4.36291e-07 0)
(-3.91661e-08 -4.47874e-07 0)
(-3.96936e-08 -4.59559e-07 0)
(-4.02024e-08 -4.71349e-07 0)
(-4.06915e-08 -4.83238e-07 0)
(-4.11603e-08 -4.95218e-07 0)
(-4.1608e-08 -5.07288e-07 0)
(-4.20339e-08 -5.19443e-07 0)
(-4.24374e-08 -5.31678e-07 0)
(-4.28177e-08 -5.43989e-07 0)
(-4.31744e-08 -5.56372e-07 0)
(-4.35066e-08 -5.6882e-07 0)
(-4.38137e-08 -5.8133e-07 0)
(-4.40953e-08 -5.93891e-07 0)
(-4.43506e-08 -6.06502e-07 0)
(-4.45793e-08 -6.1916e-07 0)
(-4.47807e-08 -6.3186e-07 0)
(-4.49545e-08 -6.44596e-07 0)
(-4.51001e-08 -6.57363e-07 0)
(-4.5217e-08 -6.70154e-07 0)
(-4.53049e-08 -6.82963e-07 0)
(-4.53634e-08 -6.95786e-07 0)
(-4.53922e-08 -7.08616e-07 0)
(-4.53908e-08 -7.21442e-07 0)
(-4.53591e-08 -7.34264e-07 0)
(-4.52967e-08 -7.4708e-07 0)
(-4.52035e-08 -7.5988e-07 0)
(-4.50792e-08 -7.72658e-07 0)
(-4.49237e-08 -7.85412e-07 0)
(-4.47368e-08 -7.98139e-07 0)
(-4.45184e-08 -8.10831e-07 0)
(-4.42684e-08 -8.23478e-07 0)
(-4.39869e-08 -8.36074e-07 0)
(-4.36738e-08 -8.48616e-07 0)
(-4.33293e-08 -8.61095e-07 0)
(-4.29534e-08 -8.73508e-07 0)
(-4.25461e-08 -8.8585e-07 0)
(-4.21075e-08 -8.98118e-07 0)
(-4.16376e-08 -9.10308e-07 0)
(-4.11368e-08 -9.22415e-07 0)
(-4.0605e-08 -9.34436e-07 0)
(-4.00425e-08 -9.46362e-07 0)
(-3.94497e-08 -9.58189e-07 0)
(-3.8827e-08 -9.69909e-07 0)
(-3.81746e-08 -9.81517e-07 0)
(-3.7493e-08 -9.93009e-07 0)
(-3.67824e-08 -1.00438e-06 0)
(-3.60432e-08 -1.01563e-06 0)
(-3.52755e-08 -1.02676e-06 0)
(-3.44797e-08 -1.03776e-06 0)
(-3.3656e-08 -1.04862e-06 0)
(-3.28047e-08 -1.05936e-06 0)
(-3.19262e-08 -1.06996e-06 0)
(-3.10207e-08 -1.08042e-06 0)
(-3.00885e-08 -1.09074e-06 0)
(-2.91297e-08 -1.10091e-06 0)
(-2.81446e-08 -1.11094e-06 0)
(-2.71332e-08 -1.12083e-06 0)
(-2.60953e-08 -1.13057e-06 0)
(-2.50309e-08 -1.14016e-06 0)
(-2.39395e-08 -1.14961e-06 0)
(-2.28209e-08 -1.15892e-06 0)
(-2.16745e-08 -1.16809e-06 0)
(-2.04995e-08 -1.17711e-06 0)
(-1.92951e-08 -1.186e-06 0)
(-1.80599e-08 -1.19476e-06 0)
(-1.67925e-08 -1.20338e-06 0)
(-1.5491e-08 -1.21188e-06 0)
(-1.41531e-08 -1.22026e-06 0)
(-1.27762e-08 -1.22852e-06 0)
(-1.13572e-08 -1.23667e-06 0)
(-9.89259e-09 -1.24473e-06 0)
(-8.37891e-09 -1.25268e-06 0)
(-6.81291e-09 -1.26054e-06 0)
(-5.19214e-09 -1.26829e-06 0)
(-3.51575e-09 -1.27592e-06 0)
(-1.78531e-09 -1.28342e-06 0)
(-5.61771e-12 -1.29074e-06 0)
(1.81497e-09 -1.29785e-06 0)
(3.66518e-09 -1.3047e-06 0)
(5.53275e-09 -1.31123e-06 0)
(7.40791e-09 -1.31744e-06 0)
(9.28794e-09 -1.32331e-06 0)
(1.11824e-08 -1.32888e-06 0)
(1.31187e-08 -1.33424e-06 0)
(1.51492e-08 -1.3395e-06 0)
(1.7361e-08 -1.34484e-06 0)
(1.98856e-08 -1.3505e-06 0)
(2.28979e-08 -1.35675e-06 0)
(2.65681e-08 -1.36377e-06 0)
(3.09113e-08 -1.3714e-06 0)
(3.55401e-08 -1.37885e-06 0)
(3.95481e-08 -1.38476e-06 0)
(4.19639e-08 -1.38805e-06 0)
(4.27318e-08 -1.38902e-06 0)
(4.28176e-08 -1.38911e-06 0)
(4.28132e-08 -1.38919e-06 0)
(-3.41444e-07 -2.38822e-06 0)
(-9.34371e-07 -3.58067e-06 0)
(-1.63117e-06 -4.97737e-06 0)
(-2.48905e-06 -6.81658e-06 0)
(-3.579e-06 -9.23002e-06 0)
(-4.99402e-06 -1.46826e-05 0)
(0.0150785 -0.00493296 0)
(0.0469427 -0.00833755 0)
(0.0701808 -0.0111168 0)
(0.088309 -0.0131817 0)
(0.103678 -0.0145525 0)
(0.117342 -0.0154166 0)
(0.129831 -0.0159626 0)
(0.141445 -0.0162987 0)
(0.152373 -0.0164867 0)
(0.162742 -0.0165655 0)
(0.172641 -0.0165616 0)
(0.182139 -0.0164934 0)
(0.191287 -0.0163743 0)
(0.200127 -0.0162142 0)
(0.20869 -0.0160207 0)
(0.217004 -0.0157998 0)
(0.225092 -0.0155563 0)
(0.232973 -0.0152939 0)
(0.240663 -0.0150158 0)
(0.248176 -0.0147246 0)
(0.255524 -0.0144224 0)
(0.262718 -0.0141111 0)
(0.269768 -0.013792 0)
(0.276682 -0.0134665 0)
(0.283467 -0.0131357 0)
(0.29013 -0.0128005 0)
(0.296677 -0.0124618 0)
(0.303114 -0.0121201 0)
(0.309444 -0.011776 0)
(0.315672 -0.0114303 0)
(0.321802 -0.0110832 0)
(0.327837 -0.0107353 0)
(0.333779 -0.0103869 0)
(0.339631 -0.0100385 0)
(0.345395 -0.00969035 0)
(0.351071 -0.00934295 0)
(0.356661 -0.00899665 0)
(0.362166 -0.00865187 0)
(0.367585 -0.00830907 0)
(0.372917 -0.00796875 0)
(0.378163 -0.00763146 0)
(0.383322 -0.00729786 0)
(0.38839 -0.00696871 0)
(0.393368 -0.00664487 0)
(0.398253 -0.00632738 0)
(0.403041 -0.00601745 0)
(0.407732 -0.00571644 0)
(0.412321 -0.00542583 0)
(0.416805 -0.00514708 0)
(0.421182 -0.00488151 0)
(0.425448 -0.00463001 0)
(0.429599 -0.00439283 0)
(0.433674 -0.00416708 0)
(0.43771 -0.00394931 0)
(0.441701 -0.00373703 0)
(0.445643 -0.0035264 0)
(0.449533 -0.00331263 0)
(0.453364 -0.00309074 0)
(0.457134 -0.00285651 0)
(0.460836 -0.00260714 0)
(0.464465 -0.00234132 0)
(0.468017 -0.00205904 0)
(0.471484 -0.00176137 0)
(0.474861 -0.00145042 0)
(0.478141 -0.00112953 0)
(0.481318 -0.000803381 0)
(0.484385 -0.00047806 0)
(0.487337 -0.000160874 0)
(0.490169 0.000140257 0)
(0.492877 0.000417762 0)
(0.49546 0.000665537 0)
(0.497915 0.000879848 0)
(0.500245 0.00105968 0)
(0.502449 0.00120648 0)
(0.50453 0.00132337 0)
(0.506488 0.00141436 0)
(0.508325 0.00148348 0)
(0.510044 0.0015346 0)
(0.511643 0.00157042 0)
(0.513125 0.00159373 0)
(0.514488 0.00160512 0)
(0.515732 0.00160655 0)
(0.516857 0.00159598 0)
(0.517854 0.0015754 0)
(0.518719 0.00153799 0)
(0.519436 0.00148655 0)
(0.519989 0.00139987 0)
(0.520565 0.00126511 0)
(0.595456 0.000362929 0)
(0.597656 0.0015315 0)
(0.599047 0.000753426 0)
(0.60011 0.00108415 0)
(0.600896 0.000328985 0)
(0.601397 0.000891679 0)
(0.601663 -0.000508434 0)
(0.601705 0.000549595 0)
(0.601535 -0.00134037 0)
(0.601213 0.000634645 0)
(0.600667 -0.00274346 0)
(0.600075 0.00151604 0)
(0.599165 -0.00494242 0)
(0.59836 0.00371504 0)
(0.596618 -0.00992171 0)
(0.594079 -0.0374983 0)
(0.592884 -0.0395612 0)
(0.591616 -0.0394966 0)
(0.590341 -0.0395016 0)
(0.58901 -0.0395022 0)
(0.587637 -0.0395031 0)
(0.586231 -0.039504 0)
(0.584801 -0.0395048 0)
(0.583359 -0.0395055 0)
(0.581914 -0.0395061 0)
(0.580477 -0.0395064 0)
(0.579062 -0.0395064 0)
(0.577681 -0.0395062 0)
(0.576349 -0.0395056 0)
(0.575081 -0.0395045 0)
(0.573894 -0.039503 0)
(0.572808 -0.0395009 0)
(0.571845 -0.039498 0)
(0.57103 -0.0394942 0)
(0.570386 -0.0394877 0)
(0.570046 -0.0394775 0)
(0.56998 -0.0394712 0)
(0.569978 -0.0394699 0)
(0.569978 -0.0394699 0)
(0.569978 -0.0394699 0)
(0.569978 -0.0394699 0)
(0.569978 -0.0394699 0)
(0.569978 -0.0394699 0)
(0.569978 -0.0394699 0)
(0.569978 -0.0394699 0)
(0.569978 -0.0394699 0)
(0.569978 -0.0394699 0)
(0.569978 -0.0394699 0)
(0.569978 -0.0394699 0)
(0.569978 -0.0394699 0)
(0.569978 -0.0394699 0)
(0.569978 -0.0394699 0)
(0.569978 -0.0394699 0)
(0.569978 -0.0394699 0)
(0.569978 -0.0394699 0)
(0.569978 -0.0394699 0)
(0.569978 -0.0394699 0)
(0.569978 -0.0394699 0)
(0.569978 -0.0394699 0)
(0.569978 -0.0394699 0)
(0.569978 -0.0394699 0)
(0.569978 -0.0394699 0)
(0.569978 -0.0394699 0)
(0.569978 -0.0394699 0)
(0.569978 -0.0394699 0)
(0.569978 -0.0394699 0)
(0.569978 -0.0394699 0)
(0.569978 -0.0394699 0)
(0.569978 -0.0394699 0)
(0.569978 -0.0394699 0)
(0.569978 -0.0394699 0)
(0.569978 -0.0394699 0)
(0.569978 -0.0394699 0)
(0.569978 -0.0394699 0)
(0.569978 -0.0394699 0)
(0.569978 -0.0394699 0)
(0.569978 -0.0394699 0)
(0.569978 -0.0394699 0)
(0.569978 -0.0394699 0)
(0.569978 -0.0394699 0)
(0.569978 -0.0394699 0)
(0.569978 -0.0394699 0)
(0.569978 -0.0394699 0)
(0.569978 -0.0394699 0)
(0.569978 -0.0394699 0)
(0.569978 -0.0394699 0)
(0.569978 -0.0394699 0)
(0.569978 -0.0394699 0)
(0.569978 -0.0394699 0)
(0.569978 -0.0394699 0)
(0.569978 -0.0394699 0)
(0.569978 -0.0394699 0)
(0.569978 -0.0394699 0)
(0.569978 -0.0394699 0)
(0.569978 -0.0394699 0)
(0.569978 -0.0394699 0)
(0.569978 -0.0394699 0)
(0.569978 -0.0394699 0)
(0.569978 -0.0394699 0)
(0.569978 -0.0394699 0)
(0.569978 -0.0394699 0)
(0.569978 -0.0394699 0)
(0.569978 -0.0394699 0)
(0.569978 -0.0394699 0)
(0.569978 -0.0394699 0)
(0.569978 -0.0394699 0)
(0.569978 -0.0394699 0)
(0.569978 -0.0394699 0)
(0.569978 -0.0394699 0)
(0.569978 -0.0394699 0)
(0.569978 -0.0394699 0)
(0.569978 -0.0394699 0)
(0.569978 -0.0394699 0)
(0.569978 -0.0394699 0)
(0.569978 -0.0394699 0)
(0.569978 -0.0394699 0)
(0.569978 -0.0394699 0)
(0.569978 -0.0394699 0)
(0.569978 -0.0394699 0)
(0.569978 -0.0394696 0)
(0.56998 -0.0394611 0)
(0.570015 -0.0391147 0)
(0.570835 -0.0223441 0)
)
;

boundaryField
{
    inandouthalf11
    {
        type            cyclic;
    }
    inandouthalf12
    {
        type            cyclic;
    }
    inandouthalf21
    {
        type            cyclic;
    }
    inandouthalf22
    {
        type            cyclic;
    }
    inandouthalf31
    {
        type            cyclic;
    }
    inandouthalf32
    {
        type            cyclic;
    }
    inandouthalf41
    {
        type            cyclic;
    }
    inandouthalf42
    {
        type            cyclic;
    }
    top
    {
        type            symmetryPlane;
    }
    walls
    {
        type            fixedValue;
        value           uniform (0 0 0);
    }
    frontAndBackPlanes
    {
        type            empty;
    }
}


// ************************************************************************* //
