/*--------------------------------*- C++ -*----------------------------------*\
| =========                 |                                                 |
| \\      /  F ield         | OpenFOAM: The Open Source CFD Toolbox           |
|  \\    /   O peration     | Version:  2.4.x                                 |
|   \\  /    A nd           | Web:      www.OpenFOAM.org                      |
|    \\/     M anipulation  |                                                 |
\*---------------------------------------------------------------------------*/
FoamFile
{
    version     2.0;
    format      ascii;
    class       volVectorField;
    location    "8.6";
    object      gradPs;
}
// * * * * * * * * * * * * * * * * * * * * * * * * * * * * * * * * * * * * * //

dimensions      [0 1 -2 0 0 0 0];

internalField   nonuniform List<vector> 
360
(
(0 1.54522e-18 0)
(0 1.70284e-18 0)
(0 4.30049e-22 0)
(0 -2.34318e-19 0)
(-1.45038e-32 -9.86626e-20 0)
(-2.90083e-32 -5.39695e-20 0)
(-1.45046e-32 -6.95881e-20 0)
(0 -7.97799e-20 0)
(-1.45056e-32 -8.14985e-20 0)
(0 -8.25537e-20 0)
(-1.45067e-32 -8.30761e-20 0)
(0 -8.35761e-20 0)
(-2.90157e-32 -8.44354e-20 0)
(0 -8.53007e-20 0)
(0 -8.63964e-20 0)
(0 -8.74969e-20 0)
(0 -8.8382e-20 0)
(-1.45107e-32 -8.91755e-20 0)
(0 -9.03404e-20 0)
(0 -9.11622e-20 0)
(0 -9.20069e-20 0)
(-1.45132e-32 -9.31962e-20 0)
(0 -9.40492e-20 0)
(0 -9.50311e-20 0)
(0 -9.60253e-20 0)
(-1.45157e-32 -9.6808e-20 0)
(0 -9.78829e-20 0)
(0 -9.89887e-20 0)
(0 -9.97478e-20 0)
(0 -1.00632e-19 0)
(0 -1.01906e-19 0)
(0 -1.02502e-19 0)
(0 -1.03653e-19 0)
(0 -1.04822e-19 0)
(0 -1.05499e-19 0)
(2.90447e-32 -1.06536e-19 0)
(0 -1.07499e-19 0)
(0 -1.09028e-19 0)
(0 -1.09401e-19 0)
(0 -1.10594e-19 0)
(0 -1.12285e-19 0)
(0 -1.12484e-19 0)
(1.45275e-32 -1.14002e-19 0)
(0 -1.15376e-19 0)
(0 -1.16181e-19 0)
(0 -1.17864e-19 0)
(0 -1.1847e-19 0)
(0 -1.19501e-19 0)
(0 -1.21854e-19 0)
(0 -1.22576e-19 0)
(2.90676e-32 -1.23567e-19 0)
(0 -1.25346e-19 0)
(0 -1.26762e-19 0)
(0 -1.27872e-19 0)
(0 -1.29651e-19 0)
(0 -1.31093e-19 0)
(0 -1.32449e-19 0)
(0 -1.34456e-19 0)
(0 -1.35194e-19 0)
(0 -1.37455e-19 0)
(0 -1.39213e-19 0)
(0 -1.40673e-19 0)
(0 -1.42762e-19 0)
(0 -1.44297e-19 0)
(0 -1.46079e-19 0)
(0 -1.48017e-19 0)
(0 -1.50257e-19 0)
(0 -1.52084e-19 0)
(0 -1.53516e-19 0)
(0 -1.5597e-19 0)
(0 -1.58925e-19 0)
(0 -1.60166e-19 0)
(0 -1.62345e-19 0)
(0 -1.65171e-19 0)
(0 -1.67592e-19 0)
(0 -1.69882e-19 0)
(0 -1.71931e-19 0)
(0 -1.74751e-19 0)
(0 -1.77524e-19 0)
(0 -1.79991e-19 0)
(0 -1.82693e-19 0)
(0 -1.85773e-19 0)
(0 -1.8869e-19 0)
(0 -1.91704e-19 0)
(0 -1.94816e-19 0)
(0 -1.98042e-19 0)
(0 -2.01306e-19 0)
(0 -2.0456e-19 0)
(0 -2.08061e-19 0)
(0 -2.11684e-19 0)
(0 -2.15362e-19 0)
(0 -2.19242e-19 0)
(0 -2.23294e-19 0)
(0 -2.27426e-19 0)
(0 -2.31692e-19 0)
(0 -2.36096e-19 0)
(0 -2.4063e-19 0)
(0 -2.45312e-19 0)
(0 -2.50175e-19 0)
(0 -2.55226e-19 0)
(0 -2.60469e-19 0)
(0 -2.65926e-19 0)
(0 -2.71599e-19 0)
(0 -2.77483e-19 0)
(0 -2.83591e-19 0)
(0 -2.89936e-19 0)
(0 -2.96527e-19 0)
(0 -3.0338e-19 0)
(0 -3.1051e-19 0)
(0 -3.1793e-19 0)
(0 -3.25654e-19 0)
(0 -3.33696e-19 0)
(0 -3.42074e-19 0)
(0 -3.50809e-19 0)
(0 -3.59921e-19 0)
(0 -3.69439e-19 0)
(0 -3.79393e-19 0)
(0 -3.89822e-19 0)
(0 -4.00772e-19 0)
(0 -4.12294e-19 0)
(0 -4.24439e-19 0)
(0 -4.3726e-19 0)
(0 -4.50804e-19 0)
(0 -4.65135e-19 0)
(0 -4.8036e-19 0)
(0 -4.96667e-19 0)
(0 -5.1433e-19 0)
(0 -5.33603e-19 0)
(0 -5.54503e-19 0)
(0 -5.76633e-19 0)
(0 -6.59721e-19 0)
(0 4.73706e-16 0)
(0 7.88631e-15 0)
(0 1.12472e-13 0)
(0 1.70166e-12 0)
(0 2.79971e-11 0)
(0 5.05401e-10 0)
(0 1.00796e-08 0)
(0 2.23938e-07 0)
(0 5.77541e-06 0)
(0 0.000341244 0)
(0 0.0321543 0)
(0 0.879472 0)
(0 7.54111 0)
(0 7.56902 0)
(0 1.07604 0)
(0 -1.02677 0)
(0 -2.7588 0)
(0 -3.50955 0)
(0 -3.88244 0)
(0 -4.0759 0)
(0 -4.13847 0)
(0 -4.1428 0)
(0 -4.14425 0)
(0 -4.13317 0)
(0 -4.10967 0)
(0 -4.07689 0)
(0 -4.03788 0)
(0 -3.99481 0)
(0 -3.94974 0)
(0 -3.90359 0)
(0 -3.85643 0)
(0 -3.80858 0)
(0 -3.75972 0)
(0 -3.70935 0)
(0 -3.65678 0)
(0 -3.6012 0)
(0 -3.54182 0)
(0 -3.47788 0)
(0 -3.40874 0)
(0 -3.33386 0)
(0 -3.25297 0)
(0 -3.16596 0)
(0 -3.07312 0)
(0 -2.97512 0)
(0 -2.8733 0)
(0 -2.77048 0)
(0 -2.67125 0)
(0 -2.57948 0)
(0 -2.49255 0)
(0 -2.39717 0)
(0 -2.27394 0)
(0 -2.11019 0)
(0 -1.91062 0)
(0 -1.69534 0)
(0 -1.48749 0)
(0 -1.30244 0)
(0 -1.14553 0)
(0 -1.01548 0)
(0 -0.908273 0)
(0 -0.819562 0)
(0 -0.74556 0)
(0 -0.683236 0)
(0 -0.630236 0)
(0 -0.584742 0)
(0 -0.545354 0)
(0 -0.51098 0)
(0 -0.480778 0)
(0 -0.454067 0)
(0 -0.430336 0)
(0 -0.409113 0)
(0 -0.389929 0)
(-1.66397e-16 -0.372453 0)
(0 -0.35649 0)
(0 -0.34186 0)
(1.93833e-16 -0.328411 0)
(0 -0.31603 0)
(-1.07131e-16 -0.304601 0)
(0 -0.293948 0)
(1.18449e-16 -0.283871 0)
(0 -0.27412 0)
(0 -0.264394 0)
(0 -0.254515 0)
(7.26096e-17 -0.244319 0)
(0 -0.233385 0)
(0 -0.221426 0)
(0 -0.208496 0)
(0 -0.194627 0)
(0 -0.179792 0)
(-4.85309e-17 -0.164094 0)
(0 -0.148034 0)
(-5.2449e-17 -0.132079 0)
(0 -0.116329 0)
(-2.78997e-17 -0.101105 0)
(0 -0.086836 0)
(0 -0.0736547 0)
(0 -0.0616899 0)
(0 -0.0509942 0)
(7.54731e-18 -0.0416784 0)
(7.57646e-18 -0.0336271 0)
(0 -0.0268366 0)
(0 -0.021043 0)
(0 -0.016491 0)
(0 -0.0128163 0)
(0 -0.00940157 0)
(0 -0.00903153 0)
(0 -0.00508007 0)
(0 0 0)
(0 0 0)
(0 0 0)
(0 0 0)
(0 0 0)
(0 0 0)
(0 0 0)
(0 0 0)
(0 0 0)
(0 0 0)
(0 0 0)
(0 0 0)
(0 0 0)
(0 0 0)
(0 0 0)
(0 0 0)
(0 0 0)
(0 0 0)
(0 0 0)
(0 0 0)
(0 0 0)
(0 0 0)
(0 0 0)
(0 0 0)
(0 0 0)
(0 0 0)
(0 0 0)
(0 0 0)
(0 0 0)
(0 0 0)
(0 0 0)
(0 0 0)
(0 0 0)
(0 0 0)
(0 0 0)
(0 0 0)
(0 0 0)
(0 0 0)
(0 0 0)
(0 0 0)
(0 0 0)
(0 0 0)
(0 0 0)
(0 0 0)
(0 0 0)
(0 0 0)
(0 0 0)
(0 0 0)
(0 0 0)
(0 0 0)
(0 0 0)
(0 0 0)
(0 0 0)
(0 0 0)
(0 0 0)
(0 0 0)
(0 0 0)
(0 0 0)
(0 0 0)
(0 0 0)
(0 0 0)
(0 0 0)
(0 0 0)
(0 0 0)
(0 0 0)
(0 0 0)
(0 0 0)
(0 0 0)
(0 0 0)
(0 0 0)
(0 0 0)
(0 0 0)
(0 0 0)
(0 0 0)
(0 0 0)
(0 0 0)
(0 0 0)
(0 0 0)
(0 0 0)
(0 0 0)
(0 0 0)
(0 0 0)
(0 0 0)
(0 0 0)
(0 0 0)
(0 0 0)
(0 0 0)
(0 0 0)
(0 0 0)
(0 0 0)
(0 0 0)
(0 0 0)
(0 0 0)
(0 0 0)
(0 0 0)
(0 0 0)
(0 0 0)
(0 0 0)
(0 0 0)
(0 0 0)
(0 0 0)
(0 0 0)
(0 0 0)
(0 0 0)
(0 0 0)
(0 0 0)
(0 0 0)
(0 0 0)
(0 0 0)
(0 0 0)
(0 0 0)
(0 0 0)
(0 0 0)
(0 0 0)
(0 0 0)
(0 0 0)
(0 0 0)
(0 0 0)
(0 0 0)
(0 0 0)
(0 0 0)
(0 0 0)
(0 0 0)
)
;

boundaryField
{
    inandouthalf11
    {
        type            cyclic;
    }
    inandouthalf12
    {
        type            cyclic;
    }
    inandouthalf21
    {
        type            cyclic;
    }
    inandouthalf22
    {
        type            cyclic;
    }
    inandouthalf31
    {
        type            cyclic;
    }
    inandouthalf32
    {
        type            cyclic;
    }
    inandouthalf41
    {
        type            cyclic;
    }
    inandouthalf42
    {
        type            cyclic;
    }
    top
    {
        type            symmetryPlane;
    }
    walls
    {
        type            calculated;
        value           uniform (0 0 0);
    }
    frontAndBackPlanes
    {
        type            empty;
    }
}


// ************************************************************************* //
