/*--------------------------------*- C++ -*----------------------------------*\
| =========                 |                                                 |
| \\      /  F ield         | OpenFOAM: The Open Source CFD Toolbox           |
|  \\    /   O peration     | Version:  2.4.x                                 |
|   \\  /    A nd           | Web:      www.OpenFOAM.org                      |
|    \\/     M anipulation  |                                                 |
\*---------------------------------------------------------------------------*/
FoamFile
{
    version     2.0;
    format      ascii;
    class       volScalarField;
    location    "8.6";
    object      p;
}
// * * * * * * * * * * * * * * * * * * * * * * * * * * * * * * * * * * * * * //

dimensions      [1 -1 -2 0 0 0 0];

internalField   nonuniform List<scalar> 
360
(
4900.57
4895.67
4890.76
4885.86
4880.95
4876.04
4871.14
4866.23
4861.32
4856.42
4851.51
4846.6
4841.69
4836.79
4831.88
4826.97
4822.06
4817.15
4812.24
4807.33
4802.42
4797.51
4792.6
4787.69
4782.77
4777.86
4772.95
4768.04
4763.13
4758.21
4753.3
4748.39
4743.47
4738.56
4733.65
4728.73
4723.82
4718.9
4713.99
4709.07
4704.15
4699.24
4694.32
4689.41
4684.49
4679.57
4674.66
4669.74
4664.82
4659.9
4654.99
4650.07
4645.15
4640.23
4635.31
4630.39
4625.47
4620.55
4615.63
4610.71
4605.79
4600.87
4595.95
4591.03
4586.11
4581.19
4576.27
4571.35
4566.43
4561.5
4556.58
4551.66
4546.74
4541.81
4536.89
4531.97
4527.04
4522.12
4517.2
4512.27
4507.35
4502.43
4497.5
4492.58
4487.65
4482.73
4477.8
4472.88
4467.95
4463.03
4458.1
4453.18
4448.25
4443.32
4438.4
4433.47
4428.55
4423.62
4418.69
4413.77
4408.84
4403.91
4398.98
4394.06
4389.13
4384.2
4379.27
4374.35
4369.42
4364.49
4359.56
4354.64
4349.71
4344.78
4339.85
4334.92
4329.99
4325.06
4320.14
4315.21
4310.28
4305.35
4300.42
4295.49
4290.56
4285.63
4280.7
4275.77
4270.85
4265.92
4260.99
4256.06
4251.13
4246.2
4241.27
4236.34
4231.41
4226.48
4221.55
4216.62
4211.69
4206.76
4201.83
4196.9
4191.61
4181.78
4171.37
4163.08
4155.84
4149.19
4142.94
4136.98
4131.22
4125.63
4120.19
4114.88
4109.68
4104.58
4099.56
4094.62
4089.74
4084.93
4080.16
4075.45
4070.77
4066.13
4061.52
4056.94
4052.38
4047.83
4043.3
4038.77
4034.24
4029.72
4025.18
4020.64
4016.07
4011.49
4006.88
4002.24
3997.57
3992.87
3988.14
3983.38
3978.59
3973.78
3968.95
3964.11
3959.25
3954.38
3949.5
3944.61
3939.72
3934.83
3929.93
3925.03
3920.12
3915.22
3910.31
3905.4
3900.49
3895.53
3890.47
3885.31
3880.04
3874.67
3869.18
3863.59
3857.88
3852.05
3846.11
3840.05
3833.86
3827.55
3821.11
3814.54
3807.84
3801.01
3794.03
3786.92
3779.66
3772.26
3764.71
3757
3749.14
3741.12
3732.94
3724.6
3716.09
3707.41
3698.55
3689.52
3680.3
3670.9
3661.31
3651.52
3641.54
3631.36
3620.97
3610.38
3599.57
3588.54
3577.29
3565.82
3554.11
3542.17
3529.98
3517.55
3504.86
3491.92
3478.72
3465.24
3451.5
3437.47
3423.15
3408.54
3393.63
3378.42
3362.89
3347.04
3330.87
3314.36
3297.5
3280.3
3262.75
3244.83
3226.54
3207.87
3188.83
3169.4
3149.58
3129.35
3108.72
3087.66
3066.18
3044.26
3021.9
2999.08
2975.8
2952.05
2927.81
2903.09
2877.86
2852.12
2825.86
2799.06
2771.72
2743.82
2715.36
2686.32
2656.7
2626.47
2595.62
2564.15
2532.05
2499.29
2465.86
2431.76
2396.96
2361.46
2325.24
2288.28
2250.57
2212.1
2172.85
2132.8
2091.93
2050.24
2007.7
1964.3
1922.76
1883.52
1844.28
1805.04
1765.8
1726.56
1687.32
1648.08
1608.84
1569.6
1530.36
1491.12
1451.88
1412.64
1373.4
1334.16
1294.92
1255.68
1216.44
1177.2
1137.96
1098.72
1059.48
1020.24
981
941.76
902.52
863.28
824.04
784.8
745.56
706.32
667.08
627.84
588.6
549.36
510.12
470.88
431.64
392.4
353.16
313.92
274.68
235.44
196.2
156.96
117.72
78.48
39.24
3.14606e-07
)
;

boundaryField
{
    inandouthalf11
    {
        type            cyclic;
    }
    inandouthalf12
    {
        type            cyclic;
    }
    inandouthalf21
    {
        type            cyclic;
    }
    inandouthalf22
    {
        type            cyclic;
    }
    inandouthalf31
    {
        type            cyclic;
    }
    inandouthalf32
    {
        type            cyclic;
    }
    inandouthalf41
    {
        type            cyclic;
    }
    inandouthalf42
    {
        type            cyclic;
    }
    top
    {
        type            symmetryPlane;
    }
    walls
    {
        type            slip;
    }
    frontAndBackPlanes
    {
        type            empty;
    }
}


// ************************************************************************* //
