/*--------------------------------*- C++ -*----------------------------------*\
| =========                 |                                                 |
| \\      /  F ield         | OpenFOAM: The Open Source CFD Toolbox           |
|  \\    /   O peration     | Version:  2.4.x                                 |
|   \\  /    A nd           | Web:      www.OpenFOAM.org                      |
|    \\/     M anipulation  |                                                 |
\*---------------------------------------------------------------------------*/
FoamFile
{
    version     2.0;
    format      ascii;
    class       surfaceScalarField;
    location    "8.6";
    object      phia;
}
// * * * * * * * * * * * * * * * * * * * * * * * * * * * * * * * * * * * * * //

dimensions      [0 3 -1 0 0 0 0];

internalField   nonuniform List<scalar> 
359
(
-1.12089e-13
-2.82318e-13
-4.43013e-13
-6.0071e-13
-7.65313e-13
-9.35649e-13
-1.10882e-12
-1.28381e-12
-1.46052e-12
-1.63909e-12
-1.81949e-12
-2.00151e-12
-2.18497e-12
-2.36962e-12
-2.5553e-12
-2.74183e-12
-2.92906e-12
-3.11677e-12
-3.30476e-12
-3.49286e-12
-3.68084e-12
-3.86853e-12
-4.05577e-12
-4.24237e-12
-4.42819e-12
-4.61309e-12
-4.7969e-12
-4.97956e-12
-5.16094e-12
-5.34095e-12
-5.51951e-12
-5.69659e-12
-5.87208e-12
-6.04604e-12
-6.21836e-12
-6.38909e-12
-6.55818e-12
-6.72567e-12
-6.89162e-12
-7.05595e-12
-7.21879e-12
-7.38015e-12
-7.54e-12
-7.69848e-12
-7.85559e-12
-8.01139e-12
-8.16594e-12
-8.31918e-12
-8.47125e-12
-8.62223e-12
-8.77207e-12
-8.92088e-12
-9.06864e-12
-9.21545e-12
-9.36125e-12
-9.50617e-12
-9.65014e-12
-9.79324e-12
-9.93544e-12
-1.00767e-11
-1.02172e-11
-1.03568e-11
-1.04956e-11
-1.06336e-11
-1.07708e-11
-1.09071e-11
-1.10426e-11
-1.11772e-11
-1.13109e-11
-1.14437e-11
-1.15756e-11
-1.17066e-11
-1.18367e-11
-1.19659e-11
-1.20942e-11
-1.22215e-11
-1.23478e-11
-1.24731e-11
-1.25973e-11
-1.27204e-11
-1.28424e-11
-1.29633e-11
-1.3083e-11
-1.32015e-11
-1.3319e-11
-1.34352e-11
-1.35502e-11
-1.3664e-11
-1.37765e-11
-1.38877e-11
-1.39976e-11
-1.4106e-11
-1.42131e-11
-1.43188e-11
-1.44231e-11
-1.4526e-11
-1.46275e-11
-1.47276e-11
-1.48262e-11
-1.49234e-11
-1.50191e-11
-1.51133e-11
-1.5206e-11
-1.52972e-11
-1.5387e-11
-1.54754e-11
-1.55624e-11
-1.5648e-11
-1.57325e-11
-1.58158e-11
-1.58981e-11
-1.59795e-11
-1.60601e-11
-1.61399e-11
-1.62192e-11
-1.6298e-11
-1.63763e-11
-1.64542e-11
-1.65316e-11
-1.66084e-11
-1.66847e-11
-1.67603e-11
-1.68351e-11
-1.69089e-11
-1.69818e-11
-1.70539e-11
-1.71255e-11
-1.71972e-11
-1.72698e-11
-1.73444e-11
-1.74223e-11
-1.75053e-11
-1.75953e-11
-1.76944e-11
-1.78037e-11
-1.79225e-11
-1.80457e-11
-1.81641e-11
-1.8265e-11
-1.83361e-11
-1.83721e-11
-1.83828e-11
-1.83847e-11
-1.83836e-11
1.22958e-09
6.23683e-09
9.4228e-09
1.13085e-08
1.2628e-08
1.37345e-08
1.48191e-08
1.59955e-08
1.73178e-08
1.87852e-08
2.03928e-08
2.21289e-08
2.39776e-08
2.59212e-08
2.79392e-08
3.00125e-08
3.21193e-08
3.42389e-08
3.6351e-08
3.8437e-08
4.04811e-08
4.24705e-08
4.43967e-08
4.62547e-08
4.80417e-08
4.97559e-08
5.13947e-08
5.29531e-08
5.44225e-08
5.57901e-08
5.70379e-08
5.81419e-08
5.90694e-08
5.97699e-08
6.0169e-08
6.01811e-08
5.97485e-08
5.8879e-08
5.76507e-08
5.61806e-08
5.45859e-08
5.29604e-08
5.1368e-08
4.98472e-08
4.84184e-08
4.70903e-08
4.58645e-08
4.47388e-08
4.3709e-08
4.27698e-08
4.19158e-08
4.11416e-08
4.0442e-08
3.98122e-08
3.92476e-08
3.87441e-08
3.82974e-08
3.78966e-08
3.75407e-08
3.72286e-08
3.69591e-08
3.67308e-08
3.65419e-08
3.63903e-08
3.62737e-08
3.61892e-08
3.61338e-08
3.61041e-08
3.60964e-08
3.61069e-08
3.61317e-08
3.61672e-08
3.62097e-08
3.62562e-08
3.63037e-08
3.63496e-08
3.63925e-08
3.64305e-08
3.64619e-08
3.64859e-08
3.65017e-08
3.65081e-08
3.65049e-08
3.64907e-08
3.64672e-08
3.6431e-08
3.63882e-08
3.63273e-08
3.62748e-08
3.61941e-08
3.60976e-08
3.60778e-08
3.51137e-08
3.4468e-08
3.38791e-08
3.32258e-08
3.26872e-08
3.14862e-08
3.18964e-08
2.78176e-08
3.45131e-08
-6.40799e-08
-1.50605e-07
-1.58521e-07
-1.58343e-07
-1.58359e-07
-1.58356e-07
-1.58352e-07
-1.58346e-07
-1.58338e-07
-1.58327e-07
-1.58314e-07
-1.58299e-07
-1.58281e-07
-1.58261e-07
-1.58239e-07
-1.58219e-07
-1.58197e-07
-1.58173e-07
-1.58149e-07
-1.58109e-07
-1.58081e-07
-1.58079e-07
-1.58079e-07
-1.58079e-07
-1.58079e-07
-1.58079e-07
-1.58079e-07
-1.58079e-07
-1.58079e-07
-1.58079e-07
-1.58079e-07
-1.58079e-07
-1.58079e-07
-1.58079e-07
-1.58079e-07
-1.58079e-07
-1.58079e-07
-1.58079e-07
-1.58079e-07
-1.58079e-07
-1.58079e-07
-1.58079e-07
-1.58079e-07
-1.58079e-07
-1.58079e-07
-1.58079e-07
-1.58079e-07
-1.58079e-07
-1.58079e-07
-1.58079e-07
-1.58079e-07
-1.58079e-07
-1.58079e-07
-1.58079e-07
-1.58079e-07
-1.58079e-07
-1.58079e-07
-1.58079e-07
-1.58079e-07
-1.58079e-07
-1.58079e-07
-1.58079e-07
-1.58079e-07
-1.58079e-07
-1.58079e-07
-1.58079e-07
-1.58079e-07
-1.58079e-07
-1.58079e-07
-1.58079e-07
-1.58079e-07
-1.58079e-07
-1.58079e-07
-1.58079e-07
-1.58079e-07
-1.58079e-07
-1.58079e-07
-1.58079e-07
-1.58079e-07
-1.58079e-07
-1.58079e-07
-1.58079e-07
-1.58079e-07
-1.58079e-07
-1.58079e-07
-1.58079e-07
-1.58079e-07
-1.58079e-07
-1.58079e-07
-1.58079e-07
-1.58079e-07
-1.58079e-07
-1.58079e-07
-1.58079e-07
-1.58079e-07
-1.58079e-07
-1.58079e-07
-1.58079e-07
-1.58079e-07
-1.58079e-07
-1.58079e-07
-1.58079e-07
-1.58079e-07
-1.58079e-07
-1.58079e-07
-1.58079e-07
-1.58079e-07
-1.58079e-07
-1.58079e-07
-1.58079e-07
-1.58078e-07
-1.58061e-07
-1.57353e-07
-1.32416e-07
)
;

boundaryField
{
    inandouthalf11
    {
        type            cyclic;
        value           nonuniform List<scalar> 
100
(
-2.01341e-38
-1.48256e-14
-3.11883e-14
-4.61754e-14
-6.1668e-14
-7.80074e-14
-9.47762e-14
-1.11756e-13
-1.28919e-13
-1.46276e-13
-1.63829e-13
-1.81564e-13
-1.99463e-13
-2.17504e-13
-2.35666e-13
-2.53932e-13
-2.72286e-13
-2.90709e-13
-3.09182e-13
-3.27684e-13
-3.46196e-13
-3.64698e-13
-3.83174e-13
-4.01607e-13
-4.19979e-13
-4.38277e-13
-4.56486e-13
-4.74594e-13
-4.92591e-13
-5.10467e-13
-5.28213e-13
-5.45824e-13
-5.63293e-13
-5.80617e-13
-5.97794e-13
-6.14822e-13
-6.31698e-13
-6.48426e-13
-6.65006e-13
-6.81441e-13
-6.97733e-13
-7.13886e-13
-7.29902e-13
-7.45786e-13
-7.61545e-13
-7.77182e-13
-7.92701e-13
-8.08105e-13
-8.23398e-13
-8.38589e-13
-8.5368e-13
-8.68676e-13
-8.83579e-13
-8.98394e-13
-9.13124e-13
-9.27773e-13
-9.42342e-13
-9.56833e-13
-9.71246e-13
-9.85583e-13
-9.99844e-13
-1.01404e-12
-1.02816e-12
-1.04221e-12
-1.0562e-12
-1.07011e-12
-1.08395e-12
-1.09773e-12
-1.11142e-12
-1.12504e-12
-1.13858e-12
-1.15205e-12
-1.16544e-12
-1.17875e-12
-1.19198e-12
-1.20513e-12
-1.21821e-12
-1.23119e-12
-1.24408e-12
-1.25687e-12
-1.26957e-12
-1.28217e-12
-1.29466e-12
-1.30706e-12
-1.31936e-12
-1.33155e-12
-1.34364e-12
-1.35562e-12
-1.36749e-12
-1.37924e-12
-1.39087e-12
-1.40237e-12
-1.41375e-12
-1.42501e-12
-1.43615e-12
-1.44715e-12
-1.45804e-12
-1.46879e-12
-1.47942e-12
-1.48991e-12
)
;
    }
    inandouthalf12
    {
        type            cyclic;
        value           nonuniform List<scalar> 
100
(
2.01341e-38
1.48256e-14
3.11883e-14
4.61754e-14
6.1668e-14
7.80074e-14
9.47762e-14
1.11756e-13
1.28919e-13
1.46276e-13
1.63829e-13
1.81564e-13
1.99463e-13
2.17504e-13
2.35666e-13
2.53932e-13
2.72286e-13
2.90709e-13
3.09182e-13
3.27684e-13
3.46196e-13
3.64698e-13
3.83174e-13
4.01607e-13
4.19979e-13
4.38277e-13
4.56486e-13
4.74594e-13
4.92591e-13
5.10467e-13
5.28213e-13
5.45824e-13
5.63293e-13
5.80617e-13
5.97794e-13
6.14822e-13
6.31698e-13
6.48426e-13
6.65006e-13
6.81441e-13
6.97733e-13
7.13886e-13
7.29902e-13
7.45786e-13
7.61545e-13
7.77182e-13
7.92701e-13
8.08105e-13
8.23398e-13
8.38589e-13
8.5368e-13
8.68676e-13
8.83579e-13
8.98394e-13
9.13124e-13
9.27773e-13
9.42342e-13
9.56833e-13
9.71246e-13
9.85583e-13
9.99844e-13
1.01404e-12
1.02816e-12
1.04221e-12
1.0562e-12
1.07011e-12
1.08395e-12
1.09773e-12
1.11142e-12
1.12504e-12
1.13858e-12
1.15205e-12
1.16544e-12
1.17875e-12
1.19198e-12
1.20513e-12
1.21821e-12
1.23119e-12
1.24408e-12
1.25687e-12
1.26957e-12
1.28217e-12
1.29466e-12
1.30706e-12
1.31936e-12
1.33155e-12
1.34364e-12
1.35562e-12
1.36749e-12
1.37924e-12
1.39087e-12
1.40237e-12
1.41375e-12
1.42501e-12
1.43615e-12
1.44715e-12
1.45804e-12
1.46879e-12
1.47942e-12
1.48991e-12
)
;
    }
    inandouthalf21
    {
        type            cyclic;
        value           nonuniform List<scalar> 
100
(
-1.50028e-12
-1.5105e-12
-1.5206e-12
-1.53056e-12
-1.54039e-12
-1.55009e-12
-1.55967e-12
-1.56913e-12
-1.57849e-12
-1.58775e-12
-1.59693e-12
-1.60604e-12
-1.61509e-12
-1.62409e-12
-1.63307e-12
-1.64203e-12
-1.65099e-12
-1.65995e-12
-1.66892e-12
-1.6779e-12
-1.68687e-12
-1.69584e-12
-1.7048e-12
-1.71374e-12
-1.72266e-12
-1.73157e-12
-1.74051e-12
-1.74953e-12
-1.75874e-12
-1.76827e-12
-1.77831e-12
-1.78909e-12
-1.8009e-12
-1.81407e-12
-1.82894e-12
-1.84568e-12
-1.86401e-12
-1.88295e-12
-1.90074e-12
-1.91503e-12
-1.92367e-12
-1.92692e-12
-1.92759e-12
-1.92782e-12
-1.92811e-12
-7.37808e-08
-1.87656e-07
-2.91351e-07
-3.82648e-07
-4.6388e-07
-5.36977e-07
-6.03345e-07
-6.64028e-07
-7.19649e-07
-7.70788e-07
-8.17948e-07
-8.61561e-07
-9.02001e-07
-9.39587e-07
-9.74596e-07
-1.00727e-06
-1.03782e-06
-1.06641e-06
-1.0932e-06
-1.11833e-06
-1.14188e-06
-1.16395e-06
-1.18461e-06
-1.2039e-06
-1.22185e-06
-1.23849e-06
-1.25382e-06
-1.26785e-06
-1.28057e-06
-1.292e-06
-1.30215e-06
-1.31103e-06
-1.31871e-06
-1.32525e-06
-1.33075e-06
-1.3353e-06
-1.33904e-06
-1.3421e-06
-1.34458e-06
-1.3466e-06
-1.34824e-06
-1.34955e-06
-1.35061e-06
-1.35144e-06
-1.35209e-06
-1.35258e-06
-1.35293e-06
-1.35317e-06
-1.35331e-06
-1.35337e-06
-1.35336e-06
-1.35329e-06
-1.35317e-06
-1.35301e-06
-1.35282e-06
)
;
    }
    inandouthalf22
    {
        type            cyclic;
        value           nonuniform List<scalar> 
100
(
1.50028e-12
1.5105e-12
1.5206e-12
1.53056e-12
1.54039e-12
1.55009e-12
1.55967e-12
1.56913e-12
1.57849e-12
1.58775e-12
1.59693e-12
1.60604e-12
1.61509e-12
1.62409e-12
1.63307e-12
1.64203e-12
1.65099e-12
1.65995e-12
1.66892e-12
1.6779e-12
1.68687e-12
1.69584e-12
1.7048e-12
1.71374e-12
1.72266e-12
1.73157e-12
1.74051e-12
1.74953e-12
1.75874e-12
1.76827e-12
1.77831e-12
1.78909e-12
1.8009e-12
1.81407e-12
1.82894e-12
1.84568e-12
1.86401e-12
1.88295e-12
1.90074e-12
1.91503e-12
1.92367e-12
1.92692e-12
1.92759e-12
1.92782e-12
1.92811e-12
7.37808e-08
1.87656e-07
2.91351e-07
3.82648e-07
4.6388e-07
5.36977e-07
6.03345e-07
6.64028e-07
7.19649e-07
7.70788e-07
8.17948e-07
8.61561e-07
9.02001e-07
9.39587e-07
9.74596e-07
1.00727e-06
1.03782e-06
1.06641e-06
1.0932e-06
1.11833e-06
1.14188e-06
1.16395e-06
1.18461e-06
1.2039e-06
1.22185e-06
1.23849e-06
1.25382e-06
1.26785e-06
1.28057e-06
1.292e-06
1.30215e-06
1.31103e-06
1.31871e-06
1.32525e-06
1.33075e-06
1.3353e-06
1.33904e-06
1.3421e-06
1.34458e-06
1.3466e-06
1.34824e-06
1.34955e-06
1.35061e-06
1.35144e-06
1.35209e-06
1.35258e-06
1.35293e-06
1.35317e-06
1.35331e-06
1.35337e-06
1.35336e-06
1.35329e-06
1.35317e-06
1.35301e-06
1.35282e-06
)
;
    }
    inandouthalf31
    {
        type            cyclic;
        value           nonuniform List<scalar> 
110
(
-1.35261e-06
-1.37983e-06
-1.40757e-06
-1.43585e-06
-1.46468e-06
-1.49407e-06
-1.52404e-06
-1.5546e-06
-1.58576e-06
-1.61755e-06
-1.64996e-06
-1.68302e-06
-1.71673e-06
-1.75113e-06
-1.78621e-06
-1.82201e-06
-1.85852e-06
-1.89578e-06
-1.93379e-06
-1.97257e-06
-2.01214e-06
-2.05251e-06
-2.0937e-06
-2.13573e-06
-2.17862e-06
-2.22239e-06
-2.26705e-06
-2.31262e-06
-2.35913e-06
-2.4066e-06
-2.45505e-06
-2.50451e-06
-2.55501e-06
-2.60658e-06
-2.65925e-06
-2.71309e-06
-2.76808e-06
-2.8174e-06
-2.86901e-06
-2.92181e-06
-2.97562e-06
-3.02998e-06
-3.08614e-06
-3.14206e-06
-3.20093e-06
-3.25804e-06
-3.32053e-06
-3.38246e-06
-3.44437e-06
-3.50812e-06
-3.57319e-06
-3.63968e-06
-3.70769e-06
-3.77732e-06
-3.84867e-06
-3.92185e-06
-3.99701e-06
-4.07427e-06
-4.15378e-06
-4.23567e-06
-4.32015e-06
-4.40727e-06
-4.49698e-06
-4.58933e-06
-4.68404e-06
-4.77999e-06
-4.87713e-06
-4.97613e-06
-5.07713e-06
-5.18018e-06
-5.28533e-06
-5.39261e-06
-5.50206e-06
-5.61374e-06
-5.72768e-06
-5.84394e-06
-5.96256e-06
-6.08358e-06
-6.20706e-06
-6.33305e-06
-6.46159e-06
-6.59274e-06
-6.72656e-06
-6.86309e-06
-7.00239e-06
-7.14452e-06
-7.28954e-06
-7.4375e-06
-7.58846e-06
-7.74248e-06
-7.89964e-06
-8.05998e-06
-8.22357e-06
-8.39049e-06
-8.56079e-06
-8.73456e-06
-8.91184e-06
-9.09273e-06
-9.27729e-06
-9.46559e-06
-9.65772e-06
-9.85375e-06
-1.00538e-05
-1.02578e-05
-1.0466e-05
-1.06785e-05
-1.08952e-05
-1.11163e-05
-1.1342e-05
-1.15722e-05
)
;
    }
    inandouthalf32
    {
        type            cyclic;
        value           nonuniform List<scalar> 
110
(
1.35261e-06
1.37983e-06
1.40757e-06
1.43585e-06
1.46468e-06
1.49407e-06
1.52404e-06
1.5546e-06
1.58576e-06
1.61755e-06
1.64996e-06
1.68302e-06
1.71673e-06
1.75113e-06
1.78621e-06
1.82201e-06
1.85852e-06
1.89578e-06
1.93379e-06
1.97257e-06
2.01214e-06
2.05251e-06
2.0937e-06
2.13573e-06
2.17862e-06
2.22239e-06
2.26705e-06
2.31262e-06
2.35913e-06
2.4066e-06
2.45505e-06
2.50451e-06
2.55501e-06
2.60658e-06
2.65925e-06
2.71309e-06
2.76808e-06
2.8174e-06
2.86901e-06
2.92181e-06
2.97562e-06
3.02998e-06
3.08614e-06
3.14206e-06
3.20093e-06
3.25804e-06
3.32053e-06
3.38246e-06
3.44437e-06
3.50812e-06
3.57319e-06
3.63968e-06
3.70769e-06
3.77732e-06
3.84867e-06
3.92185e-06
3.99701e-06
4.07427e-06
4.15378e-06
4.23567e-06
4.32015e-06
4.40727e-06
4.49698e-06
4.58933e-06
4.68404e-06
4.77999e-06
4.87713e-06
4.97613e-06
5.07713e-06
5.18018e-06
5.28533e-06
5.39261e-06
5.50206e-06
5.61374e-06
5.72768e-06
5.84394e-06
5.96256e-06
6.08358e-06
6.20706e-06
6.33305e-06
6.46159e-06
6.59274e-06
6.72656e-06
6.86309e-06
7.00239e-06
7.14452e-06
7.28954e-06
7.4375e-06
7.58846e-06
7.74248e-06
7.89964e-06
8.05998e-06
8.22357e-06
8.39049e-06
8.56079e-06
8.73456e-06
8.91184e-06
9.09273e-06
9.27729e-06
9.46559e-06
9.65772e-06
9.85375e-06
1.00538e-05
1.02578e-05
1.0466e-05
1.06785e-05
1.08952e-05
1.11163e-05
1.1342e-05
1.15722e-05
)
;
    }
    inandouthalf41
    {
        type            cyclic;
        value           nonuniform List<scalar> 
50
(
-1.03583e-05
-1.03583e-05
-1.03583e-05
-1.03583e-05
-1.03583e-05
-1.03583e-05
-1.03583e-05
-1.03583e-05
-1.03583e-05
-1.03583e-05
-1.03583e-05
-1.03583e-05
-1.03583e-05
-1.03583e-05
-1.03583e-05
-1.03583e-05
-1.03583e-05
-1.03583e-05
-1.03583e-05
-1.03583e-05
-1.03583e-05
-1.03583e-05
-1.03583e-05
-1.03583e-05
-1.03583e-05
-1.03583e-05
-1.03583e-05
-1.03583e-05
-1.03583e-05
-1.03583e-05
-1.03583e-05
-1.03583e-05
-1.03583e-05
-1.03583e-05
-1.03583e-05
-1.03583e-05
-1.03583e-05
-1.03583e-05
-1.03583e-05
-1.03583e-05
-1.03583e-05
-1.03583e-05
-1.03583e-05
-1.03583e-05
-1.03583e-05
-1.03583e-05
-1.03583e-05
-1.03583e-05
-1.03581e-05
-1.0354e-05
)
;
    }
    inandouthalf42
    {
        type            cyclic;
        value           nonuniform List<scalar> 
50
(
1.03583e-05
1.03583e-05
1.03583e-05
1.03583e-05
1.03583e-05
1.03583e-05
1.03583e-05
1.03583e-05
1.03583e-05
1.03583e-05
1.03583e-05
1.03583e-05
1.03583e-05
1.03583e-05
1.03583e-05
1.03583e-05
1.03583e-05
1.03583e-05
1.03583e-05
1.03583e-05
1.03583e-05
1.03583e-05
1.03583e-05
1.03583e-05
1.03583e-05
1.03583e-05
1.03583e-05
1.03583e-05
1.03583e-05
1.03583e-05
1.03583e-05
1.03583e-05
1.03583e-05
1.03583e-05
1.03583e-05
1.03583e-05
1.03583e-05
1.03583e-05
1.03583e-05
1.03583e-05
1.03583e-05
1.03583e-05
1.03583e-05
1.03583e-05
1.03583e-05
1.03583e-05
1.03583e-05
1.03583e-05
1.03581e-05
1.0354e-05
)
;
    }
    top
    {
        type            symmetryPlane;
        value           uniform 0;
    }
    walls
    {
        type            fixedValue;
        value           uniform 0;
    }
    frontAndBackPlanes
    {
        type            empty;
        value           nonuniform 0();
    }
}


// ************************************************************************* //
