/*--------------------------------*- C++ -*----------------------------------*\
| =========                 |                                                 |
| \\      /  F ield         | OpenFOAM: The Open Source CFD Toolbox           |
|  \\    /   O peration     | Version:  2.4.x                                 |
|   \\  /    A nd           | Web:      www.OpenFOAM.org                      |
|    \\/     M anipulation  |                                                 |
\*---------------------------------------------------------------------------*/
FoamFile
{
    version     2.0;
    format      ascii;
    class       surfaceScalarField;
    location    "8.6";
    object      phib;
}
// * * * * * * * * * * * * * * * * * * * * * * * * * * * * * * * * * * * * * //

dimensions      [0 3 -1 0 0 0 0];

internalField   nonuniform List<scalar> 
359
(
1.76266e-13
4.44843e-13
6.98055e-13
9.46276e-13
1.20542e-12
1.47362e-12
1.74621e-12
2.02159e-12
2.29964e-12
2.58055e-12
2.86428e-12
3.15052e-12
3.43894e-12
3.72919e-12
4.02099e-12
4.31408e-12
4.60818e-12
4.90298e-12
5.19815e-12
5.49344e-12
5.78846e-12
6.08296e-12
6.37667e-12
6.66932e-12
6.96067e-12
7.25048e-12
7.53853e-12
7.82468e-12
8.10875e-12
8.39059e-12
8.67007e-12
8.94716e-12
9.22167e-12
9.4937e-12
9.76309e-12
1.00299e-11
1.0294e-11
1.05556e-11
1.08147e-11
1.10711e-11
1.13251e-11
1.15767e-11
1.18259e-11
1.20729e-11
1.23176e-11
1.25601e-11
1.28006e-11
1.3039e-11
1.32754e-11
1.35101e-11
1.37429e-11
1.3974e-11
1.42033e-11
1.4431e-11
1.46571e-11
1.48817e-11
1.51047e-11
1.53263e-11
1.55463e-11
1.57648e-11
1.59819e-11
1.61976e-11
1.64119e-11
1.66249e-11
1.68364e-11
1.70465e-11
1.72552e-11
1.74624e-11
1.76681e-11
1.78722e-11
1.80748e-11
1.82759e-11
1.84754e-11
1.86734e-11
1.88698e-11
1.90646e-11
1.92577e-11
1.9449e-11
1.96386e-11
1.98262e-11
2.0012e-11
2.01958e-11
2.03777e-11
2.05577e-11
2.07357e-11
2.09117e-11
2.10857e-11
2.12575e-11
2.14272e-11
2.15947e-11
2.17598e-11
2.19226e-11
2.20831e-11
2.22412e-11
2.2397e-11
2.25504e-11
2.27014e-11
2.285e-11
2.29961e-11
2.31397e-11
2.32807e-11
2.34192e-11
2.35551e-11
2.36885e-11
2.38193e-11
2.39477e-11
2.40736e-11
2.41972e-11
2.43186e-11
2.4438e-11
2.45554e-11
2.4671e-11
2.4785e-11
2.48976e-11
2.50089e-11
2.5119e-11
2.52279e-11
2.53358e-11
2.54424e-11
2.55478e-11
2.56517e-11
2.5754e-11
2.58545e-11
2.59529e-11
2.60494e-11
2.61439e-11
2.62369e-11
2.63293e-11
2.64221e-11
2.65172e-11
2.66164e-11
2.67223e-11
2.68376e-11
2.69652e-11
2.7107e-11
2.72615e-11
2.74211e-11
2.75704e-11
2.76891e-11
2.77582e-11
2.77731e-11
2.77466e-11
2.76955e-11
2.68999e-11
-1.20135e-09
-3.44948e-09
-3.84933e-09
-3.87088e-09
-3.77618e-09
-3.64894e-09
-3.52123e-09
-3.40151e-09
-3.29101e-09
-3.18544e-09
-3.07881e-09
-2.96607e-09
-2.84383e-09
-2.71039e-09
-2.56541e-09
-2.40995e-09
-2.24566e-09
-2.07487e-09
-1.90024e-09
-1.72458e-09
-1.55071e-09
-1.38127e-09
-1.21865e-09
-1.06482e-09
-9.21334e-10
-7.89281e-10
-6.69306e-10
-5.6167e-10
-4.6631e-10
-3.82895e-10
-3.10878e-10
-2.49524e-10
-1.97928e-10
-1.55042e-10
-1.19784e-10
-9.12093e-11
-6.85658e-11
-5.11726e-11
-3.82505e-11
-2.8899e-11
-2.22157e-11
-1.74288e-11
-1.3954e-11
-1.13819e-11
-9.43711e-12
-7.93592e-12
-6.7551e-12
-5.81053e-12
-5.04363e-12
-4.41277e-12
-3.88776e-12
-3.44629e-12
-3.07161e-12
-2.75094e-12
-2.47438e-12
-2.23417e-12
-2.02415e-12
-1.83588e-12
-1.66646e-12
-1.51341e-12
-1.37464e-12
-1.24834e-12
-1.13295e-12
-1.02711e-12
-9.29683e-13
-8.39704e-13
-7.56395e-13
-6.79154e-13
-6.07491e-13
-5.4101e-13
-4.79482e-13
-4.22779e-13
-3.70768e-13
-3.23322e-13
-2.80346e-13
-2.41745e-13
-2.07321e-13
-1.76804e-13
-1.4996e-13
-1.26529e-13
-1.06193e-13
-8.86507e-14
-7.36128e-14
-6.08086e-14
-4.99512e-14
-4.08038e-14
-3.31185e-14
-2.67549e-14
-2.13944e-14
-1.68907e-14
-1.354e-14
-1.07903e-14
-7.9969e-15
-5.80446e-15
-4.14528e-15
-2.89569e-15
-1.96993e-15
-1.27163e-15
-8.02935e-16
-4.03238e-16
-2.25788e-16
8.20137e-17
8.44932e-18
8.19411e-18
7.89435e-18
7.62823e-18
7.3221e-18
7.04548e-18
6.72801e-18
6.4357e-18
6.10807e-18
5.80581e-18
5.47435e-18
5.1663e-18
4.83214e-18
4.52075e-18
4.19539e-18
3.89665e-18
3.59397e-18
3.33382e-18
3.10243e-18
2.91071e-18
2.75614e-18
2.5969e-18
2.4525e-18
2.31967e-18
2.18926e-18
2.06644e-18
1.96483e-18
1.86932e-18
1.77601e-18
1.68053e-18
1.59198e-18
1.49969e-18
1.40843e-18
1.31675e-18
1.24202e-18
1.16724e-18
1.09545e-18
1.02078e-18
9.50197e-19
8.77768e-19
7.11499e-19
6.36887e-19
5.65765e-19
4.92896e-19
4.2048e-19
3.46644e-19
2.76023e-19
2.04951e-19
1.37016e-19
6.61356e-20
7.48565e-20
5.85197e-20
4.59201e-20
-2.29129e-22
-8.24451e-21
-1.48926e-20
-2.00467e-20
-2.32264e-20
-3.0542e-20
-3.24247e-20
-3.48938e-20
-3.06843e-20
-3.17306e-20
-2.39543e-20
-1.61681e-20
-4.38488e-21
-1.52946e-21
6.56699e-21
1.3507e-20
2.63002e-20
3.60378e-20
5.04952e-20
6.49221e-20
8.23748e-20
1.08204e-19
1.34691e-19
1.61394e-19
1.87055e-19
2.35931e-19
2.75392e-19
3.34799e-19
3.4166e-19
7.81541e-19
1.1678e-18
1.57596e-18
1.96839e-18
2.39193e-18
2.80129e-18
3.21485e-18
3.61273e-18
4.06425e-18
4.48981e-18
4.91855e-18
5.31393e-18
5.76276e-18
6.16224e-18
6.587e-18
6.94977e-18
7.77144e-18
8.50014e-18
9.25763e-18
9.88346e-18
1.0704e-17
1.13058e-17
1.19824e-17
1.25216e-17
1.3929e-17
1.48969e-17
1.59648e-17
1.65241e-17
1.74665e-17
1.84349e-17
2.10726e-17
)
;

boundaryField
{
    inandouthalf11
    {
        type            cyclic;
        value           nonuniform List<scalar> 
100
(
-1.66099e-10
-1.65212e-10
-1.65098e-10
-1.65235e-10
-1.65311e-10
-1.65347e-10
-1.65388e-10
-1.65436e-10
-1.65485e-10
-1.65534e-10
-1.65585e-10
-1.65635e-10
-1.65686e-10
-1.65737e-10
-1.65789e-10
-1.65841e-10
-1.65894e-10
-1.65947e-10
-1.66e-10
-1.66054e-10
-1.66108e-10
-1.66163e-10
-1.66218e-10
-1.66273e-10
-1.66328e-10
-1.66384e-10
-1.6644e-10
-1.66496e-10
-1.66553e-10
-1.66609e-10
-1.66666e-10
-1.66723e-10
-1.66781e-10
-1.66839e-10
-1.66896e-10
-1.66955e-10
-1.67013e-10
-1.67072e-10
-1.67131e-10
-1.6719e-10
-1.6725e-10
-1.6731e-10
-1.6737e-10
-1.67431e-10
-1.67492e-10
-1.67553e-10
-1.67615e-10
-1.67677e-10
-1.6774e-10
-1.67803e-10
-1.67866e-10
-1.6793e-10
-1.67995e-10
-1.6806e-10
-1.68125e-10
-1.68192e-10
-1.68258e-10
-1.68326e-10
-1.68393e-10
-1.68461e-10
-1.68531e-10
-1.686e-10
-1.68671e-10
-1.68742e-10
-1.68814e-10
-1.68886e-10
-1.68959e-10
-1.69033e-10
-1.69108e-10
-1.69183e-10
-1.6926e-10
-1.69337e-10
-1.69415e-10
-1.69494e-10
-1.69574e-10
-1.69655e-10
-1.69736e-10
-1.69819e-10
-1.69903e-10
-1.69988e-10
-1.70073e-10
-1.7016e-10
-1.70248e-10
-1.70337e-10
-1.70428e-10
-1.7052e-10
-1.70613e-10
-1.70707e-10
-1.70803e-10
-1.709e-10
-1.70998e-10
-1.71098e-10
-1.712e-10
-1.71303e-10
-1.71408e-10
-1.71515e-10
-1.71623e-10
-1.71734e-10
-1.71846e-10
-1.71961e-10
)
;
    }
    inandouthalf12
    {
        type            cyclic;
        value           nonuniform List<scalar> 
100
(
1.66099e-10
1.65212e-10
1.65098e-10
1.65235e-10
1.65311e-10
1.65347e-10
1.65388e-10
1.65436e-10
1.65485e-10
1.65534e-10
1.65585e-10
1.65635e-10
1.65686e-10
1.65737e-10
1.65789e-10
1.65841e-10
1.65894e-10
1.65947e-10
1.66e-10
1.66054e-10
1.66108e-10
1.66163e-10
1.66218e-10
1.66273e-10
1.66328e-10
1.66384e-10
1.6644e-10
1.66496e-10
1.66553e-10
1.66609e-10
1.66666e-10
1.66723e-10
1.66781e-10
1.66839e-10
1.66896e-10
1.66955e-10
1.67013e-10
1.67072e-10
1.67131e-10
1.6719e-10
1.6725e-10
1.6731e-10
1.6737e-10
1.67431e-10
1.67492e-10
1.67553e-10
1.67615e-10
1.67677e-10
1.6774e-10
1.67803e-10
1.67866e-10
1.6793e-10
1.67995e-10
1.6806e-10
1.68125e-10
1.68192e-10
1.68258e-10
1.68326e-10
1.68393e-10
1.68461e-10
1.68531e-10
1.686e-10
1.68671e-10
1.68742e-10
1.68814e-10
1.68886e-10
1.68959e-10
1.69033e-10
1.69108e-10
1.69183e-10
1.6926e-10
1.69337e-10
1.69415e-10
1.69494e-10
1.69574e-10
1.69655e-10
1.69736e-10
1.69819e-10
1.69903e-10
1.69988e-10
1.70073e-10
1.7016e-10
1.70248e-10
1.70337e-10
1.70428e-10
1.7052e-10
1.70613e-10
1.70707e-10
1.70803e-10
1.709e-10
1.70998e-10
1.71098e-10
1.712e-10
1.71303e-10
1.71408e-10
1.71515e-10
1.71623e-10
1.71734e-10
1.71846e-10
1.71961e-10
)
;
    }
    inandouthalf21
    {
        type            cyclic;
        value           nonuniform List<scalar> 
100
(
-1.72077e-10
-1.72196e-10
-1.72317e-10
-1.7244e-10
-1.72567e-10
-1.72695e-10
-1.72827e-10
-1.72961e-10
-1.73098e-10
-1.73239e-10
-1.73382e-10
-1.7353e-10
-1.73681e-10
-1.73835e-10
-1.73994e-10
-1.74157e-10
-1.74324e-10
-1.74496e-10
-1.74673e-10
-1.74855e-10
-1.75042e-10
-1.75235e-10
-1.75434e-10
-1.7564e-10
-1.75852e-10
-1.76071e-10
-1.76299e-10
-1.76535e-10
-1.76781e-10
-1.77037e-10
-1.77305e-10
-1.77585e-10
-1.77878e-10
-1.78188e-10
-1.78518e-10
-1.78868e-10
-1.79236e-10
-1.79627e-10
-1.80058e-10
-1.80548e-10
-1.81074e-10
-1.8158e-10
-1.82185e-10
-1.83975e-10
-8.28321e-10
-8.14043e-08
-1.9897e-07
-3.02034e-07
-3.9248e-07
-4.7304e-07
-5.45619e-07
-6.11529e-07
-6.717e-07
-7.26878e-07
-7.77665e-07
-8.2456e-07
-8.6799e-07
-9.08319e-07
-9.45862e-07
-9.80889e-07
-1.01364e-06
-1.04432e-06
-1.0731e-06
-1.10015e-06
-1.1256e-06
-1.14956e-06
-1.17213e-06
-1.19341e-06
-1.21346e-06
-1.23235e-06
-1.25011e-06
-1.2668e-06
-1.28243e-06
-1.29703e-06
-1.31059e-06
-1.32312e-06
-1.33462e-06
-1.34506e-06
-1.35446e-06
-1.36279e-06
-1.37008e-06
-1.37636e-06
-1.38168e-06
-1.3861e-06
-1.38974e-06
-1.39268e-06
-1.39502e-06
-1.39687e-06
-1.3983e-06
-1.39939e-06
-1.40019e-06
-1.40076e-06
-1.40114e-06
-1.40135e-06
-1.40143e-06
-1.40138e-06
-1.40124e-06
-1.401e-06
-1.40069e-06
-1.40031e-06
)
;
    }
    inandouthalf22
    {
        type            cyclic;
        value           nonuniform List<scalar> 
100
(
1.72077e-10
1.72196e-10
1.72317e-10
1.7244e-10
1.72567e-10
1.72695e-10
1.72827e-10
1.72961e-10
1.73098e-10
1.73239e-10
1.73382e-10
1.7353e-10
1.73681e-10
1.73835e-10
1.73994e-10
1.74157e-10
1.74324e-10
1.74496e-10
1.74673e-10
1.74855e-10
1.75042e-10
1.75235e-10
1.75434e-10
1.7564e-10
1.75852e-10
1.76071e-10
1.76299e-10
1.76535e-10
1.76781e-10
1.77037e-10
1.77305e-10
1.77585e-10
1.77878e-10
1.78188e-10
1.78518e-10
1.78868e-10
1.79236e-10
1.79627e-10
1.80058e-10
1.80548e-10
1.81074e-10
1.8158e-10
1.82185e-10
1.83975e-10
8.28321e-10
8.14043e-08
1.9897e-07
3.02034e-07
3.9248e-07
4.7304e-07
5.45619e-07
6.11529e-07
6.717e-07
7.26878e-07
7.77665e-07
8.2456e-07
8.6799e-07
9.08319e-07
9.45862e-07
9.80889e-07
1.01364e-06
1.04432e-06
1.0731e-06
1.10015e-06
1.1256e-06
1.14956e-06
1.17213e-06
1.19341e-06
1.21346e-06
1.23235e-06
1.25011e-06
1.2668e-06
1.28243e-06
1.29703e-06
1.31059e-06
1.32312e-06
1.33462e-06
1.34506e-06
1.35446e-06
1.36279e-06
1.37008e-06
1.37636e-06
1.38168e-06
1.3861e-06
1.38974e-06
1.39268e-06
1.39502e-06
1.39687e-06
1.3983e-06
1.39939e-06
1.40019e-06
1.40076e-06
1.40114e-06
1.40135e-06
1.40143e-06
1.40138e-06
1.40124e-06
1.401e-06
1.40069e-06
1.40031e-06
)
;
    }
    inandouthalf31
    {
        type            cyclic;
        value           nonuniform List<scalar> 
110
(
-1.39987e-06
-1.42777e-06
-1.45616e-06
-1.48505e-06
-1.51445e-06
-1.54436e-06
-1.5748e-06
-1.60577e-06
-1.63728e-06
-1.66934e-06
-1.70196e-06
-1.73514e-06
-1.76889e-06
-1.80323e-06
-1.83816e-06
-1.87368e-06
-1.90982e-06
-1.94656e-06
-1.98394e-06
-2.02194e-06
-2.06059e-06
-2.09989e-06
-2.13986e-06
-2.18049e-06
-2.2218e-06
-2.26381e-06
-2.30652e-06
-2.34994e-06
-2.39409e-06
-2.43897e-06
-2.4846e-06
-2.531e-06
-2.57817e-06
-2.62613e-06
-2.67489e-06
-2.72448e-06
-2.77491e-06
-2.8262e-06
-2.87837e-06
-2.93143e-06
-2.98542e-06
-3.04036e-06
-3.09628e-06
-3.15321e-06
-3.21118e-06
-3.27024e-06
-3.33041e-06
-3.39176e-06
-3.45434e-06
-3.51819e-06
-3.58339e-06
-3.65002e-06
-3.71816e-06
-3.78789e-06
-3.85934e-06
-3.9326e-06
-4.00783e-06
-4.08514e-06
-4.1647e-06
-4.24664e-06
-4.33111e-06
-4.41822e-06
-4.50801e-06
-4.60046e-06
-4.69535e-06
-4.79174e-06
-4.88917e-06
-4.98841e-06
-5.08966e-06
-5.19297e-06
-5.29837e-06
-5.40591e-06
-5.51564e-06
-5.62759e-06
-5.74182e-06
-5.85836e-06
-5.97727e-06
-6.09859e-06
-6.22238e-06
-6.34867e-06
-6.47754e-06
-6.60901e-06
-6.74316e-06
-6.88003e-06
-7.01967e-06
-7.16215e-06
-7.30753e-06
-7.45585e-06
-7.60718e-06
-7.76159e-06
-7.91913e-06
-8.07987e-06
-8.24386e-06
-8.41119e-06
-8.58192e-06
-8.75611e-06
-8.93383e-06
-9.11517e-06
-9.30018e-06
-9.48895e-06
-9.68155e-06
-9.87806e-06
-1.00786e-05
-1.02831e-05
-1.04918e-05
-1.07048e-05
-1.09221e-05
-1.11438e-05
-1.137e-05
-1.16007e-05
)
;
    }
    inandouthalf32
    {
        type            cyclic;
        value           nonuniform List<scalar> 
110
(
1.39987e-06
1.42777e-06
1.45616e-06
1.48505e-06
1.51445e-06
1.54436e-06
1.5748e-06
1.60577e-06
1.63728e-06
1.66934e-06
1.70196e-06
1.73514e-06
1.76889e-06
1.80323e-06
1.83816e-06
1.87368e-06
1.90982e-06
1.94656e-06
1.98394e-06
2.02194e-06
2.06059e-06
2.09989e-06
2.13986e-06
2.18049e-06
2.2218e-06
2.26381e-06
2.30652e-06
2.34994e-06
2.39409e-06
2.43897e-06
2.4846e-06
2.531e-06
2.57817e-06
2.62613e-06
2.67489e-06
2.72448e-06
2.77491e-06
2.8262e-06
2.87837e-06
2.93143e-06
2.98542e-06
3.04036e-06
3.09628e-06
3.15321e-06
3.21118e-06
3.27024e-06
3.33041e-06
3.39176e-06
3.45434e-06
3.51819e-06
3.58339e-06
3.65002e-06
3.71816e-06
3.78789e-06
3.85934e-06
3.9326e-06
4.00783e-06
4.08514e-06
4.1647e-06
4.24664e-06
4.33111e-06
4.41822e-06
4.50801e-06
4.60046e-06
4.69535e-06
4.79174e-06
4.88917e-06
4.98841e-06
5.08966e-06
5.19297e-06
5.29837e-06
5.40591e-06
5.51564e-06
5.62759e-06
5.74182e-06
5.85836e-06
5.97727e-06
6.09859e-06
6.22238e-06
6.34867e-06
6.47754e-06
6.60901e-06
6.74316e-06
6.88003e-06
7.01967e-06
7.16215e-06
7.30753e-06
7.45585e-06
7.60718e-06
7.76159e-06
7.91913e-06
8.07987e-06
8.24386e-06
8.41119e-06
8.58192e-06
8.75611e-06
8.93383e-06
9.11517e-06
9.30018e-06
9.48895e-06
9.68155e-06
9.87806e-06
1.00786e-05
1.02831e-05
1.04918e-05
1.07048e-05
1.09221e-05
1.11438e-05
1.137e-05
1.16007e-05
)
;
    }
    inandouthalf41
    {
        type            cyclic;
        value           nonuniform List<scalar> 
50
(
-1.03838e-05
-1.03838e-05
-1.03838e-05
-1.03838e-05
-1.03838e-05
-1.03838e-05
-1.03838e-05
-1.03838e-05
-1.03838e-05
-1.03838e-05
-1.03838e-05
-1.03838e-05
-1.03838e-05
-1.03838e-05
-1.03838e-05
-1.03838e-05
-1.03838e-05
-1.03838e-05
-1.03838e-05
-1.03838e-05
-1.03838e-05
-1.03838e-05
-1.03838e-05
-1.03838e-05
-1.03838e-05
-1.03838e-05
-1.03838e-05
-1.03838e-05
-1.03838e-05
-1.03838e-05
-1.03838e-05
-1.03838e-05
-1.03838e-05
-1.03838e-05
-1.03838e-05
-1.03838e-05
-1.03838e-05
-1.03838e-05
-1.03838e-05
-1.03838e-05
-1.03838e-05
-1.03838e-05
-1.03838e-05
-1.03838e-05
-1.03838e-05
-1.03838e-05
-1.03838e-05
-1.03838e-05
-1.03838e-05
-1.03838e-05
)
;
    }
    inandouthalf42
    {
        type            cyclic;
        value           nonuniform List<scalar> 
50
(
1.03838e-05
1.03838e-05
1.03838e-05
1.03838e-05
1.03838e-05
1.03838e-05
1.03838e-05
1.03838e-05
1.03838e-05
1.03838e-05
1.03838e-05
1.03838e-05
1.03838e-05
1.03838e-05
1.03838e-05
1.03838e-05
1.03838e-05
1.03838e-05
1.03838e-05
1.03838e-05
1.03838e-05
1.03838e-05
1.03838e-05
1.03838e-05
1.03838e-05
1.03838e-05
1.03838e-05
1.03838e-05
1.03838e-05
1.03838e-05
1.03838e-05
1.03838e-05
1.03838e-05
1.03838e-05
1.03838e-05
1.03838e-05
1.03838e-05
1.03838e-05
1.03838e-05
1.03838e-05
1.03838e-05
1.03838e-05
1.03838e-05
1.03838e-05
1.03838e-05
1.03838e-05
1.03838e-05
1.03838e-05
1.03838e-05
1.03838e-05
)
;
    }
    top
    {
        type            symmetryPlane;
        value           uniform 0;
    }
    walls
    {
        type            fixedValue;
        value           uniform 0;
    }
    frontAndBackPlanes
    {
        type            empty;
        value           nonuniform 0();
    }
}


// ************************************************************************* //
