/*--------------------------------*- C++ -*----------------------------------*\
| =========                 |                                                 |
| \\      /  F ield         | OpenFOAM: The Open Source CFD Toolbox           |
|  \\    /   O peration     | Version:  2.4.x                                 |
|   \\  /    A nd           | Web:      www.OpenFOAM.org                      |
|    \\/     M anipulation  |                                                 |
\*---------------------------------------------------------------------------*/
FoamFile
{
    version     2.0;
    format      ascii;
    class       volVectorField;
    location    "8.6";
    object      susb;
}
// * * * * * * * * * * * * * * * * * * * * * * * * * * * * * * * * * * * * * //

dimensions      [0 1 -2 0 0 0 0];

internalField   nonuniform List<vector> 
360
(
(0 5.90055e-18 0)
(0 6.5897e-18 0)
(0 4.02301e-20 0)
(0 -9.18155e-19 0)
(-7.39751e-31 -4.03254e-19 0)
(-3.69839e-31 -2.21071e-19 0)
(-3.69796e-31 -2.75878e-19 0)
(0 -3.1457e-19 0)
(-3.69683e-31 -3.21558e-19 0)
(0 -3.25776e-19 0)
(-3.69566e-31 -3.27574e-19 0)
(0 -3.29038e-19 0)
(-3.69448e-31 -3.31832e-19 0)
(0 -3.3469e-19 0)
(0 -3.38506e-19 0)
(0 -3.42348e-19 0)
(0 -3.45298e-19 0)
(-3.69143e-31 -3.47859e-19 0)
(0 -3.51863e-19 0)
(0 -3.54519e-19 0)
(0 -3.57291e-19 0)
(-7.37777e-31 -3.61457e-19 0)
(0 -3.64336e-19 0)
(0 -3.67737e-19 0)
(0 -3.71215e-19 0)
(-7.37249e-31 -3.73913e-19 0)
(0 -3.77825e-19 0)
(0 -3.81899e-19 0)
(0 -3.84634e-19 0)
(0 -3.87912e-19 0)
(0 -3.92767e-19 0)
(0 -3.95008e-19 0)
(0 -3.99476e-19 0)
(0 -4.04043e-19 0)
(0 -4.0669e-19 0)
(7.35843e-31 -4.10776e-19 0)
(0 -4.14653e-19 0)
(0 -4.20744e-19 0)
(0 -4.223e-19 0)
(0 -4.27106e-19 0)
(0 -4.33866e-19 0)
(0 -4.34782e-19 0)
(3.67388e-31 -4.40884e-19 0)
(0 -4.46455e-19 0)
(0 -4.49779e-19 0)
(0 -4.56495e-19 0)
(0 -4.5898e-19 0)
(0 -4.63193e-19 0)
(0 -4.72613e-19 0)
(0 -4.75595e-19 0)
(3.66728e-31 -4.79586e-19 0)
(0 -4.8669e-19 0)
(0 -4.92373e-19 0)
(0 -4.96836e-19 0)
(0 -5.03921e-19 0)
(0 -5.0967e-19 0)
(0 -5.15073e-19 0)
(0 -5.22987e-19 0)
(0 -5.2595e-19 0)
(0 -5.34913e-19 0)
(0 -5.41925e-19 0)
(0 -5.47745e-19 0)
(0 -5.56001e-19 0)
(0 -5.62061e-19 0)
(0 -5.69075e-19 0)
(0 -5.76723e-19 0)
(0 -5.85546e-19 0)
(0 -5.92716e-19 0)
(0 -5.98351e-19 0)
(0 -6.08063e-19 0)
(0 -6.19749e-19 0)
(0 -6.24657e-19 0)
(0 -6.33255e-19 0)
(0 -6.4443e-19 0)
(0 -6.53997e-19 0)
(0 -6.62989e-19 0)
(0 -6.71025e-19 0)
(0 -6.82117e-19 0)
(0 -6.9305e-19 0)
(0 -7.02782e-19 0)
(0 -7.13464e-19 0)
(0 -7.25661e-19 0)
(0 -7.3723e-19 0)
(0 -7.49174e-19 0)
(0 -7.61492e-19 0)
(0 -7.74252e-19 0)
(0 -7.87145e-19 0)
(0 -7.99998e-19 0)
(0 -8.13836e-19 0)
(0 -8.28177e-19 0)
(0 -8.42755e-19 0)
(0 -8.58153e-19 0)
(0 -8.7425e-19 0)
(0 -8.90675e-19 0)
(0 -9.07627e-19 0)
(0 -9.25129e-19 0)
(0 -9.43144e-19 0)
(0 -9.61748e-19 0)
(0 -9.81078e-19 0)
(0 -1.00116e-18 0)
(0 -1.02203e-18 0)
(0 -1.04376e-18 0)
(0 -1.06637e-18 0)
(0 -1.08984e-18 0)
(0 -1.11423e-18 0)
(0 -1.13958e-18 0)
(0 -1.16594e-18 0)
(0 -1.19336e-18 0)
(0 -1.22191e-18 0)
(0 -1.25164e-18 0)
(0 -1.2826e-18 0)
(0 -1.31484e-18 0)
(0 -1.34844e-18 0)
(0 -1.38345e-18 0)
(0 -1.41998e-18 0)
(0 -1.4581e-18 0)
(0 -1.49796e-18 0)
(0 -1.53969e-18 0)
(0 -1.58349e-18 0)
(0 -1.62955e-18 0)
(0 -1.6781e-18 0)
(0 -1.72937e-18 0)
(0 -1.78359e-18 0)
(0 -1.84106e-18 0)
(0 -1.90224e-18 0)
(0 -1.96797e-18 0)
(0 -2.03938e-18 0)
(0 -2.11756e-18 0)
(0 -2.20262e-18 0)
(0 -2.29308e-18 0)
(0 -2.38725e-18 0)
(0 -1.72192e-18 0)
(0 -3.38796e-18 0)
(0 -3.8641e-17 0)
(0 -5.02174e-16 0)
(0 -6.92928e-15 0)
(0 -1.03548e-13 0)
(0 -1.735e-12 0)
(0 -3.31295e-11 0)
(0 -6.87972e-10 0)
(0 -1.4597e-08 0)
(0 -3.69363e-07 0)
(0 -1.26072e-05 0)
(0 -0.00579454 0)
(0 -1.64985 0)
(0 -5.77084 0)
(0 -3.84177 0)
(0 -2.36415 0)
(0 -1.80953 0)
(0 -1.53414 0)
(0 -1.36615 0)
(0 -1.261 0)
(0 -1.20548 0)
(0 -1.13778 0)
(0 -1.06986 0)
(0 -1.00216 0)
(0 -0.934367 0)
(0 -0.866417 0)
(0 -0.79861 0)
(0 -0.731399 0)
(0 -0.665469 0)
(0 -0.601549 0)
(0 -0.540184 0)
(0 -0.481882 0)
(0 -0.427023 0)
(0 -0.375882 0)
(0 -0.328632 0)
(0 -0.285356 0)
(0 -0.246061 0)
(0 -0.210684 0)
(0 -0.179101 0)
(0 -0.151142 0)
(0 -0.126598 0)
(0 -0.105234 0)
(0 -0.0868022 0)
(0 -0.0710583 0)
(0 -0.0577776 0)
(0 -0.0467358 0)
(0 -0.0376554 0)
(0 -0.0301807 0)
(0 -0.023952 0)
(0 -0.0187252 0)
(0 -0.0144062 0)
(0 -0.0109686 0)
(0 -0.00835322 0)
(0 -0.00643554 0)
(0 -0.00505686 0)
(0 -0.00406666 0)
(0 -0.00334571 0)
(0 -0.00280903 0)
(0 -0.00239928 0)
(0 -0.00207852 0)
(0 -0.00182164 0)
(0 -0.00161173 0)
(0 -0.00143723 0)
(0 -0.00129001 0)
(0 -0.00116426 0)
(0 -0.00105575 0)
(0 -0.000961276 0)
(0 -0.00087848 0)
(0 -0.000805418 0)
(0 -0.000740042 0)
(-2.714e-19 -0.000680922 0)
(0 -0.000627339 0)
(0 -0.000578613 0)
(2.69096e-19 -0.00053418 0)
(0 -0.000493598 0)
(-2.65351e-19 -0.000456451 0)
(0 -0.000422261 0)
(2.60048e-19 -0.000390565 0)
(0 -0.000360894 0)
(0 -0.000332779 0)
(0 -0.000306019 0)
(1.22718e-19 -0.000280453 0)
(0 -0.000255617 0)
(0 -0.000231337 0)
(0 -0.000207848 0)
(0 -0.000185285 0)
(0 -0.00016366 0)
(-5.39233e-20 -0.000143081 0)
(0 -0.000123985 0)
(0 -0.000106621 0)
(0 -9.08323e-05 0)
(-2.4009e-20 -7.66701e-05 0)
(0 -6.42522e-05 0)
(0 -5.3425e-05 0)
(0 -4.40812e-05 0)
(0 -3.60613e-05 0)
(9.98539e-21 -2.93371e-05 0)
(0 -2.3661e-05 0)
(0 -1.90112e-05 0)
(0 -1.5004e-05 0)
(0 -1.20657e-05 0)
(0 -9.61922e-06 0)
(0 -6.78818e-06 0)
(0 -5.3452e-06 0)
(0 -4.77147e-06 0)
(0 -3.82494e-06 0)
(0 -2.86468e-06 0)
(0 -2.09963e-06 0)
(0 -1.54549e-06 0)
(0 -1.07198e-06 0)
(0 -8.15145e-07 0)
(-7.45404e-23 -5.02803e-07 0)
(3.9455e-23 -4.01461e-07 0)
(0 -2.3531e-07 0)
(0 -6.31751e-08 0)
(0 -1.00501e-18 0)
(0 -8.60303e-30 0)
(0 -6.6672e-41 0)
(-1.65732e-60 -9.32215e-45 0)
(0 -4.3028e-45 0)
(0 -2.33814e-45 0)
(0 -1.74728e-45 0)
(0 -1.20807e-45 0)
(0 -5.35959e-46 0)
(0 -1.9636e-46 0)
(0 -8.47762e-47 0)
(0 -4.15294e-47 0)
(0 -2.19166e-47 0)
(0 -9.55777e-48 0)
(0 -3.44161e-48 0)
(0 -1.2729e-48 0)
(0 -4.19693e-49 0)
(0 -9.31308e-50 0)
(0 -6.7517e-51 0)
(1.76149e-68 -9.56317e-53 0)
(0 -7.50151e-55 0)
(0 -5.63512e-57 0)
(0 -4.13241e-59 0)
(0 -2.9477e-61 0)
(0 -2.03164e-63 0)
(0 -1.23651e-65 0)
(0 -2.69912e-68 0)
(0 -3.76342e-69 0)
(0 -1.53242e-69 0)
(0 -6.10041e-70 0)
(0 -2.37228e-70 0)
(0 -9.00361e-71 0)
(0 -3.33197e-71 0)
(0 -1.20112e-71 0)
(0 -4.21313e-72 0)
(0 -1.43636e-72 0)
(0 -4.7537e-73 0)
(0 -1.52523e-73 0)
(0 -4.73758e-74 0)
(2.20878e-90 -1.42243e-74 0)
(0 -4.12129e-75 0)
(0 -1.15021e-75 0)
(0 -3.08607e-76 0)
(0 -7.9428e-77 0)
(0 -1.95633e-77 0)
(0 -4.59902e-78 0)
(0 -1.02887e-78 0)
(0 -2.18319e-79 0)
(0 -4.37772e-80 0)
(8.61501e-97 -8.26019e-81 0)
(0 -1.45953e-81 0)
(0 -2.40148e-82 0)
(-3.16837e-99 -3.65537e-83 0)
(0 -5.10712e-84 0)
(0 -6.4881e-85 0)
(0 -7.40814e-86 0)
(0 -7.49171e-87 0)
(0 -6.58323e-88 0)
(0 -4.8981e-89 0)
(0 -2.97298e-90 0)
(0 -1.38913e-91 0)
(0 -4.50577e-93 0)
(0 -7.98361e-95 0)
(0 -1.85625e-97 0)
(0 -1.13669e-102 0)
(0 -8.86576e-105 0)
(0 -3.42693e-107 0)
(0 -1.2265e-117 0)
(0 -2.20064e-128 0)
(0 -2.90095e-139 0)
(0 -2.73554e-150 0)
(0 -2.24001e-161 0)
(0 -1.37181e-172 0)
(0 -7.29283e-184 0)
(0 -4.12747e-194 0)
(0 -1.8294e-204 0)
(0 -1.32307e-212 0)
(0 -5.36586e-223 0)
(0 -4.55072e-231 0)
(0 -2.17785e-241 0)
(0 -1.56601e-249 0)
(0 -9.22366e-260 0)
(0 -5.39402e-268 0)
(0 -5.96238e-278 0)
(0 -1.8943e-286 0)
(0 -3.97572e-296 0)
(0 -6.84233e-305 0)
(0 -1.9729e-314 0)
(0 -2.47033e-323 0)
(0 -0 0)
(0 0 0)
(0 0 0)
(0 0 0)
(0 0 0)
(0 0 0)
(0 0 0)
(0 0 0)
(0 0 0)
(0 0 0)
(0 0 0)
(0 0 0)
(0 0 0)
(0 0 0)
(0 0 0)
(0 0 0)
(0 0 0)
(0 0 0)
(0 0 0)
(0 0 0)
(0 0 0)
(0 0 0)
(0 0 0)
(0 0 0)
)
;

boundaryField
{
    inandouthalf11
    {
        type            cyclic;
    }
    inandouthalf12
    {
        type            cyclic;
    }
    inandouthalf21
    {
        type            cyclic;
    }
    inandouthalf22
    {
        type            cyclic;
    }
    inandouthalf31
    {
        type            cyclic;
    }
    inandouthalf32
    {
        type            cyclic;
    }
    inandouthalf41
    {
        type            cyclic;
    }
    inandouthalf42
    {
        type            cyclic;
    }
    top
    {
        type            symmetryPlane;
    }
    walls
    {
        type            zeroGradient;
    }
    frontAndBackPlanes
    {
        type            empty;
    }
}


// ************************************************************************* //
