/*--------------------------------*- C++ -*----------------------------------*\
| =========                 |                                                 |
| \\      /  F ield         | OpenFOAM: The Open Source CFD Toolbox           |
|  \\    /   O peration     | Version:  2.4.x                                 |
|   \\  /    A nd           | Web:      www.OpenFOAM.org                      |
|    \\/     M anipulation  |                                                 |
\*---------------------------------------------------------------------------*/
FoamFile
{
    version     2.0;
    format      ascii;
    class       volTensorField;
    location    "8.6";
    object      Tauf;
}
// * * * * * * * * * * * * * * * * * * * * * * * * * * * * * * * * * * * * * //

dimensions      [0 2 -2 0 0 0 0];

internalField   nonuniform List<tensor> 
360
(
(0 3.31311e-07 0 3.31311e-07 1.9752e-10 0 0 0 0)
(0 -1.0012e-09 0 -1.0012e-09 2.42359e-10 0 0 0 0)
(0 2.26511e-11 0 2.26511e-11 2.56847e-10 0 0 0 0)
(0 2.12919e-10 0 2.12919e-10 2.52304e-10 0 0 0 0)
(-5.16988e-23 1.12182e-10 0 1.12182e-10 2.58654e-10 0 0 0 0)
(-2.58494e-23 7.71837e-11 0 7.71837e-11 2.66998e-10 0 0 0 0)
(-2.58494e-23 8.87105e-11 0 8.87105e-11 2.72193e-10 0 0 0 0)
(0 9.68294e-11 0 9.68294e-11 2.75359e-10 0 0 0 0)
(-2.58494e-23 9.86247e-11 0 9.86247e-11 2.78097e-10 0 0 0 0)
(0 9.98753e-11 0 9.98753e-11 2.809e-10 0 0 0 0)
(-2.58494e-23 1.00634e-10 0 1.00634e-10 2.83653e-10 0 0 0 0)
(0 1.01295e-10 0 1.01295e-10 2.86156e-10 0 0 0 0)
(-2.58494e-23 1.02179e-10 0 1.02179e-10 2.88334e-10 0 0 0 0)
(0 1.03035e-10 0 1.03035e-10 2.90181e-10 0 0 0 0)
(0 1.04045e-10 0 1.04045e-10 2.91732e-10 0 0 0 0)
(0 1.05028e-10 0 1.05028e-10 2.93017e-10 0 0 0 0)
(0 1.05798e-10 0 1.05798e-10 2.94022e-10 0 0 0 0)
(-2.58494e-23 1.06453e-10 0 1.06453e-10 2.94719e-10 0 0 0 0)
(0 1.07357e-10 0 1.07357e-10 2.95111e-10 0 0 0 0)
(0 1.07953e-10 0 1.07953e-10 2.95191e-10 0 0 0 0)
(0 1.08534e-10 0 1.08534e-10 2.94953e-10 0 0 0 0)
(-5.16988e-23 1.09357e-10 0 1.09357e-10 2.94434e-10 0 0 0 0)
(0 1.09891e-10 0 1.09891e-10 2.93643e-10 0 0 0 0)
(0 1.10496e-10 0 1.10496e-10 2.92589e-10 0 0 0 0)
(0 1.11086e-10 0 1.11086e-10 2.91291e-10 0 0 0 0)
(-2.58494e-23 1.11492e-10 0 1.11492e-10 2.89754e-10 0 0 0 0)
(0 1.12115e-10 0 1.12115e-10 2.88013e-10 0 0 0 0)
(0 1.1275e-10 0 1.1275e-10 2.86106e-10 0 0 0 0)
(0 1.13097e-10 0 1.13097e-10 2.84034e-10 0 0 0 0)
(0 1.13535e-10 0 1.13535e-10 2.81806e-10 0 0 0 0)
(0 1.14276e-10 0 1.14276e-10 2.79477e-10 0 0 0 0)
(0 1.14481e-10 0 1.14481e-10 2.7704e-10 0 0 0 0)
(0 1.15125e-10 0 1.15125e-10 2.74534e-10 0 0 0 0)
(0 1.15785e-10 0 1.15785e-10 2.71993e-10 0 0 0 0)
(0 1.16055e-10 0 1.16055e-10 2.69402e-10 0 0 0 0)
(5.16988e-23 1.16611e-10 0 1.16611e-10 2.66785e-10 0 0 0 0)
(0 1.17127e-10 0 1.17127e-10 2.64163e-10 0 0 0 0)
(0 1.18094e-10 0 1.18094e-10 2.61593e-10 0 0 0 0)
(0 1.18153e-10 0 1.18153e-10 2.59027e-10 0 0 0 0)
(0 1.18869e-10 0 1.18869e-10 2.56488e-10 0 0 0 0)
(0 1.19989e-10 0 1.19989e-10 2.54034e-10 0 0 0 0)
(0 1.19939e-10 0 1.19939e-10 2.51594e-10 0 0 0 0)
(2.58494e-23 1.20941e-10 0 1.20941e-10 2.49222e-10 0 0 0 0)
(0 1.2185e-10 0 1.2185e-10 2.46942e-10 0 0 0 0)
(0 1.22317e-10 0 1.22317e-10 2.44719e-10 0 0 0 0)
(0 1.23478e-10 0 1.23478e-10 2.42589e-10 0 0 0 0)
(0 1.23792e-10 0 1.23792e-10 2.40488e-10 0 0 0 0)
(0 1.24462e-10 0 1.24462e-10 2.3842e-10 0 0 0 0)
(0 1.262e-10 0 1.262e-10 2.36492e-10 0 0 0 0)
(0 1.26651e-10 0 1.26651e-10 2.34633e-10 0 0 0 0)
(2.58494e-23 1.27313e-10 0 1.27313e-10 2.32816e-10 0 0 0 0)
(0 1.28613e-10 0 1.28613e-10 2.31064e-10 0 0 0 0)
(0 1.29636e-10 0 1.29636e-10 2.29374e-10 0 0 0 0)
(0 1.30421e-10 0 1.30421e-10 2.2772e-10 0 0 0 0)
(0 1.31744e-10 0 1.31744e-10 2.2613e-10 0 0 0 0)
(0 1.32805e-10 0 1.32805e-10 2.24578e-10 0 0 0 0)
(0 1.33802e-10 0 1.33802e-10 2.2304e-10 0 0 0 0)
(0 1.35312e-10 0 1.35312e-10 2.21552e-10 0 0 0 0)
(0 1.35819e-10 0 1.35819e-10 2.2002e-10 0 0 0 0)
(0 1.3755e-10 0 1.3755e-10 2.18542e-10 0 0 0 0)
(0 1.38894e-10 0 1.38894e-10 2.17103e-10 0 0 0 0)
(0 1.40004e-10 0 1.40004e-10 2.1569e-10 0 0 0 0)
(0 1.41614e-10 0 1.41614e-10 2.14317e-10 0 0 0 0)
(0 1.4278e-10 0 1.4278e-10 2.12928e-10 0 0 0 0)
(0 1.4414e-10 0 1.4414e-10 2.11522e-10 0 0 0 0)
(0 1.45631e-10 0 1.45631e-10 2.10094e-10 0 0 0 0)
(0 1.47363e-10 0 1.47363e-10 2.0866e-10 0 0 0 0)
(0 1.48756e-10 0 1.48756e-10 2.07197e-10 0 0 0 0)
(0 1.49832e-10 0 1.49832e-10 2.05664e-10 0 0 0 0)
(0 1.51743e-10 0 1.51743e-10 2.04118e-10 0 0 0 0)
(0 1.54064e-10 0 1.54064e-10 2.02626e-10 0 0 0 0)
(0 1.55003e-10 0 1.55003e-10 2.01084e-10 0 0 0 0)
(0 1.56695e-10 0 1.56695e-10 1.99523e-10 0 0 0 0)
(0 1.58918e-10 0 1.58918e-10 1.97963e-10 0 0 0 0)
(0 1.60817e-10 0 1.60817e-10 1.9639e-10 0 0 0 0)
(0 1.62597e-10 0 1.62597e-10 1.94785e-10 0 0 0 0)
(0 1.64174e-10 0 1.64174e-10 1.93087e-10 0 0 0 0)
(0 1.66374e-10 0 1.66374e-10 1.9133e-10 0 0 0 0)
(0 1.6854e-10 0 1.6854e-10 1.8952e-10 0 0 0 0)
(0 1.70459e-10 0 1.70459e-10 1.87653e-10 0 0 0 0)
(0 1.72572e-10 0 1.72572e-10 1.85746e-10 0 0 0 0)
(0 1.75001e-10 0 1.75001e-10 1.83827e-10 0 0 0 0)
(0 1.77306e-10 0 1.77306e-10 1.81894e-10 0 0 0 0)
(0 1.79694e-10 0 1.79694e-10 1.79954e-10 0 0 0 0)
(0 1.82163e-10 0 1.82163e-10 1.77994e-10 0 0 0 0)
(0 1.84725e-10 0 1.84725e-10 1.76001e-10 0 0 0 0)
(0 1.87316e-10 0 1.87316e-10 1.73959e-10 0 0 0 0)
(0 1.89897e-10 0 1.89897e-10 1.71846e-10 0 0 0 0)
(0 1.92681e-10 0 1.92681e-10 1.69668e-10 0 0 0 0)
(0 1.95569e-10 0 1.95569e-10 1.67428e-10 0 0 0 0)
(0 1.98509e-10 0 1.98509e-10 1.65138e-10 0 0 0 0)
(0 2.01624e-10 0 2.01624e-10 1.62816e-10 0 0 0 0)
(0 2.04893e-10 0 2.04893e-10 1.60477e-10 0 0 0 0)
(0 2.08238e-10 0 2.08238e-10 1.58127e-10 0 0 0 0)
(0 2.11703e-10 0 2.11703e-10 1.55767e-10 0 0 0 0)
(0 2.15292e-10 0 2.15292e-10 1.53391e-10 0 0 0 0)
(0 2.18997e-10 0 2.18997e-10 1.50988e-10 0 0 0 0)
(0 2.22833e-10 0 2.22833e-10 1.48552e-10 0 0 0 0)
(0 2.2683e-10 0 2.2683e-10 1.46079e-10 0 0 0 0)
(0 2.30994e-10 0 2.30994e-10 1.43571e-10 0 0 0 0)
(0 2.35333e-10 0 2.35333e-10 1.41033e-10 0 0 0 0)
(0 2.39867e-10 0 2.39867e-10 1.38476e-10 0 0 0 0)
(0 2.44603e-10 0 2.44603e-10 1.35915e-10 0 0 0 0)
(0 2.4954e-10 0 2.4954e-10 1.33364e-10 0 0 0 0)
(0 2.54694e-10 0 2.54694e-10 1.30842e-10 0 0 0 0)
(0 2.60079e-10 0 2.60079e-10 1.28368e-10 0 0 0 0)
(0 2.65708e-10 0 2.65708e-10 1.25962e-10 0 0 0 0)
(0 2.71601e-10 0 2.71601e-10 1.23646e-10 0 0 0 0)
(0 2.77774e-10 0 2.77774e-10 1.21441e-10 0 0 0 0)
(0 2.84242e-10 0 2.84242e-10 1.19367e-10 0 0 0 0)
(0 2.91023e-10 0 2.91023e-10 1.17441e-10 0 0 0 0)
(0 2.98134e-10 0 2.98134e-10 1.15674e-10 0 0 0 0)
(0 3.05589e-10 0 3.05589e-10 1.14067e-10 0 0 0 0)
(0 3.13409e-10 0 3.13409e-10 1.12614e-10 0 0 0 0)
(0 3.21611e-10 0 3.21611e-10 1.11297e-10 0 0 0 0)
(0 3.30217e-10 0 3.30217e-10 1.10085e-10 0 0 0 0)
(0 3.39251e-10 0 3.39251e-10 1.08936e-10 0 0 0 0)
(0 3.48741e-10 0 3.48741e-10 1.07799e-10 0 0 0 0)
(0 3.58724e-10 0 3.58724e-10 1.06614e-10 0 0 0 0)
(0 3.69241e-10 0 3.69241e-10 1.05323e-10 0 0 0 0)
(0 3.80338e-10 0 3.80338e-10 1.03875e-10 0 0 0 0)
(0 3.92065e-10 0 3.92065e-10 1.02237e-10 0 0 0 0)
(0 4.0448e-10 0 4.0448e-10 1.00408e-10 0 0 0 0)
(0 4.17661e-10 0 4.17661e-10 9.84374e-11 0 0 0 0)
(0 4.31741e-10 0 4.31741e-10 9.64379e-11 0 0 0 0)
(0 4.46941e-10 0 4.46941e-10 9.46031e-11 0 0 0 0)
(0 4.63573e-10 0 4.63573e-10 9.32118e-11 0 0 0 0)
(0 4.81951e-10 0 4.81951e-10 9.26206e-11 0 0 0 0)
(0 5.02199e-10 0 5.02199e-10 9.32405e-11 0 0 0 0)
(0 5.24091e-10 0 5.24091e-10 9.54978e-11 0 0 0 0)
(0 5.47367e-10 0 5.47367e-10 9.97959e-11 0 0 0 0)
(0 5.72835e-10 0 5.72835e-10 1.06503e-10 0 0 0 0)
(0 6.03072e-10 0 6.03072e-10 1.15931e-10 0 0 0 0)
(0 6.39897e-10 0 6.39897e-10 1.2803e-10 0 0 0 0)
(0 6.80043e-10 0 6.80043e-10 1.41452e-10 0 0 0 0)
(0 7.18306e-10 0 7.18306e-10 1.52503e-10 0 0 0 0)
(0 7.59297e-10 0 7.59297e-10 1.55264e-10 0 0 0 0)
(0 8.22185e-10 0 8.22185e-10 1.43487e-10 0 0 0 0)
(0 9.20912e-10 0 9.20912e-10 1.14022e-10 0 0 0 0)
(0 1.01616e-09 0 1.01616e-09 6.93989e-11 0 0 0 0)
(0 1.0322e-09 0 1.0322e-09 2.24271e-10 0 0 0 0)
(0 1.11096e-09 0 1.11096e-09 -4.05206e-09 0 0 0 0)
(0 2.39919e-09 0 2.39919e-09 2.08012e-08 0 0 0 0)
(0 6.83232e-07 0 6.83232e-07 -7.62106e-08 0 0 0 0)
(0 0.000182747 0 0.000182747 -2.52815e-06 0 0 0 0)
(0 0.00206332 0 0.00206332 -2.05019e-05 0 0 0 0)
(0 0.00493256 0 0.00493256 -2.011e-05 0 0 0 0)
(0 0.00636068 0 0.00636068 3.10853e-06 0 0 0 0)
(0 0.00719007 0 0.00719007 5.05933e-06 0 0 0 0)
(0 0.00768125 0 0.00768125 6.88401e-06 0 0 0 0)
(0 0.00794528 0 0.00794528 7.58997e-06 0 0 0 0)
(0 0.00804467 0 0.00804467 7.92177e-06 0 0 0 0)
(0 0.00802323 0 0.00802323 7.99998e-06 0 0 0 0)
(0 0.00791484 0 0.00791484 8.012e-06 0 0 0 0)
(0 0.0077427 0 0.0077427 8.51398e-06 0 0 0 0)
(0 0.00752431 0 0.00752431 9.43306e-06 0 0 0 0)
(0 0.00727336 0 0.00727336 1.0645e-05 0 0 0 0)
(0 0.00700013 0 0.00700013 1.20191e-05 0 0 0 0)
(0 0.00671237 0 0.00671237 1.34222e-05 0 0 0 0)
(0 0.00641583 0 0.00641583 1.4731e-05 0 0 0 0)
(0 0.00611474 0 0.00611474 1.5849e-05 0 0 0 0)
(0 0.0058122 0 0.0058122 1.67034e-05 0 0 0 0)
(0 0.00551041 0 0.00551041 1.72437e-05 0 0 0 0)
(0 0.00521097 0 0.00521097 1.74444e-05 0 0 0 0)
(0 0.00491499 0 0.00491499 1.73032e-05 0 0 0 0)
(0 0.0046233 0 0.0046233 1.68383e-05 0 0 0 0)
(0 0.00433647 0 0.00433647 1.60859e-05 0 0 0 0)
(0 0.00405495 0 0.00405495 1.50967e-05 0 0 0 0)
(0 0.00377913 0 0.00377913 1.393e-05 0 0 0 0)
(0 0.00350937 0 0.00350937 1.26472e-05 0 0 0 0)
(0 0.00324602 0 0.00324602 1.13066e-05 0 0 0 0)
(0 0.00298951 0 0.00298951 9.95947e-06 0 0 0 0)
(0 0.00274033 0 0.00274033 8.64798e-06 0 0 0 0)
(0 0.00249907 0 0.00249907 7.40528e-06 0 0 0 0)
(0 0.00226644 0 0.00226644 6.25619e-06 0 0 0 0)
(0 0.00204328 0 0.00204328 5.21904e-06 0 0 0 0)
(0 0.00183053 0 0.00183053 4.30667e-06 0 0 0 0)
(0 0.00162927 0 0.00162927 3.52448e-06 0 0 0 0)
(0 0.00144055 0 0.00144055 2.86599e-06 0 0 0 0)
(0 0.00126536 0 0.00126536 2.31238e-06 0 0 0 0)
(0 0.00110448 0 0.00110448 1.84095e-06 0 0 0 0)
(0 0.000958304 0 0.000958304 1.4369e-06 0 0 0 0)
(0 0.000826765 0 0.000826765 1.09721e-06 0 0 0 0)
(0 0.000709307 0 0.000709307 8.24068e-07 0 0 0 0)
(0 0.000604942 0 0.000604942 6.15898e-07 0 0 0 0)
(0 0.000512388 0 0.000512388 4.64199e-07 0 0 0 0)
(0 0.000430227 0 0.000430227 3.56341e-07 0 0 0 0)
(0 0.00035704 0 0.00035704 2.79817e-07 0 0 0 0)
(0 0.000291508 0 0.000291508 2.24707e-07 0 0 0 0)
(0 0.00023246 0 0.00023246 1.84074e-07 0 0 0 0)
(0 0.000178895 0 0.000178895 1.53339e-07 0 0 0 0)
(0 0.000129975 0 0.000129975 1.29528e-07 0 0 0 0)
(0 8.50116e-05 0 8.50116e-05 1.10685e-07 0 0 0 0)
(0 4.34429e-05 0 4.34429e-05 9.54969e-08 0 0 0 0)
(0 4.81462e-06 0 4.81462e-06 8.3063e-08 0 0 0 0)
(0 -3.12418e-05 0 -3.12418e-05 7.27496e-08 0 0 0 0)
(0 -6.5025e-05 0 -6.5025e-05 6.41006e-08 0 0 0 0)
(0 -9.6778e-05 0 -9.6778e-05 5.67816e-08 0 0 0 0)
(0 -0.0001267 0 -0.0001267 5.05409e-08 0 0 0 0)
(0 -0.00015496 0 -0.00015496 4.51863e-08 0 0 0 0)
(0 -0.000181702 0 -0.000181702 4.0567e-08 0 0 0 0)
(0 -0.000207306 0 -0.000207306 3.65326e-08 0 0 0 0)
(-4.12064e-17 -0.000232104 0 -0.000232104 3.29679e-08 0 0 0 0)
(0 -0.000256128 0 -0.000256128 2.98183e-08 0 0 0 0)
(0 -0.000279398 0 -0.000279398 2.70322e-08 0 0 0 0)
(4.11875e-17 -0.000301922 0 -0.000301922 2.45651e-08 0 0 0 0)
(0 -0.000323704 0 -0.000323704 2.23796e-08 0 0 0 0)
(-8.18001e-17 -0.000344743 0 -0.000344743 2.04417e-08 0 0 0 0)
(0 -0.000365032 0 -0.000365032 1.87182e-08 0 0 0 0)
(8.08467e-17 -0.000384562 0 -0.000384562 1.71761e-08 0 0 0 0)
(0 -0.00040332 0 -0.00040332 1.5783e-08 0 0 0 0)
(0 -0.00042129 0 -0.00042129 1.45107e-08 0 0 0 0)
(0 -0.000438453 0 -0.000438453 1.33373e-08 0 0 0 0)
(3.8999e-17 -0.000454789 0 -0.000454789 1.22419e-08 0 0 0 0)
(0 -0.000470275 0 -0.000470275 1.12014e-08 0 0 0 0)
(0 -0.000484885 0 -0.000484885 1.02004e-08 0 0 0 0)
(0 -0.000498594 0 -0.000498594 9.23569e-09 0 0 0 0)
(0 -0.000511374 0 -0.000511374 8.30727e-09 0 0 0 0)
(0 -0.000523197 0 -0.000523197 7.41358e-09 0 0 0 0)
(-7.19516e-17 -0.000534032 0 -0.000534032 6.55893e-09 0 0 0 0)
(0 -0.000543848 0 -0.000543848 5.7556e-09 0 0 0 0)
(-6.95771e-17 -0.000552615 0 -0.000552615 5.01259e-09 0 0 0 0)
(0 -0.000560301 0 -0.000560301 4.33066e-09 0 0 0 0)
(-6.70556e-17 -0.000566872 0 -0.000566872 3.71116e-09 0 0 0 0)
(0 -0.000572298 0 -0.000572298 3.15716e-09 0 0 0 0)
(0 -0.000576546 0 -0.000576546 2.6674e-09 0 0 0 0)
(0 -0.000579583 0 -0.000579583 2.23752e-09 0 0 0 0)
(0 -0.000581379 0 -0.000581379 1.86382e-09 0 0 0 0)
(0 -0.000581901 0 -0.000581901 1.54268e-09 0 0 0 0)
(5.87304e-17 -0.00058112 0 -0.00058112 1.26891e-09 0 0 0 0)
(0 -0.000579006 0 -0.000579006 1.03624e-09 0 0 0 0)
(0 -0.000575532 0 -0.000575532 8.42763e-10 0 0 0 0)
(0 -0.000570672 0 -0.000570672 6.86248e-10 0 0 0 0)
(0 -0.000564402 0 -0.000564402 5.44938e-10 0 0 0 0)
(0 -0.000556701 0 -0.000556701 4.14679e-10 0 0 0 0)
(0 -0.000547551 0 -0.000547551 3.3466e-10 0 0 0 0)
(0 -0.000536938 0 -0.000536938 2.95297e-10 0 0 0 0)
(0 -0.000524852 0 -0.000524852 2.42212e-10 0 0 0 0)
(0 -0.00051129 0 -0.00051129 1.77449e-10 0 0 0 0)
(0 -0.000496254 0 -0.000496254 1.26262e-10 0 0 0 0)
(0 -0.000479753 0 -0.000479753 8.99901e-11 0 0 0 0)
(0 -0.000461807 0 -0.000461807 6.33616e-11 0 0 0 0)
(0 -0.000442443 0 -0.000442443 4.40903e-11 0 0 0 0)
(-3.58289e-17 -0.000421703 0 -0.000421703 2.93498e-11 0 0 0 0)
(3.40532e-17 -0.000399641 0 -0.000399641 2.13713e-11 0 0 0 0)
(0 -0.000376327 0 -0.000376327 1.47107e-11 0 0 0 0)
(0 -0.000351851 0 -0.000351851 1.7122e-12 0 0 0 0)
(-5.73285e-17 -0.000326324 0 -0.000326324 -2.83759e-12 0 0 0 0)
(0 -0.000299881 0 -0.000299881 7.95323e-15 0 0 0 0)
(0 -0.000272688 0 -0.000272688 1.55278e-13 0 0 0 0)
(-2.32358e-17 -0.000244941 0 -0.000244941 1.37395e-14 0 0 0 0)
(0 -0.000216877 0 -0.000216877 -2.36612e-14 0 0 0 0)
(0 -0.000188772 0 -0.000188772 -1.75092e-14 0 0 0 0)
(0 -0.000160952 0 -0.000160952 -9.66528e-15 0 0 0 0)
(0 -0.000133792 0 -0.000133792 -8.39586e-15 0 0 0 0)
(0 -0.000107721 0 -0.000107721 -4.05482e-14 0 0 0 0)
(0 -8.3216e-05 0 -8.3216e-05 -1.44458e-13 0 0 0 0)
(0 -6.07999e-05 0 -6.07999e-05 6.97665e-13 0 0 0 0)
(0 -4.10173e-05 0 -4.10173e-05 -1.51667e-12 0 0 0 0)
(0 -2.44027e-05 0 -2.44027e-05 2.23518e-12 0 0 0 0)
(0 -1.14256e-05 0 -1.14256e-05 -2.71482e-12 0 0 0 0)
(0 -2.41333e-06 0 -2.41333e-06 2.80805e-12 0 0 0 0)
(0 2.54835e-06 0 2.54835e-06 -2.5204e-12 0 0 0 0)
(0 3.76161e-06 0 3.76161e-06 1.86728e-12 0 0 0 0)
(0 1.8292e-06 0 1.8292e-06 -9.53487e-13 0 0 0 0)
(0 2.04683e-07 0 2.04683e-07 2.34118e-13 0 0 0 0)
(2.32916e-19 1.27124e-08 0 1.27124e-08 -1.08862e-13 0 0 0 0)
(0 3.66385e-10 0 3.66385e-10 1.03492e-13 0 0 0 0)
(0 1.25705e-11 0 1.25705e-11 -1.01683e-13 0 0 0 0)
(0 4.63034e-12 0 4.63034e-12 9.98523e-14 0 0 0 0)
(0 3.27395e-12 0 3.27395e-12 -9.82501e-14 0 0 0 0)
(0 2.35283e-12 0 2.35283e-12 9.66017e-14 0 0 0 0)
(0 1.68046e-12 0 1.68046e-12 -9.51373e-14 0 0 0 0)
(0 1.19218e-12 0 1.19218e-12 9.3632e-14 0 0 0 0)
(0 8.39926e-13 0 8.39926e-13 -9.2264e-14 0 0 0 0)
(0 5.87483e-13 0 5.87483e-13 9.08501e-14 0 0 0 0)
(0 4.07967e-13 0 4.07967e-13 -8.9551e-14 0 0 0 0)
(0 2.81217e-13 0 2.81217e-13 8.8198e-14 0 0 0 0)
(0 1.92387e-13 0 1.92387e-13 -8.69418e-14 0 0 0 0)
(0 1.30631e-13 0 1.30631e-13 8.56233e-14 0 0 0 0)
(0 8.8056e-14 0 8.8056e-14 -8.43865e-14 0 0 0 0)
(0 5.8857e-14 0 5.8857e-14 8.30926e-14 0 0 0 0)
(0 3.89635e-14 0 3.89635e-14 -8.18592e-14 0 0 0 0)
(0 2.56077e-14 0 2.56077e-14 8.05687e-14 0 0 0 0)
(0 1.66683e-14 0 1.66683e-14 -7.93302e-14 0 0 0 0)
(0 1.08044e-14 0 1.08044e-14 7.80332e-14 0 0 0 0)
(1.50452e-19 6.91523e-15 0 6.91523e-15 -7.67963e-14 0 0 0 0)
(0 4.35719e-15 0 4.35719e-15 7.54655e-14 0 0 0 0)
(0 2.71809e-15 0 2.71809e-15 -7.41944e-14 0 0 0 0)
(0 1.65179e-15 0 1.65179e-15 7.28628e-14 0 0 0 0)
(0 1.067e-15 0 1.067e-15 -7.15677e-14 0 0 0 0)
(0 6.9709e-16 0 6.9709e-16 7.02122e-14 0 0 0 0)
(0 4.03625e-16 0 4.03625e-16 -6.88902e-14 0 0 0 0)
(0 2.13516e-16 0 2.13516e-16 6.75095e-14 0 0 0 0)
(0 1.82621e-16 0 1.82621e-16 -6.61582e-14 0 0 0 0)
(0 1.15077e-16 0 1.15077e-16 6.47501e-14 0 0 0 0)
(2.46128e-19 -2.54742e-17 0 -2.54742e-17 -6.33586e-14 0 0 0 0)
(0 -3.79336e-17 0 -3.79336e-17 6.1943e-14 0 0 0 0)
(0 1.08168e-17 0 1.08168e-17 -6.0517e-14 0 0 0 0)
(-2.31729e-19 2.60695e-17 0 2.60695e-17 5.9063e-14 0 0 0 0)
(0 9.86832e-17 0 9.86832e-17 -5.76088e-14 0 0 0 0)
(0 4.15707e-17 0 4.15707e-17 5.613e-14 0 0 0 0)
(0 -7.55968e-17 0 -7.55968e-17 -5.46384e-14 0 0 0 0)
(0 -2.00468e-17 0 -2.00468e-17 5.3127e-14 0 0 0 0)
(0 -1.11077e-17 0 -1.11077e-17 -5.1601e-14 0 0 0 0)
(0 2.28004e-17 0 2.28004e-17 5.00548e-14 0 0 0 0)
(0 2.02329e-17 0 2.02329e-17 -4.84913e-14 0 0 0 0)
(0 6.26484e-18 0 6.26484e-18 4.69077e-14 0 0 0 0)
(0 1.89525e-17 0 1.89525e-17 -4.53025e-14 0 0 0 0)
(0 -6.94683e-17 0 -6.94683e-17 4.37127e-14 0 0 0 0)
(0 -9.58206e-17 0 -9.58206e-17 -4.8161e-14 0 0 0 0)
(0 -4.9075e-17 0 -4.9075e-17 4.7619e-14 0 0 0 0)
(0 4.33575e-17 0 4.33575e-17 -4.71032e-14 0 0 0 0)
(0 2.32405e-17 0 2.32405e-17 4.65863e-14 0 0 0 0)
(0 9.95264e-18 0 9.95264e-18 -4.60612e-14 0 0 0 0)
(0 4.5528e-17 0 4.5528e-17 4.55355e-14 0 0 0 0)
(0 -2.27111e-17 0 -2.27111e-17 -4.49994e-14 0 0 0 0)
(0 -1.28643e-17 0 -1.28643e-17 4.44637e-14 0 0 0 0)
(0 2.43522e-17 0 2.43522e-17 -4.39157e-14 0 0 0 0)
(0 -8.86738e-17 0 -8.86738e-17 4.33697e-14 0 0 0 0)
(0 -5.03455e-17 0 -5.03455e-17 -4.28079e-14 0 0 0 0)
(0 6.71803e-17 0 6.71803e-17 4.22514e-14 0 0 0 0)
(0 4.75397e-17 0 4.75397e-17 -4.16752e-14 0 0 0 0)
(0 8.47033e-19 0 8.47033e-19 4.11059e-14 0 0 0 0)
(0 -2.64698e-18 0 -2.64698e-18 -4.0513e-14 0 0 0 0)
(0 -1.15938e-17 0 -1.15938e-17 3.99325e-14 0 0 0 0)
(0 -1.00056e-17 0 -1.00056e-17 -3.93213e-14 0 0 0 0)
(0 3.47284e-17 0 3.47284e-17 3.87342e-14 0 0 0 0)
(0 -7.41154e-18 0 -7.41154e-18 -3.8064e-14 0 0 0 0)
(0 -4.76456e-18 0 -4.76456e-18 3.7533e-14 0 0 0 0)
(0 -7.94093e-19 0 -7.94093e-19 -3.68013e-14 0 0 0 0)
(0 -3.29813e-17 0 -3.29813e-17 3.62589e-14 0 0 0 0)
(0 -7.04096e-18 0 -7.04096e-18 -3.55027e-14 0 0 0 0)
(0 3.94929e-17 0 3.94929e-17 3.49398e-14 0 0 0 0)
(0 7.67624e-18 0 7.67624e-18 -3.41575e-14 0 0 0 0)
(0 2.43522e-18 0 2.43522e-18 3.35671e-14 0 0 0 0)
(0 8.99973e-19 0 8.99973e-19 -3.27534e-14 0 0 0 0)
(0 -1.21761e-17 0 -1.21761e-17 3.21381e-14 0 0 0 0)
(0 -4.89162e-17 0 -4.89162e-17 -3.12912e-14 0 0 0 0)
(0 -1.53948e-16 0 -1.53948e-16 3.06371e-14 0 0 0 0)
(0 -3.73436e-16 0 -3.73436e-16 -2.97543e-14 0 0 0 0)
(0 -1.26526e-17 0 -1.26526e-17 2.90609e-14 0 0 0 0)
(0 3.73647e-16 0 3.73647e-16 -2.81363e-14 0 0 0 0)
(0 1.57654e-16 0 1.57654e-16 2.74017e-14 0 0 0 0)
(0 3.43578e-17 0 3.43578e-17 -2.63829e-14 0 0 0 0)
(0 1.26526e-17 0 1.26526e-17 2.56631e-14 0 0 0 0)
(0 5.3416e-17 0 5.3416e-17 -2.45451e-14 0 0 0 0)
(0 2.5411e-17 0 2.5411e-17 2.37515e-14 0 0 0 0)
(0 -2.49875e-17 0 -2.49875e-17 -2.25603e-14 0 0 0 0)
(0 -9.84676e-17 0 -9.84676e-17 2.16737e-14 0 0 0 0)
(0 1.01644e-17 0 1.01644e-17 -2.0395e-14 0 0 0 0)
(0 1.53684e-16 0 1.53684e-16 1.93911e-14 0 0 0 0)
(0 8.56562e-17 0 8.56562e-17 -1.78991e-14 0 0 0 0)
(0 -4.2881e-17 0 -4.2881e-17 1.68145e-14 0 0 0 0)
(0 -7.39566e-17 0 -7.39566e-17 -1.50788e-14 0 0 0 0)
(0 -7.04096e-17 0 -7.04096e-17 1.36377e-14 0 0 0 0)
(0 -4.65868e-17 0 -4.65868e-17 -1.15288e-14 0 0 0 0)
(0 3.11285e-17 0 3.11285e-17 9.51071e-15 0 0 0 0)
(0 -6.96155e-17 0 -6.96155e-17 -6.75337e-15 0 0 0 0)
(0 -9.545e-17 0 -9.545e-17 3.628e-16 0 0 0 0)
)
;

boundaryField
{
    inandouthalf11
    {
        type            cyclic;
    }
    inandouthalf12
    {
        type            cyclic;
    }
    inandouthalf21
    {
        type            cyclic;
    }
    inandouthalf22
    {
        type            cyclic;
    }
    inandouthalf31
    {
        type            cyclic;
    }
    inandouthalf32
    {
        type            cyclic;
    }
    inandouthalf41
    {
        type            cyclic;
    }
    inandouthalf42
    {
        type            cyclic;
    }
    top
    {
        type            symmetryPlane;
    }
    walls
    {
        type            zeroGradient;
    }
    frontAndBackPlanes
    {
        type            empty;
    }
}


// ************************************************************************* //
