/*--------------------------------*- C++ -*----------------------------------*\
| =========                 |                                                 |
| \\      /  F ield         | OpenFOAM: The Open Source CFD Toolbox           |
|  \\    /   O peration     | Version:  2.4.x                                 |
|   \\  /    A nd           | Web:      www.OpenFOAM.org                      |
|    \\/     M anipulation  |                                                 |
\*---------------------------------------------------------------------------*/
FoamFile
{
    version     2.0;
    format      ascii;
    class       volScalarField;
    location    "8.6";
    object      Theta_0;
}
// * * * * * * * * * * * * * * * * * * * * * * * * * * * * * * * * * * * * * //

dimensions      [0 2 -2 0 0 0 0];

internalField   nonuniform List<scalar> 
360
(
6.66175e-21
6.66262e-21
6.66229e-21
6.66225e-21
6.66236e-21
6.66244e-21
6.66247e-21
6.66249e-21
6.66251e-21
6.66253e-21
6.66256e-21
6.66258e-21
6.6626e-21
6.66261e-21
6.66262e-21
6.66264e-21
6.66264e-21
6.66265e-21
6.66265e-21
6.66265e-21
6.66265e-21
6.66265e-21
6.66264e-21
6.66263e-21
6.66262e-21
6.66261e-21
6.66259e-21
6.66258e-21
6.66256e-21
6.66254e-21
6.66252e-21
6.6625e-21
6.66248e-21
6.66246e-21
6.66244e-21
6.66242e-21
6.6624e-21
6.66238e-21
6.66236e-21
6.66234e-21
6.66232e-21
6.6623e-21
6.66229e-21
6.66227e-21
6.66225e-21
6.66224e-21
6.66222e-21
6.66221e-21
6.6622e-21
6.66218e-21
6.66217e-21
6.66216e-21
6.66215e-21
6.66213e-21
6.66212e-21
6.66211e-21
6.6621e-21
6.66209e-21
6.66208e-21
6.66207e-21
6.66206e-21
6.66205e-21
6.66205e-21
6.66204e-21
6.66203e-21
6.66202e-21
6.66201e-21
6.662e-21
6.66199e-21
6.66198e-21
6.66197e-21
6.66196e-21
6.66195e-21
6.66194e-21
6.66193e-21
6.66192e-21
6.66191e-21
6.6619e-21
6.66189e-21
6.66188e-21
6.66187e-21
6.66186e-21
6.66185e-21
6.66184e-21
6.66183e-21
6.66182e-21
6.6618e-21
6.66179e-21
6.66178e-21
6.66177e-21
6.66176e-21
6.66174e-21
6.66173e-21
6.66172e-21
6.66171e-21
6.6617e-21
6.66169e-21
6.66167e-21
6.66166e-21
6.66165e-21
6.66164e-21
6.66163e-21
6.66161e-21
6.6616e-21
6.66159e-21
6.66158e-21
6.66157e-21
6.66156e-21
6.66155e-21
6.66154e-21
6.66153e-21
6.66153e-21
6.66152e-21
6.66151e-21
6.66151e-21
6.6615e-21
6.6615e-21
6.66149e-21
6.66149e-21
6.66148e-21
6.66148e-21
6.66147e-21
6.66146e-21
6.66146e-21
6.66145e-21
6.66144e-21
6.66143e-21
6.66143e-21
6.66143e-21
6.66144e-21
6.66146e-21
6.65914e-21
2.52043e-20
3.15778e-19
4.4414e-18
6.72498e-17
1.10774e-15
2.00239e-14
4.00037e-13
8.90692e-12
2.30215e-10
1.35999e-08
1.28649e-06
3.54132e-05
0.000347291
0.00194305
0.00410914
0.00550402
0.00640144
0.00701173
0.0074392
0.00775792
0.00803638
0.00825649
0.00842189
0.0085382
0.00860995
0.00864041
0.00863182
0.00858604
0.00850384
0.00838697
0.00823699
0.00805586
0.00784599
0.00761013
0.00735162
0.00707408
0.00678169
0.0064788
0.00617017
0.0058606
0.00555496
0.00525802
0.00497416
0.00470718
0.00446012
0.00423495
0.00403253
0.00385251
0.00369352
0.00355338
0.0034296
0.00331965
0.00322131
0.00313267
0.00305219
0.00297861
0.00291092
0.00284827
0.00278996
0.00273541
0.00268412
0.00263565
0.00258964
0.00254578
0.00250377
0.00246339
0.00242442
0.00238666
0.00234995
0.00231379
0.00227771
0.0022416
0.00220539
0.00216896
0.00213223
0.00209509
0.00205746
0.00201924
0.00198032
0.00194062
0.00190003
0.00185844
0.00181576
0.00177188
0.00172669
0.00168007
0.0016319
0.00158206
0.00153041
0.0014768
0.00142107
0.00136303
0.00130248
0.00123917
0.00117281
0.00110307
0.0010295
0.000951578
0.00086858
0.000779535
0.000683034
0.000576879
0.000457206
0.000315603
0
0
0
0
0
0
0
0
0
0
0
0
0
0
0
0
0
0
0
0
0
0
0
0
0
0
0
0
0
0
0
0
0
0
0
0
0
0
0
0
0
0
0
0
0
0
0
0
0
0
0
0
0
0
0
0
0
0
0
0
0
0
0
0
0
0
0
0
0
0
0
0
0
0
0
0
0
0
0
0
0
0
0
0
0
0
0
0
0
0
0
0
0
0
0
0
0
0
0
0
0
0
0
0
0
0
0
0
0
0
0
0
0
0
0
0
0
0
0
0
0
0
0
0
)
;

boundaryField
{
    inandouthalf11
    {
        type            cyclic;
    }
    inandouthalf12
    {
        type            cyclic;
    }
    inandouthalf21
    {
        type            cyclic;
    }
    inandouthalf22
    {
        type            cyclic;
    }
    inandouthalf31
    {
        type            cyclic;
    }
    inandouthalf32
    {
        type            cyclic;
    }
    inandouthalf41
    {
        type            cyclic;
    }
    inandouthalf42
    {
        type            cyclic;
    }
    top
    {
        type            symmetryPlane;
    }
    walls
    {
        type            zeroGradient;
    }
    frontAndBackPlanes
    {
        type            empty;
    }
}


// ************************************************************************* //
