/*--------------------------------*- C++ -*----------------------------------*\
| =========                 |                                                 |
| \\      /  F ield         | OpenFOAM: The Open Source CFD Toolbox           |
|  \\    /   O peration     | Version:  2.4.x                                 |
|   \\  /    A nd           | Web:      www.OpenFOAM.org                      |
|    \\/     M anipulation  |                                                 |
\*---------------------------------------------------------------------------*/
FoamFile
{
    version     2.0;
    format      ascii;
    class       volScalarField;
    location    "8.6";
    object      tmf;
}
// * * * * * * * * * * * * * * * * * * * * * * * * * * * * * * * * * * * * * //

dimensions      [0 0 0 0 0 0 0];

internalField   nonuniform List<scalar> 
360
(
0.999206
0.999209
0.99921
0.999209
0.999209
0.999209
0.999209
0.999209
0.999209
0.999209
0.999209
0.999209
0.999209
0.999209
0.999208
0.999208
0.999208
0.999208
0.999208
0.999208
0.999208
0.999208
0.999208
0.999208
0.999208
0.999208
0.999207
0.999207
0.999207
0.999207
0.999207
0.999207
0.999207
0.999207
0.999207
0.999207
0.999206
0.999206
0.999206
0.999206
0.999206
0.999206
0.999206
0.999206
0.999206
0.999206
0.999205
0.999205
0.999205
0.999205
0.999205
0.999205
0.999205
0.999205
0.999204
0.999204
0.999204
0.999204
0.999204
0.999204
0.999204
0.999204
0.999203
0.999203
0.999203
0.999203
0.999203
0.999203
0.999203
0.999202
0.999202
0.999202
0.999202
0.999202
0.999202
0.999202
0.999201
0.999201
0.999201
0.999201
0.999201
0.999201
0.9992
0.9992
0.9992
0.9992
0.9992
0.999199
0.999199
0.999199
0.999199
0.999199
0.999198
0.999198
0.999198
0.999198
0.999198
0.999197
0.999197
0.999197
0.999197
0.999196
0.999196
0.999196
0.999195
0.999195
0.999195
0.999195
0.999194
0.999194
0.999194
0.999193
0.999193
0.999193
0.999192
0.999192
0.999192
0.999191
0.999191
0.99919
0.99919
0.99919
0.999189
0.999189
0.999188
0.999188
0.999187
0.999187
0.999186
0.999186
0.999185
0.998824
0.997602
0.997215
0.996811
0.99632
0.995721
0.994988
0.994082
0.99294
0.991479
0.989601
0.987194
0.984024
0.977333
0.93936
0.910353
0.900071
0.894564
0.890685
0.887342
0.88482
0.886157
0.887815
0.889792
0.892049
0.894543
0.897235
0.90009
0.903076
0.906166
0.909338
0.912574
0.91586
0.919187
0.922551
0.925953
0.929395
0.932884
0.936425
0.940024
0.943683
0.947396
0.951149
0.954918
0.958671
0.962366
0.965959
0.969402
0.972652
0.97567
0.978425
0.980897
0.983077
0.98497
0.986591
0.987964
0.989117
0.990082
0.990887
0.991559
0.99212
0.99259
0.992985
0.993317
0.993599
0.993837
0.99404
0.994213
0.994361
0.994486
0.994595
0.994689
0.99477
0.994839
0.994898
0.994948
0.994989
0.995021
0.995047
0.995066
0.995079
0.995086
0.995088
0.995085
0.995077
0.995064
0.995047
0.995026
0.995001
0.994971
0.994938
0.9949
0.994858
0.994813
0.994763
0.994708
0.99465
0.994586
0.994518
0.994445
0.994368
0.994287
0.994204
0.994124
0.994055
0.994013
0.994065
0.994141
0.994193
0.994292
0.994257
0.994558
0.994223
0.99491
0.994317
0.99605
0.996371
0.996465
0.996569
0.996681
0.9968
0.996928
0.997064
0.99721
0.997366
0.997532
0.997707
0.997892
0.998085
0.998285
0.998491
0.998703
0.998926
0.999167
0.999351
0.999412
0.999416
0.999415
0.999412
0.999408
0.999401
0.999336
0.996628
0.994194
0.994194
0.994194
0.994194
0.994194
0.994194
0.994194
0.994194
0.994194
0.994194
0.994194
0.994194
0.994194
0.994194
0.994194
0.994194
0.994194
0.994194
0.994194
0.994194
0.994194
0.994194
0.994194
0.994194
0.994194
0.994194
0.994194
0.994194
0.994194
0.994194
0.994194
0.994194
0.994194
0.994194
0.994194
0.994194
0.994194
0.994194
0.994194
0.994194
0.994194
0.994194
0.994194
0.994194
0.994194
0.994194
0.994194
0.994194
0.994194
0.994194
0.994194
0.994194
0.994194
0.994194
0.994194
0.994194
0.994194
0.994194
0.994194
0.994194
0.994194
0.994194
0.994194
0.994194
0.994194
0.994194
0.994194
0.994194
0.994194
0.994194
0.994194
0.994194
0.994194
0.994194
0.994194
0.994194
0.994194
0.994194
0.994194
0.994194
0.994194
0.994194
0.994194
0.994193
0.994178
0.993256
)
;

boundaryField
{
    inandouthalf11
    {
        type            cyclic;
    }
    inandouthalf12
    {
        type            cyclic;
    }
    inandouthalf21
    {
        type            cyclic;
    }
    inandouthalf22
    {
        type            cyclic;
    }
    inandouthalf31
    {
        type            cyclic;
    }
    inandouthalf32
    {
        type            cyclic;
    }
    inandouthalf41
    {
        type            cyclic;
    }
    inandouthalf42
    {
        type            cyclic;
    }
    top
    {
        type            symmetryPlane;
    }
    walls
    {
        type            calculated;
        value           uniform 0;
    }
    frontAndBackPlanes
    {
        type            empty;
    }
}


// ************************************************************************* //
