/*--------------------------------*- C++ -*----------------------------------*\
| =========                 |                                                 |
| \\      /  F ield         | OpenFOAM: The Open Source CFD Toolbox           |
|  \\    /   O peration     | Version:  2.4.x                                 |
|   \\  /    A nd           | Web:      www.OpenFOAM.org                      |
|    \\/     M anipulation  |                                                 |
\*---------------------------------------------------------------------------*/
FoamFile
{
    version     2.0;
    format      ascii;
    class       volVectorField;
    location    "8.6";
    object      Ua_0;
}
// * * * * * * * * * * * * * * * * * * * * * * * * * * * * * * * * * * * * * //

dimensions      [0 1 -1 0 0 0 0];

internalField   nonuniform List<vector> 
360
(
(2.01342e-32 -9.97591e-32 0)
(1.48282e-08 -5.14936e-08 0)
(3.11938e-08 -9.29593e-08 0)
(4.61834e-08 -1.30193e-07 0)
(6.16787e-08 -1.70106e-07 0)
(7.80209e-08 -2.12386e-07 0)
(9.47924e-08 -2.55505e-07 0)
(1.11775e-07 -2.99031e-07 0)
(1.28941e-07 -3.42985e-07 0)
(1.46301e-07 -3.874e-07 0)
(1.63855e-07 -4.32285e-07 0)
(1.81593e-07 -4.77608e-07 0)
(1.99495e-07 -5.23314e-07 0)
(2.17537e-07 -5.69346e-07 0)
(2.35701e-07 -6.15654e-07 0)
(2.53969e-07 -6.62196e-07 0)
(2.72325e-07 -7.08933e-07 0)
(2.9075e-07 -7.55818e-07 0)
(3.09224e-07 -8.02797e-07 0)
(3.27727e-07 -8.49827e-07 0)
(3.46241e-07 -8.96853e-07 0)
(3.64744e-07 -9.43827e-07 0)
(3.83221e-07 -9.90707e-07 0)
(4.01654e-07 -1.03745e-06 0)
(4.20028e-07 -1.08402e-06 0)
(4.38326e-07 -1.13037e-06 0)
(4.56536e-07 -1.17647e-06 0)
(4.74644e-07 -1.22229e-06 0)
(4.92642e-07 -1.2678e-06 0)
(5.10518e-07 -1.31298e-06 0)
(5.28265e-07 -1.35781e-06 0)
(5.45875e-07 -1.40227e-06 0)
(5.63345e-07 -1.44635e-06 0)
(5.80669e-07 -1.49003e-06 0)
(5.97846e-07 -1.53332e-06 0)
(6.14874e-07 -1.57621e-06 0)
(6.3175e-07 -1.61868e-06 0)
(6.48478e-07 -1.66076e-06 0)
(6.65059e-07 -1.70244e-06 0)
(6.81493e-07 -1.74372e-06 0)
(6.97785e-07 -1.78462e-06 0)
(7.13938e-07 -1.82515e-06 0)
(7.29955e-07 -1.8653e-06 0)
(7.45839e-07 -1.90509e-06 0)
(7.61598e-07 -1.94454e-06 0)
(7.77235e-07 -1.98365e-06 0)
(7.92755e-07 -2.02245e-06 0)
(8.08159e-07 -2.06092e-06 0)
(8.23452e-07 -2.09908e-06 0)
(8.38643e-07 -2.13696e-06 0)
(8.53736e-07 -2.17457e-06 0)
(8.68731e-07 -2.2119e-06 0)
(8.83635e-07 -2.24897e-06 0)
(8.98451e-07 -2.2858e-06 0)
(9.13182e-07 -2.32238e-06 0)
(9.27831e-07 -2.35872e-06 0)
(9.424e-07 -2.39483e-06 0)
(9.56892e-07 -2.43072e-06 0)
(9.71306e-07 -2.46639e-06 0)
(9.85643e-07 -2.50182e-06 0)
(9.99905e-07 -2.53704e-06 0)
(1.0141e-06 -2.57205e-06 0)
(1.02822e-06 -2.60686e-06 0)
(1.04227e-06 -2.64147e-06 0)
(1.05626e-06 -2.67587e-06 0)
(1.07018e-06 -2.71006e-06 0)
(1.08402e-06 -2.74404e-06 0)
(1.09779e-06 -2.77781e-06 0)
(1.11149e-06 -2.81136e-06 0)
(1.12511e-06 -2.84468e-06 0)
(1.13865e-06 -2.87777e-06 0)
(1.15212e-06 -2.91064e-06 0)
(1.16551e-06 -2.94329e-06 0)
(1.17882e-06 -2.9757e-06 0)
(1.19205e-06 -3.00789e-06 0)
(1.20521e-06 -3.03984e-06 0)
(1.21828e-06 -3.07156e-06 0)
(1.23126e-06 -3.10302e-06 0)
(1.24415e-06 -3.13421e-06 0)
(1.25695e-06 -3.16514e-06 0)
(1.26965e-06 -3.19578e-06 0)
(1.28224e-06 -3.22614e-06 0)
(1.29474e-06 -3.25621e-06 0)
(1.30714e-06 -3.286e-06 0)
(1.31944e-06 -3.3155e-06 0)
(1.33163e-06 -3.34471e-06 0)
(1.34372e-06 -3.37363e-06 0)
(1.3557e-06 -3.40224e-06 0)
(1.36757e-06 -3.43054e-06 0)
(1.37932e-06 -3.45851e-06 0)
(1.39095e-06 -3.48614e-06 0)
(1.40246e-06 -3.51343e-06 0)
(1.41384e-06 -3.54037e-06 0)
(1.4251e-06 -3.56697e-06 0)
(1.43623e-06 -3.59323e-06 0)
(1.44724e-06 -3.61913e-06 0)
(1.45813e-06 -3.64469e-06 0)
(1.46888e-06 -3.6699e-06 0)
(1.47951e-06 -3.69474e-06 0)
(1.49e-06 -3.71922e-06 0)
(1.50037e-06 -3.74333e-06 0)
(1.51059e-06 -3.76707e-06 0)
(1.52069e-06 -3.79044e-06 0)
(1.53065e-06 -3.81343e-06 0)
(1.54048e-06 -3.83606e-06 0)
(1.55018e-06 -3.85833e-06 0)
(1.55976e-06 -3.88025e-06 0)
(1.56923e-06 -3.90183e-06 0)
(1.57858e-06 -3.9231e-06 0)
(1.58785e-06 -3.94407e-06 0)
(1.59702e-06 -3.96477e-06 0)
(1.60613e-06 -3.98522e-06 0)
(1.61518e-06 -4.00546e-06 0)
(1.62419e-06 -4.02551e-06 0)
(1.63316e-06 -4.0454e-06 0)
(1.64213e-06 -4.06516e-06 0)
(1.65109e-06 -4.08479e-06 0)
(1.66005e-06 -4.10432e-06 0)
(1.66901e-06 -4.12373e-06 0)
(1.67799e-06 -4.14302e-06 0)
(1.68696e-06 -4.16218e-06 0)
(1.69593e-06 -4.18117e-06 0)
(1.70489e-06 -4.19997e-06 0)
(1.71383e-06 -4.21855e-06 0)
(1.72275e-06 -4.2369e-06 0)
(1.73166e-06 -4.25502e-06 0)
(1.74059e-06 -4.27297e-06 0)
(1.74962e-06 -4.29084e-06 0)
(1.75882e-06 -4.30883e-06 0)
(1.76836e-06 -4.32715e-06 0)
(1.7784e-06 -4.34613e-06 0)
(1.78918e-06 -4.36615e-06 0)
(1.80098e-06 -4.38766e-06 0)
(1.81415e-06 -4.41118e-06 0)
(1.82902e-06 -4.4372e-06 0)
(1.84575e-06 -4.46588e-06 0)
(1.86406e-06 -4.49658e-06 0)
(1.88299e-06 -4.52748e-06 0)
(1.90078e-06 -4.55579e-06 0)
(1.91506e-06 -4.57809e-06 0)
(1.92371e-06 -4.59133e-06 0)
(1.92696e-06 -4.59601e-06 0)
(1.92763e-06 -4.59677e-06 0)
(1.92785e-06 -4.59682e-06 0)
(1.92815e-06 -4.59673e-06 0)
(0.0736554 0.000708978 0)
(0.187508 0.00206189 0)
(0.291211 0.00264435 0)
(0.382524 0.00302001 0)
(0.463771 0.00330349 0)
(0.536884 0.00357183 0)
(0.603266 0.00386098 0)
(0.663961 0.00416024 0)
(0.719591 0.00450759 0)
(0.770737 0.00489328 0)
(0.817902 0.00531293 0)
(0.86152 0.00576275 0)
(0.901961 0.00623855 0)
(0.939549 0.00673551 0)
(0.97456 0.00724863 0)
(1.00723 0.00777269 0)
(1.03778 0.00830233 0)
(1.06637 0.00883235 0)
(1.09317 0.00935788 0)
(1.11829 0.00987456 0)
(1.14184 0.0103789 0)
(1.16391 0.0108682 0)
(1.18456 0.0113409 0)
(1.20385 0.0117961 0)
(1.2218 0.0122334 0)
(1.23843 0.0126524 0)
(1.25376 0.013052 0)
(1.26778 0.0134308 0)
(1.2805 0.0137859 0)
(1.29193 0.0141138 0)
(1.30206 0.0144094 0)
(1.31095 0.0146661 0)
(1.31862 0.0148733 0)
(1.32515 0.0150146 0)
(1.33064 0.0150682 0)
(1.33519 0.0150147 0)
(1.33893 0.0148479 0)
(1.34198 0.0145794 0)
(1.34446 0.0142353 0)
(1.34647 0.0138462 0)
(1.34811 0.013439 0)
(1.34942 0.0130336 0)
(1.35048 0.0126426 0)
(1.35131 0.012273 0)
(1.35195 0.0119282 0)
(1.35244 0.011609 0)
(1.35279 0.0113154 0)
(1.35303 0.0110464 0)
(1.35317 0.0108007 0)
(1.35323 0.010577 0)
(1.35322 0.0103739 0)
(1.35315 0.0101901 0)
(1.35303 0.0100243 0)
(1.35287 0.00987539 0)
(1.35268 0.00974221 0)
(1.35246 0.00962376 0)
(1.35223 0.00951803 0)
(1.35197 0.00942363 0)
(1.3517 0.00934033 0)
(1.35141 0.00926785 0)
(1.3511 0.00920585 0)
(1.35079 0.00915393 0)
(1.35046 0.00911162 0)
(1.35013 0.00907837 0)
(1.34979 0.00905352 0)
(1.34945 0.00903633 0)
(1.3491 0.00902598 0)
(1.34875 0.0090216 0)
(1.34841 0.00902226 0)
(1.34806 0.00902697 0)
(1.34772 0.00903477 0)
(1.34738 0.00904476 0)
(1.34705 0.00905611 0)
(1.34672 0.00906803 0)
(1.3464 0.00907986 0)
(1.34608 0.00909109 0)
(1.34577 0.0091013 0)
(1.34547 0.00911006 0)
(1.34518 0.00911706 0)
(1.3449 0.00912208 0)
(1.34462 0.00912489 0)
(1.34436 0.00912531 0)
(1.3441 0.00912317 0)
(1.34386 0.00911845 0)
(1.34362 0.00911101 0)
(1.34341 0.009101 0)
(1.34321 0.00908818 0)
(1.34303 0.00907386 0)
(1.34288 0.00905665 0)
(1.34276 0.00903456 0)
(1.34269 0.00901955 0)
(1.34265 0.00901408 0)
(1.33939 0.00853214 0)
(1.33679 0.00855152 0)
(1.33431 0.00830942 0)
(1.33185 0.00858816 0)
(1.32919 0.00708886 0)
(1.3269 0.00983425 0)
(1.32407 0.00423401 0)
(1.32204 0.0121487 0)
(1.31886 0.00167765 0)
(1.31741 -0.0321504 0)
(1.31529 -0.0396784 0)
(1.31272 -0.0395812 0)
(1.31042 -0.0395899 0)
(1.30817 -0.039589 0)
(1.306 -0.0395884 0)
(1.30394 -0.0395872 0)
(1.302 -0.0395855 0)
(1.3002 -0.0395831 0)
(1.29857 -0.0395802 0)
(1.29712 -0.0395766 0)
(1.29589 -0.0395724 0)
(1.2949 -0.0395677 0)
(1.29416 -0.0395624 0)
(1.29372 -0.0395572 0)
(1.29355 -0.0395523 0)
(1.29362 -0.0395461 0)
(1.29393 -0.0395403 0)
(1.29436 -0.0395321 0)
(1.29459 -0.0395237 0)
(1.29463 -0.0395201 0)
(1.29463 -0.0395197 0)
(1.29463 -0.0395197 0)
(1.29463 -0.0395197 0)
(1.29463 -0.0395197 0)
(1.29463 -0.0395197 0)
(1.29463 -0.0395197 0)
(1.29463 -0.0395197 0)
(1.29463 -0.0395197 0)
(1.29463 -0.0395197 0)
(1.29463 -0.0395197 0)
(1.29463 -0.0395197 0)
(1.29463 -0.0395197 0)
(1.29463 -0.0395197 0)
(1.29463 -0.0395197 0)
(1.29463 -0.0395197 0)
(1.29463 -0.0395197 0)
(1.29463 -0.0395197 0)
(1.29463 -0.0395197 0)
(1.29463 -0.0395197 0)
(1.29463 -0.0395197 0)
(1.29463 -0.0395197 0)
(1.29463 -0.0395197 0)
(1.29463 -0.0395197 0)
(1.29463 -0.0395197 0)
(1.29463 -0.0395197 0)
(1.29463 -0.0395197 0)
(1.29463 -0.0395197 0)
(1.29463 -0.0395197 0)
(1.29463 -0.0395197 0)
(1.29463 -0.0395197 0)
(1.29463 -0.0395197 0)
(1.29463 -0.0395197 0)
(1.29463 -0.0395197 0)
(1.29463 -0.0395197 0)
(1.29463 -0.0395197 0)
(1.29463 -0.0395197 0)
(1.29463 -0.0395197 0)
(1.29463 -0.0395197 0)
(1.29463 -0.0395197 0)
(1.29463 -0.0395197 0)
(1.29463 -0.0395197 0)
(1.29463 -0.0395197 0)
(1.29463 -0.0395197 0)
(1.29463 -0.0395197 0)
(1.29463 -0.0395197 0)
(1.29463 -0.0395197 0)
(1.29463 -0.0395197 0)
(1.29463 -0.0395197 0)
(1.29463 -0.0395197 0)
(1.29463 -0.0395197 0)
(1.29463 -0.0395197 0)
(1.29463 -0.0395197 0)
(1.29463 -0.0395197 0)
(1.29463 -0.0395197 0)
(1.29463 -0.0395197 0)
(1.29463 -0.0395197 0)
(1.29463 -0.0395197 0)
(1.29463 -0.0395197 0)
(1.29463 -0.0395197 0)
(1.29463 -0.0395197 0)
(1.29463 -0.0395197 0)
(1.29463 -0.0395197 0)
(1.29463 -0.0395197 0)
(1.29463 -0.0395197 0)
(1.29463 -0.0395197 0)
(1.29463 -0.0395197 0)
(1.29463 -0.0395197 0)
(1.29463 -0.0395197 0)
(1.29463 -0.0395197 0)
(1.29463 -0.0395197 0)
(1.29463 -0.0395197 0)
(1.29463 -0.0395197 0)
(1.29463 -0.0395197 0)
(1.29463 -0.0395197 0)
(1.29463 -0.0395197 0)
(1.29463 -0.0395197 0)
(1.29463 -0.0395197 0)
(1.29463 -0.0395197 0)
(1.29463 -0.0395197 0)
(1.29463 -0.0395197 0)
(1.29463 -0.0395197 0)
(1.29463 -0.0395197 0)
(1.29463 -0.0395197 0)
(1.29463 -0.0395197 0)
(1.29463 -0.0395197 0)
(1.29463 -0.0395197 0)
(1.29463 -0.0395197 0)
(1.29463 -0.0395197 0)
(1.29463 -0.0395197 0)
(1.29463 -0.0395195 0)
(1.29463 -0.039511 0)
(1.2946 -0.0391657 0)
(1.29409 -0.0224397 0)
)
;

boundaryField
{
    inandouthalf11
    {
        type            cyclic;
    }
    inandouthalf12
    {
        type            cyclic;
    }
    inandouthalf21
    {
        type            cyclic;
    }
    inandouthalf22
    {
        type            cyclic;
    }
    inandouthalf31
    {
        type            cyclic;
    }
    inandouthalf32
    {
        type            cyclic;
    }
    inandouthalf41
    {
        type            cyclic;
    }
    inandouthalf42
    {
        type            cyclic;
    }
    top
    {
        type            symmetryPlane;
    }
    walls
    {
        type            fixedValue;
        value           uniform (0 0 0);
    }
    frontAndBackPlanes
    {
        type            empty;
    }
}


// ************************************************************************* //
