/*--------------------------------*- C++ -*----------------------------------*\
| =========                 |                                                 |
| \\      /  F ield         | OpenFOAM: The Open Source CFD Toolbox           |
|  \\    /   O peration     | Version:  2.4.x                                 |
|   \\  /    A nd           | Web:      www.OpenFOAM.org                      |
|    \\/     M anipulation  |                                                 |
\*---------------------------------------------------------------------------*/
FoamFile
{
    version     2.0;
    format      ascii;
    class       volVectorField;
    location    "8.6";
    object      Ub;
}
// * * * * * * * * * * * * * * * * * * * * * * * * * * * * * * * * * * * * * //

dimensions      [0 1 -1 0 0 0 0];

internalField   nonuniform List<vector> 
360
(
(0.000166099 2.16378e-08 0)
(0.000165212 7.71221e-08 0)
(0.000165098 1.42817e-07 0)
(0.000165235 2.05545e-07 0)
(0.000165311 2.6897e-07 0)
(0.000165347 3.34873e-07 0)
(0.000165388 4.02469e-07 0)
(0.000165436 4.70969e-07 0)
(0.000165485 5.40148e-07 0)
(0.000165534 6.10017e-07 0)
(0.000165585 6.80598e-07 0)
(0.000165635 7.51844e-07 0)
(0.000165686 8.23676e-07 0)
(0.000165737 8.9601e-07 0)
(0.000165789 9.68766e-07 0)
(0.000165841 1.04188e-06 0)
(0.000165894 1.11527e-06 0)
(0.000165947 1.18889e-06 0)
(0.000166 1.26263e-06 0)
(0.000166054 1.33644e-06 0)
(0.000166108 1.41023e-06 0)
(0.000166163 1.48392e-06 0)
(0.000166218 1.55745e-06 0)
(0.000166273 1.63074e-06 0)
(0.000166328 1.70374e-06 0)
(0.000166384 1.77639e-06 0)
(0.00016644 1.84862e-06 0)
(0.000166496 1.92039e-06 0)
(0.000166553 1.99167e-06 0)
(0.000166609 2.06241e-06 0)
(0.000166666 2.13257e-06 0)
(0.000166723 2.20215e-06 0)
(0.000166781 2.27109e-06 0)
(0.000166839 2.33942e-06 0)
(0.000166896 2.40709e-06 0)
(0.000166955 2.47412e-06 0)
(0.000167013 2.54048e-06 0)
(0.000167072 2.6062e-06 0)
(0.000167131 2.67128e-06 0)
(0.00016719 2.73571e-06 0)
(0.00016725 2.79952e-06 0)
(0.00016731 2.86273e-06 0)
(0.00016737 2.92532e-06 0)
(0.000167431 2.98734e-06 0)
(0.000167492 3.04879e-06 0)
(0.000167553 3.1097e-06 0)
(0.000167615 3.17009e-06 0)
(0.000167677 3.22994e-06 0)
(0.00016774 3.2893e-06 0)
(0.000167803 3.34819e-06 0)
(0.000167866 3.40661e-06 0)
(0.00016793 3.4646e-06 0)
(0.000167995 3.52214e-06 0)
(0.00016806 3.57928e-06 0)
(0.000168125 3.636e-06 0)
(0.000168192 3.69235e-06 0)
(0.000168258 3.74829e-06 0)
(0.000168326 3.80387e-06 0)
(0.000168393 3.85907e-06 0)
(0.000168461 3.91388e-06 0)
(0.000168531 3.96834e-06 0)
(0.0001686 4.02243e-06 0)
(0.000168671 4.07618e-06 0)
(0.000168742 4.12959e-06 0)
(0.000168814 4.18265e-06 0)
(0.000168886 4.23535e-06 0)
(0.000168959 4.2877e-06 0)
(0.000169033 4.33968e-06 0)
(0.000169108 4.39129e-06 0)
(0.000169183 4.44251e-06 0)
(0.00016926 4.49335e-06 0)
(0.000169337 4.54383e-06 0)
(0.000169415 4.5939e-06 0)
(0.000169494 4.64359e-06 0)
(0.000169574 4.69288e-06 0)
(0.000169655 4.74178e-06 0)
(0.000169736 4.79027e-06 0)
(0.000169819 4.83833e-06 0)
(0.000169903 4.88593e-06 0)
(0.000169988 4.93309e-06 0)
(0.000170073 4.97976e-06 0)
(0.00017016 5.02596e-06 0)
(0.000170248 5.07167e-06 0)
(0.000170337 5.11691e-06 0)
(0.000170428 5.16165e-06 0)
(0.00017052 5.2059e-06 0)
(0.000170613 5.24965e-06 0)
(0.000170707 5.29288e-06 0)
(0.000170803 5.33557e-06 0)
(0.0001709 5.37772e-06 0)
(0.000170998 5.41929e-06 0)
(0.000171098 5.46028e-06 0)
(0.0001712 5.5007e-06 0)
(0.000171303 5.54052e-06 0)
(0.000171408 5.57976e-06 0)
(0.000171515 5.61841e-06 0)
(0.000171623 5.65646e-06 0)
(0.000171734 5.6939e-06 0)
(0.000171846 5.73073e-06 0)
(0.000171961 5.76694e-06 0)
(0.000172077 5.80252e-06 0)
(0.000172196 5.83746e-06 0)
(0.000172317 5.87176e-06 0)
(0.00017244 5.90541e-06 0)
(0.000172567 5.93844e-06 0)
(0.000172695 5.97084e-06 0)
(0.000172827 6.00262e-06 0)
(0.000172961 6.03382e-06 0)
(0.000173098 6.06444e-06 0)
(0.000173239 6.09454e-06 0)
(0.000173382 6.12413e-06 0)
(0.00017353 6.15326e-06 0)
(0.000173681 6.18196e-06 0)
(0.000173835 6.21029e-06 0)
(0.000173994 6.23827e-06 0)
(0.000174157 6.26594e-06 0)
(0.000174324 6.29331e-06 0)
(0.000174496 6.32041e-06 0)
(0.000174673 6.34721e-06 0)
(0.000174855 6.37371e-06 0)
(0.000175042 6.39988e-06 0)
(0.000175235 6.42565e-06 0)
(0.000175434 6.45099e-06 0)
(0.00017564 6.47586e-06 0)
(0.000175852 6.50021e-06 0)
(0.000176071 6.52408e-06 0)
(0.000176299 6.54751e-06 0)
(0.000176535 6.57068e-06 0)
(0.000176781 6.59383e-06 0)
(0.000177037 6.6173e-06 0)
(0.000177305 6.64157e-06 0)
(0.000177585 6.6672e-06 0)
(0.000177878 6.69483e-06 0)
(0.000178188 6.72517e-06 0)
(0.000178518 6.75884e-06 0)
(0.000178868 6.79589e-06 0)
(0.000179236 6.83509e-06 0)
(0.000179627 6.87352e-06 0)
(0.000180058 6.90684e-06 0)
(0.000180548 6.93053e-06 0)
(0.000181074 6.94153e-06 0)
(0.00018158 7.04267e-06 0)
(0.000182185 4.91564e-06 0)
(0.000183975 1.74239e-05 0)
(0.000828321 -3.11207e-05 0)
(0.0814043 -0.000544382 0)
(0.19897 -0.00101553 0)
(0.302034 -0.000994134 0)
(0.39248 -0.000968242 0)
(0.47304 -0.00093397 0)
(0.545619 -0.000899619 0)
(0.611529 -0.000867821 0)
(0.6717 -0.000837542 0)
(0.726878 -0.000810314 0)
(0.777665 -0.000783909 0)
(0.82456 -0.000756608 0)
(0.86799 -0.00072729 0)
(0.908319 -0.000695315 0)
(0.945862 -0.000660438 0)
(0.980889 -0.000622758 0)
(1.01364 -0.000582627 0)
(1.04432 -0.000540558 0)
(1.0731 -0.000497183 0)
(1.10015 -0.000453199 0)
(1.1256 -0.000409319 0)
(1.14956 -0.000366232 0)
(1.17213 -0.000324575 0)
(1.19341 -0.000284896 0)
(1.21346 -0.00024764 0)
(1.23235 -0.000213135 0)
(1.25011 -0.000181595 0)
(1.2668 -0.000153131 0)
(1.28243 -0.000127762 0)
(1.29703 -0.000105438 0)
(1.31059 -8.60447e-05 0)
(1.32312 -6.94212e-05 0)
(1.33462 -5.53593e-05 0)
(1.34506 -4.36094e-05 0)
(1.35446 -3.38997e-05 0)
(1.36279 -2.59737e-05 0)
(1.37008 -1.96207e-05 0)
(1.37636 -1.46658e-05 0)
(1.38168 -1.09294e-05 0)
(1.3861 -8.19967e-06 0)
(1.38974 -6.24591e-06 0)
(1.39268 -4.85402e-06 0)
(1.39502 -3.85263e-06 0)
(1.39687 -3.1186e-06 0)
(1.3983 -2.56864e-06 0)
(1.39939 -2.14764e-06 0)
(1.40019 -1.81894e-06 0)
(1.40076 -1.55776e-06 0)
(1.40114 -1.34697e-06 0)
(1.40135 -1.1745e-06 0)
(1.40143 -1.03166e-06 0)
(1.40138 -9.12065e-07 0)
(1.40124 -8.10968e-07 0)
(1.401 -7.24756e-07 0)
(1.40069 -6.50653e-07 0)
(1.40031 -5.86491e-07 0)
(1.39987 -5.30559e-07 0)
(1.39936 -4.80996e-07 0)
(1.3988 -4.36474e-07 0)
(1.39817 -3.96329e-07 0)
(1.39748 -3.59993e-07 0)
(1.39674 -3.26981e-07 0)
(1.39593 -2.96874e-07 0)
(1.39507 -2.6931e-07 0)
(1.39414 -2.43978e-07 0)
(1.39317 -2.20616e-07 0)
(1.39213 -1.99007e-07 0)
(1.39104 -1.78981e-07 0)
(1.38989 -1.60402e-07 0)
(1.38868 -1.4316e-07 0)
(1.38742 -1.27179e-07 0)
(1.3861 -1.12415e-07 0)
(1.38472 -9.88388e-08 0)
(1.38329 -8.64192e-08 0)
(1.3818 -7.513e-08 0)
(1.38025 -6.49481e-08 0)
(1.37866 -5.58374e-08 0)
(1.377 -4.77397e-08 0)
(1.37529 -4.0591e-08 0)
(1.37353 -3.43284e-08 0)
(1.37171 -2.88796e-08 0)
(1.36984 -2.41667e-08 0)
(1.36792 -2.01154e-08 0)
(1.36594 -1.66549e-08 0)
(1.36392 -1.37158e-08 0)
(1.36185 -1.12322e-08 0)
(1.35973 -9.14462e-09 0)
(1.35757 -7.40234e-09 0)
(1.35536 -5.94528e-09 0)
(1.35311 -4.7232e-09 0)
(1.35081 -3.75528e-09 0)
(1.34849 -3.00508e-09 0)
(1.34612 -2.32242e-09 0)
(1.34373 -1.69755e-09 0)
(1.34131 -1.21243e-09 0)
(1.33886 -8.53946e-10 0)
(1.33639 -5.88396e-10 0)
(1.33391 -3.9062e-10 0)
(1.33142 -2.47871e-10 0)
(1.32893 -1.42627e-10 0)
(1.32644 -7.47819e-11 0)
(1.32396 -9.75861e-12 0)
(1.3215 2.14234e-11 0)
(1.31907 1.62908e-12 0)
(1.31668 6.49666e-13 0)
(1.31434 1.71231e-12 0)
(1.31207 1.95434e-12 0)
(1.30987 1.83388e-12 0)
(1.30778 1.72064e-12 0)
(1.3058 1.64549e-12 0)
(1.30397 1.60643e-12 0)
(1.30229 1.53479e-12 0)
(1.3008 1.00476e-12 0)
(1.29951 -8.89837e-13 0)
(1.29847 1.45644e-11 0)
(1.29767 -3.55883e-11 0)
(1.29716 7.61912e-11 0)
(1.29692 -1.2856e-10 0)
(1.29696 2.00972e-10 0)
(1.29722 -2.84137e-10 0)
(1.29764 3.8244e-10 0)
(1.29793 -4.85557e-10 0)
(1.29798 5.96448e-10 0)
(1.29798 -7.07474e-10 0)
(1.29798 8.23684e-10 0)
(1.29798 -9.39934e-10 0)
(1.29798 1.06125e-09 0)
(1.29798 -1.18312e-09 0)
(1.29798 1.31002e-09 0)
(1.29798 -1.43791e-09 0)
(1.29798 1.57083e-09 0)
(1.29798 -1.70512e-09 0)
(1.29798 1.84443e-09 0)
(1.29798 -1.98546e-09 0)
(1.29798 2.13147e-09 0)
(1.29798 -2.27953e-09 0)
(1.29798 2.43252e-09 0)
(1.29798 -2.58787e-09 0)
(1.29798 2.74811e-09 0)
(1.29798 -2.91097e-09 0)
(1.29798 3.07868e-09 0)
(1.29798 -3.24924e-09 0)
(1.29798 3.42459e-09 0)
(1.29798 -3.60307e-09 0)
(1.29798 3.78618e-09 0)
(1.29798 -3.97268e-09 0)
(1.29798 4.16372e-09 0)
(1.29798 -4.35836e-09 0)
(1.29798 4.55745e-09 0)
(1.29798 -4.76032e-09 0)
(1.29798 4.96753e-09 0)
(1.29798 -5.1787e-09 0)
(1.29798 5.39409e-09 0)
(1.29798 -5.61355e-09 0)
(1.29798 5.83722e-09 0)
(1.29798 -6.06498e-09 0)
(1.29798 6.29689e-09 0)
(1.29798 -6.53292e-09 0)
(1.29798 6.77305e-09 0)
(1.29798 -7.01728e-09 0)
(1.29798 7.26554e-09 0)
(1.29798 -7.51785e-09 0)
(1.29798 7.77411e-09 0)
(1.29798 -8.03433e-09 0)
(1.29798 8.29838e-09 0)
(1.29798 -8.56627e-09 0)
(1.29798 7.75949e-09 0)
(1.29798 -7.85525e-09 0)
(1.29798 7.94997e-09 0)
(1.29798 -8.04366e-09 0)
(1.29798 8.13631e-09 0)
(1.29798 -8.22791e-09 0)
(1.29798 8.31846e-09 0)
(1.29798 -8.4079e-09 0)
(1.29798 8.49631e-09 0)
(1.29798 -8.58357e-09 0)
(1.29798 8.66979e-09 0)
(1.29798 -8.7548e-09 0)
(1.29798 8.83879e-09 0)
(1.29798 -8.9215e-09 0)
(1.29798 9.00322e-09 0)
(1.29798 -9.08355e-09 0)
(1.29798 9.16295e-09 0)
(1.29798 -9.24084e-09 0)
(1.29798 9.31789e-09 0)
(1.29798 -9.39309e-09 0)
(1.29798 9.46802e-09 0)
(1.29798 -9.5403e-09 0)
(1.29798 9.61305e-09 0)
(1.29798 -9.68231e-09 0)
(1.29798 9.75281e-09 0)
(1.29798 -9.81894e-09 0)
(1.29798 9.88708e-09 0)
(1.29798 -9.94995e-09 0)
(1.29798 1.00156e-08 0)
(1.29798 -1.00751e-08 0)
(1.29798 1.01382e-08 0)
(1.29798 -1.01941e-08 0)
(1.29798 1.02544e-08 0)
(1.29798 -1.03067e-08 0)
(1.29798 1.0364e-08 0)
(1.29798 -1.04122e-08 0)
(1.29798 1.04667e-08 0)
(1.29798 -1.05104e-08 0)
(1.29798 1.05617e-08 0)
(1.29798 -1.06006e-08 0)
(1.29798 1.06484e-08 0)
(1.29798 -1.06822e-08 0)
(1.29798 1.07259e-08 0)
(1.29798 -1.07538e-08 0)
(1.29798 1.07932e-08 0)
(1.29798 -1.08141e-08 0)
(1.29798 1.08478e-08 0)
(1.29798 -1.08602e-08 0)
(1.29798 1.08858e-08 0)
(1.29798 -1.08873e-08 0)
)
;

boundaryField
{
    inandouthalf11
    {
        type            cyclic;
    }
    inandouthalf12
    {
        type            cyclic;
    }
    inandouthalf21
    {
        type            cyclic;
    }
    inandouthalf22
    {
        type            cyclic;
    }
    inandouthalf31
    {
        type            cyclic;
    }
    inandouthalf32
    {
        type            cyclic;
    }
    inandouthalf41
    {
        type            cyclic;
    }
    inandouthalf42
    {
        type            cyclic;
    }
    top
    {
        type            symmetryPlane;
    }
    walls
    {
        type            fixedValue;
        value           uniform (0 0 0);
    }
    frontAndBackPlanes
    {
        type            empty;
    }
}


// ************************************************************************* //
