/*--------------------------------*- C++ -*----------------------------------*\
| =========                 |                                                 |
| \\      /  F ield         | OpenFOAM: The Open Source CFD Toolbox           |
|  \\    /   O peration     | Version:  2.4.x                                 |
|   \\  /    A nd           | Web:      www.OpenFOAM.org                      |
|    \\/     M anipulation  |                                                 |
\*---------------------------------------------------------------------------*/
FoamFile
{
    version     2.0;
    format      ascii;
    class       volVectorField;
    location    "8.6";
    object      Ub_0;
}
// * * * * * * * * * * * * * * * * * * * * * * * * * * * * * * * * * * * * * //

dimensions      [0 1 -1 0 0 0 0];

internalField   nonuniform List<vector> 
360
(
(0.000166156 2.16415e-08 0)
(0.000165269 7.71353e-08 0)
(0.000165154 1.42842e-07 0)
(0.000165292 2.05581e-07 0)
(0.000165367 2.69016e-07 0)
(0.000165404 3.3493e-07 0)
(0.000165445 4.02538e-07 0)
(0.000165493 4.7105e-07 0)
(0.000165542 5.4024e-07 0)
(0.000165591 6.1012e-07 0)
(0.000165641 6.80712e-07 0)
(0.000165692 7.51968e-07 0)
(0.000165743 8.2381e-07 0)
(0.000165794 8.96154e-07 0)
(0.000165846 9.6892e-07 0)
(0.000165898 1.04204e-06 0)
(0.000165951 1.11545e-06 0)
(0.000166004 1.18907e-06 0)
(0.000166057 1.26282e-06 0)
(0.000166111 1.33664e-06 0)
(0.000166165 1.41043e-06 0)
(0.00016622 1.48413e-06 0)
(0.000166275 1.55766e-06 0)
(0.00016633 1.63096e-06 0)
(0.000166385 1.70397e-06 0)
(0.000166441 1.77662e-06 0)
(0.000166497 1.84885e-06 0)
(0.000166553 1.92063e-06 0)
(0.00016661 1.99191e-06 0)
(0.000166666 2.06266e-06 0)
(0.000166723 2.13283e-06 0)
(0.00016678 2.2024e-06 0)
(0.000166838 2.27135e-06 0)
(0.000166896 2.33968e-06 0)
(0.000166953 2.40736e-06 0)
(0.000167012 2.47439e-06 0)
(0.00016707 2.54076e-06 0)
(0.000167129 2.60647e-06 0)
(0.000167188 2.67156e-06 0)
(0.000167247 2.736e-06 0)
(0.000167307 2.79981e-06 0)
(0.000167367 2.86302e-06 0)
(0.000167427 2.92562e-06 0)
(0.000167488 2.98764e-06 0)
(0.000167549 3.0491e-06 0)
(0.00016761 3.11001e-06 0)
(0.000167672 3.1704e-06 0)
(0.000167734 3.23026e-06 0)
(0.000167797 3.28962e-06 0)
(0.00016786 3.34852e-06 0)
(0.000167924 3.40695e-06 0)
(0.000167988 3.46494e-06 0)
(0.000168052 3.52249e-06 0)
(0.000168117 3.57964e-06 0)
(0.000168183 3.63636e-06 0)
(0.000168249 3.69271e-06 0)
(0.000168316 3.74867e-06 0)
(0.000168383 3.80425e-06 0)
(0.000168451 3.85945e-06 0)
(0.000168519 3.91427e-06 0)
(0.000168588 3.96874e-06 0)
(0.000168658 4.02284e-06 0)
(0.000168729 4.0766e-06 0)
(0.0001688 4.13001e-06 0)
(0.000168871 4.18308e-06 0)
(0.000168944 4.23578e-06 0)
(0.000169017 4.28814e-06 0)
(0.000169091 4.34013e-06 0)
(0.000169166 4.39175e-06 0)
(0.000169241 4.44298e-06 0)
(0.000169318 4.49382e-06 0)
(0.000169395 4.5443e-06 0)
(0.000169473 4.59438e-06 0)
(0.000169552 4.64408e-06 0)
(0.000169632 4.69338e-06 0)
(0.000169713 4.74229e-06 0)
(0.000169794 4.79078e-06 0)
(0.000169877 4.83885e-06 0)
(0.000169961 4.88646e-06 0)
(0.000170046 4.93362e-06 0)
(0.000170131 4.9803e-06 0)
(0.000170218 5.02651e-06 0)
(0.000170306 5.07223e-06 0)
(0.000170396 5.11747e-06 0)
(0.000170486 5.16222e-06 0)
(0.000170578 5.20648e-06 0)
(0.000170671 5.25023e-06 0)
(0.000170765 5.29347e-06 0)
(0.000170861 5.33617e-06 0)
(0.000170958 5.37832e-06 0)
(0.000171056 5.4199e-06 0)
(0.000171156 5.4609e-06 0)
(0.000171258 5.50132e-06 0)
(0.000171361 5.54115e-06 0)
(0.000171466 5.58039e-06 0)
(0.000171573 5.61904e-06 0)
(0.000171682 5.6571e-06 0)
(0.000171792 5.69455e-06 0)
(0.000171905 5.73139e-06 0)
(0.000172019 5.7676e-06 0)
(0.000172136 5.80318e-06 0)
(0.000172255 5.83813e-06 0)
(0.000172376 5.87243e-06 0)
(0.000172499 5.90609e-06 0)
(0.000172625 5.93912e-06 0)
(0.000172754 5.97153e-06 0)
(0.000172885 6.00332e-06 0)
(0.00017302 6.03452e-06 0)
(0.000173157 6.06515e-06 0)
(0.000173298 6.09525e-06 0)
(0.000173441 6.12484e-06 0)
(0.000173589 6.15397e-06 0)
(0.00017374 6.18269e-06 0)
(0.000173894 6.21102e-06 0)
(0.000174053 6.239e-06 0)
(0.000174216 6.26668e-06 0)
(0.000174384 6.29405e-06 0)
(0.000174556 6.32115e-06 0)
(0.000174732 6.34796e-06 0)
(0.000174914 6.37447e-06 0)
(0.000175102 6.40063e-06 0)
(0.000175295 6.42641e-06 0)
(0.000175494 6.45176e-06 0)
(0.000175699 6.47663e-06 0)
(0.000175912 6.50099e-06 0)
(0.000176131 6.52486e-06 0)
(0.000176359 6.54831e-06 0)
(0.000176595 6.57149e-06 0)
(0.000176841 6.59465e-06 0)
(0.000177097 6.61814e-06 0)
(0.000177365 6.64243e-06 0)
(0.000177645 6.66807e-06 0)
(0.000177938 6.69571e-06 0)
(0.000178248 6.72606e-06 0)
(0.000178578 6.75975e-06 0)
(0.000178928 6.79681e-06 0)
(0.000179297 6.83602e-06 0)
(0.000179688 6.87447e-06 0)
(0.000180119 6.9078e-06 0)
(0.000180609 6.93152e-06 0)
(0.000181136 6.94256e-06 0)
(0.000181642 7.03984e-06 0)
(0.000182247 4.95629e-06 0)
(0.000184032 1.72987e-05 0)
(0.000825839 -3.06129e-05 0)
(0.0812647 -0.000541671 0)
(0.19882 -0.00101547 0)
(0.301897 -0.000993804 0)
(0.392358 -0.0009679 0)
(0.472935 -0.000933608 0)
(0.545529 -0.000899292 0)
(0.611452 -0.000867591 0)
(0.671633 -0.000837448 0)
(0.726821 -0.000810368 0)
(0.777615 -0.000784097 0)
(0.824517 -0.000756905 0)
(0.867951 -0.000727663 0)
(0.908283 -0.000695731 0)
(0.945827 -0.000660863 0)
(0.980856 -0.000623166 0)
(1.01361 -0.000582993 0)
(1.04428 -0.000540867 0)
(1.07307 -0.000497425 0)
(1.10012 -0.000453371 0)
(1.12556 -0.000409423 0)
(1.14952 -0.000366275 0)
(1.17209 -0.000324567 0)
(1.19337 -0.000284848 0)
(1.21342 -0.000247564 0)
(1.2323 -0.000213041 0)
(1.25007 -0.000181491 0)
(1.26675 -0.000153024 0)
(1.28238 -0.000127658 0)
(1.29697 -0.000105339 0)
(1.31053 -8.59538e-05 0)
(1.32306 -6.93396e-05 0)
(1.33455 -5.52874e-05 0)
(1.34499 -4.35472e-05 0)
(1.35438 -3.38466e-05 0)
(1.36271 -2.59293e-05 0)
(1.36999 -1.95845e-05 0)
(1.37626 -1.46374e-05 0)
(1.38157 -1.0908e-05 0)
(1.38599 -8.18406e-06 0)
(1.38962 -6.23472e-06 0)
(1.39256 -4.846e-06 0)
(1.3949 -3.8468e-06 0)
(1.39674 -3.11427e-06 0)
(1.39817 -2.56536e-06 0)
(1.39925 -2.14509e-06 0)
(1.40006 -1.81693e-06 0)
(1.40063 -1.55615e-06 0)
(1.401 -1.34566e-06 0)
(1.40121 -1.17342e-06 0)
(1.40129 -1.03075e-06 0)
(1.40124 -9.11303e-07 0)
(1.40109 -8.10319e-07 0)
(1.40086 -7.242e-07 0)
(1.40055 -6.50172e-07 0)
(1.40016 -5.86073e-07 0)
(1.39972 -5.30193e-07 0)
(1.39922 -4.80674e-07 0)
(1.39865 -4.36191e-07 0)
(1.39802 -3.96079e-07 0)
(1.39733 -3.59771e-07 0)
(1.39659 -3.26784e-07 0)
(1.39578 -2.96699e-07 0)
(1.39492 -2.69154e-07 0)
(1.39399 -2.43839e-07 0)
(1.39302 -2.20491e-07 0)
(1.39198 -1.98896e-07 0)
(1.39089 -1.78881e-07 0)
(1.38974 -1.60312e-07 0)
(1.38853 -1.4308e-07 0)
(1.38726 -1.27107e-07 0)
(1.38594 -1.12352e-07 0)
(1.38457 -9.87824e-08 0)
(1.38313 -8.63695e-08 0)
(1.38165 -7.50863e-08 0)
(1.3801 -6.49101e-08 0)
(1.3785 -5.58044e-08 0)
(1.37685 -4.77113e-08 0)
(1.37514 -4.05667e-08 0)
(1.37337 -3.43077e-08 0)
(1.37155 -2.8862e-08 0)
(1.36968 -2.4152e-08 0)
(1.36776 -2.0103e-08 0)
(1.36579 -1.66447e-08 0)
(1.36377 -1.37073e-08 0)
(1.36169 -1.12252e-08 0)
(1.35957 -9.13888e-09 0)
(1.35741 -7.39766e-09 0)
(1.3552 -5.94147e-09 0)
(1.35295 -4.72015e-09 0)
(1.35066 -3.7529e-09 0)
(1.34833 -3.00316e-09 0)
(1.34596 -2.32086e-09 0)
(1.34357 -1.69638e-09 0)
(1.34115 -1.21158e-09 0)
(1.3387 -8.53323e-10 0)
(1.33623 -5.87935e-10 0)
(1.33375 -3.90283e-10 0)
(1.33126 -2.47611e-10 0)
(1.32877 -1.42436e-10 0)
(1.32628 -7.45946e-11 0)
(1.3238 -9.6655e-12 0)
(1.32134 2.1402e-11 0)
(1.31891 1.65701e-12 0)
(1.31652 6.74241e-13 0)
(1.31418 1.73304e-12 0)
(1.31191 1.97407e-12 0)
(1.30971 1.85305e-12 0)
(1.30762 1.73907e-12 0)
(1.30564 1.66314e-12 0)
(1.30381 1.6231e-12 0)
(1.30213 1.55072e-12 0)
(1.30064 1.01978e-12 0)
(1.29935 -8.81918e-13 0)
(1.29831 1.45953e-11 0)
(1.29752 -3.56072e-11 0)
(1.297 7.62516e-11 0)
(1.29676 -1.28614e-10 0)
(1.2968 2.01064e-10 0)
(1.29707 -2.84224e-10 0)
(1.29749 3.82557e-10 0)
(1.29778 -4.85666e-10 0)
(1.29782 5.9658e-10 0)
(1.29782 -7.07597e-10 0)
(1.29782 8.23826e-10 0)
(1.29782 -9.4007e-10 0)
(1.29782 1.06141e-09 0)
(1.29782 -1.18327e-09 0)
(1.29782 1.31018e-09 0)
(1.29782 -1.43808e-09 0)
(1.29782 1.57101e-09 0)
(1.29782 -1.70531e-09 0)
(1.29782 1.84462e-09 0)
(1.29782 -1.98566e-09 0)
(1.29782 2.13168e-09 0)
(1.29782 -2.27974e-09 0)
(1.29782 2.43275e-09 0)
(1.29782 -2.58811e-09 0)
(1.29782 2.74836e-09 0)
(1.29782 -2.91122e-09 0)
(1.29782 3.07894e-09 0)
(1.29782 -3.24951e-09 0)
(1.29782 3.42487e-09 0)
(1.29782 -3.60336e-09 0)
(1.29782 3.78648e-09 0)
(1.29782 -3.97299e-09 0)
(1.29782 4.16405e-09 0)
(1.29782 -4.3587e-09 0)
(1.29782 4.5578e-09 0)
(1.29782 -4.76068e-09 0)
(1.29782 4.96791e-09 0)
(1.29782 -5.17908e-09 0)
(1.29782 5.3945e-09 0)
(1.29782 -5.61396e-09 0)
(1.29782 5.83766e-09 0)
(1.29782 -6.06542e-09 0)
(1.29782 6.29735e-09 0)
(1.29782 -6.53339e-09 0)
(1.29782 6.77354e-09 0)
(1.29782 -7.01777e-09 0)
(1.29782 7.26606e-09 0)
(1.29782 -7.51837e-09 0)
(1.29782 7.77466e-09 0)
(1.29782 -8.03488e-09 0)
(1.29782 8.29896e-09 0)
(1.29782 -8.56687e-09 0)
(1.29782 7.76001e-09 0)
(1.29782 -7.8558e-09 0)
(1.29782 7.95049e-09 0)
(1.29782 -8.04423e-09 0)
(1.29782 8.13683e-09 0)
(1.29782 -8.2285e-09 0)
(1.29782 8.31897e-09 0)
(1.29782 -8.40852e-09 0)
(1.29782 8.49682e-09 0)
(1.29782 -8.58421e-09 0)
(1.29782 8.67028e-09 0)
(1.29782 -8.75547e-09 0)
(1.29782 8.83927e-09 0)
(1.29782 -8.92221e-09 0)
(1.29782 9.00366e-09 0)
(1.29782 -9.08432e-09 0)
(1.29782 9.16335e-09 0)
(1.29782 -9.24166e-09 0)
(1.29782 9.31816e-09 0)
(1.29782 -9.39424e-09 0)
(1.29782 9.46789e-09 0)
(1.29782 -9.54186e-09 0)
(1.29782 9.61252e-09 0)
(1.29782 -9.6843e-09 0)
(1.29782 9.75186e-09 0)
(1.29782 -9.82135e-09 0)
(1.29782 9.88572e-09 0)
(1.29782 -9.95281e-09 0)
(1.29782 1.00138e-08 0)
(1.29782 -1.00784e-08 0)
(1.29782 1.0136e-08 0)
(1.29782 -1.01979e-08 0)
(1.29782 1.02518e-08 0)
(1.29782 -1.03108e-08 0)
(1.29782 1.03609e-08 0)
(1.29782 -1.0417e-08 0)
(1.29782 1.04628e-08 0)
(1.29782 -1.05159e-08 0)
(1.29782 1.05571e-08 0)
(1.29782 -1.06069e-08 0)
(1.29782 1.06432e-08 0)
(1.29782 -1.06891e-08 0)
(1.29782 1.07199e-08 0)
(1.29782 -1.07617e-08 0)
(1.29782 1.07861e-08 0)
(1.29782 -1.0823e-08 0)
(1.29782 1.08399e-08 0)
(1.29782 -1.08699e-08 0)
(1.29782 1.08766e-08 0)
(1.29782 -1.08932e-08 0)
)
;

boundaryField
{
    inandouthalf11
    {
        type            cyclic;
    }
    inandouthalf12
    {
        type            cyclic;
    }
    inandouthalf21
    {
        type            cyclic;
    }
    inandouthalf22
    {
        type            cyclic;
    }
    inandouthalf31
    {
        type            cyclic;
    }
    inandouthalf32
    {
        type            cyclic;
    }
    inandouthalf41
    {
        type            cyclic;
    }
    inandouthalf42
    {
        type            cyclic;
    }
    top
    {
        type            symmetryPlane;
    }
    walls
    {
        type            fixedValue;
        value           uniform (0 0 0);
    }
    frontAndBackPlanes
    {
        type            empty;
    }
}


// ************************************************************************* //
