/*--------------------------------*- C++ -*----------------------------------*\
| =========                 |                                                 |
| \\      /  F ield         | OpenFOAM: The Open Source CFD Toolbox           |
|  \\    /   O peration     | Version:  2.4.x                                 |
|   \\  /    A nd           | Web:      www.OpenFOAM.org                      |
|    \\/     M anipulation  |                                                 |
\*---------------------------------------------------------------------------*/
FoamFile
{
    version     2.0;
    format      ascii;
    class       volScalarField;
    location    "7.95";
    object      ddt0(epsilon);
}
// * * * * * * * * * * * * * * * * * * * * * * * * * * * * * * * * * * * * * //

dimensions      [0 2 -4 0 0 0 0];

internalField   nonuniform List<scalar> 
360
(
0
0
0
0
0
0
0
0
0
0
0
0
0
0
0
0
0
0
0
0
0
0
0
0
0
0
0
0
0
0
0
0
0
0
0
0
0
0
0
0
0
0
0
0
0
0
0
0
0
0
0
0
0
0
0
0
0
0
0
0
0
0
0
0
0
0
0
0
0
0
0
0
0
0
0
0
0
0
0
0
0
0
0
0
0
0
0
0
0
0
0
0
0
0
0
0
0
0
0
0
0
0
0
0
0
0
0
0
0
0
0
0
0
0
0
0
0
0
0
0
0
0
0
0
0
0
0
0
0
0
0
0
0
-1.73905e-277
-7.43387e-20
-2.45229e-19
-5.11959e-19
1.39144e-18
5.42124e-17
1.13109e-15
2.51663e-14
6.38546e-13
1.87326e-11
6.38526e-10
2.53822e-08
1.18573e-06
6.56196e-05
0.00427431
0.211067
1.11429
0.346845
0.476753
0.545047
0.558551
0.540198
0.502347
0.44854
0.379874
0.300984
0.221894
0.153643
0.102121
0.0667594
0.0436813
0.0288192
0.019142
0.0126864
0.00824908
0.00510211
0.00280148
0.00107136
-0.000263577
-0.00131743
-0.00216622
-0.00286175
-0.00344003
-0.00392662
-0.00433997
-0.00469365
-0.00499778
-0.00526002
-0.0054863
-0.00568123
-0.00584848
-0.005991
-0.0061112
-0.00621109
-0.00629235
-0.00635644
-0.00640459
-0.00643794
-0.00645744
-0.00646401
-0.00645845
-0.00644152
-0.00641389
-0.00637623
-0.00632914
-0.00627321
-0.006209
-0.00613709
-0.00605723
-0.00596881
-0.00587191
-0.00576664
-0.00565308
-0.00553133
-0.00540153
-0.00526386
-0.00511851
-0.00496572
-0.00480575
-0.00463891
-0.00446552
-0.00428595
-0.00410059
-0.00390991
-0.00371436
-0.00351446
-0.00331079
-0.00310389
-0.00289444
-0.00268309
-0.00247056
-0.0022576
-0.00204499
-0.00183356
-0.00162416
-0.00141769
-0.00121507
-0.00101725
-0.000825227
-0.000639994
-0.00046258
-0.00029403
-0.000135396
1.22629e-05
0.000147895
0.000270464
0.000378965
0.000472445
0.000550031
0.00061096
0.000654627
0.000680642
0.000688904
0.000679687
0.000653749
0.000612441
0.000557815
0.000492699
0.000420684
0.000345979
0.000273082
0.000206248
0.000148862
0.000102906
6.87142e-05
4.51236e-05
2.98847e-05
2.01634e-05
1.31329e-05
4.87857e-06
4.31169e-07
1.14267e-08
2.46157e-10
5.08549e-12
1.00745e-13
1.90594e-15
3.43187e-17
5.83569e-19
0
0
0
0
0
0
0
0
0
0
0
0
0
0
0
0
0
0
0
0
0
0
0
0
0
0
0
0
0
0
0
0
0
0
0
0
0
0
0
0
0
0
0
0
0
0
0
0
0
0
0
0
0
0
0
0
0
0
0
0
0
0
0
0
0
0
0
0
0
0
0
0
0
0
0
0
0
0
0
0
0
0
0
0
0
0
0
0
0
)
;

boundaryField
{
    inandouthalf11
    {
        type            cyclic;
    }
    inandouthalf12
    {
        type            cyclic;
    }
    inandouthalf21
    {
        type            cyclic;
    }
    inandouthalf22
    {
        type            cyclic;
    }
    inandouthalf31
    {
        type            cyclic;
    }
    inandouthalf32
    {
        type            cyclic;
    }
    inandouthalf41
    {
        type            cyclic;
    }
    inandouthalf42
    {
        type            cyclic;
    }
    top
    {
        type            symmetryPlane;
    }
    walls
    {
        type            calculated;
        value           uniform 0;
    }
    frontAndBackPlanes
    {
        type            empty;
    }
}


// ************************************************************************* //
