/*--------------------------------*- C++ -*----------------------------------*\
| =========                 |                                                 |
| \\      /  F ield         | OpenFOAM: The Open Source CFD Toolbox           |
|  \\    /   O peration     | Version:  2.4.x                                 |
|   \\  /    A nd           | Web:      www.OpenFOAM.org                      |
|    \\/     M anipulation  |                                                 |
\*---------------------------------------------------------------------------*/
FoamFile
{
    version     2.0;
    format      ascii;
    class       volVectorField;
    location    "7.95";
    object      gradPs;
}
// * * * * * * * * * * * * * * * * * * * * * * * * * * * * * * * * * * * * * //

dimensions      [0 1 -2 0 0 0 0];

internalField   nonuniform List<vector> 
360
(
(0 1.54927e-18 0)
(0 1.69746e-18 0)
(0 -1.05783e-20 0)
(0 -2.36557e-19 0)
(-1.45048e-32 -1.0056e-19 0)
(-1.45052e-32 -5.64615e-20 0)
(-1.45056e-32 -7.20724e-20 0)
(0 -8.21075e-20 0)
(-1.45066e-32 -8.37897e-20 0)
(0 -8.48387e-20 0)
(-1.45078e-32 -8.52647e-20 0)
(0 -8.56223e-20 0)
(-1.45089e-32 -8.63145e-20 0)
(0 -8.69809e-20 0)
(0 -8.7866e-20 0)
(0 -8.87385e-20 0)
(0 -8.93763e-20 0)
(-1.45118e-32 -8.99073e-20 0)
(0 -9.08229e-20 0)
(0 -9.13835e-20 0)
(0 -9.19754e-20 0)
(-1.45142e-32 -9.29385e-20 0)
(0 -9.35638e-20 0)
(0 -9.43402e-20 0)
(0 -9.51471e-20 0)
(-1.45166e-32 -9.57533e-20 0)
(0 -9.66834e-20 0)
(0 -9.76664e-20 0)
(0 -9.83107e-20 0)
(0 -9.91013e-20 0)
(0 -1.0032e-19 0)
(0 -1.0085e-19 0)
(0 -1.01974e-19 0)
(0 -1.03132e-19 0)
(0 -1.03792e-19 0)
(1.45233e-32 -1.04842e-19 0)
(0 -1.05816e-19 0)
(0 -1.07397e-19 0)
(0 -1.07784e-19 0)
(0 -1.09021e-19 0)
(0 -1.10785e-19 0)
(0 -1.11005e-19 0)
(1.45283e-32 -1.12594e-19 0)
(0 -1.14033e-19 0)
(0 -1.14881e-19 0)
(0 -1.16645e-19 0)
(0 -1.17295e-19 0)
(0 -1.18372e-19 0)
(0 -1.20814e-19 0)
(0 -1.21573e-19 0)
(2.90693e-32 -1.22613e-19 0)
(0 -1.24455e-19 0)
(0 -1.25924e-19 0)
(0 -1.27075e-19 0)
(0 -1.28914e-19 0)
(0 -1.30404e-19 0)
(0 -1.31797e-19 0)
(0 -1.33871e-19 0)
(0 -1.3462e-19 0)
(0 -1.36936e-19 0)
(0 -1.38725e-19 0)
(0 -1.40206e-19 0)
(0 -1.42338e-19 0)
(0 -1.43897e-19 0)
(0 -1.45712e-19 0)
(0 -1.47677e-19 0)
(0 -1.4995e-19 0)
(0 -1.51804e-19 0)
(0 -1.53242e-19 0)
(0 -1.55705e-19 0)
(0 -1.58689e-19 0)
(0 -1.59911e-19 0)
(0 -1.62094e-19 0)
(0 -1.64929e-19 0)
(0 -1.6735e-19 0)
(0 -1.69647e-19 0)
(0 -1.71689e-19 0)
(0 -1.74515e-19 0)
(0 -1.77288e-19 0)
(0 -1.79743e-19 0)
(0 -1.82429e-19 0)
(0 -1.85497e-19 0)
(0 -1.88395e-19 0)
(0 -1.91393e-19 0)
(0 -1.94489e-19 0)
(0 -1.97702e-19 0)
(0 -2.00955e-19 0)
(0 -2.04195e-19 0)
(0 -2.07685e-19 0)
(0 -2.11297e-19 0)
(0 -2.1496e-19 0)
(0 -2.18824e-19 0)
(0 -2.2286e-19 0)
(0 -2.26975e-19 0)
(0 -2.31223e-19 0)
(0 -2.35609e-19 0)
(0 -2.40124e-19 0)
(0 -2.44789e-19 0)
(0 -2.49636e-19 0)
(0 -2.54673e-19 0)
(0 -2.59905e-19 0)
(0 -2.65355e-19 0)
(0 -2.71025e-19 0)
(0 -2.76911e-19 0)
(0 -2.83029e-19 0)
(0 -2.89388e-19 0)
(0 -2.96002e-19 0)
(0 -3.02886e-19 0)
(0 -3.10054e-19 0)
(0 -3.17519e-19 0)
(0 -3.25294e-19 0)
(0 -3.33393e-19 0)
(0 -3.4183e-19 0)
(0 -3.50622e-19 0)
(0 -3.59786e-19 0)
(0 -3.69344e-19 0)
(0 -3.79323e-19 0)
(0 -3.89756e-19 0)
(0 -4.00685e-19 0)
(0 -4.1216e-19 0)
(0 -4.24238e-19 0)
(0 -4.36979e-19 0)
(0 -4.50449e-19 0)
(0 -4.64734e-19 0)
(0 -4.7997e-19 0)
(0 -4.9638e-19 0)
(0 -5.14265e-19 0)
(0 -5.33903e-19 0)
(0 -5.55321e-19 0)
(0 -5.78114e-19 0)
(0 -6.01816e-19 0)
(0 -6.27162e-19 0)
(0 -6.56812e-19 0)
(0 2.60441e-17 0)
(0 2.54507e-16 0)
(0 6.47646e-16 0)
(0 1.3764e-15 0)
(0 1.15396e-14 0)
(0 1.84991e-13 0)
(0 3.32658e-12 0)
(0 6.73438e-11 0)
(0 1.55641e-09 0)
(0 4.15888e-08 0)
(0 1.32936e-06 0)
(0 0.00011005 0)
(0 0.0158617 0)
(0 0.563086 0)
(0 3.82739 0)
(0 2.67196 0)
(0 -3.54146 0)
(0 -4.1651 0)
(0 -4.93244 0)
(0 -4.99696 0)
(0 -4.89287 0)
(0 -4.721 0)
(0 -4.50479 0)
(0 -4.24587 0)
(0 -3.94553 0)
(0 -3.60811 0)
(0 -3.2372 0)
(0 -2.82566 0)
(0 -2.3709 0)
(0 -1.91526 0)
(0 -1.52636 0)
(0 -1.23261 0)
(0 -1.01987 0)
(0 -0.864398 0)
(0 -0.748072 0)
(0 -0.658968 0)
(0 -0.589309 0)
(0 -0.533913 0)
(0 -0.489243 0)
(0 -0.452811 0)
(0 -0.422825 0)
(0 -0.397959 0)
(0 -0.37721 0)
(0 -0.359805 0)
(0 -0.345137 0)
(0 -0.332723 0)
(0 -0.322172 0)
(0 -0.313167 0)
(0 -0.305448 0)
(0 -0.298798 0)
(0 -0.293041 0)
(0 -0.28803 0)
(0 -0.283644 0)
(0 -0.279779 0)
(0 -0.276349 0)
(0 -0.27328 0)
(0 -0.27051 0)
(0 -0.267992 0)
(0 -0.265696 0)
(0 -0.263607 0)
(0 -0.261722 0)
(0 -0.260047 0)
(0 -0.258596 0)
(0 -0.257389 0)
(0 -0.256436 0)
(0 -0.255706 0)
(0 -0.255112 0)
(0 -0.254535 0)
(0 -0.253899 0)
(-1.20006e-16 -0.253157 0)
(0 -0.252193 0)
(0 -0.250795 0)
(1.36801e-16 -0.248706 0)
(0 -0.245682 0)
(-1.50285e-16 -0.241519 0)
(0 -0.236051 0)
(8.28192e-17 -0.229128 0)
(0 -0.220627 0)
(0 -0.210428 0)
(0 -0.19851 0)
(1.00123e-16 -0.185306 0)
(0 -0.171261 0)
(0 -0.156396 0)
(0 -0.14101 0)
(0 -0.12586 0)
(0 -0.111293 0)
(-3.07572e-17 -0.0973435 0)
(0 -0.0841037 0)
(-1.59601e-17 -0.0718868 0)
(0 -0.0610092 0)
(-1.63045e-17 -0.051233 0)
(0 -0.0424901 0)
(0 -0.0349812 0)
(0 -0.0285698 0)
(0 -0.0231015 0)
(4.06192e-18 -0.0185206 0)
(4.02915e-18 -0.0146912 0)
(0 -0.0115551 0)
(0 -0.00888382 0)
(0 -0.00669055 0)
(0 -0.005127 0)
(0 -0.00427487 0)
(0 -0.00375168 0)
(0 -0.00170638 0)
(0 0 0)
(0 0 0)
(0 0 0)
(0 0 0)
(0 0 0)
(0 0 0)
(0 0 0)
(0 0 0)
(0 0 0)
(0 0 0)
(0 0 0)
(0 0 0)
(0 0 0)
(0 0 0)
(0 0 0)
(0 0 0)
(0 0 0)
(0 0 0)
(0 0 0)
(0 0 0)
(0 0 0)
(0 0 0)
(0 0 0)
(0 0 0)
(0 0 0)
(0 0 0)
(0 0 0)
(0 0 0)
(0 0 0)
(0 0 0)
(0 0 0)
(0 0 0)
(0 0 0)
(0 0 0)
(0 0 0)
(0 0 0)
(0 0 0)
(0 0 0)
(0 0 0)
(0 0 0)
(0 0 0)
(0 0 0)
(0 0 0)
(0 0 0)
(0 0 0)
(0 0 0)
(0 0 0)
(0 0 0)
(0 0 0)
(0 0 0)
(0 0 0)
(0 0 0)
(0 0 0)
(0 0 0)
(0 0 0)
(0 0 0)
(0 0 0)
(0 0 0)
(0 0 0)
(0 0 0)
(0 0 0)
(0 0 0)
(0 0 0)
(0 0 0)
(0 0 0)
(0 0 0)
(0 0 0)
(0 0 0)
(0 0 0)
(0 0 0)
(0 0 0)
(0 0 0)
(0 0 0)
(0 0 0)
(0 0 0)
(0 0 0)
(0 0 0)
(0 0 0)
(0 0 0)
(0 0 0)
(0 0 0)
(0 0 0)
(0 0 0)
(0 0 0)
(0 0 0)
(0 0 0)
(0 0 0)
(0 0 0)
(0 0 0)
(0 0 0)
(0 0 0)
(0 0 0)
(0 0 0)
(0 0 0)
(0 0 0)
(0 0 0)
(0 0 0)
(0 0 0)
(0 0 0)
(0 0 0)
(0 0 0)
(0 0 0)
(0 0 0)
(0 0 0)
(0 0 0)
(0 0 0)
(0 0 0)
(0 0 0)
(0 0 0)
(0 0 0)
(0 0 0)
(0 0 0)
(0 0 0)
(0 0 0)
(0 0 0)
(0 0 0)
(0 0 0)
(0 0 0)
(0 0 0)
(0 0 0)
(0 0 0)
(0 0 0)
(0 0 0)
)
;

boundaryField
{
    inandouthalf11
    {
        type            cyclic;
    }
    inandouthalf12
    {
        type            cyclic;
    }
    inandouthalf21
    {
        type            cyclic;
    }
    inandouthalf22
    {
        type            cyclic;
    }
    inandouthalf31
    {
        type            cyclic;
    }
    inandouthalf32
    {
        type            cyclic;
    }
    inandouthalf41
    {
        type            cyclic;
    }
    inandouthalf42
    {
        type            cyclic;
    }
    top
    {
        type            symmetryPlane;
    }
    walls
    {
        type            calculated;
        value           uniform (0 0 0);
    }
    frontAndBackPlanes
    {
        type            empty;
    }
}


// ************************************************************************* //
