/*--------------------------------*- C++ -*----------------------------------*\
| =========                 |                                                 |
| \\      /  F ield         | OpenFOAM: The Open Source CFD Toolbox           |
|  \\    /   O peration     | Version:  2.4.x                                 |
|   \\  /    A nd           | Web:      www.OpenFOAM.org                      |
|    \\/     M anipulation  |                                                 |
\*---------------------------------------------------------------------------*/
FoamFile
{
    version     2.0;
    format      ascii;
    class       volVectorField;
    location    "7.95";
    object      gradPf;
}
// * * * * * * * * * * * * * * * * * * * * * * * * * * * * * * * * * * * * * //

dimensions      [0 1 -2 0 0 0 0];

internalField   nonuniform List<vector> 
360
(
(0 67.8955 0)
(0 76.8374 0)
(0 0.888193 0)
(0 -12.2667 0)
(-3.34458e-14 -5.53401 0)
(-3.34466e-14 -3.02048 0)
(-3.34476e-14 -3.61523 0)
(0 -4.05842 0)
(-3.345e-14 -4.11607 0)
(0 -4.14032 0)
(-3.34526e-14 -4.12755 0)
(0 -4.10759 0)
(-3.34552e-14 -4.10472 0)
(0 -4.10359 0)
(0 -4.11599 0)
(0 -4.12902 0)
(0 -4.13049 0)
(-3.34618e-14 -4.12661 0)
(0 -4.14044 0)
(0 -4.13746 0)
(0 -4.13572 0)
(-3.34674e-14 -4.15123 0)
(0 -4.15079 0)
(0 -4.15634 0)
(0 -4.16249 0)
(-3.34731e-14 -4.15929 0)
(0 -4.17009 0)
(0 -4.1824 0)
(0 -4.17867 0)
(0 -4.18069 0)
(0 -4.20014 0)
(0 -4.18987 0)
(0 -4.20352 0)
(0 -4.2179 0)
(0 -4.20987 0)
(3.34884e-14 -4.21746 0)
(0 -4.22174 0)
(0 -4.24893 0)
(0 -4.2273 0)
(0 -4.23843 0)
(0 -4.26941 0)
(0 -4.23894 0)
(1.675e-14 -4.26065 0)
(0 -4.27634 0)
(0 -4.2678 0)
(0 -4.29171 0)
(0 -4.27327 0)
(0 -4.27086 0)
(0 -4.3178 0)
(0 -4.30194 0)
(3.35146e-14 -4.29401 0)
(0 -4.31451 0)
(0 -4.32038 0)
(0 -4.3143 0)
(0 -4.33023 0)
(0 -4.3335 0)
(0 -4.33154 0)
(0 -4.35097 0)
(0 -4.32621 0)
(0 -4.35201 0)
(0 -4.36058 0)
(0 -4.35699 0)
(0 -4.37248 0)
(0 -4.36787 0)
(0 -4.36995 0)
(0 -4.37549 0)
(0 -4.38881 0)
(0 -4.38761 0)
(0 -4.37374 0)
(0 -4.38962 0)
(0 -4.41887 0)
(0 -4.39604 0)
(0 -4.39845 0)
(0 -4.4183 0)
(0 -4.42403 0)
(0 -4.42388 0)
(0 -4.41493 0)
(0 -4.42548 0)
(0 -4.43315 0)
(0 -4.4312 0)
(0 -4.43371 0)
(0 -4.44426 0)
(0 -4.44867 0)
(0 -4.45311 0)
(0 -4.45742 0)
(0 -4.46179 0)
(0 -4.46444 0)
(0 -4.46432 0)
(0 -4.46753 0)
(0 -4.47123 0)
(0 -4.47383 0)
(0 -4.47839 0)
(0 -4.48402 0)
(0 -4.48845 0)
(0 -4.49251 0)
(0 -4.49613 0)
(0 -4.49897 0)
(0 -4.50129 0)
(0 -4.50363 0)
(0 -4.50598 0)
(0 -4.50828 0)
(0 -4.51076 0)
(0 -4.5132 0)
(0 -4.51535 0)
(0 -4.5172 0)
(0 -4.51872 0)
(0 -4.51985 0)
(0 -4.5206 0)
(0 -4.52092 0)
(0 -4.52074 0)
(0 -4.51993 0)
(0 -4.5184 0)
(0 -4.516 0)
(0 -4.51261 0)
(0 -4.50814 0)
(0 -4.50245 0)
(0 -4.49548 0)
(0 -4.48721 0)
(0 -4.47762 0)
(0 -4.46677 0)
(0 -4.45466 0)
(0 -4.44128 0)
(0 -4.42664 0)
(0 -4.41085 0)
(0 -4.3945 0)
(0 -4.37874 0)
(0 -4.36512 0)
(0 -4.35456 0)
(0 -4.34563 0)
(0 -4.33389 0)
(0 -4.31531 0)
(0 -4.29482 0)
(0 -4.2888 0)
(0 -4.3039 0)
(0 -4.3114 0)
(0 -4.27893 0)
(0 -4.24275 0)
(0 -4.30902 0)
(0 -4.51982 0)
(0 -4.64632 0)
(0 -4.37065 0)
(0 -4.30574 0)
(0 -4.85341 0)
(0 -5.41516 0)
(0 -7.14282 0)
(0 -8.80917 0)
(0 -7.04028 0)
(0 -7.99334 0)
(0 -6.3437 0)
(0 0 0)
(0 0 0)
(0 0 0)
(0 0 0)
(0 0 0)
(0 0 0)
(0 0 0)
(0 0 0)
(0 0 0)
(0 0 0)
(0 0 0)
(0 0 0)
(0 0 0)
(0 0 0)
(0 0 0)
(0 0 0)
(0 0 0)
(0 0 0)
(0 0 0)
(0 0 0)
(0 0 0)
(0 0 0)
(0 0 0)
(0 0 0)
(0 0 0)
(0 0 0)
(0 0 0)
(0 0 0)
(0 0 0)
(0 0 0)
(0 0 0)
(0 0 0)
(0 0 0)
(0 0 0)
(0 0 0)
(0 0 0)
(0 0 0)
(0 0 0)
(0 0 0)
(0 0 0)
(0 0 0)
(0 0 0)
(0 0 0)
(0 0 0)
(0 0 0)
(0 0 0)
(0 0 0)
(0 0 0)
(0 0 0)
(0 0 0)
(0 0 0)
(0 0 0)
(0 0 0)
(0 0 0)
(0 0 0)
(0 0 0)
(0 0 0)
(0 0 0)
(0 0 0)
(0 0 0)
(0 0 0)
(0 0 0)
(0 0 0)
(0 0 0)
(0 0 0)
(0 0 0)
(0 0 0)
(0 0 0)
(0 0 0)
(0 0 0)
(0 0 0)
(0 0 0)
(0 0 0)
(0 0 0)
(0 0 0)
(0 0 0)
(0 0 0)
(0 0 0)
(0 0 0)
(0 0 0)
(0 0 0)
(0 0 0)
(0 0 0)
(0 0 0)
(0 0 0)
(0 0 0)
(0 0 0)
(0 0 0)
(0 0 0)
(0 0 0)
(0 0 0)
(0 0 0)
(0 0 0)
(0 0 0)
(0 0 0)
(0 0 0)
(0 0 0)
(0 0 0)
(0 0 0)
(0 0 0)
(0 0 0)
(0 0 0)
(0 0 0)
(0 0 0)
(0 0 0)
(0 0 0)
(0 0 0)
(0 0 0)
(0 0 0)
(0 0 0)
(0 0 0)
(0 0 0)
(0 0 0)
(0 0 0)
(0 0 0)
(0 0 0)
(0 0 0)
(0 0 0)
(0 0 0)
(0 0 0)
(0 0 0)
(0 0 0)
(0 0 0)
(0 0 0)
(0 0 0)
(0 0 0)
(0 0 0)
(0 0 0)
(0 0 0)
(0 0 0)
(0 0 0)
(0 0 0)
(0 0 0)
(0 0 0)
(0 0 0)
(0 0 0)
(0 0 0)
(0 0 0)
(0 0 0)
(0 0 0)
(0 0 0)
(0 0 0)
(0 0 0)
(0 0 0)
(0 0 0)
(0 0 0)
(0 0 0)
(0 0 0)
(0 0 0)
(0 0 0)
(0 0 0)
(0 0 0)
(0 0 0)
(0 0 0)
(0 0 0)
(0 0 0)
(0 0 0)
(0 0 0)
(0 0 0)
(0 0 0)
(0 0 0)
(0 0 0)
(0 0 0)
(0 0 0)
(0 0 0)
(0 0 0)
(0 0 0)
(0 0 0)
(0 0 0)
(0 0 0)
(0 0 0)
(0 0 0)
(0 0 0)
(0 0 0)
(0 0 0)
(0 0 0)
(0 0 0)
(0 0 0)
(0 0 0)
(0 0 0)
(0 0 0)
(0 0 0)
(0 0 0)
(0 0 0)
(0 0 0)
(0 0 0)
(0 0 0)
(0 0 0)
(0 0 0)
(0 0 0)
(0 0 0)
(0 0 0)
(0 0 0)
(0 0 0)
(0 0 0)
(0 0 0)
(0 0 0)
(0 0 0)
(0 0 0)
(0 0 0)
(0 0 0)
(0 0 0)
(0 0 0)
(0 0 0)
(0 0 0)
(0 0 0)
(0 0 0)
(0 0 0)
(0 0 0)
(0 0 0)
(0 0 0)
)
;

boundaryField
{
    inandouthalf11
    {
        type            cyclic;
    }
    inandouthalf12
    {
        type            cyclic;
    }
    inandouthalf21
    {
        type            cyclic;
    }
    inandouthalf22
    {
        type            cyclic;
    }
    inandouthalf31
    {
        type            cyclic;
    }
    inandouthalf32
    {
        type            cyclic;
    }
    inandouthalf41
    {
        type            cyclic;
    }
    inandouthalf42
    {
        type            cyclic;
    }
    top
    {
        type            symmetryPlane;
    }
    walls
    {
        type            calculated;
        value           uniform (0 0 0);
    }
    frontAndBackPlanes
    {
        type            empty;
    }
}


// ************************************************************************* //
