/*--------------------------------*- C++ -*----------------------------------*\
| =========                 |                                                 |
| \\      /  F ield         | OpenFOAM: The Open Source CFD Toolbox           |
|  \\    /   O peration     | Version:  2.4.x                                 |
|   \\  /    A nd           | Web:      www.OpenFOAM.org                      |
|    \\/     M anipulation  |                                                 |
\*---------------------------------------------------------------------------*/
FoamFile
{
    version     2.0;
    format      ascii;
    class       volScalarField;
    location    "7.95";
    object      k;
}
// * * * * * * * * * * * * * * * * * * * * * * * * * * * * * * * * * * * * * //

dimensions      [0 2 -2 0 0 0 0];

internalField   nonuniform List<scalar> 
360
(
1e-20
1e-20
1e-20
1e-20
1e-20
1e-20
1e-20
1e-20
1e-20
1e-20
1e-20
1e-20
1e-20
1e-20
1e-20
1e-20
1e-20
1e-20
1e-20
1e-20
1e-20
1e-20
1e-20
1e-20
1e-20
1e-20
1e-20
1e-20
1e-20
1e-20
1e-20
1e-20
1e-20
1e-20
1e-20
1e-20
1e-20
1e-20
1e-20
1e-20
1e-20
1e-20
1e-20
1e-20
1e-20
1e-20
1e-20
1e-20
1e-20
1e-20
1e-20
1e-20
1e-20
1e-20
1e-20
1e-20
1e-20
1e-20
1e-20
1e-20
1e-20
1e-20
1e-20
1e-20
1e-20
1e-20
1e-20
1e-20
1e-20
1e-20
1e-20
1e-20
1e-20
1e-20
1e-20
1e-20
1e-20
1e-20
1e-20
1e-20
1e-20
1e-20
1e-20
1e-20
1e-20
1e-20
1e-20
1e-20
1e-20
1e-20
1e-20
1e-20
1e-20
1e-20
1e-20
1e-20
1e-20
1e-20
1e-20
1e-20
1e-20
1e-20
1e-20
1e-20
1e-20
1e-20
1e-20
1e-20
1e-20
1e-20
1e-20
1e-20
1e-20
1e-20
1e-20
1e-20
1e-20
1e-20
1e-20
1e-20
1e-20
1e-20
1e-20
1e-20
1e-20
1e-20
1e-20
1e-20
1e-20
1e-20
1e-20
1e-20
1e-20
1e-20
1.15643e-20
2.50768e-20
4.9986e-20
1.0727e-19
7.44019e-19
1.12708e-17
2.0226e-16
4.10696e-15
9.53192e-14
2.55939e-12
8.02253e-11
2.95993e-09
1.29267e-07
6.64911e-06
0.000308965
0.00343722
0.0064146
0.00717689
0.00718323
0.00680729
0.00623237
0.00556321
0.00487162
0.00421512
0.00364139
0.00318299
0.00284983
0.00262935
0.00249653
0.00242543
0.00239547
0.00239231
0.00240661
0.00243238
0.00246577
0.00250425
0.00254615
0.0025903
0.0026359
0.00268233
0.00272913
0.00277597
0.00282256
0.00286866
0.00291409
0.00295867
0.00300228
0.00304478
0.00308606
0.00312603
0.00316461
0.00320171
0.00323727
0.00327123
0.00330355
0.00333417
0.00336306
0.00339018
0.00341551
0.00343902
0.00346071
0.00348056
0.00349855
0.00351469
0.00352898
0.00354142
0.00355202
0.00356088
0.00356801
0.0035733
0.00357667
0.003578
0.00357719
0.00357414
0.00356874
0.00356087
0.00355044
0.00353732
0.00352142
0.00350261
0.00348079
0.00345585
0.00342769
0.0033962
0.00336129
0.00332285
0.00328081
0.00323507
0.00318556
0.00313221
0.00307496
0.00301377
0.00294859
0.00287942
0.00280623
0.00272904
0.0026479
0.00256283
0.00247394
0.00238132
0.00228511
0.00218549
0.00208267
0.0019769
0.00186849
0.00175779
0.00164522
0.00153126
0.00141645
0.00130143
0.00118688
0.0010736
0.000962445
0.00085434
0.000750275
0.000651263
0.000558303
0.000472318
0.00039408
0.000324114
0.000262614
0.000209389
0.000163857
0.000125127
9.21449e-05
6.39018e-05
3.96752e-05
1.93679e-05
4.76954e-06
3.16078e-07
7.86078e-09
1.67366e-10
3.40764e-12
6.6291e-14
1.22831e-15
2.1628e-17
3.6668e-19
1.35613e-20
1e-20
1e-20
1e-20
1e-20
1e-20
1e-20
1e-20
1e-20
1e-20
1e-20
1e-20
1e-20
1e-20
1e-20
1e-20
1e-20
1e-20
1e-20
1e-20
1e-20
1e-20
1e-20
1e-20
1e-20
1e-20
1e-20
1e-20
1e-20
1e-20
1e-20
1e-20
1e-20
1e-20
1e-20
1e-20
1e-20
1e-20
1e-20
1e-20
1e-20
1e-20
1e-20
1e-20
1e-20
1e-20
1e-20
1e-20
1e-20
1e-20
1e-20
1e-20
1e-20
1e-20
1e-20
1e-20
1e-20
1e-20
1e-20
1e-20
1e-20
1e-20
1e-20
1e-20
1e-20
1e-20
1e-20
1e-20
1e-20
1e-20
1e-20
1e-20
1e-20
1e-20
1e-20
1e-20
1e-20
1e-20
1e-20
1e-20
1e-20
1e-20
1e-20
1e-20
1e-20
1e-20
1e-20
1e-20
1e-20
)
;

boundaryField
{
    inandouthalf11
    {
        type            cyclic;
    }
    inandouthalf12
    {
        type            cyclic;
    }
    inandouthalf21
    {
        type            cyclic;
    }
    inandouthalf22
    {
        type            cyclic;
    }
    inandouthalf31
    {
        type            cyclic;
    }
    inandouthalf32
    {
        type            cyclic;
    }
    inandouthalf41
    {
        type            cyclic;
    }
    inandouthalf42
    {
        type            cyclic;
    }
    top
    {
        type            symmetryPlane;
    }
    walls
    {
        type            zeroGradient;
    }
    frontAndBackPlanes
    {
        type            empty;
    }
}


// ************************************************************************* //
