/*--------------------------------*- C++ -*----------------------------------*\
| =========                 |                                                 |
| \\      /  F ield         | OpenFOAM: The Open Source CFD Toolbox           |
|  \\    /   O peration     | Version:  2.4.x                                 |
|   \\  /    A nd           | Web:      www.OpenFOAM.org                      |
|    \\/     M anipulation  |                                                 |
\*---------------------------------------------------------------------------*/
FoamFile
{
    version     2.0;
    format      ascii;
    class       volScalarField;
    location    "7.95";
    object      k_0;
}
// * * * * * * * * * * * * * * * * * * * * * * * * * * * * * * * * * * * * * //

dimensions      [0 2 -2 0 0 0 0];

internalField   nonuniform List<scalar> 
360
(
1e-20
1e-20
1e-20
1e-20
1e-20
1e-20
1e-20
1e-20
1e-20
1e-20
1e-20
1e-20
1e-20
1e-20
1e-20
1e-20
1e-20
1e-20
1e-20
1e-20
1e-20
1e-20
1e-20
1e-20
1e-20
1e-20
1e-20
1e-20
1e-20
1e-20
1e-20
1e-20
1e-20
1e-20
1e-20
1e-20
1e-20
1e-20
1e-20
1e-20
1e-20
1e-20
1e-20
1e-20
1e-20
1e-20
1e-20
1e-20
1e-20
1e-20
1e-20
1e-20
1e-20
1e-20
1e-20
1e-20
1e-20
1e-20
1e-20
1e-20
1e-20
1e-20
1e-20
1e-20
1e-20
1e-20
1e-20
1e-20
1e-20
1e-20
1e-20
1e-20
1e-20
1e-20
1e-20
1e-20
1e-20
1e-20
1e-20
1e-20
1e-20
1e-20
1e-20
1e-20
1e-20
1e-20
1e-20
1e-20
1e-20
1e-20
1e-20
1e-20
1e-20
1e-20
1e-20
1e-20
1e-20
1e-20
1e-20
1e-20
1e-20
1e-20
1e-20
1e-20
1e-20
1e-20
1e-20
1e-20
1e-20
1e-20
1e-20
1e-20
1e-20
1e-20
1e-20
1e-20
1e-20
1e-20
1e-20
1e-20
1e-20
1e-20
1e-20
1e-20
1e-20
1e-20
1e-20
1e-20
1e-20
1e-20
1e-20
1e-20
1e-20
1e-20
1.15776e-20
2.51211e-20
5.00941e-20
1.07347e-19
7.42046e-19
1.12343e-17
2.01577e-16
4.09249e-15
9.49669e-14
2.54947e-12
7.99012e-11
2.94759e-09
1.28714e-07
6.62025e-06
0.00030787
0.0034326
0.00641179
0.00717374
0.00717976
0.00680361
0.00622858
0.00555943
0.00486799
0.00421181
0.00363856
0.00318076
0.00284821
0.00262827
0.00249587
0.00242508
0.00239532
0.00239232
0.00240673
0.00243258
0.00246602
0.00250456
0.0025465
0.00259069
0.00263631
0.00268276
0.00272959
0.00277645
0.00282305
0.00286917
0.00291461
0.0029592
0.00300282
0.00304533
0.00308662
0.00312659
0.00316517
0.00320228
0.00323784
0.00327181
0.00330413
0.00333475
0.00336363
0.00339075
0.00341608
0.00343959
0.00346128
0.00348112
0.00349911
0.00351524
0.00352953
0.00354196
0.00355255
0.0035614
0.00356852
0.00357381
0.00357716
0.00357848
0.00357766
0.0035746
0.00356918
0.00356131
0.00355086
0.00353773
0.00352181
0.00350298
0.00348115
0.0034562
0.00342802
0.00339651
0.00336158
0.00332312
0.00328106
0.0032353
0.00318577
0.0031324
0.00307513
0.00301392
0.00294872
0.00287952
0.00280632
0.00272911
0.00264794
0.00256286
0.00247395
0.00238131
0.00228508
0.00218545
0.00208261
0.00197682
0.00186839
0.00175768
0.0016451
0.00153112
0.00141631
0.00130128
0.00118673
0.00107344
0.000962284
0.000854181
0.000750121
0.000651117
0.000558167
0.000472196
0.000393973
0.000324022
0.000262538
0.000209328
0.00016381
0.000125091
9.21173e-05
6.38806e-05
3.96588e-05
1.93552e-05
4.76315e-06
3.15364e-07
7.84112e-09
1.66947e-10
3.39908e-12
6.61233e-14
1.22517e-15
2.1572e-17
3.65733e-19
1.35478e-20
1e-20
1e-20
1e-20
1e-20
1e-20
1e-20
1e-20
1e-20
1e-20
1e-20
1e-20
1e-20
1e-20
1e-20
1e-20
1e-20
1e-20
1e-20
1e-20
1e-20
1e-20
1e-20
1e-20
1e-20
1e-20
1e-20
1e-20
1e-20
1e-20
1e-20
1e-20
1e-20
1e-20
1e-20
1e-20
1e-20
1e-20
1e-20
1e-20
1e-20
1e-20
1e-20
1e-20
1e-20
1e-20
1e-20
1e-20
1e-20
1e-20
1e-20
1e-20
1e-20
1e-20
1e-20
1e-20
1e-20
1e-20
1e-20
1e-20
1e-20
1e-20
1e-20
1e-20
1e-20
1e-20
1e-20
1e-20
1e-20
1e-20
1e-20
1e-20
1e-20
1e-20
1e-20
1e-20
1e-20
1e-20
1e-20
1e-20
1e-20
1e-20
1e-20
1e-20
1e-20
1e-20
1e-20
1e-20
1e-20
)
;

boundaryField
{
    inandouthalf11
    {
        type            cyclic;
    }
    inandouthalf12
    {
        type            cyclic;
    }
    inandouthalf21
    {
        type            cyclic;
    }
    inandouthalf22
    {
        type            cyclic;
    }
    inandouthalf31
    {
        type            cyclic;
    }
    inandouthalf32
    {
        type            cyclic;
    }
    inandouthalf41
    {
        type            cyclic;
    }
    inandouthalf42
    {
        type            cyclic;
    }
    top
    {
        type            symmetryPlane;
    }
    walls
    {
        type            zeroGradient;
    }
    frontAndBackPlanes
    {
        type            empty;
    }
}


// ************************************************************************* //
