/*--------------------------------*- C++ -*----------------------------------*\
| =========                 |                                                 |
| \\      /  F ield         | OpenFOAM: The Open Source CFD Toolbox           |
|  \\    /   O peration     | Version:  2.4.x                                 |
|   \\  /    A nd           | Web:      www.OpenFOAM.org                      |
|    \\/     M anipulation  |                                                 |
\*---------------------------------------------------------------------------*/
FoamFile
{
    version     2.0;
    format      ascii;
    class       volScalarField;
    location    "7.95";
    object      mua;
}
// * * * * * * * * * * * * * * * * * * * * * * * * * * * * * * * * * * * * * //

dimensions      [1 -1 -1 0 0 0 0];

internalField   nonuniform List<scalar> 
360
(
2.05487e+06
1.43834e+06
1.75933e+06
1.79217e+06
1.68851e+06
1.63676e+06
1.62391e+06
1.61896e+06
1.61383e+06
1.60805e+06
1.60242e+06
1.59802e+06
1.59488e+06
1.59264e+06
1.5907e+06
1.58855e+06
1.5861e+06
1.58347e+06
1.58054e+06
1.57718e+06
1.5736e+06
1.56941e+06
1.56463e+06
1.55932e+06
1.55344e+06
1.54707e+06
1.54016e+06
1.53251e+06
1.52435e+06
1.51581e+06
1.50673e+06
1.49712e+06
1.48728e+06
1.47671e+06
1.46602e+06
1.45508e+06
1.44391e+06
1.43224e+06
1.42036e+06
1.40869e+06
1.39645e+06
1.38431e+06
1.37236e+06
1.35995e+06
1.34761e+06
1.33526e+06
1.32311e+06
1.31146e+06
1.29939e+06
1.28705e+06
1.27531e+06
1.2636e+06
1.25198e+06
1.24053e+06
1.22941e+06
1.21827e+06
1.20766e+06
1.19719e+06
1.18725e+06
1.17766e+06
1.16776e+06
1.15812e+06
1.14847e+06
1.13918e+06
1.13031e+06
1.12185e+06
1.11362e+06
1.10577e+06
1.09853e+06
1.0916e+06
1.08428e+06
1.07702e+06
1.07027e+06
1.06333e+06
1.05638e+06
1.04963e+06
1.04356e+06
1.03796e+06
1.03261e+06
1.02751e+06
1.02265e+06
1.01772e+06
1.01261e+06
1.00737e+06
1.00206e+06
996816
991768
987099
982831
978877
975146
971501
967769
963869
959790
955562
951255
946945
942688
938505
934394
930327
926263
922157
917960
913610
909025
904098
898690
892628
885714
877726
868426
857580
844968
830412
813800
795112
774452
752063
728341
703833
679203
655179
632469
611688
593325
577794
565573
557316
553722
554936
559734
565490
569729
571382
568373
554441
526034
501411
528671
681887
1.11265e+06
2.43457e+06
7.53483e+06
1.43799e+07
158.841
0.188289
0.0259656
0.0098021
0.00750116
0.00649005
0.00584087
0.00539097
0.00506046
0.00479452
0.00456469
0.00436098
0.0041841
0.00403631
0.00391672
0.00382132
0.0037453
0.00368451
0.00363584
0.00359695
0.00356606
0.00354175
0.00352285
0.00350842
0.00349765
0.00348985
0.00348446
0.00348097
0.00347895
0.00347805
0.00347795
0.00347837
0.00347907
0.00347986
0.00348057
0.00348104
0.00348115
0.0034808
0.00347989
0.00347835
0.00347611
0.00347313
0.00346936
0.00346478
0.00345936
0.00345308
0.00344593
0.00343791
0.00342901
0.00341925
0.00340862
0.00339714
0.00338482
0.00337168
0.00335774
0.00334286
0.00332688
0.00330976
0.00329147
0.00327196
0.0032512
0.00322914
0.00320575
0.00318097
0.00315475
0.00312703
0.00309774
0.00306682
0.00303418
0.00299971
0.00296332
0.00292488
0.00288425
0.00284124
0.00279567
0.0027473
0.00269586
0.00264101
0.00258235
0.00251939
0.00245152
0.00237795
0.00229767
0.00220931
0.00211102
0.00200008
0.00187233
0.00172079
0.00153199
0.00127284
0
0
0
0
0
0
0
0
0
0
0
0
0
0
0
0
0
0
0
0
0
0
0
0
0
0
0
0
0
0
0
0
0
0
0
0
0
0
0
0
0
0
0
0
0
0
0
0
0
0
0
0
0
0
0
0
0
0
0
0
0
0
0
0
0
0
0
0
0
0
0
0
0
0
0
0
0
0
0
0
0
0
0
0
0
0
0
0
0
0
0
0
0
0
0
0
0
0
0
0
0
0
0
0
0
0
0
0
0
0
0
0
0
0
0
0
0
0
0
0
0
0
0
0
)
;

boundaryField
{
    inandouthalf11
    {
        type            cyclic;
    }
    inandouthalf12
    {
        type            cyclic;
    }
    inandouthalf21
    {
        type            cyclic;
    }
    inandouthalf22
    {
        type            cyclic;
    }
    inandouthalf31
    {
        type            cyclic;
    }
    inandouthalf32
    {
        type            cyclic;
    }
    inandouthalf41
    {
        type            cyclic;
    }
    inandouthalf42
    {
        type            cyclic;
    }
    top
    {
        type            symmetryPlane;
    }
    walls
    {
        type            calculated;
        value           uniform 1e+30;
    }
    frontAndBackPlanes
    {
        type            empty;
    }
}


// ************************************************************************* //
