/*--------------------------------*- C++ -*----------------------------------*\
| =========                 |                                                 |
| \\      /  F ield         | OpenFOAM: The Open Source CFD Toolbox           |
|  \\    /   O peration     | Version:  2.4.x                                 |
|   \\  /    A nd           | Web:      www.OpenFOAM.org                      |
|    \\/     M anipulation  |                                                 |
\*---------------------------------------------------------------------------*/
FoamFile
{
    version     2.0;
    format      ascii;
    class       volScalarField;
    location    "7.95";
    object      nutb;
}
// * * * * * * * * * * * * * * * * * * * * * * * * * * * * * * * * * * * * * //

dimensions      [0 2 -1 0 0 0 0];

internalField   nonuniform List<scalar> 
360
(
9e-22
9e-22
9e-22
9e-22
9e-22
9e-22
9e-22
9e-22
9e-22
9e-22
9e-22
9e-22
9e-22
9e-22
9e-22
9e-22
9e-22
9e-22
9e-22
9e-22
9e-22
9e-22
9e-22
9e-22
9e-22
9e-22
9e-22
9e-22
9e-22
9e-22
9e-22
9e-22
9e-22
9e-22
9e-22
9e-22
9e-22
9e-22
9e-22
9e-22
9e-22
9e-22
9e-22
9e-22
9e-22
9e-22
9e-22
9e-22
9e-22
9e-22
9e-22
9e-22
9e-22
9e-22
9e-22
9e-22
9e-22
9e-22
9e-22
9e-22
9e-22
9e-22
9e-22
9e-22
9e-22
9e-22
9e-22
9e-22
9e-22
9e-22
9e-22
9e-22
9e-22
9e-22
9e-22
9e-22
9e-22
9e-22
9e-22
9e-22
9e-22
9e-22
9e-22
9e-22
9e-22
9e-22
9e-22
9e-22
9e-22
9e-22
9e-22
9e-22
9e-22
9e-22
9e-22
9e-22
9e-22
9e-22
9e-22
9e-22
9e-22
9e-22
9e-22
9e-22
9e-22
9e-22
9e-22
9e-22
9e-22
9e-22
9e-22
9e-22
9e-22
9e-22
9e-22
9e-22
9e-22
9e-22
9e-22
9e-22
9e-22
9e-22
9e-22
9e-22
9e-22
9e-22
9e-22
9e-22
9e-22
9e-22
9e-22
9e-22
9e-22
9e-22
9.92799e-22
1.91803e-21
2.88023e-21
3.20694e-21
1.42584e-20
1.79427e-19
2.70685e-18
4.58363e-17
8.80223e-16
1.94306e-14
4.97753e-13
1.49284e-11
5.2705e-10
2.17178e-08
7.87497e-07
6.8435e-06
1.38194e-05
1.83898e-05
2.16073e-05
2.38084e-05
2.52795e-05
2.62792e-05
2.7092e-05
2.80718e-05
2.96619e-05
3.236e-05
3.6604e-05
4.26178e-05
5.03288e-05
5.94197e-05
6.94611e-05
8.00297e-05
9.07718e-05
0.000101422
0.000111795
0.000121773
0.000131288
0.000140307
0.000148823
0.000156843
0.000164386
0.000171475
0.000178138
0.000184401
0.000190294
0.00019584
0.000201066
0.000205993
0.000210643
0.000215034
0.000219183
0.000223104
0.000226813
0.00023032
0.000233636
0.000236772
0.000239736
0.000242534
0.000245175
0.000247665
0.000250008
0.000252211
0.000254276
0.000256209
0.000258013
0.000259692
0.000261248
0.000262699
0.000264056
0.000265315
0.000266472
0.000267522
0.000268459
0.000269279
0.000269975
0.000270542
0.000270974
0.000271264
0.000271405
0.000271392
0.000271215
0.000270869
0.000270345
0.000269636
0.000268733
0.000267627
0.000266312
0.000264777
0.000263014
0.000261015
0.00025877
0.00025627
0.000253507
0.000250472
0.000247155
0.000243549
0.000239646
0.000235438
0.000230918
0.000226079
0.000220917
0.000215426
0.000209605
0.000203451
0.000196966
0.000190154
0.00018302
0.000175574
0.000167831
0.00015981
0.000151534
0.000143037
0.000134355
0.000125535
0.000116631
0.000107703
9.88163e-05
9.00345e-05
8.14136e-05
7.29921e-05
6.4781e-05
5.67589e-05
4.88772e-05
4.10789e-05
3.3324e-05
2.56059e-05
1.79458e-05
1.03901e-05
3.21737e-06
2.49897e-07
6.3095e-09
1.32897e-10
2.67618e-12
5.15237e-14
9.45439e-16
1.64587e-17
2.40046e-19
1.65518e-21
9e-22
9e-22
9e-22
9e-22
9e-22
9e-22
9e-22
9e-22
9e-22
9e-22
9e-22
9e-22
9e-22
9e-22
9e-22
9e-22
9e-22
9e-22
9e-22
9e-22
9e-22
9e-22
9e-22
9e-22
9e-22
9e-22
9e-22
9e-22
9e-22
9e-22
9e-22
9e-22
9e-22
9e-22
9e-22
9e-22
9e-22
9e-22
9e-22
9e-22
9e-22
9e-22
9e-22
9e-22
9e-22
9e-22
9e-22
9e-22
9e-22
9e-22
9e-22
9e-22
9e-22
9e-22
9e-22
9e-22
9e-22
9e-22
9e-22
9e-22
9e-22
9e-22
9e-22
9e-22
9e-22
9e-22
9e-22
9e-22
9e-22
9e-22
9e-22
9e-22
9e-22
9e-22
9e-22
9e-22
9e-22
9e-22
9e-22
9e-22
9e-22
9e-22
9e-22
9e-22
9e-22
9e-22
9e-22
9e-22
)
;

boundaryField
{
    inandouthalf11
    {
        type            cyclic;
    }
    inandouthalf12
    {
        type            cyclic;
    }
    inandouthalf21
    {
        type            cyclic;
    }
    inandouthalf22
    {
        type            cyclic;
    }
    inandouthalf31
    {
        type            cyclic;
    }
    inandouthalf32
    {
        type            cyclic;
    }
    inandouthalf41
    {
        type            cyclic;
    }
    inandouthalf42
    {
        type            cyclic;
    }
    top
    {
        type            symmetryPlane;
    }
    walls
    {
        type            calculated;
        value           uniform 0;
    }
    frontAndBackPlanes
    {
        type            empty;
    }
}


// ************************************************************************* //
