/*--------------------------------*- C++ -*----------------------------------*\
| =========                 |                                                 |
| \\      /  F ield         | OpenFOAM: The Open Source CFD Toolbox           |
|  \\    /   O peration     | Version:  2.4.x                                 |
|   \\  /    A nd           | Web:      www.OpenFOAM.org                      |
|    \\/     M anipulation  |                                                 |
\*---------------------------------------------------------------------------*/
FoamFile
{
    version     2.0;
    format      ascii;
    class       volScalarField;
    location    "7.95";
    object      p;
}
// * * * * * * * * * * * * * * * * * * * * * * * * * * * * * * * * * * * * * //

dimensions      [1 -1 -2 0 0 0 0];

internalField   nonuniform List<scalar> 
360
(
4889.86
4884.95
4880.05
4875.14
4870.23
4865.33
4860.42
4855.51
4850.6
4845.7
4840.79
4835.88
4830.97
4826.06
4821.15
4816.24
4811.33
4806.42
4801.51
4796.59
4791.68
4786.77
4781.86
4776.94
4772.03
4767.11
4762.2
4757.28
4752.37
4747.45
4742.54
4737.62
4732.71
4727.79
4722.87
4717.95
4713.04
4708.12
4703.2
4698.28
4693.36
4688.44
4683.52
4678.6
4673.68
4668.76
4663.84
4658.92
4654
4649.07
4644.15
4639.23
4634.3
4629.38
4624.46
4619.53
4614.61
4609.68
4604.76
4599.83
4594.91
4589.98
4585.05
4580.13
4575.2
4570.27
4565.34
4560.42
4555.49
4550.56
4545.63
4540.7
4535.77
4530.84
4525.91
4520.98
4516.05
4511.12
4506.18
4501.25
4496.32
4491.39
4486.46
4481.52
4476.59
4471.66
4466.72
4461.79
4456.85
4451.92
4446.98
4442.05
4437.11
4432.18
4427.24
4422.31
4417.37
4412.43
4407.5
4402.56
4397.62
4392.69
4387.75
4382.81
4377.87
4372.93
4368
4363.06
4358.12
4353.18
4348.24
4343.3
4338.36
4333.42
4328.48
4323.54
4318.6
4313.66
4308.72
4303.78
4298.84
4293.9
4288.96
4284.02
4279.08
4274.14
4269.2
4264.26
4259.31
4254.37
4249.43
4244.49
4239.55
4234.61
4229.66
4224.72
4219.78
4214.84
4209.9
4204.95
4200.01
4195.07
4190.13
4185.19
4180.25
4175.3
4170.36
4165.43
4160.03
4152.36
4144.75
4138.94
4133.7
4128.77
4124.02
4119.39
4114.82
4110.27
4105.68
4101.04
4096.33
4091.55
4086.72
4081.86
4076.96
4072.06
4067.14
4062.21
4057.28
4052.35
4047.41
4042.47
4037.54
4032.6
4027.66
4022.72
4017.78
4012.85
4007.91
4002.98
3998.04
3993.11
3988.17
3983.24
3978.31
3973.38
3968.45
3963.52
3958.59
3953.67
3948.74
3943.82
3938.9
3933.98
3929.06
3924.14
3919.22
3914.3
3909.39
3904.48
3899.56
3894.6
3889.54
3884.38
3879.11
3873.74
3868.27
3862.68
3856.98
3851.16
3845.23
3839.19
3833.02
3826.72
3820.3
3813.75
3807.08
3800.26
3793.31
3786.23
3778.99
3771.62
3764.1
3756.42
3748.6
3740.61
3732.47
3724.16
3715.68
3707.04
3698.22
3689.22
3680.04
3670.68
3661.13
3651.38
3641.44
3631.3
3620.95
3610.39
3599.61
3588.62
3577.41
3565.96
3554.28
3542.36
3530.2
3517.78
3505.11
3492.18
3478.98
3465.5
3451.75
3437.71
3423.37
3408.74
3393.81
3378.57
3363.02
3347.15
3330.95
3314.42
3297.55
3280.33
3262.76
3244.83
3226.54
3207.87
3188.83
3169.4
3149.58
3129.35
3108.72
3087.66
3066.18
3044.26
3021.9
2999.08
2975.8
2952.05
2927.81
2903.09
2877.86
2852.12
2825.86
2799.06
2771.72
2743.82
2715.36
2686.32
2656.7
2626.47
2595.62
2564.15
2532.05
2499.29
2465.86
2431.76
2396.96
2361.46
2325.24
2288.28
2250.57
2212.1
2172.85
2132.8
2091.93
2050.24
2007.7
1964.3
1922.76
1883.52
1844.28
1805.04
1765.8
1726.56
1687.32
1648.08
1608.84
1569.6
1530.36
1491.12
1451.88
1412.64
1373.4
1334.16
1294.92
1255.68
1216.44
1177.2
1137.96
1098.72
1059.48
1020.24
981
941.76
902.52
863.28
824.04
784.8
745.56
706.32
667.08
627.84
588.6
549.36
510.12
470.88
431.64
392.4
353.16
313.92
274.68
235.44
196.2
156.96
117.72
78.48
39.24
2.58137e-07
)
;

boundaryField
{
    inandouthalf11
    {
        type            cyclic;
    }
    inandouthalf12
    {
        type            cyclic;
    }
    inandouthalf21
    {
        type            cyclic;
    }
    inandouthalf22
    {
        type            cyclic;
    }
    inandouthalf31
    {
        type            cyclic;
    }
    inandouthalf32
    {
        type            cyclic;
    }
    inandouthalf41
    {
        type            cyclic;
    }
    inandouthalf42
    {
        type            cyclic;
    }
    top
    {
        type            symmetryPlane;
    }
    walls
    {
        type            slip;
    }
    frontAndBackPlanes
    {
        type            empty;
    }
}


// ************************************************************************* //
