/*--------------------------------*- C++ -*----------------------------------*\
| =========                 |                                                 |
| \\      /  F ield         | OpenFOAM: The Open Source CFD Toolbox           |
|  \\    /   O peration     | Version:  2.4.x                                 |
|   \\  /    A nd           | Web:      www.OpenFOAM.org                      |
|    \\/     M anipulation  |                                                 |
\*---------------------------------------------------------------------------*/
FoamFile
{
    version     2.0;
    format      ascii;
    class       surfaceScalarField;
    location    "7.95";
    object      phia_0;
}
// * * * * * * * * * * * * * * * * * * * * * * * * * * * * * * * * * * * * * //

dimensions      [0 3 -1 0 0 0 0];

internalField   nonuniform List<scalar> 
359
(
-1.7408e-13
-4.39898e-13
-6.85748e-13
-9.21639e-13
-1.1643e-12
-1.4126e-12
-1.66209e-12
-1.91102e-12
-2.1591e-12
-2.40648e-12
-2.65314e-12
-2.89888e-12
-3.14352e-12
-3.38691e-12
-3.62899e-12
-3.86978e-12
-4.10934e-12
-4.34767e-12
-4.5848e-12
-4.82083e-12
-5.05573e-12
-5.28963e-12
-5.52258e-12
-5.75465e-12
-5.98593e-12
-6.21649e-12
-6.44637e-12
-6.6757e-12
-6.90453e-12
-7.13292e-12
-7.36093e-12
-7.58867e-12
-7.8161e-12
-8.0434e-12
-8.27052e-12
-8.49754e-12
-8.72446e-12
-8.95136e-12
-9.17831e-12
-9.40518e-12
-9.63216e-12
-9.85919e-12
-1.00862e-11
-1.03133e-11
-1.05405e-11
-1.07678e-11
-1.09951e-11
-1.12223e-11
-1.14496e-11
-1.16769e-11
-1.19042e-11
-1.21314e-11
-1.23586e-11
-1.25856e-11
-1.28124e-11
-1.30391e-11
-1.32655e-11
-1.34915e-11
-1.37171e-11
-1.39422e-11
-1.41669e-11
-1.4391e-11
-1.46146e-11
-1.48375e-11
-1.50598e-11
-1.52812e-11
-1.55017e-11
-1.57213e-11
-1.59398e-11
-1.61572e-11
-1.63733e-11
-1.65884e-11
-1.68022e-11
-1.70147e-11
-1.72259e-11
-1.74358e-11
-1.76443e-11
-1.78511e-11
-1.80562e-11
-1.82596e-11
-1.84612e-11
-1.8661e-11
-1.8859e-11
-1.90552e-11
-1.92496e-11
-1.94421e-11
-1.96327e-11
-1.98213e-11
-2.00079e-11
-2.01922e-11
-2.03743e-11
-2.05542e-11
-2.07317e-11
-2.0907e-11
-2.10801e-11
-2.12509e-11
-2.14194e-11
-2.15856e-11
-2.17496e-11
-2.19111e-11
-2.20703e-11
-2.22271e-11
-2.23814e-11
-2.25332e-11
-2.26826e-11
-2.28296e-11
-2.2974e-11
-2.31161e-11
-2.32557e-11
-2.33931e-11
-2.35282e-11
-2.36613e-11
-2.37924e-11
-2.39218e-11
-2.40497e-11
-2.41764e-11
-2.4302e-11
-2.44271e-11
-2.45517e-11
-2.46762e-11
-2.48008e-11
-2.49258e-11
-2.5051e-11
-2.51766e-11
-2.53021e-11
-2.54273e-11
-2.55517e-11
-2.56745e-11
-2.57951e-11
-2.59124e-11
-2.60254e-11
-2.61331e-11
-2.6235e-11
-2.63309e-11
-2.64211e-11
-2.65061e-11
-2.65867e-11
-2.66643e-11
-2.67403e-11
-2.6814e-11
-2.68786e-11
-2.69239e-11
-2.69491e-11
-2.69594e-11
-2.69621e-11
-2.69628e-11
-4.41534e-11
-3.37634e-12
6.20227e-09
1.5117e-08
2.00547e-08
2.32274e-08
2.58137e-08
2.80996e-08
3.01227e-08
3.18123e-08
3.30539e-08
3.36802e-08
3.34838e-08
3.22654e-08
2.99918e-08
2.69537e-08
2.36105e-08
2.0309e-08
1.72202e-08
1.44078e-08
1.18833e-08
9.63401e-09
7.63876e-09
5.87426e-09
4.31806e-09
2.94949e-09
1.74987e-09
7.02404e-10
-2.07951e-10
-9.9471e-10
-1.67002e-09
-2.24481e-09
-2.72892e-09
-3.13122e-09
-3.45967e-09
-3.72147e-09
-3.92307e-09
-4.07028e-09
-4.16834e-09
-4.22195e-09
-4.23537e-09
-4.21243e-09
-4.15662e-09
-4.07108e-09
-3.95869e-09
-3.82209e-09
-3.66371e-09
-3.48587e-09
-3.29079e-09
-3.08063e-09
-2.85758e-09
-2.62386e-09
-2.38175e-09
-2.13359e-09
-1.88171e-09
-1.62332e-09
-1.36083e-09
-1.0969e-09
-8.34375e-10
-5.76187e-10
-3.25192e-10
-8.41566e-11
1.44401e-10
3.58152e-10
5.55177e-10
7.33828e-10
8.93083e-10
1.03258e-09
1.15207e-09
1.25139e-09
1.3313e-09
1.39291e-09
1.43711e-09
1.4652e-09
1.47891e-09
1.4815e-09
1.477e-09
1.47007e-09
1.46844e-09
1.48579e-09
1.52689e-09
1.58943e-09
1.67456e-09
1.7814e-09
1.91509e-09
2.07019e-09
2.26947e-09
2.50041e-09
2.88494e-09
3.18269e-09
2.50792e-09
3.9434e-09
3.32188e-09
5.54142e-09
4.12319e-09
9.08433e-09
-4.813e-08
-1.4294e-07
-1.58352e-07
-1.58229e-07
-1.58226e-07
-1.58207e-07
-1.58188e-07
-1.58166e-07
-1.58143e-07
-1.58118e-07
-1.58091e-07
-1.58067e-07
-1.58046e-07
-1.58025e-07
-1.58006e-07
-1.57991e-07
-1.57978e-07
-1.57966e-07
-1.57953e-07
-1.57929e-07
-1.57891e-07
-1.57879e-07
-1.57878e-07
-1.57878e-07
-1.57878e-07
-1.57878e-07
-1.57878e-07
-1.57878e-07
-1.57878e-07
-1.57878e-07
-1.57878e-07
-1.57878e-07
-1.57878e-07
-1.57878e-07
-1.57878e-07
-1.57878e-07
-1.57878e-07
-1.57878e-07
-1.57878e-07
-1.57878e-07
-1.57878e-07
-1.57878e-07
-1.57878e-07
-1.57878e-07
-1.57878e-07
-1.57878e-07
-1.57878e-07
-1.57878e-07
-1.57878e-07
-1.57878e-07
-1.57878e-07
-1.57878e-07
-1.57878e-07
-1.57878e-07
-1.57878e-07
-1.57878e-07
-1.57878e-07
-1.57878e-07
-1.57878e-07
-1.57878e-07
-1.57878e-07
-1.57878e-07
-1.57878e-07
-1.57878e-07
-1.57878e-07
-1.57878e-07
-1.57878e-07
-1.57878e-07
-1.57878e-07
-1.57878e-07
-1.57878e-07
-1.57878e-07
-1.57878e-07
-1.57878e-07
-1.57878e-07
-1.57878e-07
-1.57878e-07
-1.57878e-07
-1.57878e-07
-1.57878e-07
-1.57878e-07
-1.57878e-07
-1.57878e-07
-1.57878e-07
-1.57878e-07
-1.57878e-07
-1.57878e-07
-1.57878e-07
-1.57878e-07
-1.57878e-07
-1.57878e-07
-1.57878e-07
-1.57878e-07
-1.57878e-07
-1.57878e-07
-1.57878e-07
-1.57878e-07
-1.57878e-07
-1.57878e-07
-1.57878e-07
-1.57878e-07
-1.57878e-07
-1.57878e-07
-1.57878e-07
-1.57878e-07
-1.57878e-07
-1.57878e-07
-1.57878e-07
-1.57878e-07
-1.57878e-07
-1.57878e-07
-1.57878e-07
-1.57878e-07
-1.57878e-07
-1.5786e-07
-1.57151e-07
-1.31892e-07
)
;

boundaryField
{
    inandouthalf11
    {
        type            cyclic;
        value           nonuniform List<scalar> 
100
(
-1.4795e-38
-1.6755e-14
-3.4858e-14
-5.09759e-14
-6.72383e-14
-8.40698e-14
-1.01042e-13
-1.17914e-13
-1.34647e-13
-1.51246e-13
-1.67714e-13
-1.84045e-13
-2.00227e-13
-2.16251e-13
-2.32111e-13
-2.47809e-13
-2.63347e-13
-2.78731e-13
-2.93962e-13
-3.09047e-13
-3.23988e-13
-3.38791e-13
-3.53463e-13
-3.68009e-13
-3.82435e-13
-3.96747e-13
-4.10949e-13
-4.25049e-13
-4.39052e-13
-4.52963e-13
-4.66786e-13
-4.80526e-13
-4.94187e-13
-5.07773e-13
-5.21288e-13
-5.34735e-13
-5.48115e-13
-5.61431e-13
-5.74687e-13
-5.87884e-13
-6.01022e-13
-6.14103e-13
-6.27127e-13
-6.40095e-13
-6.53007e-13
-6.65864e-13
-6.78665e-13
-6.91406e-13
-7.04086e-13
-7.16709e-13
-7.29272e-13
-7.41773e-13
-7.5421e-13
-7.66581e-13
-7.78884e-13
-7.91117e-13
-8.03276e-13
-8.15359e-13
-8.2736e-13
-8.39275e-13
-8.51103e-13
-8.62844e-13
-8.74496e-13
-8.86057e-13
-8.97521e-13
-9.08885e-13
-9.20143e-13
-9.31294e-13
-9.4233e-13
-9.53247e-13
-9.64044e-13
-9.74724e-13
-9.85281e-13
-9.95715e-13
-1.00603e-12
-1.01621e-12
-1.02627e-12
-1.03618e-12
-1.04596e-12
-1.0556e-12
-1.06509e-12
-1.07444e-12
-1.08364e-12
-1.09269e-12
-1.10161e-12
-1.11037e-12
-1.11899e-12
-1.12747e-12
-1.13579e-12
-1.14395e-12
-1.15196e-12
-1.1598e-12
-1.16749e-12
-1.17502e-12
-1.18239e-12
-1.18961e-12
-1.19666e-12
-1.20357e-12
-1.21031e-12
-1.2169e-12
)
;
    }
    inandouthalf12
    {
        type            cyclic;
        value           nonuniform List<scalar> 
100
(
1.4795e-38
1.6755e-14
3.4858e-14
5.09759e-14
6.72383e-14
8.40698e-14
1.01042e-13
1.17914e-13
1.34647e-13
1.51246e-13
1.67714e-13
1.84045e-13
2.00227e-13
2.16251e-13
2.32111e-13
2.47809e-13
2.63347e-13
2.78731e-13
2.93962e-13
3.09047e-13
3.23988e-13
3.38791e-13
3.53463e-13
3.68009e-13
3.82435e-13
3.96747e-13
4.10949e-13
4.25049e-13
4.39052e-13
4.52963e-13
4.66786e-13
4.80526e-13
4.94187e-13
5.07773e-13
5.21288e-13
5.34735e-13
5.48115e-13
5.61431e-13
5.74687e-13
5.87884e-13
6.01022e-13
6.14103e-13
6.27127e-13
6.40095e-13
6.53007e-13
6.65864e-13
6.78665e-13
6.91406e-13
7.04086e-13
7.16709e-13
7.29272e-13
7.41773e-13
7.5421e-13
7.66581e-13
7.78884e-13
7.91117e-13
8.03276e-13
8.15359e-13
8.2736e-13
8.39275e-13
8.51103e-13
8.62844e-13
8.74496e-13
8.86057e-13
8.97521e-13
9.08885e-13
9.20143e-13
9.31294e-13
9.4233e-13
9.53247e-13
9.64044e-13
9.74724e-13
9.85281e-13
9.95715e-13
1.00603e-12
1.01621e-12
1.02627e-12
1.03618e-12
1.04596e-12
1.0556e-12
1.06509e-12
1.07444e-12
1.08364e-12
1.09269e-12
1.10161e-12
1.11037e-12
1.11899e-12
1.12747e-12
1.13579e-12
1.14395e-12
1.15196e-12
1.1598e-12
1.16749e-12
1.17502e-12
1.18239e-12
1.18961e-12
1.19666e-12
1.20357e-12
1.21031e-12
1.2169e-12
)
;
    }
    inandouthalf21
    {
        type            cyclic;
        value           nonuniform List<scalar> 
100
(
-1.22333e-12
-1.2296e-12
-1.23571e-12
-1.24166e-12
-1.24745e-12
-1.25308e-12
-1.25855e-12
-1.26386e-12
-1.26902e-12
-1.27401e-12
-1.27886e-12
-1.28356e-12
-1.28811e-12
-1.29252e-12
-1.29679e-12
-1.30093e-12
-1.30494e-12
-1.30883e-12
-1.31259e-12
-1.31622e-12
-1.31973e-12
-1.3231e-12
-1.32632e-12
-1.32937e-12
-1.33223e-12
-1.33488e-12
-1.33728e-12
-1.33941e-12
-1.34124e-12
-1.34273e-12
-1.34387e-12
-1.34465e-12
-1.34506e-12
-1.34511e-12
-1.3448e-12
-1.34416e-12
-1.34318e-12
-1.34183e-12
-1.34007e-12
-1.33782e-12
-1.33519e-12
-1.33263e-12
-1.33074e-12
-1.32979e-12
-1.32955e-12
-1.32959e-12
-1.32991e-12
-3.79638e-11
-2.31839e-08
-1.2754e-07
-2.50891e-07
-3.47014e-07
-4.2328e-07
-4.85049e-07
-5.35488e-07
-5.76546e-07
-6.09517e-07
-6.35411e-07
-6.55215e-07
-6.70009e-07
-6.80912e-07
-6.88938e-07
-6.94884e-07
-6.99308e-07
-7.0259e-07
-7.04989e-07
-7.06688e-07
-7.07823e-07
-7.08493e-07
-7.08778e-07
-7.08739e-07
-7.08427e-07
-7.07883e-07
-7.07141e-07
-7.06229e-07
-7.05172e-07
-7.03992e-07
-7.02706e-07
-7.0133e-07
-6.9988e-07
-6.98367e-07
-6.96803e-07
-6.95197e-07
-6.9356e-07
-6.91899e-07
-6.90222e-07
-6.88537e-07
-6.86848e-07
-6.85164e-07
-6.83488e-07
-6.81827e-07
-6.80185e-07
-6.78567e-07
-6.76977e-07
-6.75419e-07
-6.73897e-07
-6.72414e-07
-6.70975e-07
-6.69581e-07
-6.68238e-07
)
;
    }
    inandouthalf22
    {
        type            cyclic;
        value           nonuniform List<scalar> 
100
(
1.22333e-12
1.2296e-12
1.23571e-12
1.24166e-12
1.24745e-12
1.25308e-12
1.25855e-12
1.26386e-12
1.26902e-12
1.27401e-12
1.27886e-12
1.28356e-12
1.28811e-12
1.29252e-12
1.29679e-12
1.30093e-12
1.30494e-12
1.30883e-12
1.31259e-12
1.31622e-12
1.31973e-12
1.3231e-12
1.32632e-12
1.32937e-12
1.33223e-12
1.33488e-12
1.33728e-12
1.33941e-12
1.34124e-12
1.34273e-12
1.34387e-12
1.34465e-12
1.34506e-12
1.34511e-12
1.3448e-12
1.34416e-12
1.34318e-12
1.34183e-12
1.34007e-12
1.33782e-12
1.33519e-12
1.33263e-12
1.33074e-12
1.32979e-12
1.32955e-12
1.32959e-12
1.32991e-12
3.79638e-11
2.31839e-08
1.2754e-07
2.50891e-07
3.47014e-07
4.2328e-07
4.85049e-07
5.35488e-07
5.76546e-07
6.09517e-07
6.35411e-07
6.55215e-07
6.70009e-07
6.80912e-07
6.88938e-07
6.94884e-07
6.99308e-07
7.0259e-07
7.04989e-07
7.06688e-07
7.07823e-07
7.08493e-07
7.08778e-07
7.08739e-07
7.08427e-07
7.07883e-07
7.07141e-07
7.06229e-07
7.05172e-07
7.03992e-07
7.02706e-07
7.0133e-07
6.9988e-07
6.98367e-07
6.96803e-07
6.95197e-07
6.9356e-07
6.91899e-07
6.90222e-07
6.88537e-07
6.86848e-07
6.85164e-07
6.83488e-07
6.81827e-07
6.80185e-07
6.78567e-07
6.76977e-07
6.75419e-07
6.73897e-07
6.72414e-07
6.70975e-07
6.69581e-07
6.68238e-07
)
;
    }
    inandouthalf31
    {
        type            cyclic;
        value           nonuniform List<scalar> 
110
(
-6.66949e-07
-6.79211e-07
-6.91729e-07
-7.04508e-07
-7.17556e-07
-7.30878e-07
-7.44483e-07
-7.58376e-07
-7.72565e-07
-7.87056e-07
-8.01856e-07
-8.1697e-07
-8.32406e-07
-8.48169e-07
-8.64264e-07
-8.80699e-07
-8.97478e-07
-9.14608e-07
-9.32095e-07
-9.49944e-07
-9.68163e-07
-9.86757e-07
-1.00573e-06
-1.0251e-06
-1.04487e-06
-1.06504e-06
-1.08563e-06
-1.10665e-06
-1.12811e-06
-1.15002e-06
-1.17241e-06
-1.19528e-06
-1.21868e-06
-1.24264e-06
-1.26723e-06
-1.29248e-06
-1.31823e-06
-1.26339e-06
-1.28232e-06
-1.30195e-06
-1.32188e-06
-1.34237e-06
-1.36296e-06
-1.38757e-06
-1.41118e-06
-1.43325e-06
-1.4567e-06
-1.48087e-06
-1.50592e-06
-1.53193e-06
-1.55902e-06
-1.58728e-06
-1.61681e-06
-1.64769e-06
-1.6801e-06
-1.71392e-06
-1.74924e-06
-1.78604e-06
-1.82424e-06
-1.86374e-06
-1.90434e-06
-1.94581e-06
-1.98732e-06
-2.02824e-06
-2.06945e-06
-2.11146e-06
-2.15431e-06
-2.19804e-06
-2.24265e-06
-2.28817e-06
-2.33462e-06
-2.382e-06
-2.43035e-06
-2.47968e-06
-2.53001e-06
-2.58137e-06
-2.63376e-06
-2.68722e-06
-2.74176e-06
-2.79741e-06
-2.85419e-06
-2.91212e-06
-2.97123e-06
-3.03154e-06
-3.09307e-06
-3.15585e-06
-3.21991e-06
-3.28527e-06
-3.35195e-06
-3.41998e-06
-3.4894e-06
-3.56023e-06
-3.63249e-06
-3.70622e-06
-3.78144e-06
-3.8582e-06
-3.93651e-06
-4.01641e-06
-4.09793e-06
-4.18111e-06
-4.26597e-06
-4.35256e-06
-4.44091e-06
-4.53105e-06
-4.62301e-06
-4.71685e-06
-4.81259e-06
-4.91027e-06
-5.00994e-06
-5.11163e-06
)
;
    }
    inandouthalf32
    {
        type            cyclic;
        value           nonuniform List<scalar> 
110
(
6.66949e-07
6.79211e-07
6.91729e-07
7.04508e-07
7.17556e-07
7.30878e-07
7.44483e-07
7.58376e-07
7.72565e-07
7.87056e-07
8.01856e-07
8.1697e-07
8.32406e-07
8.48169e-07
8.64264e-07
8.80699e-07
8.97478e-07
9.14608e-07
9.32095e-07
9.49944e-07
9.68163e-07
9.86757e-07
1.00573e-06
1.0251e-06
1.04487e-06
1.06504e-06
1.08563e-06
1.10665e-06
1.12811e-06
1.15002e-06
1.17241e-06
1.19528e-06
1.21868e-06
1.24264e-06
1.26723e-06
1.29248e-06
1.31823e-06
1.26339e-06
1.28232e-06
1.30195e-06
1.32188e-06
1.34237e-06
1.36296e-06
1.38757e-06
1.41118e-06
1.43325e-06
1.4567e-06
1.48087e-06
1.50592e-06
1.53193e-06
1.55902e-06
1.58728e-06
1.61681e-06
1.64769e-06
1.6801e-06
1.71392e-06
1.74924e-06
1.78604e-06
1.82424e-06
1.86374e-06
1.90434e-06
1.94581e-06
1.98732e-06
2.02824e-06
2.06945e-06
2.11146e-06
2.15431e-06
2.19804e-06
2.24265e-06
2.28817e-06
2.33462e-06
2.382e-06
2.43035e-06
2.47968e-06
2.53001e-06
2.58137e-06
2.63376e-06
2.68722e-06
2.74176e-06
2.79741e-06
2.85419e-06
2.91212e-06
2.97123e-06
3.03154e-06
3.09307e-06
3.15585e-06
3.21991e-06
3.28527e-06
3.35195e-06
3.41998e-06
3.4894e-06
3.56023e-06
3.63249e-06
3.70622e-06
3.78144e-06
3.8582e-06
3.93651e-06
4.01641e-06
4.09793e-06
4.18111e-06
4.26597e-06
4.35256e-06
4.44091e-06
4.53105e-06
4.62301e-06
4.71685e-06
4.81259e-06
4.91027e-06
5.00994e-06
5.11163e-06
)
;
    }
    inandouthalf41
    {
        type            cyclic;
        value           nonuniform List<scalar> 
50
(
-4.57543e-06
-4.57543e-06
-4.57543e-06
-4.57543e-06
-4.57543e-06
-4.57543e-06
-4.57543e-06
-4.57543e-06
-4.57543e-06
-4.57543e-06
-4.57543e-06
-4.57543e-06
-4.57543e-06
-4.57543e-06
-4.57543e-06
-4.57543e-06
-4.57543e-06
-4.57543e-06
-4.57543e-06
-4.57543e-06
-4.57543e-06
-4.57543e-06
-4.57543e-06
-4.57543e-06
-4.57543e-06
-4.57543e-06
-4.57543e-06
-4.57543e-06
-4.57543e-06
-4.57543e-06
-4.57543e-06
-4.57543e-06
-4.57543e-06
-4.57543e-06
-4.57543e-06
-4.57543e-06
-4.57543e-06
-4.57543e-06
-4.57543e-06
-4.57543e-06
-4.57543e-06
-4.57543e-06
-4.57543e-06
-4.57543e-06
-4.57543e-06
-4.57543e-06
-4.57543e-06
-4.57541e-06
-4.57513e-06
-4.56856e-06
)
;
    }
    inandouthalf42
    {
        type            cyclic;
        value           nonuniform List<scalar> 
50
(
4.57543e-06
4.57543e-06
4.57543e-06
4.57543e-06
4.57543e-06
4.57543e-06
4.57543e-06
4.57543e-06
4.57543e-06
4.57543e-06
4.57543e-06
4.57543e-06
4.57543e-06
4.57543e-06
4.57543e-06
4.57543e-06
4.57543e-06
4.57543e-06
4.57543e-06
4.57543e-06
4.57543e-06
4.57543e-06
4.57543e-06
4.57543e-06
4.57543e-06
4.57543e-06
4.57543e-06
4.57543e-06
4.57543e-06
4.57543e-06
4.57543e-06
4.57543e-06
4.57543e-06
4.57543e-06
4.57543e-06
4.57543e-06
4.57543e-06
4.57543e-06
4.57543e-06
4.57543e-06
4.57543e-06
4.57543e-06
4.57543e-06
4.57543e-06
4.57543e-06
4.57543e-06
4.57543e-06
4.57541e-06
4.57513e-06
4.56856e-06
)
;
    }
    top
    {
        type            symmetryPlane;
        value           uniform 0;
    }
    walls
    {
        type            fixedValue;
        value           uniform 0;
    }
    frontAndBackPlanes
    {
        type            empty;
        value           nonuniform 0();
    }
}


// ************************************************************************* //
