/*--------------------------------*- C++ -*----------------------------------*\
| =========                 |                                                 |
| \\      /  F ield         | OpenFOAM: The Open Source CFD Toolbox           |
|  \\    /   O peration     | Version:  2.4.x                                 |
|   \\  /    A nd           | Web:      www.OpenFOAM.org                      |
|    \\/     M anipulation  |                                                 |
\*---------------------------------------------------------------------------*/
FoamFile
{
    version     2.0;
    format      ascii;
    class       surfaceScalarField;
    location    "7.95";
    object      phib_0;
}
// * * * * * * * * * * * * * * * * * * * * * * * * * * * * * * * * * * * * * //

dimensions      [0 3 -1 0 0 0 0];

internalField   nonuniform List<scalar> 
359
(
2.73708e-13
6.93015e-13
1.08035e-12
1.45158e-12
1.83353e-12
2.2244e-12
2.61705e-12
3.00871e-12
3.39895e-12
3.78801e-12
4.17588e-12
4.5622e-12
4.94672e-12
5.32918e-12
5.7095e-12
6.08772e-12
6.4639e-12
6.83808e-12
7.21029e-12
7.58067e-12
7.9492e-12
8.31606e-12
8.68134e-12
9.04516e-12
9.40764e-12
9.76889e-12
1.0129e-11
1.04881e-11
1.08464e-11
1.12039e-11
1.15607e-11
1.19169e-11
1.22726e-11
1.2628e-11
1.29829e-11
1.33377e-11
1.36921e-11
1.40465e-11
1.44008e-11
1.47548e-11
1.51089e-11
1.5463e-11
1.58169e-11
1.6171e-11
1.65249e-11
1.68789e-11
1.72328e-11
1.75865e-11
1.79401e-11
1.82937e-11
1.8647e-11
1.90002e-11
1.9353e-11
1.97056e-11
2.00576e-11
2.04094e-11
2.07604e-11
2.11109e-11
2.14605e-11
2.18091e-11
2.21569e-11
2.25036e-11
2.28494e-11
2.3194e-11
2.35374e-11
2.38793e-11
2.42196e-11
2.45583e-11
2.48951e-11
2.52298e-11
2.55626e-11
2.58935e-11
2.62221e-11
2.65486e-11
2.68728e-11
2.71948e-11
2.75143e-11
2.7831e-11
2.81449e-11
2.84559e-11
2.87639e-11
2.90687e-11
2.93705e-11
2.96693e-11
2.9965e-11
3.02575e-11
3.05469e-11
3.08329e-11
3.11153e-11
3.13941e-11
3.16691e-11
3.19403e-11
3.22076e-11
3.24711e-11
3.27308e-11
3.29866e-11
3.32386e-11
3.34868e-11
3.37309e-11
3.39711e-11
3.42072e-11
3.44391e-11
3.46669e-11
3.48904e-11
3.51097e-11
3.53247e-11
3.55355e-11
3.57421e-11
3.59445e-11
3.61429e-11
3.63373e-11
3.65279e-11
3.67151e-11
3.68989e-11
3.70799e-11
3.72584e-11
3.74347e-11
3.76092e-11
3.77825e-11
3.79549e-11
3.81266e-11
3.8298e-11
3.84691e-11
3.86396e-11
3.88093e-11
3.89773e-11
3.9143e-11
3.93051e-11
3.94624e-11
3.96134e-11
3.97564e-11
3.98898e-11
4.00124e-11
4.01238e-11
4.02244e-11
4.0315e-11
4.03965e-11
4.04697e-11
4.05348e-11
4.05906e-11
4.06311e-11
4.06379e-11
4.05988e-11
4.05168e-11
4.0363e-11
4.01064e-11
6.52108e-11
4.17581e-12
-4.01673e-09
-4.51796e-09
-3.85157e-09
-3.18696e-09
-2.54528e-09
-1.95251e-09
-1.4353e-09
-1.00985e-09
-6.80347e-10
-4.39891e-10
-2.74214e-10
-1.66116e-10
-9.92726e-11
-5.99327e-11
-3.73334e-11
-2.41359e-11
-1.60892e-11
-1.09504e-11
-7.53818e-12
-5.20236e-12
-3.56596e-12
-2.39995e-12
-1.55941e-12
-9.49274e-13
-5.05332e-13
-1.8304e-13
4.91675e-14
2.14088e-13
3.28444e-13
4.04669e-13
4.52108e-13
4.7785e-13
4.87311e-13
4.84655e-13
4.73092e-13
4.55107e-13
4.32626e-13
4.07141e-13
3.79805e-13
3.51511e-13
3.22941e-13
2.94618e-13
2.66934e-13
2.40182e-13
2.14575e-13
1.90265e-13
1.67356e-13
1.45919e-13
1.25996e-13
1.07609e-13
9.07677e-14
7.5467e-14
6.16896e-14
4.91708e-14
3.79519e-14
2.80582e-14
1.94946e-14
1.22433e-14
6.25901e-15
1.47121e-15
-2.21493e-15
-4.91196e-15
-6.74744e-15
-7.85573e-15
-8.37552e-15
-8.43978e-15
-8.16526e-15
-7.65457e-15
-6.99853e-15
-6.26661e-15
-5.50918e-15
-4.76578e-15
-4.06586e-15
-3.42989e-15
-2.86715e-15
-2.38265e-15
-1.97989e-15
-1.65957e-15
-1.40635e-15
-1.2014e-15
-1.03309e-15
-8.918e-16
-7.72382e-16
-6.70495e-16
-5.91393e-16
-5.21031e-16
-4.4237e-16
-3.27051e-16
-1.82444e-16
-2.11993e-16
-1.17594e-16
-1.2965e-16
-5.07963e-17
-5.68141e-17
9.89495e-17
1.05707e-17
1.02852e-17
1.00314e-17
9.73517e-18
9.47152e-18
9.16416e-18
8.8856e-18
8.56647e-18
8.27173e-18
7.93593e-18
7.62116e-18
7.2687e-18
6.93938e-18
6.5802e-18
6.24205e-18
5.87699e-18
5.53379e-18
5.17693e-18
4.84645e-18
4.5149e-18
4.22805e-18
3.97259e-18
3.76116e-18
3.56987e-18
3.39507e-18
3.23639e-18
3.09013e-18
2.94595e-18
2.80966e-18
2.69673e-18
2.58854e-18
2.48066e-18
2.36616e-18
2.2597e-18
2.14498e-18
2.02953e-18
1.91071e-18
1.81788e-18
1.72226e-18
1.62957e-18
1.52743e-18
1.4321e-18
1.32876e-18
1.20744e-18
1.09532e-18
9.92847e-19
8.84359e-19
7.75812e-19
6.61175e-19
5.5334e-19
4.41026e-19
3.34083e-19
2.28289e-19
2.24924e-19
1.91403e-19
1.66821e-19
1.05439e-19
8.58647e-20
6.64077e-20
4.73007e-20
2.62514e-20
1.16012e-20
-5.02181e-21
-2.12445e-20
-4.02432e-20
-5.69994e-20
-7.68269e-20
-9.46609e-20
-1.14693e-19
-1.31714e-19
-1.51398e-19
-1.7133e-19
-1.94713e-19
-2.16318e-19
-2.42857e-19
-2.69969e-19
-3.01339e-19
-3.41218e-19
-3.87153e-19
-4.35831e-19
-4.91721e-19
-5.73453e-19
-6.60932e-19
-7.85071e-19
-9.05958e-19
-1.53141e-18
-2.14677e-18
-2.79806e-18
-3.43653e-18
-4.1215e-18
-4.77978e-18
-5.44317e-18
-6.06851e-18
-6.80631e-18
-7.48251e-18
-8.16278e-18
-8.75452e-18
-9.46239e-18
-1.00363e-17
-1.0655e-17
-1.11348e-17
-1.23931e-17
-1.34054e-17
-1.44538e-17
-1.50877e-17
-1.61643e-17
-1.66033e-17
-1.71113e-17
-1.70454e-17
-1.84942e-17
-1.8863e-17
-1.92528e-17
-1.82847e-17
-1.79778e-17
-1.68062e-17
-1.68187e-17
)
;

boundaryField
{
    inandouthalf11
    {
        type            cyclic;
        value           nonuniform List<scalar> 
100
(
-2.76079e-10
-2.74633e-10
-2.74427e-10
-2.74643e-10
-2.74763e-10
-2.74816e-10
-2.74874e-10
-2.74943e-10
-2.75012e-10
-2.75083e-10
-2.75154e-10
-2.75224e-10
-2.75295e-10
-2.75366e-10
-2.75438e-10
-2.7551e-10
-2.75582e-10
-2.75655e-10
-2.75728e-10
-2.75801e-10
-2.75874e-10
-2.75949e-10
-2.76023e-10
-2.76098e-10
-2.76173e-10
-2.76249e-10
-2.76325e-10
-2.76402e-10
-2.76479e-10
-2.76557e-10
-2.76635e-10
-2.76715e-10
-2.76793e-10
-2.76874e-10
-2.76955e-10
-2.77036e-10
-2.77118e-10
-2.77201e-10
-2.77284e-10
-2.77368e-10
-2.77453e-10
-2.77539e-10
-2.77624e-10
-2.77712e-10
-2.77799e-10
-2.77888e-10
-2.77978e-10
-2.78067e-10
-2.78159e-10
-2.78251e-10
-2.78343e-10
-2.78437e-10
-2.78532e-10
-2.78628e-10
-2.78723e-10
-2.78822e-10
-2.78919e-10
-2.79019e-10
-2.7912e-10
-2.7922e-10
-2.79324e-10
-2.79427e-10
-2.79532e-10
-2.79638e-10
-2.79745e-10
-2.79853e-10
-2.79963e-10
-2.80073e-10
-2.80185e-10
-2.80298e-10
-2.80413e-10
-2.8053e-10
-2.80646e-10
-2.80765e-10
-2.80886e-10
-2.81008e-10
-2.81131e-10
-2.81256e-10
-2.81383e-10
-2.81512e-10
-2.81642e-10
-2.81774e-10
-2.81908e-10
-2.82044e-10
-2.82182e-10
-2.82322e-10
-2.82464e-10
-2.82608e-10
-2.82755e-10
-2.82904e-10
-2.83055e-10
-2.83209e-10
-2.83366e-10
-2.83526e-10
-2.83688e-10
-2.83853e-10
-2.84022e-10
-2.84193e-10
-2.84368e-10
-2.84546e-10
)
;
    }
    inandouthalf12
    {
        type            cyclic;
        value           nonuniform List<scalar> 
100
(
2.76079e-10
2.74633e-10
2.74427e-10
2.74643e-10
2.74763e-10
2.74816e-10
2.74874e-10
2.74943e-10
2.75012e-10
2.75083e-10
2.75154e-10
2.75224e-10
2.75295e-10
2.75366e-10
2.75438e-10
2.7551e-10
2.75582e-10
2.75655e-10
2.75728e-10
2.75801e-10
2.75874e-10
2.75949e-10
2.76023e-10
2.76098e-10
2.76173e-10
2.76249e-10
2.76325e-10
2.76402e-10
2.76479e-10
2.76557e-10
2.76635e-10
2.76715e-10
2.76793e-10
2.76874e-10
2.76955e-10
2.77036e-10
2.77118e-10
2.77201e-10
2.77284e-10
2.77368e-10
2.77453e-10
2.77539e-10
2.77624e-10
2.77712e-10
2.77799e-10
2.77888e-10
2.77978e-10
2.78067e-10
2.78159e-10
2.78251e-10
2.78343e-10
2.78437e-10
2.78532e-10
2.78628e-10
2.78723e-10
2.78822e-10
2.78919e-10
2.79019e-10
2.7912e-10
2.7922e-10
2.79324e-10
2.79427e-10
2.79532e-10
2.79638e-10
2.79745e-10
2.79853e-10
2.79963e-10
2.80073e-10
2.80185e-10
2.80298e-10
2.80413e-10
2.8053e-10
2.80646e-10
2.80765e-10
2.80886e-10
2.81008e-10
2.81131e-10
2.81256e-10
2.81383e-10
2.81512e-10
2.81642e-10
2.81774e-10
2.81908e-10
2.82044e-10
2.82182e-10
2.82322e-10
2.82464e-10
2.82608e-10
2.82755e-10
2.82904e-10
2.83055e-10
2.83209e-10
2.83366e-10
2.83526e-10
2.83688e-10
2.83853e-10
2.84022e-10
2.84193e-10
2.84368e-10
2.84546e-10
)
;
    }
    inandouthalf21
    {
        type            cyclic;
        value           nonuniform List<scalar> 
100
(
-2.84728e-10
-2.84914e-10
-2.85103e-10
-2.85297e-10
-2.85495e-10
-2.85697e-10
-2.85904e-10
-2.86116e-10
-2.86332e-10
-2.86554e-10
-2.86782e-10
-2.87015e-10
-2.87255e-10
-2.87501e-10
-2.87753e-10
-2.88013e-10
-2.8828e-10
-2.88554e-10
-2.88836e-10
-2.89127e-10
-2.89427e-10
-2.89736e-10
-2.90055e-10
-2.90384e-10
-2.90725e-10
-2.91077e-10
-2.91442e-10
-2.91821e-10
-2.92215e-10
-2.92626e-10
-2.93055e-10
-2.93501e-10
-2.93969e-10
-2.94461e-10
-2.94984e-10
-2.95537e-10
-2.96117e-10
-2.96732e-10
-2.97413e-10
-2.98195e-10
-2.99043e-10
-2.99863e-10
-3.00851e-10
-3.02133e-10
-3.03742e-10
-3.06863e-10
-3.11654e-10
-3.89015e-10
-2.4968e-08
-1.43763e-07
-2.69616e-07
-3.63602e-07
-4.38775e-07
-5.00456e-07
-5.51804e-07
-5.94794e-07
-6.30672e-07
-6.60199e-07
-6.83868e-07
-7.02144e-07
-7.15675e-07
-7.2533e-07
-7.32048e-07
-7.36662e-07
-7.39806e-07
-7.41922e-07
-7.43307e-07
-7.44159e-07
-7.4461e-07
-7.44753e-07
-7.44649e-07
-7.44345e-07
-7.43875e-07
-7.43262e-07
-7.42527e-07
-7.41685e-07
-7.40749e-07
-7.39727e-07
-7.38629e-07
-7.37462e-07
-7.36232e-07
-7.34944e-07
-7.33604e-07
-7.32214e-07
-7.30781e-07
-7.29306e-07
-7.27793e-07
-7.26245e-07
-7.24665e-07
-7.23055e-07
-7.21418e-07
-7.19756e-07
-7.18071e-07
-7.16365e-07
-7.1464e-07
-7.12898e-07
-7.1114e-07
-7.09368e-07
-7.07583e-07
-7.05787e-07
)
;
    }
    inandouthalf22
    {
        type            cyclic;
        value           nonuniform List<scalar> 
100
(
2.84728e-10
2.84914e-10
2.85103e-10
2.85297e-10
2.85495e-10
2.85697e-10
2.85904e-10
2.86116e-10
2.86332e-10
2.86554e-10
2.86782e-10
2.87015e-10
2.87255e-10
2.87501e-10
2.87753e-10
2.88013e-10
2.8828e-10
2.88554e-10
2.88836e-10
2.89127e-10
2.89427e-10
2.89736e-10
2.90055e-10
2.90384e-10
2.90725e-10
2.91077e-10
2.91442e-10
2.91821e-10
2.92215e-10
2.92626e-10
2.93055e-10
2.93501e-10
2.93969e-10
2.94461e-10
2.94984e-10
2.95537e-10
2.96117e-10
2.96732e-10
2.97413e-10
2.98195e-10
2.99043e-10
2.99863e-10
3.00851e-10
3.02133e-10
3.03742e-10
3.06863e-10
3.11654e-10
3.89015e-10
2.4968e-08
1.43763e-07
2.69616e-07
3.63602e-07
4.38775e-07
5.00456e-07
5.51804e-07
5.94794e-07
6.30672e-07
6.60199e-07
6.83868e-07
7.02144e-07
7.15675e-07
7.2533e-07
7.32048e-07
7.36662e-07
7.39806e-07
7.41922e-07
7.43307e-07
7.44159e-07
7.4461e-07
7.44753e-07
7.44649e-07
7.44345e-07
7.43875e-07
7.43262e-07
7.42527e-07
7.41685e-07
7.40749e-07
7.39727e-07
7.38629e-07
7.37462e-07
7.36232e-07
7.34944e-07
7.33604e-07
7.32214e-07
7.30781e-07
7.29306e-07
7.27793e-07
7.26245e-07
7.24665e-07
7.23055e-07
7.21418e-07
7.19756e-07
7.18071e-07
7.16365e-07
7.1464e-07
7.12898e-07
7.1114e-07
7.09368e-07
7.07583e-07
7.05787e-07
)
;
    }
    inandouthalf31
    {
        type            cyclic;
        value           nonuniform List<scalar> 
110
(
-7.03984e-07
-7.16403e-07
-7.28989e-07
-7.41741e-07
-7.54662e-07
-7.67749e-07
-7.81004e-07
-7.94427e-07
-8.08017e-07
-8.21775e-07
-8.357e-07
-8.49793e-07
-8.64055e-07
-8.78484e-07
-8.93081e-07
-9.07847e-07
-9.22781e-07
-9.37885e-07
-9.53159e-07
-9.68604e-07
-9.8422e-07
-1.00001e-06
-1.01598e-06
-1.03212e-06
-1.04844e-06
-1.06494e-06
-1.08163e-06
-1.09851e-06
-1.11558e-06
-1.13286e-06
-1.15034e-06
-1.16804e-06
-1.18596e-06
-1.20412e-06
-1.22252e-06
-1.2412e-06
-1.26015e-06
-1.2794e-06
-1.29898e-06
-1.31891e-06
-1.33921e-06
-1.35994e-06
-1.38113e-06
-1.40282e-06
-1.42507e-06
-1.44794e-06
-1.47151e-06
-1.49584e-06
-1.52104e-06
-1.54719e-06
-1.57441e-06
-1.60278e-06
-1.63243e-06
-1.66345e-06
-1.69591e-06
-1.72986e-06
-1.76534e-06
-1.80231e-06
-1.84073e-06
-1.88048e-06
-1.9214e-06
-1.96322e-06
-2.00538e-06
-2.04685e-06
-2.08845e-06
-2.13084e-06
-2.17409e-06
-2.21822e-06
-2.26325e-06
-2.30918e-06
-2.35605e-06
-2.40388e-06
-2.45267e-06
-2.50245e-06
-2.55324e-06
-2.60507e-06
-2.65794e-06
-2.71189e-06
-2.76694e-06
-2.8231e-06
-2.8804e-06
-2.93886e-06
-2.99852e-06
-3.05938e-06
-3.12148e-06
-3.18483e-06
-3.24948e-06
-3.31543e-06
-3.38273e-06
-3.45139e-06
-3.52144e-06
-3.59292e-06
-3.66584e-06
-3.74025e-06
-3.81617e-06
-3.89363e-06
-3.97266e-06
-4.05329e-06
-4.13556e-06
-4.2195e-06
-4.30515e-06
-4.39253e-06
-4.48169e-06
-4.57265e-06
-4.66546e-06
-4.76016e-06
-4.85678e-06
-4.95536e-06
-5.05594e-06
-5.15856e-06
)
;
    }
    inandouthalf32
    {
        type            cyclic;
        value           nonuniform List<scalar> 
110
(
7.03984e-07
7.16403e-07
7.28989e-07
7.41741e-07
7.54662e-07
7.67749e-07
7.81004e-07
7.94427e-07
8.08017e-07
8.21775e-07
8.357e-07
8.49793e-07
8.64055e-07
8.78484e-07
8.93081e-07
9.07847e-07
9.22781e-07
9.37885e-07
9.53159e-07
9.68604e-07
9.8422e-07
1.00001e-06
1.01598e-06
1.03212e-06
1.04844e-06
1.06494e-06
1.08163e-06
1.09851e-06
1.11558e-06
1.13286e-06
1.15034e-06
1.16804e-06
1.18596e-06
1.20412e-06
1.22252e-06
1.2412e-06
1.26015e-06
1.2794e-06
1.29898e-06
1.31891e-06
1.33921e-06
1.35994e-06
1.38113e-06
1.40282e-06
1.42507e-06
1.44794e-06
1.47151e-06
1.49584e-06
1.52104e-06
1.54719e-06
1.57441e-06
1.60278e-06
1.63243e-06
1.66345e-06
1.69591e-06
1.72986e-06
1.76534e-06
1.80231e-06
1.84073e-06
1.88048e-06
1.9214e-06
1.96322e-06
2.00538e-06
2.04685e-06
2.08845e-06
2.13084e-06
2.17409e-06
2.21822e-06
2.26325e-06
2.30918e-06
2.35605e-06
2.40388e-06
2.45267e-06
2.50245e-06
2.55324e-06
2.60507e-06
2.65794e-06
2.71189e-06
2.76694e-06
2.8231e-06
2.8804e-06
2.93886e-06
2.99852e-06
3.05938e-06
3.12148e-06
3.18483e-06
3.24948e-06
3.31543e-06
3.38273e-06
3.45139e-06
3.52144e-06
3.59292e-06
3.66584e-06
3.74025e-06
3.81617e-06
3.89363e-06
3.97266e-06
4.05329e-06
4.13556e-06
4.2195e-06
4.30515e-06
4.39253e-06
4.48169e-06
4.57265e-06
4.66546e-06
4.76016e-06
4.85678e-06
4.95536e-06
5.05594e-06
5.15856e-06
)
;
    }
    inandouthalf41
    {
        type            cyclic;
        value           nonuniform List<scalar> 
50
(
-4.61744e-06
-4.61744e-06
-4.61744e-06
-4.61744e-06
-4.61744e-06
-4.61744e-06
-4.61744e-06
-4.61744e-06
-4.61744e-06
-4.61744e-06
-4.61744e-06
-4.61744e-06
-4.61744e-06
-4.61744e-06
-4.61744e-06
-4.61744e-06
-4.61744e-06
-4.61744e-06
-4.61744e-06
-4.61744e-06
-4.61744e-06
-4.61744e-06
-4.61744e-06
-4.61744e-06
-4.61744e-06
-4.61744e-06
-4.61744e-06
-4.61744e-06
-4.61744e-06
-4.61744e-06
-4.61744e-06
-4.61744e-06
-4.61744e-06
-4.61744e-06
-4.61744e-06
-4.61744e-06
-4.61744e-06
-4.61744e-06
-4.61744e-06
-4.61744e-06
-4.61744e-06
-4.61744e-06
-4.61744e-06
-4.61744e-06
-4.61744e-06
-4.61744e-06
-4.61744e-06
-4.61744e-06
-4.61744e-06
-4.61744e-06
)
;
    }
    inandouthalf42
    {
        type            cyclic;
        value           nonuniform List<scalar> 
50
(
4.61744e-06
4.61744e-06
4.61744e-06
4.61744e-06
4.61744e-06
4.61744e-06
4.61744e-06
4.61744e-06
4.61744e-06
4.61744e-06
4.61744e-06
4.61744e-06
4.61744e-06
4.61744e-06
4.61744e-06
4.61744e-06
4.61744e-06
4.61744e-06
4.61744e-06
4.61744e-06
4.61744e-06
4.61744e-06
4.61744e-06
4.61744e-06
4.61744e-06
4.61744e-06
4.61744e-06
4.61744e-06
4.61744e-06
4.61744e-06
4.61744e-06
4.61744e-06
4.61744e-06
4.61744e-06
4.61744e-06
4.61744e-06
4.61744e-06
4.61744e-06
4.61744e-06
4.61744e-06
4.61744e-06
4.61744e-06
4.61744e-06
4.61744e-06
4.61744e-06
4.61744e-06
4.61744e-06
4.61744e-06
4.61744e-06
4.61744e-06
)
;
    }
    top
    {
        type            symmetryPlane;
        value           uniform 0;
    }
    walls
    {
        type            fixedValue;
        value           uniform 0;
    }
    frontAndBackPlanes
    {
        type            empty;
        value           nonuniform 0();
    }
}


// ************************************************************************* //
