/*--------------------------------*- C++ -*----------------------------------*\
| =========                 |                                                 |
| \\      /  F ield         | OpenFOAM: The Open Source CFD Toolbox           |
|  \\    /   O peration     | Version:  2.4.x                                 |
|   \\  /    A nd           | Web:      www.OpenFOAM.org                      |
|    \\/     M anipulation  |                                                 |
\*---------------------------------------------------------------------------*/
FoamFile
{
    version     2.0;
    format      ascii;
    class       volVectorField;
    location    "7.95";
    object      susb;
}
// * * * * * * * * * * * * * * * * * * * * * * * * * * * * * * * * * * * * * //

dimensions      [0 1 -2 0 0 0 0];

internalField   nonuniform List<vector> 
360
(
(0 5.79713e-18 0)
(0 6.50431e-18 0)
(0 6.72565e-20 0)
(0 -9.20659e-19 0)
(-3.69856e-31 -4.21911e-19 0)
(-7.39634e-31 -2.32513e-19 0)
(-3.69773e-31 -2.79899e-19 0)
(0 -3.1615e-19 0)
(-3.69659e-31 -3.22863e-19 0)
(0 -3.27059e-19 0)
(-3.69542e-31 -3.28363e-19 0)
(0 -3.29116e-19 0)
(-7.38848e-31 -3.31242e-19 0)
(0 -3.33542e-19 0)
(0 -3.36984e-19 0)
(0 -3.40532e-19 0)
(0 -3.43173e-19 0)
(-3.6912e-31 -3.45407e-19 0)
(0 -3.49174e-19 0)
(0 -3.51556e-19 0)
(0 -3.54099e-19 0)
(-7.37736e-31 -3.58155e-19 0)
(0 -3.60896e-19 0)
(0 -3.64208e-19 0)
(0 -3.67622e-19 0)
(-3.68607e-31 -3.70258e-19 0)
(0 -3.74202e-19 0)
(0 -3.7834e-19 0)
(0 -3.81089e-19 0)
(0 -3.84412e-19 0)
(0 -3.89415e-19 0)
(0 -3.91702e-19 0)
(0 -3.96328e-19 0)
(0 -4.01055e-19 0)
(0 -4.03761e-19 0)
(3.6791e-31 -4.07993e-19 0)
(0 -4.12001e-19 0)
(0 -4.18334e-19 0)
(0 -4.1991e-19 0)
(0 -4.24851e-19 0)
(0 -4.31839e-19 0)
(0 -4.32709e-19 0)
(7.34759e-31 -4.38991e-19 0)
(0 -4.44724e-19 0)
(0 -4.48071e-19 0)
(0 -4.54907e-19 0)
(0 -4.5732e-19 0)
(0 -4.61553e-19 0)
(0 -4.71241e-19 0)
(0 -4.74184e-19 0)
(3.66722e-31 -4.78123e-19 0)
(0 -4.85284e-19 0)
(0 -4.90977e-19 0)
(0 -4.95378e-19 0)
(0 -5.02485e-19 0)
(0 -5.08184e-19 0)
(0 -5.1347e-19 0)
(0 -5.2137e-19 0)
(0 -5.2411e-19 0)
(0 -5.3314e-19 0)
(0 -5.40167e-19 0)
(0 -5.45925e-19 0)
(0 -5.54163e-19 0)
(0 -5.60064e-19 0)
(0 -5.66941e-19 0)
(0 -5.74459e-19 0)
(0 -5.83181e-19 0)
(0 -5.90169e-19 0)
(0 -5.95585e-19 0)
(0 -6.05273e-19 0)
(0 -6.17053e-19 0)
(0 -6.21761e-19 0)
(0 -6.30265e-19 0)
(0 -6.41448e-19 0)
(0 -6.5093e-19 0)
(0 -6.59736e-19 0)
(0 -6.67489e-19 0)
(0 -6.78418e-19 0)
(0 -6.89216e-19 0)
(0 -6.98799e-19 0)
(0 -7.09385e-19 0)
(0 -7.21577e-19 0)
(0 -7.33131e-19 0)
(0 -7.45048e-19 0)
(0 -7.57303e-19 0)
(0 -7.6996e-19 0)
(0 -7.82704e-19 0)
(0 -7.95369e-19 0)
(0 -8.09041e-19 0)
(0 -8.23252e-19 0)
(0 -8.37737e-19 0)
(0 -8.53095e-19 0)
(0 -8.69195e-19 0)
(0 -8.85633e-19 0)
(0 -9.02593e-19 0)
(0 -9.20086e-19 0)
(0 -9.38069e-19 0)
(0 -9.56622e-19 0)
(0 -9.75895e-19 0)
(0 -9.95925e-19 0)
(0 -1.01675e-18 0)
(0 -1.03845e-18 0)
(0 -1.06106e-18 0)
(0 -1.08456e-18 0)
(0 -1.10899e-18 0)
(0 -1.13443e-18 0)
(0 -1.16091e-18 0)
(0 -1.1885e-18 0)
(0 -1.21728e-18 0)
(0 -1.2473e-18 0)
(0 -1.2786e-18 0)
(0 -1.31126e-18 0)
(0 -1.34533e-18 0)
(0 -1.38087e-18 0)
(0 -1.41795e-18 0)
(0 -1.45665e-18 0)
(0 -1.49707e-18 0)
(0 -1.53933e-18 0)
(0 -1.58357e-18 0)
(0 -1.62996e-18 0)
(0 -1.67868e-18 0)
(0 -1.72994e-18 0)
(0 -1.78395e-18 0)
(0 -1.84102e-18 0)
(0 -1.90167e-18 0)
(0 -1.96682e-18 0)
(0 -2.0377e-18 0)
(0 -2.11546e-18 0)
(0 -2.20023e-18 0)
(0 -2.29051e-18 0)
(0 -2.38467e-18 0)
(0 -2.48602e-18 0)
(0 -2.60578e-18 0)
(0 -2.75136e-18 0)
(0 -3.2072e-18 0)
(0 -6.50415e-18 0)
(0 -1.02741e-17 0)
(0 -1.23797e-17 0)
(0 -6.19091e-17 0)
(0 -8.6396e-16 0)
(0 -1.32674e-14 0)
(0 -2.42205e-13 0)
(0 -5.80236e-12 0)
(0 -1.61679e-10 0)
(0 -6.70307e-09 0)
(0 -3.27371e-07 0)
(0 -1.27224e-05 0)
(0 -0.0131577 0)
(0 -1.02997 0)
(0 -2.5624 0)
(0 -1.30692 0)
(0 -0.826344 0)
(0 -0.642292 0)
(0 -0.51199 0)
(0 -0.398897 0)
(0 -0.301013 0)
(0 -0.220482 0)
(0 -0.157542 0)
(0 -0.110728 0)
(0 -0.0772591 0)
(0 -0.0537711 0)
(0 -0.0373743 0)
(0 -0.0261961 0)
(0 -0.0189069 0)
(0 -0.0142622 0)
(0 -0.0112328 0)
(0 -0.00915539 0)
(0 -0.00765734 0)
(0 -0.00653117 0)
(0 -0.00565618 0)
(0 -0.00495833 0)
(0 -0.00439001 0)
(0 -0.00391923 0)
(0 -0.00352368 0)
(0 -0.0031873 0)
(0 -0.00289822 0)
(0 -0.00264746 0)
(0 -0.00242811 0)
(0 -0.00223478 0)
(0 -0.00206319 0)
(0 -0.00190994 0)
(0 -0.00177228 0)
(0 -0.00164797 0)
(0 -0.0015352 0)
(0 -0.00143248 0)
(0 -0.00133856 0)
(0 -0.0012524 0)
(0 -0.00117311 0)
(0 -0.00109995 0)
(0 -0.00103228 0)
(0 -0.00096956 0)
(0 -0.000911362 0)
(0 -0.000857334 0)
(0 -0.000807174 0)
(0 -0.000760619 0)
(0 -0.000717438 0)
(0 -0.000677415 0)
(0 -0.000640309 0)
(0 -0.000605782 0)
(0 -0.000573401 0)
(0 -0.000542743 0)
(0 -0.00051323 0)
(-3.25699e-19 -0.00048447 0)
(0 -0.000456285 0)
(0 -0.000428353 0)
(1.52218e-19 -0.000400384 0)
(0 -0.000372225 0)
(-1.44634e-19 -0.000343878 0)
(0 -0.000315456 0)
(1.3668e-19 -0.000287115 0)
(0 -0.000259052 0)
(0 -0.000231434 0)
(0 -0.000204527 0)
(5.98816e-20 -0.000179007 0)
(0 -0.000155323 0)
(0 -0.00013336 0)
(0 -0.000113259 0)
(0 -9.54562e-05 0)
(0 -7.98971e-05 0)
(-2.30308e-20 -6.62801e-05 0)
(0 -5.43852e-05 0)
(-2.05528e-20 -4.41921e-05 0)
(0 -3.56699e-05 0)
(-8.95025e-21 -2.84097e-05 0)
(0 -2.21726e-05 0)
(0 -1.70175e-05 0)
(0 -1.51018e-05 0)
(0 -1.30973e-05 0)
(0 -1.12007e-05 0)
(4.08498e-21 -9.46103e-06 0)
(0 -7.94431e-06 0)
(0 -6.47647e-06 0)
(0 -5.14104e-06 0)
(0 -4.20306e-06 0)
(0 -4.38201e-06 0)
(0 -3.94246e-06 0)
(0 -2.19778e-06 0)
(0 -1.15915e-06 0)
(0 -9.4583e-07 0)
(0 -6.75993e-07 0)
(0 -4.92434e-07 0)
(0 -3.38811e-07 0)
(0 -2.35414e-07 0)
(-1.15252e-33 -9.19978e-08 0)
(1.71803e-44 -3.9904e-18 0)
(0 -6.25231e-29 0)
(0 -3.54976e-39 0)
(-3.89835e-55 -1.18409e-39 0)
(0 -6.10835e-40 0)
(0 -4.71831e-40 0)
(-7.22049e-56 -4.45519e-40 0)
(0 -2.91038e-40 0)
(0 -1.08245e-40 0)
(0 -3.89565e-41 0)
(0 -1.65128e-41 0)
(0 -8.11893e-42 0)
(0 -5.13774e-42 0)
(0 -2.93265e-42 0)
(0 -1.09512e-42 0)
(0 -3.70421e-43 0)
(0 -1.31517e-43 0)
(0 -4.26645e-44 0)
(0 -7.26499e-45 0)
(0 -2.69031e-46 0)
(0 -3.35315e-48 0)
(0 -3.51174e-50 0)
(8.64585e-68 -3.46535e-52 0)
(0 -3.21546e-54 0)
(0 -2.79516e-56 0)
(0 -2.26465e-58 0)
(0 -1.50933e-60 0)
(0 -4.66664e-63 0)
(0 -1.1158e-63 0)
(0 -4.80842e-64 0)
(0 -2.02927e-64 0)
(0 -8.38073e-65 0)
(0 -3.38444e-65 0)
(0 -1.33535e-65 0)
(0 -5.14314e-66 0)
(0 -1.93186e-66 0)
(0 -7.06984e-67 0)
(0 -2.51806e-67 0)
(0 -8.71872e-68 0)
(0 -2.93116e-68 0)
(0 -9.55562e-69 0)
(0 -3.01645e-69 0)
(1.44941e-85 -9.20642e-70 0)
(0 -2.7122e-70 0)
(0 -7.69856e-71 0)
(0 -2.10135e-71 0)
(0 -5.50367e-72 0)
(0 -1.37988e-72 0)
(0 -3.30309e-73 0)
(0 -7.52699e-74 0)
(0 -1.6275e-74 0)
(0 -3.32672e-75 0)
(0 -6.40151e-76 0)
(0 -1.15407e-76 0)
(0 -1.93842e-77 0)
(-2.07909e-94 -3.01369e-78 0)
(0 -4.30349e-79 0)
(0 -5.59187e-80 0)
(0 -6.53601e-81 0)
(0 -6.77309e-82 0)
(0 -6.10633e-83 0)
(0 -4.66854e-84 0)
(0 -2.91786e-85 0)
(0 -1.40815e-86 0)
(0 -4.74157e-88 0)
(0 -8.82481e-90 0)
(0 -2.47413e-92 0)
(0 -3.62709e-97 0)
(0 -3.05486e-99 0)
(0 -1.27561e-101 0)
(0 -4.47537e-112 0)
(0 -7.84872e-123 0)
(0 -9.97459e-134 0)
(0 -9.11716e-145 0)
(0 -7.13777e-156 0)
(0 -4.2393e-167 0)
(0 -2.17222e-178 0)
(0 -1.50932e-188 0)
(0 -6.52613e-199 0)
(0 -4.92339e-207 0)
(0 -1.9307e-217 0)
(0 -1.69344e-225 0)
(0 -7.79575e-236 0)
(0 -5.8271e-244 0)
(0 -3.29026e-254 0)
(0 -2.00672e-262 0)
(0 -2.09602e-272 0)
(0 -7.02978e-281 0)
(0 -1.38302e-290 0)
(0 -2.5236e-299 0)
(0 -6.84005e-309 0)
(0 -9.26135e-318 0)
(0 -0 0)
(0 -0 0)
(0 0 0)
(0 0 0)
(0 0 0)
(0 0 0)
(0 0 0)
(0 0 0)
(0 0 0)
(0 0 0)
(0 0 0)
(0 0 0)
(0 0 0)
(0 0 0)
(0 0 0)
(0 0 0)
(0 0 0)
(0 0 0)
(0 0 0)
(0 0 0)
(0 0 0)
(0 0 0)
(0 0 0)
(0 0 0)
)
;

boundaryField
{
    inandouthalf11
    {
        type            cyclic;
    }
    inandouthalf12
    {
        type            cyclic;
    }
    inandouthalf21
    {
        type            cyclic;
    }
    inandouthalf22
    {
        type            cyclic;
    }
    inandouthalf31
    {
        type            cyclic;
    }
    inandouthalf32
    {
        type            cyclic;
    }
    inandouthalf41
    {
        type            cyclic;
    }
    inandouthalf42
    {
        type            cyclic;
    }
    top
    {
        type            symmetryPlane;
    }
    walls
    {
        type            zeroGradient;
    }
    frontAndBackPlanes
    {
        type            empty;
    }
}


// ************************************************************************* //
