/*--------------------------------*- C++ -*----------------------------------*\
| =========                 |                                                 |
| \\      /  F ield         | OpenFOAM: The Open Source CFD Toolbox           |
|  \\    /   O peration     | Version:  2.4.x                                 |
|   \\  /    A nd           | Web:      www.OpenFOAM.org                      |
|    \\/     M anipulation  |                                                 |
\*---------------------------------------------------------------------------*/
FoamFile
{
    version     2.0;
    format      ascii;
    class       volScalarField;
    location    "7.95";
    object      Theta;
}
// * * * * * * * * * * * * * * * * * * * * * * * * * * * * * * * * * * * * * //

dimensions      [0 2 -2 0 0 0 0];

internalField   nonuniform List<scalar> 
360
(
6.66226e-21
6.66428e-21
6.66342e-21
6.66325e-21
6.66344e-21
6.66355e-21
6.66356e-21
6.66354e-21
6.66353e-21
6.66352e-21
6.6635e-21
6.66349e-21
6.66347e-21
6.66344e-21
6.66342e-21
6.6634e-21
6.66338e-21
6.66335e-21
6.66333e-21
6.66331e-21
6.66329e-21
6.66328e-21
6.66326e-21
6.66325e-21
6.66323e-21
6.66322e-21
6.66321e-21
6.6632e-21
6.66319e-21
6.66318e-21
6.66317e-21
6.66317e-21
6.66316e-21
6.66316e-21
6.66315e-21
6.66315e-21
6.66315e-21
6.66315e-21
6.66315e-21
6.66314e-21
6.66314e-21
6.66314e-21
6.66314e-21
6.66314e-21
6.66314e-21
6.66314e-21
6.66314e-21
6.66314e-21
6.66314e-21
6.66314e-21
6.66314e-21
6.66313e-21
6.66313e-21
6.66313e-21
6.66312e-21
6.66312e-21
6.66311e-21
6.66311e-21
6.6631e-21
6.66309e-21
6.66308e-21
6.66307e-21
6.66306e-21
6.66305e-21
6.66304e-21
6.66303e-21
6.66301e-21
6.66299e-21
6.66298e-21
6.66296e-21
6.66294e-21
6.66292e-21
6.6629e-21
6.66288e-21
6.66286e-21
6.66284e-21
6.66282e-21
6.66279e-21
6.66277e-21
6.66274e-21
6.66272e-21
6.66269e-21
6.66266e-21
6.66264e-21
6.66261e-21
6.66259e-21
6.66256e-21
6.66253e-21
6.66251e-21
6.66248e-21
6.66245e-21
6.66242e-21
6.66239e-21
6.66236e-21
6.66233e-21
6.6623e-21
6.66227e-21
6.66225e-21
6.66222e-21
6.66219e-21
6.66216e-21
6.66214e-21
6.66211e-21
6.66208e-21
6.66205e-21
6.66203e-21
6.662e-21
6.66197e-21
6.66195e-21
6.66193e-21
6.6619e-21
6.66188e-21
6.66186e-21
6.66185e-21
6.66183e-21
6.66182e-21
6.66181e-21
6.6618e-21
6.66179e-21
6.66179e-21
6.66178e-21
6.66178e-21
6.66178e-21
6.66178e-21
6.66178e-21
6.66177e-21
6.66176e-21
6.66174e-21
6.66172e-21
6.66169e-21
6.66165e-21
6.66161e-21
6.66157e-21
6.66153e-21
7.71568e-21
1.67438e-20
3.33838e-20
7.14129e-20
4.9228e-19
7.44516e-18
1.33462e-16
2.70649e-15
6.27211e-14
1.68242e-12
5.40446e-11
4.51989e-09
6.61704e-07
2.37845e-05
0.000355058
0.00189554
0.00336945
0.00392527
0.0040962
0.0040765
0.00394125
0.00372947
0.00347918
0.00322454
0.00299229
0.00279656
0.00263935
0.00251549
0.00241806
0.00234115
0.00228027
0.00223212
0.0021942
0.00216457
0.00214167
0.00212426
0.00211132
0.00210199
0.00209555
0.00209141
0.00208903
0.00208799
0.00208789
0.00208842
0.00208929
0.00209027
0.00209113
0.00209172
0.00209187
0.00209146
0.00209038
0.00208854
0.00208586
0.0020823
0.00207779
0.00207232
0.00206584
0.00205836
0.00204985
0.00204032
0.00202979
0.00201825
0.00200573
0.00199224
0.00197783
0.00196251
0.00194631
0.00192911
0.00191071
0.0018911
0.00187025
0.00184815
0.00182478
0.00180011
0.00177412
0.0017468
0.00171813
0.00168807
0.0016566
0.00162369
0.00158931
0.00155341
0.00151595
0.00147688
0.00143613
0.00139362
0.00134928
0.00130299
0.00125465
0.00120412
0.00115122
0.00109577
0.00103753
0.000976192
0.000911389
0.000842645
0.000769333
0.000690597
0.000605196
0.000511192
0.000405172
0.00027969
0
0
0
0
0
0
0
0
0
0
0
0
0
0
0
0
0
0
0
0
0
0
0
0
0
0
0
0
0
0
0
0
0
0
0
0
0
0
0
0
0
0
0
0
0
0
0
0
0
0
0
0
0
0
0
0
0
0
0
0
0
0
0
0
0
0
0
0
0
0
0
0
0
0
0
0
0
0
0
0
0
0
0
0
0
0
0
0
0
0
0
0
0
0
0
0
0
0
0
0
0
0
0
0
0
0
0
0
0
0
0
0
0
0
0
0
0
0
0
0
0
0
0
0
)
;

boundaryField
{
    inandouthalf11
    {
        type            cyclic;
    }
    inandouthalf12
    {
        type            cyclic;
    }
    inandouthalf21
    {
        type            cyclic;
    }
    inandouthalf22
    {
        type            cyclic;
    }
    inandouthalf31
    {
        type            cyclic;
    }
    inandouthalf32
    {
        type            cyclic;
    }
    inandouthalf41
    {
        type            cyclic;
    }
    inandouthalf42
    {
        type            cyclic;
    }
    top
    {
        type            symmetryPlane;
    }
    walls
    {
        type            zeroGradient;
    }
    frontAndBackPlanes
    {
        type            empty;
    }
}


// ************************************************************************* //
