/*--------------------------------*- C++ -*----------------------------------*\
| =========                 |                                                 |
| \\      /  F ield         | OpenFOAM: The Open Source CFD Toolbox           |
|  \\    /   O peration     | Version:  2.4.x                                 |
|   \\  /    A nd           | Web:      www.OpenFOAM.org                      |
|    \\/     M anipulation  |                                                 |
\*---------------------------------------------------------------------------*/
FoamFile
{
    version     2.0;
    format      ascii;
    class       volVectorField;
    location    "7.95";
    object      U;
}
// * * * * * * * * * * * * * * * * * * * * * * * * * * * * * * * * * * * * * //

dimensions      [0 1 -1 0 0 0 0];

internalField   nonuniform List<vector> 
360
(
(0.000107439 1.30499e-08 0)
(0.000106658 -2.50539e-09 0)
(0.000106563 -2.35499e-09 0)
(0.00010668 1.11432e-10 0)
(0.000106749 5.03652e-10 0)
(0.000106784 1.32029e-10 0)
(0.000106822 -3.66292e-11 0)
(0.000106865 -4.26168e-11 0)
(0.000106909 -3.16625e-11 0)
(0.000106953 -2.96096e-11 0)
(0.000106997 -3.36421e-11 0)
(0.000107041 -4.2052e-11 0)
(0.000107085 -4.90698e-11 0)
(0.000107129 -5.29146e-11 0)
(0.000107173 -5.32911e-11 0)
(0.000107217 -5.17715e-11 0)
(0.000107261 -5.04267e-11 0)
(0.000107306 -4.91872e-11 0)
(0.00010735 -4.79345e-11 0)
(0.000107395 -4.54352e-11 0)
(0.000107439 -4.42925e-11 0)
(0.000107484 -4.08215e-11 0)
(0.000107529 -3.77521e-11 0)
(0.000107574 -3.51861e-11 0)
(0.00010762 -3.24865e-11 0)
(0.000107665 -2.96728e-11 0)
(0.000107711 -2.70585e-11 0)
(0.000107757 -2.3169e-11 0)
(0.000107803 -2.10091e-11 0)
(0.000107849 -1.88258e-11 0)
(0.000107896 -1.69538e-11 0)
(0.000107943 -1.27126e-11 0)
(0.00010799 -1.35777e-11 0)
(0.000108038 -8.04826e-12 0)
(0.000108085 -9.37221e-12 0)
(0.000108133 -6.96322e-12 0)
(0.000108181 -5.95199e-12 0)
(0.00010823 -4.41059e-12 0)
(0.000108279 -1.29002e-12 0)
(0.000108328 -5.50087e-12 0)
(0.000108378 -7.46134e-13 0)
(0.000108428 -1.0737e-12 0)
(0.000108478 -4.57834e-12 0)
(0.000108528 8.74062e-13 0)
(0.000108579 -1.57854e-12 0)
(0.000108631 -2.86448e-12 0)
(0.000108683 -2.06776e-12 0)
(0.000108734 -6.8036e-12 0)
(0.000108787 -4.60112e-12 0)
(0.00010884 -4.62643e-13 0)
(0.000108893 -8.79954e-12 0)
(0.000108947 -6.3852e-12 0)
(0.000109001 -9.50117e-12 0)
(0.000109056 -8.06855e-12 0)
(0.000109111 -1.53028e-11 0)
(0.000109167 -1.03267e-11 0)
(0.000109223 -1.9576e-11 0)
(0.00010928 -1.87027e-11 0)
(0.000109337 -2.13841e-11 0)
(0.000109394 -2.88285e-11 0)
(0.000109452 -2.04122e-11 0)
(0.00010951 -2.87999e-11 0)
(0.00010957 -2.60864e-11 0)
(0.000109629 -3.19568e-11 0)
(0.000109689 -3.42883e-11 0)
(0.00010975 -3.94577e-11 0)
(0.000109811 -4.14048e-11 0)
(0.000109873 -4.53785e-11 0)
(0.000109936 -4.87009e-11 0)
(0.000109998 -5.45462e-11 0)
(0.000110062 -5.0862e-11 0)
(0.000110127 -4.87762e-11 0)
(0.000110192 -6.01912e-11 0)
(0.000110257 -5.40461e-11 0)
(0.000110324 -5.93456e-11 0)
(0.000110391 -5.88923e-11 0)
(0.000110459 -6.79268e-11 0)
(0.000110528 -7.18186e-11 0)
(0.000110597 -7.4245e-11 0)
(0.000110667 -7.57342e-11 0)
(0.000110738 -7.97576e-11 0)
(0.00011081 -7.91288e-11 0)
(0.000110883 -7.83349e-11 0)
(0.000110957 -7.92945e-11 0)
(0.000111032 -7.97861e-11 0)
(0.000111107 -8.25727e-11 0)
(0.000111184 -8.49046e-11 0)
(0.000111262 -8.94365e-11 0)
(0.000111341 -9.37375e-11 0)
(0.000111421 -9.66539e-11 0)
(0.000111502 -9.89471e-11 0)
(0.000111585 -1.00693e-10 0)
(0.000111669 -1.00769e-10 0)
(0.000111754 -1.00724e-10 0)
(0.00011184 -1.00909e-10 0)
(0.000111928 -1.01435e-10 0)
(0.000112018 -1.02508e-10 0)
(0.000112109 -1.04183e-10 0)
(0.000112202 -1.06229e-10 0)
(0.000112296 -1.08298e-10 0)
(0.000112392 -1.10353e-10 0)
(0.00011249 -1.12244e-10 0)
(0.00011259 -1.13821e-10 0)
(0.000112692 -1.15161e-10 0)
(0.000112796 -1.16255e-10 0)
(0.000112902 -1.16993e-10 0)
(0.000113011 -1.17279e-10 0)
(0.000113122 -1.16973e-10 0)
(0.000113235 -1.15903e-10 0)
(0.000113352 -1.13924e-10 0)
(0.000113471 -1.10919e-10 0)
(0.000113592 -1.06792e-10 0)
(0.000113717 -1.01498e-10 0)
(0.000113846 -9.50454e-11 0)
(0.000113977 -8.75125e-11 0)
(0.000114112 -7.90758e-11 0)
(0.000114251 -7.00354e-11 0)
(0.000114394 -6.08394e-11 0)
(0.00011454 -5.21149e-11 0)
(0.000114692 -4.46969e-11 0)
(0.000114847 -3.96276e-11 0)
(0.000115008 -3.81014e-11 0)
(0.000115173 -4.13434e-11 0)
(0.000115344 -5.04105e-11 0)
(0.00011552 -6.59613e-11 0)
(0.000115702 -8.81279e-11 0)
(0.000115891 -1.16613e-10 0)
(0.000116087 -1.50919e-10 0)
(0.000116291 -1.90304e-10 0)
(0.000116504 -2.33273e-10 0)
(0.000116725 -2.77274e-10 0)
(0.000116955 -3.19986e-10 0)
(0.000117196 -3.57653e-10 0)
(0.000117451 -3.75949e-10 0)
(0.00011772 -3.56891e-10 0)
(0.000118005 -3.19936e-10 0)
(0.000118304 -3.21608e-10 0)
(0.000118621 -4.04443e-10 0)
(0.000118973 -5.31132e-10 0)
(0.000119376 -5.04658e-10 0)
(0.000119814 -3.93462e-10 0)
(0.000120237 -1.63097e-09 0)
(0.000120749 -2.15235e-09 0)
(0.000121414 -1.96975e-09 0)
(0.000122249 -8.16236e-09 0)
(0.000123874 1.27515e-07 0)
(0.000126367 -1.74843e-06 0)
(0.000179576 1.28023e-05 0)
(0.024111 -5.82657e-06 0)
(0.139405 -0.000375391 0)
(0.26624 1.5753e-05 0)
(0.361386 -1.63488e-05 0)
(0.437242 -1.01775e-05 0)
(0.499362 -7.08719e-06 0)
(0.551008 -4.84302e-06 0)
(0.594213 -3.12376e-06 0)
(0.630259 -1.77409e-06 0)
(0.659927 -7.6736e-07 0)
(0.683718 -1.43194e-07 0)
(0.702096 1.21883e-07 0)
(0.715707 1.73646e-07 0)
(0.725418 1.70491e-07 0)
(0.732175 1.50905e-07 0)
(0.736815 1.09754e-07 0)
(0.739976 6.71587e-08 0)
(0.742104 3.87303e-08 0)
(0.743498 2.3255e-08 0)
(0.744356 1.49526e-08 0)
(0.744813 1.00958e-08 0)
(0.74496 7.01928e-09 0)
(0.744859 4.99235e-09 0)
(0.744558 3.61408e-09 0)
(0.74409 2.65449e-09 0)
(0.743479 1.97083e-09 0)
(0.742746 1.47447e-09 0)
(0.741906 1.10975e-09 0)
(0.74097 8.38115e-10 0)
(0.73995 6.3267e-10 0)
(0.738853 4.7624e-10 0)
(0.737687 3.56433e-10 0)
(0.736458 2.64171e-10 0)
(0.735171 1.92811e-10 0)
(0.733832 1.37446e-10 0)
(0.732444 9.44186e-11 0)
(0.731011 6.09625e-11 0)
(0.729537 3.49766e-11 0)
(0.728024 1.48506e-11 0)
(0.726477 -6.55145e-13 0)
(0.724898 -1.2505e-11 0)
(0.723289 -2.14579e-11 0)
(0.721653 -2.81174e-11 0)
(0.719991 -3.29604e-11 0)
(0.718307 -3.63546e-11 0)
(0.716602 -3.85798e-11 0)
(0.714877 -3.98608e-11 0)
(0.713135 -4.03964e-11 0)
(0.711378 -4.03444e-11 0)
(0.709606 -3.97985e-11 0)
(0.707822 -3.87849e-11 0)
(0.706027 -3.7335e-11 0)
(0.704222 -3.54846e-11 0)
(0.70239 -3.49799e-11 0)
(0.700512 -3.42311e-11 0)
(0.698588 -3.30257e-11 0)
(0.696618 -3.14281e-11 0)
(0.694602 -2.94663e-11 0)
(0.692539 -2.72236e-11 0)
(0.690428 -2.47075e-11 0)
(0.68827 -2.19736e-11 0)
(0.686065 -1.9097e-11 0)
(0.683813 -1.61564e-11 0)
(0.681513 -1.33476e-11 0)
(0.679166 -1.06268e-11 0)
(0.676772 -7.83604e-12 0)
(0.674332 -5.34672e-12 0)
(0.671846 -3.4561e-12 0)
(0.669314 -1.6064e-12 0)
(0.666738 1.53046e-13 0)
(0.664117 1.37116e-12 0)
(0.661454 2.2262e-12 0)
(0.658749 2.75201e-12 0)
(0.656004 3.38086e-12 0)
(0.653219 3.75397e-12 0)
(0.650397 3.53095e-12 0)
(0.64754 3.54672e-12 0)
(0.64465 3.59142e-12 0)
(0.641728 3.36569e-12 0)
(0.638778 3.09808e-12 0)
(0.635803 2.94193e-12 0)
(0.632805 2.77736e-12 0)
(0.629789 2.93733e-12 0)
(0.626758 2.14004e-12 0)
(0.623717 2.25355e-12 0)
(0.62067 2.34887e-12 0)
(0.617624 6.16396e-12 0)
(0.614584 -2.21128e-12 0)
(0.611556 7.07306e-12 0)
(0.608549 3.65265e-12 0)
(0.605571 -1.09838e-11 0)
(0.60263 1.90267e-11 0)
(0.599738 -1.40388e-11 0)
(0.596906 1.06823e-11 0)
(0.594146 1.18452e-11 0)
(0.591473 1.87973e-11 0)
(0.588902 1.59551e-12 0)
(0.586452 1.24753e-12 0)
(0.584141 2.37981e-12 0)
(0.58199 2.58492e-12 0)
(0.580021 2.44519e-12 0)
(0.578257 2.33107e-12 0)
(0.576722 2.25271e-12 0)
(0.575437 2.12699e-12 0)
(0.574422 1.94588e-12 0)
(0.573691 2.24651e-12 0)
(0.573249 6.35249e-12 0)
(0.573095 -1.69594e-11 0)
(0.573212 4.79923e-11 0)
(0.573576 -8.74516e-11 0)
(0.574148 1.5002e-10 0)
(0.574878 -2.22866e-10 0)
(0.575701 3.16972e-10 0)
(0.576529 -4.18723e-10 0)
(0.577195 5.35602e-10 0)
(0.57741 -6.54293e-10 0)
(0.577426 7.81687e-10 0)
(0.577426 -9.08091e-10 0)
(0.577426 1.04154e-09 0)
(0.577426 -1.17442e-09 0)
(0.577426 1.31416e-09 0)
(0.577426 -1.45392e-09 0)
(0.577426 1.60044e-09 0)
(0.577426 -1.74753e-09 0)
(0.577426 1.9013e-09 0)
(0.577426 -2.05612e-09 0)
(0.577426 2.21757e-09 0)
(0.577426 -2.38048e-09 0)
(0.577426 2.54996e-09 0)
(0.577426 -2.72131e-09 0)
(0.577426 2.89914e-09 0)
(0.577426 -3.07922e-09 0)
(0.577426 3.26569e-09 0)
(0.577426 -3.45476e-09 0)
(0.577426 3.65014e-09 0)
(0.577426 -3.84844e-09 0)
(0.577426 4.05295e-09 0)
(0.577426 -4.26067e-09 0)
(0.577426 4.47451e-09 0)
(0.577426 -4.69187e-09 0)
(0.577426 4.9152e-09 0)
(0.577426 -5.14234e-09 0)
(0.577426 5.37532e-09 0)
(0.577426 -5.61239e-09 0)
(0.577426 5.85514e-09 0)
(0.577426 -6.10226e-09 0)
(0.577426 6.35488e-09 0)
(0.577426 -6.61213e-09 0)
(0.577426 6.87473e-09 0)
(0.577426 -7.14213e-09 0)
(0.577426 7.41484e-09 0)
(0.577426 -7.69239e-09 0)
(0.577426 7.97522e-09 0)
(0.577426 -8.26294e-09 0)
(0.577426 8.55589e-09 0)
(0.577426 -8.85373e-09 0)
(0.577426 9.15674e-09 0)
(0.577426 -9.4646e-09 0)
(0.577426 9.77758e-09 0)
(0.577426 -1.00953e-08 0)
(0.577426 1.04181e-08 0)
(0.577426 -1.07455e-08 0)
(0.577426 9.72565e-09 0)
(0.577426 -9.83741e-09 0)
(0.577426 9.94819e-09 0)
(0.577426 -1.00576e-08 0)
(0.577426 1.0166e-08 0)
(0.577426 -1.0273e-08 0)
(0.577426 1.0379e-08 0)
(0.577426 -1.04835e-08 0)
(0.577426 1.0587e-08 0)
(0.577426 -1.0689e-08 0)
(0.577426 1.079e-08 0)
(0.577426 -1.08894e-08 0)
(0.577426 1.09879e-08 0)
(0.577426 -1.10846e-08 0)
(0.577426 1.11804e-08 0)
(0.577426 -1.12744e-08 0)
(0.577426 1.13675e-08 0)
(0.577426 -1.14586e-08 0)
(0.577426 1.15491e-08 0)
(0.577426 -1.1637e-08 0)
(0.577426 1.17252e-08 0)
(0.577426 -1.18095e-08 0)
(0.577426 1.18953e-08 0)
(0.577426 -1.19759e-08 0)
(0.577426 1.20593e-08 0)
(0.577426 -1.21361e-08 0)
(0.577426 1.22169e-08 0)
(0.577426 -1.22898e-08 0)
(0.577426 1.23679e-08 0)
(0.577426 -1.24367e-08 0)
(0.577426 1.25119e-08 0)
(0.577426 -1.25764e-08 0)
(0.577426 1.26485e-08 0)
(0.577426 -1.27086e-08 0)
(0.577426 1.27774e-08 0)
(0.577426 -1.28327e-08 0)
(0.577426 1.28982e-08 0)
(0.577426 -1.29482e-08 0)
(0.577426 1.301e-08 0)
(0.577426 -1.30545e-08 0)
(0.577426 1.31121e-08 0)
(0.577426 -1.31509e-08 0)
(0.577426 1.32033e-08 0)
(0.577426 -1.32357e-08 0)
(0.577426 1.32823e-08 0)
(0.577426 -1.33075e-08 0)
(0.577426 1.33461e-08 0)
(0.577426 -1.33631e-08 0)
(0.577426 1.33905e-08 0)
(0.577426 -1.33963e-08 0)
)
;

boundaryField
{
    inandouthalf11
    {
        type            cyclic;
    }
    inandouthalf12
    {
        type            cyclic;
    }
    inandouthalf21
    {
        type            cyclic;
    }
    inandouthalf22
    {
        type            cyclic;
    }
    inandouthalf31
    {
        type            cyclic;
    }
    inandouthalf32
    {
        type            cyclic;
    }
    inandouthalf41
    {
        type            cyclic;
    }
    inandouthalf42
    {
        type            cyclic;
    }
    top
    {
        type            symmetryPlane;
    }
    walls
    {
        type            calculated;
        value           uniform (0 0 0);
    }
    frontAndBackPlanes
    {
        type            empty;
    }
}


// ************************************************************************* //
