/*--------------------------------*- C++ -*----------------------------------*\
| =========                 |                                                 |
| \\      /  F ield         | OpenFOAM: The Open Source CFD Toolbox           |
|  \\    /   O peration     | Version:  2.4.x                                 |
|   \\  /    A nd           | Web:      www.OpenFOAM.org                      |
|    \\/     M anipulation  |                                                 |
\*---------------------------------------------------------------------------*/
FoamFile
{
    version     2.0;
    format      ascii;
    class       volVectorField;
    location    "7.95";
    object      Ua_0;
}
// * * * * * * * * * * * * * * * * * * * * * * * * * * * * * * * * * * * * * //

dimensions      [0 1 -1 0 0 0 0];

internalField   nonuniform List<vector> 
360
(
(1.4795e-32 -9.99879e-32 0)
(1.6755e-08 -8.02786e-08 0)
(3.4858e-08 -1.44495e-07 0)
(5.09759e-08 -2.00753e-07 0)
(6.72383e-08 -2.59934e-07 0)
(8.40698e-08 -3.2189e-07 0)
(1.01042e-07 -3.84386e-07 0)
(1.17914e-07 -4.46703e-07 0)
(1.34647e-07 -5.08811e-07 0)
(1.51246e-07 -5.7074e-07 0)
(1.67714e-07 -6.32502e-07 0)
(1.84045e-07 -6.94067e-07 0)
(2.00227e-07 -7.55376e-07 0)
(2.16251e-07 -8.16385e-07 0)
(2.32111e-07 -8.77068e-07 0)
(2.47809e-07 -9.37426e-07 0)
(2.63347e-07 -9.97468e-07 0)
(2.78731e-07 -1.0572e-06 0)
(2.93962e-07 -1.11663e-06 0)
(3.09047e-07 -1.17577e-06 0)
(3.23988e-07 -1.23464e-06 0)
(3.38791e-07 -1.29323e-06 0)
(3.53463e-07 -1.35158e-06 0)
(3.68009e-07 -1.40971e-06 0)
(3.82435e-07 -1.46762e-06 0)
(3.96747e-07 -1.52535e-06 0)
(4.10949e-07 -1.58289e-06 0)
(4.25049e-07 -1.64029e-06 0)
(4.39052e-07 -1.69756e-06 0)
(4.52963e-07 -1.75471e-06 0)
(4.66786e-07 -1.81175e-06 0)
(4.80526e-07 -1.86872e-06 0)
(4.94187e-07 -1.92561e-06 0)
(5.07773e-07 -1.98245e-06 0)
(5.21288e-07 -2.03925e-06 0)
(5.34735e-07 -2.09601e-06 0)
(5.48115e-07 -2.15275e-06 0)
(5.61431e-07 -2.20948e-06 0)
(5.74687e-07 -2.26621e-06 0)
(5.87884e-07 -2.32293e-06 0)
(6.01022e-07 -2.37966e-06 0)
(6.14103e-07 -2.43642e-06 0)
(6.27127e-07 -2.49317e-06 0)
(6.40095e-07 -2.54994e-06 0)
(6.53007e-07 -2.60673e-06 0)
(6.65864e-07 -2.66353e-06 0)
(6.78665e-07 -2.72036e-06 0)
(6.91406e-07 -2.77718e-06 0)
(7.04086e-07 -2.83399e-06 0)
(7.16709e-07 -2.89082e-06 0)
(7.29272e-07 -2.94764e-06 0)
(7.41773e-07 -3.00446e-06 0)
(7.5421e-07 -3.06125e-06 0)
(7.66581e-07 -3.11803e-06 0)
(7.78884e-07 -3.17476e-06 0)
(7.91117e-07 -3.23146e-06 0)
(8.03276e-07 -3.28809e-06 0)
(8.15359e-07 -3.34465e-06 0)
(8.2736e-07 -3.40111e-06 0)
(8.39275e-07 -3.45745e-06 0)
(8.51103e-07 -3.51367e-06 0)
(8.62844e-07 -3.56977e-06 0)
(8.74496e-07 -3.62573e-06 0)
(8.86057e-07 -3.68155e-06 0)
(8.97521e-07 -3.73721e-06 0)
(9.08885e-07 -3.79267e-06 0)
(9.20143e-07 -3.84792e-06 0)
(9.31294e-07 -3.90295e-06 0)
(9.4233e-07 -3.95772e-06 0)
(9.53247e-07 -4.0122e-06 0)
(9.64044e-07 -4.06638e-06 0)
(9.74724e-07 -4.1203e-06 0)
(9.85281e-07 -4.1739e-06 0)
(9.95715e-07 -4.22719e-06 0)
(1.00603e-06 -4.28016e-06 0)
(1.01621e-06 -4.33281e-06 0)
(1.02627e-06 -4.38511e-06 0)
(1.03618e-06 -4.43702e-06 0)
(1.04596e-06 -4.48852e-06 0)
(1.0556e-06 -4.53959e-06 0)
(1.06509e-06 -4.59022e-06 0)
(1.07444e-06 -4.64039e-06 0)
(1.08364e-06 -4.69011e-06 0)
(1.09269e-06 -4.73938e-06 0)
(1.10161e-06 -4.78821e-06 0)
(1.11037e-06 -4.83657e-06 0)
(1.11899e-06 -4.88447e-06 0)
(1.12747e-06 -4.93188e-06 0)
(1.13579e-06 -4.97878e-06 0)
(1.14395e-06 -5.02515e-06 0)
(1.15196e-06 -5.07096e-06 0)
(1.1598e-06 -5.11621e-06 0)
(1.16749e-06 -5.16088e-06 0)
(1.17502e-06 -5.20499e-06 0)
(1.18239e-06 -5.24853e-06 0)
(1.18961e-06 -5.29151e-06 0)
(1.19666e-06 -5.33393e-06 0)
(1.20357e-06 -5.37577e-06 0)
(1.21031e-06 -5.41705e-06 0)
(1.2169e-06 -5.45773e-06 0)
(1.22333e-06 -5.49783e-06 0)
(1.2296e-06 -5.53732e-06 0)
(1.23571e-06 -5.57621e-06 0)
(1.24166e-06 -5.61448e-06 0)
(1.24745e-06 -5.65214e-06 0)
(1.25308e-06 -5.68918e-06 0)
(1.25855e-06 -5.7256e-06 0)
(1.26386e-06 -5.76141e-06 0)
(1.26902e-06 -5.79662e-06 0)
(1.27401e-06 -5.83124e-06 0)
(1.27886e-06 -5.86529e-06 0)
(1.28356e-06 -5.89881e-06 0)
(1.28811e-06 -5.93182e-06 0)
(1.29252e-06 -5.96437e-06 0)
(1.29679e-06 -5.99652e-06 0)
(1.30093e-06 -6.02833e-06 0)
(1.30494e-06 -6.05985e-06 0)
(1.30883e-06 -6.09117e-06 0)
(1.31259e-06 -6.12236e-06 0)
(1.31622e-06 -6.15349e-06 0)
(1.31973e-06 -6.18462e-06 0)
(1.3231e-06 -6.21581e-06 0)
(1.32632e-06 -6.24708e-06 0)
(1.32937e-06 -6.27844e-06 0)
(1.33223e-06 -6.30984e-06 0)
(1.33488e-06 -6.34121e-06 0)
(1.33728e-06 -6.37245e-06 0)
(1.33941e-06 -6.40339e-06 0)
(1.34124e-06 -6.43387e-06 0)
(1.34273e-06 -6.46366e-06 0)
(1.34387e-06 -6.49252e-06 0)
(1.34465e-06 -6.52017e-06 0)
(1.34506e-06 -6.54639e-06 0)
(1.34511e-06 -6.5711e-06 0)
(1.3448e-06 -6.59433e-06 0)
(1.34416e-06 -6.61621e-06 0)
(1.34318e-06 -6.63685e-06 0)
(1.34183e-06 -6.65649e-06 0)
(1.34007e-06 -6.67562e-06 0)
(1.33782e-06 -6.69459e-06 0)
(1.33519e-06 -6.7125e-06 0)
(1.33263e-06 -6.72664e-06 0)
(1.33074e-06 -6.73532e-06 0)
(1.32979e-06 -6.73927e-06 0)
(1.32955e-06 -6.7404e-06 0)
(1.32959e-06 -6.7407e-06 0)
(1.32991e-06 -6.74086e-06 0)
(3.79638e-05 -1.27339e-05 0)
(0.0231839 0.00011449 0)
(0.12754 0.00257548 0)
(0.250891 0.00465405 0)
(0.347014 0.00551224 0)
(0.42328 0.0061719 0)
(0.485049 0.00676546 0)
(0.535488 0.00730497 0)
(0.576546 0.00777404 0)
(0.609517 0.00814863 0)
(0.635411 0.00839308 0)
(0.655215 0.0084552 0)
(0.670009 0.00827562 0)
(0.680912 0.00782432 0)
(0.688938 0.00714172 0)
(0.694884 0.00632755 0)
(0.699308 0.00548434 0)
(0.70259 0.00467792 0)
(0.704989 0.00393715 0)
(0.706688 0.0032696 0)
(0.707823 0.00267366 0)
(0.708493 0.00214432 0)
(0.708778 0.00167568 0)
(0.708739 0.00126187 0)
(0.708427 0.000897453 0)
(0.707883 0.000577503 0)
(0.707141 0.000297588 0)
(0.706229 5.37346e-05 0)
(0.705172 -0.000157617 0)
(0.703992 -0.000339666 0)
(0.702706 -0.000495288 0)
(0.70133 -0.000627074 0)
(0.69988 -0.000737355 0)
(0.698367 -0.00082823 0)
(0.696803 -0.000901589 0)
(0.695197 -0.000959133 0)
(0.69356 -0.00100239 0)
(0.691899 -0.00103274 0)
(0.690222 -0.00105142 0)
(0.688537 -0.00105955 0)
(0.686848 -0.00105813 0)
(0.685164 -0.00104808 0)
(0.683488 -0.00103022 0)
(0.681827 -0.00100531 0)
(0.680185 -0.000974029 0)
(0.678567 -0.000937008 0)
(0.676977 -0.000894839 0)
(0.675419 -0.000848086 0)
(0.673897 -0.000797294 0)
(0.672414 -0.000743005 0)
(0.670975 -0.000685767 0)
(0.669581 -0.000626145 0)
(0.668238 -0.000564719 0)
(0.666946 -0.000502069 0)
(0.665697 -0.000438131 0)
(0.664478 -0.000372857 0)
(0.663291 -0.000306883 0)
(0.662136 -0.000240902 0)
(0.661013 -0.000175641 0)
(0.659922 -0.000111829 0)
(0.658864 -5.01754e-05 0)
(0.657839 8.65595e-06 0)
(0.656846 6.40556e-05 0)
(0.655884 0.000115487 0)
(0.654954 0.000162499 0)
(0.654052 0.000204764 0)
(0.65318 0.00024211 0)
(0.652335 0.000274457 0)
(0.651515 0.000301762 0)
(0.65072 0.000324104 0)
(0.649948 0.000341712 0)
(0.649198 0.000354841 0)
(0.648468 0.000363754 0)
(0.647757 0.000368817 0)
(0.647064 0.000370641 0)
(0.646388 0.000370093 0)
(0.64573 0.000368231 0)
(0.645087 0.000366699 0)
(0.644462 0.000368251 0)
(0.643853 0.000375272 0)
(0.643262 0.000388192 0)
(0.64269 0.000406688 0)
(0.642139 0.000430704 0)
(0.641614 0.000460523 0)
(0.641119 0.000496215 0)
(0.640665 0.000539844 0)
(0.640268 0.000595976 0)
(0.639949 0.000672601 0)
(0.639713 0.000743394 0)
(0.639478 0.000783753 0)
(0.600685 0.000747746 0)
(0.597557 0.000658183 0)
(0.594634 0.00154931 0)
(0.591726 0.000474856 0)
(0.588943 0.00229466 0)
(0.58608 0.00120115 0)
(0.584795 -0.0276614 0)
(0.582911 -0.0396188 0)
(0.58025 -0.0395559 0)
(0.578015 -0.0395584 0)
(0.575916 -0.0395539 0)
(0.574006 -0.0395494 0)
(0.572306 -0.0395442 0)
(0.570838 -0.0395386 0)
(0.569624 -0.0395325 0)
(0.56868 -0.0395262 0)
(0.56801 -0.0395196 0)
(0.567662 -0.0395144 0)
(0.567569 -0.0395092 0)
(0.567739 -0.0395039 0)
(0.568151 -0.0394998 0)
(0.568761 -0.0394963 0)
(0.569515 -0.0394933 0)
(0.570346 -0.0394901 0)
(0.571173 -0.0394856 0)
(0.571752 -0.0394771 0)
(0.571916 -0.0394711 0)
(0.571928 -0.0394697 0)
(0.571928 -0.0394696 0)
(0.571928 -0.0394696 0)
(0.571928 -0.0394696 0)
(0.571928 -0.0394696 0)
(0.571928 -0.0394696 0)
(0.571928 -0.0394696 0)
(0.571928 -0.0394696 0)
(0.571928 -0.0394696 0)
(0.571928 -0.0394696 0)
(0.571928 -0.0394696 0)
(0.571928 -0.0394696 0)
(0.571928 -0.0394696 0)
(0.571928 -0.0394696 0)
(0.571928 -0.0394696 0)
(0.571928 -0.0394696 0)
(0.571928 -0.0394696 0)
(0.571928 -0.0394696 0)
(0.571928 -0.0394696 0)
(0.571928 -0.0394696 0)
(0.571928 -0.0394696 0)
(0.571928 -0.0394696 0)
(0.571928 -0.0394696 0)
(0.571928 -0.0394696 0)
(0.571928 -0.0394696 0)
(0.571928 -0.0394696 0)
(0.571928 -0.0394696 0)
(0.571928 -0.0394696 0)
(0.571928 -0.0394696 0)
(0.571928 -0.0394696 0)
(0.571928 -0.0394696 0)
(0.571928 -0.0394696 0)
(0.571928 -0.0394696 0)
(0.571928 -0.0394696 0)
(0.571928 -0.0394696 0)
(0.571928 -0.0394696 0)
(0.571928 -0.0394696 0)
(0.571928 -0.0394696 0)
(0.571928 -0.0394696 0)
(0.571928 -0.0394696 0)
(0.571928 -0.0394696 0)
(0.571928 -0.0394696 0)
(0.571928 -0.0394696 0)
(0.571928 -0.0394696 0)
(0.571928 -0.0394696 0)
(0.571928 -0.0394696 0)
(0.571928 -0.0394696 0)
(0.571928 -0.0394696 0)
(0.571928 -0.0394696 0)
(0.571928 -0.0394696 0)
(0.571928 -0.0394696 0)
(0.571928 -0.0394696 0)
(0.571928 -0.0394696 0)
(0.571928 -0.0394696 0)
(0.571928 -0.0394696 0)
(0.571928 -0.0394696 0)
(0.571928 -0.0394696 0)
(0.571928 -0.0394696 0)
(0.571928 -0.0394696 0)
(0.571928 -0.0394696 0)
(0.571928 -0.0394696 0)
(0.571928 -0.0394696 0)
(0.571928 -0.0394696 0)
(0.571928 -0.0394696 0)
(0.571928 -0.0394696 0)
(0.571928 -0.0394696 0)
(0.571928 -0.0394696 0)
(0.571928 -0.0394696 0)
(0.571928 -0.0394696 0)
(0.571928 -0.0394696 0)
(0.571928 -0.0394696 0)
(0.571928 -0.0394696 0)
(0.571928 -0.0394696 0)
(0.571928 -0.0394696 0)
(0.571928 -0.0394696 0)
(0.571928 -0.0394696 0)
(0.571928 -0.0394696 0)
(0.571928 -0.0394696 0)
(0.571928 -0.0394696 0)
(0.571928 -0.0394696 0)
(0.571928 -0.0394696 0)
(0.571928 -0.0394696 0)
(0.571928 -0.0394696 0)
(0.571928 -0.0394696 0)
(0.571928 -0.0394696 0)
(0.571928 -0.0394696 0)
(0.571928 -0.0394696 0)
(0.571928 -0.0394696 0)
(0.571928 -0.0394696 0)
(0.571928 -0.0394696 0)
(0.571928 -0.0394696 0)
(0.571928 -0.0394696 0)
(0.571928 -0.0394693 0)
(0.571927 -0.0394608 0)
(0.571891 -0.0391146 0)
(0.57107 -0.0223435 0)
)
;

boundaryField
{
    inandouthalf11
    {
        type            cyclic;
    }
    inandouthalf12
    {
        type            cyclic;
    }
    inandouthalf21
    {
        type            cyclic;
    }
    inandouthalf22
    {
        type            cyclic;
    }
    inandouthalf31
    {
        type            cyclic;
    }
    inandouthalf32
    {
        type            cyclic;
    }
    inandouthalf41
    {
        type            cyclic;
    }
    inandouthalf42
    {
        type            cyclic;
    }
    top
    {
        type            symmetryPlane;
    }
    walls
    {
        type            fixedValue;
        value           uniform (0 0 0);
    }
    frontAndBackPlanes
    {
        type            empty;
    }
}


// ************************************************************************* //
