/*--------------------------------*- C++ -*----------------------------------*\
| =========                 |                                                 |
| \\      /  F ield         | OpenFOAM: The Open Source CFD Toolbox           |
|  \\    /   O peration     | Version:  2.4.x                                 |
|   \\  /    A nd           | Web:      www.OpenFOAM.org                      |
|    \\/     M anipulation  |                                                 |
\*---------------------------------------------------------------------------*/
FoamFile
{
    version     2.0;
    format      ascii;
    class       volVectorField;
    location    "7.95";
    object      Ub;
}
// * * * * * * * * * * * * * * * * * * * * * * * * * * * * * * * * * * * * * //

dimensions      [0 1 -1 0 0 0 0];

internalField   nonuniform List<vector> 
360
(
(0.000276072 3.35324e-08 0)
(0.000274625 1.19981e-07 0)
(0.00027442 2.21594e-07 0)
(0.000274636 3.16471e-07 0)
(0.000274756 4.10616e-07 0)
(0.000274809 5.07189e-07 0)
(0.000274867 6.05119e-07 0)
(0.000274935 7.03156e-07 0)
(0.000275005 8.00888e-07 0)
(0.000275076 8.98295e-07 0)
(0.000275147 9.95405e-07 0)
(0.000275217 1.09217e-06 0)
(0.000275288 1.18852e-06 0)
(0.000275359 1.28439e-06 0)
(0.000275431 1.37973e-06 0)
(0.000275503 1.47454e-06 0)
(0.000275575 1.56884e-06 0)
(0.000275647 1.66263e-06 0)
(0.00027572 1.75592e-06 0)
(0.000275794 1.84874e-06 0)
(0.000275867 1.94109e-06 0)
(0.000275941 2.03301e-06 0)
(0.000276016 2.12452e-06 0)
(0.000276091 2.21565e-06 0)
(0.000276166 2.30643e-06 0)
(0.000276242 2.39689e-06 0)
(0.000276318 2.48705e-06 0)
(0.000276395 2.57695e-06 0)
(0.000276472 2.66661e-06 0)
(0.00027655 2.75607e-06 0)
(0.000276628 2.84535e-06 0)
(0.000276707 2.93447e-06 0)
(0.000276786 3.02345e-06 0)
(0.000276867 3.11232e-06 0)
(0.000276947 3.2011e-06 0)
(0.000277029 3.28981e-06 0)
(0.000277111 3.37844e-06 0)
(0.000277193 3.46703e-06 0)
(0.000277277 3.5556e-06 0)
(0.00027736 3.64412e-06 0)
(0.000277446 3.73264e-06 0)
(0.000277531 3.82115e-06 0)
(0.000277617 3.90964e-06 0)
(0.000277705 3.99813e-06 0)
(0.000277792 4.08661e-06 0)
(0.000277881 4.17509e-06 0)
(0.000277971 4.26356e-06 0)
(0.00027806 4.352e-06 0)
(0.000278151 4.4404e-06 0)
(0.000278244 4.52879e-06 0)
(0.000278336 4.61713e-06 0)
(0.00027843 4.70543e-06 0)
(0.000278524 4.79366e-06 0)
(0.00027862 4.88183e-06 0)
(0.000278716 4.96989e-06 0)
(0.000278814 5.05787e-06 0)
(0.000278912 5.14569e-06 0)
(0.000279012 5.23337e-06 0)
(0.000279112 5.32086e-06 0)
(0.000279213 5.40812e-06 0)
(0.000279317 5.49517e-06 0)
(0.00027942 5.58196e-06 0)
(0.000279525 5.66852e-06 0)
(0.000279631 5.7548e-06 0)
(0.000279738 5.84078e-06 0)
(0.000279846 5.92642e-06 0)
(0.000279955 6.01169e-06 0)
(0.000280066 6.09656e-06 0)
(0.000280178 6.18098e-06 0)
(0.000280291 6.26491e-06 0)
(0.000280406 6.34834e-06 0)
(0.000280522 6.43129e-06 0)
(0.000280639 6.51369e-06 0)
(0.000280758 6.59558e-06 0)
(0.000280878 6.6769e-06 0)
(0.000281001 6.75768e-06 0)
(0.000281124 6.83784e-06 0)
(0.000281249 6.91735e-06 0)
(0.000281376 6.99617e-06 0)
(0.000281504 7.07427e-06 0)
(0.000281634 7.15162e-06 0)
(0.000281766 7.22821e-06 0)
(0.000281901 7.30403e-06 0)
(0.000282036 7.37909e-06 0)
(0.000282175 7.45338e-06 0)
(0.000282315 7.5269e-06 0)
(0.000282457 7.59963e-06 0)
(0.000282601 7.67153e-06 0)
(0.000282748 7.74257e-06 0)
(0.000282897 7.81271e-06 0)
(0.000283048 7.88192e-06 0)
(0.000283202 7.95018e-06 0)
(0.000283359 8.01748e-06 0)
(0.000283518 8.08383e-06 0)
(0.000283681 8.14921e-06 0)
(0.000283846 8.21364e-06 0)
(0.000284014 8.27711e-06 0)
(0.000284186 8.33961e-06 0)
(0.000284361 8.40114e-06 0)
(0.000284539 8.46166e-06 0)
(0.000284721 8.52118e-06 0)
(0.000284907 8.57967e-06 0)
(0.000285096 8.63713e-06 0)
(0.00028529 8.69353e-06 0)
(0.000285487 8.74887e-06 0)
(0.00028569 8.80315e-06 0)
(0.000285897 8.85637e-06 0)
(0.000286108 8.90853e-06 0)
(0.000286325 8.95964e-06 0)
(0.000286547 9.00973e-06 0)
(0.000286775 9.05881e-06 0)
(0.000287008 9.10693e-06 0)
(0.000287248 9.15415e-06 0)
(0.000287494 9.20052e-06 0)
(0.000287746 9.24612e-06 0)
(0.000288005 9.29103e-06 0)
(0.000288272 9.33537e-06 0)
(0.000288547 9.37921e-06 0)
(0.000288829 9.42269e-06 0)
(0.00028912 9.46588e-06 0)
(0.00028942 9.50889e-06 0)
(0.000289729 9.55178e-06 0)
(0.000290048 9.59457e-06 0)
(0.000290377 9.63726e-06 0)
(0.000290717 9.67978e-06 0)
(0.00029107 9.72198e-06 0)
(0.000291435 9.76369e-06 0)
(0.000291814 9.80464e-06 0)
(0.000292208 9.84456e-06 0)
(0.000292619 9.88309e-06 0)
(0.000293047 9.91983e-06 0)
(0.000293494 9.95436e-06 0)
(0.000293961 9.98632e-06 0)
(0.000294454 1.00155e-05 0)
(0.000294977 1.0042e-05 0)
(0.00029553 1.0066e-05 0)
(0.000296109 1.00874e-05 0)
(0.000296724 1.01065e-05 0)
(0.000297406 1.01235e-05 0)
(0.000298188 1.01389e-05 0)
(0.000299036 1.01518e-05 0)
(0.000299855 1.01561e-05 0)
(0.000300844 1.0151e-05 0)
(0.000302126 1.01357e-05 0)
(0.000303734 1.00949e-05 0)
(0.000306856 1.03818e-05 0)
(0.000311643 5.64809e-06 0)
(0.000388697 5.02683e-05 0)
(0.0250239 -0.000131449 0)
(0.143879 -0.00149957 0)
(0.269693 -0.00103353 0)
(0.363672 -0.000900323 0)
(0.438846 -0.000724631 0)
(0.500533 -0.000564564 0)
(0.551889 -0.000422306 0)
(0.594888 -0.000302407 0)
(0.630778 -0.000207109 0)
(0.66032 -0.000135817 0)
(0.684004 -8.558e-05 0)
(0.702298 -5.21741e-05 0)
(0.715846 -3.11693e-05 0)
(0.725514 -1.86287e-05 0)
(0.732243 -1.14082e-05 0)
(0.736866 -7.26118e-06 0)
(0.740015 -4.79371e-06 0)
(0.742135 -3.24709e-06 0)
(0.743523 -2.23218e-06 0)
(0.744377 -1.54335e-06 0)
(0.744831 -1.06412e-06 0)
(0.744975 -7.24448e-07 0)
(0.744873 -4.8041e-07 0)
(0.74457 -3.03538e-07 0)
(0.744101 -1.74794e-07 0)
(0.743489 -8.10968e-08 0)
(0.742755 -1.32497e-08 0)
(0.741914 3.53459e-08 0)
(0.740978 6.95003e-08 0)
(0.739957 9.27716e-08 0)
(0.73886 1.07825e-07 0)
(0.737693 1.16674e-07 0)
(0.736464 1.20855e-07 0)
(0.735177 1.21544e-07 0)
(0.733837 1.19649e-07 0)
(0.732448 1.1587e-07 0)
(0.731015 1.10751e-07 0)
(0.729541 1.04714e-07 0)
(0.728028 9.80838e-08 0)
(0.726481 9.11133e-08 0)
(0.724901 8.39967e-08 0)
(0.723292 7.68826e-08 0)
(0.721655 6.98839e-08 0)
(0.719994 6.30849e-08 0)
(0.718309 5.65478e-08 0)
(0.716604 5.03176e-08 0)
(0.714879 4.44257e-08 0)
(0.713137 3.88936e-08 0)
(0.71138 3.37349e-08 0)
(0.709608 2.89576e-08 0)
(0.707824 2.45654e-08 0)
(0.706028 2.0559e-08 0)
(0.704223 1.69356e-08 0)
(0.702391 1.36562e-08 0)
(0.700513 1.06972e-08 0)
(0.698589 8.06715e-09 0)
(0.696619 5.7699e-09 0)
(0.694603 3.80399e-09 0)
(0.692539 2.16159e-09 0)
(0.690429 8.28138e-10 0)
(0.688271 -2.17258e-10 0)
(0.686066 -1.00082e-09 0)
(0.683813 -1.5529e-09 0)
(0.681513 -1.90664e-09 0)
(0.679166 -2.09662e-09 0)
(0.676772 -2.15714e-09 0)
(0.674332 -2.11967e-09 0)
(0.671846 -2.01183e-09 0)
(0.669314 -1.8578e-09 0)
(0.666738 -1.67756e-09 0)
(0.664117 -1.48598e-09 0)
(0.661454 -1.29411e-09 0)
(0.658749 -1.11036e-09 0)
(0.656004 -9.40831e-10 0)
(0.653219 -7.89091e-10 0)
(0.650397 -6.56811e-10 0)
(0.64754 -5.45055e-10 0)
(0.64465 -4.54319e-10 0)
(0.641728 -3.82689e-10 0)
(0.638778 -3.25746e-10 0)
(0.635803 -2.79355e-10 0)
(0.632805 -2.40724e-10 0)
(0.629789 -2.08019e-10 0)
(0.626758 -1.80299e-10 0)
(0.623717 -1.57892e-10 0)
(0.62067 -1.3992e-10 0)
(0.617624 -1.21766e-10 0)
(0.614584 -9.60002e-11 0)
(0.611556 -6.17275e-11 0)
(0.608549 -4.71211e-11 0)
(0.605571 -4.1215e-11 0)
(0.60263 -3.06326e-11 0)
(0.599738 -2.30377e-11 0)
(0.596906 -1.51106e-11 0)
(0.594146 7.4617e-12 0)
(0.591473 1.87973e-11 0)
(0.588902 1.59551e-12 0)
(0.586452 1.24753e-12 0)
(0.584141 2.37981e-12 0)
(0.58199 2.58492e-12 0)
(0.580021 2.44519e-12 0)
(0.578257 2.33107e-12 0)
(0.576722 2.25271e-12 0)
(0.575437 2.12699e-12 0)
(0.574422 1.94588e-12 0)
(0.573691 2.24651e-12 0)
(0.573249 6.35249e-12 0)
(0.573095 -1.69594e-11 0)
(0.573212 4.79923e-11 0)
(0.573576 -8.74516e-11 0)
(0.574148 1.5002e-10 0)
(0.574878 -2.22866e-10 0)
(0.575701 3.16972e-10 0)
(0.576529 -4.18723e-10 0)
(0.577195 5.35602e-10 0)
(0.57741 -6.54293e-10 0)
(0.577426 7.81687e-10 0)
(0.577426 -9.08091e-10 0)
(0.577426 1.04154e-09 0)
(0.577426 -1.17442e-09 0)
(0.577426 1.31416e-09 0)
(0.577426 -1.45392e-09 0)
(0.577426 1.60044e-09 0)
(0.577426 -1.74753e-09 0)
(0.577426 1.9013e-09 0)
(0.577426 -2.05612e-09 0)
(0.577426 2.21757e-09 0)
(0.577426 -2.38048e-09 0)
(0.577426 2.54996e-09 0)
(0.577426 -2.72131e-09 0)
(0.577426 2.89914e-09 0)
(0.577426 -3.07922e-09 0)
(0.577426 3.26569e-09 0)
(0.577426 -3.45476e-09 0)
(0.577426 3.65014e-09 0)
(0.577426 -3.84844e-09 0)
(0.577426 4.05295e-09 0)
(0.577426 -4.26067e-09 0)
(0.577426 4.47451e-09 0)
(0.577426 -4.69187e-09 0)
(0.577426 4.9152e-09 0)
(0.577426 -5.14234e-09 0)
(0.577426 5.37532e-09 0)
(0.577426 -5.61239e-09 0)
(0.577426 5.85514e-09 0)
(0.577426 -6.10226e-09 0)
(0.577426 6.35488e-09 0)
(0.577426 -6.61213e-09 0)
(0.577426 6.87473e-09 0)
(0.577426 -7.14213e-09 0)
(0.577426 7.41484e-09 0)
(0.577426 -7.69239e-09 0)
(0.577426 7.97522e-09 0)
(0.577426 -8.26294e-09 0)
(0.577426 8.55589e-09 0)
(0.577426 -8.85373e-09 0)
(0.577426 9.15674e-09 0)
(0.577426 -9.4646e-09 0)
(0.577426 9.77758e-09 0)
(0.577426 -1.00953e-08 0)
(0.577426 1.04181e-08 0)
(0.577426 -1.07455e-08 0)
(0.577426 9.72565e-09 0)
(0.577426 -9.83741e-09 0)
(0.577426 9.94819e-09 0)
(0.577426 -1.00576e-08 0)
(0.577426 1.0166e-08 0)
(0.577426 -1.0273e-08 0)
(0.577426 1.0379e-08 0)
(0.577426 -1.04835e-08 0)
(0.577426 1.0587e-08 0)
(0.577426 -1.0689e-08 0)
(0.577426 1.079e-08 0)
(0.577426 -1.08894e-08 0)
(0.577426 1.09879e-08 0)
(0.577426 -1.10846e-08 0)
(0.577426 1.11804e-08 0)
(0.577426 -1.12744e-08 0)
(0.577426 1.13675e-08 0)
(0.577426 -1.14586e-08 0)
(0.577426 1.15491e-08 0)
(0.577426 -1.1637e-08 0)
(0.577426 1.17252e-08 0)
(0.577426 -1.18095e-08 0)
(0.577426 1.18953e-08 0)
(0.577426 -1.19759e-08 0)
(0.577426 1.20593e-08 0)
(0.577426 -1.21361e-08 0)
(0.577426 1.22169e-08 0)
(0.577426 -1.22898e-08 0)
(0.577426 1.23679e-08 0)
(0.577426 -1.24367e-08 0)
(0.577426 1.25119e-08 0)
(0.577426 -1.25764e-08 0)
(0.577426 1.26485e-08 0)
(0.577426 -1.27086e-08 0)
(0.577426 1.27774e-08 0)
(0.577426 -1.28327e-08 0)
(0.577426 1.28982e-08 0)
(0.577426 -1.29482e-08 0)
(0.577426 1.301e-08 0)
(0.577426 -1.30545e-08 0)
(0.577426 1.31121e-08 0)
(0.577426 -1.31509e-08 0)
(0.577426 1.32033e-08 0)
(0.577426 -1.32357e-08 0)
(0.577426 1.32823e-08 0)
(0.577426 -1.33075e-08 0)
(0.577426 1.33461e-08 0)
(0.577426 -1.33631e-08 0)
(0.577426 1.33905e-08 0)
(0.577426 -1.33963e-08 0)
)
;

boundaryField
{
    inandouthalf11
    {
        type            cyclic;
    }
    inandouthalf12
    {
        type            cyclic;
    }
    inandouthalf21
    {
        type            cyclic;
    }
    inandouthalf22
    {
        type            cyclic;
    }
    inandouthalf31
    {
        type            cyclic;
    }
    inandouthalf32
    {
        type            cyclic;
    }
    inandouthalf41
    {
        type            cyclic;
    }
    inandouthalf42
    {
        type            cyclic;
    }
    top
    {
        type            symmetryPlane;
    }
    walls
    {
        type            fixedValue;
        value           uniform (0 0 0);
    }
    frontAndBackPlanes
    {
        type            empty;
    }
}


// ************************************************************************* //
