/*--------------------------------*- C++ -*----------------------------------*\
| =========                 |                                                 |
| \\      /  F ield         | OpenFOAM: The Open Source CFD Toolbox           |
|  \\    /   O peration     | Version:  2.4.x                                 |
|   \\  /    A nd           | Web:      www.OpenFOAM.org                      |
|    \\/     M anipulation  |                                                 |
\*---------------------------------------------------------------------------*/
FoamFile
{
    version     2.0;
    format      ascii;
    class       volVectorField;
    location    "7.95";
    object      Ur;
}
// * * * * * * * * * * * * * * * * * * * * * * * * * * * * * * * * * * * * * //

dimensions      [0 1 -1 0 0 0 0];

internalField   nonuniform List<vector> 
360
(
(0.000276072 3.35324e-08 0)
(0.000274609 2.00251e-07 0)
(0.000274385 3.66075e-07 0)
(0.000274585 5.17204e-07 0)
(0.000274689 6.70527e-07 0)
(0.000274725 8.29052e-07 0)
(0.000274766 9.89473e-07 0)
(0.000274817 1.14982e-06 0)
(0.00027487 1.30966e-06 0)
(0.000274924 1.46899e-06 0)
(0.000274979 1.62786e-06 0)
(0.000275033 1.78619e-06 0)
(0.000275088 1.94384e-06 0)
(0.000275143 2.10072e-06 0)
(0.000275198 2.25674e-06 0)
(0.000275255 2.4119e-06 0)
(0.000275312 2.56624e-06 0)
(0.000275369 2.71976e-06 0)
(0.000275426 2.87247e-06 0)
(0.000275485 3.02443e-06 0)
(0.000275543 3.17565e-06 0)
(0.000275602 3.32616e-06 0)
(0.000275662 3.47601e-06 0)
(0.000275722 3.62526e-06 0)
(0.000275783 3.77395e-06 0)
(0.000275845 3.92213e-06 0)
(0.000275907 4.06983e-06 0)
(0.00027597 4.21712e-06 0)
(0.000276033 4.36405e-06 0)
(0.000276097 4.51065e-06 0)
(0.000276161 4.65696e-06 0)
(0.000276227 4.80305e-06 0)
(0.000276292 4.94891e-06 0)
(0.000276359 5.09461e-06 0)
(0.000276426 5.24019e-06 0)
(0.000276494 5.38565e-06 0)
(0.000276562 5.53102e-06 0)
(0.000276632 5.67633e-06 0)
(0.000276702 5.82162e-06 0)
(0.000276772 5.96686e-06 0)
(0.000276845 6.1121e-06 0)
(0.000276917 6.25736e-06 0)
(0.00027699 6.40259e-06 0)
(0.000277064 6.54784e-06 0)
(0.000277139 6.6931e-06 0)
(0.000277215 6.83838e-06 0)
(0.000277292 6.98367e-06 0)
(0.000277369 7.12892e-06 0)
(0.000277447 7.27412e-06 0)
(0.000277527 7.41933e-06 0)
(0.000277607 7.56449e-06 0)
(0.000277688 7.7096e-06 0)
(0.00027777 7.85462e-06 0)
(0.000277854 7.99956e-06 0)
(0.000277937 8.14434e-06 0)
(0.000278023 8.289e-06 0)
(0.000278109 8.43345e-06 0)
(0.000278197 8.57767e-06 0)
(0.000278285 8.72163e-06 0)
(0.000278374 8.86521e-06 0)
(0.000278465 9.00847e-06 0)
(0.000278557 9.15135e-06 0)
(0.00027865 9.29386e-06 0)
(0.000278744 9.43596e-06 0)
(0.00027884 9.57759e-06 0)
(0.000278937 9.71869e-06 0)
(0.000279035 9.8592e-06 0)
(0.000279135 9.99909e-06 0)
(0.000279236 1.01383e-05 0)
(0.000279337 1.02767e-05 0)
(0.000279442 1.04143e-05 0)
(0.000279547 1.05511e-05 0)
(0.000279653 1.06871e-05 0)
(0.000279762 1.08223e-05 0)
(0.000279872 1.09566e-05 0)
(0.000279984 1.109e-05 0)
(0.000280098 1.12225e-05 0)
(0.000280213 1.13539e-05 0)
(0.00028033 1.14842e-05 0)
(0.000280449 1.16133e-05 0)
(0.000280569 1.17413e-05 0)
(0.000280692 1.18681e-05 0)
(0.000280817 1.19936e-05 0)
(0.000280944 1.21179e-05 0)
(0.000281073 1.2241e-05 0)
(0.000281204 1.23629e-05 0)
(0.000281338 1.24835e-05 0)
(0.000281474 1.26028e-05 0)
(0.000281612 1.27208e-05 0)
(0.000281753 1.28373e-05 0)
(0.000281896 1.29523e-05 0)
(0.000282042 1.30658e-05 0)
(0.000282191 1.31777e-05 0)
(0.000282343 1.32882e-05 0)
(0.000282498 1.33971e-05 0)
(0.000282656 1.35045e-05 0)
(0.000282817 1.36104e-05 0)
(0.000282982 1.37147e-05 0)
(0.00028315 1.38175e-05 0)
(0.000283322 1.39187e-05 0)
(0.000283497 1.40183e-05 0)
(0.000283677 1.41163e-05 0)
(0.00028386 1.42126e-05 0)
(0.000284048 1.43073e-05 0)
(0.00028424 1.44003e-05 0)
(0.000284436 1.44916e-05 0)
(0.000284638 1.45813e-05 0)
(0.000284844 1.46692e-05 0)
(0.000285056 1.47555e-05 0)
(0.000285273 1.48402e-05 0)
(0.000285496 1.49234e-05 0)
(0.000285724 1.5005e-05 0)
(0.000285959 1.50852e-05 0)
(0.000286201 1.51641e-05 0)
(0.000286449 1.52419e-05 0)
(0.000286704 1.53186e-05 0)
(0.000286967 1.53944e-05 0)
(0.000287237 1.54696e-05 0)
(0.000287516 1.55443e-05 0)
(0.000287803 1.56186e-05 0)
(0.0002881 1.56927e-05 0)
(0.000288405 1.57668e-05 0)
(0.000288721 1.58409e-05 0)
(0.000289047 1.59149e-05 0)
(0.000289385 1.59888e-05 0)
(0.000289734 1.60624e-05 0)
(0.000290097 1.61353e-05 0)
(0.000290474 1.62072e-05 0)
(0.000290866 1.62776e-05 0)
(0.000291276 1.63459e-05 0)
(0.000291703 1.64115e-05 0)
(0.000292149 1.64737e-05 0)
(0.000292616 1.65319e-05 0)
(0.000293108 1.65858e-05 0)
(0.000293632 1.66356e-05 0)
(0.000294185 1.66814e-05 0)
(0.000294766 1.67235e-05 0)
(0.000295382 1.67622e-05 0)
(0.000296065 1.67983e-05 0)
(0.00029685 1.68327e-05 0)
(0.0002977 1.68635e-05 0)
(0.000298522 1.68819e-05 0)
(0.000299512 1.68855e-05 0)
(0.000300795 1.68742e-05 0)
(0.000302404 1.68345e-05 0)
(0.000305526 1.71217e-05 0)
(0.000310313 1.23882e-05 0)
(0.000351182 6.29176e-05 0)
(0.00178951 -0.000246264 0)
(0.016228 -0.00407773 0)
(0.0187193 -0.00568828 0)
(0.0165838 -0.00641382 0)
(0.015492 -0.00689839 0)
(0.0154033 -0.00733251 0)
(0.0163095 -0.00773038 0)
(0.0182383 -0.00808011 0)
(0.0211421 -0.00835995 0)
(0.0247728 -0.00853375 0)
(0.0286369 -0.00854648 0)
(0.0321219 -0.00833461 0)
(0.0347549 -0.00786348 0)
(0.0363874 -0.0071692 0)
(0.0371646 -0.00634819 0)
(0.0373571 -0.00550079 0)
(0.0372202 -0.00469163 0)
(0.0369375 -0.00394894 0)
(0.0366229 -0.00327999 0)
(0.0363403 -0.00268298 0)
(0.0361211 -0.0021528 0)
(0.035978 -0.00168348 0)
(0.0359123 -0.00126911 0)
(0.0359197 -0.000904232 0)
(0.0359925 -0.000583885 0)
(0.0361218 -0.000303626 0)
(0.0362981 -5.94739e-05 0)
(0.0365123 0.000152141 0)
(0.0367555 0.000334423 0)
(0.0370193 0.000490253 0)
(0.0372963 0.000622224 0)
(0.0375792 0.000732671 0)
(0.0378618 0.000823696 0)
(0.038138 0.000897191 0)
(0.0384026 0.000954858 0)
(0.0386506 0.000998228 0)
(0.0388775 0.00102868 0)
(0.0390792 0.00104745 0)
(0.0392519 0.00105566 0)
(0.039392 0.00105431 0)
(0.0394964 0.00104433 0)
(0.0395621 0.00102653 0)
(0.0395861 0.00100167 0)
(0.039566 0.000970439 0)
(0.0394992 0.000933461 0)
(0.0393835 0.00089133 0)
(0.0392165 0.000844611 0)
(0.0389964 0.000793849 0)
(0.038721 0.000739586 0)
(0.0383886 0.000682371 0)
(0.0379973 0.000622769 0)
(0.0375454 0.000561359 0)
(0.0370312 0.000498724 0)
(0.0364478 0.000434799 0)
(0.0357883 0.000369534 0)
(0.0350516 0.000303568 0)
(0.0342369 0.000237593 0)
(0.0333432 0.000172336 0)
(0.0323702 0.000108527 0)
(0.0313173 4.6873e-05 0)
(0.0301847 -1.19598e-05 0)
(0.0289724 -6.73625e-05 0)
(0.0276813 -0.000118798 0)
(0.026312 -0.000165816 0)
(0.024866 -0.000208088 0)
(0.0233445 -0.000245441 0)
(0.0217493 -0.000277796 0)
(0.0200823 -0.000305109 0)
(0.0183455 -0.000327459 0)
(0.016541 -0.000345076 0)
(0.0146709 -0.000358213 0)
(0.0127377 -0.000367134 0)
(0.0107437 -0.000372205 0)
(0.00869111 -0.000374035 0)
(0.00658209 -0.000373492 0)
(0.00441902 -0.000371635 0)
(0.0022041 -0.000370105 0)
(-6.08162e-05 -0.000371656 0)
(-0.00237367 -0.000378671 0)
(-0.00473248 -0.000391583 0)
(-0.0071359 -0.000410069 0)
(-0.00958303 -0.000434075 0)
(-0.0120741 -0.000463882 0)
(-0.0146102 -0.000499563 0)
(-0.0171973 -0.00054318 0)
(-0.0198474 -0.0005993 0)
(-0.0225748 -0.000675917 0)
(-0.0253785 -0.000746704 0)
(-0.0281708 -0.000787079 0)
(0.00761015 -0.000750234 0)
(0.00776086 -0.000660963 0)
(0.00774323 -0.00155024 0)
(0.00775915 -0.000478428 0)
(0.00770964 -0.00229359 0)
(0.00781308 -0.00120797 0)
(0.00642587 0.0276516 0)
(0.00573858 0.0396188 0)
(0.00594979 0.0395559 0)
(0.00587384 0.0395584 0)
(0.00582257 0.0395539 0)
(0.00576367 0.0395494 0)
(0.00570057 0.0395443 0)
(0.00563344 0.0395386 0)
(0.00556335 0.0395326 0)
(0.00549285 0.0395262 0)
(0.00543209 0.0395196 0)
(0.00533918 0.0395144 0)
(0.00527825 0.0395092 0)
(0.00522644 0.0395039 0)
(0.0051776 0.0394998 0)
(0.00514054 0.0394964 0)
(0.00511694 0.0394933 0)
(0.00510901 0.0394901 0)
(0.00511021 0.0394856 0)
(0.00519715 0.0394771 0)
(0.0052474 0.0394711 0)
(0.00525141 0.0394697 0)
(0.00525152 0.0394696 0)
(0.00525152 0.0394696 0)
(0.00525153 0.0394696 0)
(0.00525153 0.0394696 0)
(0.00525153 0.0394696 0)
(0.00525153 0.0394696 0)
(0.00525153 0.0394696 0)
(0.00525153 0.0394696 0)
(0.00525153 0.0394696 0)
(0.00525153 0.0394696 0)
(0.00525153 0.0394696 0)
(0.00525153 0.0394696 0)
(0.00525153 0.0394696 0)
(0.00525153 0.0394696 0)
(0.00525153 0.0394696 0)
(0.00525153 0.0394696 0)
(0.00525153 0.0394696 0)
(0.00525153 0.0394696 0)
(0.00525153 0.0394696 0)
(0.00525153 0.0394696 0)
(0.00525153 0.0394696 0)
(0.00525153 0.0394696 0)
(0.00525153 0.0394696 0)
(0.00525153 0.0394696 0)
(0.00525153 0.0394696 0)
(0.00525153 0.0394696 0)
(0.00525153 0.0394696 0)
(0.00525153 0.0394696 0)
(0.00525153 0.0394696 0)
(0.00525153 0.0394696 0)
(0.00525153 0.0394696 0)
(0.00525153 0.0394696 0)
(0.00525153 0.0394696 0)
(0.00525153 0.0394696 0)
(0.00525153 0.0394696 0)
(0.00525153 0.0394696 0)
(0.00525153 0.0394696 0)
(0.00525153 0.0394696 0)
(0.00525153 0.0394696 0)
(0.00525153 0.0394696 0)
(0.00525153 0.0394696 0)
(0.00525153 0.0394696 0)
(0.00525153 0.0394696 0)
(0.00525153 0.0394696 0)
(0.00525153 0.0394696 0)
(0.00525153 0.0394696 0)
(0.00525153 0.0394696 0)
(0.00525153 0.0394696 0)
(0.00525153 0.0394696 0)
(0.00525153 0.0394696 0)
(0.00525153 0.0394696 0)
(0.00525153 0.0394696 0)
(0.00525153 0.0394696 0)
(0.00525153 0.0394696 0)
(0.00525153 0.0394696 0)
(0.00525153 0.0394696 0)
(0.00525153 0.0394696 0)
(0.00525153 0.0394696 0)
(0.00525153 0.0394696 0)
(0.00525153 0.0394696 0)
(0.00525153 0.0394696 0)
(0.00525153 0.0394696 0)
(0.00525153 0.0394696 0)
(0.00525153 0.0394696 0)
(0.00525153 0.0394696 0)
(0.00525153 0.0394696 0)
(0.00525153 0.0394696 0)
(0.00525153 0.0394696 0)
(0.00525153 0.0394696 0)
(0.00525153 0.0394696 0)
(0.00525153 0.0394696 0)
(0.00525153 0.0394696 0)
(0.00525153 0.0394696 0)
(0.00525153 0.0394696 0)
(0.00525153 0.0394696 0)
(0.00525153 0.0394696 0)
(0.00525153 0.0394696 0)
(0.00525153 0.0394696 0)
(0.00525153 0.0394696 0)
(0.00525153 0.0394696 0)
(0.00525153 0.0394696 0)
(0.00525153 0.0394696 0)
(0.00525153 0.0394696 0)
(0.00525153 0.0394696 0)
(0.00525153 0.0394696 0)
(0.00525153 0.0394696 0)
(0.00525153 0.0394696 0)
(0.00525153 0.0394696 0)
(0.00525153 0.0394696 0)
(0.00525153 0.0394696 0)
(0.00525153 0.0394696 0)
(0.00525158 0.0394694 0)
(0.00525304 0.0394608 0)
(0.00528854 0.0391146 0)
(0.00610974 0.0223435 0)
)
;

boundaryField
{
    inandouthalf11
    {
        type            cyclic;
    }
    inandouthalf12
    {
        type            cyclic;
    }
    inandouthalf21
    {
        type            cyclic;
    }
    inandouthalf22
    {
        type            cyclic;
    }
    inandouthalf31
    {
        type            cyclic;
    }
    inandouthalf32
    {
        type            cyclic;
    }
    inandouthalf41
    {
        type            cyclic;
    }
    inandouthalf42
    {
        type            cyclic;
    }
    top
    {
        type            symmetryPlane;
    }
    walls
    {
        type            calculated;
        value           uniform (0 0 0);
    }
    frontAndBackPlanes
    {
        type            empty;
    }
}


// ************************************************************************* //
