/*--------------------------------*- C++ -*----------------------------------*\
| =========                 |                                                 |
| \\      /  F ield         | OpenFOAM: The Open Source CFD Toolbox           |
|  \\    /   O peration     | Version:  2.4.x                                 |
|   \\  /    A nd           | Web:      www.OpenFOAM.org                      |
|    \\/     M anipulation  |                                                 |
\*---------------------------------------------------------------------------*/
FoamFile
{
    version     2.0;
    format      ascii;
    class       volScalarField;
    location    "9.3";
    object      ddt0(alpha);
}
// * * * * * * * * * * * * * * * * * * * * * * * * * * * * * * * * * * * * * //

dimensions      [0 0 -1 0 0 0 0];

internalField   nonuniform List<scalar> 
360
(
1.73163e-05
2.6e-05
2.39535e-05
2.29844e-05
2.36834e-05
2.43387e-05
2.46825e-05
2.49892e-05
2.53777e-05
2.58603e-05
2.64016e-05
2.69666e-05
2.7548e-05
2.81359e-05
2.87308e-05
2.93316e-05
2.99325e-05
3.05264e-05
3.11088e-05
3.16843e-05
3.22365e-05
3.27789e-05
3.33029e-05
3.38076e-05
3.42927e-05
3.47552e-05
3.5192e-05
3.56115e-05
3.60036e-05
3.63679e-05
3.67037e-05
3.70203e-05
3.72914e-05
3.75546e-05
3.77695e-05
3.79617e-05
3.81143e-05
3.82411e-05
3.83426e-05
3.83873e-05
3.84239e-05
3.84167e-05
3.83643e-05
3.83017e-05
3.81932e-05
3.80582e-05
3.78944e-05
3.76801e-05
3.7453e-05
3.72132e-05
3.69216e-05
3.66213e-05
3.62892e-05
3.59465e-05
3.55674e-05
3.51944e-05
3.47807e-05
3.4369e-05
3.39347e-05
3.34778e-05
3.30401e-05
3.25754e-05
3.2124e-05
3.16569e-05
3.11897e-05
3.07142e-05
3.0243e-05
2.97698e-05
2.92929e-05
2.88098e-05
2.83465e-05
2.78913e-05
2.74218e-05
2.69748e-05
2.65271e-05
2.6093e-05
2.56498e-05
2.52104e-05
2.47756e-05
2.43464e-05
2.3918e-05
2.34988e-05
2.30881e-05
2.26842e-05
2.22873e-05
2.1894e-05
2.15045e-05
2.11145e-05
2.07242e-05
2.0335e-05
1.99471e-05
1.95615e-05
1.91802e-05
1.88031e-05
1.84298e-05
1.80596e-05
1.76913e-05
1.7324e-05
1.69572e-05
1.65908e-05
1.6225e-05
1.58602e-05
1.5497e-05
1.51355e-05
1.4776e-05
1.44187e-05
1.40637e-05
1.37112e-05
1.33615e-05
1.3015e-05
1.2672e-05
1.23328e-05
1.19976e-05
1.16661e-05
1.13376e-05
1.10105e-05
1.06821e-05
1.03485e-05
1.00039e-05
9.64139e-06
9.25282e-06
8.83005e-06
8.36659e-06
7.8599e-06
7.31385e-06
6.74051e-06
6.16007e-06
5.59832e-06
5.08176e-06
4.63151e-06
4.25674e-06
3.94711e-06
3.6643e-06
3.33537e-06
2.85222e-06
2.09931e-06
1.05509e-06
-1.06533e-07
-1.10193e-06
-1.72947e-06
-2.02584e-06
-4.11651e-05
0.0184136
0.340888
0.108574
0.0413172
0.0228232
0.0141753
0.00765374
0.00140247
-0.00519192
-0.0128277
-0.0201582
-0.0266845
-0.032092
-0.0361992
-0.0389279
-0.0403319
-0.0405258
-0.0396967
-0.0380442
-0.0357635
-0.0330412
-0.0300411
-0.0269045
-0.0237433
-0.0206514
-0.0176986
-0.0149382
-0.0124053
-0.0101261
-0.00810358
-0.00636337
-0.00491568
-0.00379669
-0.00304065
-0.00263619
-0.00247832
-0.00240562
-0.00229478
-0.00209341
-0.00179648
-0.00142216
-0.000997726
-0.000551897
-0.000110243
0.000306923
0.000685376
0.00101675
0.00129761
0.00152828
0.0017115
0.00185137
0.00195248
0.0020193
0.00205592
0.00206597
0.00205306
0.00202153
0.00197662
0.0019236
0.00186516
0.0017976
0.00170947
0.00158573
0.00141843
0.00121522
0.000997617
0.000790328
0.000610941
0.000466309
0.000354995
0.000271518
0.000209563
0.000163579
0.000129262
0.000103429
8.37638e-05
6.86303e-05
5.68542e-05
4.75668e-05
4.01304e-05
3.40952e-05
2.91033e-05
2.49019e-05
2.13017e-05
1.81795e-05
1.54638e-05
1.30779e-05
1.09657e-05
9.25398e-06
7.50041e-06
6.42868e-06
4.97119e-06
4.40927e-06
3.06669e-06
3.04615e-06
2.31782e-06
1.84679e-06
1.37631e-06
1.0772e-06
8.03012e-07
5.77581e-07
4.23961e-07
2.76578e-07
2.22855e-07
1.33772e-07
8.9538e-08
2.52504e-08
1.52533e-08
-2.96413e-20
-3.75123e-32
-1.45838e-43
-1.41137e-44
-2.38385e-49
-1.75147e-49
-1.81907e-51
-1.08278e-51
-4.56596e-52
-2.43203e-52
-1.41476e-52
-6.70182e-53
-3.35923e-53
-1.68019e-53
-8.26948e-54
-4.00402e-54
-1.90627e-54
-8.91882e-55
-4.09871e-55
-1.84857e-55
-8.17847e-56
-3.54782e-56
-1.50804e-56
-6.27648e-57
-2.55595e-57
-1.0176e-57
-3.9576e-58
-1.50221e-58
-5.55989e-59
-2.00448e-59
-7.03193e-60
-2.39765e-60
-7.93604e-61
-2.54656e-61
-7.91079e-62
-2.37537e-62
-6.88279e-63
-1.92101e-63
-5.15424e-64
-1.32655e-64
-3.26714e-65
-7.67959e-66
-1.71772e-66
-3.64393e-67
-7.30411e-68
-1.37752e-68
-2.43248e-69
-3.9991e-70
-6.0809e-71
-8.48492e-72
-1.07616e-72
-1.22622e-73
-1.23679e-74
-1.08316e-75
-8.02388e-77
-4.84199e-78
-2.24426e-79
-7.19211e-81
-1.24665e-82
-2.32048e-85
-5.56411e-91
-4.04144e-93
-1.45409e-95
-5.49621e-106
-1.04998e-116
-1.48343e-127
-1.51939e-138
-1.34624e-149
-9.17652e-161
-5.3655e-172
-1.87928e-182
-8.47635e-193
-5.61697e-201
-2.4808e-211
-1.93185e-219
-1.00677e-229
-6.64913e-238
-4.25124e-248
-2.29101e-256
-2.72537e-266
-8.0682e-275
-1.80791e-284
-2.93274e-293
-8.95258e-303
-1.09424e-311
-1.15611e-321
0
0
0
0
0
0
0
0
0
0
0
0
0
0
0
0
0
0
0
0
0
0
0
0
)
;

boundaryField
{
    inandouthalf11
    {
        type            cyclic;
    }
    inandouthalf12
    {
        type            cyclic;
    }
    inandouthalf21
    {
        type            cyclic;
    }
    inandouthalf22
    {
        type            cyclic;
    }
    inandouthalf31
    {
        type            cyclic;
    }
    inandouthalf32
    {
        type            cyclic;
    }
    inandouthalf41
    {
        type            cyclic;
    }
    inandouthalf42
    {
        type            cyclic;
    }
    top
    {
        type            symmetryPlane;
    }
    walls
    {
        type            calculated;
        value           uniform 1.73163e-05;
    }
    frontAndBackPlanes
    {
        type            empty;
    }
}


// ************************************************************************* //
