/*--------------------------------*- C++ -*----------------------------------*\
| =========                 |                                                 |
| \\      /  F ield         | OpenFOAM: The Open Source CFD Toolbox           |
|  \\    /   O peration     | Version:  2.4.x                                 |
|   \\  /    A nd           | Web:      www.OpenFOAM.org                      |
|    \\/     M anipulation  |                                                 |
\*---------------------------------------------------------------------------*/
FoamFile
{
    version     2.0;
    format      ascii;
    class       volVectorField;
    location    "9.3";
    object      ddt0(Ua);
}
// * * * * * * * * * * * * * * * * * * * * * * * * * * * * * * * * * * * * * //

dimensions      [0 1 -2 0 0 0 0];

internalField   nonuniform List<vector> 
360
(
(-1.59925e-32 -4.97833e-33 0)
(-1.11048e-08 2.50132e-08 0)
(-2.33869e-08 4.58131e-08 0)
(-3.46978e-08 6.52231e-08 0)
(-4.64717e-08 8.66467e-08 0)
(-5.89845e-08 1.09863e-07 0)
(-7.19415e-08 1.34023e-07 0)
(-8.51993e-08 1.58868e-07 0)
(-9.87584e-08 1.84387e-07 0)
(-1.12642e-07 2.10578e-07 0)
(-1.26865e-07 2.37428e-07 0)
(-1.41427e-07 2.64898e-07 0)
(-1.56319e-07 2.9294e-07 0)
(-1.71529e-07 3.21503e-07 0)
(-1.87044e-07 3.50536e-07 0)
(-2.02852e-07 3.79997e-07 0)
(-2.18939e-07 4.09843e-07 0)
(-2.35289e-07 4.40023e-07 0)
(-2.51882e-07 4.70487e-07 0)
(-2.687e-07 5.01184e-07 0)
(-2.85721e-07 5.32059e-07 0)
(-3.02922e-07 5.63057e-07 0)
(-3.20281e-07 5.94127e-07 0)
(-3.37775e-07 6.25215e-07 0)
(-3.55381e-07 6.56266e-07 0)
(-3.73072e-07 6.87222e-07 0)
(-3.90823e-07 7.18027e-07 0)
(-4.08607e-07 7.48625e-07 0)
(-4.26399e-07 7.78961e-07 0)
(-4.4417e-07 8.08976e-07 0)
(-4.61892e-07 8.38611e-07 0)
(-4.79537e-07 8.67811e-07 0)
(-4.97075e-07 8.96516e-07 0)
(-5.14479e-07 9.24672e-07 0)
(-5.31719e-07 9.52226e-07 0)
(-5.48766e-07 9.79119e-07 0)
(-5.65591e-07 1.0053e-06 0)
(-5.82166e-07 1.03072e-06 0)
(-5.98466e-07 1.05534e-06 0)
(-6.14463e-07 1.07911e-06 0)
(-6.30132e-07 1.10199e-06 0)
(-6.4545e-07 1.12395e-06 0)
(-6.60395e-07 1.14495e-06 0)
(-6.74948e-07 1.16499e-06 0)
(-6.89093e-07 1.18403e-06 0)
(-7.02814e-07 1.20207e-06 0)
(-7.16099e-07 1.21911e-06 0)
(-7.28935e-07 1.23513e-06 0)
(-7.41317e-07 1.25015e-06 0)
(-7.53244e-07 1.26419e-06 0)
(-7.64714e-07 1.27727e-06 0)
(-7.75727e-07 1.28941e-06 0)
(-7.8629e-07 1.30065e-06 0)
(-7.9641e-07 1.31102e-06 0)
(-8.06095e-07 1.32057e-06 0)
(-8.1536e-07 1.32935e-06 0)
(-8.24217e-07 1.33739e-06 0)
(-8.32684e-07 1.34476e-06 0)
(-8.40777e-07 1.35152e-06 0)
(-8.48514e-07 1.3577e-06 0)
(-8.55917e-07 1.36338e-06 0)
(-8.63009e-07 1.36861e-06 0)
(-8.69812e-07 1.37345e-06 0)
(-8.76349e-07 1.37796e-06 0)
(-8.82641e-07 1.38218e-06 0)
(-8.8871e-07 1.38618e-06 0)
(-8.94577e-07 1.38999e-06 0)
(-9.00264e-07 1.39367e-06 0)
(-9.0579e-07 1.39726e-06 0)
(-9.11173e-07 1.4008e-06 0)
(-9.16434e-07 1.40432e-06 0)
(-9.21592e-07 1.40787e-06 0)
(-9.26662e-07 1.41148e-06 0)
(-9.31661e-07 1.41516e-06 0)
(-9.36603e-07 1.41895e-06 0)
(-9.41503e-07 1.42287e-06 0)
(-9.4637e-07 1.42693e-06 0)
(-9.51214e-07 1.43114e-06 0)
(-9.56044e-07 1.43553e-06 0)
(-9.60868e-07 1.44008e-06 0)
(-9.65692e-07 1.44482e-06 0)
(-9.70522e-07 1.44974e-06 0)
(-9.75366e-07 1.45485e-06 0)
(-9.80228e-07 1.46014e-06 0)
(-9.85112e-07 1.46563e-06 0)
(-9.90022e-07 1.4713e-06 0)
(-9.94959e-07 1.47715e-06 0)
(-9.99924e-07 1.48317e-06 0)
(-1.00492e-06 1.48936e-06 0)
(-1.00994e-06 1.4957e-06 0)
(-1.01498e-06 1.50218e-06 0)
(-1.02005e-06 1.5088e-06 0)
(-1.02515e-06 1.51555e-06 0)
(-1.03026e-06 1.52241e-06 0)
(-1.0354e-06 1.52938e-06 0)
(-1.04057e-06 1.53645e-06 0)
(-1.04575e-06 1.5436e-06 0)
(-1.05095e-06 1.55083e-06 0)
(-1.05617e-06 1.55813e-06 0)
(-1.0614e-06 1.56548e-06 0)
(-1.06664e-06 1.57287e-06 0)
(-1.07189e-06 1.58029e-06 0)
(-1.07714e-06 1.58773e-06 0)
(-1.08239e-06 1.59517e-06 0)
(-1.08765e-06 1.60261e-06 0)
(-1.0929e-06 1.61005e-06 0)
(-1.09815e-06 1.61747e-06 0)
(-1.1034e-06 1.62487e-06 0)
(-1.10866e-06 1.63225e-06 0)
(-1.11393e-06 1.63961e-06 0)
(-1.11921e-06 1.64696e-06 0)
(-1.12453e-06 1.6543e-06 0)
(-1.12988e-06 1.66165e-06 0)
(-1.13529e-06 1.66901e-06 0)
(-1.14076e-06 1.67639e-06 0)
(-1.14631e-06 1.68379e-06 0)
(-1.15193e-06 1.69121e-06 0)
(-1.15762e-06 1.69861e-06 0)
(-1.16336e-06 1.70597e-06 0)
(-1.16912e-06 1.71324e-06 0)
(-1.17485e-06 1.72036e-06 0)
(-1.18051e-06 1.72727e-06 0)
(-1.18603e-06 1.73388e-06 0)
(-1.19139e-06 1.74017e-06 0)
(-1.19657e-06 1.74611e-06 0)
(-1.20161e-06 1.75173e-06 0)
(-1.20657e-06 1.75711e-06 0)
(-1.21163e-06 1.76237e-06 0)
(-1.21697e-06 1.76767e-06 0)
(-1.22282e-06 1.77317e-06 0)
(-1.22942e-06 1.779e-06 0)
(-1.23695e-06 1.78524e-06 0)
(-1.24546e-06 1.79184e-06 0)
(-1.25471e-06 1.79857e-06 0)
(-1.26397e-06 1.80493e-06 0)
(-1.2719e-06 1.81018e-06 0)
(-1.27703e-06 1.81362e-06 0)
(-1.27886e-06 1.81517e-06 0)
(-1.27858e-06 1.81553e-06 0)
(-1.27798e-06 1.81551e-06 0)
(-1.27785e-06 1.81545e-06 0)
(-1.27804e-06 1.81514e-06 0)
(-1.27887e-06 1.81437e-06 0)
(-0.211135 -9.33122e-05 0)
(-0.261758 -0.00529119 0)
(-0.235112 -0.00653022 0)
(-0.22117 -0.00733034 0)
(-0.21737 -0.00782904 0)
(-0.219928 -0.00821368 0)
(-0.22654 -0.00850267 0)
(-0.235811 -0.00868248 0)
(-0.246774 -0.00893503 0)
(-0.25937 -0.008948 0)
(-0.273011 -0.00900584 0)
(-0.287373 -0.00906069 0)
(-0.302199 -0.00911427 0)
(-0.31727 -0.00917515 0)
(-0.332397 -0.00925091 0)
(-0.347417 -0.00934429 0)
(-0.362197 -0.0094543 0)
(-0.37663 -0.0095782 0)
(-0.390633 -0.00971159 0)
(-0.404147 -0.00984848 0)
(-0.417129 -0.00998127 0)
(-0.429554 -0.0101 0)
(-0.441407 -0.0101911 0)
(-0.452682 -0.0102377 0)
(-0.46338 -0.0102204 0)
(-0.473507 -0.0101177 0)
(-0.483072 -0.00990661 0)
(-0.492084 -0.00957673 0)
(-0.500554 -0.009114 0)
(-0.508493 -0.00854174 0)
(-0.515915 -0.00795298 0)
(-0.522836 -0.00753353 0)
(-0.52928 -0.00757888 0)
(-0.535281 -0.00837519 0)
(-0.540875 -0.0100229 0)
(-0.546089 -0.0123731 0)
(-0.550932 -0.0151428 0)
(-0.555401 -0.0180544 0)
(-0.559484 -0.0208867 0)
(-0.563161 -0.0234763 0)
(-0.566406 -0.025713 0)
(-0.56919 -0.0275365 0)
(-0.571484 -0.0289311 0)
(-0.573257 -0.0299177 0)
(-0.574479 -0.0305427 0)
(-0.575124 -0.0308671 0)
(-0.575166 -0.0309556 0)
(-0.574582 -0.0308686 0)
(-0.573356 -0.0306561 0)
(-0.571473 -0.0303551 0)
(-0.568928 -0.0299887 0)
(-0.565723 -0.0295681 0)
(-0.561868 -0.0290943 0)
(-0.557387 -0.0285613 0)
(-0.552314 -0.0279575 0)
(-0.546701 -0.0272637 0)
(-0.540612 -0.0264484 0)
(-0.53413 -0.0254623 0)
(-0.527286 -0.0242281 0)
(-0.52012 -0.0226552 0)
(-0.512768 -0.0207007 0)
(-0.505392 -0.0184121 0)
(-0.498159 -0.0159468 0)
(-0.491214 -0.0135305 0)
(-0.484656 -0.0113762 0)
(-0.478529 -0.00961711 0)
(-0.472833 -0.00828799 0)
(-0.467537 -0.00735058 0)
(-0.462602 -0.00673142 0)
(-0.457989 -0.00635149 0)
(-0.453666 -0.00614173 0)
(-0.449606 -0.00604793 0)
(-0.445791 -0.00602985 0)
(-0.442206 -0.0060584 0)
(-0.438839 -0.00611303 0)
(-0.435681 -0.00617946 0)
(-0.432726 -0.0062476 0)
(-0.429965 -0.00631046 0)
(-0.427392 -0.00636345 0)
(-0.425002 -0.00640356 0)
(-0.422789 -0.006429 0)
(-0.420745 -0.00643925 0)
(-0.418865 -0.00643466 0)
(-0.417142 -0.00641648 0)
(-0.415567 -0.00638607 0)
(-0.414134 -0.00634498 0)
(-0.412837 -0.00629628 0)
(-0.411673 -0.0062379 0)
(-0.410635 -0.00617678 0)
(-0.409734 -0.00610855 0)
(-0.408965 -0.00603544 0)
(-0.408356 -0.00595734 0)
(-0.407913 -0.00587479 0)
(-0.407484 -0.00576224 0)
(-0.347479 0.0326727 0)
(-0.341513 0.0503908 0)
(-0.339594 0.0768894 0)
(-0.338265 0.0797929 0)
(-0.337224 0.0934019 0)
(-0.335783 0.0938483 0)
(-0.334969 0.112157 0)
(-0.332718 0.0839413 0)
(-0.333989 0.106937 0)
(-0.330916 0.101866 0)
(-0.325862 0.167594 0)
(-0.327732 0.0897587 0)
(-0.323061 0.0654767 0)
(-0.328368 0.0387477 0)
(-0.327514 0.00048398 0)
(-0.327286 5.06837e-05 0)
(-0.326803 7.83092e-05 0)
(-0.32646 7.39834e-05 0)
(-0.326232 7.14635e-05 0)
(-0.326136 6.83818e-05 0)
(-0.326186 6.48891e-05 0)
(-0.326396 6.09637e-05 0)
(-0.326784 5.6607e-05 0)
(-0.327368 5.18366e-05 0)
(-0.328164 4.6695e-05 0)
(-0.329187 4.12585e-05 0)
(-0.330445 3.56364e-05 0)
(-0.331927 2.98669e-05 0)
(-0.333538 2.26691e-05 0)
(-0.335511 1.42835e-05 0)
(-0.337148 2.31317e-06 0)
(-0.337941 9.536e-06 0)
(-0.338013 4.13141e-05 0)
(-0.338012 5.06695e-05 0)
(-0.338012 5.10274e-05 0)
(-0.338012 5.10329e-05 0)
(-0.338012 5.1033e-05 0)
(-0.338012 5.10327e-05 0)
(-0.338012 5.1033e-05 0)
(-0.338012 5.10328e-05 0)
(-0.338012 5.1033e-05 0)
(-0.338012 5.10327e-05 0)
(-0.338012 5.10331e-05 0)
(-0.338012 5.10327e-05 0)
(-0.338012 5.10331e-05 0)
(-0.338012 5.10327e-05 0)
(-0.338012 5.10331e-05 0)
(-0.338012 5.10327e-05 0)
(-0.338012 5.10331e-05 0)
(-0.338012 5.10327e-05 0)
(-0.338012 5.10332e-05 0)
(-0.338012 5.10327e-05 0)
(-0.338012 5.10332e-05 0)
(-0.338012 5.10327e-05 0)
(-0.338012 5.10332e-05 0)
(-0.338012 5.10327e-05 0)
(-0.338012 5.10333e-05 0)
(-0.338012 5.10327e-05 0)
(-0.338012 5.10333e-05 0)
(-0.338012 5.10326e-05 0)
(-0.338012 5.10333e-05 0)
(-0.338012 5.10326e-05 0)
(-0.338012 5.10333e-05 0)
(-0.338012 5.10326e-05 0)
(-0.338012 5.10334e-05 0)
(-0.338012 5.10326e-05 0)
(-0.338012 5.10334e-05 0)
(-0.338012 5.10326e-05 0)
(-0.338012 5.10334e-05 0)
(-0.338012 5.10325e-05 0)
(-0.338012 5.10335e-05 0)
(-0.338012 5.10325e-05 0)
(-0.338012 5.10335e-05 0)
(-0.338012 5.10325e-05 0)
(-0.338012 5.10335e-05 0)
(-0.338012 5.10325e-05 0)
(-0.338012 5.10335e-05 0)
(-0.338012 5.10325e-05 0)
(-0.338012 5.10335e-05 0)
(-0.338012 5.10325e-05 0)
(-0.338012 5.10335e-05 0)
(-0.338012 5.10325e-05 0)
(-0.338012 5.10335e-05 0)
(-0.338012 5.10325e-05 0)
(-0.338012 5.10335e-05 0)
(-0.338012 5.10325e-05 0)
(-0.338012 5.10335e-05 0)
(-0.338012 5.10325e-05 0)
(-0.338012 5.10335e-05 0)
(-0.338012 5.10325e-05 0)
(-0.338012 5.10335e-05 0)
(-0.338012 5.10325e-05 0)
(-0.338012 5.10335e-05 0)
(-0.338012 5.10325e-05 0)
(-0.338012 5.10336e-05 0)
(-0.338012 5.10325e-05 0)
(-0.338012 5.10336e-05 0)
(-0.338012 5.10326e-05 0)
(-0.338012 5.10337e-05 0)
(-0.338012 5.10326e-05 0)
(-0.338012 5.10337e-05 0)
(-0.338012 5.10327e-05 0)
(-0.338012 5.10338e-05 0)
(-0.338012 5.10327e-05 0)
(-0.338012 5.10338e-05 0)
(-0.338012 5.10328e-05 0)
(-0.338012 5.10339e-05 0)
(-0.338012 5.10328e-05 0)
(-0.338012 5.1034e-05 0)
(-0.338012 5.10329e-05 0)
(-0.338012 5.10341e-05 0)
(-0.338012 5.1033e-05 0)
(-0.338012 5.10341e-05 0)
(-0.338012 5.1033e-05 0)
(-0.338012 5.10341e-05 0)
(-0.338012 5.10329e-05 0)
(-0.338012 5.10341e-05 0)
(-0.338012 5.1033e-05 0)
(-0.338012 5.10342e-05 0)
(-0.338012 5.1035e-05 0)
(-0.33801 5.1089e-05 0)
(-0.337963 5.22618e-05 0)
(-0.336894 0.000100656 0)
)
;

boundaryField
{
    inandouthalf11
    {
        type            cyclic;
    }
    inandouthalf12
    {
        type            cyclic;
    }
    inandouthalf21
    {
        type            cyclic;
    }
    inandouthalf22
    {
        type            cyclic;
    }
    inandouthalf31
    {
        type            cyclic;
    }
    inandouthalf32
    {
        type            cyclic;
    }
    inandouthalf41
    {
        type            cyclic;
    }
    inandouthalf42
    {
        type            cyclic;
    }
    top
    {
        type            symmetryPlane;
    }
    walls
    {
        type            calculated;
        value           uniform (0 0 0);
    }
    frontAndBackPlanes
    {
        type            empty;
    }
}


// ************************************************************************* //
