/*--------------------------------*- C++ -*----------------------------------*\
| =========                 |                                                 |
| \\      /  F ield         | OpenFOAM: The Open Source CFD Toolbox           |
|  \\    /   O peration     | Version:  2.4.x                                 |
|   \\  /    A nd           | Web:      www.OpenFOAM.org                      |
|    \\/     M anipulation  |                                                 |
\*---------------------------------------------------------------------------*/
FoamFile
{
    version     2.0;
    format      ascii;
    class       volScalarField;
    location    "9.3";
    object      ddt0(((1.5*(alpha+1e-08))*rho),Theta);
}
// * * * * * * * * * * * * * * * * * * * * * * * * * * * * * * * * * * * * * //

dimensions      [1 -1 -3 0 0 0 0];

internalField   nonuniform List<scalar> 
360
(
-4.32499e-22
-1.45616e-21
-1.07008e-21
-1.04034e-21
-1.19415e-21
-1.3079e-21
-1.37009e-21
-1.42501e-21
-1.48691e-21
-1.55501e-21
-1.62664e-21
-1.69908e-21
-1.77089e-21
-1.84162e-21
-1.91125e-21
-1.97969e-21
-2.04621e-21
-2.10986e-21
-2.17019e-21
-2.22668e-21
-2.27862e-21
-2.32601e-21
-2.36859e-21
-2.40578e-21
-2.43723e-21
-2.46244e-21
-2.48133e-21
-2.49401e-21
-2.49982e-21
-2.49827e-21
-2.48969e-21
-2.47376e-21
-2.45038e-21
-2.42001e-21
-2.38216e-21
-2.33671e-21
-2.28439e-21
-2.22597e-21
-2.1611e-21
-2.08998e-21
-2.01411e-21
-1.93333e-21
-1.84816e-21
-1.76029e-21
-1.67002e-21
-1.57797e-21
-1.48461e-21
-1.39068e-21
-1.29815e-21
-1.20754e-21
-1.11862e-21
-1.03249e-21
-9.50004e-22
-8.71387e-22
-7.97159e-22
-7.2772e-22
-6.63165e-22
-6.03715e-22
-5.49353e-22
-5.00265e-22
-4.56671e-22
-4.18277e-22
-3.84844e-22
-3.56067e-22
-3.31586e-22
-3.11161e-22
-2.94532e-22
-2.81311e-22
-2.71071e-22
-2.63634e-22
-2.58885e-22
-2.5634e-22
-2.55561e-22
-2.56419e-22
-2.58663e-22
-2.61882e-22
-2.65706e-22
-2.69957e-22
-2.74554e-22
-2.79312e-22
-2.84093e-22
-2.88874e-22
-2.93594e-22
-2.9813e-22
-3.02363e-22
-3.0618e-22
-3.09459e-22
-3.12083e-22
-3.14008e-22
-3.15254e-22
-3.15846e-22
-3.15839e-22
-3.15297e-22
-3.14256e-22
-3.12716e-22
-3.10665e-22
-3.0808e-22
-3.04945e-22
-3.01259e-22
-2.97042e-22
-2.92331e-22
-2.87176e-22
-2.8164e-22
-2.75787e-22
-2.69691e-22
-2.63433e-22
-2.57108e-22
-2.5082e-22
-2.44679e-22
-2.38794e-22
-2.33254e-22
-2.28122e-22
-2.23405e-22
-2.19048e-22
-2.14906e-22
-2.10741e-22
-2.06217e-22
-2.00918e-22
-1.94387e-22
-1.86199e-22
-1.76065e-22
-1.63956e-22
-1.50219e-22
-1.35633e-22
-1.21341e-22
-1.08647e-22
7.33512e-23
1.45617e-16
1.18355e-15
8.25253e-15
5.5829e-14
3.65605e-13
2.25924e-12
1.22103e-11
4.02777e-11
-3.24682e-10
-1.12598e-08
-2.29878e-07
-4.59274e-06
-0.00013914
-0.00947136
-0.261495
-2.29507
-8.25151
-7.6246
-5.93555
-5.45273
-5.25919
-5.09142
-4.88344
-4.6117
-4.22327
-3.86161
-3.4949
-3.13087
-2.78078
-2.45441
-2.15565
-1.88703
-1.64703
-1.43361
-1.24459
-1.07724
-0.929135
-0.797893
-0.681847
-0.579136
-0.488346
-0.407992
-0.336951
-0.274016
-0.218356
-0.169212
-0.126028
-0.0884098
-0.0560685
-0.0286658
-0.00575552
0.0130968
0.0282362
0.0400257
0.0488569
0.0551459
0.0592796
0.0616147
0.0624549
0.0620657
0.0606756
0.0584832
0.0556629
0.0523688
0.0487379
0.0448914
0.0409362
0.0369652
0.0330578
0.0292806
0.0256876
0.0223199
0.019206
0.0163625
0.0137693
0.0114128
0.00930609
0.00746309
0.00589539
0.00460446
0.0035753
0.00277669
0.00216797
0.00170746
0.00135851
0.00109194
0.000885848
0.000724379
0.000596157
0.000493006
0.00040903
0.000339945
0.000282561
0.000234576
0.00019416
0.000160144
0.000131295
0.000106872
8.62146e-05
6.88741e-05
5.43696e-05
4.23684e-05
3.25021e-05
2.45257e-05
1.79608e-05
1.30404e-05
8.64643e-06
5.88074e-06
2.88891e-06
0
0
0
0
0
0
0
0
0
0
0
0
0
0
0
0
0
0
0
0
0
0
0
0
0
0
0
0
0
0
0
0
0
0
0
0
0
0
0
0
0
0
0
0
0
0
0
0
0
0
0
0
0
0
0
0
0
0
0
0
0
0
0
0
0
0
0
0
0
0
0
0
0
0
0
0
0
0
0
0
0
0
0
0
0
0
0
0
0
0
0
0
0
0
0
0
0
0
0
0
0
0
0
0
0
0
0
0
0
0
0
0
0
0
0
0
0
0
0
0
0
0
0
0
)
;

boundaryField
{
    inandouthalf11
    {
        type            cyclic;
    }
    inandouthalf12
    {
        type            cyclic;
    }
    inandouthalf21
    {
        type            cyclic;
    }
    inandouthalf22
    {
        type            cyclic;
    }
    inandouthalf31
    {
        type            cyclic;
    }
    inandouthalf32
    {
        type            cyclic;
    }
    inandouthalf41
    {
        type            cyclic;
    }
    inandouthalf42
    {
        type            cyclic;
    }
    top
    {
        type            symmetryPlane;
    }
    walls
    {
        type            calculated;
        value           uniform -4.32499e-22;
    }
    frontAndBackPlanes
    {
        type            empty;
    }
}


// ************************************************************************* //
