/*--------------------------------*- C++ -*----------------------------------*\
| =========                 |                                                 |
| \\      /  F ield         | OpenFOAM: The Open Source CFD Toolbox           |
|  \\    /   O peration     | Version:  2.4.x                                 |
|   \\  /    A nd           | Web:      www.OpenFOAM.org                      |
|    \\/     M anipulation  |                                                 |
\*---------------------------------------------------------------------------*/
FoamFile
{
    version     2.0;
    format      ascii;
    class       volScalarField;
    location    "9.3";
    object      epsilon;
}
// * * * * * * * * * * * * * * * * * * * * * * * * * * * * * * * * * * * * * //

dimensions      [0 2 -3 0 0 0 0];

internalField   nonuniform List<scalar> 
360
(
1e-20
1e-20
1e-20
1e-20
1e-20
1e-20
1e-20
1e-20
1e-20
1e-20
1e-20
1e-20
1e-20
1e-20
1e-20
1e-20
1e-20
1e-20
1e-20
1e-20
1e-20
1e-20
1e-20
1e-20
1e-20
1e-20
1e-20
1e-20
1e-20
1e-20
1e-20
1e-20
1e-20
1e-20
1e-20
1e-20
1e-20
1e-20
1e-20
1e-20
1e-20
1e-20
1e-20
1e-20
1e-20
1e-20
1e-20
1e-20
1e-20
1e-20
1e-20
1e-20
1e-20
1e-20
1e-20
1e-20
1e-20
1e-20
1e-20
1e-20
1e-20
1e-20
1e-20
1e-20
1e-20
1e-20
1e-20
1e-20
1e-20
1e-20
1e-20
1e-20
1e-20
1e-20
1e-20
1e-20
1e-20
1e-20
1e-20
1e-20
1e-20
1e-20
1e-20
1e-20
1e-20
1e-20
1e-20
1e-20
1e-20
1e-20
1e-20
1e-20
1e-20
1e-20
1e-20
1e-20
1e-20
1e-20
1e-20
1e-20
1e-20
1e-20
1e-20
1e-20
1e-20
1e-20
1e-20
1e-20
1e-20
1e-20
1e-20
1e-20
1e-20
1e-20
1e-20
1e-20
1e-20
1e-20
1e-20
1e-20
1e-20
1e-20
1e-20
1e-20
1e-20
1e-20
1e-20
2.18361e-20
1.59101e-19
1.35392e-18
1.18492e-17
1.06722e-16
9.99167e-16
9.85397e-15
1.04115e-13
1.20374e-12
1.56207e-11
2.34019e-10
4.16272e-09
9.01431e-08
2.42353e-06
8.13602e-05
0.00291823
0.0513449
0.20004
0.275108
0.302714
0.310322
0.308692
0.302584
0.29426
0.284833
0.274871
0.264702
0.254535
0.244508
0.234709
0.225189
0.215978
0.207088
0.198522
0.190277
0.182344
0.174712
0.167371
0.160307
0.153508
0.14696
0.140652
0.134571
0.128707
0.123048
0.117586
0.112309
0.10721
0.10228
0.0975113
0.0928974
0.0884314
0.0841075
0.0799201
0.0758643
0.0719358
0.0681304
0.0644448
0.0608757
0.0574204
0.0540767
0.0508424
0.0477161
0.0446965
0.0417826
0.0389739
0.0362699
0.0336708
0.0311767
0.0287881
0.0265056
0.0243302
0.0222628
0.0203045
0.0184374
0.0166491
0.0149467
0.0133375
0.0118284
0.0104258
0.00913512
0.00796046
0.00690403
0.00596586
0.00514348
0.00443191
0.00382386
0.0033102
0.00288056
0.00252411
0.00223017
0.00198874
0.00179086
0.00162876
0.00149585
0.00138666
0.0012967
0.00122231
0.00116053
0.00110894
0.00106558
0.00102885
0.0009974
0.000970144
0.000946152
0.000924642
0.000904946
0.000886492
0.000868787
0.0008514
0.000833961
0.000816146
0.000797676
0.000778312
0.000757853
0.00073613
0.00071301
0.000688393
0.000662211
0.000634429
0.000605046
0.000574095
0.000541644
0.0005078
0.000472705
0.000436544
0.000399541
0.000361963
0.000324119
0.000286362
0.000249086
0.000212723
0.000177736
0.000144616
0.000113863
8.59741e-05
6.14185e-05
4.0612e-05
2.38899e-05
1.14871e-05
3.49143e-06
3.59123e-07
7.91112e-09
9.12894e-11
9.96235e-13
1.05622e-14
1.09252e-16
1.1152e-18
1.93124e-20
1e-20
1e-20
1e-20
1e-20
1e-20
1e-20
1e-20
1e-20
1e-20
1e-20
1e-20
1e-20
1e-20
1e-20
1e-20
1e-20
1e-20
1e-20
1e-20
1e-20
1e-20
1e-20
1e-20
1e-20
1e-20
1e-20
1e-20
1e-20
1e-20
1e-20
1e-20
1e-20
1e-20
1e-20
1e-20
1e-20
1e-20
1e-20
1e-20
1e-20
1e-20
1e-20
1e-20
1e-20
1e-20
1e-20
1e-20
1e-20
1e-20
1e-20
1e-20
1e-20
1e-20
1e-20
1e-20
1e-20
1e-20
1e-20
1e-20
1e-20
1e-20
1e-20
1e-20
1e-20
1e-20
1e-20
1e-20
1e-20
1e-20
1e-20
1e-20
1e-20
1e-20
1e-20
1e-20
1e-20
1e-20
1e-20
1e-20
1e-20
1e-20
1e-20
1e-20
1e-20
)
;

boundaryField
{
    inandouthalf11
    {
        type            cyclic;
    }
    inandouthalf12
    {
        type            cyclic;
    }
    inandouthalf21
    {
        type            cyclic;
    }
    inandouthalf22
    {
        type            cyclic;
    }
    inandouthalf31
    {
        type            cyclic;
    }
    inandouthalf32
    {
        type            cyclic;
    }
    inandouthalf41
    {
        type            cyclic;
    }
    inandouthalf42
    {
        type            cyclic;
    }
    top
    {
        type            symmetryPlane;
    }
    walls
    {
        type            zeroGradient;
    }
    frontAndBackPlanes
    {
        type            empty;
    }
}


// ************************************************************************* //
