/*--------------------------------*- C++ -*----------------------------------*\
| =========                 |                                                 |
| \\      /  F ield         | OpenFOAM: The Open Source CFD Toolbox           |
|  \\    /   O peration     | Version:  2.4.x                                 |
|   \\  /    A nd           | Web:      www.OpenFOAM.org                      |
|    \\/     M anipulation  |                                                 |
\*---------------------------------------------------------------------------*/
FoamFile
{
    version     2.0;
    format      ascii;
    class       volScalarField;
    location    "9.3";
    object      epsilon_0;
}
// * * * * * * * * * * * * * * * * * * * * * * * * * * * * * * * * * * * * * //

dimensions      [0 2 -3 0 0 0 0];

internalField   nonuniform List<scalar> 
360
(
1.60309e-27
1e-20
1e-20
1e-20
1e-20
1e-20
1e-20
1e-20
1e-20
1e-20
1e-20
1e-20
1e-20
1e-20
1e-20
1e-20
1e-20
1e-20
1e-20
1e-20
1e-20
1e-20
1e-20
1e-20
1e-20
1e-20
1e-20
1e-20
1e-20
1e-20
1e-20
1e-20
1e-20
1e-20
1e-20
1e-20
1e-20
1e-20
1e-20
1e-20
1e-20
1e-20
1e-20
1e-20
1e-20
1e-20
1e-20
1e-20
1e-20
1e-20
1e-20
1e-20
1e-20
1e-20
1e-20
1e-20
1e-20
1e-20
1e-20
1e-20
1e-20
1e-20
1e-20
1e-20
1e-20
1e-20
1e-20
1e-20
1e-20
1e-20
1e-20
1e-20
1e-20
1e-20
1e-20
1e-20
1e-20
1e-20
1e-20
1e-20
1e-20
1e-20
1e-20
1e-20
1e-20
1e-20
1e-20
1e-20
1e-20
1e-20
1e-20
1e-20
1e-20
1e-20
1e-20
1e-20
1e-20
1e-20
1e-20
1e-20
1e-20
1e-20
1e-20
1e-20
1e-20
1e-20
1e-20
1e-20
1e-20
1e-20
1e-20
1e-20
1e-20
1e-20
1e-20
1e-20
1e-20
1e-20
1e-20
1e-20
1e-20
1e-20
1e-20
1e-20
1e-20
1e-20
1e-20
2.18065e-20
1.58858e-19
1.35211e-18
1.18361e-17
1.0663e-16
9.98577e-16
9.85104e-15
1.04116e-13
1.20414e-12
1.56308e-11
2.34242e-10
4.16787e-09
9.02779e-08
2.4277e-06
8.15142e-05
0.00292347
0.0514079
0.200129
0.275179
0.302783
0.310394
0.308764
0.302657
0.294333
0.284904
0.274941
0.26477
0.254601
0.244571
0.234769
0.225247
0.216032
0.207139
0.198571
0.190322
0.182386
0.174752
0.167408
0.160341
0.153539
0.146989
0.140678
0.134595
0.128729
0.123068
0.117603
0.112324
0.107223
0.102291
0.0975211
0.0929055
0.088438
0.0841125
0.0799237
0.0758666
0.0719368
0.0681303
0.0644435
0.0608734
0.0574172
0.0540725
0.0508375
0.0477105
0.0446902
0.0417757
0.0389664
0.036262
0.0336625
0.031168
0.0287792
0.0264965
0.024321
0.0222536
0.0202953
0.0184283
0.0166402
0.0149381
0.0133293
0.0118206
0.0104184
0.00912831
0.00795424
0.00689845
0.00596093
0.00513919
0.00442824
0.00382078
0.00330764
0.00287848
0.00252243
0.00222883
0.00198768
0.00179004
0.00162814
0.00149538
0.00138631
0.00129645
0.00122214
0.00116043
0.00110889
0.00106557
0.00102887
0.000997446
0.000970211
0.000946235
0.000924737
0.000905051
0.000886604
0.000868902
0.000851517
0.000834078
0.000816262
0.00079779
0.000778423
0.000757958
0.000736229
0.000713103
0.000688479
0.00066229
0.0006345
0.000605109
0.000574149
0.00054169
0.000507838
0.000472735
0.000436566
0.000399555
0.000361969
0.000324119
0.000286356
0.000249075
0.000212707
0.000177717
0.000144595
0.000113841
8.59529e-05
6.13988e-05
4.05948e-05
2.38761e-05
1.14773e-05
3.48606e-06
3.58091e-07
7.8789e-09
9.09107e-11
9.92134e-13
1.05192e-14
1.08813e-16
1.11084e-18
1.92707e-20
1e-20
1e-20
1e-20
1e-20
1e-20
1e-20
1e-20
1e-20
1e-20
1e-20
1e-20
1e-20
1e-20
1e-20
1e-20
1e-20
1e-20
1e-20
1e-20
1e-20
1e-20
1e-20
1e-20
1e-20
1e-20
1e-20
1e-20
1e-20
1e-20
1e-20
1e-20
1e-20
1e-20
1e-20
1e-20
1e-20
1e-20
1e-20
1e-20
1e-20
1e-20
1e-20
1e-20
1e-20
1e-20
1e-20
1e-20
1e-20
1e-20
1e-20
1e-20
1e-20
1e-20
1e-20
1e-20
1e-20
1e-20
1e-20
1e-20
1e-20
1e-20
1e-20
1e-20
1e-20
1e-20
1e-20
1e-20
1e-20
1e-20
1e-20
1e-20
1e-20
1e-20
1e-20
1e-20
1e-20
1e-20
1e-20
1e-20
1e-20
1e-20
1e-20
1e-20
1e-20
)
;

boundaryField
{
    inandouthalf11
    {
        type            cyclic;
    }
    inandouthalf12
    {
        type            cyclic;
    }
    inandouthalf21
    {
        type            cyclic;
    }
    inandouthalf22
    {
        type            cyclic;
    }
    inandouthalf31
    {
        type            cyclic;
    }
    inandouthalf32
    {
        type            cyclic;
    }
    inandouthalf41
    {
        type            cyclic;
    }
    inandouthalf42
    {
        type            cyclic;
    }
    top
    {
        type            symmetryPlane;
    }
    walls
    {
        type            zeroGradient;
    }
    frontAndBackPlanes
    {
        type            empty;
    }
}


// ************************************************************************* //
