/*--------------------------------*- C++ -*----------------------------------*\
| =========                 |                                                 |
| \\      /  F ield         | OpenFOAM: The Open Source CFD Toolbox           |
|  \\    /   O peration     | Version:  2.4.x                                 |
|   \\  /    A nd           | Web:      www.OpenFOAM.org                      |
|    \\/     M anipulation  |                                                 |
\*---------------------------------------------------------------------------*/
FoamFile
{
    version     2.0;
    format      ascii;
    class       volVectorField;
    location    "9.3";
    object      gradPf;
}
// * * * * * * * * * * * * * * * * * * * * * * * * * * * * * * * * * * * * * //

dimensions      [0 1 -2 0 0 0 0];

internalField   nonuniform List<vector> 
360
(
(0 71.1083 0)
(0 79.8131 0)
(0 0.328711 0)
(0 -12.4501 0)
(-3.34421e-14 -5.22605 0)
(-3.34429e-14 -2.81018 0)
(-3.34438e-14 -3.56474 0)
(0 -4.05825 0)
(-3.34462e-14 -4.11453 0)
(0 -4.13392 0)
(-3.34487e-14 -4.12717 0)
(0 -4.11891 0)
(-3.34512e-14 -4.12825 0)
(0 -4.13806 0)
(0 -4.15878 0)
(0 -4.17928 0)
(0 -4.18887 0)
(-3.34578e-14 -4.19383 0)
(0 -4.21543 0)
(0 -4.22096 0)
(0 -4.22708 0)
(-3.34633e-14 -4.24864 0)
(0 -4.25471 0)
(0 -4.26609 0)
(0 -4.27768 0)
(-3.34691e-14 -4.27981 0)
(0 -4.29441 0)
(0 -4.30999 0)
(0 -4.31013 0)
(0 -4.31551 0)
(0 -4.3366 0)
(0 -4.32925 0)
(0 -4.34401 0)
(0 -4.35929 0)
(0 -4.35344 0)
(1.67423e-14 -4.36168 0)
(0 -4.36658 0)
(0 -4.39252 0)
(0 -4.37254 0)
(0 -4.38353 0)
(0 -4.41281 0)
(0 -4.38407 0)
(1.67482e-14 -4.40423 0)
(0 -4.4183 0)
(0 -4.40982 0)
(0 -4.43245 0)
(0 -4.41487 0)
(0 -4.41189 0)
(0 -4.45491 0)
(0 -4.43877 0)
(1.67555e-14 -4.43069 0)
(0 -4.4496 0)
(0 -4.45421 0)
(0 -4.44758 0)
(0 -4.46196 0)
(0 -4.46433 0)
(0 -4.46231 0)
(0 -4.4804 0)
(0 -4.45651 0)
(0 -4.47989 0)
(0 -4.48647 0)
(0 -4.48176 0)
(0 -4.49573 0)
(0 -4.49111 0)
(0 -4.49291 0)
(0 -4.49808 0)
(0 -4.51074 0)
(0 -4.50966 0)
(0 -4.49618 0)
(0 -4.51058 0)
(0 -4.53719 0)
(0 -4.51446 0)
(0 -4.51611 0)
(0 -4.53423 0)
(0 -4.5391 0)
(0 -4.53902 0)
(0 -4.53105 0)
(0 -4.54149 0)
(0 -4.54872 0)
(0 -4.54639 0)
(0 -4.54805 0)
(0 -4.55699 0)
(0 -4.55987 0)
(0 -4.56291 0)
(0 -4.56614 0)
(0 -4.56977 0)
(0 -4.57204 0)
(0 -4.57181 0)
(0 -4.57469 0)
(0 -4.57774 0)
(0 -4.57938 0)
(0 -4.58258 0)
(0 -4.58653 0)
(0 -4.58922 0)
(0 -4.5916 0)
(0 -4.59367 0)
(0 -4.59511 0)
(0 -4.59615 0)
(0 -4.59723 0)
(0 -4.59826 0)
(0 -4.59913 0)
(0 -4.60001 0)
(0 -4.60069 0)
(0 -4.60091 0)
(0 -4.60066 0)
(0 -4.59988 0)
(0 -4.59853 0)
(0 -4.59658 0)
(0 -4.59399 0)
(0 -4.5907 0)
(0 -4.58665 0)
(0 -4.58177 0)
(0 -4.57603 0)
(0 -4.5694 0)
(0 -4.56189 0)
(0 -4.55351 0)
(0 -4.54429 0)
(0 -4.53431 0)
(0 -4.52361 0)
(0 -4.51223 0)
(0 -4.50012 0)
(0 -4.48712 0)
(0 -4.47297 0)
(0 -4.45749 0)
(0 -4.44088 0)
(0 -4.42395 0)
(0 -4.40806 0)
(0 -4.39413 0)
(0 -4.38109 0)
(0 -4.36506 0)
(0 -4.34271 0)
(0 -4.3198 0)
(0 -4.31388 0)
(0 -4.33329 0)
(0 -4.35077 0)
(0 -4.33251 0)
(0 -4.30924 0)
(0 -4.38235 0)
(0 -4.59535 0)
(0 -4.72358 0)
(0 -4.703 0)
(0 -21.1083 0)
(0 -24.3539 0)
(0 -7.03548 0)
(0 0 0)
(0 0 0)
(0 0 0)
(0 0 0)
(0 0 0)
(0 0 0)
(0 0 0)
(0 0 0)
(0 0 0)
(0 0 0)
(0 0 0)
(0 0 0)
(0 0 0)
(0 0 0)
(0 0 0)
(0 0 0)
(0 0 0)
(0 0 0)
(0 0 0)
(0 0 0)
(0 0 0)
(0 0 0)
(0 0 0)
(0 0 0)
(0 0 0)
(0 0 0)
(0 0 0)
(0 0 0)
(0 0 0)
(0 0 0)
(0 0 0)
(0 0 0)
(0 0 0)
(0 0 0)
(0 0 0)
(0 0 0)
(0 0 0)
(0 0 0)
(0 0 0)
(0 0 0)
(0 0 0)
(0 0 0)
(0 0 0)
(0 0 0)
(0 0 0)
(0 0 0)
(0 0 0)
(0 0 0)
(0 0 0)
(0 0 0)
(0 0 0)
(0 0 0)
(0 0 0)
(0 0 0)
(0 0 0)
(0 0 0)
(0 0 0)
(0 0 0)
(0 0 0)
(0 0 0)
(0 0 0)
(0 0 0)
(0 0 0)
(0 0 0)
(0 0 0)
(0 0 0)
(0 0 0)
(0 0 0)
(0 0 0)
(0 0 0)
(0 0 0)
(0 0 0)
(0 0 0)
(0 0 0)
(0 0 0)
(0 0 0)
(0 0 0)
(0 0 0)
(0 0 0)
(0 0 0)
(0 0 0)
(0 0 0)
(0 0 0)
(0 0 0)
(0 0 0)
(0 0 0)
(0 0 0)
(0 0 0)
(0 0 0)
(0 0 0)
(0 0 0)
(0 0 0)
(0 0 0)
(0 0 0)
(0 0 0)
(0 0 0)
(0 0 0)
(0 0 0)
(0 0 0)
(0 0 0)
(0 0 0)
(0 0 0)
(0 0 0)
(0 0 0)
(0 0 0)
(0 0 0)
(0 0 0)
(0 0 0)
(0 0 0)
(0 0 0)
(0 0 0)
(0 0 0)
(0 0 0)
(0 0 0)
(0 0 0)
(0 0 0)
(0 0 0)
(0 0 0)
(0 0 0)
(0 0 0)
(0 0 0)
(0 0 0)
(0 0 0)
(0 0 0)
(0 0 0)
(0 0 0)
(0 0 0)
(0 0 0)
(0 0 0)
(0 0 0)
(0 0 0)
(0 0 0)
(0 0 0)
(0 0 0)
(0 0 0)
(0 0 0)
(0 0 0)
(0 0 0)
(0 0 0)
(0 0 0)
(0 0 0)
(0 0 0)
(0 0 0)
(0 0 0)
(0 0 0)
(0 0 0)
(0 0 0)
(0 0 0)
(0 0 0)
(0 0 0)
(0 0 0)
(0 0 0)
(0 0 0)
(0 0 0)
(0 0 0)
(0 0 0)
(0 0 0)
(0 0 0)
(0 0 0)
(0 0 0)
(0 0 0)
(0 0 0)
(0 0 0)
(0 0 0)
(0 0 0)
(0 0 0)
(0 0 0)
(0 0 0)
(0 0 0)
(0 0 0)
(0 0 0)
(0 0 0)
(0 0 0)
(0 0 0)
(0 0 0)
(0 0 0)
(0 0 0)
(0 0 0)
(0 0 0)
(0 0 0)
(0 0 0)
(0 0 0)
(0 0 0)
(0 0 0)
(0 0 0)
(0 0 0)
(0 0 0)
(0 0 0)
(0 0 0)
(0 0 0)
(0 0 0)
(0 0 0)
(0 0 0)
(0 0 0)
(0 0 0)
(0 0 0)
(0 0 0)
(0 0 0)
(0 0 0)
(0 0 0)
(0 0 0)
(0 0 0)
(0 0 0)
(0 0 0)
(0 0 0)
(0 0 0)
(0 0 0)
(0 0 0)
(0 0 0)
(0 0 0)
(0 0 0)
(0 0 0)
(0 0 0)
(0 0 0)
(0 0 0)
(0 0 0)
)
;

boundaryField
{
    inandouthalf11
    {
        type            cyclic;
    }
    inandouthalf12
    {
        type            cyclic;
    }
    inandouthalf21
    {
        type            cyclic;
    }
    inandouthalf22
    {
        type            cyclic;
    }
    inandouthalf31
    {
        type            cyclic;
    }
    inandouthalf32
    {
        type            cyclic;
    }
    inandouthalf41
    {
        type            cyclic;
    }
    inandouthalf42
    {
        type            cyclic;
    }
    top
    {
        type            symmetryPlane;
    }
    walls
    {
        type            calculated;
        value           uniform (0 0 0);
    }
    frontAndBackPlanes
    {
        type            empty;
    }
}


// ************************************************************************* //
