/*--------------------------------*- C++ -*----------------------------------*\
| =========                 |                                                 |
| \\      /  F ield         | OpenFOAM: The Open Source CFD Toolbox           |
|  \\    /   O peration     | Version:  2.4.x                                 |
|   \\  /    A nd           | Web:      www.OpenFOAM.org                      |
|    \\/     M anipulation  |                                                 |
\*---------------------------------------------------------------------------*/
FoamFile
{
    version     2.0;
    format      ascii;
    class       volScalarField;
    location    "9.3";
    object      k;
}
// * * * * * * * * * * * * * * * * * * * * * * * * * * * * * * * * * * * * * //

dimensions      [0 2 -2 0 0 0 0];

internalField   nonuniform List<scalar> 
360
(
1e-20
1e-20
1e-20
1e-20
1e-20
1e-20
1e-20
1e-20
1e-20
1e-20
1e-20
1e-20
1e-20
1e-20
1e-20
1e-20
1e-20
1e-20
1e-20
1e-20
1e-20
1e-20
1e-20
1e-20
1e-20
1e-20
1e-20
1e-20
1e-20
1e-20
1e-20
1e-20
1e-20
1e-20
1e-20
1e-20
1e-20
1e-20
1e-20
1e-20
1e-20
1e-20
1e-20
1e-20
1e-20
1e-20
1e-20
1e-20
1e-20
1e-20
1e-20
1e-20
1e-20
1e-20
1e-20
1e-20
1e-20
1e-20
1e-20
1e-20
1e-20
1e-20
1e-20
1e-20
1e-20
1e-20
1e-20
1e-20
1e-20
1e-20
1e-20
1e-20
1e-20
1e-20
1e-20
1e-20
1e-20
1e-20
1e-20
1e-20
1e-20
1e-20
1e-20
1e-20
1e-20
1e-20
1e-20
1e-20
1e-20
1e-20
1e-20
1e-20
1e-20
1e-20
1e-20
1e-20
1e-20
1e-20
1e-20
1e-20
1e-20
1e-20
1e-20
1e-20
1e-20
1e-20
1e-20
1e-20
1e-20
1e-20
1e-20
1e-20
1e-20
1e-20
1e-20
1e-20
1e-20
1e-20
1e-20
1e-20
1e-20
1e-20
1e-20
1e-20
1e-20
1e-20
1e-20
1.44367e-20
8.98565e-20
6.96425e-19
5.51747e-18
4.44863e-17
3.68056e-16
3.16106e-15
2.86142e-14
2.78448e-13
2.98644e-12
3.63493e-11
5.17646e-10
8.8712e-09
1.87128e-07
4.88667e-06
0.000131099
0.00173107
0.00587598
0.00882042
0.0107464
0.012111
0.0131285
0.0139125
0.0145285
0.0150155
0.0154047
0.0157193
0.0159721
0.0161723
0.0163271
0.0164421
0.0165217
0.0165693
0.0165878
0.0165793
0.0165458
0.0164887
0.0164095
0.0163093
0.0161891
0.0160501
0.015893
0.0157188
0.0155284
0.0153226
0.0151021
0.0148677
0.0146202
0.0143602
0.0140886
0.0138059
0.0135128
0.0132099
0.0128979
0.0125774
0.0122492
0.0119139
0.0115722
0.0112248
0.0108725
0.0105159
0.0101559
0.00979303
0.00942823
0.00906221
0.00869578
0.00832979
0.00796509
0.00760257
0.00724318
0.00688789
0.00653772
0.00619371
0.00585696
0.00552526
0.00519687
0.00487358
0.00455734
0.00425027
0.00395455
0.00367242
0.00340606
0.00315747
0.00292836
0.00272
0.00253309
0.00236773
0.00222337
0.00209888
0.0019927
0.00190297
0.0018277
0.00176492
0.00171275
0.00166948
0.00163361
0.00160382
0.00157897
0.0015581
0.00154039
0.00152511
0.00151165
0.00149948
0.00148811
0.00147713
0.00146615
0.00145483
0.00144285
0.00142993
0.0014158
0.0014002
0.00138292
0.00136375
0.00134249
0.00131897
0.00129303
0.00126454
0.00123337
0.00119944
0.00116267
0.001123
0.00108042
0.00103493
0.000986573
0.00093542
0.00088159
0.000825242
0.000766587
0.000705893
0.000643489
0.000579774
0.000515224
0.000450398
0.000385945
0.00032261
0.000261241
0.000202788
0.000148316
9.90257e-05
5.63244e-05
2.18537e-05
2.94685e-06
7.47893e-08
8.7637e-10
9.65339e-12
1.03406e-13
1.08144e-15
1.10973e-17
1.18804e-19
1.01746e-20
1e-20
1e-20
1e-20
1e-20
1e-20
1e-20
1e-20
1e-20
1e-20
1e-20
1e-20
1e-20
1e-20
1e-20
1e-20
1e-20
1e-20
1e-20
1e-20
1e-20
1e-20
1e-20
1e-20
1e-20
1e-20
1e-20
1e-20
1e-20
1e-20
1e-20
1e-20
1e-20
1e-20
1e-20
1e-20
1e-20
1e-20
1e-20
1e-20
1e-20
1e-20
1e-20
1e-20
1e-20
1e-20
1e-20
1e-20
1e-20
1e-20
1e-20
1e-20
1e-20
1e-20
1e-20
1e-20
1e-20
1e-20
1e-20
1e-20
1e-20
1e-20
1e-20
1e-20
1e-20
1e-20
1e-20
1e-20
1e-20
1e-20
1e-20
1e-20
1e-20
1e-20
1e-20
1e-20
1e-20
1e-20
1e-20
1e-20
1e-20
1e-20
1e-20
1e-20
)
;

boundaryField
{
    inandouthalf11
    {
        type            cyclic;
    }
    inandouthalf12
    {
        type            cyclic;
    }
    inandouthalf21
    {
        type            cyclic;
    }
    inandouthalf22
    {
        type            cyclic;
    }
    inandouthalf31
    {
        type            cyclic;
    }
    inandouthalf32
    {
        type            cyclic;
    }
    inandouthalf41
    {
        type            cyclic;
    }
    inandouthalf42
    {
        type            cyclic;
    }
    top
    {
        type            symmetryPlane;
    }
    walls
    {
        type            zeroGradient;
    }
    frontAndBackPlanes
    {
        type            empty;
    }
}


// ************************************************************************* //
