/*--------------------------------*- C++ -*----------------------------------*\
| =========                 |                                                 |
| \\      /  F ield         | OpenFOAM: The Open Source CFD Toolbox           |
|  \\    /   O peration     | Version:  2.4.x                                 |
|   \\  /    A nd           | Web:      www.OpenFOAM.org                      |
|    \\/     M anipulation  |                                                 |
\*---------------------------------------------------------------------------*/
FoamFile
{
    version     2.0;
    format      ascii;
    class       volScalarField;
    location    "9.3";
    object      p;
}
// * * * * * * * * * * * * * * * * * * * * * * * * * * * * * * * * * * * * * //

dimensions      [1 -1 -2 0 0 0 0];

internalField   nonuniform List<scalar> 
360
(
4908.36
4903.46
4898.55
4893.65
4888.74
4883.84
4878.93
4874.03
4869.12
4864.21
4859.31
4854.4
4849.49
4844.59
4839.68
4834.77
4829.87
4824.96
4820.05
4815.15
4810.24
4805.33
4800.42
4795.51
4790.61
4785.7
4780.79
4775.88
4770.97
4766.06
4761.15
4756.24
4751.33
4746.42
4741.51
4736.6
4731.69
4726.78
4721.87
4716.96
4712.05
4707.14
4702.23
4697.31
4692.4
4687.49
4682.58
4677.67
4672.75
4667.84
4662.93
4658.01
4653.1
4648.19
4643.27
4638.36
4633.44
4628.53
4623.62
4618.7
4613.79
4608.87
4603.96
4599.04
4594.13
4589.21
4584.29
4579.38
4574.46
4569.55
4564.63
4559.71
4554.8
4549.88
4544.96
4540.05
4535.13
4530.21
4525.3
4520.38
4515.46
4510.54
4505.63
4500.71
4495.79
4490.87
4485.95
4481.04
4476.12
4471.2
4466.28
4461.36
4456.44
4451.52
4446.61
4441.69
4436.77
4431.85
4426.93
4422.01
4417.09
4412.17
4407.25
4402.33
4397.41
4392.49
4387.57
4382.65
4377.73
4372.81
4367.89
4362.97
4358.05
4353.13
4348.21
4343.29
4338.37
4333.45
4328.53
4323.61
4318.69
4313.77
4308.85
4303.93
4299.01
4294.09
4289.17
4284.25
4279.33
4274.41
4269.49
4264.57
4259.65
4254.73
4249.81
4244.89
4239.97
4235.05
4230.13
4225.21
4220.29
4215.37
4210.34
4202.8
4192.04
4183.31
4175.75
4168.77
4162.13
4155.71
4149.48
4143.41
4137.4
4131.47
4125.62
4119.84
4114.14
4108.52
4102.96
4097.46
4092.03
4086.66
4081.34
4076.08
4070.87
4065.7
4060.58
4055.49
4050.45
4045.44
4040.46
4035.51
4030.59
4025.69
4020.82
4015.97
4011.14
4006.33
4001.53
3996.76
3991.99
3987.24
3982.49
3977.76
3973.04
3968.33
3963.62
3958.92
3954.23
3949.54
3944.86
3940.18
3935.5
3930.82
3926.14
3921.47
3916.79
3912.11
3907.43
3902.75
3898.06
3893.32
3888.48
3883.54
3878.48
3873.31
3868.03
3862.62
3857.09
3851.44
3845.65
3839.73
3833.68
3827.48
3821.14
3814.66
3808.03
3801.26
3794.34
3787.27
3780.04
3772.66
3765.13
3757.44
3749.59
3741.58
3733.41
3725.06
3716.55
3707.86
3698.99
3689.94
3680.71
3671.3
3661.69
3651.88
3641.88
3631.68
3621.27
3610.65
3599.82
3588.76
3577.49
3565.98
3554.25
3542.28
3530.06
3517.6
3504.89
3491.92
3478.69
3465.19
3451.42
3437.37
3423.04
3408.41
3393.49
3378.27
3362.74
3346.89
3330.72
3314.22
3297.38
3280.19
3262.66
3244.76
3226.5
3207.86
3188.83
3169.4
3149.58
3129.35
3108.72
3087.66
3066.18
3044.26
3021.9
2999.08
2975.8
2952.05
2927.81
2903.09
2877.86
2852.12
2825.86
2799.06
2771.72
2743.82
2715.36
2686.32
2656.7
2626.47
2595.62
2564.15
2532.05
2499.29
2465.86
2431.76
2396.96
2361.46
2325.24
2288.28
2250.57
2212.1
2172.85
2132.8
2091.93
2050.24
2007.7
1964.3
1922.76
1883.52
1844.28
1805.04
1765.8
1726.56
1687.32
1648.08
1608.84
1569.6
1530.36
1491.12
1451.88
1412.64
1373.4
1334.16
1294.92
1255.68
1216.44
1177.2
1137.96
1098.72
1059.48
1020.24
981
941.76
902.52
863.28
824.04
784.8
745.56
706.32
667.08
627.84
588.6
549.36
510.12
470.88
431.64
392.4
353.16
313.92
274.68
235.44
196.2
156.96
117.72
78.48
39.24
1.75928e-07
)
;

boundaryField
{
    inandouthalf11
    {
        type            cyclic;
    }
    inandouthalf12
    {
        type            cyclic;
    }
    inandouthalf21
    {
        type            cyclic;
    }
    inandouthalf22
    {
        type            cyclic;
    }
    inandouthalf31
    {
        type            cyclic;
    }
    inandouthalf32
    {
        type            cyclic;
    }
    inandouthalf41
    {
        type            cyclic;
    }
    inandouthalf42
    {
        type            cyclic;
    }
    top
    {
        type            symmetryPlane;
    }
    walls
    {
        type            slip;
    }
    frontAndBackPlanes
    {
        type            empty;
    }
}


// ************************************************************************* //
