/*--------------------------------*- C++ -*----------------------------------*\
| =========                 |                                                 |
| \\      /  F ield         | OpenFOAM: The Open Source CFD Toolbox           |
|  \\    /   O peration     | Version:  2.4.x                                 |
|   \\  /    A nd           | Web:      www.OpenFOAM.org                      |
|    \\/     M anipulation  |                                                 |
\*---------------------------------------------------------------------------*/
FoamFile
{
    version     2.0;
    format      ascii;
    class       surfaceScalarField;
    location    "9.3";
    object      phia;
}
// * * * * * * * * * * * * * * * * * * * * * * * * * * * * * * * * * * * * * //

dimensions      [0 3 -1 0 0 0 0];

internalField   nonuniform List<scalar> 
359
(
-5.65382e-14
-1.41542e-13
-2.19853e-13
-2.94969e-13
-3.72379e-13
-4.51932e-13
-5.32615e-13
-6.14307e-13
-6.97276e-13
-7.81828e-13
-8.68156e-13
-9.56337e-13
-1.04643e-12
-1.13844e-12
-1.23242e-12
-1.32836e-12
-1.42628e-12
-1.52614e-12
-1.62792e-12
-1.7316e-12
-1.83708e-12
-1.94436e-12
-2.05335e-12
-2.16401e-12
-2.27627e-12
-2.39005e-12
-2.50527e-12
-2.62188e-12
-2.73978e-12
-2.85888e-12
-2.9791e-12
-3.10037e-12
-3.22254e-12
-3.34559e-12
-3.46935e-12
-3.59376e-12
-3.71868e-12
-3.84403e-12
-3.96973e-12
-4.0956e-12
-4.2216e-12
-4.34759e-12
-4.47343e-12
-4.59908e-12
-4.72439e-12
-4.84928e-12
-4.97365e-12
-5.09734e-12
-5.2203e-12
-5.3425e-12
-5.46375e-12
-5.58405e-12
-5.70327e-12
-5.82139e-12
-5.93829e-12
-6.05398e-12
-6.16834e-12
-6.28137e-12
-6.393e-12
-6.50314e-12
-6.61188e-12
-6.71911e-12
-6.82488e-12
-6.92913e-12
-7.03188e-12
-7.13309e-12
-7.23277e-12
-7.33093e-12
-7.42753e-12
-7.52258e-12
-7.61613e-12
-7.7082e-12
-7.79876e-12
-7.88787e-12
-7.97554e-12
-8.06181e-12
-8.14664e-12
-8.23005e-12
-8.31206e-12
-8.39269e-12
-8.47193e-12
-8.54982e-12
-8.62639e-12
-8.70166e-12
-8.77565e-12
-8.84838e-12
-8.91986e-12
-8.99008e-12
-9.05904e-12
-9.12676e-12
-9.19323e-12
-9.25847e-12
-9.32249e-12
-9.38529e-12
-9.44691e-12
-9.50734e-12
-9.56659e-12
-9.62467e-12
-9.68158e-12
-9.73732e-12
-9.7919e-12
-9.84532e-12
-9.89758e-12
-9.9487e-12
-9.99867e-12
-1.00475e-11
-1.00952e-11
-1.01419e-11
-1.01874e-11
-1.02318e-11
-1.02751e-11
-1.03174e-11
-1.03586e-11
-1.03988e-11
-1.0438e-11
-1.04762e-11
-1.05133e-11
-1.05494e-11
-1.05845e-11
-1.06184e-11
-1.06511e-11
-1.06825e-11
-1.07125e-11
-1.07409e-11
-1.07676e-11
-1.07924e-11
-1.08155e-11
-1.08369e-11
-1.08566e-11
-1.0875e-11
-1.08923e-11
-1.09087e-11
-1.09244e-11
-1.09392e-11
-1.09526e-11
-1.09638e-11
-1.09718e-11
-1.09763e-11
-1.09781e-11
-1.09784e-11
-1.09783e-11
-1.09757e-11
-9.49583e-11
-1.85271e-09
-2.90807e-09
-3.55696e-09
-4.0487e-09
-4.47895e-09
-4.87376e-09
-5.2365e-09
-5.55905e-09
-5.84258e-09
-6.08839e-09
-6.27212e-09
-6.38463e-09
-6.4216e-09
-6.38178e-09
-6.26597e-09
-6.07688e-09
-5.81838e-09
-5.49534e-09
-5.11357e-09
-4.67946e-09
-4.19991e-09
-3.68215e-09
-3.13371e-09
-2.56208e-09
-1.97467e-09
-1.37845e-09
-7.79841e-10
-1.84209e-10
4.03704e-10
9.82238e-10
1.55346e-09
2.12754e-09
2.72659e-09
3.38409e-09
4.13532e-09
5.00478e-09
6.00246e-09
7.12709e-09
8.37013e-09
9.71873e-09
1.11579e-08
1.26723e-08
1.42474e-08
1.58702e-08
1.75299e-08
1.92173e-08
2.09249e-08
2.26463e-08
2.43754e-08
2.61061e-08
2.78317e-08
2.95443e-08
3.12351e-08
3.28937e-08
3.45084e-08
3.60652e-08
3.75459e-08
3.89269e-08
4.02007e-08
4.13169e-08
4.22187e-08
4.28555e-08
4.31988e-08
4.32534e-08
4.30554e-08
4.26607e-08
4.21307e-08
4.15212e-08
4.08773e-08
4.02325e-08
3.96102e-08
3.90258e-08
3.84887e-08
3.80038e-08
3.75728e-08
3.71955e-08
3.68695e-08
3.65915e-08
3.63571e-08
3.61613e-08
3.59983e-08
3.58627e-08
3.57481e-08
3.56497e-08
3.55612e-08
3.54785e-08
3.53941e-08
3.53113e-08
3.51978e-08
3.51141e-08
3.48972e-08
3.48666e-08
3.41039e-08
2.56105e-08
2.88312e-08
3.00742e-08
3.0907e-08
3.13572e-08
3.14067e-08
3.12888e-08
3.035e-08
3.00177e-08
2.60869e-08
2.22842e-08
1.32416e-08
1.16303e-08
-8.04153e-08
-1.52708e-07
-1.58516e-07
-1.5838e-07
-1.58393e-07
-1.58395e-07
-1.58396e-07
-1.58395e-07
-1.58393e-07
-1.58389e-07
-1.58383e-07
-1.58375e-07
-1.58364e-07
-1.58351e-07
-1.58335e-07
-1.58316e-07
-1.58293e-07
-1.58268e-07
-1.58224e-07
-1.58184e-07
-1.5818e-07
-1.5818e-07
-1.5818e-07
-1.5818e-07
-1.5818e-07
-1.5818e-07
-1.5818e-07
-1.5818e-07
-1.5818e-07
-1.5818e-07
-1.5818e-07
-1.5818e-07
-1.5818e-07
-1.5818e-07
-1.5818e-07
-1.5818e-07
-1.5818e-07
-1.5818e-07
-1.5818e-07
-1.5818e-07
-1.5818e-07
-1.5818e-07
-1.5818e-07
-1.5818e-07
-1.5818e-07
-1.5818e-07
-1.5818e-07
-1.5818e-07
-1.5818e-07
-1.5818e-07
-1.5818e-07
-1.5818e-07
-1.5818e-07
-1.5818e-07
-1.5818e-07
-1.5818e-07
-1.5818e-07
-1.5818e-07
-1.5818e-07
-1.5818e-07
-1.5818e-07
-1.5818e-07
-1.5818e-07
-1.5818e-07
-1.5818e-07
-1.5818e-07
-1.5818e-07
-1.5818e-07
-1.5818e-07
-1.5818e-07
-1.5818e-07
-1.5818e-07
-1.5818e-07
-1.5818e-07
-1.5818e-07
-1.5818e-07
-1.5818e-07
-1.5818e-07
-1.5818e-07
-1.5818e-07
-1.5818e-07
-1.5818e-07
-1.5818e-07
-1.5818e-07
-1.5818e-07
-1.5818e-07
-1.5818e-07
-1.5818e-07
-1.5818e-07
-1.5818e-07
-1.5818e-07
-1.5818e-07
-1.5818e-07
-1.5818e-07
-1.5818e-07
-1.5818e-07
-1.5818e-07
-1.5818e-07
-1.5818e-07
-1.5818e-07
-1.5818e-07
-1.5818e-07
-1.5818e-07
-1.5818e-07
-1.5818e-07
-1.5818e-07
-1.5818e-07
-1.58162e-07
-1.57456e-07
-1.32576e-07
)
;

boundaryField
{
    inandouthalf11
    {
        type            cyclic;
        value           nonuniform List<scalar> 
100
(
-1.4456e-38
-5.27068e-15
-1.09625e-14
-1.60871e-14
-2.13426e-14
-2.68746e-14
-3.25663e-14
-3.83706e-14
-4.43034e-14
-5.03893e-14
-5.6647e-14
-6.30878e-14
-6.97185e-14
-7.65434e-14
-8.35663e-14
-9.07908e-14
-9.82198e-14
-1.05854e-13
-1.13694e-13
-1.2174e-13
-1.29988e-13
-1.38437e-13
-1.47086e-13
-1.55931e-13
-1.64969e-13
-1.74197e-13
-1.83609e-13
-1.93202e-13
-2.02972e-13
-2.12912e-13
-2.23016e-13
-2.3328e-13
-2.43695e-13
-2.54256e-13
-2.64956e-13
-2.75786e-13
-2.86738e-13
-2.97805e-13
-3.08978e-13
-3.20248e-13
-3.31606e-13
-3.43043e-13
-3.54549e-13
-3.66114e-13
-3.77731e-13
-3.89389e-13
-4.01079e-13
-4.12789e-13
-4.24511e-13
-4.36237e-13
-4.4796e-13
-4.59668e-13
-4.71355e-13
-4.83013e-13
-4.94634e-13
-5.06212e-13
-5.17741e-13
-5.29214e-13
-5.40624e-13
-5.51966e-13
-5.63236e-13
-5.74432e-13
-5.85551e-13
-5.96591e-13
-6.07548e-13
-6.1842e-13
-6.29204e-13
-6.399e-13
-6.50505e-13
-6.61017e-13
-6.71436e-13
-6.81766e-13
-6.92006e-13
-7.02155e-13
-7.12216e-13
-7.22191e-13
-7.3208e-13
-7.4188e-13
-7.51592e-13
-7.61218e-13
-7.70757e-13
-7.8021e-13
-7.8958e-13
-7.9887e-13
-8.08082e-13
-8.17216e-13
-8.26275e-13
-8.35257e-13
-8.44163e-13
-8.52992e-13
-8.61743e-13
-8.70418e-13
-8.79018e-13
-8.87542e-13
-8.95994e-13
-9.04375e-13
-9.12685e-13
-9.20925e-13
-9.29095e-13
-9.37196e-13
)
;
    }
    inandouthalf12
    {
        type            cyclic;
        value           nonuniform List<scalar> 
100
(
1.4456e-38
5.27068e-15
1.09625e-14
1.60871e-14
2.13426e-14
2.68746e-14
3.25663e-14
3.83706e-14
4.43034e-14
5.03893e-14
5.6647e-14
6.30878e-14
6.97185e-14
7.65434e-14
8.35663e-14
9.07908e-14
9.82198e-14
1.05854e-13
1.13694e-13
1.2174e-13
1.29988e-13
1.38437e-13
1.47086e-13
1.55931e-13
1.64969e-13
1.74197e-13
1.83609e-13
1.93202e-13
2.02972e-13
2.12912e-13
2.23016e-13
2.3328e-13
2.43695e-13
2.54256e-13
2.64956e-13
2.75786e-13
2.86738e-13
2.97805e-13
3.08978e-13
3.20248e-13
3.31606e-13
3.43043e-13
3.54549e-13
3.66114e-13
3.77731e-13
3.89389e-13
4.01079e-13
4.12789e-13
4.24511e-13
4.36237e-13
4.4796e-13
4.59668e-13
4.71355e-13
4.83013e-13
4.94634e-13
5.06212e-13
5.17741e-13
5.29214e-13
5.40624e-13
5.51966e-13
5.63236e-13
5.74432e-13
5.85551e-13
5.96591e-13
6.07548e-13
6.1842e-13
6.29204e-13
6.399e-13
6.50505e-13
6.61017e-13
6.71436e-13
6.81766e-13
6.92006e-13
7.02155e-13
7.12216e-13
7.22191e-13
7.3208e-13
7.4188e-13
7.51592e-13
7.61218e-13
7.70757e-13
7.8021e-13
7.8958e-13
7.9887e-13
8.08082e-13
8.17216e-13
8.26275e-13
8.35257e-13
8.44163e-13
8.52992e-13
8.61743e-13
8.70418e-13
8.79018e-13
8.87542e-13
8.95994e-13
9.04375e-13
9.12685e-13
9.20925e-13
9.29095e-13
9.37196e-13
)
;
    }
    inandouthalf21
    {
        type            cyclic;
        value           nonuniform List<scalar> 
100
(
-9.45227e-13
-9.53189e-13
-9.61084e-13
-9.68911e-13
-9.76673e-13
-9.84371e-13
-9.92007e-13
-9.99582e-13
-1.0071e-12
-1.01456e-12
-1.02197e-12
-1.02933e-12
-1.03665e-12
-1.04393e-12
-1.05118e-12
-1.05839e-12
-1.06558e-12
-1.07275e-12
-1.07989e-12
-1.08701e-12
-1.09408e-12
-1.10111e-12
-1.10805e-12
-1.11488e-12
-1.12157e-12
-1.12809e-12
-1.13442e-12
-1.14055e-12
-1.14652e-12
-1.15237e-12
-1.15819e-12
-1.16409e-12
-1.17014e-12
-1.17643e-12
-1.18286e-12
-1.18912e-12
-1.1946e-12
-1.19865e-12
-1.20102e-12
-1.2021e-12
-1.20255e-12
-1.20282e-12
-1.20323e-12
-3.83921e-08
-1.43604e-07
-2.44129e-07
-3.3067e-07
-4.06039e-07
-4.72742e-07
-5.32552e-07
-5.86731e-07
-6.3622e-07
-6.81817e-07
-7.23932e-07
-7.62954e-07
-7.9923e-07
-8.33062e-07
-8.64707e-07
-8.94391e-07
-9.22309e-07
-9.48633e-07
-9.73513e-07
-9.97081e-07
-1.01945e-06
-1.04074e-06
-1.06102e-06
-1.08038e-06
-1.09889e-06
-1.11663e-06
-1.13363e-06
-1.14996e-06
-1.16565e-06
-1.18076e-06
-1.1953e-06
-1.20932e-06
-1.22283e-06
-1.23588e-06
-1.24847e-06
-1.26062e-06
-1.27237e-06
-1.28371e-06
-1.29468e-06
-1.30527e-06
-1.31549e-06
-1.32536e-06
-1.33489e-06
-1.34407e-06
-1.3529e-06
-1.3614e-06
-1.36956e-06
-1.37737e-06
-1.38485e-06
-1.39198e-06
-1.39877e-06
-1.40521e-06
-1.41131e-06
-1.41705e-06
-1.42245e-06
-1.42749e-06
-1.43219e-06
)
;
    }
    inandouthalf22
    {
        type            cyclic;
        value           nonuniform List<scalar> 
100
(
9.45227e-13
9.53189e-13
9.61084e-13
9.68911e-13
9.76673e-13
9.84371e-13
9.92007e-13
9.99582e-13
1.0071e-12
1.01456e-12
1.02197e-12
1.02933e-12
1.03665e-12
1.04393e-12
1.05118e-12
1.05839e-12
1.06558e-12
1.07275e-12
1.07989e-12
1.08701e-12
1.09408e-12
1.10111e-12
1.10805e-12
1.11488e-12
1.12157e-12
1.12809e-12
1.13442e-12
1.14055e-12
1.14652e-12
1.15237e-12
1.15819e-12
1.16409e-12
1.17014e-12
1.17643e-12
1.18286e-12
1.18912e-12
1.1946e-12
1.19865e-12
1.20102e-12
1.2021e-12
1.20255e-12
1.20282e-12
1.20323e-12
3.83921e-08
1.43604e-07
2.44129e-07
3.3067e-07
4.06039e-07
4.72742e-07
5.32552e-07
5.86731e-07
6.3622e-07
6.81817e-07
7.23932e-07
7.62954e-07
7.9923e-07
8.33062e-07
8.64707e-07
8.94391e-07
9.22309e-07
9.48633e-07
9.73513e-07
9.97081e-07
1.01945e-06
1.04074e-06
1.06102e-06
1.08038e-06
1.09889e-06
1.11663e-06
1.13363e-06
1.14996e-06
1.16565e-06
1.18076e-06
1.1953e-06
1.20932e-06
1.22283e-06
1.23588e-06
1.24847e-06
1.26062e-06
1.27237e-06
1.28371e-06
1.29468e-06
1.30527e-06
1.31549e-06
1.32536e-06
1.33489e-06
1.34407e-06
1.3529e-06
1.3614e-06
1.36956e-06
1.37737e-06
1.38485e-06
1.39198e-06
1.39877e-06
1.40521e-06
1.41131e-06
1.41705e-06
1.42245e-06
1.42749e-06
1.43219e-06
)
;
    }
    inandouthalf31
    {
        type            cyclic;
        value           nonuniform List<scalar> 
110
(
-1.43655e-06
-1.46986e-06
-1.50365e-06
-1.53794e-06
-1.57271e-06
-1.60799e-06
-1.64378e-06
-1.68011e-06
-1.717e-06
-1.75447e-06
-1.79255e-06
-1.83126e-06
-1.87062e-06
-1.91067e-06
-1.95141e-06
-1.99287e-06
-2.03506e-06
-2.07801e-06
-2.12173e-06
-2.16625e-06
-2.21158e-06
-2.25775e-06
-2.30477e-06
-2.35267e-06
-2.40146e-06
-2.45118e-06
-2.50183e-06
-2.55346e-06
-2.60607e-06
-2.65969e-06
-2.71434e-06
-2.77004e-06
-2.82681e-06
-2.88467e-06
-2.94362e-06
-3.00368e-06
-3.06497e-06
-3.18083e-06
-3.24492e-06
-3.30767e-06
-3.37106e-06
-3.4356e-06
-3.50126e-06
-3.56812e-06
-3.63592e-06
-3.70537e-06
-3.77553e-06
-3.84773e-06
-3.92005e-06
-3.99373e-06
-4.06754e-06
-4.14481e-06
-4.22289e-06
-4.30295e-06
-4.38454e-06
-4.46777e-06
-4.55273e-06
-4.63948e-06
-4.72813e-06
-4.81876e-06
-4.91149e-06
-5.00645e-06
-5.10378e-06
-5.20361e-06
-5.30611e-06
-5.41142e-06
-5.51971e-06
-5.63105e-06
-5.74522e-06
-5.86184e-06
-5.98082e-06
-6.10222e-06
-6.22608e-06
-6.35245e-06
-6.48139e-06
-6.61294e-06
-6.74717e-06
-6.88412e-06
-7.02385e-06
-7.16641e-06
-7.31187e-06
-7.46028e-06
-7.61171e-06
-7.7662e-06
-7.92384e-06
-8.08467e-06
-8.24877e-06
-8.4162e-06
-8.58702e-06
-8.76131e-06
-8.93915e-06
-9.12059e-06
-9.30571e-06
-9.49459e-06
-9.68731e-06
-9.88393e-06
-1.00846e-05
-1.02892e-05
-1.04981e-05
-1.07112e-05
-1.09286e-05
-1.11504e-05
-1.13767e-05
-1.16076e-05
-1.18432e-05
-1.20836e-05
-1.23289e-05
-1.25791e-05
-1.28345e-05
-1.3095e-05
)
;
    }
    inandouthalf32
    {
        type            cyclic;
        value           nonuniform List<scalar> 
110
(
1.43655e-06
1.46986e-06
1.50365e-06
1.53794e-06
1.57271e-06
1.60799e-06
1.64378e-06
1.68011e-06
1.717e-06
1.75447e-06
1.79255e-06
1.83126e-06
1.87062e-06
1.91067e-06
1.95141e-06
1.99287e-06
2.03506e-06
2.07801e-06
2.12173e-06
2.16625e-06
2.21158e-06
2.25775e-06
2.30477e-06
2.35267e-06
2.40146e-06
2.45118e-06
2.50183e-06
2.55346e-06
2.60607e-06
2.65969e-06
2.71434e-06
2.77004e-06
2.82681e-06
2.88467e-06
2.94362e-06
3.00368e-06
3.06497e-06
3.18083e-06
3.24492e-06
3.30767e-06
3.37106e-06
3.4356e-06
3.50126e-06
3.56812e-06
3.63592e-06
3.70537e-06
3.77553e-06
3.84773e-06
3.92005e-06
3.99373e-06
4.06754e-06
4.14481e-06
4.22289e-06
4.30295e-06
4.38454e-06
4.46777e-06
4.55273e-06
4.63948e-06
4.72813e-06
4.81876e-06
4.91149e-06
5.00645e-06
5.10378e-06
5.20361e-06
5.30611e-06
5.41142e-06
5.51971e-06
5.63105e-06
5.74522e-06
5.86184e-06
5.98082e-06
6.10222e-06
6.22608e-06
6.35245e-06
6.48139e-06
6.61294e-06
6.74717e-06
6.88412e-06
7.02385e-06
7.16641e-06
7.31187e-06
7.46028e-06
7.61171e-06
7.7662e-06
7.92384e-06
8.08467e-06
8.24877e-06
8.4162e-06
8.58702e-06
8.76131e-06
8.93915e-06
9.12059e-06
9.30571e-06
9.49459e-06
9.68731e-06
9.88393e-06
1.00846e-05
1.02892e-05
1.04981e-05
1.07112e-05
1.09286e-05
1.11504e-05
1.13767e-05
1.16076e-05
1.18432e-05
1.20836e-05
1.23289e-05
1.25791e-05
1.28345e-05
1.3095e-05
)
;
    }
    inandouthalf41
    {
        type            cyclic;
        value           nonuniform List<scalar> 
50
(
-1.17213e-05
-1.17213e-05
-1.17213e-05
-1.17213e-05
-1.17213e-05
-1.17213e-05
-1.17213e-05
-1.17213e-05
-1.17213e-05
-1.17213e-05
-1.17213e-05
-1.17213e-05
-1.17213e-05
-1.17213e-05
-1.17213e-05
-1.17213e-05
-1.17213e-05
-1.17213e-05
-1.17213e-05
-1.17213e-05
-1.17213e-05
-1.17213e-05
-1.17213e-05
-1.17213e-05
-1.17213e-05
-1.17213e-05
-1.17213e-05
-1.17213e-05
-1.17213e-05
-1.17213e-05
-1.17213e-05
-1.17213e-05
-1.17213e-05
-1.17213e-05
-1.17213e-05
-1.17213e-05
-1.17213e-05
-1.17213e-05
-1.17213e-05
-1.17213e-05
-1.17213e-05
-1.17213e-05
-1.17213e-05
-1.17213e-05
-1.17213e-05
-1.17213e-05
-1.17213e-05
-1.17213e-05
-1.17214e-05
-1.17231e-05
)
;
    }
    inandouthalf42
    {
        type            cyclic;
        value           nonuniform List<scalar> 
50
(
1.17213e-05
1.17213e-05
1.17213e-05
1.17213e-05
1.17213e-05
1.17213e-05
1.17213e-05
1.17213e-05
1.17213e-05
1.17213e-05
1.17213e-05
1.17213e-05
1.17213e-05
1.17213e-05
1.17213e-05
1.17213e-05
1.17213e-05
1.17213e-05
1.17213e-05
1.17213e-05
1.17213e-05
1.17213e-05
1.17213e-05
1.17213e-05
1.17213e-05
1.17213e-05
1.17213e-05
1.17213e-05
1.17213e-05
1.17213e-05
1.17213e-05
1.17213e-05
1.17213e-05
1.17213e-05
1.17213e-05
1.17213e-05
1.17213e-05
1.17213e-05
1.17213e-05
1.17213e-05
1.17213e-05
1.17213e-05
1.17213e-05
1.17213e-05
1.17213e-05
1.17213e-05
1.17213e-05
1.17213e-05
1.17214e-05
1.17231e-05
)
;
    }
    top
    {
        type            symmetryPlane;
        value           uniform 0;
    }
    walls
    {
        type            fixedValue;
        value           uniform 0;
    }
    frontAndBackPlanes
    {
        type            empty;
        value           nonuniform 0();
    }
}


// ************************************************************************* //
