/*--------------------------------*- C++ -*----------------------------------*\
| =========                 |                                                 |
| \\      /  F ield         | OpenFOAM: The Open Source CFD Toolbox           |
|  \\    /   O peration     | Version:  2.4.x                                 |
|   \\  /    A nd           | Web:      www.OpenFOAM.org                      |
|    \\/     M anipulation  |                                                 |
\*---------------------------------------------------------------------------*/
FoamFile
{
    version     2.0;
    format      ascii;
    class       surfaceScalarField;
    location    "9.3";
    object      phia_0;
}
// * * * * * * * * * * * * * * * * * * * * * * * * * * * * * * * * * * * * * //

dimensions      [0 3 -1 0 0 0 0];

internalField   nonuniform List<scalar> 
359
(
-5.65491e-14
-1.4157e-13
-2.19897e-13
-2.95029e-13
-3.72457e-13
-4.52029e-13
-5.32731e-13
-6.14444e-13
-6.97433e-13
-7.82006e-13
-8.68356e-13
-9.56559e-13
-1.04667e-12
-1.13871e-12
-1.23271e-12
-1.32867e-12
-1.42661e-12
-1.52651e-12
-1.62831e-12
-1.73201e-12
-1.83752e-12
-1.94482e-12
-2.05384e-12
-2.16452e-12
-2.2768e-12
-2.39061e-12
-2.50585e-12
-2.62249e-12
-2.74041e-12
-2.85954e-12
-2.97978e-12
-3.10107e-12
-3.22327e-12
-3.34633e-12
-3.47012e-12
-3.59455e-12
-3.71949e-12
-3.84486e-12
-3.97058e-12
-4.09646e-12
-4.22248e-12
-4.34849e-12
-4.47435e-12
-4.60001e-12
-4.72534e-12
-4.85025e-12
-4.97463e-12
-5.09833e-12
-5.2213e-12
-5.34351e-12
-5.46478e-12
-5.58508e-12
-5.70431e-12
-5.82244e-12
-5.93934e-12
-6.05505e-12
-6.16941e-12
-6.28245e-12
-6.39408e-12
-6.50423e-12
-6.61297e-12
-6.7202e-12
-6.82597e-12
-6.93023e-12
-7.03298e-12
-7.13419e-12
-7.23388e-12
-7.33204e-12
-7.42865e-12
-7.5237e-12
-7.61725e-12
-7.70933e-12
-7.79989e-12
-7.889e-12
-7.97667e-12
-8.06294e-12
-8.14778e-12
-8.23119e-12
-8.31321e-12
-8.39384e-12
-8.47308e-12
-8.55098e-12
-8.62755e-12
-8.70283e-12
-8.77682e-12
-8.84956e-12
-8.92104e-12
-8.99126e-12
-9.06023e-12
-9.12796e-12
-9.19443e-12
-9.25968e-12
-9.3237e-12
-9.38651e-12
-9.44813e-12
-9.50856e-12
-9.56782e-12
-9.62591e-12
-9.68282e-12
-9.73857e-12
-9.79316e-12
-9.84658e-12
-9.89885e-12
-9.94997e-12
-9.99995e-12
-1.00488e-11
-1.00965e-11
-1.01432e-11
-1.01887e-11
-1.02331e-11
-1.02764e-11
-1.03187e-11
-1.036e-11
-1.04002e-11
-1.04393e-11
-1.04775e-11
-1.05147e-11
-1.05508e-11
-1.05858e-11
-1.06198e-11
-1.06525e-11
-1.06839e-11
-1.07139e-11
-1.07423e-11
-1.0769e-11
-1.07938e-11
-1.08169e-11
-1.08383e-11
-1.0858e-11
-1.08764e-11
-1.08937e-11
-1.09102e-11
-1.09258e-11
-1.09406e-11
-1.09541e-11
-1.09652e-11
-1.09732e-11
-1.09777e-11
-1.09795e-11
-1.09799e-11
-1.09798e-11
-1.09772e-11
-9.50266e-11
-1.84994e-09
-2.90351e-09
-3.55147e-09
-4.04268e-09
-4.47256e-09
-4.8671e-09
-5.22964e-09
-5.55204e-09
-5.83549e-09
-6.08124e-09
-6.26493e-09
-6.3774e-09
-6.41431e-09
-6.37444e-09
-6.25856e-09
-6.06939e-09
-5.81079e-09
-5.48766e-09
-5.10578e-09
-4.67156e-09
-4.19191e-09
-3.67406e-09
-3.12556e-09
-2.55393e-09
-1.96657e-09
-1.37047e-09
-7.72081e-10
-1.76759e-10
4.10742e-10
9.88819e-10
1.55962e-09
2.13353e-09
2.73286e-09
3.39133e-09
4.14415e-09
5.01566e-09
6.0156e-09
7.14252e-09
8.38772e-09
9.73824e-09
1.1179e-08
1.26947e-08
1.42708e-08
1.58943e-08
1.75543e-08
1.92419e-08
2.09495e-08
2.26708e-08
2.43997e-08
2.61302e-08
2.78554e-08
2.95677e-08
3.1258e-08
3.29162e-08
3.45304e-08
3.60866e-08
3.75666e-08
3.89467e-08
4.02194e-08
4.13342e-08
4.22344e-08
4.28692e-08
4.32106e-08
4.32634e-08
4.30638e-08
4.26679e-08
4.2137e-08
4.15268e-08
4.08825e-08
4.02375e-08
3.96151e-08
3.90307e-08
3.84935e-08
3.80087e-08
3.75777e-08
3.72004e-08
3.68745e-08
3.65966e-08
3.63622e-08
3.61664e-08
3.60034e-08
3.58679e-08
3.57532e-08
3.56549e-08
3.55663e-08
3.54835e-08
3.53991e-08
3.53162e-08
3.52027e-08
3.51189e-08
3.4902e-08
3.48714e-08
3.41086e-08
2.55997e-08
2.87983e-08
3.00237e-08
3.0846e-08
3.1288e-08
3.13301e-08
3.12092e-08
3.02679e-08
2.99452e-08
2.60045e-08
2.2171e-08
1.31473e-08
1.15581e-08
-8.04656e-08
-1.52719e-07
-1.58516e-07
-1.5838e-07
-1.58393e-07
-1.58395e-07
-1.58396e-07
-1.58395e-07
-1.58393e-07
-1.58389e-07
-1.58383e-07
-1.58375e-07
-1.58364e-07
-1.58351e-07
-1.58335e-07
-1.58316e-07
-1.58293e-07
-1.58268e-07
-1.58224e-07
-1.58184e-07
-1.5818e-07
-1.5818e-07
-1.5818e-07
-1.5818e-07
-1.5818e-07
-1.5818e-07
-1.5818e-07
-1.5818e-07
-1.5818e-07
-1.5818e-07
-1.5818e-07
-1.5818e-07
-1.5818e-07
-1.5818e-07
-1.5818e-07
-1.5818e-07
-1.5818e-07
-1.5818e-07
-1.5818e-07
-1.5818e-07
-1.5818e-07
-1.5818e-07
-1.5818e-07
-1.5818e-07
-1.5818e-07
-1.5818e-07
-1.5818e-07
-1.5818e-07
-1.5818e-07
-1.5818e-07
-1.5818e-07
-1.5818e-07
-1.5818e-07
-1.5818e-07
-1.5818e-07
-1.5818e-07
-1.5818e-07
-1.5818e-07
-1.5818e-07
-1.5818e-07
-1.5818e-07
-1.5818e-07
-1.5818e-07
-1.5818e-07
-1.5818e-07
-1.5818e-07
-1.5818e-07
-1.5818e-07
-1.5818e-07
-1.5818e-07
-1.5818e-07
-1.5818e-07
-1.5818e-07
-1.5818e-07
-1.5818e-07
-1.5818e-07
-1.5818e-07
-1.5818e-07
-1.5818e-07
-1.5818e-07
-1.5818e-07
-1.5818e-07
-1.5818e-07
-1.5818e-07
-1.5818e-07
-1.5818e-07
-1.5818e-07
-1.5818e-07
-1.5818e-07
-1.5818e-07
-1.5818e-07
-1.5818e-07
-1.5818e-07
-1.5818e-07
-1.5818e-07
-1.5818e-07
-1.5818e-07
-1.5818e-07
-1.5818e-07
-1.5818e-07
-1.5818e-07
-1.5818e-07
-1.5818e-07
-1.5818e-07
-1.5818e-07
-1.5818e-07
-1.5818e-07
-1.58162e-07
-1.57456e-07
-1.32576e-07
)
;

boundaryField
{
    inandouthalf11
    {
        type            cyclic;
        value           nonuniform List<scalar> 
100
(
-1.44592e-38
-5.2729e-15
-1.09672e-14
-1.6094e-14
-2.13519e-14
-2.68863e-14
-3.25806e-14
-3.83875e-14
-4.43231e-14
-5.04118e-14
-5.66722e-14
-6.3116e-14
-6.97496e-14
-7.65776e-14
-8.36036e-14
-9.08312e-14
-9.82634e-14
-1.05901e-13
-1.13745e-13
-1.21793e-13
-1.30045e-13
-1.38498e-13
-1.4715e-13
-1.55998e-13
-1.6504e-13
-1.74271e-13
-1.83687e-13
-1.93284e-13
-2.03057e-13
-2.13e-13
-2.23108e-13
-2.33375e-13
-2.43794e-13
-2.54359e-13
-2.65062e-13
-2.75896e-13
-2.86851e-13
-2.97921e-13
-3.09097e-13
-3.2037e-13
-3.31731e-13
-3.43172e-13
-3.5468e-13
-3.66248e-13
-3.77868e-13
-3.89529e-13
-4.01222e-13
-4.12935e-13
-4.24658e-13
-4.36387e-13
-4.48112e-13
-4.59823e-13
-4.71512e-13
-4.83172e-13
-4.94795e-13
-5.06375e-13
-5.17905e-13
-5.29379e-13
-5.40792e-13
-5.52135e-13
-5.63407e-13
-5.74604e-13
-5.85725e-13
-5.96766e-13
-6.07724e-13
-6.18597e-13
-6.29382e-13
-6.4008e-13
-6.50686e-13
-6.61198e-13
-6.71619e-13
-6.8195e-13
-6.9219e-13
-7.0234e-13
-7.12402e-13
-7.22379e-13
-7.32268e-13
-7.42069e-13
-7.51783e-13
-7.61409e-13
-7.70949e-13
-7.80403e-13
-7.89775e-13
-7.99066e-13
-8.08278e-13
-8.17414e-13
-8.26473e-13
-8.35456e-13
-8.44363e-13
-8.53193e-13
-8.61946e-13
-8.70622e-13
-8.79222e-13
-8.87748e-13
-8.96201e-13
-9.04582e-13
-9.12893e-13
-9.21134e-13
-9.29305e-13
-9.37407e-13
)
;
    }
    inandouthalf12
    {
        type            cyclic;
        value           nonuniform List<scalar> 
100
(
1.44592e-38
5.2729e-15
1.09672e-14
1.6094e-14
2.13519e-14
2.68863e-14
3.25806e-14
3.83875e-14
4.43231e-14
5.04118e-14
5.66722e-14
6.3116e-14
6.97496e-14
7.65776e-14
8.36036e-14
9.08312e-14
9.82634e-14
1.05901e-13
1.13745e-13
1.21793e-13
1.30045e-13
1.38498e-13
1.4715e-13
1.55998e-13
1.6504e-13
1.74271e-13
1.83687e-13
1.93284e-13
2.03057e-13
2.13e-13
2.23108e-13
2.33375e-13
2.43794e-13
2.54359e-13
2.65062e-13
2.75896e-13
2.86851e-13
2.97921e-13
3.09097e-13
3.2037e-13
3.31731e-13
3.43172e-13
3.5468e-13
3.66248e-13
3.77868e-13
3.89529e-13
4.01222e-13
4.12935e-13
4.24658e-13
4.36387e-13
4.48112e-13
4.59823e-13
4.71512e-13
4.83172e-13
4.94795e-13
5.06375e-13
5.17905e-13
5.29379e-13
5.40792e-13
5.52135e-13
5.63407e-13
5.74604e-13
5.85725e-13
5.96766e-13
6.07724e-13
6.18597e-13
6.29382e-13
6.4008e-13
6.50686e-13
6.61198e-13
6.71619e-13
6.8195e-13
6.9219e-13
7.0234e-13
7.12402e-13
7.22379e-13
7.32268e-13
7.42069e-13
7.51783e-13
7.61409e-13
7.70949e-13
7.80403e-13
7.89775e-13
7.99066e-13
8.08278e-13
8.17414e-13
8.26473e-13
8.35456e-13
8.44363e-13
8.53193e-13
8.61946e-13
8.70622e-13
8.79222e-13
8.87748e-13
8.96201e-13
9.04582e-13
9.12893e-13
9.21134e-13
9.29305e-13
9.37407e-13
)
;
    }
    inandouthalf21
    {
        type            cyclic;
        value           nonuniform List<scalar> 
100
(
-9.45439e-13
-9.53403e-13
-9.61298e-13
-9.69127e-13
-9.7689e-13
-9.84589e-13
-9.92225e-13
-9.99802e-13
-1.00732e-12
-1.01478e-12
-1.02219e-12
-1.02956e-12
-1.03688e-12
-1.04416e-12
-1.0514e-12
-1.05862e-12
-1.06581e-12
-1.07298e-12
-1.08012e-12
-1.08724e-12
-1.09432e-12
-1.10134e-12
-1.10828e-12
-1.11512e-12
-1.12181e-12
-1.12833e-12
-1.13466e-12
-1.14079e-12
-1.14676e-12
-1.15261e-12
-1.15844e-12
-1.16433e-12
-1.17039e-12
-1.17668e-12
-1.18311e-12
-1.18937e-12
-1.19485e-12
-1.1989e-12
-1.20127e-12
-1.20235e-12
-1.20281e-12
-1.20308e-12
-1.20349e-12
-3.84342e-08
-1.43657e-07
-2.44175e-07
-3.30714e-07
-4.06083e-07
-4.72786e-07
-5.32597e-07
-5.86778e-07
-6.3627e-07
-6.81869e-07
-7.23986e-07
-7.63011e-07
-7.9929e-07
-8.33125e-07
-8.64773e-07
-8.9446e-07
-9.22382e-07
-9.48708e-07
-9.73591e-07
-9.97162e-07
-1.01954e-06
-1.04082e-06
-1.06111e-06
-1.08047e-06
-1.09899e-06
-1.11672e-06
-1.13373e-06
-1.15006e-06
-1.16575e-06
-1.18086e-06
-1.1954e-06
-1.20942e-06
-1.22294e-06
-1.23598e-06
-1.24857e-06
-1.26073e-06
-1.27248e-06
-1.28383e-06
-1.29479e-06
-1.30538e-06
-1.31561e-06
-1.32548e-06
-1.335e-06
-1.34418e-06
-1.35302e-06
-1.36151e-06
-1.36967e-06
-1.37749e-06
-1.38496e-06
-1.3921e-06
-1.39888e-06
-1.40533e-06
-1.41142e-06
-1.41716e-06
-1.42256e-06
-1.4276e-06
-1.4323e-06
)
;
    }
    inandouthalf22
    {
        type            cyclic;
        value           nonuniform List<scalar> 
100
(
9.45439e-13
9.53403e-13
9.61298e-13
9.69127e-13
9.7689e-13
9.84589e-13
9.92225e-13
9.99802e-13
1.00732e-12
1.01478e-12
1.02219e-12
1.02956e-12
1.03688e-12
1.04416e-12
1.0514e-12
1.05862e-12
1.06581e-12
1.07298e-12
1.08012e-12
1.08724e-12
1.09432e-12
1.10134e-12
1.10828e-12
1.11512e-12
1.12181e-12
1.12833e-12
1.13466e-12
1.14079e-12
1.14676e-12
1.15261e-12
1.15844e-12
1.16433e-12
1.17039e-12
1.17668e-12
1.18311e-12
1.18937e-12
1.19485e-12
1.1989e-12
1.20127e-12
1.20235e-12
1.20281e-12
1.20308e-12
1.20349e-12
3.84342e-08
1.43657e-07
2.44175e-07
3.30714e-07
4.06083e-07
4.72786e-07
5.32597e-07
5.86778e-07
6.3627e-07
6.81869e-07
7.23986e-07
7.63011e-07
7.9929e-07
8.33125e-07
8.64773e-07
8.9446e-07
9.22382e-07
9.48708e-07
9.73591e-07
9.97162e-07
1.01954e-06
1.04082e-06
1.06111e-06
1.08047e-06
1.09899e-06
1.11672e-06
1.13373e-06
1.15006e-06
1.16575e-06
1.18086e-06
1.1954e-06
1.20942e-06
1.22294e-06
1.23598e-06
1.24857e-06
1.26073e-06
1.27248e-06
1.28383e-06
1.29479e-06
1.30538e-06
1.31561e-06
1.32548e-06
1.335e-06
1.34418e-06
1.35302e-06
1.36151e-06
1.36967e-06
1.37749e-06
1.38496e-06
1.3921e-06
1.39888e-06
1.40533e-06
1.41142e-06
1.41716e-06
1.42256e-06
1.4276e-06
1.4323e-06
)
;
    }
    inandouthalf31
    {
        type            cyclic;
        value           nonuniform List<scalar> 
110
(
-1.43666e-06
-1.46996e-06
-1.50376e-06
-1.53805e-06
-1.57282e-06
-1.6081e-06
-1.64389e-06
-1.68022e-06
-1.71711e-06
-1.75458e-06
-1.79266e-06
-1.83137e-06
-1.87074e-06
-1.91079e-06
-1.95153e-06
-1.99299e-06
-2.03518e-06
-2.07813e-06
-2.12186e-06
-2.16638e-06
-2.21171e-06
-2.25788e-06
-2.3049e-06
-2.3528e-06
-2.4016e-06
-2.45131e-06
-2.50197e-06
-2.5536e-06
-2.60621e-06
-2.65983e-06
-2.71449e-06
-2.77019e-06
-2.82697e-06
-2.88483e-06
-2.94378e-06
-3.00384e-06
-3.06514e-06
-3.18097e-06
-3.24507e-06
-3.30781e-06
-3.37121e-06
-3.43575e-06
-3.50141e-06
-3.56828e-06
-3.63609e-06
-3.70553e-06
-3.7757e-06
-3.8479e-06
-3.92022e-06
-3.9939e-06
-4.06772e-06
-4.145e-06
-4.22308e-06
-4.30313e-06
-4.38473e-06
-4.46797e-06
-4.55293e-06
-4.63969e-06
-4.72833e-06
-4.81897e-06
-4.91171e-06
-5.00668e-06
-5.10401e-06
-5.20385e-06
-5.30635e-06
-5.41167e-06
-5.51996e-06
-5.63131e-06
-5.74549e-06
-5.86211e-06
-5.9811e-06
-6.1025e-06
-6.22636e-06
-6.35274e-06
-6.48169e-06
-6.61325e-06
-6.74748e-06
-6.88443e-06
-7.02417e-06
-7.16674e-06
-7.31221e-06
-7.46063e-06
-7.61206e-06
-7.76656e-06
-7.9242e-06
-8.08504e-06
-8.24915e-06
-8.41658e-06
-8.58742e-06
-8.76172e-06
-8.93956e-06
-9.12101e-06
-9.30614e-06
-9.49503e-06
-9.68775e-06
-9.88439e-06
-1.0085e-05
-1.02897e-05
-1.04986e-05
-1.07117e-05
-1.09291e-05
-1.11509e-05
-1.13772e-05
-1.16082e-05
-1.18438e-05
-1.20842e-05
-1.23295e-05
-1.25797e-05
-1.28351e-05
-1.30956e-05
)
;
    }
    inandouthalf32
    {
        type            cyclic;
        value           nonuniform List<scalar> 
110
(
1.43666e-06
1.46996e-06
1.50376e-06
1.53805e-06
1.57282e-06
1.6081e-06
1.64389e-06
1.68022e-06
1.71711e-06
1.75458e-06
1.79266e-06
1.83137e-06
1.87074e-06
1.91079e-06
1.95153e-06
1.99299e-06
2.03518e-06
2.07813e-06
2.12186e-06
2.16638e-06
2.21171e-06
2.25788e-06
2.3049e-06
2.3528e-06
2.4016e-06
2.45131e-06
2.50197e-06
2.5536e-06
2.60621e-06
2.65983e-06
2.71449e-06
2.77019e-06
2.82697e-06
2.88483e-06
2.94378e-06
3.00384e-06
3.06514e-06
3.18097e-06
3.24507e-06
3.30781e-06
3.37121e-06
3.43575e-06
3.50141e-06
3.56828e-06
3.63609e-06
3.70553e-06
3.7757e-06
3.8479e-06
3.92022e-06
3.9939e-06
4.06772e-06
4.145e-06
4.22308e-06
4.30313e-06
4.38473e-06
4.46797e-06
4.55293e-06
4.63969e-06
4.72833e-06
4.81897e-06
4.91171e-06
5.00668e-06
5.10401e-06
5.20385e-06
5.30635e-06
5.41167e-06
5.51996e-06
5.63131e-06
5.74549e-06
5.86211e-06
5.9811e-06
6.1025e-06
6.22636e-06
6.35274e-06
6.48169e-06
6.61325e-06
6.74748e-06
6.88443e-06
7.02417e-06
7.16674e-06
7.31221e-06
7.46063e-06
7.61206e-06
7.76656e-06
7.9242e-06
8.08504e-06
8.24915e-06
8.41658e-06
8.58742e-06
8.76172e-06
8.93956e-06
9.12101e-06
9.30614e-06
9.49503e-06
9.68775e-06
9.88439e-06
1.0085e-05
1.02897e-05
1.04986e-05
1.07117e-05
1.09291e-05
1.11509e-05
1.13772e-05
1.16082e-05
1.18438e-05
1.20842e-05
1.23295e-05
1.25797e-05
1.28351e-05
1.30956e-05
)
;
    }
    inandouthalf41
    {
        type            cyclic;
        value           nonuniform List<scalar> 
50
(
-1.17219e-05
-1.17219e-05
-1.17219e-05
-1.17219e-05
-1.17219e-05
-1.17219e-05
-1.17219e-05
-1.17219e-05
-1.17219e-05
-1.17219e-05
-1.17219e-05
-1.17219e-05
-1.17219e-05
-1.17219e-05
-1.17219e-05
-1.17219e-05
-1.17219e-05
-1.17219e-05
-1.17219e-05
-1.17219e-05
-1.17219e-05
-1.17219e-05
-1.17219e-05
-1.17219e-05
-1.17219e-05
-1.17219e-05
-1.17219e-05
-1.17219e-05
-1.17219e-05
-1.17219e-05
-1.17219e-05
-1.17219e-05
-1.17219e-05
-1.17219e-05
-1.17219e-05
-1.17219e-05
-1.17219e-05
-1.17219e-05
-1.17219e-05
-1.17219e-05
-1.17219e-05
-1.17219e-05
-1.17219e-05
-1.17219e-05
-1.17219e-05
-1.17219e-05
-1.17219e-05
-1.17219e-05
-1.17219e-05
-1.17236e-05
)
;
    }
    inandouthalf42
    {
        type            cyclic;
        value           nonuniform List<scalar> 
50
(
1.17219e-05
1.17219e-05
1.17219e-05
1.17219e-05
1.17219e-05
1.17219e-05
1.17219e-05
1.17219e-05
1.17219e-05
1.17219e-05
1.17219e-05
1.17219e-05
1.17219e-05
1.17219e-05
1.17219e-05
1.17219e-05
1.17219e-05
1.17219e-05
1.17219e-05
1.17219e-05
1.17219e-05
1.17219e-05
1.17219e-05
1.17219e-05
1.17219e-05
1.17219e-05
1.17219e-05
1.17219e-05
1.17219e-05
1.17219e-05
1.17219e-05
1.17219e-05
1.17219e-05
1.17219e-05
1.17219e-05
1.17219e-05
1.17219e-05
1.17219e-05
1.17219e-05
1.17219e-05
1.17219e-05
1.17219e-05
1.17219e-05
1.17219e-05
1.17219e-05
1.17219e-05
1.17219e-05
1.17219e-05
1.17219e-05
1.17236e-05
)
;
    }
    top
    {
        type            symmetryPlane;
        value           uniform 0;
    }
    walls
    {
        type            fixedValue;
        value           uniform 0;
    }
    frontAndBackPlanes
    {
        type            empty;
        value           nonuniform 0();
    }
}


// ************************************************************************* //
