/*--------------------------------*- C++ -*----------------------------------*\
| =========                 |                                                 |
| \\      /  F ield         | OpenFOAM: The Open Source CFD Toolbox           |
|  \\    /   O peration     | Version:  2.4.x                                 |
|   \\  /    A nd           | Web:      www.OpenFOAM.org                      |
|    \\/     M anipulation  |                                                 |
\*---------------------------------------------------------------------------*/
FoamFile
{
    version     2.0;
    format      ascii;
    class       volScalarField;
    location    "9.3";
    object      Theta;
}
// * * * * * * * * * * * * * * * * * * * * * * * * * * * * * * * * * * * * * //

dimensions      [0 2 -2 0 0 0 0];

internalField   nonuniform List<scalar> 
360
(
6.66147e-21
6.66169e-21
6.6616e-21
6.66158e-21
6.6616e-21
6.66162e-21
6.66162e-21
6.66163e-21
6.66163e-21
6.66164e-21
6.66165e-21
6.66166e-21
6.66168e-21
6.66169e-21
6.6617e-21
6.66171e-21
6.66173e-21
6.66174e-21
6.66175e-21
6.66176e-21
6.66178e-21
6.66179e-21
6.6618e-21
6.66182e-21
6.66183e-21
6.66184e-21
6.66185e-21
6.66186e-21
6.66187e-21
6.66188e-21
6.66189e-21
6.6619e-21
6.66191e-21
6.66191e-21
6.66192e-21
6.66192e-21
6.66193e-21
6.66193e-21
6.66193e-21
6.66194e-21
6.66194e-21
6.66194e-21
6.66193e-21
6.66193e-21
6.66193e-21
6.66192e-21
6.66192e-21
6.66191e-21
6.66191e-21
6.6619e-21
6.66189e-21
6.66188e-21
6.66187e-21
6.66186e-21
6.66185e-21
6.66184e-21
6.66183e-21
6.66182e-21
6.66181e-21
6.66179e-21
6.66178e-21
6.66177e-21
6.66176e-21
6.66175e-21
6.66173e-21
6.66172e-21
6.66171e-21
6.6617e-21
6.66169e-21
6.66168e-21
6.66167e-21
6.66165e-21
6.66164e-21
6.66163e-21
6.66162e-21
6.66161e-21
6.6616e-21
6.66159e-21
6.66159e-21
6.66158e-21
6.66157e-21
6.66156e-21
6.66155e-21
6.66154e-21
6.66153e-21
6.66153e-21
6.66152e-21
6.66151e-21
6.6615e-21
6.6615e-21
6.66149e-21
6.66148e-21
6.66147e-21
6.66147e-21
6.66146e-21
6.66145e-21
6.66145e-21
6.66144e-21
6.66144e-21
6.66143e-21
6.66142e-21
6.66142e-21
6.66141e-21
6.6614e-21
6.6614e-21
6.66139e-21
6.66139e-21
6.66138e-21
6.66138e-21
6.66137e-21
6.66136e-21
6.66136e-21
6.66135e-21
6.66135e-21
6.66134e-21
6.66134e-21
6.66133e-21
6.66133e-21
6.66132e-21
6.66132e-21
6.66131e-21
6.66131e-21
6.6613e-21
6.66129e-21
6.66129e-21
6.66128e-21
6.66128e-21
9.59728e-21
5.96931e-20
4.62677e-19
3.66598e-18
2.95609e-17
2.4459e-16
2.10074e-15
1.90158e-14
1.85027e-13
1.98428e-12
2.4163e-11
3.46291e-10
6.90716e-09
3.41557e-07
1.20857e-05
0.000151779
0.00110608
0.00292989
0.00416421
0.00492039
0.00543985
0.00582756
0.00612932
0.00636229
0.00650922
0.00673053
0.00696091
0.00718536
0.00740056
0.00760571
0.00779999
0.0079827
0.00815277
0.0083092
0.00845114
0.00857777
0.00868843
0.00878255
0.0088599
0.00892027
0.00896372
0.00899034
0.00900046
0.00899445
0.00897283
0.00893621
0.00888523
0.00882065
0.00874325
0.00865381
0.00855309
0.00844179
0.0083206
0.00819024
0.0080515
0.00790518
0.00775211
0.00759315
0.00742916
0.007261
0.00708954
0.00691565
0.00674021
0.00656408
0.00638815
0.00621326
0.00604026
0.00586994
0.00570308
0.00554038
0.0053825
0.00523
0.00508336
0.00494294
0.00480762
0.00467645
0.00454972
0.00442756
0.00430987
0.00419638
0.00408666
0.00398024
0.00387656
0.00377514
0.00367548
0.00357715
0.00347972
0.0033828
0.00328602
0.00318899
0.00309136
0.00299274
0.00289276
0.00279102
0.00268711
0.0025806
0.00247103
0.00235788
0.00224059
0.00211853
0.00199097
0.00185703
0.00171564
0.00156544
0.0014046
0.00123051
0.00103918
0.000823576
0.000568507
0
0
0
0
0
0
0
0
0
0
0
0
0
0
0
0
0
0
0
0
0
0
0
0
0
0
0
0
0
0
0
0
0
0
0
0
0
0
0
0
0
0
0
0
0
0
0
0
0
0
0
0
0
0
0
0
0
0
0
0
0
0
0
0
0
0
0
0
0
0
0
0
0
0
0
0
0
0
0
0
0
0
0
0
0
0
0
0
0
0
0
0
0
0
0
0
0
0
0
0
0
0
0
0
0
0
0
0
0
0
0
0
0
0
0
0
0
0
0
0
0
0
0
0
)
;

boundaryField
{
    inandouthalf11
    {
        type            cyclic;
    }
    inandouthalf12
    {
        type            cyclic;
    }
    inandouthalf21
    {
        type            cyclic;
    }
    inandouthalf22
    {
        type            cyclic;
    }
    inandouthalf31
    {
        type            cyclic;
    }
    inandouthalf32
    {
        type            cyclic;
    }
    inandouthalf41
    {
        type            cyclic;
    }
    inandouthalf42
    {
        type            cyclic;
    }
    top
    {
        type            symmetryPlane;
    }
    walls
    {
        type            zeroGradient;
    }
    frontAndBackPlanes
    {
        type            empty;
    }
}


// ************************************************************************* //
