/*--------------------------------*- C++ -*----------------------------------*\
| =========                 |                                                 |
| \\      /  F ield         | OpenFOAM: The Open Source CFD Toolbox           |
|  \\    /   O peration     | Version:  2.4.x                                 |
|   \\  /    A nd           | Web:      www.OpenFOAM.org                      |
|    \\/     M anipulation  |                                                 |
\*---------------------------------------------------------------------------*/
FoamFile
{
    version     2.0;
    format      ascii;
    class       volVectorField;
    location    "9.3";
    object      Ub_0;
}
// * * * * * * * * * * * * * * * * * * * * * * * * * * * * * * * * * * * * * //

dimensions      [0 1 -1 0 0 0 0];

internalField   nonuniform List<vector> 
360
(
(-7.28837e-05 1.09322e-08 0)
(-7.24777e-05 3.876e-08 0)
(-7.24157e-05 7.11847e-08 0)
(-7.24645e-05 1.0142e-07 0)
(-7.24851e-05 1.31443e-07 0)
(-7.24878e-05 1.62337e-07 0)
(-7.24923e-05 1.93879e-07 0)
(-7.24998e-05 2.25838e-07 0)
(-7.25076e-05 2.58238e-07 0)
(-7.25154e-05 2.91194e-07 0)
(-7.25232e-05 3.24806e-07 0)
(-7.25308e-05 3.59124e-07 0)
(-7.25383e-05 3.94177e-07 0)
(-7.25458e-05 4.29977e-07 0)
(-7.25532e-05 4.66533e-07 0)
(-7.25607e-05 5.03854e-07 0)
(-7.25681e-05 5.41943e-07 0)
(-7.25754e-05 5.80795e-07 0)
(-7.25827e-05 6.20398e-07 0)
(-7.259e-05 6.60742e-07 0)
(-7.25971e-05 7.01804e-07 0)
(-7.26043e-05 7.43565e-07 0)
(-7.26115e-05 7.86005e-07 0)
(-7.26186e-05 8.29101e-07 0)
(-7.26257e-05 8.72827e-07 0)
(-7.26327e-05 9.17156e-07 0)
(-7.26397e-05 9.62055e-07 0)
(-7.26468e-05 1.0075e-06 0)
(-7.26539e-05 1.05346e-06 0)
(-7.26609e-05 1.0999e-06 0)
(-7.2668e-05 1.14678e-06 0)
(-7.26752e-05 1.19407e-06 0)
(-7.26822e-05 1.24173e-06 0)
(-7.26895e-05 1.28973e-06 0)
(-7.26967e-05 1.33802e-06 0)
(-7.2704e-05 1.38657e-06 0)
(-7.27113e-05 1.43534e-06 0)
(-7.27188e-05 1.48427e-06 0)
(-7.27265e-05 1.53335e-06 0)
(-7.27339e-05 1.5825e-06 0)
(-7.27419e-05 1.6317e-06 0)
(-7.27498e-05 1.68091e-06 0)
(-7.27577e-05 1.73007e-06 0)
(-7.27661e-05 1.77916e-06 0)
(-7.27744e-05 1.82812e-06 0)
(-7.2783e-05 1.87691e-06 0)
(-7.27918e-05 1.92551e-06 0)
(-7.28006e-05 1.97384e-06 0)
(-7.28099e-05 2.02189e-06 0)
(-7.28195e-05 2.06963e-06 0)
(-7.2829e-05 2.11701e-06 0)
(-7.2839e-05 2.16401e-06 0)
(-7.28492e-05 2.21059e-06 0)
(-7.28598e-05 2.25673e-06 0)
(-7.28705e-05 2.30239e-06 0)
(-7.28819e-05 2.34756e-06 0)
(-7.28932e-05 2.39221e-06 0)
(-7.29051e-05 2.43633e-06 0)
(-7.29173e-05 2.47989e-06 0)
(-7.29297e-05 2.52286e-06 0)
(-7.29428e-05 2.56526e-06 0)
(-7.2956e-05 2.60705e-06 0)
(-7.29698e-05 2.64826e-06 0)
(-7.29839e-05 2.68886e-06 0)
(-7.29984e-05 2.72885e-06 0)
(-7.30133e-05 2.76822e-06 0)
(-7.30288e-05 2.80698e-06 0)
(-7.30446e-05 2.84511e-06 0)
(-7.30609e-05 2.88263e-06 0)
(-7.30776e-05 2.91952e-06 0)
(-7.30949e-05 2.95579e-06 0)
(-7.31128e-05 2.99146e-06 0)
(-7.31308e-05 3.02652e-06 0)
(-7.31497e-05 3.06098e-06 0)
(-7.31689e-05 3.09485e-06 0)
(-7.31889e-05 3.12816e-06 0)
(-7.32091e-05 3.16088e-06 0)
(-7.323e-05 3.19302e-06 0)
(-7.32515e-05 3.22459e-06 0)
(-7.32736e-05 3.25559e-06 0)
(-7.32962e-05 3.28603e-06 0)
(-7.33195e-05 3.31591e-06 0)
(-7.33434e-05 3.34525e-06 0)
(-7.33679e-05 3.37404e-06 0)
(-7.33931e-05 3.40232e-06 0)
(-7.3419e-05 3.43006e-06 0)
(-7.34456e-05 3.4573e-06 0)
(-7.34728e-05 3.48402e-06 0)
(-7.35008e-05 3.51022e-06 0)
(-7.35295e-05 3.5359e-06 0)
(-7.3559e-05 3.56108e-06 0)
(-7.35893e-05 3.58574e-06 0)
(-7.36204e-05 3.60989e-06 0)
(-7.36524e-05 3.63354e-06 0)
(-7.36852e-05 3.65669e-06 0)
(-7.37189e-05 3.67934e-06 0)
(-7.37536e-05 3.70151e-06 0)
(-7.37892e-05 3.72318e-06 0)
(-7.38258e-05 3.74437e-06 0)
(-7.38635e-05 3.76506e-06 0)
(-7.39021e-05 3.78527e-06 0)
(-7.39419e-05 3.80498e-06 0)
(-7.39829e-05 3.82421e-06 0)
(-7.4025e-05 3.84295e-06 0)
(-7.40683e-05 3.86121e-06 0)
(-7.41129e-05 3.87898e-06 0)
(-7.41589e-05 3.89628e-06 0)
(-7.42062e-05 3.91309e-06 0)
(-7.42549e-05 3.92943e-06 0)
(-7.43051e-05 3.9453e-06 0)
(-7.43568e-05 3.9607e-06 0)
(-7.44102e-05 3.97563e-06 0)
(-7.44652e-05 3.9901e-06 0)
(-7.45219e-05 4.00412e-06 0)
(-7.45804e-05 4.01768e-06 0)
(-7.46408e-05 4.03078e-06 0)
(-7.47031e-05 4.04343e-06 0)
(-7.47675e-05 4.05563e-06 0)
(-7.48341e-05 4.06735e-06 0)
(-7.49029e-05 4.07858e-06 0)
(-7.49742e-05 4.08929e-06 0)
(-7.50481e-05 4.09943e-06 0)
(-7.51247e-05 4.10897e-06 0)
(-7.52042e-05 4.11784e-06 0)
(-7.52869e-05 4.12599e-06 0)
(-7.5373e-05 4.13337e-06 0)
(-7.54626e-05 4.13996e-06 0)
(-7.55562e-05 4.14577e-06 0)
(-7.56539e-05 4.15082e-06 0)
(-7.57562e-05 4.15519e-06 0)
(-7.58632e-05 4.15896e-06 0)
(-7.59749e-05 4.16221e-06 0)
(-7.60919e-05 4.16499e-06 0)
(-7.62156e-05 4.16726e-06 0)
(-7.63474e-05 4.16891e-06 0)
(-7.64878e-05 4.16967e-06 0)
(-7.66367e-05 4.16912e-06 0)
(-7.67972e-05 4.16693e-06 0)
(-7.69774e-05 4.16308e-06 0)
(-7.71859e-05 4.16196e-06 0)
(-7.7413e-05 3.85599e-06 0)
(-7.74536e-05 6.87937e-06 0)
(9.83624e-05 -6.55111e-06 0)
(0.0418859 9.83277e-05 0)
(0.150973 0.000400203 0)
(0.250303 0.000360214 0)
(0.335557 0.000366854 0)
(0.410004 0.00036742 0)
(0.47603 0.000365279 0)
(0.535316 0.000360253 0)
(0.589083 0.00035188 0)
(0.638258 0.000341346 0)
(0.683472 0.00032451 0)
(0.725213 0.000304739 0)
(0.763892 0.000282459 0)
(0.799856 0.00025831 0)
(0.833405 0.000233084 0)
(0.864796 0.000207549 0)
(0.894253 0.000182374 0)
(0.921971 0.000158105 0)
(0.94812 0.000135159 0)
(0.972849 0.000113835 0)
(0.996289 9.43245e-05 0)
(1.01856 7.6728e-05 0)
(1.03976 6.10725e-05 0)
(1.05997 4.73273e-05 0)
(1.0793 3.54176e-05 0)
(1.09779 2.52361e-05 0)
(1.11552 1.66532e-05 0)
(1.13255 9.52469e-06 0)
(1.14892 3.69896e-06 0)
(1.16469 -9.76228e-07 0)
(1.17988 -4.65426e-06 0)
(1.19455 -7.49298e-06 0)
(1.20872 -9.66061e-06 0)
(1.22242 -1.1343e-05 0)
(1.23568 -1.27317e-05 0)
(1.24852 -1.39856e-05 0)
(1.26097 -1.51923e-05 0)
(1.27305 -1.63621e-05 0)
(1.28476 -1.74581e-05 0)
(1.29614 -1.84293e-05 0)
(1.30719 -1.923e-05 0)
(1.31792 -1.98275e-05 0)
(1.32836 -2.02044e-05 0)
(1.33849 -2.03569e-05 0)
(1.34835 -2.02932e-05 0)
(1.35793 -2.00297e-05 0)
(1.36723 -1.95887e-05 0)
(1.37628 -1.89953e-05 0)
(1.38506 -1.8275e-05 0)
(1.39358 -1.74525e-05 0)
(1.40185 -1.65506e-05 0)
(1.40987 -1.55898e-05 0)
(1.41763 -1.45883e-05 0)
(1.42514 -1.35621e-05 0)
(1.4324 -1.25254e-05 0)
(1.4394 -1.14905e-05 0)
(1.44614 -1.04679e-05 0)
(1.45262 -9.46531e-06 0)
(1.45883 -8.48794e-06 0)
(1.46483 -7.52878e-06 0)
(1.47065 -6.58203e-06 0)
(1.47629 -5.65598e-06 0)
(1.48171 -4.76717e-06 0)
(1.48688 -3.9402e-06 0)
(1.49179 -3.20154e-06 0)
(1.4964 -2.57042e-06 0)
(1.50069 -2.05276e-06 0)
(1.50463 -1.64121e-06 0)
(1.50821 -1.32012e-06 0)
(1.51142 -1.07126e-06 0)
(1.51424 -8.77902e-07 0)
(1.51669 -7.26424e-07 0)
(1.51876 -6.06433e-07 0)
(1.52048 -5.10213e-07 0)
(1.52188 -4.32081e-07 0)
(1.52298 -3.67849e-07 0)
(1.5238 -3.14416e-07 0)
(1.52439 -2.69463e-07 0)
(1.52476 -2.31246e-07 0)
(1.52493 -1.9846e-07 0)
(1.52494 -1.70115e-07 0)
(1.52479 -1.45468e-07 0)
(1.5245 -1.23962e-07 0)
(1.52409 -1.05178e-07 0)
(1.52356 -8.87944e-08 0)
(1.52292 -7.45488e-08 0)
(1.52219 -6.22219e-08 0)
(1.52135 -5.1624e-08 0)
(1.52043 -4.25452e-08 0)
(1.51943 -3.48614e-08 0)
(1.51834 -2.8356e-08 0)
(1.51717 -2.29216e-08 0)
(1.51593 -1.8423e-08 0)
(1.51462 -1.48113e-08 0)
(1.51323 -1.10526e-08 0)
(1.51178 -8.1754e-09 0)
(1.51027 -6.66141e-09 0)
(1.5087 -4.95332e-09 0)
(1.50707 -3.57205e-09 0)
(1.50538 -2.51915e-09 0)
(1.50364 -1.73852e-09 0)
(1.50186 -1.16449e-09 0)
(1.50004 -7.56129e-10 0)
(1.49817 -4.58232e-10 0)
(1.49627 -2.3893e-10 0)
(1.49434 -9.95409e-11 0)
(1.49239 -3.22092e-11 0)
(1.49042 1.10168e-12 0)
(1.48844 1.00322e-11 0)
(1.48645 -5.65159e-12 0)
(1.48447 -5.42389e-12 0)
(1.4825 -4.24056e-12 0)
(1.48054 -3.91393e-12 0)
(1.47863 -3.82509e-12 0)
(1.47675 -3.69896e-12 0)
(1.47494 -3.54326e-12 0)
(1.47319 -3.33338e-12 0)
(1.47154 -2.98163e-12 0)
(1.46999 -2.92091e-12 0)
(1.46857 -8.44914e-12 0)
(1.4673 1.81519e-11 0)
(1.46621 -5.14334e-11 0)
(1.4653 8.93311e-11 0)
(1.46461 -1.52036e-10 0)
(1.46416 2.19948e-10 0)
(1.46393 -3.0853e-10 0)
(1.46389 3.97158e-10 0)
(1.46389 -4.98776e-10 0)
(1.46389 5.95406e-10 0)
(1.46389 -7.01649e-10 0)
(1.46389 8.02825e-10 0)
(1.46389 -9.13189e-10 0)
(1.46389 1.01915e-09 0)
(1.46389 -1.13406e-09 0)
(1.46389 1.24521e-09 0)
(1.46389 -1.36499e-09 0)
(1.46389 1.48165e-09 0)
(1.46389 -1.60658e-09 0)
(1.46389 1.72908e-09 0)
(1.46389 -1.85944e-09 0)
(1.46389 1.98795e-09 0)
(1.46389 -2.124e-09 0)
(1.46389 2.25876e-09 0)
(1.46389 -2.40067e-09 0)
(1.46389 2.54187e-09 0)
(1.46389 -2.68973e-09 0)
(1.46389 2.83758e-09 0)
(1.46389 -2.99155e-09 0)
(1.46389 3.14613e-09 0)
(1.46389 -3.30631e-09 0)
(1.46389 3.46773e-09 0)
(1.46389 -3.63417e-09 0)
(1.46389 3.8025e-09 0)
(1.46389 -3.97525e-09 0)
(1.46389 4.15052e-09 0)
(1.46389 -4.32972e-09 0)
(1.46389 4.51173e-09 0)
(1.46389 -4.69752e-09 0)
(1.46389 4.88621e-09 0)
(1.46389 -5.07858e-09 0)
(1.46389 5.27388e-09 0)
(1.46389 -5.47274e-09 0)
(1.46389 5.67453e-09 0)
(1.46389 -5.87976e-09 0)
(1.46389 6.08788e-09 0)
(1.46389 -6.29931e-09 0)
(1.46389 6.51355e-09 0)
(1.46389 -6.73093e-09 0)
(1.46389 6.10328e-09 0)
(1.46389 -6.18517e-09 0)
(1.46389 6.26599e-09 0)
(1.46389 -6.34604e-09 0)
(1.46389 6.42503e-09 0)
(1.46389 -6.50323e-09 0)
(1.46389 6.58036e-09 0)
(1.46389 -6.65668e-09 0)
(1.46389 6.73191e-09 0)
(1.46389 -6.80631e-09 0)
(1.46389 6.87961e-09 0)
(1.46389 -6.95207e-09 0)
(1.46389 7.0234e-09 0)
(1.46389 -7.09387e-09 0)
(1.46389 7.16319e-09 0)
(1.46389 -7.23163e-09 0)
(1.46389 7.29888e-09 0)
(1.46389 -7.36523e-09 0)
(1.46389 7.43035e-09 0)
(1.46389 -7.4947e-09 0)
(1.46389 7.55743e-09 0)
(1.46389 -7.61983e-09 0)
(1.46389 7.68015e-09 0)
(1.46389 -7.74048e-09 0)
(1.46389 7.79831e-09 0)
(1.46389 -7.8564e-09 0)
(1.46389 7.91179e-09 0)
(1.46389 -7.96755e-09 0)
(1.46389 8.02032e-09 0)
(1.46389 -8.07358e-09 0)
(1.46389 8.1238e-09 0)
(1.46389 -8.1743e-09 0)
(1.46389 8.22192e-09 0)
(1.46389 -8.26932e-09 0)
(1.46389 8.3144e-09 0)
(1.46389 -8.35851e-09 0)
(1.46389 8.40074e-09 0)
(1.46389 -8.44131e-09 0)
(1.46389 8.48069e-09 0)
(1.46389 -8.51725e-09 0)
(1.46389 8.5536e-09 0)
(1.46389 -8.58568e-09 0)
(1.46389 8.61881e-09 0)
(1.46389 -8.64567e-09 0)
(1.46389 8.67512e-09 0)
(1.46389 -8.69602e-09 0)
(1.46389 8.72053e-09 0)
(1.46389 -8.73427e-09 0)
(1.46389 8.75186e-09 0)
(1.46389 -8.75651e-09 0)
)
;

boundaryField
{
    inandouthalf11
    {
        type            cyclic;
    }
    inandouthalf12
    {
        type            cyclic;
    }
    inandouthalf21
    {
        type            cyclic;
    }
    inandouthalf22
    {
        type            cyclic;
    }
    inandouthalf31
    {
        type            cyclic;
    }
    inandouthalf32
    {
        type            cyclic;
    }
    inandouthalf41
    {
        type            cyclic;
    }
    inandouthalf42
    {
        type            cyclic;
    }
    top
    {
        type            symmetryPlane;
    }
    walls
    {
        type            fixedValue;
        value           uniform (0 0 0);
    }
    frontAndBackPlanes
    {
        type            empty;
    }
}


// ************************************************************************* //
