/*--------------------------------*- C++ -*----------------------------------*\
| =========                 |                                                 |
| \\      /  F ield         | OpenFOAM: The Open Source CFD Toolbox           |
|  \\    /   O peration     | Version:  2.4.x                                 |
|   \\  /    A nd           | Web:      www.OpenFOAM.org                      |
|    \\/     M anipulation  |                                                 |
\*---------------------------------------------------------------------------*/
FoamFile
{
    version     2.0;
    format      ascii;
    class       volVectorField;
    location    "9.3";
    object      Ur;
}
// * * * * * * * * * * * * * * * * * * * * * * * * * * * * * * * * * * * * * //

dimensions      [0 1 -1 0 0 0 0];

internalField   nonuniform List<vector> 
360
(
(-7.29529e-05 1.09301e-08 0)
(-7.25518e-05 6.4765e-08 0)
(-7.24955e-05 1.17577e-07 0)
(-7.25494e-05 1.65681e-07 0)
(-7.25753e-05 2.14561e-07 0)
(-7.25835e-05 2.65239e-07 0)
(-7.25938e-05 3.16861e-07 0)
(-7.26071e-05 3.69087e-07 0)
(-7.26208e-05 4.22036e-07 0)
(-7.26347e-05 4.7591e-07 0)
(-7.26488e-05 5.30865e-07 0)
(-7.26628e-05 5.86985e-07 0)
(-7.2677e-05 6.4431e-07 0)
(-7.26913e-05 7.02863e-07 0)
(-7.27058e-05 7.62658e-07 0)
(-7.27205e-05 8.23708e-07 0)
(-7.27354e-05 8.86021e-07 0)
(-7.27503e-05 9.49588e-07 0)
(-7.27655e-05 1.01439e-06 0)
(-7.27808e-05 1.08041e-06 0)
(-7.27962e-05 1.14761e-06 0)
(-7.28119e-05 1.21596e-06 0)
(-7.28277e-05 1.28543e-06 0)
(-7.28437e-05 1.35597e-06 0)
(-7.28598e-05 1.42756e-06 0)
(-7.28761e-05 1.50014e-06 0)
(-7.28926e-05 1.57366e-06 0)
(-7.29093e-05 1.64807e-06 0)
(-7.29261e-05 1.72334e-06 0)
(-7.29431e-05 1.7994e-06 0)
(-7.29603e-05 1.87619e-06 0)
(-7.29778e-05 1.95367e-06 0)
(-7.29952e-05 2.03176e-06 0)
(-7.30131e-05 2.1104e-06 0)
(-7.3031e-05 2.18955e-06 0)
(-7.30492e-05 2.26912e-06 0)
(-7.30675e-05 2.34905e-06 0)
(-7.30861e-05 2.42926e-06 0)
(-7.31049e-05 2.50972e-06 0)
(-7.31237e-05 2.59032e-06 0)
(-7.3143e-05 2.671e-06 0)
(-7.31624e-05 2.75171e-06 0)
(-7.31818e-05 2.83235e-06 0)
(-7.32017e-05 2.91287e-06 0)
(-7.32217e-05 2.9932e-06 0)
(-7.3242e-05 3.07327e-06 0)
(-7.32626e-05 3.15303e-06 0)
(-7.32831e-05 3.23238e-06 0)
(-7.33041e-05 3.31125e-06 0)
(-7.33254e-05 3.38964e-06 0)
(-7.33467e-05 3.46746e-06 0)
(-7.33685e-05 3.54465e-06 0)
(-7.33904e-05 3.62117e-06 0)
(-7.34127e-05 3.69698e-06 0)
(-7.3435e-05 3.77201e-06 0)
(-7.34579e-05 3.84626e-06 0)
(-7.34808e-05 3.91967e-06 0)
(-7.35043e-05 3.99221e-06 0)
(-7.35279e-05 4.06385e-06 0)
(-7.35516e-05 4.13454e-06 0)
(-7.3576e-05 4.2043e-06 0)
(-7.36004e-05 4.27309e-06 0)
(-7.36254e-05 4.34092e-06 0)
(-7.36505e-05 4.40777e-06 0)
(-7.3676e-05 4.47364e-06 0)
(-7.37018e-05 4.53851e-06 0)
(-7.37281e-05 4.60237e-06 0)
(-7.37547e-05 4.66524e-06 0)
(-7.37816e-05 4.7271e-06 0)
(-7.38088e-05 4.78794e-06 0)
(-7.38366e-05 4.84778e-06 0)
(-7.38648e-05 4.90666e-06 0)
(-7.38931e-05 4.96454e-06 0)
(-7.39222e-05 5.02146e-06 0)
(-7.39515e-05 5.07743e-06 0)
(-7.39814e-05 5.13247e-06 0)
(-7.40116e-05 5.18658e-06 0)
(-7.40423e-05 5.23975e-06 0)
(-7.40736e-05 5.29199e-06 0)
(-7.41053e-05 5.34333e-06 0)
(-7.41375e-05 5.39374e-06 0)
(-7.41703e-05 5.44326e-06 0)
(-7.42036e-05 5.4919e-06 0)
(-7.42374e-05 5.53968e-06 0)
(-7.42719e-05 5.58661e-06 0)
(-7.43069e-05 5.63269e-06 0)
(-7.43426e-05 5.67795e-06 0)
(-7.43788e-05 5.72238e-06 0)
(-7.44157e-05 5.76597e-06 0)
(-7.44533e-05 5.80875e-06 0)
(-7.44916e-05 5.85069e-06 0)
(-7.45306e-05 5.89181e-06 0)
(-7.45704e-05 5.93212e-06 0)
(-7.46109e-05 5.97161e-06 0)
(-7.46522e-05 6.01031e-06 0)
(-7.46944e-05 6.04822e-06 0)
(-7.47374e-05 6.08534e-06 0)
(-7.47813e-05 6.12168e-06 0)
(-7.48261e-05 6.15724e-06 0)
(-7.48719e-05 6.19201e-06 0)
(-7.49187e-05 6.22601e-06 0)
(-7.49665e-05 6.25922e-06 0)
(-7.50153e-05 6.29165e-06 0)
(-7.50653e-05 6.32332e-06 0)
(-7.51165e-05 6.35421e-06 0)
(-7.51689e-05 6.38433e-06 0)
(-7.52225e-05 6.41369e-06 0)
(-7.52774e-05 6.4423e-06 0)
(-7.53337e-05 6.47015e-06 0)
(-7.53914e-05 6.49726e-06 0)
(-7.54506e-05 6.52362e-06 0)
(-7.55114e-05 6.54925e-06 0)
(-7.55737e-05 6.57416e-06 0)
(-7.56378e-05 6.59835e-06 0)
(-7.57036e-05 6.62183e-06 0)
(-7.57713e-05 6.6446e-06 0)
(-7.58409e-05 6.66666e-06 0)
(-7.59125e-05 6.68801e-06 0)
(-7.59863e-05 6.70863e-06 0)
(-7.60623e-05 6.72848e-06 0)
(-7.61408e-05 6.74752e-06 0)
(-7.62217e-05 6.76569e-06 0)
(-7.63054e-05 6.78291e-06 0)
(-7.63918e-05 6.79908e-06 0)
(-7.64813e-05 6.81412e-06 0)
(-7.65739e-05 6.82795e-06 0)
(-7.667e-05 6.84054e-06 0)
(-7.67698e-05 6.85188e-06 0)
(-7.68736e-05 6.86206e-06 0)
(-7.69819e-05 6.87118e-06 0)
(-7.70948e-05 6.8794e-06 0)
(-7.72125e-05 6.88685e-06 0)
(-7.73357e-05 6.89363e-06 0)
(-7.74657e-05 6.89973e-06 0)
(-7.76041e-05 6.90496e-06 0)
(-7.77509e-05 6.90885e-06 0)
(-7.79055e-05 6.91074e-06 0)
(-7.80702e-05 6.91008e-06 0)
(-7.8253e-05 6.90695e-06 0)
(-7.84627e-05 6.90611e-06 0)
(-7.86905e-05 6.59712e-06 0)
(-7.8732e-05 9.63812e-06 0)
(9.67387e-05 -3.84348e-06 0)
(0.00344827 0.000186596 0)
(0.00731543 0.00106472 0)
(0.00612632 0.00118947 0)
(0.00484172 0.0013274 0)
(0.00392006 0.00143631 0)
(0.00324224 0.00153576 0)
(0.00271732 0.00162448 0)
(0.00230341 0.00169602 0)
(0.00198659 0.00178075 0)
(0.00160116 0.00181971 0)
(0.00122569 0.00185261 0)
(0.000879419 0.00186792 0)
(0.00056398 0.00186294 0)
(0.000278287 0.00183751 0)
(2.10941e-05 0.00179252 0)
(-0.000208688 0.00172914 0)
(-0.000412079 0.00164875 0)
(-0.000590117 0.00155288 0)
(-0.000743785 0.00144318 0)
(-0.000874003 0.00132136 0)
(-0.000981599 0.00118919 0)
(-0.00106731 0.00104848 0)
(-0.00113166 0.000901049 0)
(-0.001175 0.000748713 0)
(-0.00119738 0.000593242 0)
(-0.00119858 0.000436315 0)
(-0.00117803 0.000279474 0)
(-0.0011348 0.000124074 0)
(-0.00106761 -2.86982e-05 0)
(-0.00097479 -0.000178072 0)
(-0.000854362 -0.000324079 0)
(-0.000704136 -0.000468312 0)
(-0.000521858 -0.000615087 0)
(-0.000305423 -0.000771863 0)
(-5.30299e-05 -0.000947763 0)
(0.000236878 -0.00115063 0)
(0.000565848 -0.00138488 0)
(0.00093566 -0.00165149 0)
(0.00134847 -0.00194901 0)
(0.00180687 -0.00227455 0)
(0.00231392 -0.00262449 0)
(0.00287315 -0.00299491 0)
(0.00348849 -0.00338204 0)
(0.00416424 -0.00378242 0)
(0.00490498 -0.00419306 0)
(0.00571547 -0.0046115 0)
(0.00660054 -0.00503571 0)
(0.00756497 -0.00546401 0)
(0.00861328 -0.00589488 0)
(0.00974957 -0.00632687 0)
(0.0109773 -0.0067584 0)
(0.0122991 -0.00718769 0)
(0.0137162 -0.00761269 0)
(0.0152288 -0.00803103 0)
(0.0168349 -0.00844 0)
(0.0185306 -0.00883648 0)
(0.0203097 -0.00921658 0)
(0.0221633 -0.00957521 0)
(0.0240989 -0.00990876 0)
(0.0261223 -0.0102095 0)
(0.0282142 -0.0104635 0)
(0.0303484 -0.0106566 0)
(0.0324914 -0.0107784 0)
(0.0346038 -0.0108257 0)
(0.0366421 -0.0108042 0)
(0.0385622 -0.0107261 0)
(0.0403226 -0.0106065 0)
(0.0418873 -0.0104607 0)
(0.0432284 -0.0103013 0)
(0.0443271 -0.0101383 0)
(0.045175 -0.00997857 0)
(0.0457732 -0.00982687 0)
(0.0461315 -0.00968617 0)
(0.0462661 -0.00955816 0)
(0.0461979 -0.00944362 0)
(0.0459494 -0.00934266 0)
(0.0455434 -0.00925493 0)
(0.045001 -0.00917969 0)
(0.0443408 -0.00911594 0)
(0.0435788 -0.00906251 0)
(0.0427279 -0.00901802 0)
(0.0417983 -0.00898106 0)
(0.0407978 -0.00895015 0)
(0.0397325 -0.00892386 0)
(0.0386071 -0.00890083 0)
(0.0374251 -0.00887971 0)
(0.0361896 -0.0088592 0)
(0.034904 -0.00883841 0)
(0.0335709 -0.00881472 0)
(0.0321957 -0.00878965 0)
(0.0307813 -0.00875507 0)
(0.0293383 -0.00871863 0)
(0.0278716 -0.00865576 0)
(0.02633 -0.00852953 0)
(-0.000625943 -0.00432928 0)
(-0.00192069 -0.0086958 0)
(-0.00206889 -0.00714769 0)
(-0.00202444 -0.00791656 0)
(-0.00200439 -0.00783215 0)
(-0.00198765 -0.00793507 0)
(-0.00199764 -0.00744702 0)
(-0.00191532 -0.00822026 0)
(-0.00201671 -0.00586606 0)
(-0.001912 -0.0084954 0)
(-0.00211744 -0.000814263 0)
(-0.00186625 -0.00766381 0)
(-0.00163762 0.00398367 0)
(-0.000965683 0.033694 0)
(-0.00105418 0.0396652 0)
(-0.000909864 0.0395917 0)
(-0.000930753 0.039598 0)
(-0.000939234 0.0395984 0)
(-0.000951399 0.0395988 0)
(-0.000966049 0.0395989 0)
(-0.000983517 0.0395986 0)
(-0.00100402 0.0395978 0)
(-0.00102781 0.0395965 0)
(-0.0010551 0.0395947 0)
(-0.00108609 0.0395924 0)
(-0.00112088 0.0395894 0)
(-0.00115938 0.0395857 0)
(-0.0012009 0.0395814 0)
(-0.0012407 0.0395762 0)
(-0.00128637 0.0395699 0)
(-0.00133381 0.0395612 0)
(-0.00134731 0.0395513 0)
(-0.00134771 0.0395458 0)
(-0.00134767 0.039545 0)
(-0.00134767 0.039545 0)
(-0.00134767 0.039545 0)
(-0.00134767 0.039545 0)
(-0.00134767 0.039545 0)
(-0.00134767 0.039545 0)
(-0.00134767 0.039545 0)
(-0.00134767 0.039545 0)
(-0.00134767 0.039545 0)
(-0.00134767 0.039545 0)
(-0.00134767 0.039545 0)
(-0.00134767 0.039545 0)
(-0.00134767 0.039545 0)
(-0.00134767 0.039545 0)
(-0.00134767 0.039545 0)
(-0.00134767 0.039545 0)
(-0.00134767 0.039545 0)
(-0.00134767 0.039545 0)
(-0.00134767 0.039545 0)
(-0.00134767 0.039545 0)
(-0.00134767 0.039545 0)
(-0.00134767 0.039545 0)
(-0.00134767 0.039545 0)
(-0.00134767 0.039545 0)
(-0.00134767 0.039545 0)
(-0.00134767 0.039545 0)
(-0.00134767 0.039545 0)
(-0.00134767 0.039545 0)
(-0.00134767 0.039545 0)
(-0.00134767 0.039545 0)
(-0.00134767 0.039545 0)
(-0.00134767 0.039545 0)
(-0.00134767 0.039545 0)
(-0.00134767 0.039545 0)
(-0.00134767 0.039545 0)
(-0.00134767 0.039545 0)
(-0.00134767 0.039545 0)
(-0.00134767 0.039545 0)
(-0.00134767 0.039545 0)
(-0.00134767 0.039545 0)
(-0.00134767 0.039545 0)
(-0.00134767 0.039545 0)
(-0.00134767 0.039545 0)
(-0.00134767 0.039545 0)
(-0.00134767 0.039545 0)
(-0.00134767 0.039545 0)
(-0.00134767 0.039545 0)
(-0.00134767 0.039545 0)
(-0.00134767 0.039545 0)
(-0.00134767 0.039545 0)
(-0.00134767 0.039545 0)
(-0.00134767 0.039545 0)
(-0.00134767 0.039545 0)
(-0.00134767 0.039545 0)
(-0.00134767 0.039545 0)
(-0.00134767 0.039545 0)
(-0.00134767 0.039545 0)
(-0.00134767 0.039545 0)
(-0.00134767 0.039545 0)
(-0.00134767 0.039545 0)
(-0.00134767 0.039545 0)
(-0.00134767 0.039545 0)
(-0.00134767 0.039545 0)
(-0.00134767 0.039545 0)
(-0.00134767 0.039545 0)
(-0.00134767 0.039545 0)
(-0.00134767 0.039545 0)
(-0.00134767 0.039545 0)
(-0.00134767 0.039545 0)
(-0.00134767 0.039545 0)
(-0.00134767 0.039545 0)
(-0.00134767 0.039545 0)
(-0.00134767 0.039545 0)
(-0.00134767 0.039545 0)
(-0.00134767 0.039545 0)
(-0.00134767 0.039545 0)
(-0.00134767 0.039545 0)
(-0.00134767 0.039545 0)
(-0.00134767 0.039545 0)
(-0.00134767 0.039545 0)
(-0.00134767 0.039545 0)
(-0.00134767 0.039545 0)
(-0.00134767 0.039545 0)
(-0.00134767 0.039545 0)
(-0.00134767 0.039545 0)
(-0.00134767 0.039545 0)
(-0.00134768 0.0395448 0)
(-0.00134804 0.0395364 0)
(-0.00135691 0.0391917 0)
(-0.00156653 0.0224904 0)
)
;

boundaryField
{
    inandouthalf11
    {
        type            cyclic;
    }
    inandouthalf12
    {
        type            cyclic;
    }
    inandouthalf21
    {
        type            cyclic;
    }
    inandouthalf22
    {
        type            cyclic;
    }
    inandouthalf31
    {
        type            cyclic;
    }
    inandouthalf32
    {
        type            cyclic;
    }
    inandouthalf41
    {
        type            cyclic;
    }
    inandouthalf42
    {
        type            cyclic;
    }
    top
    {
        type            symmetryPlane;
    }
    walls
    {
        type            calculated;
        value           uniform (0 0 0);
    }
    frontAndBackPlanes
    {
        type            empty;
    }
}


// ************************************************************************* //
