/*--------------------------------*- C++ -*----------------------------------*\
| =========                 |                                                 |
| \\      /  F ield         | OpenFOAM: The Open Source CFD Toolbox           |
|  \\    /   O peration     | Version:  2.4.x                                 |
|   \\  /    A nd           | Web:      www.OpenFOAM.org                      |
|    \\/     M anipulation  |                                                 |
\*---------------------------------------------------------------------------*/
FoamFile
{
    version     2.0;
    format      ascii;
    class       volScalarField;
    location    "7.35";
    object      alpha_0;
}
// * * * * * * * * * * * * * * * * * * * * * * * * * * * * * * * * * * * * * //

dimensions      [0 0 0 0 0 0 0];

internalField   nonuniform List<scalar> 
360
(
0.610791
0.611606
0.611708
0.611624
0.611578
0.611561
0.611543
0.611521
0.611498
0.611475
0.611452
0.611428
0.611405
0.611381
0.611357
0.611333
0.611308
0.611283
0.611259
0.611233
0.611208
0.611182
0.611157
0.611131
0.611104
0.611078
0.611051
0.611024
0.610996
0.610969
0.610941
0.610912
0.610884
0.610855
0.610826
0.610797
0.610767
0.610737
0.610707
0.610677
0.610646
0.610614
0.610583
0.610551
0.610519
0.610486
0.610453
0.61042
0.610387
0.610352
0.610318
0.610283
0.610248
0.610212
0.610176
0.61014
0.610103
0.610065
0.610028
0.60999
0.609951
0.609912
0.609872
0.609832
0.609791
0.60975
0.609708
0.609665
0.609623
0.609579
0.609535
0.60949
0.609445
0.609399
0.609353
0.609305
0.609257
0.609209
0.609159
0.609109
0.609058
0.609007
0.608954
0.608901
0.608847
0.608791
0.608735
0.608678
0.608621
0.608562
0.608502
0.608441
0.608378
0.608315
0.60825
0.608184
0.608117
0.608048
0.607978
0.607907
0.607834
0.607759
0.607683
0.607605
0.607525
0.607443
0.607359
0.607273
0.607185
0.607095
0.607002
0.606907
0.60681
0.606709
0.606606
0.6065
0.606391
0.606279
0.606163
0.606044
0.605921
0.605795
0.605664
0.605529
0.605389
0.605245
0.605095
0.60494
0.604779
0.604612
0.604437
0.604256
0.604066
0.603866
0.603654
0.60343
0.603195
0.602946
0.602669
0.602352
0.602011
0.601684
0.601292
0.600783
0.600149
0.598935
0.595846
0.595188
0.593735
0.588136
0.163355
0.0421016
0.0189647
0.0110065
0.00731444
0.0052908
0.00404807
0.0032207
0.00263934
0.00221194
0.00188608
0.00163028
0.00142457
0.0012558
0.00111501
0.000995892
0.000893897
0.000805675
0.000728702
0.000661047
0.000601205
0.000547987
0.000500442
0.000457797
0.000419419
0.000384782
0.000353443
0.00032503
0.000299222
0.000275742
0.00025435
0.000234834
0.000217009
0.00020071
0.00018579
0.000172117
0.000159573
0.000148052
0.000137459
0.000127706
0.000118715
0.000110416
0.000102743
9.56389e-05
8.90513e-05
8.29337e-05
7.72438e-05
7.19432e-05
6.69963e-05
6.23708e-05
5.80369e-05
5.39255e-05
4.99801e-05
4.61866e-05
4.25357e-05
3.90207e-05
3.56386e-05
3.23873e-05
2.92702e-05
2.62948e-05
2.34712e-05
2.08131e-05
1.8332e-05
1.60345e-05
1.39309e-05
1.20288e-05
1.03238e-05
8.81041e-06
7.4809e-06
6.32424e-06
5.32376e-06
4.46081e-06
3.72371e-06
3.09719e-06
2.56518e-06
2.11604e-06
1.73913e-06
1.42285e-06
1.15981e-06
9.38847e-07
7.58718e-07
6.05495e-07
4.84428e-07
3.75424e-07
3.09715e-07
2.45295e-07
1.78579e-07
1.40888e-07
8.53806e-08
5.84869e-08
2.77238e-08
1.82249e-08
2.5878e-09
5.68638e-20
6.66254e-31
4.10744e-36
2.02516e-36
9.96301e-37
6.32048e-37
4.48039e-37
3.38691e-37
2.39433e-37
1.26607e-37
5.30629e-38
2.67113e-38
1.51168e-38
9.31286e-39
5.96017e-39
3.27821e-39
1.48751e-39
7.5599e-40
4.03976e-40
2.20265e-40
1.11551e-40
5.51632e-41
2.76324e-41
1.36454e-41
6.62582e-42
3.16172e-42
1.48181e-42
6.81692e-43
3.07638e-43
1.36101e-43
5.89868e-44
2.50264e-44
1.03863e-44
4.21287e-45
1.6687e-45
6.44848e-46
2.42878e-46
8.90661e-47
3.17645e-47
1.1004e-47
3.69811e-48
1.20398e-48
3.79148e-49
1.15303e-49
3.3802e-50
9.53376e-51
2.58154e-51
6.69526e-52
1.65881e-52
3.9148e-53
8.77198e-54
1.8594e-54
3.71305e-55
6.95191e-56
1.21367e-56
1.96301e-57
2.91904e-58
3.95407e-59
4.82391e-60
5.22495e-61
4.93179e-62
3.9556e-63
2.60034e-64
1.32472e-65
4.73627e-67
9.47912e-69
3.04759e-71
9.34201e-76
8.49469e-78
3.83101e-80
1.30138e-90
2.20583e-101
2.68299e-112
2.34711e-123
1.74824e-134
9.87532e-146
4.8057e-157
4.44765e-167
1.86058e-177
1.47815e-185
5.53158e-196
5.08431e-204
2.22093e-214
1.74935e-222
9.37089e-233
6.02425e-241
5.91259e-251
2.10514e-259
3.86475e-269
7.51152e-278
1.90194e-287
2.73257e-296
9.01504e-306
1.01122e-314
4.99006e-321
4.57737e-319
2.8055e-319
6.80328e-321
7.09478e-321
6.08689e-321
8.5424e-321
0
0
0
0
0
0
0
0
0
0
0
0
0
0
0
0
)
;

boundaryField
{
    inandouthalf11
    {
        type            cyclic;
    }
    inandouthalf12
    {
        type            cyclic;
    }
    inandouthalf21
    {
        type            cyclic;
    }
    inandouthalf22
    {
        type            cyclic;
    }
    inandouthalf31
    {
        type            cyclic;
    }
    inandouthalf32
    {
        type            cyclic;
    }
    inandouthalf41
    {
        type            cyclic;
    }
    inandouthalf42
    {
        type            cyclic;
    }
    top
    {
        type            symmetryPlane;
    }
    walls
    {
        type            zeroGradient;
    }
    frontAndBackPlanes
    {
        type            empty;
    }
}


// ************************************************************************* //
