/*--------------------------------*- C++ -*----------------------------------*\
| =========                 |                                                 |
| \\      /  F ield         | OpenFOAM: The Open Source CFD Toolbox           |
|  \\    /   O peration     | Version:  2.4.x                                 |
|   \\  /    A nd           | Web:      www.OpenFOAM.org                      |
|    \\/     M anipulation  |                                                 |
\*---------------------------------------------------------------------------*/
FoamFile
{
    version     2.0;
    format      ascii;
    class       surfaceScalarField;
    location    "7.35";
    object      ddt0(phib);
}
// * * * * * * * * * * * * * * * * * * * * * * * * * * * * * * * * * * * * * //

dimensions      [0 3 -2 0 0 0 0];

internalField   nonuniform List<scalar> 
359
(
-1.3071e-13
-3.43685e-13
-5.33575e-13
-7.07923e-13
-8.85695e-13
-1.07127e-12
-1.26343e-12
-1.46151e-12
-1.66577e-12
-1.87695e-12
-2.09544e-12
-2.32139e-12
-2.55449e-12
-2.79453e-12
-3.04113e-12
-3.29413e-12
-3.55329e-12
-3.81843e-12
-4.08934e-12
-4.36587e-12
-4.64775e-12
-4.93492e-12
-5.22721e-12
-5.52465e-12
-5.82699e-12
-6.13429e-12
-6.44635e-12
-6.76328e-12
-7.08497e-12
-7.4114e-12
-7.74236e-12
-8.07802e-12
-8.4179e-12
-8.76223e-12
-9.11047e-12
-9.46263e-12
-9.81816e-12
-1.01769e-11
-1.05385e-11
-1.09023e-11
-1.1268e-11
-1.1635e-11
-1.20027e-11
-1.23709e-11
-1.2739e-11
-1.31069e-11
-1.34743e-11
-1.38409e-11
-1.42071e-11
-1.45736e-11
-1.49404e-11
-1.53084e-11
-1.56783e-11
-1.60512e-11
-1.64277e-11
-1.68093e-11
-1.71964e-11
-1.75904e-11
-1.79919e-11
-1.84018e-11
-1.88212e-11
-1.92501e-11
-1.96889e-11
-2.01366e-11
-2.05918e-11
-2.10525e-11
-2.15158e-11
-2.19784e-11
-2.24363e-11
-2.28853e-11
-2.33211e-11
-2.37394e-11
-2.4135e-11
-2.45035e-11
-2.48399e-11
-2.51398e-11
-2.5399e-11
-2.56142e-11
-2.57833e-11
-2.59058e-11
-2.59822e-11
-2.60151e-11
-2.6008e-11
-2.5966e-11
-2.58947e-11
-2.58011e-11
-2.56921e-11
-2.55757e-11
-2.54594e-11
-2.53513e-11
-2.52589e-11
-2.51898e-11
-2.51508e-11
-2.51486e-11
-2.51892e-11
-2.52783e-11
-2.54207e-11
-2.56209e-11
-2.58827e-11
-2.62094e-11
-2.66037e-11
-2.7068e-11
-2.76039e-11
-2.8213e-11
-2.88959e-11
-2.96534e-11
-3.04853e-11
-3.13914e-11
-3.23707e-11
-3.34221e-11
-3.45437e-11
-3.57333e-11
-3.69878e-11
-3.83039e-11
-3.96773e-11
-4.11034e-11
-4.25765e-11
-4.40908e-11
-4.56395e-11
-4.72155e-11
-4.8811e-11
-5.0418e-11
-5.20272e-11
-5.36296e-11
-5.52145e-11
-5.6771e-11
-5.82866e-11
-5.97476e-11
-6.1137e-11
-6.24351e-11
-6.36187e-11
-6.46647e-11
-6.55538e-11
-6.62758e-11
-6.68296e-11
-6.7224e-11
-6.74754e-11
-6.76083e-11
-6.76535e-11
-6.76596e-11
-6.7692e-11
-6.77571e-11
-6.78065e-11
-6.77727e-11
-6.75676e-11
-6.6784e-11
-4.19762e-11
4.18536e-11
4.36281e-11
-1.36444e-09
-2.22289e-09
-8.85039e-10
-5.69112e-10
-5.23121e-10
-4.87443e-10
-4.28576e-10
-3.78133e-10
-3.31548e-10
-2.90204e-10
-2.53999e-10
-2.22451e-10
-1.95046e-10
-1.71265e-10
-1.50626e-10
-1.32708e-10
-1.17138e-10
-1.03598e-10
-9.18092e-11
-8.15333e-11
-7.25635e-11
-6.47216e-11
-5.78536e-11
-5.18267e-11
-4.65264e-11
-4.18539e-11
-3.77243e-11
-3.40644e-11
-3.08114e-11
-2.79115e-11
-2.53187e-11
-2.29934e-11
-2.09021e-11
-1.90158e-11
-1.73102e-11
-1.57639e-11
-1.43591e-11
-1.30804e-11
-1.19143e-11
-1.08495e-11
-9.87608e-12
-8.98515e-12
-8.16914e-12
-7.42109e-12
-6.73495e-12
-6.10537e-12
-5.52784e-12
-4.99853e-12
-4.51408e-12
-4.07125e-12
-3.66727e-12
-3.29975e-12
-2.95997e-12
-2.64654e-12
-2.35741e-12
-2.09059e-12
-1.84488e-12
-1.61914e-12
-1.41216e-12
-1.22264e-12
-1.04983e-12
-8.93078e-13
-7.52765e-13
-6.28526e-13
-5.19239e-13
-4.2419e-13
-3.43354e-13
-2.75444e-13
-2.19019e-13
-1.72711e-13
-1.3568e-13
-1.06324e-13
-8.30606e-14
-6.47397e-14
-5.0708e-14
-3.97668e-14
-3.14122e-14
-2.49531e-14
-2.01979e-14
-1.64777e-14
-1.37993e-14
-1.16789e-14
-1.03232e-14
-8.85354e-15
-7.41468e-15
-7.17857e-15
-8.70583e-15
-5.50445e-15
-3.86021e-15
-3.01938e-15
-2.80336e-15
-3.54759e-15
-3.80154e-15
-3.691e-15
-3.76747e-15
-3.58318e-15
-3.54817e-15
-3.35259e-15
-3.32436e-15
-3.13527e-15
-3.09613e-15
-2.89376e-15
-2.83576e-15
-2.62051e-15
-2.51866e-15
-2.28462e-15
-2.1594e-15
-1.92679e-15
-1.79597e-15
-1.54035e-15
-1.36677e-15
-1.11897e-15
-9.41409e-16
-6.93013e-16
-5.65285e-16
-4.61603e-16
-4.63053e-16
-4.34996e-16
-4.31422e-16
-4.41777e-16
-4.50344e-16
-4.2868e-16
-4.06999e-16
-4.44694e-16
-4.69205e-16
-4.82777e-16
-4.56975e-16
-4.62622e-16
-4.33723e-16
-3.98013e-16
-3.33456e-16
-3.59306e-16
-3.60306e-16
-3.65302e-16
-3.39058e-16
-3.42529e-16
-3.18854e-16
-2.9174e-16
-2.46169e-16
-2.41479e-16
-2.13387e-16
-1.85942e-16
-1.37031e-16
-1.14337e-16
-4.58793e-17
4.20225e-18
1.43236e-16
-7.75401e-17
-2.09935e-16
-3.63332e-16
-4.76043e-16
-6.21323e-16
-7.52462e-16
-8.81108e-16
-1.00788e-15
-1.14e-15
-1.27779e-15
-1.42094e-15
-1.58113e-15
-1.72666e-15
-1.90131e-15
-2.05586e-15
-2.23861e-15
-2.36026e-15
-2.51945e-15
-2.67854e-15
-2.87696e-15
-3.04556e-15
-3.25342e-15
-3.45409e-15
-3.57532e-15
-4.02668e-15
-4.37309e-15
-4.71386e-15
-4.76369e-15
-5.69804e-15
-5.79176e-15
-6.30615e-15
-2.57697e-15
-1.79285e-14
-2.92969e-14
-4.10831e-14
-5.26638e-14
-6.44283e-14
-7.69274e-14
-8.9369e-14
-1.02791e-13
-1.14669e-13
-1.27821e-13
-1.40956e-13
-1.55372e-13
-1.69907e-13
-1.8465e-13
-2.00321e-13
-2.13284e-13
-2.46802e-13
-2.75448e-13
-3.05188e-13
-3.28009e-13
-3.62508e-13
-3.82477e-13
-4.06357e-13
-4.08164e-13
-4.8883e-13
-5.25112e-13
-5.66763e-13
-5.46224e-13
-6.01854e-13
-5.78371e-13
-5.92594e-13
)
;

boundaryField
{
    inandouthalf11
    {
        type            cyclic;
        value           nonuniform List<scalar> 
100
(
-1.60316e-10
-1.59454e-10
-1.59371e-10
-1.59526e-10
-1.59615e-10
-1.59665e-10
-1.5972e-10
-1.59782e-10
-1.59845e-10
-1.59909e-10
-1.59972e-10
-1.60036e-10
-1.60101e-10
-1.60166e-10
-1.60232e-10
-1.60298e-10
-1.60366e-10
-1.60433e-10
-1.60502e-10
-1.60571e-10
-1.60641e-10
-1.60712e-10
-1.60784e-10
-1.60856e-10
-1.6093e-10
-1.61004e-10
-1.61079e-10
-1.61156e-10
-1.61233e-10
-1.61311e-10
-1.6139e-10
-1.61471e-10
-1.61552e-10
-1.61634e-10
-1.61718e-10
-1.61802e-10
-1.61888e-10
-1.61975e-10
-1.62063e-10
-1.62152e-10
-1.62243e-10
-1.62335e-10
-1.62427e-10
-1.62521e-10
-1.62617e-10
-1.62713e-10
-1.62811e-10
-1.6291e-10
-1.6301e-10
-1.63112e-10
-1.63214e-10
-1.63318e-10
-1.63423e-10
-1.6353e-10
-1.63638e-10
-1.63748e-10
-1.63858e-10
-1.63971e-10
-1.64084e-10
-1.642e-10
-1.64317e-10
-1.64435e-10
-1.64556e-10
-1.64678e-10
-1.64802e-10
-1.64928e-10
-1.65056e-10
-1.65186e-10
-1.65317e-10
-1.6545e-10
-1.65585e-10
-1.65722e-10
-1.65859e-10
-1.65998e-10
-1.66138e-10
-1.66279e-10
-1.66421e-10
-1.66563e-10
-1.66705e-10
-1.66848e-10
-1.6699e-10
-1.67132e-10
-1.67274e-10
-1.67415e-10
-1.67556e-10
-1.67697e-10
-1.67838e-10
-1.67979e-10
-1.6812e-10
-1.68261e-10
-1.68403e-10
-1.68546e-10
-1.6869e-10
-1.68835e-10
-1.68982e-10
-1.69131e-10
-1.69283e-10
-1.69438e-10
-1.69596e-10
-1.69757e-10
)
;
    }
    inandouthalf12
    {
        type            cyclic;
        value           nonuniform List<scalar> 
100
(
1.60316e-10
1.59454e-10
1.59371e-10
1.59526e-10
1.59615e-10
1.59665e-10
1.5972e-10
1.59782e-10
1.59845e-10
1.59909e-10
1.59972e-10
1.60036e-10
1.60101e-10
1.60166e-10
1.60232e-10
1.60298e-10
1.60366e-10
1.60433e-10
1.60502e-10
1.60571e-10
1.60641e-10
1.60712e-10
1.60784e-10
1.60856e-10
1.6093e-10
1.61004e-10
1.61079e-10
1.61156e-10
1.61233e-10
1.61311e-10
1.6139e-10
1.61471e-10
1.61552e-10
1.61634e-10
1.61718e-10
1.61802e-10
1.61888e-10
1.61975e-10
1.62063e-10
1.62152e-10
1.62243e-10
1.62335e-10
1.62427e-10
1.62521e-10
1.62617e-10
1.62713e-10
1.62811e-10
1.6291e-10
1.6301e-10
1.63112e-10
1.63214e-10
1.63318e-10
1.63423e-10
1.6353e-10
1.63638e-10
1.63748e-10
1.63858e-10
1.63971e-10
1.64084e-10
1.642e-10
1.64317e-10
1.64435e-10
1.64556e-10
1.64678e-10
1.64802e-10
1.64928e-10
1.65056e-10
1.65186e-10
1.65317e-10
1.6545e-10
1.65585e-10
1.65722e-10
1.65859e-10
1.65998e-10
1.66138e-10
1.66279e-10
1.66421e-10
1.66563e-10
1.66705e-10
1.66848e-10
1.6699e-10
1.67132e-10
1.67274e-10
1.67415e-10
1.67556e-10
1.67697e-10
1.67838e-10
1.67979e-10
1.6812e-10
1.68261e-10
1.68403e-10
1.68546e-10
1.6869e-10
1.68835e-10
1.68982e-10
1.69131e-10
1.69283e-10
1.69438e-10
1.69596e-10
1.69757e-10
)
;
    }
    inandouthalf21
    {
        type            cyclic;
        value           nonuniform List<scalar> 
100
(
-1.69922e-10
-1.70092e-10
-1.70267e-10
-1.70446e-10
-1.70631e-10
-1.70822e-10
-1.71019e-10
-1.71222e-10
-1.71432e-10
-1.7165e-10
-1.71875e-10
-1.72108e-10
-1.72349e-10
-1.726e-10
-1.72859e-10
-1.73128e-10
-1.73406e-10
-1.73695e-10
-1.73995e-10
-1.74306e-10
-1.74628e-10
-1.74963e-10
-1.75311e-10
-1.75672e-10
-1.76047e-10
-1.76437e-10
-1.76842e-10
-1.77263e-10
-1.77699e-10
-1.78149e-10
-1.78611e-10
-1.79082e-10
-1.79559e-10
-1.8004e-10
-1.80525e-10
-1.81012e-10
-1.815e-10
-1.81994e-10
-1.8252e-10
-1.83105e-10
-1.83736e-10
-1.84359e-10
-1.85067e-10
-1.85905e-10
-1.8689e-10
-1.88795e-10
-1.90001e-10
-1.96885e-10
-2.45888e-10
-1.63043e-09
-3.58846e-07
-6.17686e-07
-7.1437e-07
-7.63652e-07
-7.96462e-07
-8.22199e-07
-8.44019e-07
-8.63282e-07
-8.80676e-07
-8.96594e-07
-9.11285e-07
-9.24924e-07
-9.37637e-07
-9.49525e-07
-9.60666e-07
-9.71127e-07
-9.80964e-07
-9.90226e-07
-9.98955e-07
-1.00719e-06
-1.01496e-06
-1.02231e-06
-1.02925e-06
-1.03581e-06
-1.04203e-06
-1.04791e-06
-1.05348e-06
-1.05876e-06
-1.06376e-06
-1.06851e-06
-1.07301e-06
-1.07728e-06
-1.08133e-06
-1.08519e-06
-1.08885e-06
-1.09232e-06
-1.09563e-06
-1.09878e-06
-1.10177e-06
-1.10462e-06
-1.10733e-06
-1.10991e-06
-1.11238e-06
-1.11472e-06
-1.11696e-06
-1.11909e-06
-1.12112e-06
-1.12305e-06
-1.12489e-06
-1.12664e-06
)
;
    }
    inandouthalf22
    {
        type            cyclic;
        value           nonuniform List<scalar> 
100
(
1.69922e-10
1.70092e-10
1.70267e-10
1.70446e-10
1.70631e-10
1.70822e-10
1.71019e-10
1.71222e-10
1.71432e-10
1.7165e-10
1.71875e-10
1.72108e-10
1.72349e-10
1.726e-10
1.72859e-10
1.73128e-10
1.73406e-10
1.73695e-10
1.73995e-10
1.74306e-10
1.74628e-10
1.74963e-10
1.75311e-10
1.75672e-10
1.76047e-10
1.76437e-10
1.76842e-10
1.77263e-10
1.77699e-10
1.78149e-10
1.78611e-10
1.79082e-10
1.79559e-10
1.8004e-10
1.80525e-10
1.81012e-10
1.815e-10
1.81994e-10
1.8252e-10
1.83105e-10
1.83736e-10
1.84359e-10
1.85067e-10
1.85905e-10
1.8689e-10
1.88795e-10
1.90001e-10
1.96885e-10
2.45888e-10
1.63043e-09
3.58846e-07
6.17686e-07
7.1437e-07
7.63652e-07
7.96462e-07
8.22199e-07
8.44019e-07
8.63282e-07
8.80676e-07
8.96594e-07
9.11285e-07
9.24924e-07
9.37637e-07
9.49525e-07
9.60666e-07
9.71127e-07
9.80964e-07
9.90226e-07
9.98955e-07
1.00719e-06
1.01496e-06
1.02231e-06
1.02925e-06
1.03581e-06
1.04203e-06
1.04791e-06
1.05348e-06
1.05876e-06
1.06376e-06
1.06851e-06
1.07301e-06
1.07728e-06
1.08133e-06
1.08519e-06
1.08885e-06
1.09232e-06
1.09563e-06
1.09878e-06
1.10177e-06
1.10462e-06
1.10733e-06
1.10991e-06
1.11238e-06
1.11472e-06
1.11696e-06
1.11909e-06
1.12112e-06
1.12305e-06
1.12489e-06
1.12664e-06
)
;
    }
    inandouthalf31
    {
        type            cyclic;
        value           nonuniform List<scalar> 
110
(
-1.12831e-06
-1.15284e-06
-1.17784e-06
-1.20333e-06
-1.22933e-06
-1.25583e-06
-1.28286e-06
-1.31042e-06
-1.33852e-06
-1.36716e-06
-1.39637e-06
-1.42614e-06
-1.45648e-06
-1.48741e-06
-1.51892e-06
-1.55102e-06
-1.58373e-06
-1.61705e-06
-1.65099e-06
-1.68554e-06
-1.72071e-06
-1.75652e-06
-1.79295e-06
-1.83002e-06
-1.86772e-06
-1.90604e-06
-1.945e-06
-1.98457e-06
-2.02476e-06
-2.06554e-06
-2.10691e-06
-2.14885e-06
-2.19134e-06
-2.23434e-06
-2.27783e-06
-2.32176e-06
-2.36611e-06
-2.41081e-06
-2.45584e-06
-2.50114e-06
-2.54668e-06
-2.59244e-06
-2.63843e-06
-2.68469e-06
-2.73132e-06
-2.77846e-06
-2.82633e-06
-2.87517e-06
-2.92523e-06
-2.97675e-06
-3.02992e-06
-3.08489e-06
-3.14177e-06
-3.20063e-06
-3.26156e-06
-3.32463e-06
-3.3899e-06
-3.45747e-06
-3.5275e-06
-3.6002e-06
-3.67895e-06
-3.75819e-06
-3.83492e-06
-3.91277e-06
-3.99219e-06
-4.07322e-06
-4.15589e-06
-4.24025e-06
-4.32631e-06
-4.41413e-06
-4.50372e-06
-4.59514e-06
-4.6884e-06
-4.78357e-06
-4.88066e-06
-4.97972e-06
-5.0808e-06
-5.18393e-06
-5.28915e-06
-5.3965e-06
-5.50604e-06
-5.61779e-06
-5.73182e-06
-5.84816e-06
-5.96686e-06
-6.08797e-06
-6.21154e-06
-6.33762e-06
-6.46626e-06
-6.59751e-06
-6.73142e-06
-6.86805e-06
-7.00745e-06
-7.14968e-06
-7.2948e-06
-7.44287e-06
-7.59394e-06
-7.74808e-06
-7.90534e-06
-8.0658e-06
-8.22951e-06
-8.39655e-06
-8.56698e-06
-8.74086e-06
-8.91828e-06
-9.0993e-06
-9.28399e-06
-9.47243e-06
-9.66469e-06
-9.86086e-06
)
;
    }
    inandouthalf32
    {
        type            cyclic;
        value           nonuniform List<scalar> 
110
(
1.12831e-06
1.15284e-06
1.17784e-06
1.20333e-06
1.22933e-06
1.25583e-06
1.28286e-06
1.31042e-06
1.33852e-06
1.36716e-06
1.39637e-06
1.42614e-06
1.45648e-06
1.48741e-06
1.51892e-06
1.55102e-06
1.58373e-06
1.61705e-06
1.65099e-06
1.68554e-06
1.72071e-06
1.75652e-06
1.79295e-06
1.83002e-06
1.86772e-06
1.90604e-06
1.945e-06
1.98457e-06
2.02476e-06
2.06554e-06
2.10691e-06
2.14885e-06
2.19134e-06
2.23434e-06
2.27783e-06
2.32176e-06
2.36611e-06
2.41081e-06
2.45584e-06
2.50114e-06
2.54668e-06
2.59244e-06
2.63843e-06
2.68469e-06
2.73132e-06
2.77846e-06
2.82633e-06
2.87517e-06
2.92523e-06
2.97675e-06
3.02992e-06
3.08489e-06
3.14177e-06
3.20063e-06
3.26156e-06
3.32463e-06
3.3899e-06
3.45747e-06
3.5275e-06
3.6002e-06
3.67895e-06
3.75819e-06
3.83492e-06
3.91277e-06
3.99219e-06
4.07322e-06
4.15589e-06
4.24025e-06
4.32631e-06
4.41413e-06
4.50372e-06
4.59514e-06
4.6884e-06
4.78357e-06
4.88066e-06
4.97972e-06
5.0808e-06
5.18393e-06
5.28915e-06
5.3965e-06
5.50604e-06
5.61779e-06
5.73182e-06
5.84816e-06
5.96686e-06
6.08797e-06
6.21154e-06
6.33762e-06
6.46626e-06
6.59751e-06
6.73142e-06
6.86805e-06
7.00745e-06
7.14968e-06
7.2948e-06
7.44287e-06
7.59394e-06
7.74808e-06
7.90534e-06
8.0658e-06
8.22951e-06
8.39655e-06
8.56698e-06
8.74086e-06
8.91828e-06
9.0993e-06
9.28399e-06
9.47243e-06
9.66469e-06
9.86086e-06
)
;
    }
    inandouthalf41
    {
        type            cyclic;
        value           nonuniform List<scalar> 
50
(
-8.82648e-06
-8.82648e-06
-8.82648e-06
-8.82648e-06
-8.82648e-06
-8.82648e-06
-8.82648e-06
-8.82648e-06
-8.82648e-06
-8.82648e-06
-8.82648e-06
-8.82648e-06
-8.82648e-06
-8.82648e-06
-8.82648e-06
-8.82648e-06
-8.82648e-06
-8.82648e-06
-8.82648e-06
-8.82648e-06
-8.82648e-06
-8.82648e-06
-8.82648e-06
-8.82648e-06
-8.82648e-06
-8.82648e-06
-8.82648e-06
-8.82648e-06
-8.82648e-06
-8.82648e-06
-8.82648e-06
-8.82648e-06
-8.82648e-06
-8.82648e-06
-8.82648e-06
-8.82648e-06
-8.82648e-06
-8.82648e-06
-8.82648e-06
-8.82648e-06
-8.82648e-06
-8.82648e-06
-8.82648e-06
-8.82648e-06
-8.82648e-06
-8.82648e-06
-8.82648e-06
-8.82648e-06
-8.82648e-06
-8.82648e-06
)
;
    }
    inandouthalf42
    {
        type            cyclic;
        value           nonuniform List<scalar> 
50
(
8.82648e-06
8.82648e-06
8.82648e-06
8.82648e-06
8.82648e-06
8.82648e-06
8.82648e-06
8.82648e-06
8.82648e-06
8.82648e-06
8.82648e-06
8.82648e-06
8.82648e-06
8.82648e-06
8.82648e-06
8.82648e-06
8.82648e-06
8.82648e-06
8.82648e-06
8.82648e-06
8.82648e-06
8.82648e-06
8.82648e-06
8.82648e-06
8.82648e-06
8.82648e-06
8.82648e-06
8.82648e-06
8.82648e-06
8.82648e-06
8.82648e-06
8.82648e-06
8.82648e-06
8.82648e-06
8.82648e-06
8.82648e-06
8.82648e-06
8.82648e-06
8.82648e-06
8.82648e-06
8.82648e-06
8.82648e-06
8.82648e-06
8.82648e-06
8.82648e-06
8.82648e-06
8.82648e-06
8.82648e-06
8.82648e-06
8.82648e-06
)
;
    }
    top
    {
        type            symmetryPlane;
        value           uniform 0;
    }
    walls
    {
        type            calculated;
        value           uniform 0;
    }
    frontAndBackPlanes
    {
        type            empty;
        value           nonuniform 0();
    }
}


// ************************************************************************* //
