/*--------------------------------*- C++ -*----------------------------------*\
| =========                 |                                                 |
| \\      /  F ield         | OpenFOAM: The Open Source CFD Toolbox           |
|  \\    /   O peration     | Version:  2.4.x                                 |
|   \\  /    A nd           | Web:      www.OpenFOAM.org                      |
|    \\/     M anipulation  |                                                 |
\*---------------------------------------------------------------------------*/
FoamFile
{
    version     2.0;
    format      ascii;
    class       volVectorField;
    location    "7.35";
    object      gradPs;
}
// * * * * * * * * * * * * * * * * * * * * * * * * * * * * * * * * * * * * * //

dimensions      [0 1 -2 0 0 0 0];

internalField   nonuniform List<vector> 
360
(
(0 1.54444e-18 0)
(0 1.68481e-18 0)
(0 -1.92828e-20 0)
(0 -2.38818e-19 0)
(-2.90119e-32 -1.03066e-19 0)
(-1.45063e-32 -5.7691e-20 0)
(-1.45068e-32 -7.18105e-20 0)
(0 -8.10044e-20 0)
(-2.90156e-32 -8.22631e-20 0)
(0 -8.30231e-20 0)
(-2.90179e-32 -8.31521e-20 0)
(0 -8.3272e-20 0)
(-1.451e-32 -8.38103e-20 0)
(0 -8.43786e-20 0)
(0 -8.52182e-20 0)
(0 -8.60726e-20 0)
(0 -8.67083e-20 0)
(-1.45129e-32 -8.72479e-20 0)
(0 -8.82069e-20 0)
(0 -8.88102e-20 0)
(0 -8.94562e-20 0)
(-1.45153e-32 -9.04963e-20 0)
(0 -9.11876e-20 0)
(0 -9.20448e-20 0)
(0 -9.29384e-20 0)
(-1.45178e-32 -9.36226e-20 0)
(0 -9.46394e-20 0)
(0 -9.5711e-20 0)
(0 -9.64369e-20 0)
(0 -9.73073e-20 0)
(0 -9.86257e-20 0)
(0 -9.922e-20 0)
(0 -1.00431e-19 0)
(0 -1.01676e-19 0)
(0 -1.02411e-19 0)
(1.45245e-32 -1.03556e-19 0)
(0 -1.04593e-19 0)
(0 -1.06282e-19 0)
(0 -1.06734e-19 0)
(0 -1.08062e-19 0)
(0 -1.09945e-19 0)
(0 -1.10222e-19 0)
(1.45296e-32 -1.1192e-19 0)
(0 -1.13443e-19 0)
(0 -1.14347e-19 0)
(0 -1.16224e-19 0)
(0 -1.16932e-19 0)
(0 -1.18029e-19 0)
(0 -1.20511e-19 0)
(0 -1.21247e-19 0)
(1.45359e-32 -1.22282e-19 0)
(0 -1.2411e-19 0)
(0 -1.2554e-19 0)
(0 -1.2663e-19 0)
(0 -1.2842e-19 0)
(0 -1.29836e-19 0)
(0 -1.31132e-19 0)
(0 -1.33144e-19 0)
(0 -1.3373e-19 0)
(0 -1.35916e-19 0)
(0 -1.37529e-19 0)
(0 -1.38847e-19 0)
(0 -1.40893e-19 0)
(0 -1.42397e-19 0)
(0 -1.44233e-19 0)
(0 -1.46256e-19 0)
(0 -1.48649e-19 0)
(0 -1.50674e-19 0)
(0 -1.52285e-19 0)
(0 -1.54918e-19 0)
(0 -1.58129e-19 0)
(0 -1.59588e-19 0)
(0 -1.62092e-19 0)
(0 -1.65293e-19 0)
(0 -1.68143e-19 0)
(0 -1.70963e-19 0)
(0 -1.73534e-19 0)
(0 -1.76877e-19 0)
(0 -1.8009e-19 0)
(0 -1.82892e-19 0)
(0 -1.85817e-19 0)
(0 -1.89023e-19 0)
(0 -1.91962e-19 0)
(0 -1.94936e-19 0)
(0 -1.97951e-19 0)
(0 -2.01034e-19 0)
(0 -2.04107e-19 0)
(0 -2.07107e-19 0)
(0 -2.10302e-19 0)
(0 -2.13564e-19 0)
(0 -2.1683e-19 0)
(0 -2.20268e-19 0)
(0 -2.23864e-19 0)
(0 -2.27534e-19 0)
(0 -2.31343e-19 0)
(0 -2.35305e-19 0)
(0 -2.39414e-19 0)
(0 -2.43693e-19 0)
(0 -2.48181e-19 0)
(0 -2.52887e-19 0)
(0 -2.57818e-19 0)
(0 -2.62998e-19 0)
(0 -2.68429e-19 0)
(0 -2.74107e-19 0)
(0 -2.80047e-19 0)
(0 -2.86261e-19 0)
(0 -2.92761e-19 0)
(0 -2.99564e-19 0)
(0 -3.06684e-19 0)
(0 -3.14134e-19 0)
(0 -3.21927e-19 0)
(0 -3.30072e-19 0)
(0 -3.38582e-19 0)
(0 -3.47466e-19 0)
(0 -3.56734e-19 0)
(0 -3.66399e-19 0)
(0 -3.76473e-19 0)
(0 -3.86975e-19 0)
(0 -3.97933e-19 0)
(0 -4.09382e-19 0)
(0 -4.21372e-19 0)
(0 -4.33965e-19 0)
(0 -4.47246e-19 0)
(0 -4.61338e-19 0)
(0 -4.76443e-19 0)
(0 -4.92869e-19 0)
(0 -5.11023e-19 0)
(0 -5.31293e-19 0)
(0 -5.53776e-19 0)
(0 -5.7802e-19 0)
(0 -6.03296e-19 0)
(0 -6.29355e-19 0)
(0 1.24694e-16 0)
(0 9.30572e-16 0)
(0 4.28613e-15 0)
(0 1.89656e-14 0)
(0 8.95968e-14 0)
(0 4.68515e-13 0)
(0 2.7569e-12 0)
(0 1.79256e-11 0)
(0 1.24306e-10 0)
(0 9.06127e-10 0)
(0 7.10413e-09 0)
(0 6.36199e-08 0)
(0 7.10673e-07 0)
(0 1.05022e-05 0)
(0 0.000236257 0)
(0 0.010725 0)
(0 0.308525 0)
(0 0.0979209 0)
(0 -0.94335 0)
(0 -1.10403 0)
(0 -0.882652 0)
(0 -0.707404 0)
(0 -0.615929 0)
(0 -0.555313 0)
(0 -0.514862 0)
(0 -0.485935 0)
(0 -0.463257 0)
(0 -0.447134 0)
(0 -0.436302 0)
(0 -0.429601 0)
(0 -0.426209 0)
(0 -0.425451 0)
(0 -0.426769 0)
(0 -0.429707 0)
(0 -0.433884 0)
(0 -0.438982 0)
(0 -0.444728 0)
(0 -0.450883 0)
(0 -0.457241 0)
(0 -0.463618 0)
(0 -0.469853 0)
(0 -0.475804 0)
(0 -0.48135 0)
(0 -0.486388 0)
(0 -0.490836 0)
(0 -0.49463 0)
(0 -0.497725 0)
(0 -0.500092 0)
(0 -0.501721 0)
(0 -0.502614 0)
(0 -0.502788 0)
(0 -0.502272 0)
(0 -0.501106 0)
(0 -0.499339 0)
(0 -0.497029 0)
(0 -0.49424 0)
(0 -0.491043 0)
(0 -0.487518 0)
(0 -0.483741 0)
(0 -0.479791 0)
(0 -0.475731 0)
(0 -0.471609 0)
(0 -0.467455 0)
(0 -0.463306 0)
(0 -0.459221 0)
(0 -0.455287 0)
(0 -0.451594 0)
(0 -0.448219 0)
(0 -0.445267 0)
(0 -0.442928 0)
(-3.12517e-16 -0.441388 0)
(0 -0.440591 0)
(0 -0.4403 0)
(1.80007e-16 -0.440277 0)
(0 -0.440295 0)
(-1.99976e-16 -0.440006 0)
(0 -0.438748 0)
(2.24343e-16 -0.435869 0)
(0 -0.43059 0)
(0 -0.422291 0)
(0 -0.410914 0)
(1.44298e-16 -0.396011 0)
(0 -0.376875 0)
(0 -0.354135 0)
(0 -0.328709 0)
(0 -0.300912 0)
(0 -0.271434 0)
(-5.09943e-17 -0.241519 0)
(0 -0.212521 0)
(-5.52964e-17 -0.184667 0)
(0 -0.158179 0)
(-2.93236e-17 -0.134045 0)
(0 -0.112391 0)
(0 -0.0930313 0)
(0 -0.0761764 0)
(0 -0.0616868 0)
(1.55618e-17 -0.0495107 0)
(7.78009e-18 -0.0392046 0)
(0 -0.0307846 0)
(0 -0.0238537 0)
(0 -0.0184121 0)
(0 -0.0135316 0)
(0 -0.00980373 0)
(0 -0.00982481 0)
(0 -0.00535742 0)
(0 0 0)
(0 0 0)
(0 0 0)
(0 0 0)
(0 0 0)
(0 0 0)
(0 0 0)
(0 0 0)
(0 0 0)
(0 0 0)
(0 0 0)
(0 0 0)
(0 0 0)
(0 0 0)
(0 0 0)
(0 0 0)
(0 0 0)
(0 0 0)
(0 0 0)
(0 0 0)
(0 0 0)
(0 0 0)
(0 0 0)
(0 0 0)
(0 0 0)
(0 0 0)
(0 0 0)
(0 0 0)
(0 0 0)
(0 0 0)
(0 0 0)
(0 0 0)
(0 0 0)
(0 0 0)
(0 0 0)
(0 0 0)
(0 0 0)
(0 0 0)
(0 0 0)
(0 0 0)
(0 0 0)
(0 0 0)
(0 0 0)
(0 0 0)
(0 0 0)
(0 0 0)
(0 0 0)
(0 0 0)
(0 0 0)
(0 0 0)
(0 0 0)
(0 0 0)
(0 0 0)
(0 0 0)
(0 0 0)
(0 0 0)
(0 0 0)
(0 0 0)
(0 0 0)
(0 0 0)
(0 0 0)
(0 0 0)
(0 0 0)
(0 0 0)
(0 0 0)
(0 0 0)
(0 0 0)
(0 0 0)
(0 0 0)
(0 0 0)
(0 0 0)
(0 0 0)
(0 0 0)
(0 0 0)
(0 0 0)
(0 0 0)
(0 0 0)
(0 0 0)
(0 0 0)
(0 0 0)
(0 0 0)
(0 0 0)
(0 0 0)
(0 0 0)
(0 0 0)
(0 0 0)
(0 0 0)
(0 0 0)
(0 0 0)
(0 0 0)
(0 0 0)
(0 0 0)
(0 0 0)
(0 0 0)
(0 0 0)
(0 0 0)
(0 0 0)
(0 0 0)
(0 0 0)
(0 0 0)
(0 0 0)
(0 0 0)
(0 0 0)
(0 0 0)
(0 0 0)
(0 0 0)
(0 0 0)
(0 0 0)
(0 0 0)
(0 0 0)
(0 0 0)
(0 0 0)
(0 0 0)
(0 0 0)
(0 0 0)
(0 0 0)
(0 0 0)
(0 0 0)
(0 0 0)
(0 0 0)
(0 0 0)
(0 0 0)
(0 0 0)
)
;

boundaryField
{
    inandouthalf11
    {
        type            cyclic;
    }
    inandouthalf12
    {
        type            cyclic;
    }
    inandouthalf21
    {
        type            cyclic;
    }
    inandouthalf22
    {
        type            cyclic;
    }
    inandouthalf31
    {
        type            cyclic;
    }
    inandouthalf32
    {
        type            cyclic;
    }
    inandouthalf41
    {
        type            cyclic;
    }
    inandouthalf42
    {
        type            cyclic;
    }
    top
    {
        type            symmetryPlane;
    }
    walls
    {
        type            calculated;
        value           uniform (0 0 0);
    }
    frontAndBackPlanes
    {
        type            empty;
    }
}


// ************************************************************************* //
