/*--------------------------------*- C++ -*----------------------------------*\
| =========                 |                                                 |
| \\      /  F ield         | OpenFOAM: The Open Source CFD Toolbox           |
|  \\    /   O peration     | Version:  2.4.x                                 |
|   \\  /    A nd           | Web:      www.OpenFOAM.org                      |
|    \\/     M anipulation  |                                                 |
\*---------------------------------------------------------------------------*/
FoamFile
{
    version     2.0;
    format      ascii;
    class       volScalarField;
    location    "7.35";
    object      k;
}
// * * * * * * * * * * * * * * * * * * * * * * * * * * * * * * * * * * * * * //

dimensions      [0 2 -2 0 0 0 0];

internalField   nonuniform List<scalar> 
360
(
1e-20
1e-20
1e-20
1e-20
1e-20
1e-20
1e-20
1e-20
1e-20
1e-20
1e-20
1e-20
1e-20
1e-20
1e-20
1e-20
1e-20
1e-20
1e-20
1e-20
1e-20
1e-20
1e-20
1e-20
1e-20
1e-20
1e-20
1e-20
1e-20
1e-20
1e-20
1e-20
1e-20
1e-20
1e-20
1e-20
1e-20
1e-20
1e-20
1e-20
1e-20
1e-20
1e-20
1e-20
1e-20
1e-20
1e-20
1e-20
1e-20
1e-20
1e-20
1e-20
1e-20
1e-20
1e-20
1e-20
1e-20
1e-20
1e-20
1e-20
1e-20
1e-20
1e-20
1e-20
1e-20
1e-20
1e-20
1e-20
1e-20
1e-20
1e-20
1e-20
1e-20
1e-20
1e-20
1e-20
1e-20
1e-20
1e-20
1e-20
1e-20
1e-20
1e-20
1e-20
1e-20
1e-20
1e-20
1e-20
1e-20
1e-20
1e-20
1e-20
1e-20
1e-20
1e-20
1e-20
1e-20
1e-20
1e-20
1e-20
1e-20
1e-20
1e-20
1e-20
1e-20
1e-20
1e-20
1e-20
1e-20
1e-20
1e-20
1e-20
1e-20
1e-20
1e-20
1e-20
1e-20
1e-20
1e-20
1e-20
1e-20
1e-20
1e-20
1e-20
1e-20
1e-20
1e-20
1e-20
1e-20
1e-20
1e-20
1e-20
1e-20
1.74036e-20
6.51148e-20
2.71646e-19
1.19243e-18
5.60948e-18
2.91776e-17
1.70762e-16
1.10615e-15
7.65837e-15
5.58657e-14
4.38933e-13
3.9412e-12
4.43258e-11
6.65909e-10
1.28333e-08
3.2131e-07
1.03023e-05
0.000319845
0.000906218
0.00133872
0.0017016
0.00202068
0.00230939
0.00257472
0.00282067
0.00304973
0.00326353
0.00346327
0.00364989
0.00382412
0.00398662
0.00413794
0.00427861
0.00440909
0.00452983
0.00464126
0.00474377
0.00483774
0.00492354
0.00500151
0.00507201
0.00513534
0.00519181
0.00524172
0.00528537
0.00532301
0.00535491
0.00538132
0.00540248
0.00541862
0.00542996
0.00543671
0.00543908
0.00543726
0.00543143
0.00542178
0.00540846
0.00539166
0.00537152
0.00534819
0.00532183
0.00529257
0.00526054
0.00522587
0.0051887
0.00514913
0.00510729
0.00506328
0.00501675
0.00496722
0.00491466
0.00485903
0.00480031
0.00473845
0.00467343
0.00460523
0.00453381
0.00445915
0.00438124
0.00430005
0.00421559
0.00412785
0.00403682
0.00394251
0.00384496
0.00374417
0.0036402
0.00353309
0.00342292
0.00330975
0.00319369
0.00307487
0.00295343
0.00282953
0.00270338
0.00257521
0.00244529
0.00231393
0.00218149
0.00204836
0.00191502
0.00178197
0.0016498
0.00151917
0.00139078
0.00126541
0.0011439
0.00102713
0.000915972
0.000811311
0.000713942
0.000624529
0.000543536
0.000471157
0.000407274
0.00035144
0.000302917
0.000260743
0.000223833
0.000191082
0.000161456
0.000134069
0.000108241
8.35563e-05
5.99237e-05
3.76685e-05
1.77439e-05
3.77571e-06
2.08524e-07
5.06513e-09
1.08149e-10
2.17276e-12
4.11274e-14
7.33354e-16
1.23232e-17
2.01352e-19
1.13482e-20
1e-20
1e-20
1e-20
1e-20
1e-20
1e-20
1e-20
1e-20
1e-20
1e-20
1e-20
1e-20
1e-20
1e-20
1e-20
1e-20
1e-20
1e-20
1e-20
1e-20
1e-20
1e-20
1e-20
1e-20
1e-20
1e-20
1e-20
1e-20
1e-20
1e-20
1e-20
1e-20
1e-20
1e-20
1e-20
1e-20
1e-20
1e-20
1e-20
1e-20
1e-20
1e-20
1e-20
1e-20
1e-20
1e-20
1e-20
1e-20
1e-20
1e-20
1e-20
1e-20
1e-20
1e-20
1e-20
1e-20
1e-20
1e-20
1e-20
1e-20
1e-20
1e-20
1e-20
1e-20
1e-20
1e-20
1e-20
1e-20
1e-20
1e-20
1e-20
1e-20
1e-20
1e-20
1e-20
1e-20
1e-20
1e-20
1e-20
1e-20
1e-20
1e-20
1e-20
1e-20
1e-20
1e-20
1e-20
1e-20
1e-20
1e-20
)
;

boundaryField
{
    inandouthalf11
    {
        type            cyclic;
    }
    inandouthalf12
    {
        type            cyclic;
    }
    inandouthalf21
    {
        type            cyclic;
    }
    inandouthalf22
    {
        type            cyclic;
    }
    inandouthalf31
    {
        type            cyclic;
    }
    inandouthalf32
    {
        type            cyclic;
    }
    inandouthalf41
    {
        type            cyclic;
    }
    inandouthalf42
    {
        type            cyclic;
    }
    top
    {
        type            symmetryPlane;
    }
    walls
    {
        type            zeroGradient;
    }
    frontAndBackPlanes
    {
        type            empty;
    }
}


// ************************************************************************* //
