/*--------------------------------*- C++ -*----------------------------------*\
| =========                 |                                                 |
| \\      /  F ield         | OpenFOAM: The Open Source CFD Toolbox           |
|  \\    /   O peration     | Version:  2.4.x                                 |
|   \\  /    A nd           | Web:      www.OpenFOAM.org                      |
|    \\/     M anipulation  |                                                 |
\*---------------------------------------------------------------------------*/
FoamFile
{
    version     2.0;
    format      ascii;
    class       volScalarField;
    location    "7.35";
    object      mua;
}
// * * * * * * * * * * * * * * * * * * * * * * * * * * * * * * * * * * * * * //

dimensions      [1 -1 -1 0 0 0 0];

internalField   nonuniform List<scalar> 
360
(
1.62953e+06
1.14339e+06
1.43543e+06
1.49908e+06
1.42772e+06
1.38827e+06
1.37748e+06
1.37094e+06
1.36191e+06
1.35008e+06
1.33656e+06
1.32281e+06
1.30931e+06
1.29605e+06
1.28268e+06
1.2689e+06
1.25477e+06
1.24051e+06
1.22614e+06
1.21167e+06
1.19737e+06
1.18298e+06
1.16857e+06
1.15424e+06
1.14001e+06
1.12596e+06
1.11207e+06
1.09817e+06
1.08446e+06
1.07103e+06
1.05774e+06
1.0446e+06
1.03179e+06
1.01894e+06
1.00648e+06
994292
982369
970495
958866
947772
936639
925927
915672
905384
895424
885708
876351
867506
858459
849268
840505
831751
823018
814325
805759
797054
788565
779993
771555
763083
754082
744961
735595
726323
717284
708570
700129
692132
684766
677851
670947
664407
658608
653198
648411
644516
641940
640620
640415
641298
643186
645768
648871
652446
656467
660980
666041
671729
677981
684607
691367
697944
703973
709151
713248
716102
717615
717740
716444
713703
709505
703846
696740
688235
678405
667343
655159
641963
627865
612969
597365
581134
564339
547025
529219
510932
492164
472911
453188
433041
412575
391971
371496
351489
332336
314444
298221
284103
272605
264347
259963
259806
263551
270042
277735
284974
288707
283144
264288
240633
234197
269533
382309
719712
1.9726e+06
4.27079e+06
1377.78
376.989
84.0351
0.0238037
0.0016583
0.00192622
0.00225838
0.00252464
0.00274369
0.00292956
0.00309087
0.00323308
0.0033599
0.00347393
0.00357708
0.0036708
0.00375621
0.0038342
0.0039055
0.00397072
0.00403037
0.00408488
0.00413463
0.00417993
0.00422109
0.00425836
0.00429197
0.00432213
0.00434903
0.00437284
0.00439373
0.00441183
0.0044273
0.00444025
0.00445081
0.00445909
0.00446519
0.00446922
0.00447126
0.00447141
0.00446976
0.00446638
0.00446135
0.00445475
0.00444664
0.0044371
0.00442618
0.00441395
0.00440047
0.00438579
0.00436997
0.00435306
0.0043351
0.00431615
0.00429625
0.00427522
0.00425284
0.00422909
0.00420393
0.00417733
0.00414924
0.00411963
0.00408844
0.00405561
0.00402108
0.00398476
0.00394659
0.00390645
0.00386425
0.00381984
0.00377309
0.00372383
0.00367187
0.00361698
0.0035589
0.00349732
0.00343188
0.00336215
0.0032876
0.00320759
0.00312134
0.00302783
0.00292578
0.00281343
0.00268842
0.00254728
0.00238471
0.0021918
0.00195139
0.00162135
0
0
0
0
0
0
0
0
0
0
0
0
0
0
0
0
0
0
0
0
0
0
0
0
0
0
0
0
0
0
0
0
0
0
0
0
0
0
0
0
0
0
0
0
0
0
0
0
0
0
0
0
0
0
0
0
0
0
0
0
0
0
0
0
0
0
0
0
0
0
0
0
0
0
0
0
0
0
0
0
0
0
0
0
0
0
0
0
0
0
0
0
0
0
0
0
0
0
0
0
0
0
0
0
0
0
0
0
0
0
0
0
0
0
0
0
0
0
0
0
0
0
0
0
)
;

boundaryField
{
    inandouthalf11
    {
        type            cyclic;
    }
    inandouthalf12
    {
        type            cyclic;
    }
    inandouthalf21
    {
        type            cyclic;
    }
    inandouthalf22
    {
        type            cyclic;
    }
    inandouthalf31
    {
        type            cyclic;
    }
    inandouthalf32
    {
        type            cyclic;
    }
    inandouthalf41
    {
        type            cyclic;
    }
    inandouthalf42
    {
        type            cyclic;
    }
    top
    {
        type            symmetryPlane;
    }
    walls
    {
        type            calculated;
        value           uniform 1e+30;
    }
    frontAndBackPlanes
    {
        type            empty;
    }
}


// ************************************************************************* //
