/*--------------------------------*- C++ -*----------------------------------*\
| =========                 |                                                 |
| \\      /  F ield         | OpenFOAM: The Open Source CFD Toolbox           |
|  \\    /   O peration     | Version:  2.4.x                                 |
|   \\  /    A nd           | Web:      www.OpenFOAM.org                      |
|    \\/     M anipulation  |                                                 |
\*---------------------------------------------------------------------------*/
FoamFile
{
    version     2.0;
    format      ascii;
    class       volTensorField;
    location    "7.35";
    object      Taus;
}
// * * * * * * * * * * * * * * * * * * * * * * * * * * * * * * * * * * * * * //

dimensions      [0 2 -2 0 0 0 0];

internalField   nonuniform List<tensor> 
360
(
(0 0.00225204 0 0.00225204 -0.204987 0 0 0 0)
(0 0.00312658 0 0.00312658 -0.257795 0 0 0 0)
(0 0.00349086 0 0.00349086 -0.265333 0 0 0 0)
(0 0.00307097 0 0.00307097 -0.259068 0 0 0 0)
(-1.38986e-18 0.00266505 0 0.00266505 -0.255728 0 0 0 0)
(-1.35149e-18 0.00235337 0 0.00235337 -0.254541 0 0 0 0)
(-1.34102e-18 0.00205438 0 0.00205438 -0.253258 0 0 0 0)
(0 0.0017517 0 0.0017517 -0.251677 0 0 0 0)
(-2.65192e-18 0.00145163 0 0.00145163 -0.25006 0 0 0 0)
(0 0.00115637 0 0.00115637 -0.248425 0 0 0 0)
(-2.60276e-18 0.000866236 0 0.000866236 -0.246779 0 0 0 0)
(0 0.000581318 0 0.000581318 -0.24515 0 0 0 0)
(-2.54989e-18 0.000301336 0 0.000301336 -0.243518 0 0 0 0)
(0 2.61448e-05 0 2.61448e-05 -0.24189 0 0 0 0)
(0 -0.000244356 0 -0.000244356 -0.240258 0 0 0 0)
(0 -0.000510183 0 -0.000510183 -0.238617 0 0 0 0)
(0 -0.000771371 0 -0.000771371 -0.23697 0 0 0 0)
(-2.41637e-18 -0.00102804 0 -0.00102804 -0.235323 0 0 0 0)
(0 -0.00128025 0 -0.00128025 -0.233676 0 0 0 0)
(0 -0.00152797 0 -0.00152797 -0.232015 0 0 0 0)
(0 -0.0017715 0 -0.0017715 -0.230367 0 0 0 0)
(-1.15235e-18 -0.00201065 0 -0.00201065 -0.228704 0 0 0 0)
(0 -0.00224555 0 -0.00224555 -0.227041 0 0 0 0)
(0 -0.0024763 0 -0.0024763 -0.225376 0 0 0 0)
(0 -0.00270288 0 -0.00270288 -0.223706 0 0 0 0)
(-2.74248e-19 -0.00292544 0 -0.00292544 -0.222034 0 0 0 0)
(0 -0.00314407 0 -0.00314407 -0.220365 0 0 0 0)
(0 -0.00335846 0 -0.00335846 -0.218682 0 0 0 0)
(0 -0.00356896 0 -0.00356896 -0.217001 0 0 0 0)
(0 -0.00377573 0 -0.00377573 -0.215321 0 0 0 0)
(0 -0.00397851 0 -0.00397851 -0.213637 0 0 0 0)
(0 -0.00417725 0 -0.00417725 -0.211939 0 0 0 0)
(0 -0.00437275 0 -0.00437275 -0.210263 0 0 0 0)
(0 -0.0045636 0 -0.0045636 -0.208553 0 0 0 0)
(0 -0.00475126 0 -0.00475126 -0.206864 0 0 0 0)
(-1.93832e-18 -0.00493506 0 -0.00493506 -0.205161 0 0 0 0)
(0 -0.0051154 0 -0.0051154 -0.203466 0 0 0 0)
(0 -0.00529148 0 -0.00529148 -0.201758 0 0 0 0)
(0 -0.0054637 0 -0.0054637 -0.20004 0 0 0 0)
(0 -0.00563348 0 -0.00563348 -0.198351 0 0 0 0)
(0 -0.00579804 0 -0.00579804 -0.196623 0 0 0 0)
(0 -0.00595952 0 -0.00595952 -0.194908 0 0 0 0)
(-7.1427e-18 -0.00611819 0 -0.00611819 -0.193207 0 0 0 0)
(0 -0.00627176 0 -0.00627176 -0.191474 0 0 0 0)
(0 -0.00642238 0 -0.00642238 -0.189759 0 0 0 0)
(0 -0.00656895 0 -0.00656895 -0.188034 0 0 0 0)
(0 -0.00671171 0 -0.00671171 -0.1863 0 0 0 0)
(0 -0.00685245 0 -0.00685245 -0.184592 0 0 0 0)
(0 -0.00698801 0 -0.00698801 -0.18286 0 0 0 0)
(0 -0.0071188 0 -0.0071188 -0.181112 0 0 0 0)
(-6.55921e-18 -0.00724801 0 -0.00724801 -0.179395 0 0 0 0)
(0 -0.0073727 0 -0.0073727 -0.177654 0 0 0 0)
(0 -0.00749377 0 -0.00749377 -0.17592 0 0 0 0)
(0 -0.00761112 0 -0.00761112 -0.174174 0 0 0 0)
(0 -0.00772578 0 -0.00772578 -0.172446 0 0 0 0)
(0 -0.00783545 0 -0.00783545 -0.170688 0 0 0 0)
(0 -0.00794327 0 -0.00794327 -0.168958 0 0 0 0)
(0 -0.00804639 0 -0.00804639 -0.167203 0 0 0 0)
(0 -0.00814708 0 -0.00814708 -0.165458 0 0 0 0)
(0 -0.00824538 0 -0.00824538 -0.163724 0 0 0 0)
(0 -0.00833804 0 -0.00833804 -0.161957 0 0 0 0)
(0 -0.00842904 0 -0.00842904 -0.160216 0 0 0 0)
(0 -0.00851575 0 -0.00851575 -0.158452 0 0 0 0)
(0 -0.00860007 0 -0.00860007 -0.156698 0 0 0 0)
(0 -0.0086816 0 -0.0086816 -0.154939 0 0 0 0)
(0 -0.00876064 0 -0.00876064 -0.153185 0 0 0 0)
(0 -0.00883598 0 -0.00883598 -0.151422 0 0 0 0)
(0 -0.00890816 0 -0.00890816 -0.149658 0 0 0 0)
(0 -0.00897832 0 -0.00897832 -0.147898 0 0 0 0)
(0 -0.00904609 0 -0.00904609 -0.146147 0 0 0 0)
(0 -0.00910786 0 -0.00910786 -0.144375 0 0 0 0)
(0 -0.00916607 0 -0.00916607 -0.1426 0 0 0 0)
(0 -0.00922329 0 -0.00922329 -0.140847 0 0 0 0)
(0 -0.00927481 0 -0.00927481 -0.139071 0 0 0 0)
(0 -0.00932236 0 -0.00932236 -0.137303 0 0 0 0)
(0 -0.00936523 0 -0.00936523 -0.135524 0 0 0 0)
(0 -0.00940542 0 -0.00940542 -0.133758 0 0 0 0)
(0 -0.00944099 0 -0.00944099 -0.13199 0 0 0 0)
(0 -0.00947078 0 -0.00947078 -0.13022 0 0 0 0)
(0 -0.00949495 0 -0.00949495 -0.128449 0 0 0 0)
(0 -0.00951371 0 -0.00951371 -0.126683 0 0 0 0)
(0 -0.00952539 0 -0.00952539 -0.124913 0 0 0 0)
(0 -0.00952976 0 -0.00952976 -0.123141 0 0 0 0)
(0 -0.00952702 0 -0.00952702 -0.121368 0 0 0 0)
(0 -0.00951683 0 -0.00951683 -0.119595 0 0 0 0)
(0 -0.00949921 0 -0.00949921 -0.117822 0 0 0 0)
(0 -0.00947388 0 -0.00947388 -0.116048 0 0 0 0)
(0 -0.00944115 0 -0.00944115 -0.114276 0 0 0 0)
(0 -0.00940063 0 -0.00940063 -0.112506 0 0 0 0)
(0 -0.00935179 0 -0.00935179 -0.110736 0 0 0 0)
(0 -0.00929453 0 -0.00929453 -0.108966 0 0 0 0)
(0 -0.00922873 0 -0.00922873 -0.107197 0 0 0 0)
(0 -0.0091542 0 -0.0091542 -0.105426 0 0 0 0)
(0 -0.00907127 0 -0.00907127 -0.103654 0 0 0 0)
(0 -0.00898047 0 -0.00898047 -0.101882 0 0 0 0)
(0 -0.00888243 0 -0.00888243 -0.100108 0 0 0 0)
(0 -0.00877791 0 -0.00877791 -0.0983337 0 0 0 0)
(0 -0.00866775 0 -0.00866775 -0.0965587 0 0 0 0)
(0 -0.00855276 0 -0.00855276 -0.094783 0 0 0 0)
(0 -0.00843372 0 -0.00843372 -0.0930064 0 0 0 0)
(0 -0.00831144 0 -0.00831144 -0.0912288 0 0 0 0)
(0 -0.00818674 0 -0.00818674 -0.08945 0 0 0 0)
(0 -0.00806042 0 -0.00806042 -0.0876695 0 0 0 0)
(0 -0.00793334 0 -0.00793334 -0.0858874 0 0 0 0)
(0 -0.00780633 0 -0.00780633 -0.0841035 0 0 0 0)
(0 -0.00768022 0 -0.00768022 -0.0823178 0 0 0 0)
(0 -0.00755575 0 -0.00755575 -0.0805301 0 0 0 0)
(0 -0.00743367 0 -0.00743367 -0.0787405 0 0 0 0)
(0 -0.00731463 0 -0.00731463 -0.0769489 0 0 0 0)
(0 -0.00719926 0 -0.00719926 -0.0751552 0 0 0 0)
(0 -0.00708813 0 -0.00708813 -0.0733595 0 0 0 0)
(0 -0.0069818 0 -0.0069818 -0.0715618 0 0 0 0)
(0 -0.0068808 0 -0.0068808 -0.0697622 0 0 0 0)
(0 -0.00678566 0 -0.00678566 -0.0679609 0 0 0 0)
(0 -0.00669693 0 -0.00669693 -0.066158 0 0 0 0)
(0 -0.00661515 0 -0.00661515 -0.0643536 0 0 0 0)
(0 -0.0065409 0 -0.0065409 -0.062548 0 0 0 0)
(0 -0.00647478 0 -0.00647478 -0.0607413 0 0 0 0)
(0 -0.00641742 0 -0.00641742 -0.0589337 0 0 0 0)
(0 -0.00636941 0 -0.00636941 -0.0571254 0 0 0 0)
(0 -0.00633133 0 -0.00633133 -0.0553165 0 0 0 0)
(0 -0.00630368 0 -0.00630368 -0.0535071 0 0 0 0)
(0 -0.00628682 0 -0.00628682 -0.0516973 0 0 0 0)
(0 -0.00628093 0 -0.00628093 -0.0498874 0 0 0 0)
(0 -0.00628589 0 -0.00628589 -0.0480775 0 0 0 0)
(0 -0.00630114 0 -0.00630114 -0.0462674 0 0 0 0)
(0 -0.00632554 0 -0.00632554 -0.0444565 0 0 0 0)
(0 -0.00635732 0 -0.00635732 -0.0426436 0 0 0 0)
(0 -0.0063943 0 -0.0063943 -0.0408278 0 0 0 0)
(0 -0.00643458 0 -0.00643458 -0.039009 0 0 0 0)
(0 -0.00647709 0 -0.00647709 -0.0371891 0 0 0 0)
(0 -0.00652088 0 -0.00652088 -0.0353702 0 0 0 0)
(0 -0.00656247 0 -0.00656247 -0.0335502 0 0 0 0)
(0 -0.00659455 0 -0.00659455 -0.03172 0 0 0 0)
(0 -0.00661234 0 -0.00661234 -0.029873 0 0 0 0)
(0 -0.00662291 0 -0.00662291 -0.0280163 0 0 0 0)
(0 -0.00663786 0 -0.00663786 -0.0261591 0 0 0 0)
(0 -0.00664586 0 -0.00664586 -0.0242879 0 0 0 0)
(0 -0.00659708 0 -0.00659708 -0.0223681 0 0 0 0)
(0 -0.00645831 0 -0.00645831 -0.0203779 0 0 0 0)
(0 -0.00631101 0 -0.00631101 -0.0183818 0 0 0 0)
(0 -0.00623722 0 -0.00623722 -0.0165332 0 0 0 0)
(0 -0.00602483 0 -0.00602483 -0.0146079 0 0 0 0)
(0 -0.00553754 0 -0.00553754 -0.0126416 0 0 0 0)
(0 -0.00472149 0 -0.00472149 -0.0108791 0 0 0 0)
(0 -0.000835746 0 -0.000835746 -0.0100609 0 0 0 0)
(0 0.00156878 0 0.00156878 -0.00399974 0 0 0 0)
(0 0.00178139 0 0.00178139 -0.00273673 0 0 0 0)
(0 0.0016108 0 0.0016108 -0.000776547 0 0 0 0)
(0 0.000707787 0 0.000707787 -8.31617e-07 0 0 0 0)
(0 0.000318338 0 0.000318338 -5.00735e-06 0 0 0 0)
(0 0.000818168 0 0.000818168 -5.17081e-05 0 0 0 0)
(0 0.000632222 0 0.000632222 -0.000163734 0 0 0 0)
(0 0.00035245 0 0.00035245 -0.000341751 0 0 0 0)
(0 -2.48259e-05 0 -2.48259e-05 -0.000554423 0 0 0 0)
(0 -0.000516183 0 -0.000516183 -0.000765671 0 0 0 0)
(0 -0.00113126 0 -0.00113126 -0.000969766 0 0 0 0)
(0 -0.00184701 0 -0.00184701 -0.00111793 0 0 0 0)
(0 -0.00266625 0 -0.00266625 -0.00122056 0 0 0 0)
(0 -0.00358429 0 -0.00358429 -0.00127297 0 0 0 0)
(0 -0.00459732 0 -0.00459732 -0.00128106 0 0 0 0)
(0 -0.00570217 0 -0.00570217 -0.0012515 0 0 0 0)
(0 -0.0068965 0 -0.0068965 -0.00119115 0 0 0 0)
(0 -0.00817866 0 -0.00817866 -0.00110672 0 0 0 0)
(0 -0.00954762 0 -0.00954762 -0.00100443 0 0 0 0)
(0 -0.0110028 0 -0.0110028 -0.000889936 0 0 0 0)
(0 -0.0125441 0 -0.0125441 -0.000768236 0 0 0 0)
(0 -0.0141715 0 -0.0141715 -0.000643729 0 0 0 0)
(0 -0.0158854 0 -0.0158854 -0.00052019 0 0 0 0)
(0 -0.0176858 0 -0.0176858 -0.000400768 0 0 0 0)
(0 -0.019573 0 -0.019573 -0.000287973 0 0 0 0)
(0 -0.0215468 0 -0.0215468 -0.000183657 0 0 0 0)
(0 -0.0236068 0 -0.0236068 -8.89887e-05 0 0 0 0)
(0 -0.0257519 0 -0.0257519 -4.4356e-06 0 0 0 0)
(0 -0.0279807 0 -0.0279807 7.02438e-05 0 0 0 0)
(0 -0.0302907 0 -0.0302907 0.000136003 0 0 0 0)
(0 -0.0326787 0 -0.0326787 0.000194498 0 0 0 0)
(0 -0.0351407 0 -0.0351407 0.000248062 0 0 0 0)
(0 -0.0376715 0 -0.0376715 0.000299673 0 0 0 0)
(0 -0.040265 0 -0.040265 0.000352909 0 0 0 0)
(0 -0.042914 0 -0.042914 0.000411898 0 0 0 0)
(0 -0.0456101 0 -0.0456101 0.000481252 0 0 0 0)
(0 -0.0483438 0 -0.0483438 0.000566009 0 0 0 0)
(0 -0.0511049 0 -0.0511049 0.000671548 0 0 0 0)
(0 -0.0538817 0 -0.0538817 0.000803519 0 0 0 0)
(0 -0.056662 0 -0.056662 0.000967751 0 0 0 0)
(0 -0.0594325 0 -0.0594325 0.00117016 0 0 0 0)
(0 -0.0621793 0 -0.0621793 0.00141663 0 0 0 0)
(0 -0.0648879 0 -0.0648879 0.00171291 0 0 0 0)
(0 -0.0675434 0 -0.0675434 0.00206449 0 0 0 0)
(0 -0.0701306 0 -0.0701306 0.00247643 0 0 0 0)
(0 -0.0726343 0 -0.0726343 0.00295325 0 0 0 0)
(0 -0.075039 0 -0.075039 0.00349884 0 0 0 0)
(0 -0.0773292 0 -0.0773292 0.00411633 0 0 0 0)
(0 -0.0794889 0 -0.0794889 0.00480801 0 0 0 0)
(0 -0.0815015 0 -0.0815015 0.00557508 0 0 0 0)
(0 -0.08335 0 -0.08335 0.00641725 0 0 0 0)
(0 -0.0850173 0 -0.0850173 0.00733222 0 0 0 0)
(0 -0.0864867 0 -0.0864867 0.00831534 0 0 0 0)
(0 -0.0877415 0 -0.0877415 0.00935956 0 0 0 0)
(0 -0.0887777 0 -0.0887777 0.0104553 0 0 0 0)
(0 -0.0896804 0 -0.0896804 0.0116015 0 0 0 0)
(3.40246e-16 -0.0905484 0 -0.0905484 0.0127962 0 0 0 0)
(0 -0.0914139 0 -0.0914139 0.0140244 0 0 0 0)
(0 -0.0922936 0 -0.0922936 0.0152697 0 0 0 0)
(-3.84997e-16 -0.0932064 0 -0.0932064 0.0165153 0 0 0 0)
(0 -0.0941705 0 -0.0941705 0.0177433 0 0 0 0)
(4.218e-16 -0.0952104 0 -0.0952104 0.018935 0 0 0 0)
(0 -0.0963457 0 -0.0963457 0.020072 0 0 0 0)
(-4.65843e-16 -0.0975904 0 -0.0975904 0.0211366 0 0 0 0)
(0 -0.0989505 0 -0.0989505 0.0221138 0 0 0 0)
(0 -0.100415 0 -0.100415 0.0229904 0 0 0 0)
(0 -0.10197 0 -0.10197 0.0237524 0 0 0 0)
(-5.77221e-16 -0.103605 0 -0.103605 0.0243888 0 0 0 0)
(0 -0.105266 0 -0.105266 0.0248939 0 0 0 0)
(0 -0.106877 0 -0.106877 0.0252656 0 0 0 0)
(0 -0.108388 0 -0.108388 0.0255028 0 0 0 0)
(0 -0.109731 0 -0.109731 0.0256044 0 0 0 0)
(0 -0.110816 0 -0.110816 0.0255777 0 0 0 0)
(7.55488e-16 -0.111551 0 -0.111551 0.0254314 0 0 0 0)
(0 -0.111897 0 -0.111897 0.025163 0 0 0 0)
(7.92122e-16 -0.111839 0 -0.111839 0.0247703 0 0 0 0)
(0 -0.111288 0 -0.111288 0.0242595 0 0 0 0)
(8.07652e-16 -0.110201 0 -0.110201 0.0236348 0 0 0 0)
(0 -0.108576 0 -0.108576 0.0228874 0 0 0 0)
(0 -0.106353 0 -0.106353 0.0220177 0 0 0 0)
(0 -0.103462 0 -0.103462 0.0210257 0 0 0 0)
(0 -0.0998415 0 -0.0998415 0.0199124 0 0 0 0)
(-1.49193e-15 -0.0954222 0 -0.0954222 0.0186476 0 0 0 0)
(-1.4345e-15 -0.0900957 0 -0.0900957 0.0172383 0 0 0 0)
(0 -0.0837055 0 -0.0837055 0.0156261 0 0 0 0)
(0 -0.0761118 0 -0.0761118 0.0138204 0 0 0 0)
(0 -0.0671826 0 -0.0671826 0.0115353 0 0 0 0)
(0 -0.0561158 0 -0.0561158 0.00924905 0 0 0 0)
(0 -0.0416195 0 -0.0416195 0.00771942 0 0 0 0)
(0 -0.0320784 0 -0.0320784 0.00612403 0 0 0 0)
(0 -0 0 -0 0 0 0 0 0)
(0 -0 0 -0 0 0 0 0 0)
(0 -0 0 -0 0 0 0 0 0)
(0 -0 0 -0 -0 0 0 0 0)
(0 -0 0 -0 0 0 0 0 0)
(0 -0 0 -0 0 0 0 0 0)
(0 -0 0 -0 -0 0 0 0 0)
(0 -0 0 -0 -0 0 0 0 0)
(-0 -0 0 -0 -0 0 0 0 0)
(0 -0 0 -0 0 0 0 0 0)
(0 -0 0 -0 0 0 0 0 0)
(0 -0 0 -0 0 0 0 0 0)
(0 -0 0 -0 0 0 0 0 0)
(0 0 0 0 0 0 0 0 0)
(0 0 0 0 0 0 0 0 0)
(0 0 0 0 0 0 0 0 0)
(0 0 0 0 0 0 0 0 0)
(0 0 0 0 0 0 0 0 0)
(0 0 0 0 0 0 0 0 0)
(0 0 0 0 0 0 0 0 0)
(0 0 0 0 0 0 0 0 0)
(0 0 0 0 0 0 0 0 0)
(0 0 0 0 0 0 0 0 0)
(0 0 0 0 0 0 0 0 0)
(0 0 0 0 0 0 0 0 0)
(0 0 0 0 0 0 0 0 0)
(0 0 0 0 0 0 0 0 0)
(0 0 0 0 0 0 0 0 0)
(0 0 0 0 0 0 0 0 0)
(0 0 0 0 0 0 0 0 0)
(0 0 0 0 -0 0 0 0 0)
(0 0 0 0 0 0 0 0 0)
(0 0 0 0 -0 0 0 0 0)
(0 0 0 0 0 0 0 0 0)
(0 0 0 0 -0 0 0 0 0)
(0 0 0 0 0 0 0 0 0)
(0 0 0 0 -0 0 0 0 0)
(0 0 0 0 -0 0 0 0 0)
(0 0 0 0 0 0 0 0 0)
(0 0 0 0 0 0 0 0 0)
(0 0 0 0 -0 0 0 0 0)
(0 0 0 0 0 0 0 0 0)
(0 0 0 0 -0 0 0 0 0)
(0 0 0 0 0 0 0 0 0)
(0 0 0 0 -0 0 0 0 0)
(0 0 0 0 0 0 0 0 0)
(0 0 0 0 -0 0 0 0 0)
(0 0 0 0 0 0 0 0 0)
(0 0 0 0 -0 0 0 0 0)
(0 0 0 0 0 0 0 0 0)
(-0 0 0 0 -0 0 0 0 0)
(0 0 0 0 0 0 0 0 0)
(0 0 0 0 -0 0 0 0 0)
(0 0 0 0 0 0 0 0 0)
(0 -0 0 -0 -0 0 0 0 0)
(0 0 0 0 0 0 0 0 0)
(0 -0 0 -0 -0 0 0 0 0)
(0 0 0 0 0 0 0 0 0)
(0 -0 0 -0 -0 0 0 0 0)
(0 0 0 0 0 0 0 0 0)
(-0 -0 0 -0 -0 0 0 0 0)
(0 0 0 0 0 0 0 0 0)
(0 -0 0 -0 -0 0 0 0 0)
(0 0 0 0 0 0 0 0 0)
(0 -0 0 -0 -0 0 0 0 0)
(0 0 0 0 0 0 0 0 0)
(0 -0 0 -0 -0 0 0 0 0)
(0 0 0 0 0 0 0 0 0)
(0 -0 0 -0 -0 0 0 0 0)
(0 0 0 0 0 0 0 0 0)
(0 -0 0 -0 -0 0 0 0 0)
(0 0 0 0 0 0 0 0 0)
(0 -0 0 -0 -0 0 0 0 0)
(0 0 0 0 0 0 0 0 0)
(0 -0 0 -0 -0 0 0 0 0)
(0 0 0 0 0 0 0 0 0)
(0 -0 0 -0 -0 0 0 0 0)
(0 0 0 0 0 0 0 0 0)
(0 -0 0 -0 -0 0 0 0 0)
(0 0 0 0 0 0 0 0 0)
(0 -0 0 -0 -0 0 0 0 0)
(0 0 0 0 0 0 0 0 0)
(0 -0 0 -0 -0 0 0 0 0)
(0 0 0 0 0 0 0 0 0)
(0 -0 0 -0 -0 0 0 0 0)
(0 0 0 0 0 0 0 0 0)
(0 -0 0 -0 -0 0 0 0 0)
(0 0 0 0 0 0 0 0 0)
(0 -0 0 -0 -0 0 0 0 0)
(0 0 0 0 0 0 0 0 0)
(0 -0 0 -0 -0 0 0 0 0)
(0 0 0 0 0 0 0 0 0)
(0 -0 0 -0 -0 0 0 0 0)
(0 0 0 0 0 0 0 0 0)
(0 -0 0 -0 -0 0 0 0 0)
(0 0 0 0 0 0 0 0 0)
(0 -0 0 -0 -0 0 0 0 0)
(0 0 0 0 0 0 0 0 0)
(0 -0 0 -0 -0 0 0 0 0)
(0 0 0 0 0 0 0 0 0)
(0 -0 0 -0 -0 0 0 0 0)
(0 0 0 0 0 0 0 0 0)
(0 -0 0 -0 -0 0 0 0 0)
(0 0 0 0 0 0 0 0 0)
(0 -0 0 -0 -0 0 0 0 0)
(0 0 0 0 0 0 0 0 0)
(0 -0 0 -0 -0 0 0 0 0)
(0 0 0 0 0 0 0 0 0)
(0 -0 0 -0 -0 0 0 0 0)
(0 0 0 0 0 0 0 0 0)
(0 -0 0 -0 -0 0 0 0 0)
(0 0 0 0 0 0 0 0 0)
(0 -0 0 -0 -0 0 0 0 0)
(0 0 0 0 0 0 0 0 0)
(0 -0 0 -0 -0 0 0 0 0)
(0 0 0 0 0 0 0 0 0)
(0 -0 0 -0 -0 0 0 0 0)
(0 -0 0 -0 0 0 0 0 0)
(0 -0 0 -0 0 0 0 0 0)
(0 -0 0 -0 0 0 0 0 0)
(0 -0 0 -0 0 0 0 0 0)
(0 -0 0 -0 0 0 0 0 0)
(0 -0 0 -0 0 0 0 0 0)
(0 -0 0 -0 0 0 0 0 0)
)
;

boundaryField
{
    inandouthalf11
    {
        type            cyclic;
    }
    inandouthalf12
    {
        type            cyclic;
    }
    inandouthalf21
    {
        type            cyclic;
    }
    inandouthalf22
    {
        type            cyclic;
    }
    inandouthalf31
    {
        type            cyclic;
    }
    inandouthalf32
    {
        type            cyclic;
    }
    inandouthalf41
    {
        type            cyclic;
    }
    inandouthalf42
    {
        type            cyclic;
    }
    top
    {
        type            symmetryPlane;
    }
    walls
    {
        type            zeroGradient;
    }
    frontAndBackPlanes
    {
        type            empty;
    }
}


// ************************************************************************* //
