/*--------------------------------*- C++ -*----------------------------------*\
| =========                 |                                                 |
| \\      /  F ield         | OpenFOAM: The Open Source CFD Toolbox           |
|  \\    /   O peration     | Version:  2.4.x                                 |
|   \\  /    A nd           | Web:      www.OpenFOAM.org                      |
|    \\/     M anipulation  |                                                 |
\*---------------------------------------------------------------------------*/
FoamFile
{
    version     2.0;
    format      ascii;
    class       volScalarField;
    location    "7.35";
    object      Theta;
}
// * * * * * * * * * * * * * * * * * * * * * * * * * * * * * * * * * * * * * //

dimensions      [0 2 -2 0 0 0 0];

internalField   nonuniform List<scalar> 
360
(
6.66277e-21
6.66591e-21
6.66443e-21
6.66405e-21
6.66424e-21
6.66438e-21
6.66439e-21
6.66438e-21
6.66438e-21
6.66439e-21
6.66441e-21
6.66443e-21
6.66446e-21
6.66448e-21
6.6645e-21
6.66452e-21
6.66455e-21
6.66457e-21
6.6646e-21
6.66463e-21
6.66466e-21
6.66469e-21
6.66472e-21
6.66476e-21
6.66479e-21
6.66482e-21
6.66485e-21
6.66489e-21
6.66492e-21
6.66495e-21
6.66498e-21
6.66502e-21
6.66505e-21
6.66508e-21
6.66511e-21
6.66514e-21
6.66516e-21
6.66519e-21
6.66522e-21
6.66524e-21
6.66526e-21
6.66528e-21
6.6653e-21
6.66532e-21
6.66533e-21
6.66534e-21
6.66535e-21
6.66536e-21
6.66537e-21
6.66537e-21
6.66538e-21
6.66538e-21
6.66539e-21
6.66539e-21
6.6654e-21
6.6654e-21
6.6654e-21
6.66541e-21
6.66541e-21
6.66541e-21
6.66542e-21
6.66543e-21
6.66544e-21
6.66545e-21
6.66546e-21
6.66546e-21
6.66547e-21
6.66546e-21
6.66545e-21
6.66544e-21
6.66542e-21
6.6654e-21
6.66537e-21
6.66533e-21
6.66528e-21
6.66523e-21
6.66516e-21
6.66507e-21
6.66497e-21
6.66486e-21
6.66474e-21
6.66462e-21
6.6645e-21
6.66437e-21
6.66424e-21
6.66412e-21
6.66399e-21
6.66387e-21
6.66374e-21
6.66362e-21
6.6635e-21
6.66339e-21
6.66329e-21
6.66319e-21
6.66311e-21
6.66303e-21
6.66296e-21
6.6629e-21
6.66285e-21
6.6628e-21
6.66276e-21
6.66272e-21
6.66269e-21
6.66267e-21
6.66265e-21
6.66263e-21
6.66262e-21
6.66261e-21
6.66261e-21
6.66261e-21
6.66261e-21
6.66261e-21
6.66262e-21
6.66263e-21
6.66264e-21
6.66266e-21
6.66269e-21
6.66271e-21
6.66275e-21
6.66279e-21
6.66283e-21
6.66289e-21
6.66295e-21
6.66301e-21
6.66308e-21
6.66314e-21
6.66319e-21
6.66322e-21
6.66321e-21
6.66315e-21
6.66304e-21
6.66287e-21
6.66269e-21
1.15969e-20
4.33853e-20
1.80976e-19
7.94299e-19
3.73566e-18
1.94247e-17
1.13652e-16
7.36112e-16
5.09655e-15
3.71787e-14
2.92053e-13
2.62081e-12
2.94666e-11
4.46053e-10
1.00156e-08
4.59653e-07
1.39199e-05
0.000203752
0.00059355
0.000860399
0.00108804
0.00129074
0.00147469
0.00164357
0.00179968
0.00194464
0.00207966
0.00220561
0.0023232
0.00243298
0.00253541
0.00263089
0.00271976
0.00280232
0.00287883
0.00294955
0.00301471
0.00307452
0.00312918
0.00317889
0.00322383
0.00326418
0.00330011
0.00333179
0.00335938
0.00338305
0.00340293
0.00341919
0.00343197
0.00344142
0.00344767
0.00345087
0.00345114
0.00344862
0.00344344
0.00343572
0.00342558
0.00341315
0.00339853
0.00338185
0.00336321
0.00334271
0.00332046
0.00329657
0.00327111
0.00324419
0.0032159
0.00318632
0.00315521
0.00312227
0.00308751
0.00305089
0.00301241
0.00297205
0.00292979
0.0028856
0.00283945
0.0027913
0.00274112
0.00268886
0.00263445
0.00257783
0.00251893
0.00245766
0.00239391
0.00232757
0.0022585
0.00218655
0.00211154
0.00203326
0.00195147
0.00186589
0.00177618
0.00168194
0.00158268
0.00147779
0.00136648
0.00124774
0.00112017
0.000981752
0.000829335
0.00065738
0.000453819
0
0
0
0
0
0
0
0
0
0
0
0
0
0
0
0
0
0
0
0
0
0
0
0
0
0
0
0
0
0
0
0
0
0
0
0
0
0
0
0
0
0
0
0
0
0
0
0
0
0
0
0
0
0
0
0
0
0
0
0
0
0
0
0
0
0
0
0
0
0
0
0
0
0
0
0
0
0
0
0
0
0
0
0
0
0
0
0
0
0
0
0
0
0
0
0
0
0
0
0
0
0
0
0
0
0
0
0
0
0
0
0
0
0
0
0
0
0
0
0
0
0
0
0
)
;

boundaryField
{
    inandouthalf11
    {
        type            cyclic;
    }
    inandouthalf12
    {
        type            cyclic;
    }
    inandouthalf21
    {
        type            cyclic;
    }
    inandouthalf22
    {
        type            cyclic;
    }
    inandouthalf31
    {
        type            cyclic;
    }
    inandouthalf32
    {
        type            cyclic;
    }
    inandouthalf41
    {
        type            cyclic;
    }
    inandouthalf42
    {
        type            cyclic;
    }
    top
    {
        type            symmetryPlane;
    }
    walls
    {
        type            zeroGradient;
    }
    frontAndBackPlanes
    {
        type            empty;
    }
}


// ************************************************************************* //
