/*--------------------------------*- C++ -*----------------------------------*\
| =========                 |                                                 |
| \\      /  F ield         | OpenFOAM: The Open Source CFD Toolbox           |
|  \\    /   O peration     | Version:  2.4.x                                 |
|   \\  /    A nd           | Web:      www.OpenFOAM.org                      |
|    \\/     M anipulation  |                                                 |
\*---------------------------------------------------------------------------*/
FoamFile
{
    version     2.0;
    format      ascii;
    class       volVectorField;
    location    "7.35";
    object      Ub;
}
// * * * * * * * * * * * * * * * * * * * * * * * * * * * * * * * * * * * * * //

dimensions      [0 1 -1 0 0 0 0];

internalField   nonuniform List<vector> 
360
(
(0.000233639 4.22718e-08 0)
(0.000232441 1.51879e-07 0)
(0.000232244 2.79669e-07 0)
(0.00023241 3.96104e-07 0)
(0.000232501 5.09557e-07 0)
(0.000232535 6.25057e-07 0)
(0.000232571 7.41947e-07 0)
(0.000232616 8.59039e-07 0)
(0.000232661 9.76048e-07 0)
(0.000232708 1.09315e-06 0)
(0.000232754 1.21055e-06 0)
(0.000232801 1.32834e-06 0)
(0.000232847 1.44653e-06 0)
(0.000232894 1.56511e-06 0)
(0.00023294 1.68408e-06 0)
(0.000232988 1.80347e-06 0)
(0.000233035 1.92332e-06 0)
(0.000233083 2.04367e-06 0)
(0.000233131 2.16453e-06 0)
(0.00023318 2.28593e-06 0)
(0.000233228 2.40787e-06 0)
(0.000233277 2.53037e-06 0)
(0.000233326 2.65344e-06 0)
(0.000233376 2.77708e-06 0)
(0.000233426 2.90131e-06 0)
(0.000233476 3.02612e-06 0)
(0.000233526 3.1515e-06 0)
(0.000233577 3.27746e-06 0)
(0.000233628 3.404e-06 0)
(0.00023368 3.53111e-06 0)
(0.000233732 3.65877e-06 0)
(0.000233784 3.78699e-06 0)
(0.000233836 3.91572e-06 0)
(0.00023389 4.045e-06 0)
(0.000233943 4.17478e-06 0)
(0.000233997 4.30505e-06 0)
(0.000234051 4.43578e-06 0)
(0.000234105 4.56695e-06 0)
(0.000234161 4.69857e-06 0)
(0.000234215 4.83056e-06 0)
(0.000234272 4.96292e-06 0)
(0.000234328 5.09564e-06 0)
(0.000234385 5.22862e-06 0)
(0.000234442 5.36189e-06 0)
(0.0002345 5.49539e-06 0)
(0.000234558 5.62909e-06 0)
(0.000234618 5.76297e-06 0)
(0.000234676 5.89693e-06 0)
(0.000234736 6.03097e-06 0)
(0.000234797 6.16512e-06 0)
(0.000234858 6.29933e-06 0)
(0.00023492 6.4336e-06 0)
(0.000234982 6.5679e-06 0)
(0.000235045 6.70226e-06 0)
(0.000235108 6.83661e-06 0)
(0.000235173 6.97102e-06 0)
(0.000235237 7.10541e-06 0)
(0.000235303 7.23982e-06 0)
(0.000235369 7.37423e-06 0)
(0.000235436 7.50861e-06 0)
(0.000235504 7.64306e-06 0)
(0.000235572 7.77758e-06 0)
(0.000235642 7.91224e-06 0)
(0.000235712 8.04703e-06 0)
(0.000235783 8.18195e-06 0)
(0.000235855 8.31693e-06 0)
(0.000235928 8.45192e-06 0)
(0.000236002 8.58685e-06 0)
(0.000236076 8.72162e-06 0)
(0.000236151 8.85608e-06 0)
(0.000236228 8.99023e-06 0)
(0.000236306 9.124e-06 0)
(0.000236384 9.25723e-06 0)
(0.000236465 9.38987e-06 0)
(0.000236546 9.52173e-06 0)
(0.000236628 9.65269e-06 0)
(0.000236712 9.78248e-06 0)
(0.000236797 9.91086e-06 0)
(0.000236883 1.00376e-05 0)
(0.000236971 1.01624e-05 0)
(0.00023706 1.02851e-05 0)
(0.000237151 1.04055e-05 0)
(0.000237244 1.05236e-05 0)
(0.000237338 1.06392e-05 0)
(0.000237435 1.07524e-05 0)
(0.000237533 1.0863e-05 0)
(0.000237634 1.09711e-05 0)
(0.000237736 1.10765e-05 0)
(0.000237841 1.11791e-05 0)
(0.000237947 1.12791e-05 0)
(0.000238056 1.13763e-05 0)
(0.000238168 1.14708e-05 0)
(0.000238282 1.15628e-05 0)
(0.000238398 1.16524e-05 0)
(0.000238518 1.17396e-05 0)
(0.00023864 1.18247e-05 0)
(0.000238765 1.19079e-05 0)
(0.000238893 1.19894e-05 0)
(0.000239024 1.20692e-05 0)
(0.000239158 1.21476e-05 0)
(0.000239296 1.22246e-05 0)
(0.000239436 1.23006e-05 0)
(0.000239581 1.23755e-05 0)
(0.000239729 1.24495e-05 0)
(0.000239881 1.25229e-05 0)
(0.000240036 1.25956e-05 0)
(0.000240196 1.26678e-05 0)
(0.00024036 1.27396e-05 0)
(0.000240528 1.28112e-05 0)
(0.000240701 1.28825e-05 0)
(0.000240879 1.29537e-05 0)
(0.000241062 1.30249e-05 0)
(0.00024125 1.30961e-05 0)
(0.000241443 1.31675e-05 0)
(0.000241642 1.3239e-05 0)
(0.000241847 1.33108e-05 0)
(0.000242058 1.33831e-05 0)
(0.000242276 1.34558e-05 0)
(0.0002425 1.35291e-05 0)
(0.000242731 1.36033e-05 0)
(0.00024297 1.36784e-05 0)
(0.000243216 1.37546e-05 0)
(0.00024347 1.3832e-05 0)
(0.000243732 1.39107e-05 0)
(0.000244003 1.39907e-05 0)
(0.000244283 1.4072e-05 0)
(0.000244573 1.41542e-05 0)
(0.000244874 1.42368e-05 0)
(0.000245186 1.43191e-05 0)
(0.000245512 1.44001e-05 0)
(0.000245852 1.44785e-05 0)
(0.000246207 1.45528e-05 0)
(0.000246578 1.46217e-05 0)
(0.000246972 1.4684e-05 0)
(0.000247393 1.47395e-05 0)
(0.000247839 1.47884e-05 0)
(0.00024831 1.48312e-05 0)
(0.000248811 1.48687e-05 0)
(0.000249369 1.49024e-05 0)
(0.000250011 1.49345e-05 0)
(0.000250706 1.49645e-05 0)
(0.000251372 1.49826e-05 0)
(0.000252183 1.49855e-05 0)
(0.00025325 1.49701e-05 0)
(0.000254596 1.49168e-05 0)
(0.000257195 1.47703e-05 0)
(0.000263905 1.56706e-05 0)
(0.000267159 1.87392e-05 0)
(0.000276208 2.61987e-05 0)
(0.00046828 1.60333e-05 0)
(0.0621729 2.57102e-05 0)
(0.0964754 4.49847e-05 0)
(0.105114 3.08742e-05 0)
(0.107666 2.87423e-05 0)
(0.107957 2.64195e-05 0)
(0.107078 2.41334e-05 0)
(0.105474 2.19615e-05 0)
(0.103371 1.99756e-05 0)
(0.100902 1.81575e-05 0)
(0.0981542 1.6494e-05 0)
(0.0951897 1.49779e-05 0)
(0.092053 1.36008e-05 0)
(0.0887788 1.23526e-05 0)
(0.0853942 1.12225e-05 0)
(0.0819208 1.02002e-05 0)
(0.0783766 9.27587e-06 0)
(0.0747762 8.44026e-06 0)
(0.0711318 7.68498e-06 0)
(0.0674539 7.00229e-06 0)
(0.0637511 6.38514e-06 0)
(0.0600311 5.82711e-06 0)
(0.0563003 5.3224e-06 0)
(0.0525642 4.86571e-06 0)
(0.0488277 4.45228e-06 0)
(0.0450948 4.07779e-06 0)
(0.0413693 3.73832e-06 0)
(0.0376542 3.43035e-06 0)
(0.0339524 3.15069e-06 0)
(0.0302662 2.89648e-06 0)
(0.0265978 2.66515e-06 0)
(0.022949 2.45436e-06 0)
(0.0193214 2.26206e-06 0)
(0.0157164 2.08638e-06 0)
(0.0121353 1.92564e-06 0)
(0.00857911 1.77837e-06 0)
(0.00504881 1.64324e-06 0)
(0.00154523 1.51905e-06 0)
(-0.00193092 1.40474e-06 0)
(-0.00537901 1.29937e-06 0)
(-0.00879848 1.20208e-06 0)
(-0.0121889 1.11212e-06 0)
(-0.0155497 1.02881e-06 0)
(-0.0188808 9.51551e-07 0)
(-0.0221816 8.79804e-07 0)
(-0.025452 8.13098e-07 0)
(-0.0286917 7.51013e-07 0)
(-0.0319005 6.93178e-07 0)
(-0.0350783 6.39257e-07 0)
(-0.0382249 5.88949e-07 0)
(-0.0413402 5.41982e-07 0)
(-0.0444241 4.98109e-07 0)
(-0.0475077 4.56686e-07 0)
(-0.0506212 4.17209e-07 0)
(-0.0537641 3.79623e-07 0)
(-0.056936 3.43894e-07 0)
(-0.0601365 3.10015e-07 0)
(-0.0633648 2.77993e-07 0)
(-0.0666203 2.47847e-07 0)
(-0.0699023 2.19609e-07 0)
(-0.0732098 1.93325e-07 0)
(-0.0765419 1.69047e-07 0)
(-0.0798974 1.46815e-07 0)
(-0.0832751 1.26637e-07 0)
(-0.0866736 1.08493e-07 0)
(-0.0900915 9.23471e-08 0)
(-0.0935269 7.81324e-08 0)
(-0.096978 6.57351e-08 0)
(-0.100443 5.50171e-08 0)
(-0.103919 4.58332e-08 0)
(-0.107404 3.8026e-08 0)
(-0.110895 3.14246e-08 0)
(-0.114389 2.58668e-08 0)
(-0.117882 2.12139e-08 0)
(-0.121372 1.73373e-08 0)
(-0.124853 1.41166e-08 0)
(-0.128321 1.14508e-08 0)
(-0.131772 9.25382e-09 0)
(-0.135199 7.44949e-09 0)
(-0.138596 5.97122e-09 0)
(-0.141957 4.76451e-09 0)
(-0.145274 3.78264e-09 0)
(-0.148538 2.98462e-09 0)
(-0.15174 2.33556e-09 0)
(-0.15487 1.82923e-09 0)
(-0.157916 1.4594e-09 0)
(-0.160865 1.14345e-09 0)
(-0.163703 7.86525e-10 0)
(-0.166416 4.2249e-10 0)
(-0.168985 1.91393e-10 0)
(-0.171393 8.36192e-11 0)
(-0.173621 2.63604e-11 0)
(-0.17565 3.13476e-12 0)
(-0.177458 1.25825e-11 0)
(-0.17903 2.01141e-11 0)
(-0.180346 -1.09597e-12 0)
(-0.181396 2.791e-13 0)
(-0.182172 1.69412e-12 0)
(-0.182673 1.83604e-12 0)
(-0.182905 1.71393e-12 0)
(-0.182881 1.62008e-12 0)
(-0.182619 1.07393e-12 0)
(-0.182141 -9.10174e-13 0)
(-0.181473 1.52187e-11 0)
(-0.180643 -3.62735e-11 0)
(-0.179681 7.8053e-11 0)
(-0.178623 -1.31771e-10 0)
(-0.177507 2.08334e-10 0)
(-0.176376 -2.97911e-10 0)
(-0.175283 4.08198e-10 0)
(-0.174302 -5.2821e-10 0)
(-0.173615 6.62444e-10 0)
(-0.173439 -8.00063e-10 0)
(-0.173429 9.45516e-10 0)
(-0.173429 -1.0917e-09 0)
(-0.173429 1.24426e-09 0)
(-0.173429 -1.39804e-09 0)
(-0.173429 1.55809e-09 0)
(-0.173429 -1.71988e-09 0)
(-0.173429 1.88799e-09 0)
(-0.173429 -2.05828e-09 0)
(-0.173429 2.23498e-09 0)
(-0.173429 -2.41424e-09 0)
(-0.173429 2.59997e-09 0)
(-0.173429 -2.7886e-09 0)
(-0.173429 2.9838e-09 0)
(-0.173429 -3.18219e-09 0)
(-0.173429 3.38723e-09 0)
(-0.173429 -3.59573e-09 0)
(-0.173429 3.81093e-09 0)
(-0.173429 -4.02989e-09 0)
(-0.173429 4.25552e-09 0)
(-0.173429 -4.48522e-09 0)
(-0.173429 4.72161e-09 0)
(-0.173429 -4.96229e-09 0)
(-0.173429 5.20969e-09 0)
(-0.173429 -5.46161e-09 0)
(-0.173429 5.72023e-09 0)
(-0.173429 -5.98363e-09 0)
(-0.173429 6.25364e-09 0)
(-0.173429 -6.52872e-09 0)
(-0.173429 6.81034e-09 0)
(-0.173429 -7.09726e-09 0)
(-0.173429 7.39063e-09 0)
(-0.173429 -7.68957e-09 0)
(-0.173429 7.99484e-09 0)
(-0.173429 -8.30593e-09 0)
(-0.173429 8.62319e-09 0)
(-0.173429 -8.94648e-09 0)
(-0.173429 9.27597e-09 0)
(-0.173429 -9.61151e-09 0)
(-0.173429 9.95322e-09 0)
(-0.173429 -1.03011e-08 0)
(-0.173429 1.06551e-08 0)
(-0.173429 -1.10152e-08 0)
(-0.173429 1.13815e-08 0)
(-0.173429 -1.17539e-08 0)
(-0.173429 1.21323e-08 0)
(-0.173429 -1.25169e-08 0)
(-0.173429 1.29074e-08 0)
(-0.173429 -1.33039e-08 0)
(-0.173429 1.20327e-08 0)
(-0.173429 -1.21624e-08 0)
(-0.173429 1.22908e-08 0)
(-0.173429 -1.24178e-08 0)
(-0.173429 1.25434e-08 0)
(-0.173429 -1.26676e-08 0)
(-0.173429 1.27904e-08 0)
(-0.173429 -1.29118e-08 0)
(-0.173429 1.30317e-08 0)
(-0.173429 -1.31503e-08 0)
(-0.173429 1.32672e-08 0)
(-0.173429 -1.33828e-08 0)
(-0.173429 1.34967e-08 0)
(-0.173429 -1.36092e-08 0)
(-0.173429 1.372e-08 0)
(-0.173429 -1.38294e-08 0)
(-0.173429 1.3937e-08 0)
(-0.173429 -1.40432e-08 0)
(-0.173429 1.41475e-08 0)
(-0.173429 -1.42504e-08 0)
(-0.173429 1.43512e-08 0)
(-0.173429 -1.4451e-08 0)
(-0.173429 1.45481e-08 0)
(-0.173429 -1.46446e-08 0)
(-0.173429 1.47378e-08 0)
(-0.173429 -1.4831e-08 0)
(-0.173429 1.49201e-08 0)
(-0.173429 -1.50098e-08 0)
(-0.173429 1.50947e-08 0)
(-0.173429 -1.51808e-08 0)
(-0.173429 1.52611e-08 0)
(-0.173429 -1.53437e-08 0)
(-0.173429 1.54189e-08 0)
(-0.173429 -1.54979e-08 0)
(-0.173429 1.55676e-08 0)
(-0.173429 -1.5643e-08 0)
(-0.173429 1.57068e-08 0)
(-0.173429 -1.57784e-08 0)
(-0.173429 1.58355e-08 0)
(-0.173429 -1.59032e-08 0)
(-0.173429 1.5953e-08 0)
(-0.173429 -1.60163e-08 0)
(-0.173429 1.60576e-08 0)
(-0.173429 -1.61171e-08 0)
(-0.173429 1.61477e-08 0)
(-0.173429 -1.62021e-08 0)
(-0.173429 1.62214e-08 0)
(-0.173429 -1.62681e-08 0)
(-0.173429 1.62728e-08 0)
(-0.173429 -1.62997e-08 0)
)
;

boundaryField
{
    inandouthalf11
    {
        type            cyclic;
    }
    inandouthalf12
    {
        type            cyclic;
    }
    inandouthalf21
    {
        type            cyclic;
    }
    inandouthalf22
    {
        type            cyclic;
    }
    inandouthalf31
    {
        type            cyclic;
    }
    inandouthalf32
    {
        type            cyclic;
    }
    inandouthalf41
    {
        type            cyclic;
    }
    inandouthalf42
    {
        type            cyclic;
    }
    top
    {
        type            symmetryPlane;
    }
    walls
    {
        type            fixedValue;
        value           uniform (0 0 0);
    }
    frontAndBackPlanes
    {
        type            empty;
    }
}


// ************************************************************************* //
