/*--------------------------------*- C++ -*----------------------------------*\
| =========                 |                                                 |
| \\      /  F ield         | OpenFOAM: The Open Source CFD Toolbox           |
|  \\    /   O peration     | Version:  2.4.x                                 |
|   \\  /    A nd           | Web:      www.OpenFOAM.org                      |
|    \\/     M anipulation  |                                                 |
\*---------------------------------------------------------------------------*/
FoamFile
{
    version     2.0;
    format      ascii;
    class       volVectorField;
    location    "7.35";
    object      Ur;
}
// * * * * * * * * * * * * * * * * * * * * * * * * * * * * * * * * * * * * * //

dimensions      [0 1 -1 0 0 0 0];

internalField   nonuniform List<vector> 
360
(
(0.000233639 4.22718e-08 0)
(0.000232439 2.53687e-07 0)
(0.00023224 4.62384e-07 0)
(0.000232404 6.47733e-07 0)
(0.000232494 8.32327e-07 0)
(0.000232526 1.02183e-06 0)
(0.000232561 1.21329e-06 0)
(0.000232604 1.40479e-06 0)
(0.000232649 1.59614e-06 0)
(0.000232694 1.78767e-06 0)
(0.00023274 1.97973e-06 0)
(0.000232786 2.17245e-06 0)
(0.000232832 2.36585e-06 0)
(0.000232879 2.5599e-06 0)
(0.000232926 2.7546e-06 0)
(0.000232973 2.94999e-06 0)
(0.000233021 3.14617e-06 0)
(0.00023307 3.34317e-06 0)
(0.000233118 3.54102e-06 0)
(0.000233168 3.73978e-06 0)
(0.000233217 3.93945e-06 0)
(0.000233268 4.14003e-06 0)
(0.000233318 4.34158e-06 0)
(0.00023337 4.54408e-06 0)
(0.000233421 4.74756e-06 0)
(0.000233473 4.95201e-06 0)
(0.000233526 5.15742e-06 0)
(0.000233579 5.36379e-06 0)
(0.000233633 5.57114e-06 0)
(0.000233687 5.77944e-06 0)
(0.000233742 5.98866e-06 0)
(0.000233798 6.19882e-06 0)
(0.000233853 6.40985e-06 0)
(0.00023391 6.62178e-06 0)
(0.000233967 6.83457e-06 0)
(0.000234025 7.04818e-06 0)
(0.000234083 7.26256e-06 0)
(0.000234142 7.4777e-06 0)
(0.000234202 7.69359e-06 0)
(0.000234261 7.91012e-06 0)
(0.000234323 8.12729e-06 0)
(0.000234384 8.34506e-06 0)
(0.000234446 8.5633e-06 0)
(0.000234509 8.78202e-06 0)
(0.000234572 9.00115e-06 0)
(0.000234636 9.22065e-06 0)
(0.000234702 9.44046e-06 0)
(0.000234767 9.66044e-06 0)
(0.000234833 9.88056e-06 0)
(0.000234901 1.01009e-05 0)
(0.000234968 1.03214e-05 0)
(0.000235037 1.0542e-05 0)
(0.000235107 1.07627e-05 0)
(0.000235177 1.09835e-05 0)
(0.000235248 1.12043e-05 0)
(0.000235321 1.14253e-05 0)
(0.000235393 1.16463e-05 0)
(0.000235467 1.18673e-05 0)
(0.000235542 1.20884e-05 0)
(0.000235617 1.23094e-05 0)
(0.000235694 1.25306e-05 0)
(0.000235771 1.2752e-05 0)
(0.00023585 1.29736e-05 0)
(0.00023593 1.31955e-05 0)
(0.000236011 1.34176e-05 0)
(0.000236092 1.36399e-05 0)
(0.000236175 1.38623e-05 0)
(0.000236259 1.40846e-05 0)
(0.000236344 1.43066e-05 0)
(0.00023643 1.45283e-05 0)
(0.000236518 1.47494e-05 0)
(0.000236607 1.497e-05 0)
(0.000236696 1.51897e-05 0)
(0.000236788 1.54085e-05 0)
(0.000236881 1.56261e-05 0)
(0.000236975 1.58423e-05 0)
(0.00023707 1.60567e-05 0)
(0.000237167 1.62687e-05 0)
(0.000237265 1.6478e-05 0)
(0.000237365 1.66843e-05 0)
(0.000237466 1.68872e-05 0)
(0.000237569 1.70864e-05 0)
(0.000237674 1.72818e-05 0)
(0.00023778 1.74733e-05 0)
(0.000237888 1.76607e-05 0)
(0.000237999 1.78441e-05 0)
(0.000238111 1.80232e-05 0)
(0.000238224 1.8198e-05 0)
(0.00023834 1.83684e-05 0)
(0.000238458 1.85344e-05 0)
(0.000238578 1.8696e-05 0)
(0.0002387 1.88533e-05 0)
(0.000238824 1.90064e-05 0)
(0.000238951 1.91555e-05 0)
(0.000239081 1.9301e-05 0)
(0.000239213 1.9443e-05 0)
(0.000239348 1.9582e-05 0)
(0.000239486 1.97181e-05 0)
(0.000239627 1.98516e-05 0)
(0.000239771 1.99828e-05 0)
(0.000239917 2.0112e-05 0)
(0.000240068 2.02394e-05 0)
(0.000240221 2.03652e-05 0)
(0.000240379 2.04897e-05 0)
(0.00024054 2.06131e-05 0)
(0.000240705 2.07355e-05 0)
(0.000240874 2.08573e-05 0)
(0.000241047 2.09785e-05 0)
(0.000241225 2.10993e-05 0)
(0.000241407 2.122e-05 0)
(0.000241594 2.13405e-05 0)
(0.000241787 2.14611e-05 0)
(0.000241984 2.15819e-05 0)
(0.000242188 2.17031e-05 0)
(0.000242397 2.18247e-05 0)
(0.000242612 2.19469e-05 0)
(0.000242834 2.207e-05 0)
(0.000243062 2.2194e-05 0)
(0.000243297 2.23193e-05 0)
(0.00024354 2.2446e-05 0)
(0.000243791 2.25744e-05 0)
(0.000244049 2.27049e-05 0)
(0.000244316 2.28376e-05 0)
(0.000244593 2.29727e-05 0)
(0.000244878 2.31102e-05 0)
(0.000245174 2.325e-05 0)
(0.00024548 2.33916e-05 0)
(0.000245799 2.35343e-05 0)
(0.00024613 2.36769e-05 0)
(0.000246475 2.38177e-05 0)
(0.000246834 2.39546e-05 0)
(0.000247209 2.4085e-05 0)
(0.000247601 2.42067e-05 0)
(0.000248015 2.4318e-05 0)
(0.000248454 2.44185e-05 0)
(0.00024892 2.45085e-05 0)
(0.000249408 2.45888e-05 0)
(0.000249928 2.46611e-05 0)
(0.000250506 2.47286e-05 0)
(0.000251168 2.47946e-05 0)
(0.000251885 2.48583e-05 0)
(0.000252572 2.49053e-05 0)
(0.000253399 2.49282e-05 0)
(0.000254475 2.49233e-05 0)
(0.000255825 2.48734e-05 0)
(0.000258424 2.47278e-05 0)
(0.000265134 2.56291e-05 0)
(0.00026659 3.09887e-05 0)
(0.000269984 4.18823e-05 0)
(0.000437551 3.55526e-05 0)
(0.0158234 6.86194e-05 0)
(0.0133356 0.000718143 0)
(0.0113607 0.00157174 0)
(0.0104501 0.00252465 0)
(0.0101283 0.00354306 0)
(0.0100377 0.00448089 0)
(0.0101202 0.00537399 0)
(0.0102654 0.00616344 0)
(0.0104377 0.00685003 0)
(0.0106189 0.00743487 0)
(0.0107993 0.00792538 0)
(0.0109736 0.00833145 0)
(0.0111386 0.0086635 0)
(0.0112924 0.00893166 0)
(0.0114335 0.00914531 0)
(0.0115607 0.00931295 0)
(0.0116728 0.00944216 0)
(0.0117686 0.00953958 0)
(0.0118469 0.00961098 0)
(0.0119064 0.00966138 0)
(0.0119458 0.00969503 0)
(0.0119636 0.00971555 0)
(0.0119583 0.00972594 0)
(0.0119285 0.00972869 0)
(0.0118727 0.00972579 0)
(0.0117892 0.00971879 0)
(0.0116767 0.00970888 0)
(0.0115335 0.0096969 0)
(0.0113582 0.00968339 0)
(0.0111494 0.00966869 0)
(0.0109056 0.00965287 0)
(0.0106254 0.00963588 0)
(0.0103075 0.0096175 0)
(0.00995058 0.00959742 0)
(0.00955343 0.00957525 0)
(0.00911481 0.00955053 0)
(0.00863355 0.00952278 0)
(0.00810854 0.00949149 0)
(0.00753869 0.00945616 0)
(0.00692298 0.00941629 0)
(0.00626039 0.00937143 0)
(0.00554997 0.00932116 0)
(0.00479081 0.0092651 0)
(0.00398202 0.00920295 0)
(0.00312276 0.00913446 0)
(0.00221223 0.00905946 0)
(0.00124963 0.00897785 0)
(0.000234224 0.00888964 0)
(-0.000834733 0.00879491 0)
(-0.00195795 0.0086939 0)
(-0.00313618 0.00858693 0)
(-0.00438219 0.00847334 0)
(-0.00570894 0.00835231 0)
(-0.00711696 0.00822432 0)
(-0.0086067 0.00809002 0)
(-0.0101784 0.00795025 0)
(-0.0118319 0.00780603 0)
(-0.0135669 0.0076585 0)
(-0.0153825 0.00750889 0)
(-0.0172775 0.0073585 0)
(-0.01925 0.00720859 0)
(-0.0212977 0.00706035 0)
(-0.0234176 0.00691481 0)
(-0.025606 0.00677287 0)
(-0.0278589 0.00663522 0)
(-0.0301713 0.0065023 0)
(-0.0325383 0.00637432 0)
(-0.0349541 0.00625133 0)
(-0.0374128 0.00613323 0)
(-0.0399084 0.00601974 0)
(-0.0424348 0.0059105 0)
(-0.0449854 0.00580522 0)
(-0.0475539 0.00570359 0)
(-0.0501338 0.00560526 0)
(-0.0527187 0.00550996 0)
(-0.0553022 0.00541756 0)
(-0.0578783 0.00532788 0)
(-0.0604412 0.00524092 0)
(-0.0629856 0.00515667 0)
(-0.0655065 0.00507552 0)
(-0.0680009 0.00499766 0)
(-0.0704656 0.00492417 0)
(-0.072902 0.00485557 0)
(-0.0753092 0.00479644 0)
(-0.0777124 0.00474304 0)
(-0.0801518 0.00468943 0)
(-0.0824141 0.00463948 0)
(0.00686422 0.0024345 0)
(0.00670529 0.00379706 0)
(0.0067677 -0.00090234 0)
(0.0066261 0.00414677 0)
(0.00662219 -0.00348054 0)
(0.00658709 0.00355801 0)
(0.00500954 0.033952 0)
(0.00469487 0.0395946 0)
(0.0047378 0.0395591 0)
(0.00465655 0.0395534 0)
(0.00456789 0.0395464 0)
(0.00448587 0.0395408 0)
(0.00443565 0.0395345 0)
(0.00437803 0.03953 0)
(0.00432966 0.0395265 0)
(0.00428948 0.0395238 0)
(0.00425772 0.0395219 0)
(0.00423458 0.0395204 0)
(0.00422032 0.0395192 0)
(0.00421542 0.039518 0)
(0.00422079 0.0395165 0)
(0.00423771 0.039514 0)
(0.00425895 0.0395093 0)
(0.0043759 0.0395002 0)
(0.00441959 0.0394946 0)
(0.00442234 0.0394934 0)
(0.00442241 0.0394934 0)
(0.00442242 0.0394934 0)
(0.00442242 0.0394934 0)
(0.00442242 0.0394934 0)
(0.00442242 0.0394934 0)
(0.00442242 0.0394934 0)
(0.00442242 0.0394934 0)
(0.00442242 0.0394934 0)
(0.00442242 0.0394934 0)
(0.00442242 0.0394934 0)
(0.00442242 0.0394934 0)
(0.00442242 0.0394934 0)
(0.00442242 0.0394934 0)
(0.00442242 0.0394934 0)
(0.00442242 0.0394934 0)
(0.00442242 0.0394934 0)
(0.00442242 0.0394934 0)
(0.00442242 0.0394934 0)
(0.00442242 0.0394934 0)
(0.00442242 0.0394934 0)
(0.00442242 0.0394934 0)
(0.00442242 0.0394934 0)
(0.00442242 0.0394934 0)
(0.00442242 0.0394934 0)
(0.00442242 0.0394934 0)
(0.00442242 0.0394934 0)
(0.00442242 0.0394934 0)
(0.00442242 0.0394934 0)
(0.00442242 0.0394934 0)
(0.00442242 0.0394934 0)
(0.00442242 0.0394934 0)
(0.00442242 0.0394934 0)
(0.00442242 0.0394934 0)
(0.00442242 0.0394934 0)
(0.00442242 0.0394934 0)
(0.00442242 0.0394934 0)
(0.00442242 0.0394934 0)
(0.00442242 0.0394934 0)
(0.00442242 0.0394934 0)
(0.00442242 0.0394934 0)
(0.00442242 0.0394934 0)
(0.00442242 0.0394934 0)
(0.00442242 0.0394934 0)
(0.00442242 0.0394934 0)
(0.00442242 0.0394934 0)
(0.00442242 0.0394934 0)
(0.00442242 0.0394934 0)
(0.00442242 0.0394934 0)
(0.00442242 0.0394934 0)
(0.00442242 0.0394934 0)
(0.00442242 0.0394934 0)
(0.00442242 0.0394934 0)
(0.00442242 0.0394934 0)
(0.00442242 0.0394934 0)
(0.00442242 0.0394934 0)
(0.00442242 0.0394934 0)
(0.00442242 0.0394934 0)
(0.00442242 0.0394934 0)
(0.00442242 0.0394934 0)
(0.00442242 0.0394934 0)
(0.00442242 0.0394934 0)
(0.00442242 0.0394934 0)
(0.00442242 0.0394934 0)
(0.00442242 0.0394934 0)
(0.00442242 0.0394934 0)
(0.00442242 0.0394934 0)
(0.00442242 0.0394934 0)
(0.00442242 0.0394934 0)
(0.00442242 0.0394934 0)
(0.00442242 0.0394934 0)
(0.00442242 0.0394934 0)
(0.00442242 0.0394934 0)
(0.00442242 0.0394934 0)
(0.00442242 0.0394934 0)
(0.00442242 0.0394934 0)
(0.00442242 0.0394934 0)
(0.00442242 0.0394934 0)
(0.00442242 0.0394934 0)
(0.00442242 0.0394934 0)
(0.00442242 0.0394934 0)
(0.00442242 0.0394934 0)
(0.00442242 0.0394934 0)
(0.00442242 0.0394934 0)
(0.00442242 0.0394934 0)
(0.00442242 0.0394934 0)
(0.00442242 0.0394934 0)
(0.00442242 0.0394934 0)
(0.00442242 0.0394934 0)
(0.00442242 0.0394934 0)
(0.00442242 0.0394934 0)
(0.00442242 0.0394934 0)
(0.00442242 0.0394934 0)
(0.00442243 0.0394934 0)
(0.00442247 0.0394932 0)
(0.00442369 0.0394847 0)
(0.00445362 0.039139 0)
(0.00514824 0.0223895 0)
)
;

boundaryField
{
    inandouthalf11
    {
        type            cyclic;
    }
    inandouthalf12
    {
        type            cyclic;
    }
    inandouthalf21
    {
        type            cyclic;
    }
    inandouthalf22
    {
        type            cyclic;
    }
    inandouthalf31
    {
        type            cyclic;
    }
    inandouthalf32
    {
        type            cyclic;
    }
    inandouthalf41
    {
        type            cyclic;
    }
    inandouthalf42
    {
        type            cyclic;
    }
    top
    {
        type            symmetryPlane;
    }
    walls
    {
        type            calculated;
        value           uniform (0 0 0);
    }
    frontAndBackPlanes
    {
        type            empty;
    }
}


// ************************************************************************* //
