/*--------------------------------*- C++ -*----------------------------------*\
| =========                 |                                                 |
| \\      /  F ield         | OpenFOAM: The Open Source CFD Toolbox           |
|  \\    /   O peration     | Version:  2.4.x                                 |
|   \\  /    A nd           | Web:      www.OpenFOAM.org                      |
|    \\/     M anipulation  |                                                 |
\*---------------------------------------------------------------------------*/
FoamFile
{
    version     2.0;
    format      ascii;
    class       volScalarField;
    location    "3.05";
    object      alpha;
}
// * * * * * * * * * * * * * * * * * * * * * * * * * * * * * * * * * * * * * //

dimensions      [0 0 0 0 0 0 0];

internalField   nonuniform List<scalar> 
360
(
0.610121
0.610365
0.610502
0.610517
0.610499
0.61047
0.610431
0.610392
0.61036
0.610329
0.610295
0.610255
0.610208
0.610157
0.61011
0.610071
0.610045
0.61003
0.610023
0.610019
0.610017
0.610015
0.610014
0.610012
0.610011
0.610009
0.610007
0.610005
0.610002
0.609999
0.609996
0.609993
0.60999
0.609985
0.609982
0.609977
0.609973
0.609967
0.609961
0.609956
0.609948
0.609941
0.609934
0.609925
0.609916
0.609907
0.609896
0.609886
0.609874
0.60986
0.609846
0.609831
0.609815
0.609798
0.60978
0.60976
0.60974
0.609718
0.609695
0.609671
0.609645
0.609619
0.609592
0.609564
0.609536
0.609507
0.609477
0.609446
0.609413
0.60938
0.609345
0.609309
0.609272
0.609233
0.609193
0.609153
0.609112
0.60907
0.609027
0.608983
0.608938
0.608892
0.608844
0.608796
0.608746
0.608695
0.608642
0.608589
0.608535
0.608479
0.608423
0.608365
0.608306
0.608245
0.608183
0.608119
0.608055
0.607988
0.60792
0.607851
0.60778
0.607707
0.607632
0.607556
0.607478
0.607397
0.607315
0.607231
0.607144
0.607056
0.606965
0.606871
0.606775
0.606676
0.606574
0.606469
0.606362
0.60625
0.606136
0.606018
0.605895
0.605769
0.605639
0.605504
0.605365
0.605221
0.605072
0.604917
0.604756
0.604589
0.604415
0.604234
0.604046
0.603848
0.603638
0.603416
0.603184
0.60294
0.60267
0.60236
0.602025
0.601708
0.60133
0.600836
0.600232
0.599275
0.595821
0.595782
0.593942
0.577246
0.153212
0.0483391
0.0243799
0.0158672
0.0119704
0.00976216
0.00828905
0.00721793
0.00639213
0.00572579
0.00516977
0.00469405
0.00427914
0.00391185
0.00358291
0.00328562
0.003015
0.00276724
0.00253937
0.00232902
0.00213425
0.00195348
0.00178538
0.00162886
0.00148303
0.00134724
0.00122103
0.00110413
0.000996384
0.000897673
0.000807801
0.000726431
0.000653054
0.000586975
0.000527343
0.000473173
0.000423371
0.000376757
0.000332087
0.000288173
0.00024419
0.000200213
0.000157774
0.000119647
8.85168e-05
6.54066e-05
4.9349e-05
3.84067e-05
3.07709e-05
2.51994e-05
2.09976e-05
1.7732e-05
1.5062e-05
1.27753e-05
1.09034e-05
9.41896e-06
8.09007e-06
6.89762e-06
5.95816e-06
5.16711e-06
4.43097e-06
3.81182e-06
3.29508e-06
2.8235e-06
2.4263e-06
2.09795e-06
1.78433e-06
1.52064e-06
1.31494e-06
1.12055e-06
9.48838e-07
8.09061e-07
6.85259e-07
5.82272e-07
4.92691e-07
4.09614e-07
3.44876e-07
2.89417e-07
2.38114e-07
1.98608e-07
1.63468e-07
1.33983e-07
1.09408e-07
8.93048e-08
7.21355e-08
5.75969e-08
4.59498e-08
3.59755e-08
2.77364e-08
2.56436e-08
3.28586e-08
3.6787e-08
2.45413e-13
1.38801e-13
1.24125e-13
9.87338e-14
8.4616e-14
5.78036e-14
4.5504e-14
3.52e-14
3.12469e-14
2.72825e-14
2.36844e-14
1.65624e-14
1.0845e-14
8.5911e-15
7.55188e-15
6.65447e-15
5.15979e-15
3.18513e-15
2.25409e-15
1.86998e-15
1.62233e-15
1.25047e-15
7.39417e-16
5.03167e-16
4.06197e-16
3.42098e-16
2.45037e-16
1.38469e-16
9.7647e-17
7.89385e-17
6.30613e-17
3.94612e-17
2.38863e-17
1.76957e-17
1.30238e-17
6.11713e-18
2.66597e-18
1.30343e-18
5.78991e-19
2.40195e-19
1.07209e-19
4.92192e-20
2.24788e-20
1.01024e-20
4.44172e-21
1.90152e-21
7.895e-22
3.16789e-22
1.2244e-22
4.54384e-23
1.61386e-23
5.46761e-24
1.76061e-24
5.36738e-25
1.54239e-25
4.15724e-26
1.04497e-26
2.43324e-27
5.20692e-28
1.01415e-28
1.77639e-29
2.75582e-30
3.71052e-31
4.21546e-32
3.87446e-33
2.68648e-34
1.22126e-35
2.30403e-37
1.31175e-39
2.8038e-41
2.96996e-43
4.06846e-54
2.81223e-65
1.44933e-76
5.46681e-88
1.84067e-99
5.7276e-111
2.7054e-122
3.32254e-130
7.0239e-141
1.14342e-148
2.36274e-159
3.93332e-167
1.01309e-177
1.3527e-185
4.60547e-196
4.65528e-204
3.13272e-214
1.61398e-222
2.08423e-232
5.66249e-241
1.06074e-250
2.01024e-259
5.03709e-269
7.23113e-278
2.22846e-287
2.63438e-296
9.55435e-306
9.71443e-315
3.50787e-321
6.08689e-321
8.5424e-321
0
0
0
0
0
0
0
0
0
0
0
0
0
0
0
0
)
;

boundaryField
{
    inandouthalf11
    {
        type            cyclic;
    }
    inandouthalf12
    {
        type            cyclic;
    }
    inandouthalf21
    {
        type            cyclic;
    }
    inandouthalf22
    {
        type            cyclic;
    }
    inandouthalf31
    {
        type            cyclic;
    }
    inandouthalf32
    {
        type            cyclic;
    }
    inandouthalf41
    {
        type            cyclic;
    }
    inandouthalf42
    {
        type            cyclic;
    }
    top
    {
        type            symmetryPlane;
    }
    walls
    {
        type            zeroGradient;
    }
    frontAndBackPlanes
    {
        type            empty;
    }
}


// ************************************************************************* //
