/*--------------------------------*- C++ -*----------------------------------*\
| =========                 |                                                 |
| \\      /  F ield         | OpenFOAM: The Open Source CFD Toolbox           |
|  \\    /   O peration     | Version:  2.4.x                                 |
|   \\  /    A nd           | Web:      www.OpenFOAM.org                      |
|    \\/     M anipulation  |                                                 |
\*---------------------------------------------------------------------------*/
FoamFile
{
    version     2.0;
    format      ascii;
    class       volScalarField;
    location    "3.05";
    object      ddt0(k);
}
// * * * * * * * * * * * * * * * * * * * * * * * * * * * * * * * * * * * * * //

dimensions      [0 2 -3 0 0 0 0];

internalField   nonuniform List<scalar> 
360
(
0
0
0
0
0
0
0
0
0
0
0
0
0
0
0
0
0
0
0
0
0
0
0
0
0
0
0
0
0
0
0
0
0
0
0
0
0
0
0
0
0
0
0
0
0
0
0
0
0
0
0
0
0
0
0
0
0
0
0
0
0
0
0
0
0
0
0
0
0
0
0
0
0
0
0
0
0
0
0
0
0
0
0
0
0
0
0
0
0
0
0
0
0
0
0
0
0
0
0
0
0
0
0
0
0
0
0
0
0
0
0
0
0
0
0
0
0
0
0
0
0
0
0
0
0
0
0
0
0
1.04265e-19
4.29844e-19
1.27679e-18
1.4906e-18
-1.44648e-17
-1.48327e-16
-9.03438e-16
-4.31231e-15
-1.71801e-14
-5.84002e-14
-1.71458e-13
-4.38673e-13
-9.99198e-13
-2.33235e-12
-7.74009e-12
-4.80608e-11
-4.92631e-10
-6.55883e-09
-8.74701e-08
-5.86198e-07
4.88954e-05
0.00265833
0.003562
0.00039919
-0.00172232
-0.00328883
-0.00455529
-0.00560376
-0.00647219
-0.00718739
-0.00777117
-0.00824179
-0.0086146
-0.00890248
-0.00911624
-0.00926489
-0.00935594
-0.00939565
-0.00938927
-0.00934119
-0.00925509
-0.00913407
-0.00898076
-0.00879738
-0.00858584
-0.00834777
-0.00808457
-0.00779745
-0.00748746
-0.00715549
-0.00680232
-0.00642863
-0.00603501
-0.00562203
-0.00519022
-0.0047401
-0.00427224
-0.00378722
-0.00328564
-0.00276818
-0.0022356
-0.00168874
-0.00112852
-0.000555961
2.78566e-05
0.00062177
0.00122446
0.00183438
0.00244971
0.00306829
0.0036876
0.00430473
0.00492246
0.00554259
0.00615938
0.00676529
0.00735022
0.0079006
0.00839779
0.00881565
0.00911658
0.00924432
0.00910386
0.00847541
0.00695964
0.00197395
7.96252e-05
1.16528e-06
1.5487e-08
1.96171e-10
2.36867e-12
2.7258e-14
2.9895e-16
3.11607e-18
2.10981e-20
0
0
0
0
0
0
0
0
0
0
0
0
0
0
0
0
0
0
0
0
0
0
0
0
0
0
0
0
0
0
0
0
0
0
0
0
0
0
0
0
0
0
0
0
0
0
0
0
0
0
0
0
0
0
0
0
0
0
0
0
0
0
0
0
0
0
0
0
0
0
0
0
0
0
0
0
0
0
0
0
0
0
0
0
0
0
0
0
0
0
0
0
0
0
0
0
0
0
0
0
0
0
0
0
0
0
0
0
0
0
0
0
0
0
0
0
0
0
0
0
0
0
0
0
0
0
0
0
0
0
0
0
0
0
0
0
)
;

boundaryField
{
    inandouthalf11
    {
        type            cyclic;
    }
    inandouthalf12
    {
        type            cyclic;
    }
    inandouthalf21
    {
        type            cyclic;
    }
    inandouthalf22
    {
        type            cyclic;
    }
    inandouthalf31
    {
        type            cyclic;
    }
    inandouthalf32
    {
        type            cyclic;
    }
    inandouthalf41
    {
        type            cyclic;
    }
    inandouthalf42
    {
        type            cyclic;
    }
    top
    {
        type            symmetryPlane;
    }
    walls
    {
        type            calculated;
        value           uniform 0;
    }
    frontAndBackPlanes
    {
        type            empty;
    }
}


// ************************************************************************* //
