/*--------------------------------*- C++ -*----------------------------------*\
| =========                 |                                                 |
| \\      /  F ield         | OpenFOAM: The Open Source CFD Toolbox           |
|  \\    /   O peration     | Version:  2.4.x                                 |
|   \\  /    A nd           | Web:      www.OpenFOAM.org                      |
|    \\/     M anipulation  |                                                 |
\*---------------------------------------------------------------------------*/
FoamFile
{
    version     2.0;
    format      ascii;
    class       surfaceScalarField;
    location    "3.05";
    object      ddt0(phib);
}
// * * * * * * * * * * * * * * * * * * * * * * * * * * * * * * * * * * * * * //

dimensions      [0 3 -2 0 0 0 0];

internalField   nonuniform List<scalar> 
359
(
4.64361e-12
1.42147e-11
2.2662e-11
2.84829e-11
3.224e-11
3.41313e-11
3.36593e-11
2.99584e-11
2.22608e-11
1.02376e-11
-5.6265e-12
-2.31962e-11
-3.76463e-11
-4.21548e-11
-3.2814e-11
-1.3878e-11
5.08838e-12
1.78293e-11
2.43106e-11
2.70829e-11
2.81527e-11
2.85039e-11
2.85282e-11
2.83751e-11
2.81117e-11
2.77839e-11
2.74344e-11
2.70997e-11
2.68027e-11
2.65495e-11
2.63329e-11
2.61391e-11
2.59548e-11
2.57695e-11
2.55772e-11
2.53753e-11
2.51634e-11
2.49429e-11
2.47155e-11
2.44835e-11
2.42482e-11
2.40109e-11
2.37721e-11
2.35311e-11
2.32878e-11
2.30413e-11
2.27909e-11
2.25358e-11
2.22747e-11
2.20063e-11
2.17302e-11
2.14453e-11
2.11511e-11
2.08465e-11
2.0531e-11
2.02032e-11
1.98626e-11
1.95083e-11
1.91399e-11
1.87576e-11
1.83613e-11
1.79524e-11
1.7532e-11
1.71018e-11
1.6663e-11
1.62162e-11
1.57603e-11
1.52935e-11
1.48128e-11
1.43147e-11
1.37946e-11
1.32489e-11
1.26755e-11
1.20727e-11
1.14413e-11
1.07832e-11
1.01025e-11
9.4032e-12
8.68875e-12
7.96167e-12
7.22309e-12
6.4724e-12
5.70801e-12
4.92777e-12
4.12959e-12
3.31205e-12
2.47466e-12
1.61813e-12
7.44072e-13
-1.45519e-13
-1.04837e-12
-1.96258e-12
-2.88665e-12
-3.81963e-12
-4.76111e-12
-5.71085e-12
-6.66884e-12
-7.63508e-12
-8.6096e-12
-9.59245e-12
-1.05837e-11
-1.15833e-11
-1.25914e-11
-1.36082e-11
-1.46336e-11
-1.56676e-11
-1.67102e-11
-1.77607e-11
-1.88186e-11
-1.98829e-11
-2.0952e-11
-2.20243e-11
-2.30973e-11
-2.41683e-11
-2.52342e-11
-2.62915e-11
-2.73368e-11
-2.83669e-11
-2.9379e-11
-3.03711e-11
-3.13426e-11
-3.22944e-11
-3.32297e-11
-3.41545e-11
-3.50783e-11
-3.60156e-11
-3.69864e-11
-3.80173e-11
-3.91409e-11
-4.03939e-11
-4.18126e-11
-4.34276e-11
-4.52585e-11
-4.73095e-11
-4.95585e-11
-5.19431e-11
-5.43626e-11
-5.67082e-11
-5.88781e-11
-6.0737e-11
-6.20976e-11
-6.28432e-11
-6.31023e-11
-6.30752e-11
-6.2913e-11
-6.15495e-11
-1.3748e-10
-3.51988e-10
-6.29057e-10
-3.68362e-08
-1.40798e-08
-7.24953e-09
-5.30176e-09
-4.58674e-09
-3.98775e-09
-3.48597e-09
-3.06307e-09
-2.69697e-09
-2.37464e-09
-2.08917e-09
-1.83555e-09
-1.60952e-09
-1.4079e-09
-1.22795e-09
-1.06757e-09
-9.24637e-10
-7.97489e-10
-6.84533e-10
-5.84426e-10
-4.9593e-10
-4.1795e-10
-3.49488e-10
-2.89641e-10
-2.3759e-10
-1.92589e-10
-1.53958e-10
-1.21062e-10
-9.32964e-11
-7.00635e-11
-5.07706e-11
-3.48424e-11
-2.17446e-11
-1.10104e-11
-2.25848e-12
4.80212e-12
1.03803e-11
1.46133e-11
1.7573e-11
1.92695e-11
1.96706e-11
1.87694e-11
1.67105e-11
1.38985e-11
1.09268e-11
8.317e-12
6.30607e-12
4.86307e-12
3.8419e-12
3.1018e-12
2.54847e-12
2.12566e-12
1.78656e-12
1.50402e-12
1.26953e-12
1.08158e-12
9.23574e-13
7.83433e-13
6.67368e-13
5.73565e-13
4.90757e-13
4.18644e-13
3.59087e-13
3.07509e-13
2.63033e-13
2.26236e-13
1.93385e-13
1.64264e-13
1.40928e-13
1.20621e-13
1.02031e-13
8.6472e-14
7.33164e-14
6.19913e-14
5.22992e-14
4.35722e-14
3.62872e-14
3.03484e-14
2.49763e-14
2.05091e-14
1.68562e-14
1.36358e-14
1.09985e-14
8.81897e-15
6.9879e-15
5.418e-15
4.14266e-15
2.99938e-15
2.23962e-15
2.32791e-15
3.1517e-15
1.5214e-15
-7.72544e-15
-6.79814e-16
-6.9082e-16
-7.11529e-16
-7.11914e-16
-7.35296e-16
-7.32606e-16
-7.32119e-16
-7.27156e-16
-7.29585e-16
-7.1217e-16
-6.97184e-16
-6.80934e-16
-6.78341e-16
-6.53986e-16
-6.51251e-16
-6.28986e-16
-6.2449e-16
-5.94953e-16
-5.9432e-16
-5.70871e-16
-5.51329e-16
-5.3008e-16
-5.05721e-16
-4.78884e-16
-4.6284e-16
-4.33837e-16
-4.00268e-16
-3.81253e-16
-3.57065e-16
-3.39901e-16
-3.13162e-16
-2.99754e-16
-2.7665e-16
-2.66204e-16
-2.49907e-16
-2.29354e-16
-2.19116e-16
-2.0086e-16
-1.7903e-16
-1.56862e-16
-1.42775e-16
-1.30214e-16
-1.11056e-16
-9.47786e-17
-7.28223e-17
-5.12814e-17
-3.13998e-17
-6.24914e-18
1.20034e-17
4.83001e-17
7.79911e-17
1.31854e-16
1.92653e-16
2.92863e-16
3.89237e-16
5.27723e-16
6.75285e-16
8.34448e-16
1.00354e-15
1.17045e-15
1.32541e-15
1.47402e-15
1.68149e-15
1.85041e-15
2.02111e-15
2.12775e-15
2.31075e-15
2.38386e-15
2.46321e-15
2.46714e-15
2.7143e-15
2.86553e-15
3.02248e-15
3.03321e-15
3.18047e-15
3.14607e-15
3.12231e-15
2.92287e-15
3.12853e-15
3.1112e-15
3.11104e-15
2.81917e-15
2.93086e-15
2.6917e-15
2.67567e-15
2.36729e-15
5.47158e-15
7.84617e-15
1.04082e-14
1.14938e-14
1.41306e-14
1.45126e-14
1.49875e-14
1.29204e-14
1.55455e-14
1.47869e-14
1.40247e-14
8.96885e-15
7.19989e-15
6.13072e-16
-5.95579e-15
-1.68101e-14
-2.14087e-14
-3.06813e-14
-4.00667e-14
-5.47272e-14
-6.69682e-14
-8.2585e-14
-9.94355e-14
-1.20804e-13
-1.4527e-13
-1.6556e-13
-1.86654e-13
-2.03414e-13
-2.12866e-13
-2.38835e-13
-3.00402e-13
)
;

boundaryField
{
    inandouthalf11
    {
        type            cyclic;
        value           nonuniform List<scalar> 
100
(
-8.00956e-11
-8.06219e-11
-8.03379e-11
-7.98611e-11
-7.94791e-11
-7.92778e-11
-7.92597e-11
-7.94078e-11
-7.9716e-11
-8.02042e-11
-8.08789e-11
-8.16831e-11
-8.24299e-11
-8.2766e-11
-8.23573e-11
-8.12499e-11
-7.99499e-11
-7.89632e-11
-7.84139e-11
-7.8165e-11
-7.80629e-11
-7.80249e-11
-7.80146e-11
-7.80186e-11
-7.80311e-11
-7.80493e-11
-7.80701e-11
-7.80917e-11
-7.81111e-11
-7.81274e-11
-7.81408e-11
-7.81528e-11
-7.81632e-11
-7.81747e-11
-7.81862e-11
-7.81991e-11
-7.82129e-11
-7.82282e-11
-7.8245e-11
-7.82615e-11
-7.82798e-11
-7.82983e-11
-7.8317e-11
-7.83372e-11
-7.83576e-11
-7.83789e-11
-7.84011e-11
-7.84237e-11
-7.8448e-11
-7.84741e-11
-7.85008e-11
-7.85293e-11
-7.8559e-11
-7.85907e-11
-7.86236e-11
-7.8659e-11
-7.86956e-11
-7.87346e-11
-7.87753e-11
-7.88174e-11
-7.8862e-11
-7.89074e-11
-7.89546e-11
-7.90024e-11
-7.90513e-11
-7.9101e-11
-7.91522e-11
-7.92051e-11
-7.926e-11
-7.93171e-11
-7.93774e-11
-7.9441e-11
-7.9507e-11
-7.95766e-11
-7.96485e-11
-7.97231e-11
-7.97992e-11
-7.98768e-11
-7.99557e-11
-8.00359e-11
-8.01173e-11
-8.02002e-11
-8.02848e-11
-8.03714e-11
-8.04599e-11
-8.05505e-11
-8.06429e-11
-8.07371e-11
-8.08328e-11
-8.09298e-11
-8.1028e-11
-8.11273e-11
-8.12276e-11
-8.1329e-11
-8.14315e-11
-8.1535e-11
-8.16395e-11
-8.1745e-11
-8.18514e-11
-8.19589e-11
)
;
    }
    inandouthalf12
    {
        type            cyclic;
        value           nonuniform List<scalar> 
100
(
8.00956e-11
8.06219e-11
8.03379e-11
7.98611e-11
7.94791e-11
7.92778e-11
7.92597e-11
7.94078e-11
7.9716e-11
8.02042e-11
8.08789e-11
8.16831e-11
8.24299e-11
8.2766e-11
8.23573e-11
8.12499e-11
7.99499e-11
7.89632e-11
7.84139e-11
7.8165e-11
7.80629e-11
7.80249e-11
7.80146e-11
7.80186e-11
7.80311e-11
7.80493e-11
7.80701e-11
7.80917e-11
7.81111e-11
7.81274e-11
7.81408e-11
7.81528e-11
7.81632e-11
7.81747e-11
7.81862e-11
7.81991e-11
7.82129e-11
7.82282e-11
7.8245e-11
7.82615e-11
7.82798e-11
7.82983e-11
7.8317e-11
7.83372e-11
7.83576e-11
7.83789e-11
7.84011e-11
7.84237e-11
7.8448e-11
7.84741e-11
7.85008e-11
7.85293e-11
7.8559e-11
7.85907e-11
7.86236e-11
7.8659e-11
7.86956e-11
7.87346e-11
7.87753e-11
7.88174e-11
7.8862e-11
7.89074e-11
7.89546e-11
7.90024e-11
7.90513e-11
7.9101e-11
7.91522e-11
7.92051e-11
7.926e-11
7.93171e-11
7.93774e-11
7.9441e-11
7.9507e-11
7.95766e-11
7.96485e-11
7.97231e-11
7.97992e-11
7.98768e-11
7.99557e-11
8.00359e-11
8.01173e-11
8.02002e-11
8.02848e-11
8.03714e-11
8.04599e-11
8.05505e-11
8.06429e-11
8.07371e-11
8.08328e-11
8.09298e-11
8.1028e-11
8.11273e-11
8.12276e-11
8.1329e-11
8.14315e-11
8.1535e-11
8.16395e-11
8.1745e-11
8.18514e-11
8.19589e-11
)
;
    }
    inandouthalf21
    {
        type            cyclic;
        value           nonuniform List<scalar> 
100
(
-8.20672e-11
-8.21765e-11
-8.22868e-11
-8.23981e-11
-8.25103e-11
-8.26236e-11
-8.27379e-11
-8.28532e-11
-8.29694e-11
-8.30867e-11
-8.32049e-11
-8.33239e-11
-8.34437e-11
-8.35641e-11
-8.3685e-11
-8.38061e-11
-8.39273e-11
-8.40484e-11
-8.4169e-11
-8.42891e-11
-8.44083e-11
-8.45266e-11
-8.46436e-11
-8.47595e-11
-8.4874e-11
-8.49875e-11
-8.51003e-11
-8.52129e-11
-8.53261e-11
-8.54406e-11
-8.55566e-11
-8.56742e-11
-8.57935e-11
-8.59152e-11
-8.60382e-11
-8.61571e-11
-8.62644e-11
-8.636e-11
-8.64548e-11
-8.65614e-11
-8.66749e-11
-8.67794e-11
-8.69634e-11
-8.72673e-11
-8.7666e-11
-8.80456e-11
-1.02052e-10
-1.20139e-10
-7.09344e-11
3.43282e-08
2.47792e-07
6.00236e-07
7.44069e-07
8.14948e-07
8.59995e-07
8.94663e-07
9.24021e-07
9.50035e-07
9.73644e-07
9.95372e-07
1.01556e-06
1.03443e-06
1.05219e-06
1.06897e-06
1.08488e-06
1.10003e-06
1.11451e-06
1.12837e-06
1.14168e-06
1.1545e-06
1.16686e-06
1.1788e-06
1.19037e-06
1.20158e-06
1.21247e-06
1.22306e-06
1.23336e-06
1.2434e-06
1.25319e-06
1.26274e-06
1.27207e-06
1.28118e-06
1.29009e-06
1.2988e-06
1.30731e-06
1.31565e-06
1.32379e-06
1.33176e-06
1.33956e-06
1.34717e-06
1.35461e-06
1.36186e-06
1.36893e-06
1.37579e-06
1.38245e-06
1.38889e-06
1.39509e-06
1.40103e-06
1.4067e-06
1.41208e-06
)
;
    }
    inandouthalf22
    {
        type            cyclic;
        value           nonuniform List<scalar> 
100
(
8.20672e-11
8.21765e-11
8.22868e-11
8.23981e-11
8.25103e-11
8.26236e-11
8.27379e-11
8.28532e-11
8.29694e-11
8.30867e-11
8.32049e-11
8.33239e-11
8.34437e-11
8.35641e-11
8.3685e-11
8.38061e-11
8.39273e-11
8.40484e-11
8.4169e-11
8.42891e-11
8.44083e-11
8.45266e-11
8.46436e-11
8.47595e-11
8.4874e-11
8.49875e-11
8.51003e-11
8.52129e-11
8.53261e-11
8.54406e-11
8.55566e-11
8.56742e-11
8.57935e-11
8.59152e-11
8.60382e-11
8.61571e-11
8.62644e-11
8.636e-11
8.64548e-11
8.65614e-11
8.66749e-11
8.67794e-11
8.69634e-11
8.72673e-11
8.7666e-11
8.80456e-11
1.02052e-10
1.20139e-10
7.09344e-11
-3.43282e-08
-2.47792e-07
-6.00236e-07
-7.44069e-07
-8.14948e-07
-8.59995e-07
-8.94663e-07
-9.24021e-07
-9.50035e-07
-9.73644e-07
-9.95372e-07
-1.01556e-06
-1.03443e-06
-1.05219e-06
-1.06897e-06
-1.08488e-06
-1.10003e-06
-1.11451e-06
-1.12837e-06
-1.14168e-06
-1.1545e-06
-1.16686e-06
-1.1788e-06
-1.19037e-06
-1.20158e-06
-1.21247e-06
-1.22306e-06
-1.23336e-06
-1.2434e-06
-1.25319e-06
-1.26274e-06
-1.27207e-06
-1.28118e-06
-1.29009e-06
-1.2988e-06
-1.30731e-06
-1.31565e-06
-1.32379e-06
-1.33176e-06
-1.33956e-06
-1.34717e-06
-1.35461e-06
-1.36186e-06
-1.36893e-06
-1.37579e-06
-1.38245e-06
-1.38889e-06
-1.39509e-06
-1.40103e-06
-1.4067e-06
-1.41208e-06
)
;
    }
    inandouthalf31
    {
        type            cyclic;
        value           nonuniform List<scalar> 
110
(
1.41714e-06
1.45074e-06
1.48481e-06
1.51924e-06
1.55394e-06
1.58875e-06
1.62347e-06
1.65782e-06
1.69139e-06
1.72359e-06
1.75351e-06
1.77957e-06
1.79793e-06
1.80249e-06
1.73259e-06
1.7219e-06
1.75444e-06
1.78997e-06
1.82628e-06
1.86332e-06
1.90113e-06
1.9397e-06
1.97905e-06
2.01921e-06
2.06018e-06
2.10199e-06
2.14465e-06
2.18817e-06
2.23258e-06
2.27789e-06
2.32412e-06
2.37129e-06
2.41942e-06
2.46852e-06
2.51862e-06
2.56974e-06
2.6219e-06
2.67512e-06
2.72941e-06
2.78481e-06
2.84134e-06
2.89901e-06
2.95785e-06
3.01788e-06
3.07914e-06
3.14164e-06
3.2054e-06
3.27046e-06
3.33685e-06
3.40457e-06
3.47368e-06
3.54418e-06
3.61612e-06
3.68952e-06
3.76441e-06
3.84081e-06
3.91877e-06
3.99831e-06
4.07947e-06
4.16227e-06
4.24675e-06
4.33295e-06
4.4209e-06
4.51063e-06
4.60219e-06
4.6956e-06
4.79091e-06
4.88815e-06
4.98736e-06
5.08859e-06
5.19188e-06
5.29726e-06
5.40478e-06
5.51448e-06
5.62641e-06
5.74061e-06
5.85713e-06
5.97602e-06
6.09731e-06
6.22107e-06
6.34735e-06
6.47618e-06
6.60763e-06
6.74175e-06
6.87859e-06
7.0182e-06
7.16065e-06
7.306e-06
7.45429e-06
7.60559e-06
7.75996e-06
7.91747e-06
8.07817e-06
8.24214e-06
8.40943e-06
8.58012e-06
8.75427e-06
8.93196e-06
9.11326e-06
9.29823e-06
9.48696e-06
9.67952e-06
9.87599e-06
1.00764e-05
1.0281e-05
1.04896e-05
1.07026e-05
1.09198e-05
1.11414e-05
1.13676e-05
)
;
    }
    inandouthalf32
    {
        type            cyclic;
        value           nonuniform List<scalar> 
110
(
-1.41714e-06
-1.45074e-06
-1.48481e-06
-1.51924e-06
-1.55394e-06
-1.58875e-06
-1.62347e-06
-1.65782e-06
-1.69139e-06
-1.72359e-06
-1.75351e-06
-1.77957e-06
-1.79793e-06
-1.80249e-06
-1.73259e-06
-1.7219e-06
-1.75444e-06
-1.78997e-06
-1.82628e-06
-1.86332e-06
-1.90113e-06
-1.9397e-06
-1.97905e-06
-2.01921e-06
-2.06018e-06
-2.10199e-06
-2.14465e-06
-2.18817e-06
-2.23258e-06
-2.27789e-06
-2.32412e-06
-2.37129e-06
-2.41942e-06
-2.46852e-06
-2.51862e-06
-2.56974e-06
-2.6219e-06
-2.67512e-06
-2.72941e-06
-2.78481e-06
-2.84134e-06
-2.89901e-06
-2.95785e-06
-3.01788e-06
-3.07914e-06
-3.14164e-06
-3.2054e-06
-3.27046e-06
-3.33685e-06
-3.40457e-06
-3.47368e-06
-3.54418e-06
-3.61612e-06
-3.68952e-06
-3.76441e-06
-3.84081e-06
-3.91877e-06
-3.99831e-06
-4.07947e-06
-4.16227e-06
-4.24675e-06
-4.33295e-06
-4.4209e-06
-4.51063e-06
-4.60219e-06
-4.6956e-06
-4.79091e-06
-4.88815e-06
-4.98736e-06
-5.08859e-06
-5.19188e-06
-5.29726e-06
-5.40478e-06
-5.51448e-06
-5.62641e-06
-5.74061e-06
-5.85713e-06
-5.97602e-06
-6.09731e-06
-6.22107e-06
-6.34735e-06
-6.47618e-06
-6.60763e-06
-6.74175e-06
-6.87859e-06
-7.0182e-06
-7.16065e-06
-7.306e-06
-7.45429e-06
-7.60559e-06
-7.75996e-06
-7.91747e-06
-8.07817e-06
-8.24214e-06
-8.40943e-06
-8.58012e-06
-8.75427e-06
-8.93196e-06
-9.11326e-06
-9.29823e-06
-9.48696e-06
-9.67952e-06
-9.87599e-06
-1.00764e-05
-1.0281e-05
-1.04896e-05
-1.07026e-05
-1.09198e-05
-1.11414e-05
-1.13676e-05
)
;
    }
    inandouthalf41
    {
        type            cyclic;
        value           nonuniform List<scalar> 
50
(
1.01751e-05
1.01751e-05
1.01751e-05
1.01751e-05
1.01751e-05
1.01751e-05
1.01751e-05
1.01751e-05
1.01751e-05
1.01751e-05
1.01751e-05
1.01751e-05
1.01751e-05
1.01751e-05
1.01751e-05
1.01751e-05
1.01751e-05
1.01751e-05
1.01751e-05
1.01751e-05
1.01751e-05
1.01751e-05
1.01751e-05
1.01751e-05
1.01751e-05
1.01751e-05
1.01751e-05
1.01751e-05
1.01751e-05
1.01751e-05
1.01751e-05
1.01751e-05
1.01751e-05
1.01751e-05
1.01751e-05
1.01751e-05
1.01751e-05
1.01751e-05
1.01751e-05
1.01751e-05
1.01751e-05
1.01751e-05
1.01751e-05
1.01751e-05
1.01751e-05
1.01751e-05
1.01751e-05
1.01751e-05
1.01751e-05
1.01751e-05
)
;
    }
    inandouthalf42
    {
        type            cyclic;
        value           nonuniform List<scalar> 
50
(
-1.01751e-05
-1.01751e-05
-1.01751e-05
-1.01751e-05
-1.01751e-05
-1.01751e-05
-1.01751e-05
-1.01751e-05
-1.01751e-05
-1.01751e-05
-1.01751e-05
-1.01751e-05
-1.01751e-05
-1.01751e-05
-1.01751e-05
-1.01751e-05
-1.01751e-05
-1.01751e-05
-1.01751e-05
-1.01751e-05
-1.01751e-05
-1.01751e-05
-1.01751e-05
-1.01751e-05
-1.01751e-05
-1.01751e-05
-1.01751e-05
-1.01751e-05
-1.01751e-05
-1.01751e-05
-1.01751e-05
-1.01751e-05
-1.01751e-05
-1.01751e-05
-1.01751e-05
-1.01751e-05
-1.01751e-05
-1.01751e-05
-1.01751e-05
-1.01751e-05
-1.01751e-05
-1.01751e-05
-1.01751e-05
-1.01751e-05
-1.01751e-05
-1.01751e-05
-1.01751e-05
-1.01751e-05
-1.01751e-05
-1.01751e-05
)
;
    }
    top
    {
        type            symmetryPlane;
        value           uniform 0;
    }
    walls
    {
        type            calculated;
        value           uniform 0;
    }
    frontAndBackPlanes
    {
        type            empty;
        value           nonuniform 0();
    }
}


// ************************************************************************* //
