/*--------------------------------*- C++ -*----------------------------------*\
| =========                 |                                                 |
| \\      /  F ield         | OpenFOAM: The Open Source CFD Toolbox           |
|  \\    /   O peration     | Version:  2.4.x                                 |
|   \\  /    A nd           | Web:      www.OpenFOAM.org                      |
|    \\/     M anipulation  |                                                 |
\*---------------------------------------------------------------------------*/
FoamFile
{
    version     2.0;
    format      ascii;
    class       volScalarField;
    location    "3.05";
    object      ddt0(epsilon);
}
// * * * * * * * * * * * * * * * * * * * * * * * * * * * * * * * * * * * * * //

dimensions      [0 2 -4 0 0 0 0];

internalField   nonuniform List<scalar> 
360
(
0
0
0
0
0
0
0
0
0
0
0
0
0
0
0
0
0
0
0
0
0
0
0
0
0
0
0
0
0
0
0
0
0
0
0
0
0
0
0
0
0
0
0
0
0
0
0
0
0
0
0
0
0
0
0
0
0
0
0
0
0
0
0
0
0
0
0
0
0
0
0
0
0
0
0
0
0
0
0
0
0
0
0
0
0
0
0
0
0
0
0
0
0
0
0
0
0
0
0
0
0
0
0
0
0
0
0
0
0
0
0
0
0
0
0
0
0
0
0
0
0
0
0
0
0
0
0
0
0
8.85711e-20
3.42498e-19
8.07511e-19
-1.04437e-18
-2.80811e-17
-2.19359e-16
-1.25433e-15
-5.92364e-15
-2.3982e-14
-8.45606e-14
-2.62726e-13
-7.33788e-13
-1.96073e-12
-6.06096e-12
-2.90005e-11
-2.43416e-10
-3.04483e-09
-4.29202e-08
-3.35794e-07
2.55765e-05
0.00314202
0.149327
0.121108
0.0418158
0.00574936
-0.0140039
-0.0270999
-0.0366969
-0.044103
-0.0499662
-0.0546585
-0.0584188
-0.0614138
-0.0637663
-0.0655711
-0.0669026
-0.0678211
-0.0683759
-0.0686076
-0.0685502
-0.0682324
-0.0676785
-0.0669091
-0.0659421
-0.0647926
-0.063474
-0.0619978
-0.0603743
-0.0586123
-0.0567199
-0.0547045
-0.0525727
-0.0503307
-0.0479845
-0.0455396
-0.0430015
-0.0403756
-0.0376673
-0.034882
-0.0320255
-0.0291037
-0.0261231
-0.0230908
-0.0200148
-0.016904
-0.0137687
-0.0106204
-0.00747219
-0.00433862
-0.00123613
0.00181685
0.0047996
0.00771804
0.010569
0.0133116
0.015895
0.0182554
0.0203121
0.0219625
0.0230738
0.023473
0.0229344
0.0211557
0.0176018
0.0111984
0.00225551
7.64255e-05
1.11087e-06
1.48243e-08
1.88509e-10
2.2846e-12
2.63858e-14
2.90414e-16
3.02969e-18
1.11341e-20
0
0
0
0
0
0
0
0
0
0
0
0
0
0
0
0
0
0
0
0
0
0
0
0
0
0
0
0
0
0
0
0
0
0
0
0
0
0
0
0
0
0
0
0
0
0
0
0
0
0
0
0
0
0
0
0
0
0
0
0
0
0
0
0
0
0
0
0
0
0
0
0
0
0
0
0
0
0
0
0
0
0
0
0
0
0
0
0
0
0
0
0
0
0
0
0
0
0
0
0
0
0
0
0
0
0
0
0
0
0
0
0
0
0
0
0
0
0
0
0
0
0
0
0
0
0
0
0
0
0
0
0
0
0
0
0
)
;

boundaryField
{
    inandouthalf11
    {
        type            cyclic;
    }
    inandouthalf12
    {
        type            cyclic;
    }
    inandouthalf21
    {
        type            cyclic;
    }
    inandouthalf22
    {
        type            cyclic;
    }
    inandouthalf31
    {
        type            cyclic;
    }
    inandouthalf32
    {
        type            cyclic;
    }
    inandouthalf41
    {
        type            cyclic;
    }
    inandouthalf42
    {
        type            cyclic;
    }
    top
    {
        type            symmetryPlane;
    }
    walls
    {
        type            calculated;
        value           uniform 0;
    }
    frontAndBackPlanes
    {
        type            empty;
    }
}


// ************************************************************************* //
