/*--------------------------------*- C++ -*----------------------------------*\
| =========                 |                                                 |
| \\      /  F ield         | OpenFOAM: The Open Source CFD Toolbox           |
|  \\    /   O peration     | Version:  2.4.x                                 |
|   \\  /    A nd           | Web:      www.OpenFOAM.org                      |
|    \\/     M anipulation  |                                                 |
\*---------------------------------------------------------------------------*/
FoamFile
{
    version     2.0;
    format      ascii;
    class       volVectorField;
    location    "3.05";
    object      gradPs;
}
// * * * * * * * * * * * * * * * * * * * * * * * * * * * * * * * * * * * * * //

dimensions      [0 1 -2 0 0 0 0];

internalField   nonuniform List<vector> 
360
(
(0 3.77397e-18 0)
(0 5.55212e-18 0)
(0 7.44315e-19 0)
(0 -2.00402e-18 0)
(-1.45316e-32 -1.38698e-18 0)
(-1.45323e-32 -3.92724e-19 0)
(-2.90664e-32 3.71461e-19 0)
(0 9.23243e-19 0)
(-1.45349e-32 1.38543e-18 0)
(0 1.94672e-18 0)
(-2.90728e-32 2.61362e-18 0)
(0 2.82099e-18 0)
(-2.9077e-32 1.38331e-18 0)
(0 -2.1461e-18 0)
(0 -5.55899e-18 0)
(0 -5.9213e-18 0)
(0 -3.67081e-18 0)
(-1.45427e-32 -1.45391e-18 0)
(0 -4.07026e-19 0)
(0 -9.52922e-20 0)
(0 -2.41647e-20 0)
(-1.45431e-32 -1.03438e-20 0)
(0 -6.53613e-21 0)
(0 -5.46111e-21 0)
(0 -5.15548e-21 0)
(-1.45432e-32 -5.11272e-21 0)
(0 -6.92057e-21 0)
(0 -8.88275e-21 0)
(0 -9.2728e-21 0)
(0 -9.67296e-21 0)
(0 -1.16067e-20 0)
(0 -1.16555e-20 0)
(0 -1.32477e-20 0)
(0 -1.47492e-20 0)
(0 -1.45355e-20 0)
(1.4544e-32 -1.59857e-20 0)
(0 -1.74349e-20 0)
(0 -2.05865e-20 0)
(0 -2.0436e-20 0)
(0 -2.20341e-20 0)
(0 -2.5279e-20 0)
(0 -2.51178e-20 0)
(2.90901e-32 -2.82613e-20 0)
(0 -3.13271e-20 0)
(0 -3.26968e-20 0)
(0 -3.5699e-20 0)
(0 -3.68992e-20 0)
(0 -3.95925e-20 0)
(0 -4.54231e-20 0)
(0 -4.78488e-20 0)
(1.45471e-32 -5.02558e-20 0)
(0 -5.42088e-20 0)
(0 -5.79e-20 0)
(0 -6.12929e-20 0)
(0 -6.59385e-20 0)
(0 -7.01813e-20 0)
(0 -7.39956e-20 0)
(0 -7.88988e-20 0)
(0 -8.15555e-20 0)
(0 -8.64888e-20 0)
(0 -9.03845e-20 0)
(0 -9.31052e-20 0)
(0 -9.61974e-20 0)
(0 -9.81021e-20 0)
(0 -1.00435e-19 0)
(0 -1.03286e-19 0)
(0 -1.06971e-19 0)
(0 -1.10444e-19 0)
(0 -1.13662e-19 0)
(0 -1.18447e-19 0)
(0 -1.24023e-19 0)
(0 -1.26889e-19 0)
(0 -1.30476e-19 0)
(0 -1.34671e-19 0)
(0 -1.38014e-19 0)
(0 -1.40874e-19 0)
(0 -1.43226e-19 0)
(0 -1.46674e-19 0)
(0 -1.50315e-19 0)
(0 -1.5374e-19 0)
(0 -1.57537e-19 0)
(0 -1.61887e-19 0)
(0 -1.65999e-19 0)
(0 -1.70058e-19 0)
(0 -1.74018e-19 0)
(0 -1.77905e-19 0)
(0 -1.81672e-19 0)
(0 -1.85312e-19 0)
(0 -1.89215e-19 0)
(0 -1.93307e-19 0)
(0 -1.97511e-19 0)
(0 -2.01987e-19 0)
(0 -2.06681e-19 0)
(0 -2.11441e-19 0)
(0 -2.16289e-19 0)
(0 -2.21215e-19 0)
(0 -2.26202e-19 0)
(0 -2.3128e-19 0)
(0 -2.38335e-19 0)
(0 -1.75072e-16 0)
(0 -1.74971e-16 0)
(0 0 0)
(0 0 0)
(0 0 0)
(0 0 0)
(0 0 0)
(0 0 0)
(0 0 0)
(0 0 0)
(0 0 0)
(0 0 0)
(0 0 0)
(0 0 0)
(0 0 0)
(0 1.72949e-16 0)
(0 1.72794e-16 0)
(0 -3.73917e-19 0)
(0 -3.84581e-19 0)
(0 -3.95549e-19 0)
(0 -4.06801e-19 0)
(0 -4.18298e-19 0)
(0 -4.29982e-19 0)
(0 -4.41767e-19 0)
(0 -4.53553e-19 0)
(0 -4.65261e-19 0)
(0 -4.76886e-19 0)
(0 -4.88538e-19 0)
(0 -4.98969e-19 0)
(0 2.45083e-16 0)
(0 1.93161e-15 0)
(0 1.03558e-14 0)
(0 4.96885e-14 0)
(0 2.20562e-13 0)
(0 9.02483e-13 0)
(0 3.37801e-12 0)
(0 1.14443e-11 0)
(0 3.46743e-11 0)
(0 9.30721e-11 0)
(0 2.20338e-10 0)
(0 4.57929e-10 0)
(0 8.47362e-10 0)
(0 1.8132e-09 0)
(0 7.83622e-09 0)
(0 6.65695e-08 0)
(0 8.43167e-07 0)
(0 1.49443e-05 0)
(0 0.000596409 0)
(0 0.0398977 0)
(0 0.875367 0)
(0 0.142772 0)
(0 -3.07872 0)
(0 -1.58149 0)
(0 -1.05141 0)
(0 -0.617782 0)
(0 -0.38334 0)
(0 -0.275049 0)
(0 -0.230453 0)
(0 -0.211544 0)
(0 -0.208616 0)
(0 -0.217084 0)
(0 -0.233273 0)
(0 -0.254888 0)
(0 -0.280483 0)
(0 -0.309036 0)
(0 -0.339823 0)
(0 -0.372325 0)
(0 -0.406161 0)
(0 -0.441071 0)
(0 -0.476877 0)
(0 -0.513483 0)
(0 -0.550849 0)
(0 -0.588974 0)
(0 -0.627825 0)
(0 -0.667263 0)
(0 -0.706904 0)
(0 -0.746005 0)
(0 -0.783423 0)
(0 -0.817724 0)
(0 -0.847449 0)
(0 -0.871472 0)
(0 -0.889342 0)
(0 -0.901541 0)
(0 -0.909609 0)
(0 -0.916196 0)
(0 -0.925135 0)
(0 -0.941631 0)
(0 -0.972727 0)
(0 -1.028 0)
(0 -1.11988 0)
(0 -1.26211 0)
(0 -1.46392 0)
(0 -1.71746 0)
(0 -1.98268 0)
(0 -2.1829 0)
(0 -2.23059 0)
(0 -2.09025 0)
(0 -1.8215 0)
(0 -1.53067 0)
(0 -1.28732 0)
(0 -1.09917 0)
(0 -0.945785 0)
(0 -0.824261 0)
(-1.8694e-16 -0.741293 0)
(0 -0.666259 0)
(0 -0.571801 0)
(2.2715e-16 -0.501903 0)
(0 -0.467691 0)
(-1.25381e-16 -0.411959 0)
(0 -0.345236 0)
(1.34184e-16 -0.310351 0)
(0 -0.280308 0)
(0 -0.238598 0)
(0 -0.208715 0)
(0 -0.184013 0)
(0 -0.154051 0)
(0 -0.134952 0)
(0 -0.12 0)
(0 -0.0970824 0)
(0 -0.0813487 0)
(-1.87119e-17 -0.0725673 0)
(0 -0.0605346 0)
(-1.84928e-17 -0.050005 0)
(0 -0.0418719 0)
(-9.07254e-18 -0.0345251 0)
(0 -0.0297143 0)
(0 -0.0245753 0)
(0 -0.0193546 0)
(0 -0.0163596 0)
(4.24057e-18 -0.0133341 0)
(4.17231e-18 -0.0104923 0)
(0 -0.00860104 0)
(0 -0.00682417 0)
(0 -0.00534403 0)
(0 -0.00419255 0)
(0 -0.00331839 0)
(0 -0.00255361 0)
(0 -0.00194458 0)
(0 -0.00148692 0)
(0 -0.000948008 0)
(0 -0.000408136 0)
(0 -0.000822359 0)
(0 -0.000725471 0)
(0 0 0)
(0 0 0)
(0 0 0)
(0 0 0)
(0 0 0)
(0 0 0)
(0 0 0)
(0 0 0)
(0 0 0)
(0 0 0)
(0 0 0)
(0 0 0)
(0 0 0)
(0 0 0)
(0 0 0)
(0 0 0)
(0 0 0)
(0 0 0)
(0 0 0)
(0 0 0)
(0 0 0)
(0 0 0)
(0 0 0)
(0 0 0)
(0 0 0)
(0 0 0)
(0 0 0)
(0 0 0)
(0 0 0)
(0 0 0)
(0 0 0)
(0 0 0)
(0 0 0)
(0 0 0)
(0 0 0)
(0 0 0)
(0 0 0)
(0 0 0)
(0 0 0)
(0 0 0)
(0 0 0)
(0 0 0)
(0 0 0)
(0 0 0)
(0 0 0)
(0 0 0)
(0 0 0)
(0 0 0)
(0 0 0)
(0 0 0)
(0 0 0)
(0 0 0)
(0 0 0)
(0 0 0)
(0 0 0)
(0 0 0)
(0 0 0)
(0 0 0)
(0 0 0)
(0 0 0)
(0 0 0)
(0 0 0)
(0 0 0)
(0 0 0)
(0 0 0)
(0 0 0)
(0 0 0)
(0 0 0)
(0 0 0)
(0 0 0)
(0 0 0)
(0 0 0)
(0 0 0)
(0 0 0)
(0 0 0)
(0 0 0)
(0 0 0)
(0 0 0)
(0 0 0)
(0 0 0)
(0 0 0)
(0 0 0)
(0 0 0)
(0 0 0)
(0 0 0)
(0 0 0)
(0 0 0)
(0 0 0)
(0 0 0)
(0 0 0)
(0 0 0)
(0 0 0)
(0 0 0)
(0 0 0)
(0 0 0)
(0 0 0)
(0 0 0)
(0 0 0)
(0 0 0)
(0 0 0)
(0 0 0)
(0 0 0)
(0 0 0)
(0 0 0)
(0 0 0)
(0 0 0)
(0 0 0)
(0 0 0)
(0 0 0)
(0 0 0)
(0 0 0)
(0 0 0)
(0 0 0)
(0 0 0)
(0 0 0)
(0 0 0)
(0 0 0)
(0 0 0)
)
;

boundaryField
{
    inandouthalf11
    {
        type            cyclic;
    }
    inandouthalf12
    {
        type            cyclic;
    }
    inandouthalf21
    {
        type            cyclic;
    }
    inandouthalf22
    {
        type            cyclic;
    }
    inandouthalf31
    {
        type            cyclic;
    }
    inandouthalf32
    {
        type            cyclic;
    }
    inandouthalf41
    {
        type            cyclic;
    }
    inandouthalf42
    {
        type            cyclic;
    }
    top
    {
        type            symmetryPlane;
    }
    walls
    {
        type            calculated;
        value           uniform (0 0 0);
    }
    frontAndBackPlanes
    {
        type            empty;
    }
}


// ************************************************************************* //
