/*--------------------------------*- C++ -*----------------------------------*\
| =========                 |                                                 |
| \\      /  F ield         | OpenFOAM: The Open Source CFD Toolbox           |
|  \\    /   O peration     | Version:  2.4.x                                 |
|   \\  /    A nd           | Web:      www.OpenFOAM.org                      |
|    \\/     M anipulation  |                                                 |
\*---------------------------------------------------------------------------*/
FoamFile
{
    version     2.0;
    format      ascii;
    class       volScalarField;
    location    "3.05";
    object      pa;
}
// * * * * * * * * * * * * * * * * * * * * * * * * * * * * * * * * * * * * * //

dimensions      [1 -1 -2 0 0 0 0];

internalField   nonuniform List<scalar> 
360
(
2.8912e-16
2.95222e-16
2.98101e-16
2.96426e-16
2.94858e-16
2.94182e-16
2.94223e-16
2.94783e-16
2.95716e-16
2.97024e-16
2.98865e-16
3.01251e-16
3.03427e-16
3.03488e-16
2.99957e-16
2.945e-16
2.90384e-16
2.88566e-16
2.88033e-16
2.87908e-16
2.87879e-16
2.87869e-16
2.87863e-16
2.87858e-16
2.87854e-16
2.8785e-16
2.87846e-16
2.87839e-16
2.87831e-16
2.87824e-16
2.87816e-16
2.87805e-16
2.87797e-16
2.87783e-16
2.87773e-16
2.8776e-16
2.87747e-16
2.87732e-16
2.87714e-16
2.87699e-16
2.87678e-16
2.87658e-16
2.87638e-16
2.87612e-16
2.87587e-16
2.87559e-16
2.87529e-16
2.875e-16
2.87465e-16
2.87426e-16
2.87388e-16
2.87345e-16
2.873e-16
2.87251e-16
2.87201e-16
2.87145e-16
2.87088e-16
2.87025e-16
2.8696e-16
2.86894e-16
2.86821e-16
2.86748e-16
2.8667e-16
2.86592e-16
2.86512e-16
2.8643e-16
2.86345e-16
2.86257e-16
2.86167e-16
2.86074e-16
2.85975e-16
2.85873e-16
2.8577e-16
2.85663e-16
2.85553e-16
2.8544e-16
2.85326e-16
2.85209e-16
2.85089e-16
2.84966e-16
2.84841e-16
2.84712e-16
2.84579e-16
2.84444e-16
2.84305e-16
2.84163e-16
2.84018e-16
2.8387e-16
2.83719e-16
2.83565e-16
2.83408e-16
2.83247e-16
2.83082e-16
2.82913e-16
2.82741e-16
2.82565e-16
2.82385e-16
2.822e-16
2.82012e-16
2.81816e-16
0
0
0
0
0
0
0
0
0
0
0
0
0
0
0
2.78006e-16
2.7771e-16
2.77405e-16
2.77092e-16
2.7677e-16
2.76439e-16
2.76098e-16
2.75748e-16
2.75389e-16
2.75021e-16
2.74643e-16
2.74256e-16
2.7386e-16
2.73456e-16
6.66637e-16
3.36826e-15
1.72538e-14
8.29318e-14
3.70318e-13
1.52711e-12
5.77401e-12
1.98274e-11
6.11997e-11
1.68539e-10
4.13102e-10
8.99524e-10
1.76498e-09
3.79077e-09
1.42524e-08
1.09786e-07
1.35543e-06
2.38429e-05
0.000943056
0.0630163
1.37875
0.281419
0.12867
0.0787898
0.0607138
0.0527969
0.0485435
0.0456742
0.0434752
0.0416223
0.0399359
0.0383226
0.0367339
0.0351452
0.0335459
0.0319335
0.0303104
0.0286818
0.0270545
0.0254357
0.0238328
0.0222529
0.0207027
0.0191883
0.0177156
0.0162904
0.0149187
0.0136073
0.012363
0.011193
0.010103
0.00909681
0.00817561
0.00733741
0.00657734
0.00588801
0.00525999
0.00468234
0.00414288
0.00362873
0.00312767
0.00263146
0.00214157
0.00167473
0.00126007
0.00092476
0.000677733
0.000507071
0.000391258
0.00031072
0.000252172
0.000208191
0.000174139
0.00014645
0.00012293
0.000103784
8.86446e-05
7.52435e-05
6.33665e-05
5.40359e-05
4.6236e-05
3.90959e-05
3.31426e-05
2.82129e-05
2.3789e-05
2.01004e-05
1.70748e-05
1.4254e-05
1.19112e-05
1.00884e-05
8.41049e-06
6.95794e-06
5.78818e-06
4.77522e-06
3.94524e-06
3.23946e-06
2.60773e-06
2.12057e-06
1.71389e-06
1.35362e-06
1.07975e-06
8.4617e-07
6.56899e-07
5.04875e-07
3.84889e-07
2.87547e-07
2.09694e-07
1.50222e-07
1.03103e-07
6.71613e-08
4.92235e-08
4.35429e-08
0
0
0
0
0
0
0
0
0
0
0
0
0
0
0
0
0
0
0
0
0
0
0
0
0
0
0
0
0
0
0
0
0
0
0
0
0
0
0
0
0
0
0
0
0
0
0
0
0
0
0
0
0
0
0
0
0
0
0
0
0
0
0
0
0
0
0
0
0
0
0
0
0
0
0
0
0
0
0
0
0
0
0
0
0
0
0
0
0
0
0
0
0
0
0
0
0
0
0
0
0
0
0
0
0
0
0
0
0
0
0
0
0
0
0
0
0
0
0
)
;

boundaryField
{
    inandouthalf11
    {
        type            cyclic;
    }
    inandouthalf12
    {
        type            cyclic;
    }
    inandouthalf21
    {
        type            cyclic;
    }
    inandouthalf22
    {
        type            cyclic;
    }
    inandouthalf31
    {
        type            cyclic;
    }
    inandouthalf32
    {
        type            cyclic;
    }
    inandouthalf41
    {
        type            cyclic;
    }
    inandouthalf42
    {
        type            cyclic;
    }
    top
    {
        type            symmetryPlane;
    }
    walls
    {
        type            calculated;
        value           uniform 2.8912e-16;
    }
    frontAndBackPlanes
    {
        type            empty;
    }
}


// ************************************************************************* //
