/*--------------------------------*- C++ -*----------------------------------*\
| =========                 |                                                 |
| \\      /  F ield         | OpenFOAM: The Open Source CFD Toolbox           |
|  \\    /   O peration     | Version:  2.4.x                                 |
|   \\  /    A nd           | Web:      www.OpenFOAM.org                      |
|    \\/     M anipulation  |                                                 |
\*---------------------------------------------------------------------------*/
FoamFile
{
    version     2.0;
    format      ascii;
    class       surfaceScalarField;
    location    "3.05";
    object      phib;
}
// * * * * * * * * * * * * * * * * * * * * * * * * * * * * * * * * * * * * * //

dimensions      [0 3 -1 0 0 0 0];

internalField   nonuniform List<scalar> 
359
(
1.28063e-12
4.51008e-12
8.26473e-12
1.16896e-11
1.47208e-11
1.75794e-11
2.04825e-11
2.35697e-11
2.69107e-11
3.05692e-11
3.46278e-11
3.91469e-11
4.40557e-11
4.9004e-11
5.33864e-11
5.66498e-11
5.86593e-11
5.97065e-11
6.02011e-11
6.04368e-11
6.05629e-11
6.06444e-11
6.07091e-11
6.07698e-11
6.08336e-11
6.09039e-11
6.0982e-11
6.10671e-11
6.11572e-11
6.12498e-11
6.13426e-11
6.14343e-11
6.1524e-11
6.16119e-11
6.16983e-11
6.17838e-11
6.18688e-11
6.19538e-11
6.20393e-11
6.21254e-11
6.2212e-11
6.22995e-11
6.23876e-11
6.24763e-11
6.25659e-11
6.26563e-11
6.27477e-11
6.28402e-11
6.29338e-11
6.30293e-11
6.31267e-11
6.32263e-11
6.33282e-11
6.3433e-11
6.35407e-11
6.36518e-11
6.37664e-11
6.3885e-11
6.40076e-11
6.41341e-11
6.42647e-11
6.43988e-11
6.45362e-11
6.46764e-11
6.48189e-11
6.49634e-11
6.51101e-11
6.52594e-11
6.54122e-11
6.55694e-11
6.5732e-11
6.59015e-11
6.60784e-11
6.6263e-11
6.64554e-11
6.66553e-11
6.68616e-11
6.70735e-11
6.72899e-11
6.75105e-11
6.77348e-11
6.7963e-11
6.81955e-11
6.84328e-11
6.86754e-11
6.89235e-11
6.91772e-11
6.94362e-11
6.97002e-11
6.99685e-11
7.02405e-11
7.05159e-11
7.07943e-11
7.10755e-11
7.13594e-11
7.1646e-11
7.19354e-11
7.22275e-11
7.25222e-11
7.28196e-11
7.31195e-11
7.34218e-11
7.37263e-11
7.40328e-11
7.43413e-11
7.46513e-11
7.49625e-11
7.52747e-11
7.55874e-11
7.59002e-11
7.62125e-11
7.6524e-11
7.68342e-11
7.71428e-11
7.74496e-11
7.77545e-11
7.80578e-11
7.83599e-11
7.86618e-11
7.89649e-11
7.92709e-11
7.95824e-11
7.99023e-11
8.02344e-11
8.0583e-11
8.0953e-11
8.135e-11
8.17801e-11
8.22492e-11
8.27622e-11
8.3322e-11
8.39285e-11
8.45783e-11
8.52648e-11
8.59771e-11
8.66959e-11
8.73924e-11
8.8033e-11
8.85838e-11
8.90096e-11
8.92764e-11
8.93599e-11
8.92898e-11
8.91167e-11
8.8836e-11
8.8022e-11
1.08869e-10
1.40423e-10
1.75755e-10
1.08399e-09
1.1812e-09
9.89277e-10
8.7193e-10
7.93322e-10
7.25496e-10
6.6079e-10
6.00622e-10
5.4507e-10
4.93944e-10
4.46962e-10
4.03825e-10
3.64242e-10
3.27946e-10
2.94692e-10
2.64255e-10
2.36427e-10
2.1102e-10
1.87857e-10
1.66776e-10
1.47627e-10
1.30271e-10
1.14576e-10
1.00424e-10
8.77036e-11
7.63103e-11
6.61474e-11
5.71218e-11
4.91416e-11
4.21149e-11
3.59483e-11
3.05488e-11
2.58262e-11
2.16959e-11
1.80814e-11
1.49167e-11
1.21464e-11
9.72592e-12
7.62212e-12
5.81323e-12
4.28894e-12
3.0473e-12
2.08598e-12
1.38858e-12
9.16373e-13
6.14732e-13
4.28617e-13
3.14173e-13
2.41703e-13
1.93312e-13
1.59196e-13
1.3418e-13
1.14703e-13
9.86977e-14
8.54285e-14
7.48374e-14
6.59422e-14
5.78489e-14
5.09626e-14
4.53524e-14
4.02724e-14
3.56342e-14
3.16735e-14
2.81182e-14
2.48775e-14
2.20991e-14
1.9539e-14
1.71337e-14
1.5139e-14
1.33881e-14
1.17108e-14
1.02412e-14
8.9629e-15
7.82742e-15
6.83496e-15
5.90838e-15
5.08922e-15
4.40867e-15
3.77952e-15
3.22642e-15
2.75976e-15
2.34012e-15
1.97754e-15
1.66836e-15
1.40139e-15
1.16505e-15
9.62607e-16
7.89005e-16
6.36184e-16
5.52371e-16
6.24634e-16
7.66275e-16
1.66007e-15
-3.25343e-18
-3.43174e-18
-3.56823e-18
-3.71073e-18
-3.79969e-18
-3.89869e-18
-3.95107e-18
-4.02121e-18
-4.01803e-18
-4.04809e-18
-4.01832e-18
-4.00504e-18
-3.93474e-18
-3.88184e-18
-3.77977e-18
-3.69266e-18
-3.5586e-18
-3.43834e-18
-3.28482e-18
-3.14647e-18
-2.9873e-18
-2.85991e-18
-2.74597e-18
-2.66237e-18
-2.54472e-18
-2.46576e-18
-2.38961e-18
-2.31216e-18
-2.22451e-18
-2.13485e-18
-2.06478e-18
-1.98994e-18
-1.90882e-18
-1.81269e-18
-1.72258e-18
-1.61724e-18
-1.50807e-18
-1.39012e-18
-1.2951e-18
-1.19941e-18
-1.10493e-18
-1.00702e-18
-9.13542e-19
-8.21705e-19
-6.86403e-19
-6.00305e-19
-5.07031e-19
-4.23627e-19
-3.42024e-19
-2.74411e-19
-1.99767e-19
-1.39697e-19
-8.25452e-20
-3.64927e-20
-1.75277e-19
-1.43471e-19
-1.12885e-19
-7.5036e-20
-4.83131e-20
-3.40013e-20
-1.89176e-20
-1.50406e-20
4.64793e-21
1.30719e-20
2.18003e-20
1.7762e-20
2.31536e-20
1.64386e-20
1.06533e-20
-9.31405e-22
-1.49637e-21
-5.08964e-21
-8.3355e-21
-1.45269e-20
-1.90491e-20
-2.42778e-20
-2.96172e-20
-3.47226e-20
-4.3355e-20
-4.91817e-20
-5.50497e-20
-5.58148e-20
-6.37492e-20
-6.41826e-20
-6.77693e-20
-6.27723e-20
-1.1698e-19
-1.49895e-19
-1.85337e-19
-1.80938e-19
-2.16147e-19
-1.89911e-19
-1.65984e-19
-7.28068e-20
-1.04966e-19
-4.49018e-20
1.58546e-20
1.94136e-19
2.8528e-19
5.07699e-19
7.3193e-19
1.07194e-18
1.27379e-18
1.59962e-18
1.93106e-18
2.39777e-18
2.81612e-18
3.30342e-18
3.83212e-18
4.47393e-18
5.27407e-18
5.89557e-18
6.54185e-18
6.99853e-18
7.22836e-18
7.96674e-18
9.88569e-18
)
;

boundaryField
{
    inandouthalf11
    {
        type            cyclic;
        value           nonuniform List<scalar> 
100
(
2.70844e-10
2.70831e-10
2.70665e-10
2.70774e-10
2.70943e-10
2.71124e-10
2.71324e-10
2.71529e-10
2.71725e-10
2.71927e-10
2.72149e-10
2.72401e-10
2.72683e-10
2.72979e-10
2.73257e-10
2.7348e-10
2.73628e-10
2.7371e-10
2.7375e-10
2.7377e-10
2.73779e-10
2.73787e-10
2.73793e-10
2.73799e-10
2.73805e-10
2.73812e-10
2.73819e-10
2.73829e-10
2.7384e-10
2.73851e-10
2.73862e-10
2.73875e-10
2.73886e-10
2.73902e-10
2.73915e-10
2.7393e-10
2.73945e-10
2.73963e-10
2.73982e-10
2.74e-10
2.74022e-10
2.74044e-10
2.74066e-10
2.74093e-10
2.74119e-10
2.74148e-10
2.74179e-10
2.74209e-10
2.74244e-10
2.74283e-10
2.74321e-10
2.74364e-10
2.74408e-10
2.74456e-10
2.74505e-10
2.7456e-10
2.74616e-10
2.74677e-10
2.7474e-10
2.74805e-10
2.74876e-10
2.74947e-10
2.75022e-10
2.75098e-10
2.75176e-10
2.75256e-10
2.75338e-10
2.75423e-10
2.75511e-10
2.75602e-10
2.75698e-10
2.75797e-10
2.75899e-10
2.76005e-10
2.76114e-10
2.76227e-10
2.76341e-10
2.76458e-10
2.76578e-10
2.76701e-10
2.76826e-10
2.76955e-10
2.77087e-10
2.77223e-10
2.77362e-10
2.77504e-10
2.7765e-10
2.77799e-10
2.77951e-10
2.78107e-10
2.78265e-10
2.78427e-10
2.78592e-10
2.78761e-10
2.78934e-10
2.7911e-10
2.7929e-10
2.79474e-10
2.79662e-10
2.79855e-10
)
;
    }
    inandouthalf12
    {
        type            cyclic;
        value           nonuniform List<scalar> 
100
(
-2.70844e-10
-2.70831e-10
-2.70665e-10
-2.70774e-10
-2.70943e-10
-2.71124e-10
-2.71324e-10
-2.71529e-10
-2.71725e-10
-2.71927e-10
-2.72149e-10
-2.72401e-10
-2.72683e-10
-2.72979e-10
-2.73257e-10
-2.7348e-10
-2.73628e-10
-2.7371e-10
-2.7375e-10
-2.7377e-10
-2.73779e-10
-2.73787e-10
-2.73793e-10
-2.73799e-10
-2.73805e-10
-2.73812e-10
-2.73819e-10
-2.73829e-10
-2.7384e-10
-2.73851e-10
-2.73862e-10
-2.73875e-10
-2.73886e-10
-2.73902e-10
-2.73915e-10
-2.7393e-10
-2.73945e-10
-2.73963e-10
-2.73982e-10
-2.74e-10
-2.74022e-10
-2.74044e-10
-2.74066e-10
-2.74093e-10
-2.74119e-10
-2.74148e-10
-2.74179e-10
-2.74209e-10
-2.74244e-10
-2.74283e-10
-2.74321e-10
-2.74364e-10
-2.74408e-10
-2.74456e-10
-2.74505e-10
-2.7456e-10
-2.74616e-10
-2.74677e-10
-2.7474e-10
-2.74805e-10
-2.74876e-10
-2.74947e-10
-2.75022e-10
-2.75098e-10
-2.75176e-10
-2.75256e-10
-2.75338e-10
-2.75423e-10
-2.75511e-10
-2.75602e-10
-2.75698e-10
-2.75797e-10
-2.75899e-10
-2.76005e-10
-2.76114e-10
-2.76227e-10
-2.76341e-10
-2.76458e-10
-2.76578e-10
-2.76701e-10
-2.76826e-10
-2.76955e-10
-2.77087e-10
-2.77223e-10
-2.77362e-10
-2.77504e-10
-2.7765e-10
-2.77799e-10
-2.77951e-10
-2.78107e-10
-2.78265e-10
-2.78427e-10
-2.78592e-10
-2.78761e-10
-2.78934e-10
-2.7911e-10
-2.7929e-10
-2.79474e-10
-2.79662e-10
-2.79855e-10
)
;
    }
    inandouthalf21
    {
        type            cyclic;
        value           nonuniform List<scalar> 
100
(
2.80051e-10
2.80252e-10
2.80457e-10
2.80666e-10
2.80881e-10
2.811e-10
2.81324e-10
2.81554e-10
2.81789e-10
2.82029e-10
2.82275e-10
2.82528e-10
2.82786e-10
2.83051e-10
2.83323e-10
2.83601e-10
2.83888e-10
2.84182e-10
2.84485e-10
2.84796e-10
2.85118e-10
2.85449e-10
2.85792e-10
2.86146e-10
2.86513e-10
2.86895e-10
2.87291e-10
2.87704e-10
2.88136e-10
2.88589e-10
2.89063e-10
2.89559e-10
2.90079e-10
2.90628e-10
2.91211e-10
2.91825e-10
2.92465e-10
2.93135e-10
2.93861e-10
2.94674e-10
2.95536e-10
2.96337e-10
2.97272e-10
2.98482e-10
2.99964e-10
3.02326e-10
3.10972e-10
3.17646e-10
3.51613e-10
1.99973e-09
9.73654e-08
1.40608e-07
1.52496e-07
1.55975e-07
1.56222e-07
1.54786e-07
1.52289e-07
1.49046e-07
1.45247e-07
1.41013e-07
1.36433e-07
1.31572e-07
1.2648e-07
1.21197e-07
1.15753e-07
1.10175e-07
1.04484e-07
9.86971e-08
9.28291e-08
8.68928e-08
8.0899e-08
7.48568e-08
6.87743e-08
6.26585e-08
5.65157e-08
5.03514e-08
4.41703e-08
3.79771e-08
3.17756e-08
2.55696e-08
1.93624e-08
1.31573e-08
6.95707e-09
7.64578e-10
-5.41755e-09
-1.15868e-08
-1.77406e-08
-2.38766e-08
-2.99924e-08
-3.60854e-08
-4.21529e-08
-4.81922e-08
-5.41999e-08
-6.01728e-08
-6.61071e-08
-7.19989e-08
-7.78444e-08
-8.36393e-08
-8.93794e-08
-9.506e-08
)
;
    }
    inandouthalf22
    {
        type            cyclic;
        value           nonuniform List<scalar> 
100
(
-2.80051e-10
-2.80252e-10
-2.80457e-10
-2.80666e-10
-2.80881e-10
-2.811e-10
-2.81324e-10
-2.81554e-10
-2.81789e-10
-2.82029e-10
-2.82275e-10
-2.82528e-10
-2.82786e-10
-2.83051e-10
-2.83323e-10
-2.83601e-10
-2.83888e-10
-2.84182e-10
-2.84485e-10
-2.84796e-10
-2.85118e-10
-2.85449e-10
-2.85792e-10
-2.86146e-10
-2.86513e-10
-2.86895e-10
-2.87291e-10
-2.87704e-10
-2.88136e-10
-2.88589e-10
-2.89063e-10
-2.89559e-10
-2.90079e-10
-2.90628e-10
-2.91211e-10
-2.91825e-10
-2.92465e-10
-2.93135e-10
-2.93861e-10
-2.94674e-10
-2.95536e-10
-2.96337e-10
-2.97272e-10
-2.98482e-10
-2.99964e-10
-3.02326e-10
-3.10972e-10
-3.17646e-10
-3.51613e-10
-1.99973e-09
-9.73654e-08
-1.40608e-07
-1.52496e-07
-1.55975e-07
-1.56222e-07
-1.54786e-07
-1.52289e-07
-1.49046e-07
-1.45247e-07
-1.41013e-07
-1.36433e-07
-1.31572e-07
-1.2648e-07
-1.21197e-07
-1.15753e-07
-1.10175e-07
-1.04484e-07
-9.86971e-08
-9.28291e-08
-8.68928e-08
-8.0899e-08
-7.48568e-08
-6.87743e-08
-6.26585e-08
-5.65157e-08
-5.03514e-08
-4.41703e-08
-3.79771e-08
-3.17756e-08
-2.55696e-08
-1.93624e-08
-1.31573e-08
-6.95707e-09
-7.64578e-10
5.41755e-09
1.15868e-08
1.77406e-08
2.38766e-08
2.99924e-08
3.60854e-08
4.21529e-08
4.81922e-08
5.41999e-08
6.01728e-08
6.61071e-08
7.19989e-08
7.78444e-08
8.36393e-08
8.93794e-08
9.506e-08
)
;
    }
    inandouthalf31
    {
        type            cyclic;
        value           nonuniform List<scalar> 
110
(
-1.00677e-07
-1.08436e-07
-1.16505e-07
-1.24881e-07
-1.3356e-07
-1.42535e-07
-1.51792e-07
-1.6131e-07
-1.71057e-07
-1.80988e-07
-1.91032e-07
-2.01086e-07
-2.10978e-07
-2.20445e-07
-2.2811e-07
-2.33423e-07
-2.38338e-07
-2.43322e-07
-2.48396e-07
-2.53563e-07
-2.58826e-07
-2.64185e-07
-2.69645e-07
-2.75207e-07
-2.80874e-07
-2.86649e-07
-2.92535e-07
-2.98533e-07
-3.04648e-07
-3.10881e-07
-3.17236e-07
-3.23715e-07
-3.30321e-07
-3.37058e-07
-3.43927e-07
-3.50933e-07
-3.58078e-07
-3.65366e-07
-3.72799e-07
-3.8038e-07
-3.88114e-07
-3.96002e-07
-4.04051e-07
-4.12261e-07
-4.20636e-07
-4.2918e-07
-4.37896e-07
-4.46789e-07
-4.55861e-07
-4.65117e-07
-4.7456e-07
-4.84195e-07
-4.94024e-07
-5.04053e-07
-5.14285e-07
-5.24725e-07
-5.35376e-07
-5.46244e-07
-5.57332e-07
-5.68644e-07
-5.80187e-07
-5.91963e-07
-6.03979e-07
-6.16238e-07
-6.28746e-07
-6.41508e-07
-6.54529e-07
-6.67814e-07
-6.81369e-07
-6.95199e-07
-7.0931e-07
-7.23707e-07
-7.38396e-07
-7.53384e-07
-7.68676e-07
-7.84278e-07
-8.00196e-07
-8.16438e-07
-8.3301e-07
-8.49918e-07
-8.67169e-07
-8.8477e-07
-9.02728e-07
-9.21051e-07
-9.39746e-07
-9.58821e-07
-9.78282e-07
-9.98139e-07
-1.0184e-06
-1.03907e-06
-1.06016e-06
-1.08168e-06
-1.10363e-06
-1.12603e-06
-1.14889e-06
-1.17221e-06
-1.196e-06
-1.22028e-06
-1.24505e-06
-1.27032e-06
-1.2961e-06
-1.32241e-06
-1.34925e-06
-1.37664e-06
-1.40458e-06
-1.43309e-06
-1.46217e-06
-1.49185e-06
-1.52213e-06
-1.55303e-06
)
;
    }
    inandouthalf32
    {
        type            cyclic;
        value           nonuniform List<scalar> 
110
(
1.00677e-07
1.08436e-07
1.16505e-07
1.24881e-07
1.3356e-07
1.42535e-07
1.51792e-07
1.6131e-07
1.71057e-07
1.80988e-07
1.91032e-07
2.01086e-07
2.10978e-07
2.20445e-07
2.2811e-07
2.33423e-07
2.38338e-07
2.43322e-07
2.48396e-07
2.53563e-07
2.58826e-07
2.64185e-07
2.69645e-07
2.75207e-07
2.80874e-07
2.86649e-07
2.92535e-07
2.98533e-07
3.04648e-07
3.10881e-07
3.17236e-07
3.23715e-07
3.30321e-07
3.37058e-07
3.43927e-07
3.50933e-07
3.58078e-07
3.65366e-07
3.72799e-07
3.8038e-07
3.88114e-07
3.96002e-07
4.04051e-07
4.12261e-07
4.20636e-07
4.2918e-07
4.37896e-07
4.46789e-07
4.55861e-07
4.65117e-07
4.7456e-07
4.84195e-07
4.94024e-07
5.04053e-07
5.14285e-07
5.24725e-07
5.35376e-07
5.46244e-07
5.57332e-07
5.68644e-07
5.80187e-07
5.91963e-07
6.03979e-07
6.16238e-07
6.28746e-07
6.41508e-07
6.54529e-07
6.67814e-07
6.81369e-07
6.95199e-07
7.0931e-07
7.23707e-07
7.38396e-07
7.53384e-07
7.68676e-07
7.84278e-07
8.00196e-07
8.16438e-07
8.3301e-07
8.49918e-07
8.67169e-07
8.8477e-07
9.02728e-07
9.21051e-07
9.39746e-07
9.58821e-07
9.78282e-07
9.98139e-07
1.0184e-06
1.03907e-06
1.06016e-06
1.08168e-06
1.10363e-06
1.12603e-06
1.14889e-06
1.17221e-06
1.196e-06
1.22028e-06
1.24505e-06
1.27032e-06
1.2961e-06
1.32241e-06
1.34925e-06
1.37664e-06
1.40458e-06
1.43309e-06
1.46217e-06
1.49185e-06
1.52213e-06
1.55303e-06
)
;
    }
    inandouthalf41
    {
        type            cyclic;
        value           nonuniform List<scalar> 
50
(
-1.39012e-06
-1.39012e-06
-1.39012e-06
-1.39012e-06
-1.39012e-06
-1.39012e-06
-1.39012e-06
-1.39012e-06
-1.39012e-06
-1.39012e-06
-1.39012e-06
-1.39012e-06
-1.39012e-06
-1.39012e-06
-1.39012e-06
-1.39012e-06
-1.39012e-06
-1.39012e-06
-1.39012e-06
-1.39012e-06
-1.39012e-06
-1.39012e-06
-1.39012e-06
-1.39012e-06
-1.39012e-06
-1.39012e-06
-1.39012e-06
-1.39012e-06
-1.39012e-06
-1.39012e-06
-1.39012e-06
-1.39012e-06
-1.39012e-06
-1.39012e-06
-1.39012e-06
-1.39012e-06
-1.39012e-06
-1.39012e-06
-1.39012e-06
-1.39012e-06
-1.39012e-06
-1.39012e-06
-1.39012e-06
-1.39012e-06
-1.39012e-06
-1.39012e-06
-1.39012e-06
-1.39012e-06
-1.39012e-06
-1.39012e-06
)
;
    }
    inandouthalf42
    {
        type            cyclic;
        value           nonuniform List<scalar> 
50
(
1.39012e-06
1.39012e-06
1.39012e-06
1.39012e-06
1.39012e-06
1.39012e-06
1.39012e-06
1.39012e-06
1.39012e-06
1.39012e-06
1.39012e-06
1.39012e-06
1.39012e-06
1.39012e-06
1.39012e-06
1.39012e-06
1.39012e-06
1.39012e-06
1.39012e-06
1.39012e-06
1.39012e-06
1.39012e-06
1.39012e-06
1.39012e-06
1.39012e-06
1.39012e-06
1.39012e-06
1.39012e-06
1.39012e-06
1.39012e-06
1.39012e-06
1.39012e-06
1.39012e-06
1.39012e-06
1.39012e-06
1.39012e-06
1.39012e-06
1.39012e-06
1.39012e-06
1.39012e-06
1.39012e-06
1.39012e-06
1.39012e-06
1.39012e-06
1.39012e-06
1.39012e-06
1.39012e-06
1.39012e-06
1.39012e-06
1.39012e-06
)
;
    }
    top
    {
        type            symmetryPlane;
        value           uniform 0;
    }
    walls
    {
        type            fixedValue;
        value           uniform 0;
    }
    frontAndBackPlanes
    {
        type            empty;
        value           nonuniform 0();
    }
}


// ************************************************************************* //
