/*--------------------------------*- C++ -*----------------------------------*\
| =========                 |                                                 |
| \\      /  F ield         | OpenFOAM: The Open Source CFD Toolbox           |
|  \\    /   O peration     | Version:  2.4.x                                 |
|   \\  /    A nd           | Web:      www.OpenFOAM.org                      |
|    \\/     M anipulation  |                                                 |
\*---------------------------------------------------------------------------*/
FoamFile
{
    version     2.0;
    format      ascii;
    class       volTensorField;
    location    "3.05";
    object      Taus;
}
// * * * * * * * * * * * * * * * * * * * * * * * * * * * * * * * * * * * * * //

dimensions      [0 2 -2 0 0 0 0];

internalField   nonuniform List<tensor> 
360
(
(0 -0.0170099 0 -0.0170099 -0.167925 0 0 0 0)
(0 -0.019677 0 -0.019677 -0.179106 0 0 0 0)
(0 -0.022123 0 -0.022123 -0.185404 0 0 0 0)
(0 -0.0231217 0 -0.0231217 -0.185828 0 0 0 0)
(9.66557e-18 -0.0231333 0 -0.0231333 -0.184795 0 0 0 0)
(1.0135e-17 -0.0227963 0 -0.0227963 -0.183357 0 0 0 0)
(9.88161e-18 -0.0222722 0 -0.0222722 -0.181479 0 0 0 0)
(0 -0.0217459 0 -0.0217459 -0.179597 0 0 0 0)
(1.68439e-17 -0.021338 0 -0.021338 -0.178052 0 0 0 0)
(0 -0.0209748 0 -0.0209748 -0.176606 0 0 0 0)
(1.36192e-17 -0.0205494 0 -0.0205494 -0.175015 0 0 0 0)
(0 -0.0200134 0 -0.0200134 -0.173194 0 0 0 0)
(1.09999e-17 -0.0193788 0 -0.0193788 -0.171116 0 0 0 0)
(0 -0.0187273 0 -0.0187273 -0.168971 0 0 0 0)
(0 -0.0181554 0 -0.0181554 -0.166997 0 0 0 0)
(0 -0.0177423 0 -0.0177423 -0.165439 0 0 0 0)
(0 -0.0175278 0 -0.0175278 -0.164411 0 0 0 0)
(9.85288e-17 -0.017508 0 -0.017508 -0.163824 0 0 0 0)
(0 -0.0176547 0 -0.0176547 -0.163473 0 0 0 0)
(0 -0.0179471 0 -0.0179471 -0.163135 0 0 0 0)
(0 -0.0184138 0 -0.0184138 -0.162795 0 0 0 0)
(1.25221e-15 -0.0190533 0 -0.0190533 -0.162349 0 0 0 0)
(0 -0.0198256 0 -0.0198256 -0.161866 0 0 0 0)
(0 -0.0206469 0 -0.0206469 -0.161391 0 0 0 0)
(0 -0.0214429 0 -0.0214429 -0.160953 0 0 0 0)
(1.43314e-15 -0.022184 0 -0.022184 -0.160558 0 0 0 0)
(0 -0.0228693 0 -0.0228693 -0.160196 0 0 0 0)
(0 -0.0235039 0 -0.0235039 -0.159812 0 0 0 0)
(0 -0.0241127 0 -0.0241127 -0.159433 0 0 0 0)
(0 -0.0247114 0 -0.0247114 -0.159047 0 0 0 0)
(0 -0.0253036 0 -0.0253036 -0.15865 0 0 0 0)
(0 -0.0258871 0 -0.0258871 -0.158201 0 0 0 0)
(0 -0.0264767 0 -0.0264767 -0.157781 0 0 0 0)
(0 -0.0270471 0 -0.0270471 -0.157273 0 0 0 0)
(0 -0.0276224 0 -0.0276224 -0.1568 0 0 0 0)
(-1.13959e-15 -0.0281874 0 -0.0281874 -0.156281 0 0 0 0)
(0 -0.0287435 0 -0.0287435 -0.155763 0 0 0 0)
(0 -0.0292774 0 -0.0292774 -0.155208 0 0 0 0)
(0 -0.0297935 0 -0.0297935 -0.154616 0 0 0 0)
(0 -0.0303121 0 -0.0303121 -0.154062 0 0 0 0)
(0 -0.0307998 0 -0.0307998 -0.153432 0 0 0 0)
(0 -0.0312783 0 -0.0312783 -0.152805 0 0 0 0)
(-1.06597e-15 -0.0317486 0 -0.0317486 -0.15218 0 0 0 0)
(0 -0.0321844 0 -0.0321844 -0.151485 0 0 0 0)
(0 -0.0326081 0 -0.0326081 -0.150796 0 0 0 0)
(0 -0.0330118 0 -0.0330118 -0.150076 0 0 0 0)
(0 -0.0333965 0 -0.0333965 -0.149324 0 0 0 0)
(0 -0.0337728 0 -0.0337728 -0.148581 0 0 0 0)
(0 -0.0341087 0 -0.0341087 -0.147783 0 0 0 0)
(0 -0.0344058 0 -0.0344058 -0.146933 0 0 0 0)
(-9.11103e-16 -0.0346937 0 -0.0346937 -0.146099 0 0 0 0)
(0 -0.0349504 0 -0.0349504 -0.14521 0 0 0 0)
(0 -0.0351815 0 -0.0351815 -0.144309 0 0 0 0)
(0 -0.0353814 0 -0.0353814 -0.143363 0 0 0 0)
(0 -0.0355572 0 -0.0355572 -0.142413 0 0 0 0)
(0 -0.03569 0 -0.03569 -0.141396 0 0 0 0)
(0 -0.0358022 0 -0.0358022 -0.140386 0 0 0 0)
(0 -0.0358755 0 -0.0358755 -0.13932 0 0 0 0)
(0 -0.0359253 0 -0.0359253 -0.138238 0 0 0 0)
(0 -0.0359539 0 -0.0359539 -0.137147 0 0 0 0)
(0 -0.0359433 0 -0.0359433 -0.135997 0 0 0 0)
(0 -0.035922 0 -0.035922 -0.13486 0 0 0 0)
(0 -0.0358794 0 -0.0358794 -0.133683 0 0 0 0)
(0 -0.0358302 0 -0.0358302 -0.132509 0 0 0 0)
(0 -0.0357718 0 -0.0357718 -0.131316 0 0 0 0)
(0 -0.0357037 0 -0.0357037 -0.130118 0 0 0 0)
(0 -0.0356155 0 -0.0356155 -0.128898 0 0 0 0)
(0 -0.0355061 0 -0.0355061 -0.127661 0 0 0 0)
(0 -0.0353773 0 -0.0353773 -0.126408 0 0 0 0)
(0 -0.0352265 0 -0.0352265 -0.125144 0 0 0 0)
(0 -0.0350368 0 -0.0350368 -0.123844 0 0 0 0)
(0 -0.0348215 0 -0.0348215 -0.122521 0 0 0 0)
(0 -0.0345975 0 -0.0345975 -0.121204 0 0 0 0)
(0 -0.0343489 0 -0.0343489 -0.119852 0 0 0 0)
(0 -0.0340882 0 -0.0340882 -0.118499 0 0 0 0)
(0 -0.0338161 0 -0.0338161 -0.117125 0 0 0 0)
(0 -0.0335449 0 -0.0335449 -0.115756 0 0 0 0)
(0 -0.0332686 0 -0.0332686 -0.114376 0 0 0 0)
(0 -0.0329827 0 -0.0329827 -0.112986 0 0 0 0)
(0 -0.0326872 0 -0.0326872 -0.111587 0 0 0 0)
(0 -0.0323826 0 -0.0323826 -0.110183 0 0 0 0)
(0 -0.0320626 0 -0.0320626 -0.108766 0 0 0 0)
(0 -0.0317271 0 -0.0317271 -0.107337 0 0 0 0)
(0 -0.0313781 0 -0.0313781 -0.1059 0 0 0 0)
(0 -0.0310168 0 -0.0310168 -0.104453 0 0 0 0)
(0 -0.0306459 0 -0.0306459 -0.103 0 0 0 0)
(0 -0.0302671 0 -0.0302671 -0.101538 0 0 0 0)
(0 -0.029884 0 -0.029884 -0.100073 0 0 0 0)
(0 -0.0294972 0 -0.0294972 -0.0986025 0 0 0 0)
(0 -0.029106 0 -0.029106 -0.0971272 0 0 0 0)
(0 -0.0287105 0 -0.0287105 -0.0956473 0 0 0 0)
(0 -0.0283101 0 -0.0283101 -0.0941629 0 0 0 0)
(0 -0.0279032 0 -0.0279032 -0.0926726 0 0 0 0)
(0 -0.0274898 0 -0.0274898 -0.0911771 0 0 0 0)
(0 -0.0270701 0 -0.0270701 -0.0896764 0 0 0 0)
(0 -0.0266444 0 -0.0266444 -0.0881708 0 0 0 0)
(0 -0.0262135 0 -0.0262135 -0.0866606 0 0 0 0)
(0 -0.0257781 0 -0.0257781 -0.0851464 0 0 0 0)
(0 -0.0253387 0 -0.0253387 -0.0836283 0 0 0 0)
(0 -0.0248956 0 -0.0248956 -0.0821065 0 0 0 0)
(0 -0.0244492 0 -0.0244492 -0.0805813 0 0 0 0)
(0 -0.0239996 0 -0.0239996 -0.0790527 0 0 0 0)
(0 -0.0235469 0 -0.0235469 -0.0775209 0 0 0 0)
(0 -0.0230913 0 -0.0230913 -0.0759859 0 0 0 0)
(0 -0.0226331 0 -0.0226331 -0.074448 0 0 0 0)
(0 -0.0221725 0 -0.0221725 -0.0729073 0 0 0 0)
(0 -0.0217097 0 -0.0217097 -0.0713639 0 0 0 0)
(0 -0.021245 0 -0.021245 -0.0698181 0 0 0 0)
(0 -0.0207787 0 -0.0207787 -0.0682698 0 0 0 0)
(0 -0.0203108 0 -0.0203108 -0.0667192 0 0 0 0)
(0 -0.0198415 0 -0.0198415 -0.0651664 0 0 0 0)
(0 -0.0193711 0 -0.0193711 -0.0636116 0 0 0 0)
(0 -0.0188999 0 -0.0188999 -0.0620548 0 0 0 0)
(0 -0.0184279 0 -0.0184279 -0.0604962 0 0 0 0)
(0 -0.0179555 0 -0.0179555 -0.058936 0 0 0 0)
(0 -0.0174829 0 -0.0174829 -0.0573742 0 0 0 0)
(0 -0.0170103 0 -0.0170103 -0.0558112 0 0 0 0)
(0 -0.0165381 0 -0.0165381 -0.0542473 0 0 0 0)
(0 -0.0160664 0 -0.0160664 -0.0526826 0 0 0 0)
(0 -0.0155956 0 -0.0155956 -0.0511176 0 0 0 0)
(0 -0.0151259 0 -0.0151259 -0.0495527 0 0 0 0)
(0 -0.0146577 0 -0.0146577 -0.0479885 0 0 0 0)
(0 -0.0141913 0 -0.0141913 -0.0464255 0 0 0 0)
(0 -0.0137275 0 -0.0137275 -0.0448644 0 0 0 0)
(0 -0.0132667 0 -0.0132667 -0.0433059 0 0 0 0)
(0 -0.0128093 0 -0.0128093 -0.0417506 0 0 0 0)
(0 -0.0123552 0 -0.0123552 -0.0401988 0 0 0 0)
(0 -0.0119042 0 -0.0119042 -0.0386507 0 0 0 0)
(0 -0.011456 0 -0.011456 -0.037106 0 0 0 0)
(0 -0.0110116 0 -0.0110116 -0.0355649 0 0 0 0)
(0 -0.0105738 0 -0.0105738 -0.0340285 0 0 0 0)
(0 -0.010145 0 -0.010145 -0.0324984 0 0 0 0)
(0 -0.00972281 0 -0.00972281 -0.0309745 0 0 0 0)
(0 -0.00929891 0 -0.00929891 -0.0294513 0 0 0 0)
(0 -0.00886815 0 -0.00886815 -0.0279231 0 0 0 0)
(0 -0.0084402 0 -0.0084402 -0.0263945 0 0 0 0)
(0 -0.00802812 0 -0.00802812 -0.0248768 0 0 0 0)
(0 -0.00761841 0 -0.00761841 -0.0233679 0 0 0 0)
(0 -0.00716252 0 -0.00716252 -0.0218402 0 0 0 0)
(0 -0.0066366 0 -0.0066366 -0.0202533 0 0 0 0)
(0 -0.00613369 0 -0.00613369 -0.0186438 0 0 0 0)
(0 -0.00577342 0 -0.00577342 -0.0171635 0 0 0 0)
(0 -0.00541804 0 -0.00541804 -0.0155029 0 0 0 0)
(0 -0.00506214 0 -0.00506214 -0.0134798 0 0 0 0)
(0 -0.00530754 0 -0.00530754 -0.0104288 0 0 0 0)
(0 -0.00518658 0 -0.00518658 -0.00643353 0 0 0 0)
(0 -0.0020443 0 -0.0020443 -0.00323859 0 0 0 0)
(0 -0.00260462 0 -0.00260462 -0.00150693 0 0 0 0)
(0 -0.00176652 0 -0.00176652 -5.71243e-05 0 0 0 0)
(0 -0.000857622 0 -0.000857622 -2.08438e-05 0 0 0 0)
(0 -0.000658888 0 -0.000658888 -4.73821e-05 0 0 0 0)
(0 -0.00113723 0 -0.00113723 -0.000280339 0 0 0 0)
(0 -0.000812055 0 -0.000812055 -0.000639977 0 0 0 0)
(0 -0.00042316 0 -0.00042316 -0.000904284 0 0 0 0)
(0 2.23888e-06 0 2.23888e-06 -0.000952193 0 0 0 0)
(0 0.000440034 0 0.000440034 -0.000839169 0 0 0 0)
(0 0.000884622 0 0.000884622 -0.00067729 0 0 0 0)
(0 0.00133914 0 0.00133914 -0.000505794 0 0 0 0)
(0 0.00180706 0 0.00180706 -0.000327615 0 0 0 0)
(0 0.00229208 0 0.00229208 -0.000146655 0 0 0 0)
(0 0.00279758 0 0.00279758 3.44421e-05 0 0 0 0)
(0 0.00332662 0 0.00332662 0.000215485 0 0 0 0)
(0 0.00388214 0 0.00388214 0.000397162 0 0 0 0)
(0 0.00446708 0 0.00446708 0.000580468 0 0 0 0)
(0 0.00508435 0 0.00508435 0.000766597 0 0 0 0)
(0 0.0057369 0 0.0057369 0.00095681 0 0 0 0)
(0 0.00642775 0 0.00642775 0.00115235 0 0 0 0)
(0 0.00716 0 0.00716 0.00135436 0 0 0 0)
(0 0.00793689 0 0.00793689 0.00156387 0 0 0 0)
(0 0.00876188 0 0.00876188 0.00178166 0 0 0 0)
(0 0.00963874 0 0.00963874 0.00200821 0 0 0 0)
(0 0.0105717 0 0.0105717 0.00224365 0 0 0 0)
(0 0.0115654 0 0.0115654 0.00248789 0 0 0 0)
(0 0.0126255 0 0.0126255 0.00274096 0 0 0 0)
(0 0.0137577 0 0.0137577 0.00300387 0 0 0 0)
(0 0.014968 0 0.014968 0.00327999 0 0 0 0)
(0 0.0162614 0 0.0162614 0.00357676 0 0 0 0)
(0 0.0176408 0 0.0176408 0.00390734 0 0 0 0)
(0 0.0191053 0 0.0191053 0.00429139 0 0 0 0)
(0 0.0206495 0 0.0206495 0.00475442 0 0 0 0)
(0 0.0222629 0 0.0222629 0.0053253 0 0 0 0)
(0 0.0239309 0 0.0239309 0.0060321 0 0 0 0)
(0 0.025637 0 0.025637 0.00689669 0 0 0 0)
(0 0.027366 0 0.027366 0.00792948 0 0 0 0)
(0 0.0291086 0 0.0291086 0.00912589 0 0 0 0)
(0 0.0308692 0 0.0308692 0.0104652 0 0 0 0)
(0 0.0326768 0 0.0326768 0.0119103 0 0 0 0)
(0 0.0346035 0 0.0346035 0.0134059 0 0 0 0)
(0 0.0367951 0 0.0367951 0.0148725 0 0 0 0)
(0 0.0395174 0 0.0395174 0.0161991 0 0 0 0)
(0 0.0432208 0 0.0432208 0.0172394 0 0 0 0)
(0 0.0486101 0 0.0486101 0.0178168 0 0 0 0)
(0 0.0566575 0 0.0566575 0.0177397 0 0 0 0)
(0 0.068432 0 0.068432 0.0168365 0 0 0 0)
(0 0.0845566 0 0.0845566 0.015027 0 0 0 0)
(0 0.104429 0 0.104429 0.0124336 0 0 0 0)
(0 0.126105 0 0.126105 0.00940832 0 0 0 0)
(0 0.147394 0 0.147394 0.00634612 0 0 0 0)
(0 0.167016 0 0.167016 0.0034571 0 0 0 0)
(0 0.184618 0 0.184618 0.000762299 0 0 0 0)
(0 0.199888 0 0.199888 -0.00175109 0 0 0 0)
(0 0.212873 0 0.212873 -0.00410455 0 0 0 0)
(-4.41245e-16 0.224662 0 0.224662 -0.00644409 0 0 0 0)
(0 0.236267 0 0.236267 -0.00890077 0 0 0 0)
(0 0.246 0 0.246 -0.0112678 0 0 0 0)
(1.05498e-15 0.252839 0 0.252839 -0.0133879 0 0 0 0)
(0 0.259859 0 0.259859 -0.0156373 0 0 0 0)
(-1.15066e-15 0.267016 0 0.267016 -0.0180567 0 0 0 0)
(0 0.270765 0 0.270765 -0.0201283 0 0 0 0)
(1.21536e-15 0.272585 0 0.272585 -0.0219424 0 0 0 0)
(0 0.274801 0 0.274801 -0.0238306 0 0 0 0)
(0 0.275291 0 0.275291 -0.0254844 0 0 0 0)
(0 0.273823 0 0.273823 -0.0267459 0 0 0 0)
(2.57427e-15 0.271987 0 0.271987 -0.0277852 0 0 0 0)
(0 0.268383 0 0.268383 -0.0284333 0 0 0 0)
(0 0.2635 0 0.2635 -0.0287937 0 0 0 0)
(0 0.259911 0 0.259911 -0.0293339 0 0 0 0)
(0 0.255312 0 0.255312 -0.0298084 0 0 0 0)
(0 0.248588 0 0.248588 -0.0299965 0 0 0 0)
(-1.24178e-15 0.242674 0 0.242674 -0.030323 0 0 0 0)
(0 0.237237 0 0.237237 -0.0307747 0 0 0 0)
(-2.39632e-15 0.230925 0 0.230925 -0.03111 0 0 0 0)
(0 0.224181 0 0.224181 -0.0313947 0 0 0 0)
(-2.2882e-15 0.216841 0 0.216841 -0.0315877 0 0 0 0)
(0 0.209953 0 0.209953 -0.0318547 0 0 0 0)
(0 0.203823 0 0.203823 -0.0322977 0 0 0 0)
(0 0.196658 0 0.196658 -0.0325501 0 0 0 0)
(0 0.189397 0 0.189397 -0.0327664 0 0 0 0)
(0 0.182744 0 0.182744 -0.0331432 0 0 0 0)
(0 0.17547 0 0.17547 -0.033388 0 0 0 0)
(0 0.168072 0 0.168072 -0.033601 0 0 0 0)
(0 0.160736 0 0.160736 -0.0338551 0 0 0 0)
(0 0.15284 0 0.15284 -0.0339802 0 0 0 0)
(0 0.144314 0 0.144314 -0.0339404 0 0 0 0)
(0 0.135566 0 0.135566 -0.0338435 0 0 0 0)
(0 0.126436 0 0.126436 -0.0336451 0 0 0 0)
(0 0.116581 0 0.116581 -0.0331944 0 0 0 0)
(0 0.106226 0 0.106226 -0.0326363 0 0 0 0)
(0 0.0919115 0 0.0919115 -0.0308402 0 0 0 0)
(0 0.0671565 0 0.0671565 -0.0242877 0 0 0 0)
(0 0.0449621 0 0.0449621 -0.0184797 0 0 0 0)
(0 0 0 0 -0 0 0 0 0)
(0 0 0 0 -0 0 0 0 0)
(-0 0 0 0 0 0 0 0 0)
(0 0 0 0 -0 0 0 0 0)
(0 0 0 0 -0 0 0 0 0)
(0 0 0 0 -0 0 0 0 0)
(-0 0 0 0 -0 0 0 0 0)
(0 0 0 0 -0 0 0 0 0)
(0 0 0 0 -0 0 0 0 0)
(-0 0 0 0 -0 0 0 0 0)
(0 0 0 0 -0 0 0 0 0)
(0 0 0 0 -0 0 0 0 0)
(0 0 0 0 -0 0 0 0 0)
(0 0 0 0 -0 0 0 0 0)
(0 0 0 0 -0 0 0 0 0)
(0 0 0 0 -0 0 0 0 0)
(0 0 0 0 -0 0 0 0 0)
(0 0 0 0 -0 0 0 0 0)
(0 0 0 0 -0 0 0 0 0)
(0 0 0 0 -0 0 0 0 0)
(0 0 0 0 -0 0 0 0 0)
(0 0 0 0 -0 0 0 0 0)
(0 0 0 0 -0 0 0 0 0)
(0 0 0 0 0 0 0 0 0)
(0 0 0 0 -0 0 0 0 0)
(0 0 0 0 0 0 0 0 0)
(0 0 0 0 -0 0 0 0 0)
(0 0 0 0 -0 0 0 0 0)
(0 0 0 0 0 0 0 0 0)
(0 0 0 0 -0 0 0 0 0)
(0 0 0 0 0 0 0 0 0)
(0 0 0 0 -0 0 0 0 0)
(0 0 0 0 0 0 0 0 0)
(0 0 0 0 -0 0 0 0 0)
(0 0 0 0 0 0 0 0 0)
(0 0 0 0 -0 0 0 0 0)
(0 0 0 0 0 0 0 0 0)
(0 0 0 0 -0 0 0 0 0)
(0 0 0 0 0 0 0 0 0)
(0 0 0 0 -0 0 0 0 0)
(0 0 0 0 0 0 0 0 0)
(0 0 0 0 -0 0 0 0 0)
(0 0 0 0 0 0 0 0 0)
(0 0 0 0 -0 0 0 0 0)
(0 0 0 0 0 0 0 0 0)
(0 0 0 0 -0 0 0 0 0)
(0 0 0 0 0 0 0 0 0)
(0 0 0 0 -0 0 0 0 0)
(0 -0 0 -0 0 0 0 0 0)
(0 0 0 0 -0 0 0 0 0)
(0 -0 0 -0 0 0 0 0 0)
(0 0 0 0 -0 0 0 0 0)
(0 -0 0 -0 0 0 0 0 0)
(0 0 0 0 -0 0 0 0 0)
(0 -0 0 -0 0 0 0 0 0)
(0 0 0 0 -0 0 0 0 0)
(0 -0 0 -0 0 0 0 0 0)
(0 0 0 0 -0 0 0 0 0)
(-0 -0 0 -0 0 0 0 0 0)
(0 0 0 0 -0 0 0 0 0)
(0 -0 0 -0 0 0 0 0 0)
(0 0 0 0 0 0 0 0 0)
(0 0 0 0 -0 0 0 0 0)
(0 -0 0 -0 0 0 0 0 0)
(0 -0 0 -0 -0 0 0 0 0)
(0 -0 0 -0 0 0 0 0 0)
(0 0 0 0 -0 0 0 0 0)
(0 0 0 0 -0 0 0 0 0)
(0 0 0 0 -0 0 0 0 0)
(0 -0 0 -0 0 0 0 0 0)
(0 0 0 0 -0 0 0 0 0)
(0 -0 0 -0 0 0 0 0 0)
(0 0 0 0 -0 0 0 0 0)
(0 -0 0 -0 0 0 0 0 0)
(0 0 0 0 -0 0 0 0 0)
(0 -0 0 -0 0 0 0 0 0)
(0 0 0 0 -0 0 0 0 0)
(0 -0 0 -0 0 0 0 0 0)
(0 0 0 0 -0 0 0 0 0)
(0 -0 0 -0 0 0 0 0 0)
(0 0 0 0 -0 0 0 0 0)
(0 -0 0 -0 0 0 0 0 0)
(0 0 0 0 -0 0 0 0 0)
(0 -0 0 -0 0 0 0 0 0)
(0 0 0 0 -0 0 0 0 0)
(0 -0 0 -0 0 0 0 0 0)
(0 0 0 0 -0 0 0 0 0)
(0 -0 0 -0 0 0 0 0 0)
(0 0 0 0 -0 0 0 0 0)
(0 -0 0 -0 0 0 0 0 0)
(0 0 0 0 -0 0 0 0 0)
(0 -0 0 -0 0 0 0 0 0)
(0 0 0 0 -0 0 0 0 0)
(0 -0 0 -0 0 0 0 0 0)
(0 0 0 0 -0 0 0 0 0)
(0 -0 0 -0 0 0 0 0 0)
(0 0 0 0 -0 0 0 0 0)
(0 -0 0 -0 0 0 0 0 0)
(0 0 0 0 -0 0 0 0 0)
(0 -0 0 -0 0 0 0 0 0)
(0 0 0 0 -0 0 0 0 0)
(0 -0 0 -0 0 0 0 0 0)
(0 0 0 0 -0 0 0 0 0)
(0 -0 0 -0 0 0 0 0 0)
(0 0 0 0 -0 0 0 0 0)
(0 -0 0 -0 0 0 0 0 0)
(0 0 0 0 -0 0 0 0 0)
(0 -0 0 -0 0 0 0 0 0)
(0 0 0 0 -0 0 0 0 0)
(0 -0 0 -0 0 0 0 0 0)
(0 0 0 0 -0 0 0 0 0)
(0 0 0 0 0 0 0 0 0)
(0 0 0 0 0 0 0 0 0)
(0 0 0 0 0 0 0 0 0)
(0 0 0 0 0 0 0 0 0)
(0 0 0 0 0 0 0 0 0)
(0 0 0 0 0 0 0 0 0)
(0 0 0 0 0 0 0 0 0)
(0 0 0 0 0 0 0 0 0)
)
;

boundaryField
{
    inandouthalf11
    {
        type            cyclic;
    }
    inandouthalf12
    {
        type            cyclic;
    }
    inandouthalf21
    {
        type            cyclic;
    }
    inandouthalf22
    {
        type            cyclic;
    }
    inandouthalf31
    {
        type            cyclic;
    }
    inandouthalf32
    {
        type            cyclic;
    }
    inandouthalf41
    {
        type            cyclic;
    }
    inandouthalf42
    {
        type            cyclic;
    }
    top
    {
        type            symmetryPlane;
    }
    walls
    {
        type            zeroGradient;
    }
    frontAndBackPlanes
    {
        type            empty;
    }
}


// ************************************************************************* //
