/*--------------------------------*- C++ -*----------------------------------*\
| =========                 |                                                 |
| \\      /  F ield         | OpenFOAM: The Open Source CFD Toolbox           |
|  \\    /   O peration     | Version:  2.4.x                                 |
|   \\  /    A nd           | Web:      www.OpenFOAM.org                      |
|    \\/     M anipulation  |                                                 |
\*---------------------------------------------------------------------------*/
FoamFile
{
    version     2.0;
    format      ascii;
    class       volScalarField;
    location    "3.05";
    object      Theta_0;
}
// * * * * * * * * * * * * * * * * * * * * * * * * * * * * * * * * * * * * * //

dimensions      [0 2 -2 0 0 0 0];

internalField   nonuniform List<scalar> 
360
(
6.68339e-21
6.80774e-21
6.86476e-21
6.82525e-21
6.79047e-21
6.77688e-21
6.78047e-21
6.79608e-21
6.81985e-21
6.85217e-21
6.8971e-21
6.95504e-21
7.00852e-21
7.01313e-21
6.93444e-21
6.81078e-21
6.71746e-21
6.67652e-21
6.66474e-21
6.66213e-21
6.66158e-21
6.66145e-21
6.66142e-21
6.66141e-21
6.66142e-21
6.66143e-21
6.66145e-21
6.66146e-21
6.66148e-21
6.66148e-21
6.66148e-21
6.66148e-21
6.66148e-21
6.66147e-21
6.66147e-21
6.66147e-21
6.66147e-21
6.66147e-21
6.66147e-21
6.66147e-21
6.66147e-21
6.66148e-21
6.66148e-21
6.66148e-21
6.66148e-21
6.66149e-21
6.66149e-21
6.66149e-21
6.6615e-21
6.6615e-21
6.66151e-21
6.66152e-21
6.66153e-21
6.66154e-21
6.66155e-21
6.66156e-21
6.66157e-21
6.66159e-21
6.66161e-21
6.66162e-21
6.66164e-21
6.66166e-21
6.66167e-21
6.66169e-21
6.6617e-21
6.66171e-21
6.66172e-21
6.66173e-21
6.66175e-21
6.66178e-21
6.66181e-21
6.66184e-21
6.66189e-21
6.66194e-21
6.66199e-21
6.66204e-21
6.66208e-21
6.66212e-21
6.66216e-21
6.66219e-21
6.66222e-21
6.66225e-21
6.66229e-21
6.66233e-21
6.66237e-21
6.66242e-21
6.66247e-21
6.66252e-21
6.66256e-21
6.6626e-21
6.66264e-21
6.66268e-21
6.66271e-21
6.66274e-21
6.66277e-21
6.6628e-21
6.66283e-21
6.66286e-21
6.66289e-21
6.66285e-21
0
0
0
0
0
0
0
0
0
0
0
0
0
0
0
6.66312e-21
6.66311e-21
6.66311e-21
6.66312e-21
6.66315e-21
6.6632e-21
6.66327e-21
6.66339e-21
6.66355e-21
6.66377e-21
6.66408e-21
6.66448e-21
6.66501e-21
6.66574e-21
1.62626e-20
8.23227e-20
4.22572e-19
2.03552e-18
9.10984e-18
3.76565e-17
1.42736e-16
4.91422e-16
1.52101e-15
4.20134e-15
1.03328e-14
2.25824e-14
4.44658e-14
9.58809e-14
3.62091e-13
2.8041e-12
3.49307e-11
6.35144e-10
2.50886e-08
1.70507e-06
4.37825e-05
0.000376664
0.000838684
0.00111526
0.00136301
0.00159394
0.00181172
0.00201846
0.00221506
0.00240184
0.00257896
0.00274648
0.00290442
0.00305282
0.00319171
0.00332117
0.00344127
0.00355211
0.0036538
0.00374649
0.00383033
0.00390551
0.00397224
0.00403073
0.00408126
0.0041241
0.00415955
0.00418794
0.00420962
0.00422496
0.00423435
0.00423819
0.00423688
0.00423085
0.00422051
0.0042063
0.00418863
0.00416795
0.00414469
0.00411929
0.00409215
0.00406368
0.00403419
0.00400395
0.00397311
0.00394172
0.00390979
0.00387729
0.00384422
0.00381058
0.00377638
0.00374165
0.00370607
0.00366929
0.0036313
0.00359207
0.0035516
0.00350986
0.00346683
0.00342248
0.00337676
0.00332965
0.0032811
0.00323105
0.00317945
0.00312622
0.00307128
0.00301453
0.00295587
0.00289517
0.00283234
0.00276723
0.00269971
0.00262964
0.00255685
0.00248117
0.00240241
0.00232033
0.00223469
0.00214522
0.00205157
0.00195338
0.00185017
0.0017414
0.00162638
0.00150426
0.00137388
0.00123371
0.0010815
0.00091376
0.000724366
0.000500072
0
0
0
0
0
0
0
0
0
0
0
0
0
0
0
0
0
0
0
0
0
0
0
0
0
0
0
0
0
0
0
0
0
0
0
0
0
0
0
0
0
0
0
0
0
0
0
0
0
0
0
0
0
0
0
0
0
0
0
0
0
0
0
0
0
0
0
0
0
0
0
0
0
0
0
0
0
0
0
0
0
0
0
0
0
0
0
0
0
0
0
0
0
0
0
0
0
0
0
0
0
0
0
0
0
0
0
0
0
0
0
0
0
0
0
0
0
0
0
)
;

boundaryField
{
    inandouthalf11
    {
        type            cyclic;
    }
    inandouthalf12
    {
        type            cyclic;
    }
    inandouthalf21
    {
        type            cyclic;
    }
    inandouthalf22
    {
        type            cyclic;
    }
    inandouthalf31
    {
        type            cyclic;
    }
    inandouthalf32
    {
        type            cyclic;
    }
    inandouthalf41
    {
        type            cyclic;
    }
    inandouthalf42
    {
        type            cyclic;
    }
    top
    {
        type            symmetryPlane;
    }
    walls
    {
        type            zeroGradient;
    }
    frontAndBackPlanes
    {
        type            empty;
    }
}


// ************************************************************************* //
