/*--------------------------------*- C++ -*----------------------------------*\
| =========                 |                                                 |
| \\      /  F ield         | OpenFOAM: The Open Source CFD Toolbox           |
|  \\    /   O peration     | Version:  2.4.x                                 |
|   \\  /    A nd           | Web:      www.OpenFOAM.org                      |
|    \\/     M anipulation  |                                                 |
\*---------------------------------------------------------------------------*/
FoamFile
{
    version     2.0;
    format      ascii;
    class       volVectorField;
    location    "3.05";
    object      Ua_0;
}
// * * * * * * * * * * * * * * * * * * * * * * * * * * * * * * * * * * * * * //

dimensions      [0 1 -1 0 0 0 0];

internalField   nonuniform List<vector> 
360
(
(-9.89787e-33 -6.33364e-32 0)
(-8.15339e-08 -4.02471e-07 0)
(-2.26474e-07 -1.03076e-06 0)
(-3.70237e-07 -1.6123e-06 0)
(-4.96764e-07 -2.11699e-06 0)
(-6.11833e-07 -2.57732e-06 0)
(-7.23839e-07 -3.03026e-06 0)
(-8.39414e-07 -3.50457e-06 0)
(-9.62485e-07 -4.01579e-06 0)
(-1.09534e-06 -4.57243e-06 0)
(-1.24041e-06 -5.18595e-06 0)
(-1.40026e-06 -5.87102e-06 0)
(-1.5748e-06 -6.63297e-06 0)
(-1.7562e-06 -7.44271e-06 0)
(-1.92587e-06 -8.217e-06 0)
(-2.06101e-06 -8.84472e-06 0)
(-2.1497e-06 -9.26066e-06 0)
(-2.19805e-06 -9.48746e-06 0)
(-2.2213e-06 -9.59562e-06 0)
(-2.23224e-06 -9.64574e-06 0)
(-2.23789e-06 -9.67103e-06 0)
(-2.24138e-06 -9.68613e-06 0)
(-2.24403e-06 -9.69719e-06 0)
(-2.24647e-06 -9.70692e-06 0)
(-2.24904e-06 -9.71674e-06 0)
(-2.25194e-06 -9.72744e-06 0)
(-2.25529e-06 -9.73939e-06 0)
(-2.25912e-06 -9.7526e-06 0)
(-2.26337e-06 -9.76683e-06 0)
(-2.26791e-06 -9.78166e-06 0)
(-2.27264e-06 -9.79669e-06 0)
(-2.27747e-06 -9.81161e-06 0)
(-2.28232e-06 -9.82626e-06 0)
(-2.2872e-06 -9.84062e-06 0)
(-2.2921e-06 -9.8547e-06 0)
(-2.29706e-06 -9.86861e-06 0)
(-2.3021e-06 -9.88241e-06 0)
(-2.30725e-06 -9.89621e-06 0)
(-2.31254e-06 -9.91008e-06 0)
(-2.31798e-06 -9.92405e-06 0)
(-2.32358e-06 -9.93814e-06 0)
(-2.32935e-06 -9.95237e-06 0)
(-2.33528e-06 -9.96672e-06 0)
(-2.34138e-06 -9.98122e-06 0)
(-2.34766e-06 -9.99586e-06 0)
(-2.35412e-06 -1.00107e-05 0)
(-2.36076e-06 -1.00256e-05 0)
(-2.36759e-06 -1.00408e-05 0)
(-2.37464e-06 -1.00562e-05 0)
(-2.38193e-06 -1.00719e-05 0)
(-2.38948e-06 -1.00879e-05 0)
(-2.39732e-06 -1.01043e-05 0)
(-2.40546e-06 -1.01211e-05 0)
(-2.41392e-06 -1.01383e-05 0)
(-2.42274e-06 -1.01561e-05 0)
(-2.43194e-06 -1.01744e-05 0)
(-2.44156e-06 -1.01934e-05 0)
(-2.4516e-06 -1.0213e-05 0)
(-2.4621e-06 -1.02333e-05 0)
(-2.47306e-06 -1.02542e-05 0)
(-2.48447e-06 -1.02759e-05 0)
(-2.49633e-06 -1.02983e-05 0)
(-2.5086e-06 -1.03212e-05 0)
(-2.52124e-06 -1.03447e-05 0)
(-2.53421e-06 -1.03686e-05 0)
(-2.54748e-06 -1.03929e-05 0)
(-2.56105e-06 -1.04175e-05 0)
(-2.57494e-06 -1.04426e-05 0)
(-2.58922e-06 -1.04682e-05 0)
(-2.60397e-06 -1.04944e-05 0)
(-2.61929e-06 -1.05216e-05 0)
(-2.63528e-06 -1.05498e-05 0)
(-2.65203e-06 -1.05792e-05 0)
(-2.66959e-06 -1.06099e-05 0)
(-2.68798e-06 -1.06419e-05 0)
(-2.70719e-06 -1.06752e-05 0)
(-2.72714e-06 -1.07097e-05 0)
(-2.74775e-06 -1.07452e-05 0)
(-2.76893e-06 -1.07816e-05 0)
(-2.79063e-06 -1.08187e-05 0)
(-2.81279e-06 -1.08565e-05 0)
(-2.83543e-06 -1.08949e-05 0)
(-2.85855e-06 -1.09341e-05 0)
(-2.88221e-06 -1.09741e-05 0)
(-2.90644e-06 -1.10149e-05 0)
(-2.9313e-06 -1.10567e-05 0)
(-2.95678e-06 -1.10995e-05 0)
(-2.98288e-06 -1.11433e-05 0)
(-3.00956e-06 -1.11879e-05 0)
(-3.03678e-06 -1.12334e-05 0)
(-3.06449e-06 -1.12796e-05 0)
(-3.09262e-06 -1.13264e-05 0)
(-3.12115e-06 -1.13739e-05 0)
(-3.15006e-06 -1.14218e-05 0)
(-3.17932e-06 -1.14703e-05 0)
(-3.20894e-06 -1.15194e-05 0)
(-3.23891e-06 -1.1569e-05 0)
(-3.26924e-06 -1.16191e-05 0)
(-3.29992e-06 -1.16697e-05 0)
(-3.33094e-06 -1.17209e-05 0)
(-3.36231e-06 -1.17726e-05 0)
(-3.394e-06 -1.18249e-05 0)
(-3.42601e-06 -1.18776e-05 0)
(-3.45832e-06 -1.19308e-05 0)
(-3.49091e-06 -1.19844e-05 0)
(-3.52377e-06 -1.20384e-05 0)
(-3.55686e-06 -1.20928e-05 0)
(-3.59015e-06 -1.21476e-05 0)
(-3.62362e-06 -1.22026e-05 0)
(-3.65721e-06 -1.22578e-05 0)
(-3.69089e-06 -1.23131e-05 0)
(-3.72462e-06 -1.23685e-05 0)
(-3.75835e-06 -1.24239e-05 0)
(-3.79206e-06 -1.24792e-05 0)
(-3.82571e-06 -1.25345e-05 0)
(-3.8593e-06 -1.25896e-05 0)
(-3.89285e-06 -1.26447e-05 0)
(-3.9264e-06 -1.26998e-05 0)
(-3.96002e-06 -1.27549e-05 0)
(-3.99383e-06 -1.28104e-05 0)
(-4.02801e-06 -1.28664e-05 0)
(-4.06278e-06 -1.29233e-05 0)
(-4.09841e-06 -1.29817e-05 0)
(-4.13527e-06 -1.3042e-05 0)
(-4.17377e-06 -1.31049e-05 0)
(-4.21441e-06 -1.31712e-05 0)
(-4.25774e-06 -1.32418e-05 0)
(-4.30442e-06 -1.33177e-05 0)
(-4.3551e-06 -1.33999e-05 0)
(-4.41042e-06 -1.34894e-05 0)
(-4.47088e-06 -1.3587e-05 0)
(-4.53677e-06 -1.36929e-05 0)
(-4.60807e-06 -1.38068e-05 0)
(-4.68447e-06 -1.39283e-05 0)
(-4.7653e-06 -1.4056e-05 0)
(-4.84912e-06 -1.41876e-05 0)
(-4.93348e-06 -1.43191e-05 0)
(-5.01526e-06 -1.44452e-05 0)
(-5.09126e-06 -1.45613e-05 0)
(-5.15774e-06 -1.46627e-05 0)
(-5.20925e-06 -1.47415e-05 0)
(-5.2415e-06 -1.47901e-05 0)
(-5.25709e-06 -1.48127e-05 0)
(-5.26294e-06 -1.48208e-05 0)
(-5.26476e-06 -1.48229e-05 0)
(-5.26567e-06 -1.48235e-05 0)
(-5.267e-06 -1.48243e-05 0)
(-1.18135e-05 -2.00127e-05 0)
(-3.945e-05 -2.47246e-05 0)
(-0.00132803 -4.15907e-05 0)
(-0.0777797 -0.000975615 0)
(-0.125616 -0.00452308 0)
(-0.140691 -0.00874697 0)
(-0.145878 -0.0125277 0)
(-0.146941 -0.0154549 0)
(-0.145834 -0.0174687 0)
(-0.143424 -0.0187901 0)
(-0.140153 -0.0196357 0)
(-0.136275 -0.0201357 0)
(-0.131946 -0.0203767 0)
(-0.127274 -0.0204216 0)
(-0.122331 -0.020316 0)
(-0.117175 -0.0200935 0)
(-0.111849 -0.019779 0)
(-0.106387 -0.019392 0)
(-0.100821 -0.0189472 0)
(-0.0951733 -0.0184565 0)
(-0.089468 -0.0179293 0)
(-0.083725 -0.0173736 0)
(-0.0779629 -0.0167958 0)
(-0.0721994 -0.0162017 0)
(-0.0664514 -0.0155966 0)
(-0.0607349 -0.0149852 0)
(-0.0550658 -0.0143721 0)
(-0.0494592 -0.0137613 0)
(-0.0439299 -0.0131564 0)
(-0.0384922 -0.0125598 0)
(-0.0331594 -0.0119721 0)
(-0.0279444 -0.0113918 0)
(-0.0228591 -0.0108154 0)
(-0.0179144 -0.0102372 0)
(-0.0131203 -0.00965073 0)
(-0.00848587 -0.00904906 0)
(-0.00401933 -0.00842668 0)
(0.000271587 -0.00778037 0)
(0.00437957 -0.00711016 0)
(0.00829752 -0.00641995 0)
(0.0120187 -0.00571799 0)
(0.0155372 -0.00501757 0)
(0.0188488 -0.00433765 0)
(0.0219521 -0.00370276 0)
(0.0248508 -0.00314063 0)
(0.0275551 -0.00267598 0)
(0.0300825 -0.00232166 0)
(0.0324569 -0.00207307 0)
(0.0347033 -0.0019112 0)
(0.0368427 -0.00181212 0)
(0.038889 -0.0017552 0)
(0.0408502 -0.00172599 0)
(0.0427306 -0.00171557 0)
(0.0445328 -0.00171851 0)
(0.0462756 -0.00173126 0)
(0.0479779 -0.00175191 0)
(0.0496449 -0.00177976 0)
(0.0512805 -0.00181428 0)
(0.0528824 -0.00185405 0)
(0.0544523 -0.00189839 0)
(0.0559993 -0.00194797 0)
(0.0575235 -0.00200237 0)
(0.0590194 -0.00206034 0)
(0.0604918 -0.00212194 0)
(0.0619448 -0.00218728 0)
(0.0633746 -0.00225546 0)
(0.0647827 -0.00232595 0)
(0.0661709 -0.00239835 0)
(0.0675338 -0.00247172 0)
(0.068878 -0.00254628 0)
(0.0702125 -0.00262291 0)
(0.0715284 -0.00270104 0)
(0.0728254 -0.0027806 0)
(0.0741146 -0.00286265 0)
(0.0753948 -0.00294729 0)
(0.076665 -0.0030345 0)
(0.0779252 -0.00312451 0)
(0.0791731 -0.00321722 0)
(0.0804191 -0.00331376 0)
(0.0816637 -0.00341461 0)
(0.0828983 -0.003519 0)
(0.0841328 -0.00362826 0)
(0.0853668 -0.00374292 0)
(0.0865961 -0.00386269 0)
(0.0878255 -0.00398877 0)
(0.089054 -0.00412163 0)
(0.0902774 -0.00426142 0)
(0.0914933 -0.00440857 0)
(0.0927042 -0.00456447 0)
(0.0939061 -0.00472975 0)
(0.0950966 -0.00490525 0)
(0.0962792 -0.00509453 0)
(0.0973734 -0.00528751 0)
(0.0981835 -0.00543909 0)
(0.0989422 -0.00561032 0)
(0.179126 -0.0394733 0)
(0.179129 -0.0394732 0)
(0.179132 -0.0394732 0)
(0.179135 -0.0394732 0)
(0.179137 -0.0394732 0)
(0.179138 -0.0394732 0)
(0.17914 -0.0394732 0)
(0.179141 -0.0394732 0)
(0.179142 -0.0394732 0)
(0.179143 -0.0394732 0)
(0.179143 -0.0394732 0)
(0.179144 -0.0394732 0)
(0.179144 -0.0394732 0)
(0.179144 -0.0394732 0)
(0.179145 -0.0394732 0)
(0.179145 -0.0394732 0)
(0.179145 -0.0394732 0)
(0.179145 -0.0394732 0)
(0.179145 -0.0394732 0)
(0.179145 -0.0394732 0)
(0.179145 -0.0394732 0)
(0.179145 -0.0394732 0)
(0.179145 -0.0394732 0)
(0.179145 -0.0394732 0)
(0.179145 -0.0394732 0)
(0.179145 -0.0394732 0)
(0.179145 -0.0394732 0)
(0.179145 -0.0394732 0)
(0.179145 -0.0394732 0)
(0.179145 -0.0394732 0)
(0.179145 -0.0394732 0)
(0.179145 -0.0394732 0)
(0.179145 -0.0394732 0)
(0.179145 -0.0394732 0)
(0.179145 -0.0394732 0)
(0.179145 -0.0394732 0)
(0.179145 -0.0394732 0)
(0.179145 -0.0394732 0)
(0.179145 -0.0394732 0)
(0.179145 -0.0394732 0)
(0.179145 -0.0394732 0)
(0.179145 -0.0394732 0)
(0.179145 -0.0394732 0)
(0.179145 -0.0394732 0)
(0.179145 -0.0394732 0)
(0.179145 -0.0394732 0)
(0.179145 -0.0394732 0)
(0.179145 -0.0394732 0)
(0.179145 -0.0394732 0)
(0.179145 -0.0394732 0)
(0.179145 -0.0394732 0)
(0.179145 -0.0394732 0)
(0.179145 -0.0394732 0)
(0.179145 -0.0394732 0)
(0.179145 -0.0394732 0)
(0.179145 -0.0394732 0)
(0.179145 -0.0394732 0)
(0.179145 -0.0394732 0)
(0.179145 -0.0394732 0)
(0.179145 -0.0394732 0)
(0.179145 -0.0394732 0)
(0.179145 -0.0394732 0)
(0.179145 -0.0394732 0)
(0.179145 -0.0394732 0)
(0.179145 -0.0394732 0)
(0.179145 -0.0394732 0)
(0.179145 -0.0394732 0)
(0.179145 -0.0394732 0)
(0.179145 -0.0394732 0)
(0.179145 -0.0394732 0)
(0.179145 -0.0394732 0)
(0.179145 -0.0394732 0)
(0.179145 -0.0394732 0)
(0.179145 -0.0394732 0)
(0.179145 -0.0394732 0)
(0.179145 -0.0394732 0)
(0.179145 -0.0394732 0)
(0.179145 -0.0394732 0)
(0.179145 -0.0394732 0)
(0.179145 -0.0394732 0)
(0.179145 -0.0394732 0)
(0.179145 -0.0394732 0)
(0.179145 -0.0394732 0)
(0.179145 -0.0394732 0)
(0.179145 -0.0394732 0)
(0.179145 -0.0394732 0)
(0.179145 -0.0394732 0)
(0.179145 -0.0394732 0)
(0.179145 -0.0394732 0)
(0.179145 -0.0394732 0)
(0.179145 -0.0394732 0)
(0.179145 -0.0394732 0)
(0.179145 -0.0394732 0)
(0.179145 -0.0394732 0)
(0.179145 -0.0394732 0)
(0.179145 -0.0394732 0)
(0.179145 -0.0394732 0)
(0.179145 -0.0394732 0)
(0.179145 -0.0394732 0)
(0.179145 -0.0394732 0)
(0.179145 -0.0394732 0)
(0.179145 -0.0394732 0)
(0.179145 -0.0394732 0)
(0.179145 -0.0394732 0)
(0.179145 -0.0394732 0)
(0.179145 -0.0394732 0)
(0.179145 -0.0394732 0)
(0.179145 -0.0394732 0)
(0.179145 -0.0394732 0)
(0.179145 -0.0394732 0)
(0.179145 -0.0394732 0)
(0.179145 -0.0394732 0)
(0.179145 -0.0394732 0)
(0.179145 -0.0394732 0)
(0.179146 -0.039473 0)
(0.179147 -0.0394645 0)
(0.179182 -0.0391181 0)
(0.179986 -0.0223502 0)
)
;

boundaryField
{
    inandouthalf11
    {
        type            cyclic;
    }
    inandouthalf12
    {
        type            cyclic;
    }
    inandouthalf21
    {
        type            cyclic;
    }
    inandouthalf22
    {
        type            cyclic;
    }
    inandouthalf31
    {
        type            cyclic;
    }
    inandouthalf32
    {
        type            cyclic;
    }
    inandouthalf41
    {
        type            cyclic;
    }
    inandouthalf42
    {
        type            cyclic;
    }
    top
    {
        type            symmetryPlane;
    }
    walls
    {
        type            fixedValue;
        value           uniform (0 0 0);
    }
    frontAndBackPlanes
    {
        type            empty;
    }
}


// ************************************************************************* //
