/*--------------------------------*- C++ -*----------------------------------*\
| =========                 |                                                 |
| \\      /  F ield         | OpenFOAM: The Open Source CFD Toolbox           |
|  \\    /   O peration     | Version:  2.4.x                                 |
|   \\  /    A nd           | Web:      www.OpenFOAM.org                      |
|    \\/     M anipulation  |                                                 |
\*---------------------------------------------------------------------------*/
FoamFile
{
    version     2.0;
    format      ascii;
    class       volScalarField;
    location    "5.4";
    object      alpha;
}
// * * * * * * * * * * * * * * * * * * * * * * * * * * * * * * * * * * * * * //

dimensions      [0 0 0 0 0 0 0];

internalField   nonuniform List<scalar> 
360
(
0.610587
0.611279
0.611409
0.611344
0.611294
0.611271
0.611249
0.611226
0.611202
0.611178
0.611152
0.611127
0.611101
0.611075
0.611049
0.611023
0.610997
0.61097
0.610943
0.610916
0.610889
0.610861
0.610834
0.610806
0.610777
0.610749
0.61072
0.610691
0.610661
0.610631
0.610601
0.61057
0.61054
0.610508
0.610477
0.610446
0.610416
0.610385
0.610355
0.610325
0.610294
0.610263
0.61023
0.610194
0.610155
0.61011
0.610059
0.610005
0.609951
0.609903
0.609868
0.609842
0.609823
0.609804
0.609786
0.609767
0.609747
0.609725
0.609702
0.609678
0.609652
0.609627
0.609599
0.609572
0.609544
0.609515
0.609485
0.609454
0.609422
0.609389
0.609354
0.609318
0.609281
0.609243
0.609204
0.609163
0.609123
0.609081
0.609038
0.608995
0.60895
0.608904
0.608857
0.608808
0.608759
0.608708
0.608656
0.608603
0.608549
0.608494
0.608437
0.608379
0.60832
0.60826
0.608198
0.608135
0.60807
0.608004
0.607936
0.607866
0.607795
0.607722
0.607648
0.607572
0.607493
0.607413
0.607331
0.607247
0.60716
0.607071
0.60698
0.606886
0.60679
0.606691
0.606589
0.606484
0.606376
0.606265
0.60615
0.606032
0.60591
0.605784
0.605654
0.60552
0.605381
0.605237
0.605089
0.604935
0.604774
0.604608
0.604434
0.604254
0.604066
0.603868
0.603657
0.603434
0.6032
0.602952
0.602678
0.602362
0.602021
0.601697
0.601309
0.600807
0.600187
0.599088
0.595481
0.556946
0.321986
0.229115
0.183418
0.148791
0.120445
0.0969789
0.0777715
0.0622828
0.0499413
0.0401778
0.0324744
0.0263913
0.0215721
0.0177358
0.0146645
0.0121907
0.0101859
0.00855124
0.00721051
0.00610472
0.00518787
0.00442387
0.00378428
0.0032465
0.00279246
0.00240767
0.00208039
0.0018011
0.00156202
0.00135675
0.00118003
0.00102748
0.000895493
0.000781009
0.000681458
0.000594632
0.000518623
0.000451778
0.000392705
0.00034029
0.000293714
0.000252428
0.000216072
0.000184351
0.000156984
0.000133664
0.000113957
9.72396e-05
8.28542e-05
7.03292e-05
5.94444e-05
5.01235e-05
4.22509e-05
3.55659e-05
2.99175e-05
2.5217e-05
2.12345e-05
1.78513e-05
1.50635e-05
1.27243e-05
1.07169e-05
9.04643e-06
7.6484e-06
6.45472e-06
5.45662e-06
4.60559e-06
3.87604e-06
3.27606e-06
2.7553e-06
2.30453e-06
1.93776e-06
1.62218e-06
1.35146e-06
1.12479e-06
9.31706e-07
7.73164e-07
6.34989e-07
5.18301e-07
4.23974e-07
3.42165e-07
2.74801e-07
2.19515e-07
1.74001e-07
1.36686e-07
1.05662e-07
7.75118e-08
6.09034e-08
4.4546e-08
6.00117e-08
3.41393e-08
1.08091e-08
6.53958e-22
6.71868e-23
5.50348e-23
5.10046e-23
4.46127e-23
3.65588e-23
2.62476e-23
1.41556e-23
5.58762e-24
2.57099e-24
1.40803e-24
8.9016e-25
6.34946e-25
4.99261e-25
4.05043e-25
3.07902e-25
1.90887e-25
8.00545e-26
3.54675e-26
1.84462e-26
1.06846e-26
6.77972e-27
4.56322e-27
2.844e-27
1.32563e-27
6.19914e-28
3.20719e-28
1.72999e-28
9.49253e-29
4.80239e-29
2.35715e-29
1.17533e-29
5.77376e-30
2.7831e-30
1.31518e-30
6.08859e-31
2.75925e-31
1.22309e-31
5.29844e-32
2.24112e-32
9.24673e-33
3.71768e-33
1.45491e-33
5.5357e-34
2.04516e-34
7.32669e-35
2.54142e-35
8.52195e-36
2.75768e-36
8.59543e-37
2.57521e-37
7.39923e-38
2.03375e-38
5.33246e-39
1.32959e-39
3.14149e-40
7.00561e-41
1.46778e-41
2.874e-42
5.22686e-43
8.76487e-44
1.34331e-44
1.86143e-45
2.30072e-46
2.49228e-47
2.3109e-48
1.77347e-49
1.06987e-50
4.63851e-52
1.18725e-53
7.43113e-56
2.74342e-59
3.37071e-61
2.05544e-63
5.26934e-74
6.71723e-85
6.04506e-96
4.00208e-107
2.19531e-118
9.64276e-130
3.67219e-141
2.30042e-150
7.75095e-161
7.92203e-169
2.39108e-179
2.7252e-187
9.76571e-198
9.3747e-206
4.21624e-216
3.22759e-224
2.73774e-234
1.12363e-242
1.7993e-252
3.97774e-261
8.96289e-271
1.43103e-279
4.24607e-289
5.22589e-298
1.86841e-307
1.93415e-316
2.76183e-319
6.80328e-321
7.09478e-321
6.08689e-321
8.5424e-321
0
0
0
0
0
0
0
0
0
0
0
0
0
0
0
0
)
;

boundaryField
{
    inandouthalf11
    {
        type            cyclic;
    }
    inandouthalf12
    {
        type            cyclic;
    }
    inandouthalf21
    {
        type            cyclic;
    }
    inandouthalf22
    {
        type            cyclic;
    }
    inandouthalf31
    {
        type            cyclic;
    }
    inandouthalf32
    {
        type            cyclic;
    }
    inandouthalf41
    {
        type            cyclic;
    }
    inandouthalf42
    {
        type            cyclic;
    }
    top
    {
        type            symmetryPlane;
    }
    walls
    {
        type            zeroGradient;
    }
    frontAndBackPlanes
    {
        type            empty;
    }
}


// ************************************************************************* //
