/*--------------------------------*- C++ -*----------------------------------*\
| =========                 |                                                 |
| \\      /  F ield         | OpenFOAM: The Open Source CFD Toolbox           |
|  \\    /   O peration     | Version:  2.4.x                                 |
|   \\  /    A nd           | Web:      www.OpenFOAM.org                      |
|    \\/     M anipulation  |                                                 |
\*---------------------------------------------------------------------------*/
FoamFile
{
    version     2.0;
    format      ascii;
    class       volScalarField;
    location    "5.4";
    object      ddt0(alpha);
}
// * * * * * * * * * * * * * * * * * * * * * * * * * * * * * * * * * * * * * //

dimensions      [0 0 -1 0 0 0 0];

internalField   nonuniform List<scalar> 
360
(
0.000145097
0.000242018
0.000222713
0.000207142
0.000209137
0.000214731
0.000217994
0.000219323
0.000219923
0.000220818
0.000222194
0.000223773
0.000225395
0.000226867
0.000228239
0.0002296
0.000230976
0.000232338
0.000233653
0.000234997
0.000236206
0.000237509
0.000238878
0.000240388
0.000242114
0.000244114
0.000246423
0.000249159
0.000252128
0.000255149
0.000257902
0.00026011
0.000260975
0.000260502
0.000257921
0.000253622
0.000247972
0.000242205
0.000237879
0.000236604
0.000241251
0.000254312
0.000279229
0.000320434
0.000380535
0.000457226
0.000533172
0.000568695
0.000519839
0.000382424
0.000215621
9.10937e-05
2.88008e-05
6.92162e-06
1.14611e-06
-1.21463e-07
-3.96303e-07
-4.80737e-07
-5.11161e-07
-5.46824e-07
-5.728e-07
-5.90647e-07
-6.10323e-07
-6.2223e-07
-6.36922e-07
-6.54913e-07
-6.78102e-07
-6.99915e-07
-7.20695e-07
-7.51916e-07
-7.8773e-07
-8.06632e-07
-8.30693e-07
-8.58279e-07
-8.80015e-07
-8.98287e-07
-9.13305e-07
-9.35288e-07
-9.58445e-07
-9.80587e-07
-1.00567e-06
-1.03459e-06
-1.06222e-06
-1.08963e-06
-1.11631e-06
-1.14223e-06
-1.16698e-06
-1.19057e-06
-1.2156e-06
-1.24169e-06
-1.26858e-06
-1.29745e-06
-1.32798e-06
-1.35921e-06
-1.39123e-06
-1.4239e-06
-1.45707e-06
-1.49088e-06
-1.52566e-06
-1.56154e-06
-1.59865e-06
-1.6372e-06
-1.67723e-06
-1.71873e-06
-1.76178e-06
-1.8065e-06
-1.85297e-06
-1.90135e-06
-1.95178e-06
-2.00436e-06
-2.05923e-06
-2.11651e-06
-2.1763e-06
-2.23875e-06
-2.30398e-06
-2.37213e-06
-2.44336e-06
-2.51785e-06
-2.59581e-06
-2.67743e-06
-2.76291e-06
-2.85241e-06
-2.94611e-06
-3.04433e-06
-3.1478e-06
-3.25789e-06
-3.37658e-06
-3.50568e-06
-3.64538e-06
-3.79342e-06
-3.94784e-06
-4.11564e-06
-4.31774e-06
-4.56881e-06
-4.84357e-06
-5.10263e-06
-5.38537e-06
-5.84529e-06
-6.59661e-06
-7.33974e-06
-7.44715e-06
-7.96377e-06
-9.95275e-06
-1.25571e-05
-1.92321e-05
-7.60491e-05
-0.000903496
0.131343
0.0465379
-0.00278936
-0.0145682
-0.0199427
-0.0222349
-0.0223164
-0.0208528
-0.0184977
-0.0158015
-0.0131369
-0.0107112
-0.00860908
-0.00684312
-0.00538847
-0.00420525
-0.00325069
-0.00248481
-0.00187258
-0.00138471
-0.000996984
-0.000689736
-0.000447072
-0.000256219
-0.000106911
9.08991e-06
9.8398e-05
0.000166331
0.000217165
0.000254342
0.000280634
0.000298273
0.000309064
0.000314524
0.000316024
0.000314936
0.000312661
0.000310481
0.000309197
0.000308711
0.00030779
0.000304311
0.000296098
0.000281947
0.000261995
0.000237359
0.000210202
0.000183833
0.000161155
0.000142665
0.000126667
0.000111254
9.59906e-05
8.17486e-05
6.87937e-05
5.6895e-05
4.69175e-05
3.90666e-05
3.2113e-05
2.61256e-05
2.16626e-05
1.7935e-05
1.46283e-05
1.20685e-05
9.9733e-06
8.21545e-06
6.8553e-06
5.63531e-06
4.63471e-06
3.92063e-06
3.22484e-06
2.62629e-06
2.20203e-06
1.82395e-06
1.50181e-06
1.2286e-06
1.01027e-06
8.46178e-07
6.83933e-07
5.55793e-07
4.58769e-07
3.67485e-07
2.93993e-07
2.34974e-07
1.88325e-07
1.57488e-07
1.17096e-07
8.26164e-08
4.88728e-08
1.22012e-07
1.28619e-08
4.50356e-08
-2.6762e-21
-3.17142e-22
-2.08999e-22
-1.76824e-22
-2.40391e-22
-2.99664e-22
-3.58698e-22
-3.67946e-22
-1.50522e-22
-5.46631e-23
-2.31179e-23
-1.10394e-23
-5.59057e-24
-3.21183e-24
-2.60953e-24
-2.85735e-24
-3.29208e-24
-1.85843e-24
-6.6155e-25
-2.86528e-25
-1.4059e-25
-7.29232e-26
-4.58262e-26
-3.8387e-26
-2.48634e-26
-9.84727e-27
-4.71304e-27
-2.38497e-27
-1.29256e-27
-7.37006e-28
-3.48873e-28
-1.73685e-28
-8.56688e-29
-4.1475e-29
-1.96854e-29
-9.15339e-30
-4.16646e-30
-1.85502e-30
-8.07158e-31
-3.42925e-31
-1.42119e-31
-5.73946e-32
-2.25619e-32
-8.62296e-33
-3.20009e-33
-1.1516e-33
-4.01267e-34
-1.35166e-34
-4.39391e-35
-1.37583e-35
-4.141e-36
-1.19533e-36
-3.3008e-37
-8.69526e-38
-2.17831e-38
-5.17134e-39
-1.15877e-39
-2.4396e-40
-4.80037e-41
-8.77382e-42
-1.47873e-42
-2.27802e-43
-3.17332e-44
-3.94347e-45
-4.29577e-46
-4.00641e-47
-3.09366e-48
-1.87873e-49
-8.20647e-51
-2.12016e-52
-1.35575e-54
-5.34564e-58
-6.62936e-60
-4.08e-62
-1.02771e-72
-1.28821e-83
-1.14204e-94
-7.4594e-106
-4.04044e-117
-1.75764e-128
-6.65682e-140
-4.56499e-149
-1.52455e-159
-1.57247e-167
-4.71789e-178
-5.40939e-186
-1.93234e-196
-1.86083e-204
-8.36512e-215
-6.40664e-223
-5.43332e-233
-2.23035e-241
-3.5703e-251
-7.89564e-260
-1.77918e-269
-2.8405e-278
-8.42738e-288
-1.03731e-296
-3.70871e-306
-3.59276e-315
5.42188e-320
0
0
0
0
0
0
0
0
0
0
0
0
0
0
0
0
0
0
0
0
)
;

boundaryField
{
    inandouthalf11
    {
        type            cyclic;
    }
    inandouthalf12
    {
        type            cyclic;
    }
    inandouthalf21
    {
        type            cyclic;
    }
    inandouthalf22
    {
        type            cyclic;
    }
    inandouthalf31
    {
        type            cyclic;
    }
    inandouthalf32
    {
        type            cyclic;
    }
    inandouthalf41
    {
        type            cyclic;
    }
    inandouthalf42
    {
        type            cyclic;
    }
    top
    {
        type            symmetryPlane;
    }
    walls
    {
        type            calculated;
        value           uniform 0.000145097;
    }
    frontAndBackPlanes
    {
        type            empty;
    }
}


// ************************************************************************* //
