/*--------------------------------*- C++ -*----------------------------------*\
| =========                 |                                                 |
| \\      /  F ield         | OpenFOAM: The Open Source CFD Toolbox           |
|  \\    /   O peration     | Version:  2.4.x                                 |
|   \\  /    A nd           | Web:      www.OpenFOAM.org                      |
|    \\/     M anipulation  |                                                 |
\*---------------------------------------------------------------------------*/
FoamFile
{
    version     2.0;
    format      ascii;
    class       volVectorField;
    location    "5.4";
    object      ddt0(Ua);
}
// * * * * * * * * * * * * * * * * * * * * * * * * * * * * * * * * * * * * * //

dimensions      [0 1 -2 0 0 0 0];

internalField   nonuniform List<vector> 
360
(
(-2.06783e-34 -7.16356e-33 0)
(1.03075e-08 5.4116e-08 0)
(2.47005e-08 1.17743e-07 0)
(3.75773e-08 1.69316e-07 0)
(4.96165e-08 2.16916e-07 0)
(6.19127e-08 2.65729e-07 0)
(7.48022e-08 3.16879e-07 0)
(8.81741e-08 3.69607e-07 0)
(1.01831e-07 4.22882e-07 0)
(1.15672e-07 4.7621e-07 0)
(1.29713e-07 5.29725e-07 0)
(1.44022e-07 5.83743e-07 0)
(1.58644e-07 6.38455e-07 0)
(1.73587e-07 6.93853e-07 0)
(1.88831e-07 7.49806e-07 0)
(2.04353e-07 8.06191e-07 0)
(2.20143e-07 8.62938e-07 0)
(2.36198e-07 9.20016e-07 0)
(2.52527e-07 9.7743e-07 0)
(2.69156e-07 1.03528e-06 0)
(2.8614e-07 1.09374e-06 0)
(3.03573e-07 1.15318e-06 0)
(3.21601e-07 1.21417e-06 0)
(3.40416e-07 1.27745e-06 0)
(3.60231e-07 1.34385e-06 0)
(3.81261e-07 1.41416e-06 0)
(4.03668e-07 1.489e-06 0)
(4.27503e-07 1.56851e-06 0)
(4.52619e-07 1.65207e-06 0)
(4.78572e-07 1.7379e-06 0)
(5.04572e-07 1.8229e-06 0)
(5.29489e-07 1.90272e-06 0)
(5.51949e-07 1.97212e-06 0)
(5.70608e-07 2.02602e-06 0)
(5.84545e-07 2.06105e-06 0)
(5.93766e-07 2.0773e-06 0)
(5.99657e-07 2.08007e-06 0)
(6.05245e-07 2.08055e-06 0)
(6.15207e-07 2.09569e-06 0)
(6.35766e-07 2.14753e-06 0)
(6.74734e-07 2.2631e-06 0)
(7.41897e-07 2.47574e-06 0)
(8.49558e-07 2.82706e-06 0)
(1.01241e-06 3.36757e-06 0)
(1.24344e-06 4.14448e-06 0)
(1.53854e-06 5.15166e-06 0)
(1.84228e-06 6.21229e-06 0)
(2.01155e-06 6.83832e-06 0)
(1.86134e-06 6.36544e-06 0)
(1.3569e-06 4.63772e-06 0)
(7.37613e-07 2.49672e-06 0)
(2.92406e-07 9.72239e-07 0)
(8.62132e-08 2.80021e-07 0)
(2.02128e-08 6.37492e-08 0)
(4.18989e-09 1.25487e-08 0)
(8.47139e-10 2.12268e-09 0)
(1.62713e-10 3.58834e-11 0)
(9.8973e-12 -4.20476e-10 0)
(-2.90604e-11 -5.34751e-10 0)
(-3.99248e-11 -5.66132e-10 0)
(-4.23627e-11 -5.73052e-10 0)
(-4.1427e-11 -5.70311e-10 0)
(-3.84502e-11 -5.61786e-10 0)
(-3.36836e-11 -5.48248e-10 0)
(-2.70987e-11 -5.2971e-10 0)
(-1.87164e-11 -5.06361e-10 0)
(-8.75236e-12 -4.78951e-10 0)
(2.37063e-12 -4.48777e-10 0)
(1.41097e-11 -4.17413e-10 0)
(2.59356e-11 -3.86326e-10 0)
(3.74454e-11 -3.56565e-10 0)
(4.84067e-11 -3.28675e-10 0)
(5.87436e-11 -3.02783e-10 0)
(6.85068e-11 -2.78677e-10 0)
(7.78271e-11 -2.55947e-10 0)
(8.68661e-11 -2.34125e-10 0)
(9.57844e-11 -2.12772e-10 0)
(1.04725e-10 -1.91512e-10 0)
(1.13811e-10 -1.70031e-10 0)
(1.23145e-10 -1.48079e-10 0)
(1.3281e-10 -1.25462e-10 0)
(1.42882e-10 -1.02018e-10 0)
(1.53425e-10 -7.76088e-11 0)
(1.64497e-10 -5.21181e-11 0)
(1.76146e-10 -2.54598e-11 0)
(1.88405e-10 2.41871e-12 0)
(2.01293e-10 3.15308e-11 0)
(2.1481e-10 6.18484e-11 0)
(2.28942e-10 9.33052e-11 0)
(2.4366e-10 1.25812e-10 0)
(2.58935e-10 1.5927e-10 0)
(2.7473e-10 1.93579e-10 0)
(2.91017e-10 2.28647e-10 0)
(3.07769e-10 2.64401e-10 0)
(3.24966e-10 3.00776e-10 0)
(3.4259e-10 3.37714e-10 0)
(3.60626e-10 3.75164e-10 0)
(3.79056e-10 4.13073e-10 0)
(3.97863e-10 4.51386e-10 0)
(4.1703e-10 4.90048e-10 0)
(4.36538e-10 5.29004e-10 0)
(4.56367e-10 5.682e-10 0)
(4.76501e-10 6.07582e-10 0)
(4.96922e-10 6.47099e-10 0)
(5.17612e-10 6.86703e-10 0)
(5.38555e-10 7.26345e-10 0)
(5.59734e-10 7.65978e-10 0)
(5.81135e-10 8.05558e-10 0)
(6.02743e-10 8.4504e-10 0)
(6.24544e-10 8.84385e-10 0)
(6.46529e-10 9.23557e-10 0)
(6.68691e-10 9.62525e-10 0)
(6.91025e-10 1.00127e-09 0)
(7.13535e-10 1.03976e-09 0)
(7.36229e-10 1.07801e-09 0)
(7.59123e-10 1.116e-09 0)
(7.82242e-10 1.15376e-09 0)
(8.05622e-10 1.19132e-09 0)
(8.29309e-10 1.2287e-09 0)
(8.5336e-10 1.26596e-09 0)
(8.77839e-10 1.30315e-09 0)
(9.02814e-10 1.34032e-09 0)
(9.28351e-10 1.37749e-09 0)
(9.54505e-10 1.41468e-09 0)
(9.81307e-10 1.45184e-09 0)
(1.00876e-09 1.4889e-09 0)
(1.0368e-09 1.52568e-09 0)
(1.06535e-09 1.56197e-09 0)
(1.09422e-09 1.59746e-09 0)
(1.12318e-09 1.63181e-09 0)
(1.15189e-09 1.66457e-09 0)
(1.18002e-09 1.69532e-09 0)
(1.20724e-09 1.72371e-09 0)
(1.23336e-09 1.74961e-09 0)
(1.25836e-09 1.77305e-09 0)
(1.28232e-09 1.79421e-09 0)
(1.30541e-09 1.81324e-09 0)
(1.32787e-09 1.83037e-09 0)
(1.35005e-09 1.8459e-09 0)
(1.37197e-09 1.86e-09 0)
(1.39243e-09 1.87206e-09 0)
(1.40891e-09 1.88057e-09 0)
(1.41965e-09 1.88514e-09 0)
(1.42519e-09 1.88695e-09 0)
(1.42753e-09 1.88734e-09 0)
(1.42876e-09 1.88716e-09 0)
(1.43025e-09 1.88673e-09 0)
(8.82967e-07 -3.48667e-08 0)
(0.0295574 -9.50993e-06 0)
(0.0286448 7.54375e-05 0)
(0.0304064 -7.37791e-05 0)
(0.0351403 -7.64806e-05 0)
(0.0411798 -0.000140716 0)
(0.0476652 -0.000220156 0)
(0.0541206 -0.000317682 0)
(0.0602876 -0.000428688 0)
(0.0660405 -0.000549166 0)
(0.0713354 -0.000676043 0)
(0.0761751 -0.000806946 0)
(0.0805852 -0.000940224 0)
(0.0846006 -0.00107432 0)
(0.0882571 -0.00120799 0)
(0.0915883 -0.0013401 0)
(0.0946236 -0.00146964 0)
(0.0973883 -0.001596 0)
(0.0999029 -0.00171865 0)
(0.102184 -0.00183735 0)
(0.104245 -0.00195235 0)
(0.106094 -0.0020642 0)
(0.107737 -0.00217369 0)
(0.109179 -0.00228174 0)
(0.110421 -0.00238933 0)
(0.111463 -0.00249731 0)
(0.112303 -0.00260637 0)
(0.112941 -0.00271694 0)
(0.113374 -0.00282914 0)
(0.113603 -0.0029428 0)
(0.113626 -0.00305736 0)
(0.113444 -0.00317201 0)
(0.113059 -0.00328559 0)
(0.112474 -0.00339653 0)
(0.111693 -0.00350229 0)
(0.110724 -0.00359835 0)
(0.109576 -0.0036767 0)
(0.10826 -0.00372453 0)
(0.106796 -0.00372434 0)
(0.105204 -0.00365652 0)
(0.103513 -0.0035046 0)
(0.101757 -0.00326173 0)
(0.0999712 -0.00293525 0)
(0.098191 -0.00254629 0)
(0.096447 -0.00212464 0)
(0.0947621 -0.00170278 0)
(0.0931503 -0.00130954 0)
(0.0916179 -0.000961327 0)
(0.0901683 -0.000656629 0)
(0.0888079 -0.000382094 0)
(0.0875461 -0.000126125 0)
(0.0863906 0.000112543 0)
(0.085343 0.000327617 0)
(0.0843986 0.000514154 0)
(0.083541 0.000672955 0)
(0.0827548 0.000803492 0)
(0.0820313 0.00090627 0)
(0.0813665 0.000988171 0)
(0.080756 0.00105314 0)
(0.0801884 0.00110008 0)
(0.0796582 0.0011332 0)
(0.0791647 0.00115813 0)
(0.0786996 0.00117444 0)
(0.0782554 0.00118297 0)
(0.0778306 0.00118693 0)
(0.0774202 0.00118707 0)
(0.0770227 0.00118544 0)
(0.076635 0.00118313 0)
(0.076249 0.00117863 0)
(0.075869 0.00117544 0)
(0.0754949 0.00117539 0)
(0.0751138 0.00117431 0)
(0.0747271 0.00117386 0)
(0.0743391 0.00117692 0)
(0.0739444 0.00118204 0)
(0.0735385 0.00118824 0)
(0.0731195 0.00119489 0)
(0.0726942 0.00120529 0)
(0.0722602 0.00121964 0)
(0.0718094 0.00123381 0)
(0.0713487 0.00125139 0)
(0.0708774 0.00127292 0)
(0.0703891 0.00129447 0)
(0.0698854 0.00131611 0)
(0.0693703 0.00133783 0)
(0.068863 0.00137046 0)
(0.0683577 0.00141579 0)
(0.0678161 0.00143702 0)
(0.067182 0.00134074 0)
(0.0663211 0.00130889 0)
(-0.000187836 0.0112886 0)
(-0.00938336 0.0355345 0)
(-0.0102508 0.0668935 0)
(-0.0108815 0.000237236 0)
(-0.0117951 3.40671e-05 0)
(-0.0125462 5.01451e-05 0)
(-0.0131825 4.6251e-05 0)
(-0.0136698 4.25245e-05 0)
(-0.0139698 3.66807e-05 0)
(-0.0140211 2.78725e-05 0)
(-0.0137221 1.43644e-05 0)
(-0.0129055 -8.16169e-06 0)
(-0.0112675 -7.75913e-05 0)
(-0.00582518 -0.00011279 0)
(-0.0020807 -6.3546e-05 0)
(-0.0016579 -6.96713e-06 0)
(-0.00164903 6.75405e-08 0)
(-0.00164878 -5.97643e-09 0)
(-0.00164877 5.32949e-09 0)
(-0.00164876 3.66895e-09 0)
(-0.00164876 4.62725e-09 0)
(-0.00164875 3.6734e-09 0)
(-0.00164875 4.66928e-09 0)
(-0.00164874 3.63364e-09 0)
(-0.00164874 4.7154e-09 0)
(-0.00164874 3.59556e-09 0)
(-0.00164874 4.76473e-09 0)
(-0.00164874 3.55355e-09 0)
(-0.00164874 4.81531e-09 0)
(-0.00164874 3.50587e-09 0)
(-0.00164874 4.8677e-09 0)
(-0.00164874 3.45094e-09 0)
(-0.00164874 4.8691e-09 0)
(-0.00164874 3.5561e-09 0)
(-0.00164874 4.72885e-09 0)
(-0.00164874 3.55744e-09 0)
(-0.00164874 4.90743e-09 0)
(-0.00164874 3.41473e-09 0)
(-0.00164874 4.9692e-09 0)
(-0.00164874 3.35409e-09 0)
(-0.00164874 5.03374e-09 0)
(-0.00164874 3.29111e-09 0)
(-0.00164874 5.1009e-09 0)
(-0.00164874 3.22202e-09 0)
(-0.00164874 5.17077e-09 0)
(-0.00164874 3.14567e-09 0)
(-0.00164874 5.24909e-09 0)
(-0.00164874 3.07431e-09 0)
(-0.00164874 5.33082e-09 0)
(-0.00164874 2.99854e-09 0)
(-0.00164874 5.41697e-09 0)
(-0.00164874 2.92192e-09 0)
(-0.00164874 5.50602e-09 0)
(-0.00164874 2.84029e-09 0)
(-0.00164874 5.60244e-09 0)
(-0.00164874 2.7567e-09 0)
(-0.00164874 5.70219e-09 0)
(-0.00164874 2.66837e-09 0)
(-0.00164874 5.80884e-09 0)
(-0.00164874 2.5749e-09 0)
(-0.00164874 5.90665e-09 0)
(-0.00164874 2.46363e-09 0)
(-0.00164874 6.00515e-09 0)
(-0.00164874 2.34916e-09 0)
(-0.00164874 6.10716e-09 0)
(-0.00164874 2.23017e-09 0)
(-0.00164874 6.21486e-09 0)
(-0.00164874 2.10909e-09 0)
(-0.00164874 6.32375e-09 0)
(-0.00164874 1.98429e-09 0)
(-0.00164874 6.43776e-09 0)
(-0.00164874 1.8626e-09 0)
(-0.00164874 6.57179e-09 0)
(-0.00164874 2.06183e-09 0)
(-0.00164874 6.31172e-09 0)
(-0.00164874 2.04759e-09 0)
(-0.00164874 6.32665e-09 0)
(-0.00164874 2.03021e-09 0)
(-0.00164874 6.34417e-09 0)
(-0.00164874 2.01799e-09 0)
(-0.00164874 6.36525e-09 0)
(-0.00164874 2.00904e-09 0)
(-0.00164874 6.39218e-09 0)
(-0.00164874 2.00505e-09 0)
(-0.00164874 6.41737e-09 0)
(-0.00164874 1.99945e-09 0)
(-0.00164874 6.44629e-09 0)
(-0.00164874 2.00075e-09 0)
(-0.00164874 6.47631e-09 0)
(-0.00164874 2.00707e-09 0)
(-0.00164874 6.52386e-09 0)
(-0.00164874 2.02512e-09 0)
(-0.00164874 6.55539e-09 0)
(-0.00164874 2.03626e-09 0)
(-0.00164874 6.6102e-09 0)
(-0.00164874 2.07196e-09 0)
(-0.00164874 6.67263e-09 0)
(-0.00164874 2.11988e-09 0)
(-0.00164874 6.76218e-09 0)
(-0.00164874 2.18856e-09 0)
(-0.00164874 6.84172e-09 0)
(-0.00164874 2.251e-09 0)
(-0.00164874 6.9453e-09 0)
(-0.00164874 2.34429e-09 0)
(-0.00164874 7.0613e-09 0)
(-0.00164874 2.44819e-09 0)
(-0.00164874 7.19685e-09 0)
(-0.00164874 2.58621e-09 0)
(-0.00164874 7.37036e-09 0)
(-0.00164874 2.74878e-09 0)
(-0.00164874 7.52901e-09 0)
(-0.00164874 2.88072e-09 0)
(-0.00164874 7.66148e-09 0)
(-0.00164874 2.95521e-09 0)
(-0.00164874 7.64676e-09 0)
(-0.00164874 2.93321e-09 0)
(-0.00164874 7.73933e-09 0)
(-0.00164874 2.9446e-09 0)
(-0.00164874 7.52984e-09 0)
(-0.00164873 -3.50391e-09 0)
(-0.0016487 -8.2311e-07 0)
(-0.0016478 -6.59444e-05 0)
(-0.00162709 -7.1377e-05 0)
)
;

boundaryField
{
    inandouthalf11
    {
        type            cyclic;
    }
    inandouthalf12
    {
        type            cyclic;
    }
    inandouthalf21
    {
        type            cyclic;
    }
    inandouthalf22
    {
        type            cyclic;
    }
    inandouthalf31
    {
        type            cyclic;
    }
    inandouthalf32
    {
        type            cyclic;
    }
    inandouthalf41
    {
        type            cyclic;
    }
    inandouthalf42
    {
        type            cyclic;
    }
    top
    {
        type            symmetryPlane;
    }
    walls
    {
        type            calculated;
        value           uniform (0 0 0);
    }
    frontAndBackPlanes
    {
        type            empty;
    }
}


// ************************************************************************* //
