/*--------------------------------*- C++ -*----------------------------------*\
| =========                 |                                                 |
| \\      /  F ield         | OpenFOAM: The Open Source CFD Toolbox           |
|  \\    /   O peration     | Version:  2.4.x                                 |
|   \\  /    A nd           | Web:      www.OpenFOAM.org                      |
|    \\/     M anipulation  |                                                 |
\*---------------------------------------------------------------------------*/
FoamFile
{
    version     2.0;
    format      ascii;
    class       volScalarField;
    location    "5.4";
    object      epsilon;
}
// * * * * * * * * * * * * * * * * * * * * * * * * * * * * * * * * * * * * * //

dimensions      [0 2 -3 0 0 0 0];

internalField   nonuniform List<scalar> 
360
(
1e-20
1e-20
1e-20
1e-20
1e-20
1e-20
1e-20
1e-20
1e-20
1e-20
1e-20
1e-20
1e-20
1e-20
1e-20
1e-20
1e-20
1e-20
1e-20
1e-20
1e-20
1e-20
1e-20
1e-20
1e-20
1e-20
1e-20
1e-20
1e-20
1e-20
1e-20
1e-20
1e-20
1e-20
1e-20
1e-20
1e-20
1e-20
1e-20
1e-20
1e-20
1e-20
1e-20
1e-20
1e-20
1e-20
1e-20
1e-20
1e-20
1e-20
1e-20
1e-20
1e-20
1e-20
1e-20
1e-20
1e-20
1e-20
1e-20
1e-20
1e-20
1e-20
1e-20
1e-20
1e-20
1e-20
1e-20
1e-20
1e-20
1e-20
1e-20
1e-20
1e-20
1e-20
1e-20
1e-20
1e-20
1e-20
1e-20
1e-20
1e-20
1e-20
1e-20
1e-20
1e-20
1e-20
1e-20
1e-20
1e-20
1e-20
1e-20
1e-20
1e-20
1e-20
1e-20
1e-20
1e-20
1e-20
1e-20
1e-20
1e-20
1e-20
1e-20
1e-20
1e-20
1e-20
1e-20
1e-20
1e-20
1e-20
1e-20
1e-20
1e-20
1e-20
1e-20
1e-20
1e-20
1e-20
1e-20
1e-20
1e-20
1e-20
1e-20
1e-20
1e-20
1e-20
1e-20
1e-20
1e-20
1e-20
1e-20
1e-20
3.09828e-20
1.63362e-19
9.6503e-19
6.25751e-18
4.51314e-17
3.67554e-16
3.43064e-15
3.72128e-14
4.75277e-13
7.24159e-12
1.33412e-10
3.00557e-09
8.35191e-08
2.88257e-06
0.000122892
0.00520638
0.0783345
0.161142
0.170874
0.164202
0.152931
0.140773
0.129085
0.118347
0.108677
0.100042
0.0923509
0.0854932
0.0793618
0.0738589
0.0688987
0.0644073
0.060322
0.0565893
0.0531643
0.0500087
0.04709
0.0443805
0.0418567
0.0394984
0.037288
0.0352108
0.0332535
0.0314051
0.0296557
0.0279968
0.026421
0.0249217
0.0234933
0.0221309
0.02083
0.019587
0.0183985
0.0172616
0.0161739
0.0151332
0.0141378
0.0131861
0.0122768
0.0114089
0.0105814
0.00979361
0.00904497
0.00833497
0.0076632
0.00702927
0.00643284
0.00587354
0.00535097
0.00485972
0.004396
0.0039611
0.00355613
0.00318193
0.00283902
0.00252755
0.00224723
0.00199729
0.00177655
0.00158339
0.00141584
0.00127168
0.00114856
0.00104408
0.000955868
0.000881711
0.000819551
0.000767527
0.00072399
0.000687483
0.000656735
0.000630637
0.000608222
0.000588643
0.00057116
0.00055512
0.000539948
0.000525135
0.000510233
0.000494849
0.00047864
0.000461312
0.000442619
0.000422359
0.000400383
0.000376589
0.000350931
0.000323421
0.000294137
0.000263235
0.000230954
0.000197643
0.000163773
0.000129977
9.70851e-05
6.61924e-05
3.87398e-05
1.6667e-05
3.31318e-06
1.70731e-07
3.1852e-09
4.99746e-11
7.37754e-13
1.02785e-14
1.35225e-16
1.6879e-18
2.80125e-20
1e-20
1e-20
1e-20
1e-20
1e-20
1e-20
1e-20
1e-20
1e-20
1e-20
1e-20
1e-20
1e-20
1e-20
1e-20
1e-20
1e-20
1e-20
1e-20
1e-20
1e-20
1e-20
1e-20
1e-20
1e-20
1e-20
1e-20
1e-20
1e-20
1e-20
1e-20
1e-20
1e-20
1e-20
1e-20
1e-20
1e-20
1e-20
1e-20
1e-20
1e-20
1e-20
1e-20
1e-20
1e-20
1e-20
1e-20
1e-20
1e-20
1e-20
1e-20
1e-20
1e-20
1e-20
1e-20
1e-20
1e-20
1e-20
1e-20
1e-20
1e-20
1e-20
1e-20
1e-20
1e-20
1e-20
1e-20
1e-20
1e-20
1e-20
1e-20
1e-20
1e-20
1e-20
1e-20
1e-20
1e-20
1e-20
1e-20
1e-20
1e-20
1e-20
1e-20
1e-20
1e-20
1e-20
1e-20
1e-20
1e-20
1e-20
1e-20
1e-20
1e-20
1e-20
1e-20
1e-20
1e-20
1e-20
1e-20
1e-20
1e-20
)
;

boundaryField
{
    inandouthalf11
    {
        type            cyclic;
    }
    inandouthalf12
    {
        type            cyclic;
    }
    inandouthalf21
    {
        type            cyclic;
    }
    inandouthalf22
    {
        type            cyclic;
    }
    inandouthalf31
    {
        type            cyclic;
    }
    inandouthalf32
    {
        type            cyclic;
    }
    inandouthalf41
    {
        type            cyclic;
    }
    inandouthalf42
    {
        type            cyclic;
    }
    top
    {
        type            symmetryPlane;
    }
    walls
    {
        type            zeroGradient;
    }
    frontAndBackPlanes
    {
        type            empty;
    }
}


// ************************************************************************* //
