/*--------------------------------*- C++ -*----------------------------------*\
| =========                 |                                                 |
| \\      /  F ield         | OpenFOAM: The Open Source CFD Toolbox           |
|  \\    /   O peration     | Version:  2.4.x                                 |
|   \\  /    A nd           | Web:      www.OpenFOAM.org                      |
|    \\/     M anipulation  |                                                 |
\*---------------------------------------------------------------------------*/
FoamFile
{
    version     2.0;
    format      ascii;
    class       volScalarField;
    location    "5.4";
    object      k_0;
}
// * * * * * * * * * * * * * * * * * * * * * * * * * * * * * * * * * * * * * //

dimensions      [0 2 -2 0 0 0 0];

internalField   nonuniform List<scalar> 
360
(
1e-20
1e-20
1e-20
1e-20
1e-20
1e-20
1e-20
1e-20
1e-20
1e-20
1e-20
1e-20
1e-20
1e-20
1e-20
1e-20
1e-20
1e-20
1e-20
1e-20
1e-20
1e-20
1e-20
1e-20
1e-20
1e-20
1e-20
1e-20
1e-20
1e-20
1e-20
1e-20
1e-20
1e-20
1e-20
1e-20
1e-20
1e-20
1e-20
1e-20
1e-20
1e-20
1e-20
1e-20
1e-20
1e-20
1e-20
1e-20
1e-20
1e-20
1e-20
1e-20
1e-20
1e-20
1e-20
1e-20
1e-20
1e-20
1e-20
1e-20
1e-20
1e-20
1e-20
1e-20
1e-20
1e-20
1e-20
1e-20
1e-20
1e-20
1e-20
1e-20
1e-20
1e-20
1e-20
1e-20
1e-20
1e-20
1e-20
1e-20
1e-20
1e-20
1e-20
1e-20
1e-20
1e-20
1e-20
1e-20
1e-20
1e-20
1e-20
1e-20
1e-20
1e-20
1e-20
1e-20
1e-20
1e-20
1e-20
1e-20
1e-20
1e-20
1e-20
1e-20
1e-20
1e-20
1e-20
1e-20
1e-20
1e-20
1e-20
1e-20
1e-20
1e-20
1e-20
1e-20
1e-20
1e-20
1e-20
1e-20
1e-20
1e-20
1e-20
1e-20
1e-20
1e-20
1e-20
1e-20
1e-20
1e-20
1e-20
1e-20
2.22429e-20
1.02279e-19
5.30813e-19
2.98506e-18
1.84137e-17
1.26564e-16
9.85167e-16
8.81823e-15
9.19955e-14
1.13329e-12
1.67418e-11
3.00607e-10
6.62324e-09
1.80575e-07
6.0653e-06
0.000197827
0.00235642
0.00518424
0.00649665
0.00724849
0.00772355
0.00804032
0.00825807
0.00840858
0.00850982
0.00857264
0.00860411
0.00860924
0.00859182
0.00855486
0.00850083
0.00843181
0.00834953
0.00825552
0.00815107
0.00803729
0.00791516
0.00778555
0.00764921
0.0075068
0.00735893
0.00720613
0.0070489
0.00688769
0.0067229
0.00655493
0.00638414
0.00621088
0.00603548
0.00585825
0.00567953
0.00549962
0.00531884
0.0051375
0.00495593
0.00477445
0.00459341
0.00441315
0.00423403
0.00405642
0.00388069
0.00370724
0.00353647
0.00336879
0.00320463
0.00304442
0.0028886
0.00273761
0.00259187
0.00245037
0.00231237
0.00217858
0.00204975
0.00192659
0.0018098
0.00169997
0.00159763
0.00150315
0.00141675
0.00133848
0.00126821
0.00120566
0.00115039
0.00110187
0.00105948
0.00102256
0.000990444
0.000962461
0.000937974
0.000916378
0.000897106
0.000879626
0.000863445
0.000848103
0.000833172
0.00081825
0.000802965
0.00078697
0.000769938
0.00075157
0.000731589
0.000709742
0.0006858
0.000659562
0.000630852
0.000599528
0.00056548
0.000528639
0.000488981
0.000446537
0.000401408
0.000353782
0.000303962
0.000252406
0.000199794
0.000147139
9.59858e-05
4.89281e-05
1.23812e-05
7.65035e-07
1.46457e-08
2.28588e-10
3.3549e-12
4.64768e-14
6.08101e-16
7.52455e-18
9.60173e-20
1.03154e-20
1e-20
1e-20
1e-20
1e-20
1e-20
1e-20
1e-20
1e-20
1e-20
1e-20
1e-20
1e-20
1e-20
1e-20
1e-20
1e-20
1e-20
1e-20
1e-20
1e-20
1e-20
1e-20
1e-20
1e-20
1e-20
1e-20
1e-20
1e-20
1e-20
1e-20
1e-20
1e-20
1e-20
1e-20
1e-20
1e-20
1e-20
1e-20
1e-20
1e-20
1e-20
1e-20
1e-20
1e-20
1e-20
1e-20
1e-20
1e-20
1e-20
1e-20
1e-20
1e-20
1e-20
1e-20
1e-20
1e-20
1e-20
1e-20
1e-20
1e-20
1e-20
1e-20
1e-20
1e-20
1e-20
1e-20
1e-20
1e-20
1e-20
1e-20
1e-20
1e-20
1e-20
1e-20
1e-20
1e-20
1e-20
1e-20
1e-20
1e-20
1e-20
1e-20
1e-20
1e-20
1e-20
1e-20
1e-20
1e-20
1e-20
1e-20
1e-20
1e-20
1e-20
1e-20
1e-20
1e-20
1e-20
1e-20
1e-20
1e-20
)
;

boundaryField
{
    inandouthalf11
    {
        type            cyclic;
    }
    inandouthalf12
    {
        type            cyclic;
    }
    inandouthalf21
    {
        type            cyclic;
    }
    inandouthalf22
    {
        type            cyclic;
    }
    inandouthalf31
    {
        type            cyclic;
    }
    inandouthalf32
    {
        type            cyclic;
    }
    inandouthalf41
    {
        type            cyclic;
    }
    inandouthalf42
    {
        type            cyclic;
    }
    top
    {
        type            symmetryPlane;
    }
    walls
    {
        type            zeroGradient;
    }
    frontAndBackPlanes
    {
        type            empty;
    }
}


// ************************************************************************* //
