/*--------------------------------*- C++ -*----------------------------------*\
| =========                 |                                                 |
| \\      /  F ield         | OpenFOAM: The Open Source CFD Toolbox           |
|  \\    /   O peration     | Version:  2.4.x                                 |
|   \\  /    A nd           | Web:      www.OpenFOAM.org                      |
|    \\/     M anipulation  |                                                 |
\*---------------------------------------------------------------------------*/
FoamFile
{
    version     2.0;
    format      ascii;
    class       volScalarField;
    location    "5.4";
    object      mua;
}
// * * * * * * * * * * * * * * * * * * * * * * * * * * * * * * * * * * * * * //

dimensions      [1 -1 -1 0 0 0 0];

internalField   nonuniform List<scalar> 
360
(
697326
448725
536256
572629
550850
530456
519748
513384
508233
502485
495684
488433
481280
474524
468073
461717
455398
449184
443087
437101
431315
425511
419608
413534
407177
400471
393332
385701
377841
370103
362857
356629
352105
349638
349815
352566
357290
362470
365852
364399
354251
332985
300307
259103
215706
177268
149928
138451
149228
200070
350243
819488
2.54888e+06
1.01023e+07
4.68538e+07
2.24507e+08
9.73999e+08
3.42938e+09
9.16759e+09
1.81441e+10
2.6893e+10
3.1236e+10
3.03121e+10
2.63173e+10
2.16568e+10
1.76012e+10
1.44847e+10
1.22281e+10
1.06401e+10
9.53428e+09
8.76423e+09
8.23649e+09
7.88644e+09
7.65919e+09
7.52162e+09
7.44893e+09
7.42314e+09
7.42199e+09
7.42391e+09
7.41123e+09
7.36978e+09
7.28788e+09
7.16177e+09
6.99513e+09
6.79631e+09
6.57667e+09
6.34768e+09
6.11952e+09
5.89868e+09
5.68823e+09
5.4891e+09
5.30047e+09
5.12066e+09
4.94838e+09
4.7829e+09
4.62402e+09
4.47192e+09
4.32694e+09
4.18929e+09
4.05899e+09
3.93583e+09
3.81946e+09
3.70944e+09
3.60533e+09
3.50676e+09
3.41333e+09
3.32465e+09
3.24031e+09
3.15983e+09
3.08271e+09
3.00835e+09
2.93611e+09
2.86529e+09
2.79509e+09
2.72467e+09
2.65316e+09
2.57967e+09
2.50342e+09
2.42384e+09
2.34066e+09
2.25414e+09
2.16511e+09
2.07508e+09
1.9861e+09
1.90061e+09
1.82122e+09
1.75049e+09
1.691e+09
1.64549e+09
1.61693e+09
1.608e+09
1.61936e+09
1.6474e+09
1.68369e+09
1.71867e+09
1.74573e+09
1.75765e+09
1.74112e+09
1.69339e+09
1.6672e+09
1.80144e+09
2.33018e+09
3.68251e+09
7.11308e+09
1.49212e+10
1.59851e+10
13104.7
0.0296231
0.0113043
0.00855439
0.00734814
0.00659791
0.00613197
0.00585616
0.00570549
0.00563292
0.00560591
0.00560324
0.00561176
0.00562378
0.00563495
0.00564299
0.0056468
0.00564597
0.00564046
0.00563043
0.00561614
0.00559789
0.00557599
0.00555074
0.00552245
0.0054914
0.00545788
0.00542214
0.00538446
0.00534507
0.00530424
0.00526218
0.00521914
0.00517535
0.00513102
0.00508637
0.00504161
0.00499692
0.0049525
0.0049085
0.00486507
0.00482233
0.00478039
0.00473931
0.00469912
0.00465984
0.00462147
0.00458397
0.00454731
0.00451144
0.00447631
0.00444185
0.00440801
0.0043747
0.00434183
0.00430899
0.00427579
0.00424213
0.00420794
0.00417314
0.00413761
0.00410129
0.00406405
0.0040258
0.00398642
0.0039458
0.00390382
0.00386032
0.00381518
0.00376823
0.0037193
0.00366818
0.00361467
0.00355853
0.00349947
0.00343717
0.00337127
0.00330134
0.00322683
0.00314713
0.00306145
0.0029688
0.00286791
0.00275708
0.00263397
0.0024952
0.00233557
0.00214636
0.00191076
0.00158749
0
0
0
0
0
0
0
0
0
0
0
0
0
0
0
0
0
0
0
0
0
0
0
0
0
0
0
0
0
0
0
0
0
0
0
0
0
0
0
0
0
0
0
0
0
0
0
0
0
0
0
0
0
0
0
0
0
0
0
0
0
0
0
0
0
0
0
0
0
0
0
0
0
0
0
0
0
0
0
0
0
0
0
0
0
0
0
0
0
0
0
0
0
0
0
0
0
0
0
0
0
0
0
0
0
0
0
0
0
0
0
0
0
0
0
0
0
0
0
0
0
0
0
0
)
;

boundaryField
{
    inandouthalf11
    {
        type            cyclic;
    }
    inandouthalf12
    {
        type            cyclic;
    }
    inandouthalf21
    {
        type            cyclic;
    }
    inandouthalf22
    {
        type            cyclic;
    }
    inandouthalf31
    {
        type            cyclic;
    }
    inandouthalf32
    {
        type            cyclic;
    }
    inandouthalf41
    {
        type            cyclic;
    }
    inandouthalf42
    {
        type            cyclic;
    }
    top
    {
        type            symmetryPlane;
    }
    walls
    {
        type            calculated;
        value           uniform 1e+30;
    }
    frontAndBackPlanes
    {
        type            empty;
    }
}


// ************************************************************************* //
