/*--------------------------------*- C++ -*----------------------------------*\
| =========                 |                                                 |
| \\      /  F ield         | OpenFOAM: The Open Source CFD Toolbox           |
|  \\    /   O peration     | Version:  2.4.x                                 |
|   \\  /    A nd           | Web:      www.OpenFOAM.org                      |
|    \\/     M anipulation  |                                                 |
\*---------------------------------------------------------------------------*/
FoamFile
{
    version     2.0;
    format      ascii;
    class       volScalarField;
    location    "5.4";
    object      nutb;
}
// * * * * * * * * * * * * * * * * * * * * * * * * * * * * * * * * * * * * * //

dimensions      [0 2 -1 0 0 0 0];

internalField   nonuniform List<scalar> 
360
(
9e-22
9e-22
9e-22
9e-22
9e-22
9e-22
9e-22
9e-22
9e-22
9e-22
9e-22
9e-22
9e-22
9e-22
9e-22
9e-22
9e-22
9e-22
9e-22
9e-22
9e-22
9e-22
9e-22
9e-22
9e-22
9e-22
9e-22
9e-22
9e-22
9e-22
9e-22
9e-22
9e-22
9e-22
9e-22
9e-22
9e-22
9e-22
9e-22
9e-22
9e-22
9e-22
9e-22
9e-22
9e-22
9e-22
9e-22
9e-22
9e-22
9e-22
9e-22
9e-22
9e-22
9e-22
9e-22
9e-22
9e-22
9e-22
9e-22
9e-22
9e-22
9e-22
9e-22
9e-22
9e-22
9e-22
9e-22
9e-22
9e-22
9e-22
9e-22
9e-22
9e-22
9e-22
9e-22
9e-22
9e-22
9e-22
9e-22
9e-22
9e-22
9e-22
9e-22
9e-22
9e-22
9e-22
9e-22
9e-22
9e-22
9e-22
9e-22
9e-22
9e-22
9e-22
9e-22
9e-22
9e-22
9e-22
9e-22
9e-22
9e-22
9e-22
9e-22
9e-22
9e-22
9e-22
9e-22
9e-22
9e-22
9e-22
9e-22
9e-22
9e-22
9e-22
9e-22
9e-22
9e-22
9e-22
9e-22
9e-22
9e-22
9e-22
9e-22
9e-22
9e-22
9e-22
9e-22
9e-22
9e-22
9e-22
9e-22
9e-22
1.43695e-21
5.76192e-21
2.62708e-20
1.28121e-19
6.75939e-19
3.92096e-18
2.5452e-17
1.87988e-16
1.60185e-15
1.59538e-14
1.88975e-13
2.70424e-12
4.72402e-11
1.01736e-09
2.69217e-08
6.76064e-07
6.37773e-06
1.50092e-05
2.22286e-05
2.87959e-05
3.51038e-05
4.13279e-05
4.75445e-05
5.37663e-05
5.9969e-05
6.61105e-05
7.21437e-05
7.80241e-05
8.37128e-05
8.91781e-05
9.43951e-05
9.93449e-05
0.000104014
0.000108392
0.000112475
0.000116258
0.000119741
0.000122926
0.000125813
0.000128408
0.000130715
0.000132739
0.000134486
0.000135964
0.000137178
0.000138138
0.00013885
0.000139323
0.000139565
0.000139586
0.000139394
0.000138999
0.000138411
0.000137641
0.000136699
0.000135598
0.000134348
0.000132964
0.000131456
0.00012984
0.00012813
0.00012634
0.000124487
0.000122586
0.000120657
0.000118717
0.000116787
0.000114887
0.000113039
0.000111248
0.000109522
0.00010789
0.000106384
0.000105037
0.000103882
0.00010295
0.000102269
0.000101856
0.000101723
0.000101866
0.00010227
0.000102904
0.000103724
0.000104677
0.000105704
0.000106742
0.000107733
0.000108622
0.000109366
0.000109928
0.000110282
0.000110412
0.000110306
0.000109959
0.000109368
0.000108533
0.000107453
0.000106125
0.000104548
0.000102717
0.000100625
9.82627e-05
9.5621e-05
9.26878e-05
8.945e-05
8.58934e-05
8.20035e-05
7.77645e-05
7.31608e-05
6.81765e-05
6.27958e-05
5.70036e-05
5.07857e-05
4.41292e-05
3.70232e-05
2.9459e-05
2.14297e-05
1.2956e-05
4.18563e-06
3.11466e-07
6.12794e-09
9.51713e-11
1.38898e-12
1.91376e-14
2.49077e-16
3.05595e-18
2.99574e-20
9.58456e-22
9e-22
9e-22
9e-22
9e-22
9e-22
9e-22
9e-22
9e-22
9e-22
9e-22
9e-22
9e-22
9e-22
9e-22
9e-22
9e-22
9e-22
9e-22
9e-22
9e-22
9e-22
9e-22
9e-22
9e-22
9e-22
9e-22
9e-22
9e-22
9e-22
9e-22
9e-22
9e-22
9e-22
9e-22
9e-22
9e-22
9e-22
9e-22
9e-22
9e-22
9e-22
9e-22
9e-22
9e-22
9e-22
9e-22
9e-22
9e-22
9e-22
9e-22
9e-22
9e-22
9e-22
9e-22
9e-22
9e-22
9e-22
9e-22
9e-22
9e-22
9e-22
9e-22
9e-22
9e-22
9e-22
9e-22
9e-22
9e-22
9e-22
9e-22
9e-22
9e-22
9e-22
9e-22
9e-22
9e-22
9e-22
9e-22
9e-22
9e-22
9e-22
9e-22
9e-22
9e-22
9e-22
9e-22
9e-22
9e-22
9e-22
9e-22
9e-22
9e-22
9e-22
9e-22
9e-22
9e-22
9e-22
9e-22
9e-22
9e-22
)
;

boundaryField
{
    inandouthalf11
    {
        type            cyclic;
    }
    inandouthalf12
    {
        type            cyclic;
    }
    inandouthalf21
    {
        type            cyclic;
    }
    inandouthalf22
    {
        type            cyclic;
    }
    inandouthalf31
    {
        type            cyclic;
    }
    inandouthalf32
    {
        type            cyclic;
    }
    inandouthalf41
    {
        type            cyclic;
    }
    inandouthalf42
    {
        type            cyclic;
    }
    top
    {
        type            symmetryPlane;
    }
    walls
    {
        type            calculated;
        value           uniform 0;
    }
    frontAndBackPlanes
    {
        type            empty;
    }
}


// ************************************************************************* //
