/*--------------------------------*- C++ -*----------------------------------*\
| =========                 |                                                 |
| \\      /  F ield         | OpenFOAM: The Open Source CFD Toolbox           |
|  \\    /   O peration     | Version:  2.4.x                                 |
|   \\  /    A nd           | Web:      www.OpenFOAM.org                      |
|    \\/     M anipulation  |                                                 |
\*---------------------------------------------------------------------------*/
FoamFile
{
    version     2.0;
    format      ascii;
    class       volScalarField;
    location    "5.4";
    object      pa;
}
// * * * * * * * * * * * * * * * * * * * * * * * * * * * * * * * * * * * * * //

dimensions      [1 -1 -2 0 0 0 0];

internalField   nonuniform List<scalar> 
360
(
2.89796e-16
2.92557e-16
2.92673e-16
2.9236e-16
2.92248e-16
2.92224e-16
2.92184e-16
2.92124e-16
2.9206e-16
2.91995e-16
2.91931e-16
2.91869e-16
2.91806e-16
2.91743e-16
2.91678e-16
2.91613e-16
2.91546e-16
2.9148e-16
2.91412e-16
2.91343e-16
2.91275e-16
2.91205e-16
2.91136e-16
2.91067e-16
2.90999e-16
2.90932e-16
2.90868e-16
2.90805e-16
2.90744e-16
2.90683e-16
2.90619e-16
2.90548e-16
2.90469e-16
2.90373e-16
2.90264e-16
2.90139e-16
2.90006e-16
2.89873e-16
2.89751e-16
2.89658e-16
2.89605e-16
2.89621e-16
2.89744e-16
2.90041e-16
2.90615e-16
2.91535e-16
2.92618e-16
2.93102e-16
2.92066e-16
2.89907e-16
2.88196e-16
2.87505e-16
2.87328e-16
2.87263e-16
2.87211e-16
2.87154e-16
2.87097e-16
2.87034e-16
2.86969e-16
2.86902e-16
2.86829e-16
2.86756e-16
2.86678e-16
2.866e-16
2.86519e-16
2.86437e-16
2.86352e-16
2.86264e-16
2.86173e-16
2.86079e-16
2.8598e-16
2.85877e-16
2.85774e-16
2.85665e-16
2.85554e-16
2.8544e-16
2.85325e-16
2.85207e-16
2.85086e-16
2.84963e-16
2.84837e-16
2.84707e-16
2.84574e-16
2.84437e-16
2.84297e-16
2.84154e-16
2.84008e-16
2.83858e-16
2.83706e-16
2.83551e-16
2.83392e-16
2.8323e-16
2.83064e-16
2.82895e-16
2.82722e-16
2.82544e-16
2.82363e-16
2.82178e-16
2.81988e-16
2.81795e-16
2.81596e-16
2.81394e-16
2.81186e-16
2.80974e-16
2.80757e-16
2.80534e-16
2.80306e-16
2.80072e-16
2.79833e-16
2.79587e-16
2.79335e-16
2.79076e-16
2.7881e-16
2.78537e-16
2.78257e-16
2.77969e-16
2.77672e-16
2.77367e-16
2.77054e-16
2.7673e-16
2.76397e-16
2.76054e-16
2.757e-16
2.75336e-16
2.74959e-16
2.7457e-16
2.74168e-16
2.73752e-16
2.73321e-16
2.72873e-16
2.72407e-16
2.71926e-16
6.03555e-16
2.76947e-15
1.4341e-14
8.04536e-14
4.95009e-13
3.39287e-12
2.63265e-11
2.34784e-10
2.43941e-09
2.99317e-08
4.404e-07
7.93072e-06
0.000219736
0.0151848
0.540464
5.23504
4.641
4.14411
3.33925
2.62536
2.05007
1.60018
1.25313
0.986655
0.781896
0.623903
0.501247
0.40535
0.329817
0.269884
0.22199
0.18346
0.152269
0.126871
0.10608
0.0889773
0.0748446
0.0631187
0.053353
0.0451923
0.0383516
0.032601
0.0277544
0.0236599
0.0201935
0.017253
0.014754
0.0126267
0.0108129
0.00926417
0.00793943
0.00680393
0.00582791
0.00498601
0.004257
0.00362375
0.00307318
0.0025957
0.0021841
0.00183228
0.00153456
0.0012854
0.00107836
0.000905666
0.000759682
0.000634931
0.0005285
0.000438909
0.000364426
0.000302138
0.000250248
0.00020762
0.000172022
0.000142231
0.000117983
9.79185e-05
8.09796e-05
6.70762e-05
5.56061e-05
4.59761e-05
3.80439e-05
3.13989e-05
2.58107e-05
2.12817e-05
1.74369e-05
1.41861e-05
1.15828e-05
9.39761e-06
7.57157e-06
6.07929e-06
4.84444e-06
3.85503e-06
3.02479e-06
2.34849e-06
1.8179e-06
1.37967e-06
1.03401e-06
7.63378e-07
5.52268e-07
3.89324e-07
2.63684e-07
1.63361e-07
1.01725e-07
5.13578e-08
0
0
0
0
0
0
0
0
0
0
0
0
0
0
0
0
0
0
0
0
0
0
0
0
0
0
0
0
0
0
0
0
0
0
0
0
0
0
0
0
0
0
0
0
0
0
0
0
0
0
0
0
0
0
0
0
0
0
0
0
0
0
0
0
0
0
0
0
0
0
0
0
0
0
0
0
0
0
0
0
0
0
0
0
0
0
0
0
0
0
0
0
0
0
0
0
0
0
0
0
0
0
0
0
0
0
0
0
0
0
0
0
0
0
0
0
0
0
0
0
0
0
0
0
)
;

boundaryField
{
    inandouthalf11
    {
        type            cyclic;
    }
    inandouthalf12
    {
        type            cyclic;
    }
    inandouthalf21
    {
        type            cyclic;
    }
    inandouthalf22
    {
        type            cyclic;
    }
    inandouthalf31
    {
        type            cyclic;
    }
    inandouthalf32
    {
        type            cyclic;
    }
    inandouthalf41
    {
        type            cyclic;
    }
    inandouthalf42
    {
        type            cyclic;
    }
    top
    {
        type            symmetryPlane;
    }
    walls
    {
        type            calculated;
        value           uniform 2.89796e-16;
    }
    frontAndBackPlanes
    {
        type            empty;
    }
}


// ************************************************************************* //
