/*--------------------------------*- C++ -*----------------------------------*\
| =========                 |                                                 |
| \\      /  F ield         | OpenFOAM: The Open Source CFD Toolbox           |
|  \\    /   O peration     | Version:  2.4.x                                 |
|   \\  /    A nd           | Web:      www.OpenFOAM.org                      |
|    \\/     M anipulation  |                                                 |
\*---------------------------------------------------------------------------*/
FoamFile
{
    version     2.0;
    format      ascii;
    class       surfaceScalarField;
    location    "5.4";
    object      phia;
}
// * * * * * * * * * * * * * * * * * * * * * * * * * * * * * * * * * * * * * //

dimensions      [0 3 -1 0 0 0 0];

internalField   nonuniform List<scalar> 
359
(
-4.74369e-13
-1.26617e-12
-1.99489e-12
-2.67253e-12
-3.35686e-12
-4.05949e-12
-4.77285e-12
-5.49062e-12
-6.21041e-12
-6.93319e-12
-7.66055e-12
-8.39313e-12
-9.13108e-12
-9.87392e-12
-1.06213e-11
-1.13732e-11
-1.21297e-11
-1.28907e-11
-1.36561e-11
-1.4426e-11
-1.51999e-11
-1.59781e-11
-1.67609e-11
-1.75487e-11
-1.83422e-11
-1.91424e-11
-1.99502e-11
-2.07671e-11
-2.15937e-11
-2.24304e-11
-2.32761e-11
-2.41292e-11
-2.49853e-11
-2.58399e-11
-2.66862e-11
-2.75185e-11
-2.83323e-11
-2.91274e-11
-2.99083e-11
-3.0685e-11
-3.14769e-11
-3.23116e-11
-3.32279e-11
-3.42793e-11
-3.55277e-11
-3.70278e-11
-3.87777e-11
-4.06457e-11
-4.23553e-11
-4.36152e-11
-4.43273e-11
-4.46294e-11
-4.47259e-11
-4.47502e-11
-4.47554e-11
-4.47564e-11
-4.47567e-11
-4.47568e-11
-4.47568e-11
-4.47568e-11
-4.47568e-11
-4.47568e-11
-4.47568e-11
-4.47568e-11
-4.47568e-11
-4.47568e-11
-4.47569e-11
-4.47569e-11
-4.47569e-11
-4.47569e-11
-4.47569e-11
-4.4757e-11
-4.4757e-11
-4.4757e-11
-4.4757e-11
-4.47571e-11
-4.47571e-11
-4.47571e-11
-4.47572e-11
-4.47572e-11
-4.47572e-11
-4.47572e-11
-4.47573e-11
-4.47573e-11
-4.47573e-11
-4.47573e-11
-4.47574e-11
-4.47574e-11
-4.47574e-11
-4.47575e-11
-4.47575e-11
-4.47575e-11
-4.47575e-11
-4.47576e-11
-4.47576e-11
-4.47576e-11
-4.47577e-11
-4.47577e-11
-4.47577e-11
-4.47578e-11
-4.47578e-11
-4.47578e-11
-4.47579e-11
-4.47579e-11
-4.47579e-11
-4.4758e-11
-4.4758e-11
-4.47581e-11
-4.47581e-11
-4.47581e-11
-4.47582e-11
-4.47582e-11
-4.47582e-11
-4.47583e-11
-4.47583e-11
-4.47583e-11
-4.47584e-11
-4.47584e-11
-4.47584e-11
-4.47585e-11
-4.47585e-11
-4.47585e-11
-4.47586e-11
-4.47586e-11
-4.47587e-11
-4.47587e-11
-4.47587e-11
-4.47588e-11
-4.47588e-11
-4.47588e-11
-4.47589e-11
-4.47589e-11
-4.47589e-11
-4.47589e-11
-4.4759e-11
-4.4759e-11
-4.4759e-11
-4.4759e-11
-4.4759e-11
-4.4759e-11
-4.47591e-11
-4.47591e-11
-4.47591e-11
-4.47591e-11
-4.47591e-11
-4.47591e-11
-4.48393e-11
-8.06758e-10
-1.38495e-09
-1.81846e-09
-2.08262e-09
-2.27351e-09
-2.40628e-09
-2.48314e-09
-2.5028e-09
-2.46421e-09
-2.36733e-09
-2.21322e-09
-2.0037e-09
-1.74113e-09
-1.42807e-09
-1.06717e-09
-6.60992e-10
-2.12e-10
2.77517e-10
8.05403e-10
1.36967e-09
1.96849e-09
2.60014e-09
3.26303e-09
3.95565e-09
4.67658e-09
5.42444e-09
6.19786e-09
6.99551e-09
7.81601e-09
8.65792e-09
9.51972e-09
1.03998e-08
1.12963e-08
1.22073e-08
1.31302e-08
1.40614e-08
1.49956e-08
1.59242e-08
1.68351e-08
1.77122e-08
1.85371e-08
1.92918e-08
1.99622e-08
2.05407e-08
2.10271e-08
2.1428e-08
2.1756e-08
2.20264e-08
2.22508e-08
2.2434e-08
2.2576e-08
2.2677e-08
2.27401e-08
2.27711e-08
2.27744e-08
2.27544e-08
2.27184e-08
2.26687e-08
2.26059e-08
2.25361e-08
2.24615e-08
2.23805e-08
2.22963e-08
2.22105e-08
2.21218e-08
2.20323e-08
2.19416e-08
2.18472e-08
2.17533e-08
2.16569e-08
2.15544e-08
2.14507e-08
2.13427e-08
2.12284e-08
2.11088e-08
2.09802e-08
2.0847e-08
2.07028e-08
2.05444e-08
2.03766e-08
2.01897e-08
1.99829e-08
1.97531e-08
1.94951e-08
1.9201e-08
1.88634e-08
1.84094e-08
1.7957e-08
1.68511e-08
4.13786e-09
8.57899e-09
-2.88349e-08
-1.35835e-07
-1.58449e-07
-1.5839e-07
-1.58402e-07
-1.58407e-07
-1.58409e-07
-1.58409e-07
-1.58404e-07
-1.58393e-07
-1.58371e-07
-1.58324e-07
-1.58231e-07
-1.582e-07
-1.582e-07
-1.582e-07
-1.582e-07
-1.582e-07
-1.582e-07
-1.582e-07
-1.582e-07
-1.582e-07
-1.582e-07
-1.582e-07
-1.582e-07
-1.582e-07
-1.582e-07
-1.582e-07
-1.582e-07
-1.582e-07
-1.582e-07
-1.582e-07
-1.582e-07
-1.582e-07
-1.582e-07
-1.582e-07
-1.582e-07
-1.582e-07
-1.582e-07
-1.582e-07
-1.582e-07
-1.582e-07
-1.582e-07
-1.582e-07
-1.582e-07
-1.582e-07
-1.582e-07
-1.582e-07
-1.582e-07
-1.582e-07
-1.582e-07
-1.582e-07
-1.582e-07
-1.582e-07
-1.582e-07
-1.582e-07
-1.582e-07
-1.582e-07
-1.582e-07
-1.582e-07
-1.582e-07
-1.582e-07
-1.582e-07
-1.582e-07
-1.582e-07
-1.582e-07
-1.582e-07
-1.582e-07
-1.582e-07
-1.582e-07
-1.582e-07
-1.582e-07
-1.582e-07
-1.582e-07
-1.582e-07
-1.582e-07
-1.582e-07
-1.582e-07
-1.582e-07
-1.582e-07
-1.582e-07
-1.582e-07
-1.582e-07
-1.582e-07
-1.582e-07
-1.582e-07
-1.582e-07
-1.582e-07
-1.582e-07
-1.582e-07
-1.582e-07
-1.582e-07
-1.582e-07
-1.582e-07
-1.582e-07
-1.582e-07
-1.582e-07
-1.582e-07
-1.582e-07
-1.582e-07
-1.582e-07
-1.582e-07
-1.582e-07
-1.582e-07
-1.582e-07
-1.582e-07
-1.582e-07
-1.582e-07
-1.582e-07
-1.582e-07
-1.582e-07
-1.582e-07
-1.582e-07
-1.582e-07
-1.582e-07
-1.582e-07
-1.582e-07
-1.582e-07
-1.58183e-07
-1.57477e-07
-1.32413e-07
)
;

boundaryField
{
    inandouthalf11
    {
        type            cyclic;
        value           nonuniform List<scalar> 
100
(
1.0174e-38
3.5504e-14
7.68172e-14
1.13511e-13
1.49723e-13
1.87342e-13
2.26067e-13
2.65424e-13
3.05215e-13
3.45423e-13
3.86125e-13
4.27393e-13
4.69259e-13
5.11718e-13
5.54752e-13
5.98359e-13
6.42547e-13
6.87324e-13
7.32693e-13
7.78659e-13
8.25219e-13
8.7238e-13
9.20161e-13
9.68595e-13
1.01773e-12
1.06762e-12
1.11834e-12
1.16997e-12
1.22262e-12
1.27631e-12
1.33105e-12
1.38676e-12
1.44326e-12
1.50027e-12
1.55741e-12
1.61425e-12
1.67043e-12
1.72577e-12
1.7804e-12
1.83483e-12
1.89006e-12
1.94775e-12
2.01026e-12
2.08093e-12
2.16408e-12
2.26441e-12
2.38473e-12
2.52107e-12
2.65758e-12
2.76987e-12
2.84106e-12
2.87451e-12
2.88612e-12
2.8892e-12
2.88989e-12
2.89003e-12
2.89006e-12
2.89007e-12
2.89007e-12
2.89008e-12
2.89008e-12
2.89008e-12
2.89008e-12
2.89008e-12
2.89008e-12
2.89008e-12
2.89008e-12
2.89008e-12
2.89008e-12
2.89009e-12
2.89009e-12
2.89009e-12
2.89009e-12
2.8901e-12
2.8901e-12
2.8901e-12
2.8901e-12
2.89011e-12
2.89011e-12
2.89011e-12
2.89011e-12
2.89012e-12
2.89012e-12
2.89012e-12
2.89012e-12
2.89013e-12
2.89013e-12
2.89013e-12
2.89014e-12
2.89014e-12
2.89014e-12
2.89015e-12
2.89015e-12
2.89015e-12
2.89016e-12
2.89016e-12
2.89016e-12
2.89017e-12
2.89017e-12
2.89018e-12
)
;
    }
    inandouthalf12
    {
        type            cyclic;
        value           nonuniform List<scalar> 
100
(
-1.0174e-38
-3.5504e-14
-7.68172e-14
-1.13511e-13
-1.49723e-13
-1.87342e-13
-2.26067e-13
-2.65424e-13
-3.05215e-13
-3.45423e-13
-3.86125e-13
-4.27393e-13
-4.69259e-13
-5.11718e-13
-5.54752e-13
-5.98359e-13
-6.42547e-13
-6.87324e-13
-7.32693e-13
-7.78659e-13
-8.25219e-13
-8.7238e-13
-9.20161e-13
-9.68595e-13
-1.01773e-12
-1.06762e-12
-1.11834e-12
-1.16997e-12
-1.22262e-12
-1.27631e-12
-1.33105e-12
-1.38676e-12
-1.44326e-12
-1.50027e-12
-1.55741e-12
-1.61425e-12
-1.67043e-12
-1.72577e-12
-1.7804e-12
-1.83483e-12
-1.89006e-12
-1.94775e-12
-2.01026e-12
-2.08093e-12
-2.16408e-12
-2.26441e-12
-2.38473e-12
-2.52107e-12
-2.65758e-12
-2.76987e-12
-2.84106e-12
-2.87451e-12
-2.88612e-12
-2.8892e-12
-2.88989e-12
-2.89003e-12
-2.89006e-12
-2.89007e-12
-2.89007e-12
-2.89008e-12
-2.89008e-12
-2.89008e-12
-2.89008e-12
-2.89008e-12
-2.89008e-12
-2.89008e-12
-2.89008e-12
-2.89008e-12
-2.89008e-12
-2.89009e-12
-2.89009e-12
-2.89009e-12
-2.89009e-12
-2.8901e-12
-2.8901e-12
-2.8901e-12
-2.8901e-12
-2.89011e-12
-2.89011e-12
-2.89011e-12
-2.89011e-12
-2.89012e-12
-2.89012e-12
-2.89012e-12
-2.89012e-12
-2.89013e-12
-2.89013e-12
-2.89013e-12
-2.89014e-12
-2.89014e-12
-2.89014e-12
-2.89015e-12
-2.89015e-12
-2.89015e-12
-2.89016e-12
-2.89016e-12
-2.89016e-12
-2.89017e-12
-2.89017e-12
-2.89018e-12
)
;
    }
    inandouthalf21
    {
        type            cyclic;
        value           nonuniform List<scalar> 
100
(
2.89018e-12
2.89018e-12
2.89019e-12
2.89019e-12
2.8902e-12
2.8902e-12
2.89021e-12
2.89021e-12
2.89022e-12
2.89022e-12
2.89023e-12
2.89023e-12
2.89024e-12
2.89024e-12
2.89025e-12
2.89025e-12
2.89026e-12
2.89026e-12
2.89027e-12
2.89027e-12
2.89028e-12
2.89028e-12
2.89029e-12
2.89029e-12
2.8903e-12
2.89031e-12
2.89031e-12
2.89032e-12
2.89033e-12
2.89033e-12
2.89034e-12
2.89035e-12
2.89035e-12
2.89036e-12
2.89036e-12
2.89037e-12
2.89038e-12
2.89038e-12
2.89039e-12
2.89039e-12
2.8904e-12
2.8904e-12
2.8904e-12
2.8904e-12
2.8904e-12
2.89041e-12
2.89041e-12
3.19618e-12
7.31163e-08
1.70519e-07
2.46645e-07
3.07774e-07
3.58161e-07
4.00558e-07
4.36827e-07
4.68299e-07
4.95956e-07
5.2054e-07
5.42614e-07
5.62612e-07
5.80872e-07
5.97656e-07
6.13173e-07
6.27591e-07
6.41043e-07
6.53638e-07
6.65465e-07
6.76599e-07
6.87099e-07
6.97017e-07
7.06395e-07
7.1527e-07
7.23671e-07
7.31626e-07
7.39157e-07
7.46282e-07
7.53018e-07
7.59381e-07
7.65383e-07
7.71037e-07
7.76353e-07
7.81341e-07
7.86011e-07
7.90373e-07
7.94434e-07
7.98206e-07
8.01698e-07
8.04921e-07
8.07886e-07
8.10608e-07
8.131e-07
8.15377e-07
8.17455e-07
8.19349e-07
8.21072e-07
8.2264e-07
8.24065e-07
8.2536e-07
8.26537e-07
8.27611e-07
)
;
    }
    inandouthalf22
    {
        type            cyclic;
        value           nonuniform List<scalar> 
100
(
-2.89018e-12
-2.89018e-12
-2.89019e-12
-2.89019e-12
-2.8902e-12
-2.8902e-12
-2.89021e-12
-2.89021e-12
-2.89022e-12
-2.89022e-12
-2.89023e-12
-2.89023e-12
-2.89024e-12
-2.89024e-12
-2.89025e-12
-2.89025e-12
-2.89026e-12
-2.89026e-12
-2.89027e-12
-2.89027e-12
-2.89028e-12
-2.89028e-12
-2.89029e-12
-2.89029e-12
-2.8903e-12
-2.89031e-12
-2.89031e-12
-2.89032e-12
-2.89033e-12
-2.89033e-12
-2.89034e-12
-2.89035e-12
-2.89035e-12
-2.89036e-12
-2.89036e-12
-2.89037e-12
-2.89038e-12
-2.89038e-12
-2.89039e-12
-2.89039e-12
-2.8904e-12
-2.8904e-12
-2.8904e-12
-2.8904e-12
-2.8904e-12
-2.89041e-12
-2.89041e-12
-3.19618e-12
-7.31163e-08
-1.70519e-07
-2.46645e-07
-3.07774e-07
-3.58161e-07
-4.00558e-07
-4.36827e-07
-4.68299e-07
-4.95956e-07
-5.2054e-07
-5.42614e-07
-5.62612e-07
-5.80872e-07
-5.97656e-07
-6.13173e-07
-6.27591e-07
-6.41043e-07
-6.53638e-07
-6.65465e-07
-6.76599e-07
-6.87099e-07
-6.97017e-07
-7.06395e-07
-7.1527e-07
-7.23671e-07
-7.31626e-07
-7.39157e-07
-7.46282e-07
-7.53018e-07
-7.59381e-07
-7.65383e-07
-7.71037e-07
-7.76353e-07
-7.81341e-07
-7.86011e-07
-7.90373e-07
-7.94434e-07
-7.98206e-07
-8.01698e-07
-8.04921e-07
-8.07886e-07
-8.10608e-07
-8.131e-07
-8.15377e-07
-8.17455e-07
-8.19349e-07
-8.21072e-07
-8.2264e-07
-8.24065e-07
-8.2536e-07
-8.26537e-07
-8.27611e-07
)
;
    }
    inandouthalf31
    {
        type            cyclic;
        value           nonuniform List<scalar> 
110
(
8.28595e-07
8.4634e-07
8.64407e-07
8.82804e-07
9.01543e-07
9.20634e-07
9.40089e-07
9.59917e-07
9.8013e-07
1.00074e-06
1.02175e-06
1.04319e-06
1.06505e-06
1.08735e-06
1.1101e-06
1.13332e-06
1.157e-06
1.18117e-06
1.20584e-06
1.23101e-06
1.2567e-06
1.28292e-06
1.30968e-06
1.33699e-06
1.36486e-06
1.39331e-06
1.42234e-06
1.45198e-06
1.48222e-06
1.51309e-06
1.54458e-06
1.57671e-06
1.6095e-06
1.64295e-06
1.67707e-06
1.71185e-06
1.74752e-06
1.9078e-06
1.94319e-06
1.97718e-06
2.01311e-06
2.04859e-06
2.08525e-06
2.12248e-06
2.1604e-06
2.19908e-06
2.23858e-06
2.27903e-06
2.32058e-06
2.36344e-06
2.40867e-06
2.4568e-06
2.50662e-06
2.55749e-06
2.6094e-06
2.66236e-06
2.7164e-06
2.77154e-06
2.82779e-06
2.88519e-06
2.94375e-06
3.0035e-06
3.06446e-06
3.12666e-06
3.19012e-06
3.25487e-06
3.32094e-06
3.38835e-06
3.45712e-06
3.52729e-06
3.59888e-06
3.67193e-06
3.74646e-06
3.82251e-06
3.90009e-06
3.97925e-06
4.06002e-06
4.14243e-06
4.22651e-06
4.3123e-06
4.39983e-06
4.48913e-06
4.58025e-06
4.67321e-06
4.76807e-06
4.86485e-06
4.96359e-06
5.06434e-06
5.16713e-06
5.27201e-06
5.37902e-06
5.4882e-06
5.59959e-06
5.71325e-06
5.82921e-06
5.94753e-06
6.06825e-06
6.19142e-06
6.31709e-06
6.44531e-06
6.57613e-06
6.70961e-06
6.8458e-06
6.98475e-06
7.12652e-06
7.27117e-06
7.41875e-06
7.56934e-06
7.72297e-06
7.87973e-06
)
;
    }
    inandouthalf32
    {
        type            cyclic;
        value           nonuniform List<scalar> 
110
(
-8.28595e-07
-8.4634e-07
-8.64407e-07
-8.82804e-07
-9.01543e-07
-9.20634e-07
-9.40089e-07
-9.59917e-07
-9.8013e-07
-1.00074e-06
-1.02175e-06
-1.04319e-06
-1.06505e-06
-1.08735e-06
-1.1101e-06
-1.13332e-06
-1.157e-06
-1.18117e-06
-1.20584e-06
-1.23101e-06
-1.2567e-06
-1.28292e-06
-1.30968e-06
-1.33699e-06
-1.36486e-06
-1.39331e-06
-1.42234e-06
-1.45198e-06
-1.48222e-06
-1.51309e-06
-1.54458e-06
-1.57671e-06
-1.6095e-06
-1.64295e-06
-1.67707e-06
-1.71185e-06
-1.74752e-06
-1.9078e-06
-1.94319e-06
-1.97718e-06
-2.01311e-06
-2.04859e-06
-2.08525e-06
-2.12248e-06
-2.1604e-06
-2.19908e-06
-2.23858e-06
-2.27903e-06
-2.32058e-06
-2.36344e-06
-2.40867e-06
-2.4568e-06
-2.50662e-06
-2.55749e-06
-2.6094e-06
-2.66236e-06
-2.7164e-06
-2.77154e-06
-2.82779e-06
-2.88519e-06
-2.94375e-06
-3.0035e-06
-3.06446e-06
-3.12666e-06
-3.19012e-06
-3.25487e-06
-3.32094e-06
-3.38835e-06
-3.45712e-06
-3.52729e-06
-3.59888e-06
-3.67193e-06
-3.74646e-06
-3.82251e-06
-3.90009e-06
-3.97925e-06
-4.06002e-06
-4.14243e-06
-4.22651e-06
-4.3123e-06
-4.39983e-06
-4.48913e-06
-4.58025e-06
-4.67321e-06
-4.76807e-06
-4.86485e-06
-4.96359e-06
-5.06434e-06
-5.16713e-06
-5.27201e-06
-5.37902e-06
-5.4882e-06
-5.59959e-06
-5.71325e-06
-5.82921e-06
-5.94753e-06
-6.06825e-06
-6.19142e-06
-6.31709e-06
-6.44531e-06
-6.57613e-06
-6.70961e-06
-6.8458e-06
-6.98475e-06
-7.12652e-06
-7.27117e-06
-7.41875e-06
-7.56934e-06
-7.72297e-06
-7.87973e-06
)
;
    }
    inandouthalf41
    {
        type            cyclic;
        value           nonuniform List<scalar> 
50
(
7.05316e-06
7.05316e-06
7.05316e-06
7.05316e-06
7.05316e-06
7.05316e-06
7.05316e-06
7.05316e-06
7.05316e-06
7.05316e-06
7.05316e-06
7.05316e-06
7.05316e-06
7.05316e-06
7.05316e-06
7.05316e-06
7.05316e-06
7.05316e-06
7.05316e-06
7.05316e-06
7.05316e-06
7.05316e-06
7.05316e-06
7.05316e-06
7.05316e-06
7.05316e-06
7.05316e-06
7.05316e-06
7.05316e-06
7.05316e-06
7.05316e-06
7.05316e-06
7.05316e-06
7.05316e-06
7.05316e-06
7.05316e-06
7.05316e-06
7.05316e-06
7.05316e-06
7.05316e-06
7.05316e-06
7.05316e-06
7.05316e-06
7.05316e-06
7.05316e-06
7.05316e-06
7.05316e-06
7.05316e-06
7.05316e-06
7.05315e-06
)
;
    }
    inandouthalf42
    {
        type            cyclic;
        value           nonuniform List<scalar> 
50
(
-7.05316e-06
-7.05316e-06
-7.05316e-06
-7.05316e-06
-7.05316e-06
-7.05316e-06
-7.05316e-06
-7.05316e-06
-7.05316e-06
-7.05316e-06
-7.05316e-06
-7.05316e-06
-7.05316e-06
-7.05316e-06
-7.05316e-06
-7.05316e-06
-7.05316e-06
-7.05316e-06
-7.05316e-06
-7.05316e-06
-7.05316e-06
-7.05316e-06
-7.05316e-06
-7.05316e-06
-7.05316e-06
-7.05316e-06
-7.05316e-06
-7.05316e-06
-7.05316e-06
-7.05316e-06
-7.05316e-06
-7.05316e-06
-7.05316e-06
-7.05316e-06
-7.05316e-06
-7.05316e-06
-7.05316e-06
-7.05316e-06
-7.05316e-06
-7.05316e-06
-7.05316e-06
-7.05316e-06
-7.05316e-06
-7.05316e-06
-7.05316e-06
-7.05316e-06
-7.05316e-06
-7.05316e-06
-7.05316e-06
-7.05315e-06
)
;
    }
    top
    {
        type            symmetryPlane;
        value           uniform 0;
    }
    walls
    {
        type            fixedValue;
        value           uniform 0;
    }
    frontAndBackPlanes
    {
        type            empty;
        value           nonuniform 0();
    }
}


// ************************************************************************* //
