/*--------------------------------*- C++ -*----------------------------------*\
| =========                 |                                                 |
| \\      /  F ield         | OpenFOAM: The Open Source CFD Toolbox           |
|  \\    /   O peration     | Version:  2.4.x                                 |
|   \\  /    A nd           | Web:      www.OpenFOAM.org                      |
|    \\/     M anipulation  |                                                 |
\*---------------------------------------------------------------------------*/
FoamFile
{
    version     2.0;
    format      ascii;
    class       surfaceScalarField;
    location    "5.4";
    object      phib_0;
}
// * * * * * * * * * * * * * * * * * * * * * * * * * * * * * * * * * * * * * //

dimensions      [0 3 -1 0 0 0 0];

internalField   nonuniform List<scalar> 
359
(
7.44913e-13
1.99176e-12
3.1385e-12
4.2036e-12
5.27917e-12
6.38356e-12
7.50461e-12
8.63234e-12
9.763e-12
1.08981e-11
1.20401e-11
1.31901e-11
1.43483e-11
1.55138e-11
1.66863e-11
1.78656e-11
1.90518e-11
2.02449e-11
2.14445e-11
2.26508e-11
2.38632e-11
2.50821e-11
2.63078e-11
2.75411e-11
2.8783e-11
3.00351e-11
3.12987e-11
3.25762e-11
3.38687e-11
3.51765e-11
3.64982e-11
3.78311e-11
3.91681e-11
4.05025e-11
4.18235e-11
4.31223e-11
4.43918e-11
4.56316e-11
4.6849e-11
4.80596e-11
4.92936e-11
5.05943e-11
5.2022e-11
5.36601e-11
5.56054e-11
5.79426e-11
6.06683e-11
6.3576e-11
6.62344e-11
6.81902e-11
6.92924e-11
6.97566e-11
6.99014e-11
6.99338e-11
6.99363e-11
6.99321e-11
6.99263e-11
6.99198e-11
6.99131e-11
6.99059e-11
6.98983e-11
6.98905e-11
6.98825e-11
6.98743e-11
6.9866e-11
6.98573e-11
6.98484e-11
6.98392e-11
6.98297e-11
6.98198e-11
6.98094e-11
6.97988e-11
6.97878e-11
6.97765e-11
6.97649e-11
6.97531e-11
6.97411e-11
6.97288e-11
6.97162e-11
6.97033e-11
6.969e-11
6.96765e-11
6.96625e-11
6.96482e-11
6.96336e-11
6.96186e-11
6.96033e-11
6.95877e-11
6.95717e-11
6.95554e-11
6.95388e-11
6.95218e-11
6.95044e-11
6.94867e-11
6.94684e-11
6.94498e-11
6.94308e-11
6.94113e-11
6.93914e-11
6.9371e-11
6.93501e-11
6.93287e-11
6.93069e-11
6.92845e-11
6.92615e-11
6.9238e-11
6.92138e-11
6.91891e-11
6.91637e-11
6.91377e-11
6.91109e-11
6.90834e-11
6.90552e-11
6.90262e-11
6.89963e-11
6.89656e-11
6.8934e-11
6.89014e-11
6.88679e-11
6.88333e-11
6.87976e-11
6.87608e-11
6.87228e-11
6.86836e-11
6.86431e-11
6.86012e-11
6.85578e-11
6.85128e-11
6.84661e-11
6.84175e-11
6.83669e-11
6.83143e-11
6.82592e-11
6.82009e-11
6.81392e-11
6.80742e-11
6.80058e-11
6.79316e-11
6.7848e-11
6.77551e-11
6.7661e-11
6.75606e-11
6.74354e-11
6.72778e-11
6.70374e-11
6.63842e-11
6.09638e-11
6.3245e-10
5.26794e-10
4.72549e-10
4.14841e-10
3.53664e-10
2.93494e-10
2.3773e-10
1.88451e-10
1.46479e-10
1.11689e-10
8.34122e-11
6.07468e-11
4.2765e-11
2.86143e-11
1.7558e-11
8.98231e-12
2.3857e-12
-2.63655e-12
-6.40868e-12
-9.18983e-12
-1.11868e-11
-1.25643e-11
-1.34541e-11
-1.39611e-11
-1.41693e-11
-1.41456e-11
-1.39439e-11
-1.36068e-11
-1.31686e-11
-1.26566e-11
-1.20925e-11
-1.14936e-11
-1.08735e-11
-1.02428e-11
-9.60946e-12
-8.9785e-12
-8.35229e-12
-7.73062e-12
-7.11167e-12
-6.49381e-12
-5.8779e-12
-5.26902e-12
-4.67664e-12
-4.11261e-12
-3.58851e-12
-3.11372e-12
-2.69325e-12
-2.32554e-12
-2.0032e-12
-1.71784e-12
-1.46448e-12
-1.24195e-12
-1.04996e-12
-8.8645e-13
-7.4606e-13
-6.27596e-13
-5.27924e-13
-4.43246e-13
-3.72227e-13
-3.13277e-13
-2.63406e-13
-2.21278e-13
-1.8622e-13
-1.56709e-13
-1.31827e-13
-1.10914e-13
-9.31101e-14
-7.81772e-14
-6.56464e-14
-5.48311e-14
-4.57547e-14
-3.82129e-14
-3.1761e-14
-2.63084e-14
-2.17277e-14
-1.79042e-14
-1.46964e-14
-1.1955e-14
-9.69433e-15
-7.81984e-15
-6.24117e-15
-4.9509e-15
-3.89772e-15
-3.03882e-15
-2.33647e-15
-1.73715e-15
-1.28249e-15
-9.55128e-16
-8.86368e-16
-2.01825e-16
-2.00265e-16
1.50922e-16
-6.43257e-18
-6.26248e-18
-6.11051e-18
-5.93372e-18
-5.77524e-18
-5.58993e-18
-5.42252e-18
-5.23283e-18
-5.05964e-18
-4.86512e-18
-4.68393e-18
-4.49371e-18
-4.30569e-18
-4.10026e-18
-3.90538e-18
-3.69477e-18
-3.49415e-18
-3.28267e-18
-3.08007e-18
-2.86729e-18
-2.66437e-18
-2.4566e-18
-2.25981e-18
-2.0643e-18
-1.88564e-18
-1.72128e-18
-1.57449e-18
-1.4523e-18
-1.32376e-18
-1.20304e-18
-1.08969e-18
-9.79998e-19
-8.76098e-19
-7.80043e-19
-6.90054e-19
-6.04223e-19
-5.23818e-19
-4.44806e-19
-3.71912e-19
-3.02457e-19
-2.39249e-19
-1.66767e-19
-1.04314e-19
-4.57563e-20
-2.59569e-21
4.77258e-20
7.73381e-20
9.32448e-20
9.91972e-20
1.30813e-19
1.41655e-19
1.5022e-19
1.32057e-19
1.29556e-19
1.04003e-19
8.0464e-20
4.55686e-20
1.26683e-19
1.36526e-19
1.51388e-19
2.15076e-19
2.30218e-19
2.32197e-19
2.34341e-19
2.23844e-19
2.34206e-19
2.32624e-19
2.31979e-19
2.15996e-19
2.11693e-19
1.94313e-19
1.78562e-19
1.56589e-19
1.45713e-19
1.31007e-19
1.16828e-19
9.9241e-20
8.39241e-20
6.70207e-20
4.94613e-20
3.18076e-20
6.22288e-21
-1.7394e-20
-4.2288e-20
-6.31875e-20
-9.90995e-20
-1.28326e-19
-1.72121e-19
-2.17108e-19
-4.49586e-19
-6.70303e-19
-9.04164e-19
-1.10203e-18
-1.34467e-18
-1.53265e-18
-1.72396e-18
-1.85752e-18
-2.09953e-18
-2.26984e-18
-2.44119e-18
-2.52559e-18
-2.68112e-18
-2.74885e-18
-2.8267e-18
-2.84088e-18
-3.05851e-18
-3.22038e-18
-3.39437e-18
-3.50572e-18
-3.6718e-18
-3.79306e-18
-3.93727e-18
-4.17371e-18
-4.3773e-18
-4.67154e-18
-5.0147e-18
-5.56498e-18
-5.80811e-18
-6.70289e-18
-8.76882e-18
)
;

boundaryField
{
    inandouthalf11
    {
        type            cyclic;
        value           nonuniform List<scalar> 
100
(
3.75216e-13
4.09161e-13
4.50064e-13
4.8697e-13
5.23346e-13
5.61043e-13
5.9984e-13
6.39276e-13
6.79147e-13
7.19439e-13
7.60226e-13
8.01581e-13
8.43534e-13
8.86079e-13
9.29201e-13
9.72897e-13
1.01717e-12
1.06204e-12
1.1075e-12
1.15356e-12
1.20021e-12
1.24747e-12
1.29534e-12
1.34387e-12
1.3931e-12
1.44309e-12
1.49391e-12
1.54565e-12
1.5984e-12
1.6522e-12
1.70704e-12
1.76286e-12
1.81947e-12
1.87659e-12
1.93383e-12
1.99077e-12
2.04704e-12
2.10249e-12
2.15722e-12
2.21175e-12
2.2671e-12
2.32491e-12
2.38758e-12
2.45845e-12
2.54183e-12
2.64242e-12
2.76304e-12
2.89961e-12
3.03619e-12
3.14839e-12
3.21942e-12
3.25277e-12
3.26436e-12
3.26748e-12
3.26822e-12
3.26842e-12
3.26852e-12
3.2686e-12
3.26867e-12
3.26875e-12
3.26883e-12
3.26891e-12
3.269e-12
3.26909e-12
3.26918e-12
3.26927e-12
3.26937e-12
3.26947e-12
3.26957e-12
3.26968e-12
3.26979e-12
3.26991e-12
3.27003e-12
3.27015e-12
3.27028e-12
3.27041e-12
3.27054e-12
3.27068e-12
3.27081e-12
3.27096e-12
3.2711e-12
3.27125e-12
3.2714e-12
3.27156e-12
3.27172e-12
3.27189e-12
3.27206e-12
3.27223e-12
3.2724e-12
3.27258e-12
3.27277e-12
3.27296e-12
3.27315e-12
3.27335e-12
3.27355e-12
3.27375e-12
3.27397e-12
3.27418e-12
3.2744e-12
3.27463e-12
)
;
    }
    inandouthalf12
    {
        type            cyclic;
        value           nonuniform List<scalar> 
100
(
-3.75216e-13
-4.09161e-13
-4.50064e-13
-4.8697e-13
-5.23346e-13
-5.61043e-13
-5.9984e-13
-6.39276e-13
-6.79147e-13
-7.19439e-13
-7.60226e-13
-8.01581e-13
-8.43534e-13
-8.86079e-13
-9.29201e-13
-9.72897e-13
-1.01717e-12
-1.06204e-12
-1.1075e-12
-1.15356e-12
-1.20021e-12
-1.24747e-12
-1.29534e-12
-1.34387e-12
-1.3931e-12
-1.44309e-12
-1.49391e-12
-1.54565e-12
-1.5984e-12
-1.6522e-12
-1.70704e-12
-1.76286e-12
-1.81947e-12
-1.87659e-12
-1.93383e-12
-1.99077e-12
-2.04704e-12
-2.10249e-12
-2.15722e-12
-2.21175e-12
-2.2671e-12
-2.32491e-12
-2.38758e-12
-2.45845e-12
-2.54183e-12
-2.64242e-12
-2.76304e-12
-2.89961e-12
-3.03619e-12
-3.14839e-12
-3.21942e-12
-3.25277e-12
-3.26436e-12
-3.26748e-12
-3.26822e-12
-3.26842e-12
-3.26852e-12
-3.2686e-12
-3.26867e-12
-3.26875e-12
-3.26883e-12
-3.26891e-12
-3.269e-12
-3.26909e-12
-3.26918e-12
-3.26927e-12
-3.26937e-12
-3.26947e-12
-3.26957e-12
-3.26968e-12
-3.26979e-12
-3.26991e-12
-3.27003e-12
-3.27015e-12
-3.27028e-12
-3.27041e-12
-3.27054e-12
-3.27068e-12
-3.27081e-12
-3.27096e-12
-3.2711e-12
-3.27125e-12
-3.2714e-12
-3.27156e-12
-3.27172e-12
-3.27189e-12
-3.27206e-12
-3.27223e-12
-3.2724e-12
-3.27258e-12
-3.27277e-12
-3.27296e-12
-3.27315e-12
-3.27335e-12
-3.27355e-12
-3.27375e-12
-3.27397e-12
-3.27418e-12
-3.2744e-12
-3.27463e-12
)
;
    }
    inandouthalf21
    {
        type            cyclic;
        value           nonuniform List<scalar> 
100
(
3.27486e-12
3.2751e-12
3.27535e-12
3.2756e-12
3.27585e-12
3.27612e-12
3.27639e-12
3.27666e-12
3.27695e-12
3.27724e-12
3.27754e-12
3.27785e-12
3.27816e-12
3.27849e-12
3.27883e-12
3.27917e-12
3.27953e-12
3.27989e-12
3.28027e-12
3.28066e-12
3.28107e-12
3.28148e-12
3.28191e-12
3.28236e-12
3.28282e-12
3.28329e-12
3.28379e-12
3.2843e-12
3.28483e-12
3.28539e-12
3.28597e-12
3.28657e-12
3.2872e-12
3.28786e-12
3.28856e-12
3.28931e-12
3.29009e-12
3.29092e-12
3.29184e-12
3.2929e-12
3.29405e-12
3.29514e-12
3.29645e-12
3.29815e-12
3.30026e-12
3.30477e-12
4.11125e-12
5.87273e-10
8.13219e-08
1.79713e-07
2.5415e-07
3.13852e-07
3.63272e-07
4.05034e-07
4.40911e-07
4.72174e-07
4.99762e-07
5.24383e-07
5.46578e-07
5.66766e-07
5.85273e-07
6.02358e-07
6.18227e-07
6.33046e-07
6.46951e-07
6.60054e-07
6.72447e-07
6.84207e-07
6.95399e-07
7.0608e-07
7.16295e-07
7.26086e-07
7.35487e-07
7.44528e-07
7.53237e-07
7.61635e-07
7.69744e-07
7.7758e-07
7.85158e-07
7.92493e-07
7.99596e-07
8.06477e-07
8.13145e-07
8.19608e-07
8.25873e-07
8.31945e-07
8.37828e-07
8.43528e-07
8.49045e-07
8.54384e-07
8.59544e-07
8.64528e-07
8.69335e-07
8.73965e-07
8.78417e-07
8.82691e-07
8.86784e-07
8.90694e-07
8.94421e-07
8.9796e-07
)
;
    }
    inandouthalf22
    {
        type            cyclic;
        value           nonuniform List<scalar> 
100
(
-3.27486e-12
-3.2751e-12
-3.27535e-12
-3.2756e-12
-3.27585e-12
-3.27612e-12
-3.27639e-12
-3.27666e-12
-3.27695e-12
-3.27724e-12
-3.27754e-12
-3.27785e-12
-3.27816e-12
-3.27849e-12
-3.27883e-12
-3.27917e-12
-3.27953e-12
-3.27989e-12
-3.28027e-12
-3.28066e-12
-3.28107e-12
-3.28148e-12
-3.28191e-12
-3.28236e-12
-3.28282e-12
-3.28329e-12
-3.28379e-12
-3.2843e-12
-3.28483e-12
-3.28539e-12
-3.28597e-12
-3.28657e-12
-3.2872e-12
-3.28786e-12
-3.28856e-12
-3.28931e-12
-3.29009e-12
-3.29092e-12
-3.29184e-12
-3.2929e-12
-3.29405e-12
-3.29514e-12
-3.29645e-12
-3.29815e-12
-3.30026e-12
-3.30477e-12
-4.11125e-12
-5.87273e-10
-8.13219e-08
-1.79713e-07
-2.5415e-07
-3.13852e-07
-3.63272e-07
-4.05034e-07
-4.40911e-07
-4.72174e-07
-4.99762e-07
-5.24383e-07
-5.46578e-07
-5.66766e-07
-5.85273e-07
-6.02358e-07
-6.18227e-07
-6.33046e-07
-6.46951e-07
-6.60054e-07
-6.72447e-07
-6.84207e-07
-6.95399e-07
-7.0608e-07
-7.16295e-07
-7.26086e-07
-7.35487e-07
-7.44528e-07
-7.53237e-07
-7.61635e-07
-7.69744e-07
-7.7758e-07
-7.85158e-07
-7.92493e-07
-7.99596e-07
-8.06477e-07
-8.13145e-07
-8.19608e-07
-8.25873e-07
-8.31945e-07
-8.37828e-07
-8.43528e-07
-8.49045e-07
-8.54384e-07
-8.59544e-07
-8.64528e-07
-8.69335e-07
-8.73965e-07
-8.78417e-07
-8.82691e-07
-8.86784e-07
-8.90694e-07
-8.94421e-07
-8.9796e-07
)
;
    }
    inandouthalf31
    {
        type            cyclic;
        value           nonuniform List<scalar> 
110
(
9.01314e-07
9.22865e-07
9.44775e-07
9.67035e-07
9.89631e-07
1.01255e-06
1.03578e-06
1.05931e-06
1.08312e-06
1.10721e-06
1.13156e-06
1.15618e-06
1.18105e-06
1.20618e-06
1.23158e-06
1.25724e-06
1.28319e-06
1.30942e-06
1.33595e-06
1.36279e-06
1.38996e-06
1.41745e-06
1.44528e-06
1.47347e-06
1.50201e-06
1.53091e-06
1.56019e-06
1.58984e-06
1.61988e-06
1.65032e-06
1.68115e-06
1.7124e-06
1.74407e-06
1.77616e-06
1.80869e-06
1.84168e-06
1.87512e-06
1.90905e-06
1.94347e-06
1.9784e-06
2.01387e-06
2.04989e-06
2.08651e-06
2.12376e-06
2.16168e-06
2.20034e-06
2.23981e-06
2.2802e-06
2.32165e-06
2.36441e-06
2.40903e-06
2.45684e-06
2.50663e-06
2.55751e-06
2.60942e-06
2.66238e-06
2.71642e-06
2.77156e-06
2.82781e-06
2.88521e-06
2.94377e-06
3.00352e-06
3.06448e-06
3.12668e-06
3.19015e-06
3.2549e-06
3.32096e-06
3.38837e-06
3.45714e-06
3.52731e-06
3.59891e-06
3.67196e-06
3.74649e-06
3.82253e-06
3.90012e-06
3.97928e-06
4.06005e-06
4.14246e-06
4.22654e-06
4.31233e-06
4.39986e-06
4.48916e-06
4.58028e-06
4.67325e-06
4.7681e-06
4.86488e-06
4.96362e-06
5.06437e-06
5.16717e-06
5.27205e-06
5.37905e-06
5.48824e-06
5.59963e-06
5.71329e-06
5.82925e-06
5.94757e-06
6.06829e-06
6.19146e-06
6.31713e-06
6.44535e-06
6.57618e-06
6.70966e-06
6.84584e-06
6.9848e-06
7.12657e-06
7.27122e-06
7.41881e-06
7.56939e-06
7.72303e-06
7.87978e-06
)
;
    }
    inandouthalf32
    {
        type            cyclic;
        value           nonuniform List<scalar> 
110
(
-9.01314e-07
-9.22865e-07
-9.44775e-07
-9.67035e-07
-9.89631e-07
-1.01255e-06
-1.03578e-06
-1.05931e-06
-1.08312e-06
-1.10721e-06
-1.13156e-06
-1.15618e-06
-1.18105e-06
-1.20618e-06
-1.23158e-06
-1.25724e-06
-1.28319e-06
-1.30942e-06
-1.33595e-06
-1.36279e-06
-1.38996e-06
-1.41745e-06
-1.44528e-06
-1.47347e-06
-1.50201e-06
-1.53091e-06
-1.56019e-06
-1.58984e-06
-1.61988e-06
-1.65032e-06
-1.68115e-06
-1.7124e-06
-1.74407e-06
-1.77616e-06
-1.80869e-06
-1.84168e-06
-1.87512e-06
-1.90905e-06
-1.94347e-06
-1.9784e-06
-2.01387e-06
-2.04989e-06
-2.08651e-06
-2.12376e-06
-2.16168e-06
-2.20034e-06
-2.23981e-06
-2.2802e-06
-2.32165e-06
-2.36441e-06
-2.40903e-06
-2.45684e-06
-2.50663e-06
-2.55751e-06
-2.60942e-06
-2.66238e-06
-2.71642e-06
-2.77156e-06
-2.82781e-06
-2.88521e-06
-2.94377e-06
-3.00352e-06
-3.06448e-06
-3.12668e-06
-3.19015e-06
-3.2549e-06
-3.32096e-06
-3.38837e-06
-3.45714e-06
-3.52731e-06
-3.59891e-06
-3.67196e-06
-3.74649e-06
-3.82253e-06
-3.90012e-06
-3.97928e-06
-4.06005e-06
-4.14246e-06
-4.22654e-06
-4.31233e-06
-4.39986e-06
-4.48916e-06
-4.58028e-06
-4.67325e-06
-4.7681e-06
-4.86488e-06
-4.96362e-06
-5.06437e-06
-5.16717e-06
-5.27205e-06
-5.37905e-06
-5.48824e-06
-5.59963e-06
-5.71329e-06
-5.82925e-06
-5.94757e-06
-6.06829e-06
-6.19146e-06
-6.31713e-06
-6.44535e-06
-6.57618e-06
-6.70966e-06
-6.84584e-06
-6.9848e-06
-7.12657e-06
-7.27122e-06
-7.41881e-06
-7.56939e-06
-7.72303e-06
-7.87978e-06
)
;
    }
    inandouthalf41
    {
        type            cyclic;
        value           nonuniform List<scalar> 
50
(
7.05321e-06
7.05321e-06
7.05321e-06
7.05321e-06
7.05321e-06
7.05321e-06
7.05321e-06
7.05321e-06
7.05321e-06
7.05321e-06
7.05321e-06
7.05321e-06
7.05321e-06
7.05321e-06
7.05321e-06
7.05321e-06
7.05321e-06
7.05321e-06
7.05321e-06
7.05321e-06
7.05321e-06
7.05321e-06
7.05321e-06
7.05321e-06
7.05321e-06
7.05321e-06
7.05321e-06
7.05321e-06
7.05321e-06
7.05321e-06
7.05321e-06
7.05321e-06
7.05321e-06
7.05321e-06
7.05321e-06
7.05321e-06
7.05321e-06
7.05321e-06
7.05321e-06
7.05321e-06
7.05321e-06
7.05321e-06
7.05321e-06
7.05321e-06
7.05321e-06
7.05321e-06
7.05321e-06
7.05321e-06
7.05321e-06
7.05321e-06
)
;
    }
    inandouthalf42
    {
        type            cyclic;
        value           nonuniform List<scalar> 
50
(
-7.05321e-06
-7.05321e-06
-7.05321e-06
-7.05321e-06
-7.05321e-06
-7.05321e-06
-7.05321e-06
-7.05321e-06
-7.05321e-06
-7.05321e-06
-7.05321e-06
-7.05321e-06
-7.05321e-06
-7.05321e-06
-7.05321e-06
-7.05321e-06
-7.05321e-06
-7.05321e-06
-7.05321e-06
-7.05321e-06
-7.05321e-06
-7.05321e-06
-7.05321e-06
-7.05321e-06
-7.05321e-06
-7.05321e-06
-7.05321e-06
-7.05321e-06
-7.05321e-06
-7.05321e-06
-7.05321e-06
-7.05321e-06
-7.05321e-06
-7.05321e-06
-7.05321e-06
-7.05321e-06
-7.05321e-06
-7.05321e-06
-7.05321e-06
-7.05321e-06
-7.05321e-06
-7.05321e-06
-7.05321e-06
-7.05321e-06
-7.05321e-06
-7.05321e-06
-7.05321e-06
-7.05321e-06
-7.05321e-06
-7.05321e-06
)
;
    }
    top
    {
        type            symmetryPlane;
        value           uniform 0;
    }
    walls
    {
        type            fixedValue;
        value           uniform 0;
    }
    frontAndBackPlanes
    {
        type            empty;
        value           nonuniform 0();
    }
}


// ************************************************************************* //
