/*--------------------------------*- C++ -*----------------------------------*\
| =========                 |                                                 |
| \\      /  F ield         | OpenFOAM: The Open Source CFD Toolbox           |
|  \\    /   O peration     | Version:  2.4.x                                 |
|   \\  /    A nd           | Web:      www.OpenFOAM.org                      |
|    \\/     M anipulation  |                                                 |
\*---------------------------------------------------------------------------*/
FoamFile
{
    version     2.0;
    format      ascii;
    class       volVectorField;
    location    "5.4";
    object      susb;
}
// * * * * * * * * * * * * * * * * * * * * * * * * * * * * * * * * * * * * * //

dimensions      [0 1 -2 0 0 0 0];

internalField   nonuniform List<vector> 
360
(
(0 4.80229e-18 0)
(0 5.72986e-18 0)
(0 4.52648e-19 0)
(0 -8.02729e-19 0)
(-7.37629e-31 -5.14043e-19 0)
(-3.68756e-31 -3.12044e-19 0)
(-3.68703e-31 -3.10795e-19 0)
(0 -3.28132e-19 0)
(-3.68586e-31 -3.36849e-19 0)
(0 -3.49361e-19 0)
(-3.68461e-31 -3.55247e-19 0)
(0 -3.56544e-19 0)
(-3.68334e-31 -3.57292e-19 0)
(0 -3.57981e-19 0)
(0 -3.61379e-19 0)
(0 -3.65799e-19 0)
(0 -3.69126e-19 0)
(-3.6801e-31 -3.71469e-19 0)
(0 -3.75726e-19 0)
(0 -3.77656e-19 0)
(0 -3.79828e-19 0)
(-3.6774e-31 -3.84466e-19 0)
(0 -3.87184e-19 0)
(0 -3.90688e-19 0)
(0 -3.94393e-19 0)
(-7.34923e-31 -3.97321e-19 0)
(0 -4.02752e-19 0)
(0 -4.08758e-19 0)
(0 -4.12703e-19 0)
(0 -4.17243e-19 0)
(0 -4.24206e-19 0)
(0 -4.26183e-19 0)
(0 -4.30378e-19 0)
(0 -4.32565e-19 0)
(0 -4.29202e-19 0)
(3.66713e-31 -4.26541e-19 0)
(0 -4.22351e-19 0)
(0 -4.22074e-19 0)
(0 -4.15742e-19 0)
(0 -4.18234e-19 0)
(0 -4.30497e-19 0)
(0 -4.42317e-19 0)
(3.6618e-31 -4.75225e-19 0)
(0 -5.23022e-19 0)
(0 -5.83422e-19 0)
(0 -6.60459e-19 0)
(0 -7.23041e-19 0)
(0 -7.46242e-19 0)
(0 -7.02131e-19 0)
(0 -5.72129e-19 0)
(3.65289e-31 -4.21332e-19 0)
(0 -3.13689e-19 0)
(0 -2.61963e-19 0)
(0 -2.49696e-19 0)
(0 -2.60493e-19 0)
(0 -2.75314e-19 0)
(0 -2.90044e-19 0)
(0 -3.09108e-19 0)
(0 -3.19669e-19 0)
(0 -3.3919e-19 0)
(0 -3.54335e-19 0)
(0 -3.65026e-19 0)
(0 -3.77103e-19 0)
(0 -3.84564e-19 0)
(0 -3.93863e-19 0)
(0 -4.05283e-19 0)
(0 -4.1995e-19 0)
(0 -4.33773e-19 0)
(0 -4.46918e-19 0)
(0 -4.66411e-19 0)
(0 -4.88633e-19 0)
(0 -5.00365e-19 0)
(0 -5.15176e-19 0)
(0 -5.32072e-19 0)
(0 -5.45307e-19 0)
(0 -5.56361e-19 0)
(0 -5.65379e-19 0)
(0 -5.78644e-19 0)
(0 -5.92616e-19 0)
(0 -6.0596e-19 0)
(0 -6.21112e-19 0)
(0 -6.3863e-19 0)
(0 -6.55366e-19 0)
(0 -6.7198e-19 0)
(0 -6.88153e-19 0)
(0 -7.03868e-19 0)
(0 -7.18859e-19 0)
(0 -7.33137e-19 0)
(0 -7.48276e-19 0)
(0 -7.64046e-19 0)
(0 -7.80287e-19 0)
(0 -7.97707e-19 0)
(0 -8.16119e-19 0)
(0 -8.34934e-19 0)
(0 -8.54206e-19 0)
(0 -8.73847e-19 0)
(0 -8.93763e-19 0)
(0 -9.14038e-19 0)
(0 -9.34864e-19 0)
(0 -9.56329e-19 0)
(0 -9.78503e-19 0)
(0 -1.00151e-18 0)
(0 -1.02538e-18 0)
(0 -1.05009e-18 0)
(0 -1.0757e-18 0)
(0 -1.10226e-18 0)
(0 -1.12984e-18 0)
(0 -1.15852e-18 0)
(0 -1.18838e-18 0)
(0 -1.21949e-18 0)
(0 -1.25191e-18 0)
(0 -1.28571e-18 0)
(0 -1.32097e-18 0)
(0 -1.35776e-18 0)
(0 -1.39614e-18 0)
(0 -1.43621e-18 0)
(0 -1.47804e-18 0)
(0 -1.52176e-18 0)
(0 -1.56745e-18 0)
(0 -1.61526e-18 0)
(0 -1.66526e-18 0)
(0 -1.71756e-18 0)
(0 -1.77224e-18 0)
(0 -1.82948e-18 0)
(0 -1.88969e-18 0)
(0 -1.95367e-18 0)
(0 -2.02254e-18 0)
(0 -2.09736e-18 0)
(0 -2.1782e-18 0)
(0 -2.26365e-18 0)
(0 -2.35252e-18 0)
(0 -2.44894e-18 0)
(0 -4.09575e-18 0)
(0 -1.73506e-17 0)
(0 -8.37277e-17 0)
(0 -4.2945e-16 0)
(0 -2.38708e-15 0)
(0 -1.5002e-14 0)
(0 -1.09679e-13 0)
(0 -8.99324e-13 0)
(0 -7.75675e-12 0)
(0 -8.24189e-11 0)
(0 -1.21675e-09 0)
(0 -2.18928e-08 0)
(0 -5.83305e-07 0)
(0 -3.41455e-05 0)
(0 -0.00789971 0)
(0 -1.00524 0)
(0 -2.96032 0)
(0 -1.68933 0)
(0 -1.04587 0)
(0 -0.895065 0)
(0 -0.784855 0)
(0 -0.684156 0)
(0 -0.588755 0)
(0 -0.500911 0)
(0 -0.422848 0)
(0 -0.35543 0)
(0 -0.298338 0)
(0 -0.250578 0)
(0 -0.210882 0)
(0 -0.177975 0)
(0 -0.150694 0)
(0 -0.128039 0)
(0 -0.109174 0)
(0 -0.0934105 0)
(0 -0.0801909 0)
(0 -0.0690625 0)
(0 -0.0596584 0)
(0 -0.0516818 0)
(0 -0.0448912 0)
(0 -0.0390899 0)
(0 -0.0341171 0)
(0 -0.0298407 0)
(0 -0.0261519 0)
(0 -0.0229608 0)
(0 -0.0201926 0)
(0 -0.0177849 0)
(0 -0.0156857 0)
(0 -0.0138512 0)
(0 -0.0122453 0)
(0 -0.0108385 0)
(0 -0.00960742 0)
(0 -0.00853366 0)
(0 -0.00760138 0)
(0 -0.00679409 0)
(0 -0.00609184 0)
(0 -0.00547036 0)
(0 -0.00490371 0)
(0 -0.00437054 0)
(0 -0.00385973 0)
(0 -0.00336951 0)
(0 -0.00290324 0)
(0 -0.00247208 0)
(0 -0.00209644 0)
(0 -0.00179107 0)
(0 -0.00154868 0)
(0 -0.00134496 0)
(0 -0.00115785 0)
(0 -0.000981908 0)
(0 -0.000824235 0)
(0 -0.000685108 0)
(-1.74935e-19 -0.000560801 0)
(0 -0.000458905 0)
(0 -0.000379776 0)
(1.62488e-19 -0.000310626 0)
(0 -0.000252105 0)
(-7.7633e-20 -0.000209025 0)
(0 -0.000173275 0)
(3.73084e-20 -0.000141846 0)
(0 -0.000117758 0)
(0 -9.80818e-05 0)
(0 -8.16159e-05 0)
(1.75947e-20 -6.89068e-05 0)
(0 -5.73171e-05 0)
(0 -4.77748e-05 0)
(0 -4.09554e-05 0)
(0 -3.4068e-05 0)
(0 -2.80564e-05 0)
(-8.17547e-21 -2.37531e-05 0)
(0 -1.98172e-05 0)
(-7.8865e-21 -1.64056e-05 0)
(0 -1.34509e-05 0)
(0 -1.10746e-05 0)
(0 -9.26043e-06 0)
(0 -7.44384e-06 0)
(0 -6.01211e-06 0)
(0 -4.91582e-06 0)
(0 -3.88978e-06 0)
(7.67399e-22 -3.06727e-06 0)
(0 -2.4109e-06 0)
(0 -1.89628e-06 0)
(0 -1.55935e-06 0)
(0 -1.11874e-06 0)
(0 -7.74787e-07 0)
(0 -2.67188e-08 0)
(0 -2.05682e-07 0)
(0 -5.14253e-07 0)
(0 -3.66852e-07 0)
(0 -1.37777e-07 0)
(0 -8.10993e-21 0)
(0 -1.99171e-22 0)
(0 -1.14962e-22 0)
(-1.1027e-37 -1.41931e-22 0)
(4.8144e-38 -1.57547e-22 0)
(0 -1.63746e-22 0)
(0 -1.2448e-22 0)
(-6.57308e-39 -5.46018e-23 0)
(0 -1.40397e-23 0)
(0 -3.34336e-24 0)
(-2.19767e-40 -4.86628e-25 0)
(0 -1.79375e-26 0)
(0 -2.0317e-28 0)
(0 -2.56906e-30 0)
(0 -4.10941e-32 0)
(0 -5.91129e-34 0)
(0 -5.16418e-36 0)
(0 -2.46214e-38 0)
(0 -9.50903e-41 0)
(0 -1.40306e-42 0)
(0 -6.77162e-43 0)
(0 -4.2608e-43 0)
(0 -3.43305e-43 0)
(0 -2.31848e-43 0)
(0 -1.02713e-43 0)
(0 -4.47413e-44 0)
(4.18178e-60 -2.21481e-44 0)
(0 -1.20079e-44 0)
(0 -6.72381e-45 0)
(0 -3.35098e-45 0)
(0 -1.61127e-45 0)
(0 -7.95976e-46 0)
(0 -3.87797e-46 0)
(0 -1.85364e-46 0)
(0 -8.68469e-47 0)
(0 -3.98541e-47 0)
(0 -1.78999e-47 0)
(0 -7.862e-48 0)
(0 -3.37403e-48 0)
(0 -1.41352e-48 0)
(0 -5.77525e-49 0)
(0 -2.29882e-49 0)
(0 -8.90481e-50 0)
(0 -3.35286e-50 0)
(0 -1.22553e-50 0)
(0 -4.3427e-51 0)
(3.33531e-67 -1.48962e-51 0)
(0 -4.93833e-52 0)
(0 -1.57949e-52 0)
(0 -4.86472e-53 0)
(0 -1.43981e-53 0)
(0 -4.08568e-54 0)
(0 -1.10876e-54 0)
(0 -2.8695e-55 0)
(0 -7.06001e-56 0)
(0 -1.64551e-56 0)
(5.20355e-73 -3.6187e-57 0)
(0 -7.47428e-58 0)
(0 -1.44229e-58 0)
(-1.91372e-75 -2.58412e-59 0)
(0 -4.26745e-60 0)
(0 -6.43861e-61 0)
(0 -8.77984e-62 0)
(0 -1.06746e-62 0)
(0 -1.13699e-63 0)
(0 -1.03614e-64 0)
(0 -7.81159e-66 0)
(0 -4.62711e-67 0)
(0 -1.96874e-68 0)
(0 -4.94352e-70 0)
(0 -3.23214e-72 0)
(0 -1.26304e-75 0)
(0 -1.55196e-77 0)
(0 -9.46375e-80 0)
(0 -2.42613e-90 0)
(0 -3.09277e-101 0)
(0 -2.78329e-112 0)
(0 -1.84265e-123 0)
(0 -1.01077e-134 0)
(0 -4.43976e-146 0)
(0 -1.69076e-157 0)
(0 -1.05917e-166 0)
(0 -3.56872e-177 0)
(0 -3.64749e-185 0)
(0 -1.10091e-195 0)
(0 -1.25475e-203 0)
(0 -4.49637e-214 0)
(0 -4.31634e-222 0)
(0 -1.94126e-232 0)
(0 -1.48606e-240 0)
(0 -1.26052e-250 0)
(0 -5.17348e-259 0)
(0 -8.28442e-269 0)
(0 -1.83145e-277 0)
(0 -4.12673e-287 0)
(0 -6.58883e-296 0)
(0 -1.95499e-305 0)
(0 -2.40612e-314 0)
(0 -9.88131e-324 0)
(0 -0 0)
(0 0 0)
(0 0 0)
(0 0 0)
(0 0 0)
(0 0 0)
(0 0 0)
(0 0 0)
(0 0 0)
(0 0 0)
(0 0 0)
(0 0 0)
(0 0 0)
(0 0 0)
(0 0 0)
(0 0 0)
(0 0 0)
(0 0 0)
(0 0 0)
(0 0 0)
(0 0 0)
)
;

boundaryField
{
    inandouthalf11
    {
        type            cyclic;
    }
    inandouthalf12
    {
        type            cyclic;
    }
    inandouthalf21
    {
        type            cyclic;
    }
    inandouthalf22
    {
        type            cyclic;
    }
    inandouthalf31
    {
        type            cyclic;
    }
    inandouthalf32
    {
        type            cyclic;
    }
    inandouthalf41
    {
        type            cyclic;
    }
    inandouthalf42
    {
        type            cyclic;
    }
    top
    {
        type            symmetryPlane;
    }
    walls
    {
        type            zeroGradient;
    }
    frontAndBackPlanes
    {
        type            empty;
    }
}


// ************************************************************************* //
