/*--------------------------------*- C++ -*----------------------------------*\
| =========                 |                                                 |
| \\      /  F ield         | OpenFOAM: The Open Source CFD Toolbox           |
|  \\    /   O peration     | Version:  2.4.x                                 |
|   \\  /    A nd           | Web:      www.OpenFOAM.org                      |
|    \\/     M anipulation  |                                                 |
\*---------------------------------------------------------------------------*/
FoamFile
{
    version     2.0;
    format      ascii;
    class       volTensorField;
    location    "5.4";
    object      Tauf;
}
// * * * * * * * * * * * * * * * * * * * * * * * * * * * * * * * * * * * * * //

dimensions      [0 2 -2 0 0 0 0];

internalField   nonuniform List<tensor> 
360
(
(0 -7.86836e-10 0 -7.86836e-10 8.57232e-10 0 0 0 0)
(0 -7.48375e-11 0 -7.48375e-11 1.10236e-09 0 0 0 0)
(0 -7.78025e-11 0 -7.78025e-11 1.15814e-09 0 0 0 0)
(0 -7.32778e-11 0 -7.32778e-11 1.08834e-09 0 0 0 0)
(1.00974e-25 -7.40699e-11 0 -7.40699e-11 1.08005e-09 0 0 0 0)
(1.00974e-25 -7.64904e-11 0 -7.64904e-11 1.10116e-09 0 0 0 0)
(1.00974e-25 -7.82284e-11 0 -7.82284e-11 1.11848e-09 0 0 0 0)
(0 -7.9302e-11 0 -7.9302e-11 1.12673e-09 0 0 0 0)
(2.01948e-25 -8.0158e-11 0 -8.0158e-11 1.13097e-09 0 0 0 0)
(0 -8.10746e-11 0 -8.10746e-11 1.13566e-09 0 0 0 0)
(1.00974e-25 -8.21373e-11 0 -8.21373e-11 1.14222e-09 0 0 0 0)
(0 -8.33025e-11 0 -8.33025e-11 1.14997e-09 0 0 0 0)
(2.01948e-25 -8.44927e-11 0 -8.44927e-11 1.15791e-09 0 0 0 0)
(0 -8.56617e-11 0 -8.56617e-11 1.16538e-09 0 0 0 0)
(0 -8.68123e-11 0 -8.68123e-11 1.17239e-09 0 0 0 0)
(0 -8.7968e-11 0 -8.7968e-11 1.17925e-09 0 0 0 0)
(0 -8.91395e-11 0 -8.91395e-11 1.18612e-09 0 0 0 0)
(2.01948e-25 -9.03224e-11 0 -9.03224e-11 1.19289e-09 0 0 0 0)
(0 -9.15135e-11 0 -9.15135e-11 1.19959e-09 0 0 0 0)
(0 -9.27055e-11 0 -9.27055e-11 1.20609e-09 0 0 0 0)
(0 -9.39011e-11 0 -9.39011e-11 1.21241e-09 0 0 0 0)
(2.01948e-25 -9.51245e-11 0 -9.51245e-11 1.2189e-09 0 0 0 0)
(0 -9.64006e-11 0 -9.64006e-11 1.22582e-09 0 0 0 0)
(0 -9.77537e-11 0 -9.77537e-11 1.23348e-09 0 0 0 0)
(0 -9.92107e-11 0 -9.92107e-11 1.24222e-09 0 0 0 0)
(2.01948e-25 -1.008e-10 0 -1.008e-10 1.25232e-09 0 0 0 0)
(0 -1.02552e-10 0 -1.02552e-10 1.26412e-09 0 0 0 0)
(0 -1.04478e-10 0 -1.04478e-10 1.2777e-09 0 0 0 0)
(0 -1.06533e-10 0 -1.06533e-10 1.29248e-09 0 0 0 0)
(0 -1.08634e-10 0 -1.08634e-10 1.30734e-09 0 0 0 0)
(0 -1.10657e-10 0 -1.10657e-10 1.32094e-09 0 0 0 0)
(0 -1.1242e-10 0 -1.1242e-10 1.331e-09 0 0 0 0)
(0 -1.13717e-10 0 -1.13717e-10 1.33528e-09 0 0 0 0)
(0 -1.1435e-10 0 -1.1435e-10 1.3317e-09 0 0 0 0)
(0 -1.14176e-10 0 -1.14176e-10 1.31876e-09 0 0 0 0)
(-4.03897e-25 -1.13217e-10 0 -1.13217e-10 1.29702e-09 0 0 0 0)
(0 -1.11721e-10 0 -1.11721e-10 1.26939e-09 0 0 0 0)
(0 -1.10175e-10 0 -1.10175e-10 1.24166e-09 0 0 0 0)
(0 -1.09255e-10 0 -1.09255e-10 1.22117e-09 0 0 0 0)
(0 -1.09866e-10 0 -1.09866e-10 1.21795e-09 0 0 0 0)
(0 -1.13147e-10 0 -1.13147e-10 1.24457e-09 0 0 0 0)
(0 -1.20452e-10 0 -1.20452e-10 1.31516e-09 0 0 0 0)
(-4.03897e-25 -1.33482e-10 0 -1.33482e-10 1.44777e-09 0 0 0 0)
(0 -1.54171e-10 0 -1.54171e-10 1.66125e-09 0 0 0 0)
(0 -1.83879e-10 0 -1.83879e-10 1.96512e-09 0 0 0 0)
(0 -2.21098e-10 0 -2.21098e-10 2.33529e-09 0 0 0 0)
(0 -2.57093e-10 0 -2.57093e-10 2.67374e-09 0 0 0 0)
(0 -2.73148e-10 0 -2.73148e-10 2.80097e-09 0 0 0 0)
(0 -2.48908e-10 0 -2.48908e-10 2.54783e-09 0 0 0 0)
(0 -1.83447e-10 0 -1.83447e-10 1.92074e-09 0 0 0 0)
(-4.03897e-25 -1.04589e-10 0 -1.04589e-10 1.15749e-09 0 0 0 0)
(0 -4.5064e-11 0 -4.5064e-11 5.44207e-10 0 0 0 0)
(0 -1.47577e-11 0 -1.47577e-11 1.9652e-10 0 0 0 0)
(0 -3.87067e-12 0 -3.87067e-12 5.29093e-11 0 0 0 0)
(0 -9.4471e-13 0 -9.4471e-13 8.30087e-12 0 0 0 0)
(0 -3.02106e-13 0 -3.02106e-13 -2.90934e-12 0 0 0 0)
(0 -1.74842e-13 0 -1.74842e-13 -5.61321e-12 0 0 0 0)
(0 -1.54442e-13 0 -1.54442e-13 -6.29266e-12 0 0 0 0)
(0 -1.52006e-13 0 -1.52006e-13 -6.9043e-12 0 0 0 0)
(0 -1.58857e-13 0 -1.58857e-13 -7.13661e-12 0 0 0 0)
(0 -1.65162e-13 0 -1.65162e-13 -7.4672e-12 0 0 0 0)
(0 -1.6994e-13 0 -1.6994e-13 -7.79131e-12 0 0 0 0)
(0 -1.7561e-13 0 -1.7561e-13 -7.95325e-12 0 0 0 0)
(0 -1.7932e-13 0 -1.7932e-13 -8.21413e-12 0 0 0 0)
(0 -1.8401e-13 0 -1.8401e-13 -8.41463e-12 0 0 0 0)
(0 -1.89786e-13 0 -1.89786e-13 -8.67302e-12 0 0 0 0)
(0 -1.97134e-13 0 -1.97134e-13 -8.91691e-12 0 0 0 0)
(0 -2.04123e-13 0 -2.04123e-13 -9.21076e-12 0 0 0 0)
(0 -2.10791e-13 0 -2.10791e-13 -9.59996e-12 0 0 0 0)
(0 -2.20354e-13 0 -2.20354e-13 -9.95509e-12 0 0 0 0)
(0 -2.31123e-13 0 -2.31123e-13 -1.02158e-11 0 0 0 0)
(0 -2.36972e-13 0 -2.36972e-13 -1.06813e-11 0 0 0 0)
(0 -2.44177e-13 0 -2.44177e-13 -1.09808e-11 0 0 0 0)
(0 -2.52291e-13 0 -2.52291e-13 -1.12493e-11 0 0 0 0)
(0 -2.58662e-13 0 -2.58662e-13 -1.15557e-11 0 0 0 0)
(0 -2.63984e-13 0 -2.63984e-13 -1.17947e-11 0 0 0 0)
(0 -2.68336e-13 0 -2.68336e-13 -1.20887e-11 0 0 0 0)
(0 -2.7465e-13 0 -2.7465e-13 -1.23164e-11 0 0 0 0)
(0 -2.813e-13 0 -2.813e-13 -1.25946e-11 0 0 0 0)
(0 -2.8768e-13 0 -2.8768e-13 -1.29196e-11 0 0 0 0)
(0 -2.94932e-13 0 -2.94932e-13 -1.32532e-11 0 0 0 0)
(0 -3.03327e-13 0 -3.03327e-13 -1.35778e-11 0 0 0 0)
(0 -3.11405e-13 0 -3.11405e-13 -1.39465e-11 0 0 0 0)
(0 -3.19473e-13 0 -3.19473e-13 -1.42968e-11 0 0 0 0)
(0 -3.2738e-13 0 -3.2738e-13 -1.46424e-11 0 0 0 0)
(0 -3.35112e-13 0 -3.35112e-13 -1.49742e-11 0 0 0 0)
(0 -3.42539e-13 0 -3.42539e-13 -1.52949e-11 0 0 0 0)
(0 -3.49659e-13 0 -3.49659e-13 -1.56254e-11 0 0 0 0)
(0 -3.57204e-13 0 -3.57204e-13 -1.59455e-11 0 0 0 0)
(0 -3.65062e-13 0 -3.65062e-13 -1.62803e-11 0 0 0 0)
(0 -3.7316e-13 0 -3.7316e-13 -1.66391e-11 0 0 0 0)
(0 -3.8183e-13 0 -3.8183e-13 -1.7009e-11 0 0 0 0)
(0 -3.90988e-13 0 -3.90988e-13 -1.73937e-11 0 0 0 0)
(0 -4.00358e-13 0 -4.00358e-13 -1.77975e-11 0 0 0 0)
(0 -4.09969e-13 0 -4.09969e-13 -1.82089e-11 0 0 0 0)
(0 -4.19779e-13 0 -4.19779e-13 -1.86283e-11 0 0 0 0)
(0 -4.29745e-13 0 -4.29745e-13 -1.90565e-11 0 0 0 0)
(0 -4.39906e-13 0 -4.39906e-13 -1.94943e-11 0 0 0 0)
(0 -4.50353e-13 0 -4.50353e-13 -1.99424e-11 0 0 0 0)
(0 -4.61128e-13 0 -4.61128e-13 -2.04041e-11 0 0 0 0)
(0 -4.72265e-13 0 -4.72265e-13 -2.08822e-11 0 0 0 0)
(0 -4.83827e-13 0 -4.83827e-13 -2.13765e-11 0 0 0 0)
(0 -4.95825e-13 0 -4.95825e-13 -2.1889e-11 0 0 0 0)
(0 -5.08255e-13 0 -5.08255e-13 -2.24208e-11 0 0 0 0)
(0 -5.21147e-13 0 -5.21147e-13 -2.29722e-11 0 0 0 0)
(0 -5.34529e-13 0 -5.34529e-13 -2.35443e-11 0 0 0 0)
(0 -5.48434e-13 0 -5.48434e-13 -2.41388e-11 0 0 0 0)
(0 -5.62905e-13 0 -5.62905e-13 -2.47572e-11 0 0 0 0)
(0 -5.77985e-13 0 -5.77985e-13 -2.54008e-11 0 0 0 0)
(0 -5.93712e-13 0 -5.93712e-13 -2.60716e-11 0 0 0 0)
(0 -6.10124e-13 0 -6.10124e-13 -2.67709e-11 0 0 0 0)
(0 -6.27262e-13 0 -6.27262e-13 -2.75002e-11 0 0 0 0)
(0 -6.45165e-13 0 -6.45165e-13 -2.8261e-11 0 0 0 0)
(0 -6.63877e-13 0 -6.63877e-13 -2.9055e-11 0 0 0 0)
(0 -6.83445e-13 0 -6.83445e-13 -2.98837e-11 0 0 0 0)
(0 -7.03918e-13 0 -7.03918e-13 -3.07491e-11 0 0 0 0)
(0 -7.25352e-13 0 -7.25352e-13 -3.1653e-11 0 0 0 0)
(0 -7.47811e-13 0 -7.47811e-13 -3.25978e-11 0 0 0 0)
(0 -7.71365e-13 0 -7.71365e-13 -3.35856e-11 0 0 0 0)
(0 -7.96082e-13 0 -7.96082e-13 -3.46188e-11 0 0 0 0)
(0 -8.22029e-13 0 -8.22029e-13 -3.56997e-11 0 0 0 0)
(0 -8.49261e-13 0 -8.49261e-13 -3.68303e-11 0 0 0 0)
(0 -8.77831e-13 0 -8.77831e-13 -3.80142e-11 0 0 0 0)
(0 -9.07831e-13 0 -9.07831e-13 -3.92575e-11 0 0 0 0)
(0 -9.39468e-13 0 -9.39468e-13 -4.05717e-11 0 0 0 0)
(0 -9.73131e-13 0 -9.73131e-13 -4.19733e-11 0 0 0 0)
(0 -1.00938e-12 0 -1.00938e-12 -4.34799e-11 0 0 0 0)
(0 -1.04873e-12 0 -1.04873e-12 -4.51003e-11 0 0 0 0)
(0 -1.09122e-12 0 -1.09122e-12 -4.68279e-11 0 0 0 0)
(0 -1.13615e-12 0 -1.13615e-12 -4.866e-11 0 0 0 0)
(0 -1.18293e-12 0 -1.18293e-12 -5.06535e-11 0 0 0 0)
(0 -1.23367e-12 0 -1.23367e-12 -5.29443e-11 0 0 0 0)
(0 -1.29464e-12 0 -1.29464e-12 -5.56051e-11 0 0 0 0)
(0 -1.37036e-12 0 -1.37036e-12 -5.85005e-11 0 0 0 0)
(0 -1.45347e-12 0 -1.45347e-12 -6.15544e-11 0 0 0 0)
(0 -1.5324e-12 0 -1.5324e-12 -6.51484e-11 0 0 0 0)
(0 -1.61896e-12 0 -1.61896e-12 -7.01115e-11 0 0 0 0)
(0 -1.75918e-12 0 -1.75918e-12 -7.69227e-11 0 0 0 0)
(0 -1.98759e-12 0 -1.98759e-12 -8.34737e-11 0 0 0 0)
(0 -2.21456e-12 0 -2.21456e-12 -8.68124e-11 0 0 0 0)
(0 -2.25096e-12 0 -2.25096e-12 -9.78892e-11 0 0 0 0)
(0 -2.41053e-12 0 -2.41053e-12 -1.14186e-10 0 0 0 0)
(0 -3.01667e-12 0 -3.01667e-12 -1.30627e-10 0 0 0 0)
(0 -3.81858e-12 0 -3.81858e-12 -1.96737e-10 0 0 0 0)
(0 -6.64249e-12 0 -6.64249e-12 5.15662e-10 0 0 0 0)
(0 -8.11483e-10 0 -8.11483e-10 -1.33725e-08 0 0 0 0)
(0 -5.99464e-07 0 -5.99464e-07 4.17974e-08 0 0 0 0)
(0 -0.000136283 0 -0.000136283 6.88052e-07 0 0 0 0)
(0 -0.0013215 0 -0.0013215 9.54846e-07 0 0 0 0)
(0 -0.00276685 0 -0.00276685 -3.14541e-06 0 0 0 0)
(0 -0.00311585 0 -0.00311585 -2.18154e-07 0 0 0 0)
(0 -0.00325133 0 -0.00325133 -2.13438e-06 0 0 0 0)
(0 -0.00329191 0 -0.00329191 -2.24311e-06 0 0 0 0)
(0 -0.00328619 0 -0.00328619 -2.39042e-06 0 0 0 0)
(0 -0.00325916 0 -0.00325916 -2.41224e-06 0 0 0 0)
(0 -0.00322291 0 -0.00322291 -2.31498e-06 0 0 0 0)
(0 -0.00318298 0 -0.00318298 -2.13278e-06 0 0 0 0)
(0 -0.00314172 0 -0.00314172 -1.90537e-06 0 0 0 0)
(0 -0.0030999 0 -0.0030999 -1.66265e-06 0 0 0 0)
(0 -0.00305769 0 -0.00305769 -1.42397e-06 0 0 0 0)
(0 -0.00301497 0 -0.00301497 -1.20058e-06 0 0 0 0)
(0 -0.00297159 0 -0.00297159 -9.98145e-07 0 0 0 0)
(0 -0.00292739 0 -0.00292739 -8.18764e-07 0 0 0 0)
(0 -0.00288225 0 -0.00288225 -6.62368e-07 0 0 0 0)
(0 -0.00283611 0 -0.00283611 -5.27684e-07 0 0 0 0)
(0 -0.0027889 0 -0.0027889 -4.12838e-07 0 0 0 0)
(0 -0.00274062 0 -0.00274062 -3.15735e-07 0 0 0 0)
(0 -0.00269127 0 -0.00269127 -2.34269e-07 0 0 0 0)
(0 -0.00264085 0 -0.00264085 -1.66424e-07 0 0 0 0)
(0 -0.00258939 0 -0.00258939 -1.10349e-07 0 0 0 0)
(0 -0.00253692 0 -0.00253692 -6.43706e-08 0 0 0 0)
(0 -0.00248348 0 -0.00248348 -2.70066e-08 0 0 0 0)
(0 -0.0024291 0 -0.0024291 3.04711e-09 0 0 0 0)
(0 -0.00237383 0 -0.00237383 2.69267e-08 0 0 0 0)
(0 -0.0023177 0 -0.0023177 4.56166e-08 0 0 0 0)
(0 -0.00226077 0 -0.00226077 5.99651e-08 0 0 0 0)
(0 -0.00220307 0 -0.00220307 7.06995e-08 0 0 0 0)
(0 -0.00214466 0 -0.00214466 7.844e-08 0 0 0 0)
(0 -0.00208558 0 -0.00208558 8.37131e-08 0 0 0 0)
(0 -0.00202588 0 -0.00202588 8.69684e-08 0 0 0 0)
(0 -0.0019656 0 -0.0019656 8.86043e-08 0 0 0 0)
(0 -0.0019048 0 -0.0019048 8.9001e-08 0 0 0 0)
(0 -0.00184354 0 -0.00184354 8.855e-08 0 0 0 0)
(0 -0.00178186 0 -0.00178186 8.76542e-08 0 0 0 0)
(0 -0.00171983 0 -0.00171983 8.66753e-08 0 0 0 0)
(0 -0.0016575 0 -0.0016575 8.58314e-08 0 0 0 0)
(0 -0.00159494 0 -0.00159494 8.50858e-08 0 0 0 0)
(0 -0.00153221 0 -0.00153221 8.41029e-08 0 0 0 0)
(0 -0.00146937 0 -0.00146937 8.23416e-08 0 0 0 0)
(0 -0.00140652 0 -0.00140652 7.92809e-08 0 0 0 0)
(0 -0.00134372 0 -0.00134372 7.46505e-08 0 0 0 0)
(0 -0.00128106 0 -0.00128106 6.85194e-08 0 0 0 0)
(0 -0.00121865 0 -0.00121865 6.12705e-08 0 0 0 0)
(0 -0.0011566 0 -0.0011566 5.35708e-08 0 0 0 0)
(0 -0.00109502 0 -0.00109502 4.62463e-08 0 0 0 0)
(0 -0.00103404 0 -0.00103404 3.99302e-08 0 0 0 0)
(0 -0.000973778 0 -0.000973778 3.47278e-08 0 0 0 0)
(0 -0.000914368 0 -0.000914368 3.02792e-08 0 0 0 0)
(0 -0.000855939 0 -0.000855939 2.61709e-08 0 0 0 0)
(0 -0.000798627 0 -0.000798627 2.22678e-08 0 0 0 0)
(0 -0.000742569 0 -0.000742569 1.86667e-08 0 0 0 0)
(0 -0.000687362 0 -0.000687362 1.54341e-08 0 0 0 0)
(2.24819e-17 -0.000632647 0 -0.000632647 1.26039e-08 0 0 0 0)
(0 -0.000578653 0 -0.000578653 1.02553e-08 0 0 0 0)
(0 -0.000525617 0 -0.000525617 8.36399e-09 0 0 0 0)
(0 -0.00047378 0 -0.00047378 6.8001e-09 0 0 0 0)
(0 -0.000423384 0 -0.000423384 5.51127e-09 0 0 0 0)
(0 -0.000374659 0 -0.000374659 4.49809e-09 0 0 0 0)
(0 -0.000327817 0 -0.000327817 3.68985e-09 0 0 0 0)
(-1.81773e-17 -0.00028304 0 -0.00028304 3.02041e-09 0 0 0 0)
(0 -0.000240477 0 -0.000240477 2.47956e-09 0 0 0 0)
(0 -0.00020023 0 -0.00020023 2.04901e-09 0 0 0 0)
(0 -0.000162358 0 -0.000162358 1.7018e-09 0 0 0 0)
(-1.69442e-17 -0.000126877 0 -0.000126877 1.41867e-09 0 0 0 0)
(0 -9.37642e-05 0 -9.37642e-05 1.18116e-09 0 0 0 0)
(0 -6.29668e-05 0 -6.29668e-05 9.86393e-10 0 0 0 0)
(0 -3.44099e-05 0 -3.44099e-05 8.30184e-10 0 0 0 0)
(0 -8.00556e-06 0 -8.00556e-06 6.94239e-10 0 0 0 0)
(0 1.63387e-05 0 1.63387e-05 5.75922e-10 0 0 0 0)
(1.58464e-17 3.8714e-05 0 3.8714e-05 4.80884e-10 0 0 0 0)
(0 5.92059e-05 0 5.92059e-05 4.02131e-10 0 0 0 0)
(1.54034e-17 7.78916e-05 0 7.78916e-05 3.33112e-10 0 0 0 0)
(0 9.48385e-05 0 9.48385e-05 2.74071e-10 0 0 0 0)
(1.48612e-17 0.000110104 0 0.000110104 2.26068e-10 0 0 0 0)
(0 0.000123738 0 0.000123738 1.86744e-10 0 0 0 0)
(0 0.000135779 0 0.000135779 1.52386e-10 0 0 0 0)
(0 0.000146262 0 0.000146262 1.23328e-10 0 0 0 0)
(0 0.000155215 0 0.000155215 9.98227e-11 0 0 0 0)
(-1.30837e-17 0.000162661 0 0.000162661 7.98842e-11 0 0 0 0)
(-1.26665e-17 0.000168619 0 0.000168619 6.30496e-11 0 0 0 0)
(0 0.000173108 0 0.000173108 4.96382e-11 0 0 0 0)
(0 0.000176142 0 0.000176142 3.95531e-11 0 0 0 0)
(0 0.000177736 0 0.000177736 3.16308e-11 0 0 0 0)
(0 0.000177901 0 0.000177901 2.36577e-11 0 0 0 0)
(0 0.00017665 0 0.00017665 1.1633e-11 0 0 0 0)
(0 0.000173996 0 0.000173996 1.3116e-11 0 0 0 0)
(0 0.000169954 0 0.000169954 1.87304e-11 0 0 0 0)
(0 0.000164539 0 0.000164539 9.79389e-12 0 0 0 0)
(0 0.000157773 0 0.000157773 5.65737e-12 0 0 0 0)
(0 0.00014968 0 0.00014968 -1.78331e-13 0 0 0 0)
(0 0.000140295 0 0.000140295 -2.73604e-12 0 0 0 0)
(0 0.000129662 0 0.000129662 1.09668e-12 0 0 0 0)
(0 0.000117842 0 0.000117842 -1.59601e-12 0 0 0 0)
(1.03532e-17 0.000104917 0 0.000104917 3.25711e-12 0 0 0 0)
(-9.05944e-18 9.09998e-05 0 9.09998e-05 -4.80865e-12 0 0 0 0)
(0 7.62455e-05 0 7.62455e-05 5.99079e-12 0 0 0 0)
(0 6.08743e-05 0 6.08743e-05 -6.55188e-12 0 0 0 0)
(5.01681e-18 4.52064e-05 0 4.52064e-05 6.36916e-12 0 0 0 0)
(0 2.97042e-05 0 2.97042e-05 -5.37354e-12 0 0 0 0)
(0 1.4958e-05 0 1.4958e-05 3.65032e-12 0 0 0 0)
(8.04142e-19 3.10145e-06 0 3.10145e-06 -1.4165e-12 0 0 0 0)
(0 1.98172e-07 0 1.98172e-07 3.62367e-13 0 0 0 0)
(0 9.67119e-09 0 9.67119e-09 -2.75742e-13 0 0 0 0)
(0 5.13399e-10 0 5.13399e-10 2.70369e-13 0 0 0 0)
(0 2.70042e-10 0 2.70042e-10 -2.66167e-13 0 0 0 0)
(0 2.09431e-10 0 2.09431e-10 2.62418e-13 0 0 0 0)
(0 1.63348e-10 0 1.63348e-10 -2.58564e-13 0 0 0 0)
(0 1.26924e-10 0 1.26924e-10 2.55133e-13 0 0 0 0)
(0 9.82224e-11 0 9.82224e-11 -2.51579e-13 0 0 0 0)
(0 7.56875e-11 0 7.56875e-11 2.48409e-13 0 0 0 0)
(0 5.80562e-11 0 5.80562e-11 -2.45096e-13 0 0 0 0)
(0 4.43123e-11 0 4.43123e-11 2.42119e-13 0 0 0 0)
(0 3.36446e-11 0 3.36446e-11 -2.38986e-13 0 0 0 0)
(0 2.54051e-11 0 2.54051e-11 2.36137e-13 0 0 0 0)
(0 1.90752e-11 0 1.90752e-11 -2.33136e-13 0 0 0 0)
(0 1.42393e-11 0 1.42393e-11 2.30355e-13 0 0 0 0)
(0 1.05666e-11 0 1.05666e-11 -2.27446e-13 0 0 0 0)
(0 7.79403e-12 0 7.79403e-12 2.24694e-13 0 0 0 0)
(0 5.71331e-12 0 5.71331e-12 -2.21822e-13 0 0 0 0)
(0 4.16183e-12 0 4.16183e-12 2.19079e-13 0 0 0 0)
(0 3.01228e-12 0 3.01228e-12 -2.16219e-13 0 0 0 0)
(0 2.16606e-12 0 2.16606e-12 2.13462e-13 0 0 0 0)
(0 1.54703e-12 0 1.54703e-12 -2.10595e-13 0 0 0 0)
(0 1.09742e-12 0 1.09742e-12 2.07806e-13 0 0 0 0)
(0 7.73277e-13 0 7.73277e-13 -2.04918e-13 0 0 0 0)
(0 5.40833e-13 0 5.40833e-13 2.0209e-13 0 0 0 0)
(0 3.75501e-13 0 3.75501e-13 -1.9917e-13 0 0 0 0)
(0 2.58866e-13 0 2.58866e-13 1.96298e-13 0 0 0 0)
(0 1.77086e-13 0 1.77086e-13 -1.93343e-13 0 0 0 0)
(0 1.20188e-13 0 1.20188e-13 1.90424e-13 0 0 0 0)
(0 8.09778e-14 0 8.09778e-14 -1.87427e-13 0 0 0 0)
(0 5.40792e-14 0 5.40792e-14 1.84465e-13 0 0 0 0)
(0 3.59174e-14 0 3.59174e-14 -1.81433e-13 0 0 0 0)
(0 2.36001e-14 0 2.36001e-14 1.78426e-13 0 0 0 0)
(0 1.53801e-14 0 1.53801e-14 -1.75362e-13 0 0 0 0)
(0 1.0006e-14 0 1.0006e-14 1.72311e-13 0 0 0 0)
(-1.50452e-19 6.3519e-15 0 6.3519e-15 -1.69215e-13 0 0 0 0)
(0 4.01538e-15 0 4.01538e-15 1.66111e-13 0 0 0 0)
(0 2.49314e-15 0 2.49314e-15 -1.62981e-13 0 0 0 0)
(0 1.48736e-15 0 1.48736e-15 1.59849e-13 0 0 0 0)
(0 9.56209e-16 0 9.56209e-16 -1.56689e-13 0 0 0 0)
(0 6.61643e-16 0 6.61643e-16 1.53515e-13 0 0 0 0)
(0 4.00625e-16 0 4.00625e-16 -1.50331e-13 0 0 0 0)
(0 1.87047e-16 0 1.87047e-16 1.47125e-13 0 0 0 0)
(0 7.91081e-17 0 7.91081e-17 -1.43917e-13 0 0 0 0)
(0 4.18435e-17 0 4.18435e-17 1.40681e-13 0 0 0 0)
(-1.23064e-19 1.14757e-17 0 1.14757e-17 -1.37439e-13 0 0 0 0)
(0 3.33502e-17 0 3.33502e-17 1.34209e-13 0 0 0 0)
(0 2.60962e-17 0 2.60962e-17 -1.30949e-13 0 0 0 0)
(1.15864e-19 1.33244e-18 0 1.33244e-18 1.27695e-13 0 0 0 0)
(0 4.88022e-17 0 4.88022e-17 -1.24408e-13 0 0 0 0)
(0 2.546e-17 0 2.546e-17 1.21123e-13 0 0 0 0)
(0 -4.208e-17 0 -4.208e-17 -1.17824e-13 0 0 0 0)
(0 -8.49983e-18 0 -8.49983e-18 1.14515e-13 0 0 0 0)
(0 -2.17962e-17 0 -2.17962e-17 -1.11196e-13 0 0 0 0)
(0 -1.16056e-17 0 -1.16056e-17 1.07869e-13 0 0 0 0)
(0 4.57506e-17 0 4.57506e-17 -1.04528e-13 0 0 0 0)
(0 6.59042e-17 0 6.59042e-17 1.01174e-13 0 0 0 0)
(0 -2.26511e-17 0 -2.26511e-17 -9.78103e-14 0 0 0 0)
(0 -1.25432e-16 0 -1.25432e-16 9.44803e-14 0 0 0 0)
(0 -6.05893e-17 0 -6.05893e-17 -1.04167e-13 0 0 0 0)
(0 -2.29228e-17 0 -2.29228e-17 1.02976e-13 0 0 0 0)
(0 1.24408e-17 0 1.24408e-17 -1.01834e-13 0 0 0 0)
(0 2.8058e-17 0 2.8058e-17 1.00677e-13 0 0 0 0)
(0 -1.32349e-18 0 -1.32349e-18 -9.95159e-14 0 0 0 0)
(0 1.34731e-17 0 1.34731e-17 9.83377e-14 0 0 0 0)
(0 -6.35275e-18 0 -6.35275e-18 -9.71555e-14 0 0 0 0)
(0 -4.42045e-18 0 -4.42045e-18 9.59549e-14 0 0 0 0)
(0 2.24993e-17 0 2.24993e-17 -9.47495e-14 0 0 0 0)
(0 -3.854e-17 0 -3.854e-17 9.35233e-14 0 0 0 0)
(0 -1.50348e-17 0 -1.50348e-17 -9.2293e-14 0 0 0 0)
(0 3.09696e-17 0 3.09696e-17 9.10394e-14 0 0 0 0)
(0 1.64113e-17 0 1.64113e-17 -8.97821e-14 0 0 0 0)
(0 4.89691e-18 0 4.89691e-18 8.84993e-14 0 0 0 0)
(0 -6.11452e-18 0 -6.11452e-18 -8.72127e-14 0 0 0 0)
(0 -2.77933e-18 0 -2.77933e-18 8.58971e-14 0 0 0 0)
(0 -6.32628e-18 0 -6.32628e-18 -8.45781e-14 0 0 0 0)
(0 1.39496e-17 0 1.39496e-17 8.32249e-14 0 0 0 0)
(0 -5.55865e-19 0 -5.55865e-19 -8.18926e-14 0 0 0 0)
(0 -5.87629e-18 0 -5.87629e-18 8.04767e-14 0 0 0 0)
(0 -4.94985e-18 0 -4.94985e-18 -7.91239e-14 0 0 0 0)
(0 -7.46448e-18 0 -7.46448e-18 7.76649e-14 0 0 0 0)
(0 6.59098e-18 0 6.59098e-18 -7.62657e-14 0 0 0 0)
(0 1.17526e-17 0 1.17526e-17 7.47603e-14 0 0 0 0)
(0 4.52633e-18 0 4.52633e-18 -7.33061e-14 0 0 0 0)
(0 3.17637e-18 0 3.17637e-18 7.1753e-14 0 0 0 0)
(0 -1.81847e-17 0 -1.81847e-17 -7.02427e-14 0 0 0 0)
(0 -1.50348e-17 0 -1.50348e-17 6.86255e-14 0 0 0 0)
(0 -1.99847e-17 0 -1.99847e-17 -6.70487e-14 0 0 0 0)
(0 -7.10449e-17 0 -7.10449e-17 6.53707e-14 0 0 0 0)
(0 -2.32166e-16 0 -2.32166e-16 -6.37113e-14 0 0 0 0)
(0 1.37643e-18 0 1.37643e-18 6.19565e-14 0 0 0 0)
(0 2.25364e-16 0 2.25364e-16 -6.02027e-14 0 0 0 0)
(0 6.06952e-17 0 6.06952e-17 5.83577e-14 0 0 0 0)
(0 1.40555e-17 0 1.40555e-17 -5.65118e-14 0 0 0 0)
(0 9.34383e-18 0 9.34383e-18 5.45345e-14 0 0 0 0)
(0 4.07899e-17 0 4.07899e-17 -5.25761e-14 0 0 0 0)
(0 1.86347e-17 0 1.86347e-17 5.04592e-14 0 0 0 0)
(0 -2.09111e-17 0 -2.09111e-17 -4.83401e-14 0 0 0 0)
(0 -7.34007e-17 0 -7.34007e-17 4.60445e-14 0 0 0 0)
(0 6.90861e-18 0 6.90861e-18 -4.3726e-14 0 0 0 0)
(0 1.15302e-16 0 1.15302e-16 4.11711e-14 0 0 0 0)
(0 5.48719e-17 0 5.48719e-17 -3.85882e-14 0 0 0 0)
(0 -4.06046e-17 0 -4.06046e-17 3.56721e-14 0 0 0 0)
(0 -4.12399e-17 0 -4.12399e-17 -3.26848e-14 0 0 0 0)
(0 -2.11494e-17 0 -2.11494e-17 2.91619e-14 0 0 0 0)
(0 -1.45319e-17 0 -1.45319e-17 -2.5408e-14 0 0 0 0)
(0 1.34996e-17 0 1.34996e-17 2.05409e-14 0 0 0 0)
(0 -3.88576e-17 0 -3.88576e-17 -1.48317e-14 0 0 0 0)
(0 -4.84926e-17 0 -4.84926e-17 6.65143e-15 0 0 0 0)
)
;

boundaryField
{
    inandouthalf11
    {
        type            cyclic;
    }
    inandouthalf12
    {
        type            cyclic;
    }
    inandouthalf21
    {
        type            cyclic;
    }
    inandouthalf22
    {
        type            cyclic;
    }
    inandouthalf31
    {
        type            cyclic;
    }
    inandouthalf32
    {
        type            cyclic;
    }
    inandouthalf41
    {
        type            cyclic;
    }
    inandouthalf42
    {
        type            cyclic;
    }
    top
    {
        type            symmetryPlane;
    }
    walls
    {
        type            zeroGradient;
    }
    frontAndBackPlanes
    {
        type            empty;
    }
}


// ************************************************************************* //
