/*--------------------------------*- C++ -*----------------------------------*\
| =========                 |                                                 |
| \\      /  F ield         | OpenFOAM: The Open Source CFD Toolbox           |
|  \\    /   O peration     | Version:  2.4.x                                 |
|   \\  /    A nd           | Web:      www.OpenFOAM.org                      |
|    \\/     M anipulation  |                                                 |
\*---------------------------------------------------------------------------*/
FoamFile
{
    version     2.0;
    format      ascii;
    class       volScalarField;
    location    "5.4";
    object      Theta_0;
}
// * * * * * * * * * * * * * * * * * * * * * * * * * * * * * * * * * * * * * //

dimensions      [0 2 -2 0 0 0 0];

internalField   nonuniform List<scalar> 
360
(
6.6681e-21
6.68541e-21
6.67942e-21
6.67661e-21
6.67738e-21
6.6784e-21
6.67889e-21
6.67909e-21
6.6792e-21
6.67935e-21
6.67958e-21
6.67985e-21
6.68012e-21
6.68037e-21
6.68061e-21
6.68085e-21
6.68109e-21
6.68132e-21
6.68156e-21
6.6818e-21
6.68202e-21
6.68225e-21
6.6825e-21
6.68278e-21
6.6831e-21
6.68347e-21
6.6839e-21
6.68441e-21
6.68497e-21
6.68555e-21
6.6861e-21
6.68652e-21
6.68672e-21
6.68661e-21
6.68614e-21
6.68532e-21
6.68429e-21
6.68325e-21
6.68247e-21
6.68228e-21
6.68312e-21
6.68556e-21
6.69059e-21
6.69987e-21
6.71577e-21
6.74007e-21
6.76849e-21
6.78325e-21
6.76281e-21
6.71597e-21
6.67872e-21
6.66446e-21
6.66167e-21
6.66137e-21
6.66135e-21
6.66135e-21
6.66135e-21
6.66135e-21
6.66135e-21
6.66135e-21
6.66135e-21
6.66135e-21
6.66135e-21
6.66135e-21
6.66135e-21
6.66135e-21
6.66134e-21
6.66134e-21
6.66134e-21
6.66134e-21
6.66134e-21
6.66134e-21
6.66134e-21
6.66134e-21
6.66134e-21
6.66134e-21
6.66134e-21
6.66134e-21
6.66133e-21
6.66133e-21
6.66133e-21
6.66133e-21
6.66133e-21
6.66133e-21
6.66133e-21
6.66133e-21
6.66133e-21
6.66132e-21
6.66132e-21
6.66132e-21
6.66132e-21
6.66132e-21
6.66132e-21
6.66132e-21
6.66132e-21
6.66131e-21
6.66131e-21
6.66131e-21
6.66131e-21
6.66131e-21
6.66131e-21
6.6613e-21
6.6613e-21
6.6613e-21
6.6613e-21
6.6613e-21
6.6613e-21
6.66129e-21
6.66129e-21
6.66129e-21
6.66129e-21
6.66129e-21
6.66128e-21
6.66128e-21
6.66128e-21
6.66128e-21
6.66127e-21
6.66127e-21
6.66127e-21
6.66127e-21
6.66126e-21
6.66126e-21
6.66126e-21
6.66126e-21
6.66125e-21
6.66125e-21
6.66125e-21
6.66124e-21
6.66124e-21
6.66123e-21
6.66123e-21
6.66127e-21
1.48136e-20
6.81086e-20
3.53422e-19
1.98709e-18
1.22543e-17
8.4199e-17
6.55107e-16
5.86056e-15
6.1097e-14
7.52072e-13
1.1108e-11
2.01023e-10
5.60398e-09
3.91436e-07
1.44284e-05
0.000201195
0.00132027
0.00263115
0.0032693
0.0036912
0.00401731
0.00429091
0.00452728
0.00473147
0.00490535
0.00505038
0.00516835
0.00526148
0.00533217
0.00538284
0.00541578
0.00543307
0.00543659
0.00542797
0.00540867
0.00537996
0.00534296
0.00529866
0.00524797
0.0051917
0.0051306
0.00506534
0.00499658
0.00492491
0.0048509
0.00477509
0.00469797
0.00462002
0.00454169
0.00446339
0.00438551
0.0043084
0.00423238
0.00415772
0.00408466
0.00401337
0.003944
0.00387662
0.00381126
0.00374791
0.00368651
0.00362699
0.00356926
0.00351322
0.00345876
0.00340576
0.00335409
0.00330361
0.00325417
0.00320515
0.00315596
0.00310648
0.00305662
0.00300627
0.00295532
0.00290366
0.00285117
0.00279776
0.0027433
0.00268768
0.00263079
0.0025725
0.00251269
0.00245123
0.00238798
0.00232279
0.00225552
0.002186
0.00211404
0.00203944
0.00196199
0.00188143
0.00179747
0.00170978
0.00161795
0.0015215
0.00141985
0.00131223
0.00119765
0.00107478
0.000941666
0.000795269
0.00063026
0.000435043
0
0
0
0
0
0
0
0
0
0
0
0
0
0
0
0
0
0
0
0
0
0
0
0
0
0
0
0
0
0
0
0
0
0
0
0
0
0
0
0
0
0
0
0
0
0
0
0
0
0
0
0
0
0
0
0
0
0
0
0
0
0
0
0
0
0
0
0
0
0
0
0
0
0
0
0
0
0
0
0
0
0
0
0
0
0
0
0
0
0
0
0
0
0
0
0
0
0
0
0
0
0
0
0
0
0
0
0
0
0
0
0
0
0
0
0
0
0
0
0
0
0
0
0
)
;

boundaryField
{
    inandouthalf11
    {
        type            cyclic;
    }
    inandouthalf12
    {
        type            cyclic;
    }
    inandouthalf21
    {
        type            cyclic;
    }
    inandouthalf22
    {
        type            cyclic;
    }
    inandouthalf31
    {
        type            cyclic;
    }
    inandouthalf32
    {
        type            cyclic;
    }
    inandouthalf41
    {
        type            cyclic;
    }
    inandouthalf42
    {
        type            cyclic;
    }
    top
    {
        type            symmetryPlane;
    }
    walls
    {
        type            zeroGradient;
    }
    frontAndBackPlanes
    {
        type            empty;
    }
}


// ************************************************************************* //
