/*--------------------------------*- C++ -*----------------------------------*\
| =========                 |                                                 |
| \\      /  F ield         | OpenFOAM: The Open Source CFD Toolbox           |
|  \\    /   O peration     | Version:  2.4.x                                 |
|   \\  /    A nd           | Web:      www.OpenFOAM.org                      |
|    \\/     M anipulation  |                                                 |
\*---------------------------------------------------------------------------*/
FoamFile
{
    version     2.0;
    format      ascii;
    class       volVectorField;
    location    "5.4";
    object      Ua;
}
// * * * * * * * * * * * * * * * * * * * * * * * * * * * * * * * * * * * * * //

dimensions      [0 1 -1 0 0 0 0];

internalField   nonuniform List<vector> 
360
(
(-1.0174e-32 -8.90656e-32 0)
(-3.5504e-08 -2.22631e-07 0)
(-7.68172e-08 -4.19064e-07 0)
(-1.13511e-07 -5.84775e-07 0)
(-1.49723e-07 -7.51807e-07 0)
(-1.87342e-07 -9.25928e-07 0)
(-2.26067e-07 -1.10368e-06 0)
(-2.65424e-07 -1.2828e-06 0)
(-3.05215e-07 -1.46249e-06 0)
(-3.45423e-07 -1.64272e-06 0)
(-3.86125e-07 -1.8239e-06 0)
(-4.27393e-07 -2.00637e-06 0)
(-4.69259e-07 -2.1902e-06 0)
(-5.11718e-07 -2.37533e-06 0)
(-5.54752e-07 -2.56162e-06 0)
(-5.98359e-07 -2.74903e-06 0)
(-6.42547e-07 -2.93758e-06 0)
(-6.87324e-07 -3.12727e-06 0)
(-7.32693e-07 -3.31808e-06 0)
(-7.78659e-07 -3.51e-06 0)
(-8.25219e-07 -3.70297e-06 0)
(-8.7238e-07 -3.89697e-06 0)
(-9.20161e-07 -4.09208e-06 0)
(-9.68595e-07 -4.28837e-06 0)
(-1.01773e-06 -4.48599e-06 0)
(-1.06762e-06 -4.68514e-06 0)
(-1.11834e-06 -4.88605e-06 0)
(-1.16997e-06 -5.08906e-06 0)
(-1.22262e-06 -5.29446e-06 0)
(-1.27631e-06 -5.50239e-06 0)
(-1.33105e-06 -5.71278e-06 0)
(-1.38676e-06 -5.92532e-06 0)
(-1.44326e-06 -6.13925e-06 0)
(-1.50027e-06 -6.35345e-06 0)
(-1.55741e-06 -6.56647e-06 0)
(-1.61425e-06 -6.77664e-06 0)
(-1.67043e-06 -6.98258e-06 0)
(-1.72577e-06 -7.18359e-06 0)
(-1.7804e-06 -7.38013e-06 0)
(-1.83483e-06 -7.57393e-06 0)
(-1.89006e-06 -7.76858e-06 0)
(-1.94775e-06 -7.96985e-06 0)
(-2.01026e-06 -8.18586e-06 0)
(-2.08093e-06 -8.42809e-06 0)
(-2.16408e-06 -8.71143e-06 0)
(-2.26441e-06 -9.05235e-06 0)
(-2.38473e-06 -9.46169e-06 0)
(-2.52107e-06 -9.92739e-06 0)
(-2.65758e-06 -1.03959e-05 0)
(-2.76987e-06 -1.07819e-05 0)
(-2.84106e-06 -1.10253e-05 0)
(-2.87451e-06 -1.11381e-05 0)
(-2.88612e-06 -1.11765e-05 0)
(-2.8892e-06 -1.11865e-05 0)
(-2.88989e-06 -1.11886e-05 0)
(-2.89003e-06 -1.11891e-05 0)
(-2.89006e-06 -1.11892e-05 0)
(-2.89007e-06 -1.11892e-05 0)
(-2.89007e-06 -1.11892e-05 0)
(-2.89008e-06 -1.11892e-05 0)
(-2.89008e-06 -1.11892e-05 0)
(-2.89008e-06 -1.11892e-05 0)
(-2.89008e-06 -1.11892e-05 0)
(-2.89008e-06 -1.11892e-05 0)
(-2.89008e-06 -1.11892e-05 0)
(-2.89008e-06 -1.11892e-05 0)
(-2.89008e-06 -1.11892e-05 0)
(-2.89008e-06 -1.11892e-05 0)
(-2.89008e-06 -1.11892e-05 0)
(-2.89009e-06 -1.11892e-05 0)
(-2.89009e-06 -1.11892e-05 0)
(-2.89009e-06 -1.11892e-05 0)
(-2.89009e-06 -1.11892e-05 0)
(-2.8901e-06 -1.11893e-05 0)
(-2.8901e-06 -1.11893e-05 0)
(-2.8901e-06 -1.11893e-05 0)
(-2.8901e-06 -1.11893e-05 0)
(-2.89011e-06 -1.11893e-05 0)
(-2.89011e-06 -1.11893e-05 0)
(-2.89011e-06 -1.11893e-05 0)
(-2.89011e-06 -1.11893e-05 0)
(-2.89012e-06 -1.11893e-05 0)
(-2.89012e-06 -1.11893e-05 0)
(-2.89012e-06 -1.11893e-05 0)
(-2.89012e-06 -1.11893e-05 0)
(-2.89013e-06 -1.11893e-05 0)
(-2.89013e-06 -1.11893e-05 0)
(-2.89013e-06 -1.11893e-05 0)
(-2.89014e-06 -1.11894e-05 0)
(-2.89014e-06 -1.11894e-05 0)
(-2.89014e-06 -1.11894e-05 0)
(-2.89015e-06 -1.11894e-05 0)
(-2.89015e-06 -1.11894e-05 0)
(-2.89015e-06 -1.11894e-05 0)
(-2.89016e-06 -1.11894e-05 0)
(-2.89016e-06 -1.11894e-05 0)
(-2.89016e-06 -1.11894e-05 0)
(-2.89017e-06 -1.11894e-05 0)
(-2.89017e-06 -1.11894e-05 0)
(-2.89018e-06 -1.11894e-05 0)
(-2.89018e-06 -1.11894e-05 0)
(-2.89018e-06 -1.11895e-05 0)
(-2.89019e-06 -1.11895e-05 0)
(-2.89019e-06 -1.11895e-05 0)
(-2.8902e-06 -1.11895e-05 0)
(-2.8902e-06 -1.11895e-05 0)
(-2.89021e-06 -1.11895e-05 0)
(-2.89021e-06 -1.11895e-05 0)
(-2.89022e-06 -1.11895e-05 0)
(-2.89022e-06 -1.11895e-05 0)
(-2.89023e-06 -1.11895e-05 0)
(-2.89023e-06 -1.11895e-05 0)
(-2.89024e-06 -1.11896e-05 0)
(-2.89024e-06 -1.11896e-05 0)
(-2.89025e-06 -1.11896e-05 0)
(-2.89025e-06 -1.11896e-05 0)
(-2.89026e-06 -1.11896e-05 0)
(-2.89026e-06 -1.11896e-05 0)
(-2.89027e-06 -1.11896e-05 0)
(-2.89027e-06 -1.11896e-05 0)
(-2.89028e-06 -1.11896e-05 0)
(-2.89028e-06 -1.11896e-05 0)
(-2.89029e-06 -1.11896e-05 0)
(-2.89029e-06 -1.11897e-05 0)
(-2.8903e-06 -1.11897e-05 0)
(-2.89031e-06 -1.11897e-05 0)
(-2.89031e-06 -1.11897e-05 0)
(-2.89032e-06 -1.11897e-05 0)
(-2.89033e-06 -1.11897e-05 0)
(-2.89033e-06 -1.11897e-05 0)
(-2.89034e-06 -1.11897e-05 0)
(-2.89035e-06 -1.11897e-05 0)
(-2.89035e-06 -1.11897e-05 0)
(-2.89036e-06 -1.11897e-05 0)
(-2.89036e-06 -1.11897e-05 0)
(-2.89037e-06 -1.11897e-05 0)
(-2.89038e-06 -1.11897e-05 0)
(-2.89038e-06 -1.11898e-05 0)
(-2.89039e-06 -1.11898e-05 0)
(-2.89039e-06 -1.11898e-05 0)
(-2.8904e-06 -1.11898e-05 0)
(-2.8904e-06 -1.11898e-05 0)
(-2.8904e-06 -1.11898e-05 0)
(-2.8904e-06 -1.11898e-05 0)
(-2.8904e-06 -1.11898e-05 0)
(-2.89041e-06 -1.11898e-05 0)
(-2.89041e-06 -1.11898e-05 0)
(-3.19618e-06 -1.12161e-05 0)
(-0.0731163 -0.000371827 0)
(-0.170519 -0.000395957 0)
(-0.246645 -0.000497938 0)
(-0.307774 -0.00054899 0)
(-0.358161 -0.000588567 0)
(-0.400558 -0.000614579 0)
(-0.436827 -0.000626664 0)
(-0.468299 -0.000624267 0)
(-0.495956 -0.000607253 0)
(-0.52054 -0.000575775 0)
(-0.542614 -0.000530205 0)
(-0.562612 -0.000471071 0)
(-0.580872 -0.000398992 0)
(-0.597656 -0.000314622 0)
(-0.613173 -0.000218614 0)
(-0.627591 -0.000111599 0)
(-0.641043 5.82866e-06 0)
(-0.653638 0.000133112 0)
(-0.665465 0.000269734 0)
(-0.676599 0.000415216 0)
(-0.687099 0.000569116 0)
(-0.697017 0.00073102 0)
(-0.706395 0.000900543 0)
(-0.71527 0.00107732 0)
(-0.723671 0.001261 0)
(-0.731626 0.00145124 0)
(-0.739157 0.0016477 0)
(-0.746282 0.00185006 0)
(-0.753018 0.00205795 0)
(-0.759381 0.00227101 0)
(-0.765383 0.00248885 0)
(-0.771037 0.00271105 0)
(-0.776353 0.00293714 0)
(-0.781341 0.00316658 0)
(-0.786011 0.00339867 0)
(-0.790373 0.00363233 0)
(-0.794434 0.00386585 0)
(-0.798206 0.00409668 0)
(-0.801698 0.00432121 0)
(-0.804921 0.00453501 0)
(-0.807886 0.00473337 0)
(-0.810608 0.00491211 0)
(-0.8131 0.00506841 0)
(-0.815377 0.00520128 0)
(-0.817455 0.0053116 0)
(-0.819349 0.00540198 0)
(-0.821072 0.00547611 0)
(-0.82264 0.00553751 0)
(-0.824065 0.00558822 0)
(-0.82536 0.00562874 0)
(-0.826537 0.00565897 0)
(-0.827611 0.00567925 0)
(-0.828592 0.00569071 0)
(-0.829501 0.00569469 0)
(-0.830354 0.00569231 0)
(-0.831156 0.00568506 0)
(-0.831913 0.00567408 0)
(-0.83263 0.00565984 0)
(-0.83331 0.00564314 0)
(-0.833959 0.00562494 0)
(-0.83458 0.00560541 0)
(-0.835177 0.00558471 0)
(-0.835752 0.00556339 0)
(-0.836309 0.00554154 0)
(-0.836849 0.00551927 0)
(-0.837375 0.00549672 0)
(-0.83789 0.0054736 0)
(-0.838394 0.0054501 0)
(-0.838888 0.00542631 0)
(-0.839376 0.00540151 0)
(-0.839857 0.00537576 0)
(-0.840332 0.00534931 0)
(-0.840803 0.0053216 0)
(-0.841269 0.00529239 0)
(-0.841732 0.00526143 0)
(-0.842191 0.00522878 0)
(-0.842645 0.00519418 0)
(-0.843096 0.0051565 0)
(-0.843544 0.00511583 0)
(-0.843988 0.00507167 0)
(-0.844428 0.00502268 0)
(-0.844863 0.00496828 0)
(-0.845292 0.00490763 0)
(-0.845712 0.0048394 0)
(-0.846122 0.00476157 0)
(-0.846526 0.00466408 0)
(-0.846917 0.00454525 0)
(-0.847281 0.0043988 0)
(-0.847729 0.00421594 0)
(-0.907073 -0.00232464 0)
(-0.905518 0.00624803 0)
(-0.903026 -0.0235119 0)
(-0.901149 -0.0396294 0)
(-0.898785 -0.0395947 0)
(-0.89667 -0.0395999 0)
(-0.894523 -0.039601 0)
(-0.892393 -0.0396019 0)
(-0.890297 -0.0396022 0)
(-0.888261 -0.0396016 0)
(-0.886321 -0.0395996 0)
(-0.884528 -0.0395954 0)
(-0.882943 -0.0395859 0)
(-0.881939 -0.0395691 0)
(-0.881665 -0.0395547 0)
(-0.881648 -0.0395503 0)
(-0.881647 -0.0395501 0)
(-0.881647 -0.0395501 0)
(-0.881646 -0.0395501 0)
(-0.881646 -0.0395501 0)
(-0.881646 -0.0395501 0)
(-0.881646 -0.0395501 0)
(-0.881646 -0.0395501 0)
(-0.881645 -0.0395501 0)
(-0.881645 -0.0395501 0)
(-0.881645 -0.0395501 0)
(-0.881645 -0.0395501 0)
(-0.881645 -0.0395501 0)
(-0.881645 -0.0395501 0)
(-0.881645 -0.0395501 0)
(-0.881645 -0.0395501 0)
(-0.881645 -0.0395501 0)
(-0.881645 -0.0395501 0)
(-0.881645 -0.0395501 0)
(-0.881645 -0.0395501 0)
(-0.881645 -0.0395501 0)
(-0.881645 -0.0395501 0)
(-0.881645 -0.0395501 0)
(-0.881645 -0.0395501 0)
(-0.881645 -0.0395501 0)
(-0.881645 -0.0395501 0)
(-0.881645 -0.0395501 0)
(-0.881645 -0.0395501 0)
(-0.881645 -0.0395501 0)
(-0.881645 -0.0395501 0)
(-0.881645 -0.0395501 0)
(-0.881645 -0.0395501 0)
(-0.881645 -0.0395501 0)
(-0.881645 -0.0395501 0)
(-0.881645 -0.0395501 0)
(-0.881645 -0.0395501 0)
(-0.881645 -0.0395501 0)
(-0.881645 -0.0395501 0)
(-0.881645 -0.0395501 0)
(-0.881645 -0.0395501 0)
(-0.881645 -0.0395501 0)
(-0.881645 -0.0395501 0)
(-0.881645 -0.0395501 0)
(-0.881645 -0.0395501 0)
(-0.881645 -0.0395501 0)
(-0.881645 -0.0395501 0)
(-0.881645 -0.0395501 0)
(-0.881645 -0.0395501 0)
(-0.881645 -0.0395501 0)
(-0.881645 -0.0395501 0)
(-0.881645 -0.0395501 0)
(-0.881645 -0.0395501 0)
(-0.881645 -0.0395501 0)
(-0.881645 -0.0395501 0)
(-0.881645 -0.0395501 0)
(-0.881645 -0.0395501 0)
(-0.881645 -0.0395501 0)
(-0.881645 -0.0395501 0)
(-0.881645 -0.0395501 0)
(-0.881645 -0.0395501 0)
(-0.881645 -0.0395501 0)
(-0.881645 -0.0395501 0)
(-0.881645 -0.0395501 0)
(-0.881645 -0.0395501 0)
(-0.881645 -0.0395501 0)
(-0.881645 -0.0395501 0)
(-0.881645 -0.0395501 0)
(-0.881645 -0.0395501 0)
(-0.881645 -0.0395501 0)
(-0.881645 -0.0395501 0)
(-0.881645 -0.0395501 0)
(-0.881645 -0.0395501 0)
(-0.881645 -0.0395501 0)
(-0.881645 -0.0395501 0)
(-0.881645 -0.0395501 0)
(-0.881645 -0.0395501 0)
(-0.881645 -0.0395501 0)
(-0.881645 -0.0395501 0)
(-0.881645 -0.0395501 0)
(-0.881645 -0.0395501 0)
(-0.881645 -0.0395501 0)
(-0.881645 -0.0395501 0)
(-0.881645 -0.0395501 0)
(-0.881645 -0.0395501 0)
(-0.881645 -0.0395501 0)
(-0.881645 -0.0395501 0)
(-0.881645 -0.0395501 0)
(-0.881645 -0.0395501 0)
(-0.881645 -0.0395501 0)
(-0.881645 -0.0395501 0)
(-0.881645 -0.0395501 0)
(-0.881645 -0.0395501 0)
(-0.881645 -0.0395501 0)
(-0.881645 -0.0395501 0)
(-0.881645 -0.0395501 0)
(-0.881645 -0.0395501 0)
(-0.881645 -0.0395501 0)
(-0.881645 -0.0395501 0)
(-0.881645 -0.0395501 0)
(-0.881645 -0.0395501 0)
(-0.881645 -0.0395501 0)
(-0.881645 -0.0395501 0)
(-0.881645 -0.0395501 0)
(-0.881645 -0.0395501 0)
(-0.881645 -0.0395499 0)
(-0.881645 -0.0395414 0)
(-0.881645 -0.039197 0)
(-0.881644 -0.0225005 0)
)
;

boundaryField
{
    inandouthalf11
    {
        type            cyclic;
    }
    inandouthalf12
    {
        type            cyclic;
    }
    inandouthalf21
    {
        type            cyclic;
    }
    inandouthalf22
    {
        type            cyclic;
    }
    inandouthalf31
    {
        type            cyclic;
    }
    inandouthalf32
    {
        type            cyclic;
    }
    inandouthalf41
    {
        type            cyclic;
    }
    inandouthalf42
    {
        type            cyclic;
    }
    top
    {
        type            symmetryPlane;
    }
    walls
    {
        type            fixedValue;
        value           uniform (0 0 0);
    }
    frontAndBackPlanes
    {
        type            empty;
    }
}


// ************************************************************************* //
