/*--------------------------------*- C++ -*----------------------------------*\
| =========                 |                                                 |
| \\      /  F ield         | OpenFOAM: The Open Source CFD Toolbox           |
|  \\    /   O peration     | Version:  2.4.x                                 |
|   \\  /    A nd           | Web:      www.OpenFOAM.org                      |
|    \\/     M anipulation  |                                                 |
\*---------------------------------------------------------------------------*/
FoamFile
{
    version     2.0;
    format      ascii;
    class       volVectorField;
    location    "5.4";
    object      Ub_0;
}
// * * * * * * * * * * * * * * * * * * * * * * * * * * * * * * * * * * * * * //

dimensions      [0 1 -1 0 0 0 0];

internalField   nonuniform List<vector> 
360
(
(-3.75216e-07 8.99703e-08 0)
(-4.09161e-07 3.38666e-07 0)
(-4.50064e-07 6.41179e-07 0)
(-4.8697e-07 9.1777e-07 0)
(-5.23346e-07 1.18538e-06 0)
(-5.61043e-07 1.45782e-06 0)
(-5.9984e-07 1.73599e-06 0)
(-6.39276e-07 2.01709e-06 0)
(-6.79147e-07 2.29939e-06 0)
(-7.19439e-07 2.58261e-06 0)
(-7.60226e-07 2.86725e-06 0)
(-8.01581e-07 3.15375e-06 0)
(-8.43534e-07 3.44227e-06 0)
(-8.86079e-07 3.73274e-06 0)
(-9.29201e-07 4.02499e-06 0)
(-9.72897e-07 4.31896e-06 0)
(-1.01717e-06 4.61465e-06 0)
(-1.06204e-06 4.91205e-06 0)
(-1.1075e-06 5.21113e-06 0)
(-1.15356e-06 5.51188e-06 0)
(-1.20021e-06 5.81421e-06 0)
(-1.24747e-06 6.11812e-06 0)
(-1.29534e-06 6.4237e-06 0)
(-1.34387e-06 6.73107e-06 0)
(-1.3931e-06 7.04048e-06 0)
(-1.44309e-06 7.35222e-06 0)
(-1.49391e-06 7.66668e-06 0)
(-1.54565e-06 7.98433e-06 0)
(-1.5984e-06 8.30558e-06 0)
(-1.6522e-06 8.63062e-06 0)
(-1.70704e-06 8.9593e-06 0)
(-1.76286e-06 9.29114e-06 0)
(-1.81947e-06 9.62484e-06 0)
(-1.87659e-06 9.95881e-06 0)
(-1.93383e-06 1.02907e-05 0)
(-1.99077e-06 1.06182e-05 0)
(-2.04704e-06 1.09392e-05 0)
(-2.10249e-06 1.12529e-05 0)
(-2.15722e-06 1.15601e-05 0)
(-2.21175e-06 1.18635e-05 0)
(-2.2671e-06 1.21691e-05 0)
(-2.32491e-06 1.24859e-05 0)
(-2.38758e-06 1.28269e-05 0)
(-2.45845e-06 1.32101e-05 0)
(-2.54183e-06 1.36579e-05 0)
(-2.64242e-06 1.41931e-05 0)
(-2.76304e-06 1.48261e-05 0)
(-2.89961e-06 1.55304e-05 0)
(-3.03619e-06 1.62266e-05 0)
(-3.14839e-06 1.68037e-05 0)
(-3.21942e-06 1.71859e-05 0)
(-3.25277e-06 1.73815e-05 0)
(-3.26436e-06 1.74574e-05 0)
(-3.26748e-06 1.74794e-05 0)
(-3.26822e-06 1.74837e-05 0)
(-3.26842e-06 1.74835e-05 0)
(-3.26852e-06 1.74822e-05 0)
(-3.2686e-06 1.74807e-05 0)
(-3.26867e-06 1.74791e-05 0)
(-3.26875e-06 1.74773e-05 0)
(-3.26883e-06 1.74755e-05 0)
(-3.26891e-06 1.74736e-05 0)
(-3.269e-06 1.74716e-05 0)
(-3.26909e-06 1.74696e-05 0)
(-3.26918e-06 1.74675e-05 0)
(-3.26927e-06 1.74654e-05 0)
(-3.26937e-06 1.74632e-05 0)
(-3.26947e-06 1.74609e-05 0)
(-3.26957e-06 1.74586e-05 0)
(-3.26968e-06 1.74561e-05 0)
(-3.26979e-06 1.74536e-05 0)
(-3.26991e-06 1.7451e-05 0)
(-3.27003e-06 1.74483e-05 0)
(-3.27015e-06 1.74455e-05 0)
(-3.27028e-06 1.74426e-05 0)
(-3.27041e-06 1.74397e-05 0)
(-3.27054e-06 1.74367e-05 0)
(-3.27068e-06 1.74337e-05 0)
(-3.27081e-06 1.74306e-05 0)
(-3.27096e-06 1.74274e-05 0)
(-3.2711e-06 1.74241e-05 0)
(-3.27125e-06 1.74208e-05 0)
(-3.2714e-06 1.74173e-05 0)
(-3.27156e-06 1.74138e-05 0)
(-3.27172e-06 1.74102e-05 0)
(-3.27189e-06 1.74065e-05 0)
(-3.27206e-06 1.74027e-05 0)
(-3.27223e-06 1.73988e-05 0)
(-3.2724e-06 1.73949e-05 0)
(-3.27258e-06 1.73909e-05 0)
(-3.27277e-06 1.73867e-05 0)
(-3.27296e-06 1.73825e-05 0)
(-3.27315e-06 1.73782e-05 0)
(-3.27335e-06 1.73738e-05 0)
(-3.27355e-06 1.73693e-05 0)
(-3.27375e-06 1.73647e-05 0)
(-3.27397e-06 1.736e-05 0)
(-3.27418e-06 1.73552e-05 0)
(-3.2744e-06 1.73503e-05 0)
(-3.27463e-06 1.73452e-05 0)
(-3.27486e-06 1.73401e-05 0)
(-3.2751e-06 1.73348e-05 0)
(-3.27535e-06 1.73294e-05 0)
(-3.2756e-06 1.73238e-05 0)
(-3.27585e-06 1.73182e-05 0)
(-3.27612e-06 1.73124e-05 0)
(-3.27639e-06 1.73064e-05 0)
(-3.27666e-06 1.73003e-05 0)
(-3.27695e-06 1.7294e-05 0)
(-3.27724e-06 1.72876e-05 0)
(-3.27754e-06 1.7281e-05 0)
(-3.27785e-06 1.72742e-05 0)
(-3.27816e-06 1.72672e-05 0)
(-3.27849e-06 1.72601e-05 0)
(-3.27883e-06 1.72527e-05 0)
(-3.27917e-06 1.72451e-05 0)
(-3.27953e-06 1.72373e-05 0)
(-3.27989e-06 1.72293e-05 0)
(-3.28027e-06 1.7221e-05 0)
(-3.28066e-06 1.72125e-05 0)
(-3.28107e-06 1.72037e-05 0)
(-3.28148e-06 1.71947e-05 0)
(-3.28191e-06 1.71853e-05 0)
(-3.28236e-06 1.71757e-05 0)
(-3.28282e-06 1.71657e-05 0)
(-3.28329e-06 1.71554e-05 0)
(-3.28379e-06 1.71447e-05 0)
(-3.2843e-06 1.71336e-05 0)
(-3.28483e-06 1.71221e-05 0)
(-3.28539e-06 1.71102e-05 0)
(-3.28597e-06 1.70978e-05 0)
(-3.28657e-06 1.70849e-05 0)
(-3.2872e-06 1.70713e-05 0)
(-3.28786e-06 1.70571e-05 0)
(-3.28856e-06 1.70421e-05 0)
(-3.28931e-06 1.70263e-05 0)
(-3.29009e-06 1.70095e-05 0)
(-3.29092e-06 1.69913e-05 0)
(-3.29184e-06 1.69711e-05 0)
(-3.2929e-06 1.69495e-05 0)
(-3.29405e-06 1.69277e-05 0)
(-3.29514e-06 1.69006e-05 0)
(-3.29645e-06 1.68706e-05 0)
(-3.29815e-06 1.68353e-05 0)
(-3.30026e-06 1.67722e-05 0)
(-3.30477e-06 1.70932e-05 0)
(-4.11125e-06 1.00919e-05 0)
(-0.000587273 3.7442e-05 0)
(-0.0813219 0.000215334 0)
(-0.179713 0.00010217 0)
(-0.25415 0.000117104 0)
(-0.313852 9.74617e-05 0)
(-0.363272 8.12968e-05 0)
(-0.405034 6.63934e-05 0)
(-0.440911 5.30575e-05 0)
(-0.472174 4.15461e-05 0)
(-0.499762 3.19212e-05 0)
(-0.524383 2.40545e-05 0)
(-0.546578 1.7725e-05 0)
(-0.566766 1.26887e-05 0)
(-0.585273 8.71527e-06 0)
(-0.602358 5.60275e-06 0)
(-0.618227 3.18133e-06 0)
(-0.633046 1.31176e-06 0)
(-0.646951 -1.18631e-07 0)
(-0.660054 -1.20018e-06 0)
(-0.672447 -2.00506e-06 0)
(-0.684207 -2.59088e-06 0)
(-0.695399 -3.00352e-06 0)
(-0.70608 -3.27959e-06 0)
(-0.716295 -3.44831e-06 0)
(-0.726086 -3.53299e-06 0)
(-0.735487 -3.55229e-06 0)
(-0.744528 -3.52109e-06 0)
(-0.753237 -3.45132e-06 0)
(-0.761635 -3.35247e-06 0)
(-0.769744 -3.23216e-06 0)
(-0.77758 -3.09642e-06 0)
(-0.785158 -2.95007e-06 0)
(-0.792493 -2.79694e-06 0)
(-0.799596 -2.64002e-06 0)
(-0.806477 -2.48161e-06 0)
(-0.813145 -2.32334e-06 0)
(-0.819608 -2.16612e-06 0)
(-0.825873 -2.01016e-06 0)
(-0.831945 -1.85514e-06 0)
(-0.837828 -1.7005e-06 0)
(-0.843528 -1.54606e-06 0)
(-0.849045 -1.39254e-06 0)
(-0.854384 -1.24178e-06 0)
(-0.859544 -1.09656e-06 0)
(-0.864528 -9.59942e-07 0)
(-0.869335 -8.34695e-07 0)
(-0.873965 -7.227e-07 0)
(-0.878417 -6.24367e-07 0)
(-0.882691 -5.38457e-07 0)
(-0.886784 -4.62845e-07 0)
(-0.890694 -3.95753e-07 0)
(-0.894421 -3.36408e-07 0)
(-0.89796 -2.84685e-07 0)
(-0.901311 -2.40361e-07 0)
(-0.904503 -2.02489e-07 0)
(-0.907556 -1.70299e-07 0)
(-0.910459 -1.43206e-07 0)
(-0.913198 -1.20345e-07 0)
(-0.91576 -1.01055e-07 0)
(-0.918134 -8.49381e-08 0)
(-0.92031 -7.1453e-08 0)
(-0.922279 -6.00655e-08 0)
(-0.924034 -5.04985e-08 0)
(-0.925572 -4.24948e-08 0)
(-0.926892 -3.57617e-08 0)
(-0.927996 -3.00868e-08 0)
(-0.928889 -2.52879e-08 0)
(-0.929578 -2.12326e-08 0)
(-0.930071 -1.78255e-08 0)
(-0.93038 -1.49312e-08 0)
(-0.930513 -1.24663e-08 0)
(-0.930481 -1.0403e-08 0)
(-0.930294 -8.6684e-09 0)
(-0.929961 -7.19357e-09 0)
(-0.92949 -5.94858e-09 0)
(-0.928888 -4.90658e-09 0)
(-0.928162 -4.03487e-09 0)
(-0.927317 -3.29778e-09 0)
(-0.926359 -2.67767e-09 0)
(-0.925293 -2.16437e-09 0)
(-0.924123 -1.73673e-09 0)
(-0.922853 -1.38139e-09 0)
(-0.921488 -1.09111e-09 0)
(-0.920033 -8.55056e-10 0)
(-0.91849 -6.61994e-10 0)
(-0.916865 -4.9997e-10 0)
(-0.915162 -3.66333e-10 0)
(-0.913385 -2.69148e-10 0)
(-0.91154 -2.47941e-10 0)
(-0.909632 -1.267e-10 0)
(-0.907666 -3.47681e-11 0)
(-0.905648 -8.87688e-12 0)
(-0.903586 3.8478e-11 0)
(-0.901487 -1.23798e-11 0)
(-0.899359 -2.11552e-12 0)
(-0.897214 5.65149e-12 0)
(-0.895063 -3.16442e-11 0)
(-0.892922 7.36971e-11 0)
(-0.890809 -1.47332e-10 0)
(-0.888749 2.4383e-10 0)
(-0.886775 -3.74663e-10 0)
(-0.884934 5.28028e-10 0)
(-0.883303 -7.10519e-10 0)
(-0.882071 9.06869e-10 0)
(-0.88168 -1.12022e-09 0)
(-0.881654 1.33695e-09 0)
(-0.881653 -1.5637e-09 0)
(-0.881653 1.79196e-09 0)
(-0.881652 -2.02973e-09 0)
(-0.881652 2.26981e-09 0)
(-0.881652 -2.51939e-09 0)
(-0.881652 2.77213e-09 0)
(-0.881652 -3.03437e-09 0)
(-0.881651 3.30058e-09 0)
(-0.881651 -3.5763e-09 0)
(-0.881651 3.85678e-09 0)
(-0.881651 -4.14674e-09 0)
(-0.881651 4.44222e-09 0)
(-0.881651 -4.74716e-09 0)
(-0.881651 5.05829e-09 0)
(-0.881651 -5.37892e-09 0)
(-0.881651 5.70631e-09 0)
(-0.881651 -6.04326e-09 0)
(-0.881651 6.38751e-09 0)
(-0.881651 -6.74138e-09 0)
(-0.881651 7.10304e-09 0)
(-0.881651 -7.4744e-09 0)
(-0.881651 7.85401e-09 0)
(-0.881651 -8.24339e-09 0)
(-0.881651 8.64146e-09 0)
(-0.881651 -9.04938e-09 0)
(-0.881651 9.46639e-09 0)
(-0.881651 -9.89336e-09 0)
(-0.881651 1.03298e-08 0)
(-0.881651 -1.07763e-08 0)
(-0.881651 1.12326e-08 0)
(-0.881651 -1.16991e-08 0)
(-0.881651 1.21758e-08 0)
(-0.881651 -1.26627e-08 0)
(-0.881651 1.31602e-08 0)
(-0.881651 -1.36681e-08 0)
(-0.881651 1.41867e-08 0)
(-0.881651 -1.47159e-08 0)
(-0.881651 1.52561e-08 0)
(-0.881651 -1.58071e-08 0)
(-0.881651 1.63693e-08 0)
(-0.881651 -1.69425e-08 0)
(-0.881651 1.7527e-08 0)
(-0.881651 -1.81228e-08 0)
(-0.881651 1.873e-08 0)
(-0.881651 -1.93486e-08 0)
(-0.881651 1.99789e-08 0)
(-0.881651 -2.06207e-08 0)
(-0.881651 2.12745e-08 0)
(-0.881651 -2.19398e-08 0)
(-0.881651 2.26172e-08 0)
(-0.881651 -2.33063e-08 0)
(-0.881651 2.40076e-08 0)
(-0.881651 -2.47206e-08 0)
(-0.881651 2.5446e-08 0)
(-0.881651 -2.61832e-08 0)
(-0.881651 2.69327e-08 0)
(-0.881651 -2.7694e-08 0)
(-0.881651 2.49877e-08 0)
(-0.881651 -2.51947e-08 0)
(-0.881651 2.53996e-08 0)
(-0.881651 -2.5602e-08 0)
(-0.881651 2.58023e-08 0)
(-0.881651 -2.60001e-08 0)
(-0.881651 2.61957e-08 0)
(-0.881651 -2.63887e-08 0)
(-0.881651 2.65795e-08 0)
(-0.881651 -2.67678e-08 0)
(-0.881651 2.69536e-08 0)
(-0.881651 -2.71369e-08 0)
(-0.881651 2.73178e-08 0)
(-0.881651 -2.74961e-08 0)
(-0.881651 2.76718e-08 0)
(-0.881651 -2.7845e-08 0)
(-0.881651 2.80154e-08 0)
(-0.881651 -2.81833e-08 0)
(-0.881651 2.83483e-08 0)
(-0.881651 -2.85109e-08 0)
(-0.881651 2.86702e-08 0)
(-0.881651 -2.88274e-08 0)
(-0.881651 2.89808e-08 0)
(-0.881651 -2.91325e-08 0)
(-0.881651 2.92798e-08 0)
(-0.881651 -2.94258e-08 0)
(-0.881651 2.95668e-08 0)
(-0.881651 -2.97068e-08 0)
(-0.881651 2.98413e-08 0)
(-0.881651 -2.9975e-08 0)
(-0.881651 3.01028e-08 0)
(-0.881651 -3.02298e-08 0)
(-0.881651 3.03507e-08 0)
(-0.881651 -3.04707e-08 0)
(-0.881651 3.05841e-08 0)
(-0.881651 -3.06967e-08 0)
(-0.881651 3.08023e-08 0)
(-0.881651 -3.0907e-08 0)
(-0.881651 3.10041e-08 0)
(-0.881651 -3.11004e-08 0)
(-0.881651 3.11883e-08 0)
(-0.881651 -3.12753e-08 0)
(-0.881651 3.1353e-08 0)
(-0.881651 -3.14296e-08 0)
(-0.881651 3.14957e-08 0)
(-0.881651 -3.15603e-08 0)
(-0.881651 3.16124e-08 0)
(-0.881651 -3.16619e-08 0)
(-0.881651 3.16947e-08 0)
(-0.881651 -3.17211e-08 0)
)
;

boundaryField
{
    inandouthalf11
    {
        type            cyclic;
    }
    inandouthalf12
    {
        type            cyclic;
    }
    inandouthalf21
    {
        type            cyclic;
    }
    inandouthalf22
    {
        type            cyclic;
    }
    inandouthalf31
    {
        type            cyclic;
    }
    inandouthalf32
    {
        type            cyclic;
    }
    inandouthalf41
    {
        type            cyclic;
    }
    inandouthalf42
    {
        type            cyclic;
    }
    top
    {
        type            symmetryPlane;
    }
    walls
    {
        type            fixedValue;
        value           uniform (0 0 0);
    }
    frontAndBackPlanes
    {
        type            empty;
    }
}


// ************************************************************************* //
