/*--------------------------------*- C++ -*----------------------------------*\
| =========                 |                                                 |
| \\      /  F ield         | OpenFOAM: The Open Source CFD Toolbox           |
|  \\    /   O peration     | Version:  2.4.x                                 |
|   \\  /    A nd           | Web:      www.OpenFOAM.org                      |
|    \\/     M anipulation  |                                                 |
\*---------------------------------------------------------------------------*/
FoamFile
{
    version     2.0;
    format      ascii;
    class       volVectorField;
    location    "5.4";
    object      Ur;
}
// * * * * * * * * * * * * * * * * * * * * * * * * * * * * * * * * * * * * * //

dimensions      [0 1 -1 0 0 0 0];

internalField   nonuniform List<vector> 
360
(
(-3.76449e-07 8.99665e-08 0)
(-3.74883e-07 5.6128e-07 0)
(-3.74469e-07 1.06021e-06 0)
(-3.74679e-07 1.50249e-06 0)
(-3.74841e-07 1.93712e-06 0)
(-3.74918e-07 2.38367e-06 0)
(-3.74987e-07 2.83958e-06 0)
(-3.75064e-07 3.29978e-06 0)
(-3.75141e-07 3.76175e-06 0)
(-3.75222e-07 4.22519e-06 0)
(-3.75306e-07 4.69099e-06 0)
(-3.7539e-07 5.15994e-06 0)
(-3.75474e-07 5.63228e-06 0)
(-3.75558e-07 6.10786e-06 0)
(-3.75643e-07 6.58639e-06 0)
(-3.75729e-07 7.06775e-06 0)
(-3.75816e-07 7.55198e-06 0)
(-3.75904e-07 8.03905e-06 0)
(-3.75992e-07 8.52892e-06 0)
(-3.76082e-07 9.02157e-06 0)
(-3.76171e-07 9.51686e-06 0)
(-3.76263e-07 1.00148e-05 0)
(-3.76355e-07 1.05154e-05 0)
(-3.76447e-07 1.10191e-05 0)
(-3.76541e-07 1.15261e-05 0)
(-3.76637e-07 1.20369e-05 0)
(-3.76733e-07 1.25523e-05 0)
(-3.76831e-07 1.30729e-05 0)
(-3.76931e-07 1.35996e-05 0)
(-3.77031e-07 1.41325e-05 0)
(-3.77133e-07 1.46715e-05 0)
(-3.77237e-07 1.52159e-05 0)
(-3.77339e-07 1.57635e-05 0)
(-3.77442e-07 1.63117e-05 0)
(-3.77543e-07 1.68566e-05 0)
(-3.77643e-07 1.73942e-05 0)
(-3.77741e-07 1.79212e-05 0)
(-3.77838e-07 1.84359e-05 0)
(-3.77938e-07 1.89396e-05 0)
(-3.78037e-07 1.94368e-05 0)
(-3.78147e-07 1.9937e-05 0)
(-3.78265e-07 2.0455e-05 0)
(-3.78399e-07 2.10119e-05 0)
(-3.78559e-07 2.16371e-05 0)
(-3.78748e-07 2.23681e-05 0)
(-3.78966e-07 2.3244e-05 0)
(-3.79198e-07 2.4286e-05 0)
(-3.79394e-07 2.54559e-05 0)
(-3.79501e-07 2.66206e-05 0)
(-3.79508e-07 2.75843e-05 0)
(-3.79466e-07 2.82105e-05 0)
(-3.79449e-07 2.85193e-05 0)
(-3.79471e-07 2.86337e-05 0)
(-3.79518e-07 2.86659e-05 0)
(-3.79572e-07 2.86723e-05 0)
(-3.79635e-07 2.86726e-05 0)
(-3.79699e-07 2.86714e-05 0)
(-3.79769e-07 2.86699e-05 0)
(-3.79841e-07 2.86683e-05 0)
(-3.79916e-07 2.86665e-05 0)
(-3.79998e-07 2.86647e-05 0)
(-3.8008e-07 2.86628e-05 0)
(-3.80167e-07 2.86608e-05 0)
(-3.80254e-07 2.86588e-05 0)
(-3.80344e-07 2.86567e-05 0)
(-3.80436e-07 2.86546e-05 0)
(-3.80532e-07 2.86524e-05 0)
(-3.80631e-07 2.86501e-05 0)
(-3.80733e-07 2.86478e-05 0)
(-3.80838e-07 2.86453e-05 0)
(-3.80949e-07 2.86428e-05 0)
(-3.81064e-07 2.86402e-05 0)
(-3.81181e-07 2.86375e-05 0)
(-3.81304e-07 2.86348e-05 0)
(-3.81428e-07 2.86319e-05 0)
(-3.81557e-07 2.8629e-05 0)
(-3.81687e-07 2.8626e-05 0)
(-3.8182e-07 2.8623e-05 0)
(-3.81956e-07 2.86199e-05 0)
(-3.82096e-07 2.86167e-05 0)
(-3.82239e-07 2.86134e-05 0)
(-3.82386e-07 2.86101e-05 0)
(-3.82537e-07 2.86066e-05 0)
(-3.82692e-07 2.86031e-05 0)
(-3.82851e-07 2.85995e-05 0)
(-3.83014e-07 2.85958e-05 0)
(-3.8318e-07 2.8592e-05 0)
(-3.8335e-07 2.85882e-05 0)
(-3.83524e-07 2.85842e-05 0)
(-3.83701e-07 2.85802e-05 0)
(-3.83883e-07 2.85761e-05 0)
(-3.84068e-07 2.85719e-05 0)
(-3.84258e-07 2.85676e-05 0)
(-3.84452e-07 2.85632e-05 0)
(-3.84651e-07 2.85587e-05 0)
(-3.84855e-07 2.85541e-05 0)
(-3.85063e-07 2.85494e-05 0)
(-3.85277e-07 2.85446e-05 0)
(-3.85495e-07 2.85397e-05 0)
(-3.85719e-07 2.85347e-05 0)
(-3.85948e-07 2.85295e-05 0)
(-3.86183e-07 2.85242e-05 0)
(-3.86424e-07 2.85188e-05 0)
(-3.8667e-07 2.85133e-05 0)
(-3.86923e-07 2.85077e-05 0)
(-3.87182e-07 2.85019e-05 0)
(-3.87449e-07 2.84959e-05 0)
(-3.87722e-07 2.84898e-05 0)
(-3.88002e-07 2.84835e-05 0)
(-3.8829e-07 2.84771e-05 0)
(-3.88586e-07 2.84705e-05 0)
(-3.88891e-07 2.84638e-05 0)
(-3.89204e-07 2.84568e-05 0)
(-3.89526e-07 2.84496e-05 0)
(-3.89858e-07 2.84423e-05 0)
(-3.90199e-07 2.84347e-05 0)
(-3.90551e-07 2.84269e-05 0)
(-3.90914e-07 2.84189e-05 0)
(-3.91289e-07 2.84106e-05 0)
(-3.91675e-07 2.84021e-05 0)
(-3.92074e-07 2.83934e-05 0)
(-3.92486e-07 2.83843e-05 0)
(-3.92912e-07 2.8375e-05 0)
(-3.93352e-07 2.83653e-05 0)
(-3.93807e-07 2.83553e-05 0)
(-3.94279e-07 2.8345e-05 0)
(-3.94768e-07 2.83344e-05 0)
(-3.95275e-07 2.83233e-05 0)
(-3.95803e-07 2.83118e-05 0)
(-3.96353e-07 2.82999e-05 0)
(-3.96926e-07 2.82875e-05 0)
(-3.97523e-07 2.82746e-05 0)
(-3.98147e-07 2.82611e-05 0)
(-3.98805e-07 2.82468e-05 0)
(-3.99505e-07 2.82318e-05 0)
(-4.00247e-07 2.82161e-05 0)
(-4.01027e-07 2.81993e-05 0)
(-4.01855e-07 2.8181e-05 0)
(-4.02775e-07 2.81608e-05 0)
(-4.03833e-07 2.81393e-05 0)
(-4.0498e-07 2.81174e-05 0)
(-4.06075e-07 2.80903e-05 0)
(-4.07384e-07 2.80603e-05 0)
(-4.09087e-07 2.8025e-05 0)
(-4.112e-07 2.7962e-05 0)
(-4.15729e-07 2.82828e-05 0)
(-1.22186e-06 2.12825e-05 0)
(-0.000583859 4.866e-05 0)
(-0.00819937 0.000587178 0)
(-0.00918831 0.000498112 0)
(-0.00749973 0.000615051 0)
(-0.006072 0.00064645 0)
(-0.00510325 0.000669864 0)
(-0.00446745 0.000680974 0)
(-0.00407446 0.000679724 0)
(-0.00386422 0.000665816 0)
(-0.00379322 0.000639178 0)
(-0.0038293 0.000599833 0)
(-0.00394943 0.000547934 0)
(-0.00413799 0.000483764 0)
(-0.00438512 0.000407711 0)
(-0.00468524 0.000320228 0)
(-0.00503593 0.000221799 0)
(-0.00543699 0.000112914 0)
(-0.00588984 -5.94416e-06 0)
(-0.00639701 -0.00013431 0)
(-0.00696179 -0.000271737 0)
(-0.00758806 -0.000417805 0)
(-0.00828 -0.000572117 0)
(-0.00904201 -0.000734298 0)
(-0.00987857 -0.00090399 0)
(-0.0107942 -0.00108085 0)
(-0.0117931 -0.00126455 0)
(-0.0128797 -0.00145476 0)
(-0.0140578 -0.00165116 0)
(-0.015331 -0.00185341 0)
(-0.0167026 -0.00206118 0)
(-0.0181753 -0.00227411 0)
(-0.0197513 -0.0024918 0)
(-0.0214322 -0.00271384 0)
(-0.0232189 -0.00293978 0)
(-0.0251117 -0.00316907 0)
(-0.0271097 -0.00340099 0)
(-0.0292115 -0.00363449 0)
(-0.0314143 -0.00386786 0)
(-0.0337142 -0.00409853 0)
(-0.0361059 -0.00432291 0)
(-0.0385824 -0.00453656 0)
(-0.0411345 -0.00473476 0)
(-0.0437514 -0.00491335 0)
(-0.0464202 -0.0050695 0)
(-0.0491269 -0.00520224 0)
(-0.0518563 -0.00531244 0)
(-0.0545929 -0.0054027 0)
(-0.0573214 -0.00547674 0)
(-0.0600273 -0.00553805 0)
(-0.0626959 -0.00558869 0)
(-0.0653124 -0.00562914 0)
(-0.0678615 -0.0056593 0)
(-0.0703282 -0.00567954 0)
(-0.0726982 -0.00569095 0)
(-0.0749813 -0.00569489 0)
(-0.0771824 -0.00569248 0)
(-0.0792834 -0.0056852 0)
(-0.0812661 -0.0056742 0)
(-0.0831128 -0.00565994 0)
(-0.0848072 -0.00564322 0)
(-0.0863352 -0.00562501 0)
(-0.087684 -0.00560547 0)
(-0.0888434 -0.00558477 0)
(-0.0898071 -0.00556343 0)
(-0.0905714 -0.00554157 0)
(-0.091136 -0.0055193 0)
(-0.0915036 -0.00549675 0)
(-0.091679 -0.00547362 0)
(-0.0916696 -0.00545011 0)
(-0.0914843 -0.00542633 0)
(-0.0911305 -0.00540153 0)
(-0.090618 -0.00537577 0)
(-0.0899565 -0.00534932 0)
(-0.0891535 -0.00532161 0)
(-0.0882164 -0.0052924 0)
(-0.0871522 -0.00526143 0)
(-0.085968 -0.00522878 0)
(-0.0846695 -0.00519418 0)
(-0.0832603 -0.0051565 0)
(-0.0817467 -0.00511583 0)
(-0.0801336 -0.00507168 0)
(-0.0784244 -0.00502268 0)
(-0.0766247 -0.00496828 0)
(-0.0747406 -0.00490763 0)
(-0.0727781 -0.0048394 0)
(-0.0707434 -0.00476157 0)
(-0.0686357 -0.00466409 0)
(-0.0664687 -0.00454525 0)
(-0.0642596 -0.0043988 0)
(-0.0619035 -0.00421594 0)
(-0.000594181 0.00232464 0)
(-0.000131573 -0.00624803 0)
(-0.00056141 0.0235119 0)
(-0.000339943 0.0396294 0)
(-0.000576056 0.0395947 0)
(-0.000546633 0.0395999 0)
(-0.000542994 0.039601 0)
(-0.000531589 0.0396019 0)
(-0.000514921 0.0396022 0)
(-0.00049088 0.0396016 0)
(-0.000456793 0.0395996 0)
(-0.000409387 0.0395954 0)
(-0.000362126 0.0395859 0)
(-0.000132522 0.0395691 0)
(-1.53797e-05 0.0395547 0)
(-6.66182e-06 0.0395503 0)
(-6.46666e-06 0.0395501 0)
(-6.42911e-06 0.0395501 0)
(-6.41585e-06 0.0395501 0)
(-6.4044e-06 0.0395501 0)
(-6.39543e-06 0.0395501 0)
(-6.38835e-06 0.0395501 0)
(-6.38279e-06 0.0395501 0)
(-6.37844e-06 0.0395501 0)
(-6.37505e-06 0.0395501 0)
(-6.37241e-06 0.0395501 0)
(-6.37038e-06 0.0395501 0)
(-6.36882e-06 0.0395501 0)
(-6.36762e-06 0.0395501 0)
(-6.36672e-06 0.0395501 0)
(-6.36603e-06 0.0395501 0)
(-6.36552e-06 0.0395501 0)
(-6.36517e-06 0.0395501 0)
(-6.36495e-06 0.0395501 0)
(-6.3647e-06 0.0395501 0)
(-6.36445e-06 0.0395501 0)
(-6.36434e-06 0.0395501 0)
(-6.36427e-06 0.0395501 0)
(-6.36422e-06 0.0395501 0)
(-6.36418e-06 0.0395501 0)
(-6.36416e-06 0.0395501 0)
(-6.36414e-06 0.0395501 0)
(-6.36413e-06 0.0395501 0)
(-6.36412e-06 0.0395501 0)
(-6.36412e-06 0.0395501 0)
(-6.36411e-06 0.0395501 0)
(-6.36411e-06 0.0395501 0)
(-6.36411e-06 0.0395501 0)
(-6.36411e-06 0.0395501 0)
(-6.36411e-06 0.0395501 0)
(-6.36411e-06 0.0395501 0)
(-6.36411e-06 0.0395501 0)
(-6.36411e-06 0.0395501 0)
(-6.36411e-06 0.0395501 0)
(-6.36411e-06 0.0395501 0)
(-6.36411e-06 0.0395501 0)
(-6.36411e-06 0.0395501 0)
(-6.36411e-06 0.0395501 0)
(-6.36411e-06 0.0395501 0)
(-6.36411e-06 0.0395501 0)
(-6.36411e-06 0.0395501 0)
(-6.36411e-06 0.0395501 0)
(-6.36411e-06 0.0395501 0)
(-6.36411e-06 0.0395501 0)
(-6.36411e-06 0.0395501 0)
(-6.36411e-06 0.0395501 0)
(-6.36411e-06 0.0395501 0)
(-6.36411e-06 0.0395501 0)
(-6.36411e-06 0.0395501 0)
(-6.36411e-06 0.0395501 0)
(-6.36411e-06 0.0395501 0)
(-6.36411e-06 0.0395501 0)
(-6.36411e-06 0.0395501 0)
(-6.36411e-06 0.0395501 0)
(-6.36411e-06 0.0395501 0)
(-6.36411e-06 0.0395501 0)
(-6.36411e-06 0.0395501 0)
(-6.36411e-06 0.0395501 0)
(-6.36411e-06 0.0395501 0)
(-6.36411e-06 0.0395501 0)
(-6.36411e-06 0.0395501 0)
(-6.36411e-06 0.0395501 0)
(-6.36411e-06 0.0395501 0)
(-6.36411e-06 0.0395501 0)
(-6.36411e-06 0.0395501 0)
(-6.36411e-06 0.0395501 0)
(-6.36411e-06 0.0395501 0)
(-6.36411e-06 0.0395501 0)
(-6.36411e-06 0.0395501 0)
(-6.36411e-06 0.0395501 0)
(-6.36411e-06 0.0395501 0)
(-6.36411e-06 0.0395501 0)
(-6.36411e-06 0.0395501 0)
(-6.36411e-06 0.0395501 0)
(-6.36411e-06 0.0395501 0)
(-6.36411e-06 0.0395501 0)
(-6.36411e-06 0.0395501 0)
(-6.36411e-06 0.0395501 0)
(-6.36411e-06 0.0395501 0)
(-6.36411e-06 0.0395501 0)
(-6.36411e-06 0.0395501 0)
(-6.36411e-06 0.0395501 0)
(-6.36411e-06 0.0395501 0)
(-6.36411e-06 0.0395501 0)
(-6.36411e-06 0.0395501 0)
(-6.36411e-06 0.0395501 0)
(-6.36411e-06 0.0395501 0)
(-6.36411e-06 0.0395501 0)
(-6.36411e-06 0.0395501 0)
(-6.36411e-06 0.0395501 0)
(-6.36411e-06 0.0395501 0)
(-6.36411e-06 0.0395501 0)
(-6.36411e-06 0.0395501 0)
(-6.36411e-06 0.0395501 0)
(-6.36411e-06 0.0395501 0)
(-6.36411e-06 0.0395501 0)
(-6.36411e-06 0.0395501 0)
(-6.36411e-06 0.0395501 0)
(-6.36411e-06 0.03955 0)
(-6.36415e-06 0.0395499 0)
(-6.36542e-06 0.0395414 0)
(-6.39982e-06 0.039197 0)
(-7.27318e-06 0.0225005 0)
)
;

boundaryField
{
    inandouthalf11
    {
        type            cyclic;
    }
    inandouthalf12
    {
        type            cyclic;
    }
    inandouthalf21
    {
        type            cyclic;
    }
    inandouthalf22
    {
        type            cyclic;
    }
    inandouthalf31
    {
        type            cyclic;
    }
    inandouthalf32
    {
        type            cyclic;
    }
    inandouthalf41
    {
        type            cyclic;
    }
    inandouthalf42
    {
        type            cyclic;
    }
    top
    {
        type            symmetryPlane;
    }
    walls
    {
        type            calculated;
        value           uniform (0 0 0);
    }
    frontAndBackPlanes
    {
        type            empty;
    }
}


// ************************************************************************* //
