/*--------------------------------*- C++ -*----------------------------------*\
| =========                 |                                                 |
| \\      /  F ield         | OpenFOAM: The Open Source CFD Toolbox           |
|  \\    /   O peration     | Version:  2.4.x                                 |
|   \\  /    A nd           | Web:      www.OpenFOAM.org                      |
|    \\/     M anipulation  |                                                 |
\*---------------------------------------------------------------------------*/
FoamFile
{
    version     2.0;
    format      ascii;
    class       volScalarField;
    location    "11.7";
    object      alpha;
}
// * * * * * * * * * * * * * * * * * * * * * * * * * * * * * * * * * * * * * //

dimensions      [0 0 0 0 0 0 0];

internalField   nonuniform List<scalar> 
360
(
0.610894
0.611763
0.611852
0.611762
0.61172
0.611706
0.611689
0.611667
0.611645
0.611622
0.611599
0.611576
0.611553
0.611529
0.611506
0.611482
0.611458
0.611433
0.611409
0.611384
0.611359
0.611334
0.611308
0.611282
0.611256
0.61123
0.611203
0.611176
0.611149
0.611121
0.611094
0.611065
0.611037
0.611008
0.610979
0.61095
0.610921
0.610891
0.61086
0.61083
0.610799
0.610767
0.610736
0.610704
0.610671
0.610639
0.610605
0.610572
0.610538
0.610504
0.610469
0.610434
0.610398
0.610362
0.610326
0.610289
0.610252
0.610214
0.610176
0.610137
0.610098
0.610058
0.610018
0.609977
0.609935
0.609894
0.609851
0.609808
0.609764
0.60972
0.609675
0.609629
0.609583
0.609536
0.609489
0.60944
0.609391
0.609342
0.609291
0.60924
0.609188
0.609135
0.609081
0.609026
0.608971
0.608914
0.608856
0.608798
0.608738
0.608678
0.608616
0.608553
0.608489
0.608424
0.608358
0.60829
0.608221
0.60815
0.608078
0.608005
0.60793
0.607854
0.607775
0.607696
0.607614
0.60753
0.607445
0.607357
0.607268
0.607176
0.607082
0.606985
0.606886
0.606785
0.60668
0.606573
0.606463
0.60635
0.606234
0.606114
0.60599
0.605863
0.605731
0.605595
0.605455
0.60531
0.605159
0.605003
0.604842
0.604673
0.604498
0.604316
0.604126
0.603926
0.603712
0.603485
0.603244
0.602987
0.602702
0.602378
0.602028
0.601616
0.598782
0.599204
0.598689
0.597838
0.597021
0.486702
0.296859
0.227953
0.190259
0.160138
0.134096
0.111123
0.0909839
0.073618
0.0589316
0.0467417
0.0367896
0.0287736
0.0223867
0.0173413
0.0133832
0.0102955
0.00789816
0.00604312
0.00460963
0.00350148
0.00264808
0.0020024
0.00152894
0.00119134
0.000952516
0.000781374
0.000655748
0.000560996
0.000487625
0.000429434
0.000382291
0.000343383
0.000310744
0.000282974
0.000259051
0.000238216
0.000219894
0.000203644
0.000189121
0.000176052
0.000164221
0.000153451
0.000143599
0.000134546
0.000126194
0.000118461
0.000111278
0.000104586
9.83361e-05
9.24841e-05
8.69935e-05
8.18325e-05
7.69731e-05
7.23447e-05
6.78917e-05
6.36073e-05
5.94864e-05
5.55248e-05
5.17194e-05
4.80685e-05
4.45715e-05
4.12283e-05
3.80401e-05
3.5008e-05
3.21332e-05
2.94165e-05
2.68578e-05
2.44558e-05
2.22079e-05
2.01105e-05
1.81588e-05
1.63469e-05
1.46688e-05
1.31179e-05
1.16878e-05
1.03727e-05
9.16687e-06
8.06517e-06
7.06273e-06
6.15459e-06
5.33439e-06
4.59246e-06
3.91405e-06
3.27673e-06
2.65775e-06
2.07514e-06
1.61246e-06
1.32071e-06
1.13013e-06
9.63195e-07
7.90543e-07
6.4313e-07
5.17988e-07
4.12503e-07
3.24305e-07
2.51251e-07
1.91393e-07
1.42919e-07
1.04195e-07
7.40201e-08
4.99957e-08
3.32628e-08
1.87115e-08
1.10665e-08
2.46297e-09
1.17885e-19
2.59473e-30
5.03778e-41
9.17826e-52
1.55744e-62
3.58129e-71
1.85979e-71
9.24835e-72
4.67018e-72
2.30879e-72
1.12869e-72
5.42896e-73
2.56805e-73
1.19404e-73
5.45431e-74
2.44641e-74
1.07681e-74
4.64847e-75
1.96681e-75
8.15093e-76
3.30624e-76
1.31164e-76
5.08517e-77
1.92501e-77
7.10901e-78
2.55849e-78
8.96306e-79
3.0538e-79
1.01077e-79
3.246e-80
1.01007e-80
3.04107e-81
8.84508e-82
2.48107e-82
6.69943e-83
1.73789e-83
4.32145e-84
1.02755e-84
2.33007e-85
5.02364e-86
1.02634e-86
1.97937e-87
3.58799e-88
6.08282e-89
9.58931e-90
1.39625e-90
1.86272e-91
2.25483e-92
2.44714e-93
2.34527e-94
1.94587e-95
1.36053e-96
7.71038e-98
3.3319e-99
9.83337e-101
1.52503e-102
1.50351e-105
1.18537e-112
6.84113e-115
1.95206e-117
8.469e-128
1.88287e-138
3.17078e-149
3.89986e-160
4.20808e-171
3.5066e-182
2.5236e-193
3.71251e-204
1.46674e-214
7.55396e-223
4.03178e-233
2.59767e-241
1.6456e-251
8.94573e-260
6.96372e-270
3.08648e-278
4.49944e-288
1.09919e-296
2.99893e-306
4.10145e-315
3.68079e-321
7.96928e-321
7.83094e-321
2.51973e-321
8.86848e-321
4.57737e-319
2.8055e-319
6.80328e-321
7.09478e-321
6.08689e-321
8.5424e-321
0
0
0
0
0
0
0
0
0
0
0
0
0
0
0
0
)
;

boundaryField
{
    inandouthalf11
    {
        type            cyclic;
    }
    inandouthalf12
    {
        type            cyclic;
    }
    inandouthalf21
    {
        type            cyclic;
    }
    inandouthalf22
    {
        type            cyclic;
    }
    inandouthalf31
    {
        type            cyclic;
    }
    inandouthalf32
    {
        type            cyclic;
    }
    inandouthalf41
    {
        type            cyclic;
    }
    inandouthalf42
    {
        type            cyclic;
    }
    top
    {
        type            symmetryPlane;
    }
    walls
    {
        type            zeroGradient;
    }
    frontAndBackPlanes
    {
        type            empty;
    }
}


// ************************************************************************* //
