/*--------------------------------*- C++ -*----------------------------------*\
| =========                 |                                                 |
| \\      /  F ield         | OpenFOAM: The Open Source CFD Toolbox           |
|  \\    /   O peration     | Version:  2.4.x                                 |
|   \\  /    A nd           | Web:      www.OpenFOAM.org                      |
|    \\/     M anipulation  |                                                 |
\*---------------------------------------------------------------------------*/
FoamFile
{
    version     2.0;
    format      ascii;
    class       volVectorField;
    location    "11.7";
    object      ddt0(Ub);
}
// * * * * * * * * * * * * * * * * * * * * * * * * * * * * * * * * * * * * * //

dimensions      [0 1 -2 0 0 0 0];

internalField   nonuniform List<vector> 
360
(
(0.000164256 -2.11233e-09 0)
(0.000163341 -7.48334e-09 0)
(0.000163219 -1.38575e-08 0)
(0.000163345 -2.00377e-08 0)
(0.000163405 -2.63386e-08 0)
(0.000163425 -3.28767e-08 0)
(0.000163451 -3.95368e-08 0)
(0.000163483 -4.62032e-08 0)
(0.000163516 -5.2805e-08 0)
(0.00016355 -5.92934e-08 0)
(0.000163583 -6.5629e-08 0)
(0.000163617 -7.17619e-08 0)
(0.000163651 -7.764e-08 0)
(0.000163685 -8.32205e-08 0)
(0.000163719 -8.84731e-08 0)
(0.000163754 -9.33706e-08 0)
(0.000163788 -9.79009e-08 0)
(0.000163823 -1.02055e-07 0)
(0.000163858 -1.0583e-07 0)
(0.000163894 -1.09232e-07 0)
(0.00016393 -1.12273e-07 0)
(0.000163966 -1.14975e-07 0)
(0.000164002 -1.17361e-07 0)
(0.000164038 -1.19458e-07 0)
(0.000164075 -1.21297e-07 0)
(0.000164112 -1.22911e-07 0)
(0.000164149 -1.24325e-07 0)
(0.000164187 -1.25579e-07 0)
(0.000164225 -1.26701e-07 0)
(0.000164264 -1.27716e-07 0)
(0.000164302 -1.28656e-07 0)
(0.000164342 -1.29547e-07 0)
(0.000164381 -1.30415e-07 0)
(0.000164421 -1.31287e-07 0)
(0.000164462 -1.32174e-07 0)
(0.000164503 -1.33092e-07 0)
(0.000164544 -1.34069e-07 0)
(0.000164586 -1.35111e-07 0)
(0.000164628 -1.36229e-07 0)
(0.000164671 -1.37434e-07 0)
(0.000164715 -1.38735e-07 0)
(0.000164758 -1.40136e-07 0)
(0.000164802 -1.41638e-07 0)
(0.000164848 -1.43253e-07 0)
(0.000164893 -1.4499e-07 0)
(0.000164939 -1.4684e-07 0)
(0.000164986 -1.48806e-07 0)
(0.000165033 -1.50893e-07 0)
(0.000165081 -1.53098e-07 0)
(0.000165129 -1.55417e-07 0)
(0.000165178 -1.5785e-07 0)
(0.000165228 -1.60398e-07 0)
(0.000165278 -1.63058e-07 0)
(0.000165329 -1.65822e-07 0)
(0.00016538 -1.68692e-07 0)
(0.000165433 -1.71667e-07 0)
(0.000165485 -1.74739e-07 0)
(0.000165539 -1.77906e-07 0)
(0.000165593 -1.81166e-07 0)
(0.000165648 -1.84505e-07 0)
(0.000165704 -1.87925e-07 0)
(0.000165761 -1.91424e-07 0)
(0.000165818 -1.94997e-07 0)
(0.000165876 -1.9864e-07 0)
(0.000165935 -2.02348e-07 0)
(0.000165995 -2.06122e-07 0)
(0.000166055 -2.09954e-07 0)
(0.000166117 -2.13838e-07 0)
(0.000166179 -2.1777e-07 0)
(0.000166242 -2.21746e-07 0)
(0.000166306 -2.25767e-07 0)
(0.000166371 -2.29823e-07 0)
(0.000166437 -2.33908e-07 0)
(0.000166504 -2.38025e-07 0)
(0.000166572 -2.42169e-07 0)
(0.000166641 -2.46333e-07 0)
(0.00016671 -2.50514e-07 0)
(0.000166781 -2.54711e-07 0)
(0.000166854 -2.58922e-07 0)
(0.000166927 -2.63145e-07 0)
(0.000167001 -2.67373e-07 0)
(0.000167077 -2.71602e-07 0)
(0.000167154 -2.75828e-07 0)
(0.000167232 -2.80051e-07 0)
(0.000167312 -2.84273e-07 0)
(0.000167392 -2.88486e-07 0)
(0.000167475 -2.9269e-07 0)
(0.000167558 -2.96886e-07 0)
(0.000167643 -3.01066e-07 0)
(0.00016773 -3.05229e-07 0)
(0.000167818 -3.09371e-07 0)
(0.000167908 -3.13487e-07 0)
(0.000168 -3.17584e-07 0)
(0.000168093 -3.21661e-07 0)
(0.000168188 -3.2571e-07 0)
(0.000168285 -3.29725e-07 0)
(0.000168384 -3.33709e-07 0)
(0.000168485 -3.37658e-07 0)
(0.000168588 -3.41573e-07 0)
(0.000168693 -3.45457e-07 0)
(0.0001688 -3.49304e-07 0)
(0.00016891 -3.53112e-07 0)
(0.000169022 -3.56887e-07 0)
(0.000169136 -3.60622e-07 0)
(0.000169253 -3.64316e-07 0)
(0.000169373 -3.67978e-07 0)
(0.000169496 -3.71607e-07 0)
(0.000169622 -3.75203e-07 0)
(0.00016975 -3.78776e-07 0)
(0.000169882 -3.82328e-07 0)
(0.000170018 -3.85859e-07 0)
(0.000170156 -3.8937e-07 0)
(0.000170299 -3.92865e-07 0)
(0.000170445 -3.96334e-07 0)
(0.000170595 -3.99783e-07 0)
(0.000170749 -4.03212e-07 0)
(0.000170908 -4.06614e-07 0)
(0.000171071 -4.0998e-07 0)
(0.000171239 -4.13302e-07 0)
(0.000171412 -4.16573e-07 0)
(0.000171591 -4.19788e-07 0)
(0.000171775 -4.22944e-07 0)
(0.000171966 -4.26051e-07 0)
(0.000172163 -4.29119e-07 0)
(0.000172366 -4.32178e-07 0)
(0.000172577 -4.35271e-07 0)
(0.000172795 -4.38444e-07 0)
(0.000173022 -4.41759e-07 0)
(0.000173258 -4.45287e-07 0)
(0.000173504 -4.49098e-07 0)
(0.000173759 -4.53255e-07 0)
(0.000174026 -4.57788e-07 0)
(0.000174305 -4.62654e-07 0)
(0.0001746 -4.67717e-07 0)
(0.000174915 -4.72717e-07 0)
(0.00017525 -4.77249e-07 0)
(0.000175605 -4.80832e-07 0)
(0.000175983 -4.83125e-07 0)
(0.000176402 -4.8414e-07 0)
(0.00017688 -4.84231e-07 0)
(0.000177397 -4.83752e-07 0)
(0.000178008 -4.78618e-07 0)
(0.000182253 -5.43775e-07 0)
(0.00018162 3.78586e-08 0)
(0.000182399 -2.24043e-06 0)
(0.000183655 6.66427e-06 0)
(0.000147162 -2.91237e-05 0)
(-0.0121201 0.000111147 0)
(-0.0794996 0.0013594 0)
(-0.0190948 0.000913121 0)
(0.0146176 0.000810854 0)
(0.0355872 0.0006619 0)
(0.0488859 0.000539629 0)
(0.0570423 0.000426221 0)
(0.0615944 0.000320623 0)
(0.0635591 0.00022521 0)
(0.0636193 0.000142361 0)
(0.0622293 7.33965e-05 0)
(0.059676 1.84482e-05 0)
(0.0561188 -2.33515e-05 0)
(0.051617 -5.35099e-05 0)
(0.0461506 -7.38084e-05 0)
(0.0396369 -8.60423e-05 0)
(0.031946 -9.18989e-05 0)
(0.0229185 -9.30033e-05 0)
(0.0123877 -9.09877e-05 0)
(0.000209077 -8.71835e-05 0)
(-0.0137006 -8.18487e-05 0)
(-0.0293148 -7.39746e-05 0)
(-0.0464475 -6.28495e-05 0)
(-0.0647296 -4.98476e-05 0)
(-0.0836361 -3.77079e-05 0)
(-0.102561 -2.82477e-05 0)
(-0.120913 -2.15947e-05 0)
(-0.138193 -1.70774e-05 0)
(-0.154054 -1.39477e-05 0)
(-0.168315 -1.16922e-05 0)
(-0.180939 -1.00352e-05 0)
(-0.192 -8.7837e-06 0)
(-0.201638 -7.81096e-06 0)
(-0.210024 -7.03441e-06 0)
(-0.217335 -6.39915e-06 0)
(-0.223738 -5.86783e-06 0)
(-0.229381 -5.41452e-06 0)
(-0.234392 -5.0209e-06 0)
(-0.23888 -4.67382e-06 0)
(-0.242934 -4.3637e-06 0)
(-0.246628 -4.08346e-06 0)
(-0.250021 -3.82782e-06 0)
(-0.253164 -3.59274e-06 0)
(-0.256095 -3.37514e-06 0)
(-0.258848 -3.17264e-06 0)
(-0.261449 -2.98336e-06 0)
(-0.26392 -2.80581e-06 0)
(-0.266279 -2.6388e-06 0)
(-0.26854 -2.48136e-06 0)
(-0.270714 -2.3327e-06 0)
(-0.272813 -2.19216e-06 0)
(-0.274845 -2.05915e-06 0)
(-0.276816 -1.9332e-06 0)
(-0.278731 -1.81388e-06 0)
(-0.280616 -1.69966e-06 0)
(-0.282491 -1.58933e-06 0)
(-0.284358 -1.48286e-06 0)
(-0.286219 -1.38025e-06 0)
(-0.288075 -1.28149e-06 0)
(-0.289929 -1.18658e-06 0)
(-0.291781 -1.09553e-06 0)
(-0.293631 -1.00837e-06 0)
(-0.295481 -9.25146e-07 0)
(-0.297332 -8.45917e-07 0)
(-0.299182 -7.70755e-07 0)
(-0.301034 -6.99737e-07 0)
(-0.302887 -6.32925e-07 0)
(-0.30474 -5.70376e-07 0)
(-0.306595 -5.12103e-07 0)
(-0.308449 -4.58085e-07 0)
(-0.310304 -4.0825e-07 0)
(-0.312159 -3.62497e-07 0)
(-0.314012 -3.20673e-07 0)
(-0.315864 -2.82605e-07 0)
(-0.317714 -2.48083e-07 0)
(-0.319559 -2.16893e-07 0)
(-0.3214 -1.88808e-07 0)
(-0.323235 -1.63617e-07 0)
(-0.325063 -1.41109e-07 0)
(-0.326881 -1.21102e-07 0)
(-0.328688 -1.0345e-07 0)
(-0.330482 -8.80789e-08 0)
(-0.332261 -7.49721e-08 0)
(-0.334022 -6.40778e-08 0)
(-0.335761 -5.48737e-08 0)
(-0.337477 -4.60246e-08 0)
(-0.339164 -3.63211e-08 0)
(-0.34082 -2.66444e-08 0)
(-0.342439 -1.96683e-08 0)
(-0.344017 -1.5658e-08 0)
(-0.345548 -1.26809e-08 0)
(-0.347025 -1.01174e-08 0)
(-0.348442 -8.02489e-09 0)
(-0.34979 -6.40718e-09 0)
(-0.351061 -5.19279e-09 0)
(-0.352246 -4.29904e-09 0)
(-0.353333 -3.66114e-09 0)
(-0.354311 -3.22241e-09 0)
(-0.355166 -2.93452e-09 0)
(-0.355884 -2.74976e-09 0)
(-0.356449 -2.62411e-09 0)
(-0.356844 -2.53676e-09 0)
(-0.35705 -2.47017e-09 0)
(-0.357049 -2.40705e-09 0)
(-0.356822 -2.33537e-09 0)
(-0.356351 -2.28181e-09 0)
(-0.35562 -2.24417e-09 0)
(-0.354619 -2.16462e-09 0)
(-0.353344 -2.10957e-09 0)
(-0.351802 -2.04936e-09 0)
(-0.350015 -1.99434e-09 0)
(-0.348017 -1.94686e-09 0)
(-0.345863 -1.91645e-09 0)
(-0.343617 -1.89083e-09 0)
(-0.341355 -1.87552e-09 0)
(-0.33915 -1.86888e-09 0)
(-0.337065 -1.86077e-09 0)
(-0.335149 -1.794e-09 0)
(-0.333432 -1.67769e-09 0)
(-0.331929 -1.55161e-09 0)
(-0.330641 -1.44828e-09 0)
(-0.329566 -1.33946e-09 0)
(-0.328693 -1.23427e-09 0)
(-0.328013 -1.17776e-09 0)
(-0.327513 -1.06855e-09 0)
(-0.327182 -1.10692e-09 0)
(-0.327011 -8.45552e-10 0)
(-0.326996 -1.00336e-09 0)
(-0.327146 -6.39789e-10 0)
(-0.327459 -9.58475e-10 0)
(-0.328479 -4.77314e-10 0)
(-0.329192 -9.08247e-10 0)
(-0.329244 -3.60455e-10 0)
(-0.329245 -8.76076e-10 0)
(-0.329245 -2.52956e-10 0)
(-0.329245 -8.39762e-10 0)
(-0.329245 -1.4592e-10 0)
(-0.329245 -8.11652e-10 0)
(-0.329245 -4.49838e-11 0)
(-0.329245 -7.86089e-10 0)
(-0.329245 7.56549e-11 0)
(-0.329245 -7.5147e-10 0)
(-0.329245 1.70745e-10 0)
(-0.329245 -7.45262e-10 0)
(-0.329245 2.83929e-10 0)
(-0.329245 -7.13672e-10 0)
(-0.329245 4.00939e-10 0)
(-0.329245 -6.91808e-10 0)
(-0.329245 5.20463e-10 0)
(-0.329245 -6.72034e-10 0)
(-0.329245 6.34899e-10 0)
(-0.329245 -6.67351e-10 0)
(-0.329245 7.37308e-10 0)
(-0.329245 -6.70884e-10 0)
(-0.329245 8.38338e-10 0)
(-0.329245 -6.7752e-10 0)
(-0.329245 9.45733e-10 0)
(-0.329245 -6.83243e-10 0)
(-0.329245 1.04566e-09 0)
(-0.329245 -6.97536e-10 0)
(-0.329245 1.15491e-09 0)
(-0.329245 -7.06237e-10 0)
(-0.329245 1.26304e-09 0)
(-0.329245 -5.98262e-10 0)
(-0.329245 1.22902e-09 0)
(-0.329245 -5.67722e-10 0)
(-0.329245 1.30074e-09 0)
(-0.329245 -5.37724e-10 0)
(-0.329245 1.37051e-09 0)
(-0.329245 -5.13711e-10 0)
(-0.329245 1.43219e-09 0)
(-0.329245 -4.9754e-10 0)
(-0.329245 1.4822e-09 0)
(-0.329245 -4.78545e-10 0)
(-0.329245 1.55646e-09 0)
(-0.329245 -4.37326e-10 0)
(-0.329245 1.62993e-09 0)
(-0.329245 -3.91466e-10 0)
(-0.329245 1.73866e-09 0)
(-0.329245 -2.79754e-10 0)
(-0.329245 1.96888e-09 0)
(-0.329245 2.29608e-10 0)
(-0.329245 3.00141e-09 0)
(-0.329245 1.50324e-09 0)
(-0.329245 4.33191e-09 0)
(-0.329245 2.7893e-09 0)
(-0.329245 5.64696e-09 0)
(-0.329245 4.02242e-09 0)
(-0.329245 6.84449e-09 0)
(-0.329245 5.14618e-09 0)
(-0.329245 7.99445e-09 0)
(-0.329245 6.31182e-09 0)
(-0.329245 9.28035e-09 0)
(-0.329245 7.61712e-09 0)
(-0.329245 1.06811e-08 0)
(-0.329245 9.25671e-09 0)
(-0.329245 1.27837e-08 0)
(-0.329245 1.1538e-08 0)
(-0.329245 1.5164e-08 0)
(-0.329245 1.4506e-08 0)
(-0.329245 1.92542e-08 0)
(-0.329245 1.94653e-08 0)
(-0.329245 2.48121e-08 0)
(-0.329245 2.60753e-08 0)
(-0.329245 3.28615e-08 0)
(-0.329245 3.6134e-08 0)
(-0.329245 4.51791e-08 0)
(-0.329245 4.95589e-08 0)
(-0.329245 5.83132e-08 0)
(-0.329245 6.38281e-08 0)
(-0.329245 7.39272e-08 0)
(-0.329245 7.73059e-08 0)
(-0.329245 4.22511e-08 0)
)
;

boundaryField
{
    inandouthalf11
    {
        type            cyclic;
    }
    inandouthalf12
    {
        type            cyclic;
    }
    inandouthalf21
    {
        type            cyclic;
    }
    inandouthalf22
    {
        type            cyclic;
    }
    inandouthalf31
    {
        type            cyclic;
    }
    inandouthalf32
    {
        type            cyclic;
    }
    inandouthalf41
    {
        type            cyclic;
    }
    inandouthalf42
    {
        type            cyclic;
    }
    top
    {
        type            symmetryPlane;
    }
    walls
    {
        type            calculated;
        value           uniform (0 0 0);
    }
    frontAndBackPlanes
    {
        type            empty;
    }
}


// ************************************************************************* //
