/*--------------------------------*- C++ -*----------------------------------*\
| =========                 |                                                 |
| \\      /  F ield         | OpenFOAM: The Open Source CFD Toolbox           |
|  \\    /   O peration     | Version:  2.4.x                                 |
|   \\  /    A nd           | Web:      www.OpenFOAM.org                      |
|    \\/     M anipulation  |                                                 |
\*---------------------------------------------------------------------------*/
FoamFile
{
    version     2.0;
    format      ascii;
    class       volVectorField;
    location    "11.7";
    object      ddt0(Ua);
}
// * * * * * * * * * * * * * * * * * * * * * * * * * * * * * * * * * * * * * //

dimensions      [0 1 -2 0 0 0 0];

internalField   nonuniform List<vector> 
360
(
(4.89368e-33 -1.79176e-33 0)
(1.73533e-09 4.94023e-09 0)
(3.6623e-09 8.92023e-09 0)
(5.45093e-09 1.25615e-08 0)
(7.31685e-09 1.65041e-08 0)
(9.28683e-09 2.06744e-08 0)
(1.12998e-08 2.48949e-08 0)
(1.33204e-08 2.91006e-08 0)
(1.53347e-08 3.3267e-08 0)
(1.73311e-08 3.73667e-08 0)
(1.92966e-08 4.13688e-08 0)
(2.12167e-08 4.52409e-08 0)
(2.30775e-08 4.89517e-08 0)
(2.48662e-08 5.24746e-08 0)
(2.65722e-08 5.57878e-08 0)
(2.81874e-08 5.88759e-08 0)
(2.97056e-08 6.17283e-08 0)
(3.11231e-08 6.43398e-08 0)
(3.24379e-08 6.67097e-08 0)
(3.36506e-08 6.88426e-08 0)
(3.47631e-08 7.0747e-08 0)
(3.57794e-08 7.24349e-08 0)
(3.67049e-08 7.39216e-08 0)
(3.75461e-08 7.52244e-08 0)
(3.83101e-08 7.63624e-08 0)
(3.90049e-08 7.73555e-08 0)
(3.96388e-08 7.8224e-08 0)
(4.02201e-08 7.89884e-08 0)
(4.07572e-08 7.96687e-08 0)
(4.12583e-08 8.02838e-08 0)
(4.17313e-08 8.0852e-08 0)
(4.21835e-08 8.13901e-08 0)
(4.2622e-08 8.19137e-08 0)
(4.3053e-08 8.2437e-08 0)
(4.34827e-08 8.29727e-08 0)
(4.39161e-08 8.35321e-08 0)
(4.43582e-08 8.41252e-08 0)
(4.4813e-08 8.47605e-08 0)
(4.52845e-08 8.54458e-08 0)
(4.57757e-08 8.61871e-08 0)
(4.62894e-08 8.69896e-08 0)
(4.6828e-08 8.78578e-08 0)
(4.73935e-08 8.87948e-08 0)
(4.79874e-08 8.98034e-08 0)
(4.86111e-08 9.08855e-08 0)
(4.92657e-08 9.20425e-08 0)
(4.99517e-08 9.32751e-08 0)
(5.06697e-08 9.45831e-08 0)
(5.14198e-08 9.59663e-08 0)
(5.22023e-08 9.74248e-08 0)
(5.30173e-08 9.89573e-08 0)
(5.38642e-08 1.00562e-07 0)
(5.47428e-08 1.02238e-07 0)
(5.56526e-08 1.03984e-07 0)
(5.65931e-08 1.05797e-07 0)
(5.75635e-08 1.07676e-07 0)
(5.85631e-08 1.09618e-07 0)
(5.9591e-08 1.11621e-07 0)
(6.06463e-08 1.13683e-07 0)
(6.17279e-08 1.158e-07 0)
(6.28349e-08 1.17971e-07 0)
(6.39664e-08 1.20192e-07 0)
(6.51214e-08 1.22462e-07 0)
(6.62988e-08 1.24778e-07 0)
(6.74975e-08 1.27136e-07 0)
(6.87163e-08 1.29535e-07 0)
(6.99542e-08 1.31972e-07 0)
(7.12099e-08 1.34444e-07 0)
(7.24823e-08 1.36948e-07 0)
(7.37701e-08 1.39481e-07 0)
(7.50724e-08 1.42042e-07 0)
(7.63883e-08 1.44628e-07 0)
(7.77167e-08 1.47237e-07 0)
(7.90563e-08 1.49865e-07 0)
(8.04066e-08 1.52513e-07 0)
(8.17664e-08 1.55176e-07 0)
(8.31349e-08 1.57854e-07 0)
(8.45106e-08 1.60543e-07 0)
(8.58926e-08 1.63242e-07 0)
(8.72801e-08 1.65948e-07 0)
(8.8672e-08 1.68659e-07 0)
(9.00676e-08 1.71373e-07 0)
(9.14661e-08 1.7409e-07 0)
(9.28669e-08 1.76807e-07 0)
(9.42694e-08 1.79524e-07 0)
(9.56729e-08 1.82238e-07 0)
(9.70765e-08 1.84949e-07 0)
(9.84795e-08 1.87654e-07 0)
(9.98811e-08 1.90352e-07 0)
(1.0128e-07 1.93041e-07 0)
(1.02677e-07 1.95719e-07 0)
(1.04069e-07 1.98386e-07 0)
(1.05458e-07 2.0104e-07 0)
(1.06842e-07 2.0368e-07 0)
(1.08221e-07 2.06305e-07 0)
(1.09594e-07 2.08914e-07 0)
(1.10961e-07 2.11507e-07 0)
(1.12322e-07 2.14082e-07 0)
(1.13677e-07 2.16638e-07 0)
(1.15023e-07 2.19175e-07 0)
(1.16363e-07 2.21691e-07 0)
(1.17694e-07 2.24187e-07 0)
(1.19018e-07 2.26661e-07 0)
(1.20335e-07 2.29116e-07 0)
(1.21644e-07 2.3155e-07 0)
(1.22948e-07 2.33966e-07 0)
(1.24246e-07 2.36364e-07 0)
(1.2554e-07 2.38747e-07 0)
(1.26832e-07 2.41117e-07 0)
(1.28122e-07 2.43475e-07 0)
(1.29412e-07 2.45823e-07 0)
(1.30704e-07 2.48164e-07 0)
(1.31998e-07 2.50499e-07 0)
(1.33295e-07 2.52827e-07 0)
(1.34595e-07 2.55147e-07 0)
(1.35897e-07 2.57459e-07 0)
(1.37199e-07 2.59758e-07 0)
(1.385e-07 2.62039e-07 0)
(1.39796e-07 2.64299e-07 0)
(1.41086e-07 2.66531e-07 0)
(1.42368e-07 2.68732e-07 0)
(1.43642e-07 2.70903e-07 0)
(1.44913e-07 2.73046e-07 0)
(1.46188e-07 2.75173e-07 0)
(1.4748e-07 2.773e-07 0)
(1.4881e-07 2.79453e-07 0)
(1.50203e-07 2.81666e-07 0)
(1.51694e-07 2.8398e-07 0)
(1.53325e-07 2.86443e-07 0)
(1.55139e-07 2.89107e-07 0)
(1.57183e-07 2.92014e-07 0)
(1.59488e-07 2.95188e-07 0)
(1.62061e-07 2.98615e-07 0)
(1.64855e-07 3.02218e-07 0)
(1.67741e-07 3.05831e-07 0)
(1.70479e-07 3.09174e-07 0)
(1.72753e-07 3.11897e-07 0)
(1.74314e-07 3.13744e-07 0)
(1.75145e-07 3.14732e-07 0)
(1.75467e-07 3.15126e-07 0)
(1.75561e-07 3.15245e-07 0)
(1.75616e-07 3.15287e-07 0)
(1.75708e-07 3.15392e-07 0)
(1.76167e-07 3.15982e-07 0)
(1.76574e-07 3.16279e-07 0)
(1.76926e-07 3.16529e-07 0)
(1.74644e-07 3.18763e-07 0)
(-7.46925e-06 2.75588e-06 0)
(-0.0733422 -0.00144036 0)
(-0.0279039 -0.00294202 0)
(0.00632376 -0.00345788 0)
(0.0282776 -0.00380189 0)
(0.0420191 -0.00414772 0)
(0.0501648 -0.00448389 0)
(0.0543175 -0.00479396 0)
(0.0555096 -0.00506028 0)
(0.054412 -0.00526445 0)
(0.0514387 -0.00538796 0)
(0.0468234 -0.00541172 0)
(0.0406671 -0.00531397 0)
(0.03299 -0.0050665 0)
(0.0237866 -0.00463194 0)
(0.0130701 -0.00396338 0)
(0.000912944 -0.00300488 0)
(-0.0125226 -0.00167935 0)
(-0.0269649 0.00015881 0)
(-0.0420214 0.00277607 0)
(-0.0571791 0.00645918 0)
(-0.0718501 0.0111449 0)
(-0.0855113 0.016131 0)
(-0.0978843 0.0204299 0)
(-0.108983 0.023453 0)
(-0.118989 0.0252108 0)
(-0.128109 0.0260226 0)
(-0.136508 0.0262231 0)
(-0.144307 0.0260588 0)
(-0.151591 0.0256895 0)
(-0.158424 0.0252137 0)
(-0.164856 0.0246901 0)
(-0.170925 0.0241526 0)
(-0.176667 0.0236203 0)
(-0.182111 0.0231029 0)
(-0.187283 0.0226048 0)
(-0.192206 0.0221273 0)
(-0.196899 0.0216699 0)
(-0.201381 0.0212313 0)
(-0.205668 0.0208097 0)
(-0.209772 0.0204032 0)
(-0.213706 0.0200103 0)
(-0.217481 0.0196293 0)
(-0.221105 0.0192589 0)
(-0.224588 0.0188979 0)
(-0.227936 0.0185455 0)
(-0.231155 0.0182009 0)
(-0.234251 0.0178634 0)
(-0.237229 0.0175325 0)
(-0.240092 0.0172079 0)
(-0.242845 0.0168891 0)
(-0.245491 0.0165758 0)
(-0.248032 0.0162676 0)
(-0.250471 0.0159644 0)
(-0.252834 0.0156627 0)
(-0.255145 0.0153595 0)
(-0.257404 0.0150544 0)
(-0.259611 0.0147473 0)
(-0.261766 0.014438 0)
(-0.263868 0.0141261 0)
(-0.265918 0.0138116 0)
(-0.267916 0.013494 0)
(-0.269861 0.0131733 0)
(-0.271753 0.0128491 0)
(-0.273593 0.0125212 0)
(-0.27538 0.0121893 0)
(-0.277115 0.011853 0)
(-0.278797 0.011512 0)
(-0.280427 0.0111659 0)
(-0.282007 0.0108145 0)
(-0.283535 0.0104584 0)
(-0.285013 0.0100984 0)
(-0.286442 0.0097365 0)
(-0.287822 0.00937559 0)
(-0.289151 0.0090189 0)
(-0.290431 0.00866958 0)
(-0.29166 0.00833026 0)
(-0.292837 0.00800295 0)
(-0.293962 0.00768913 0)
(-0.295032 0.00738995 0)
(-0.296047 0.00710624 0)
(-0.297004 0.00683798 0)
(-0.297898 0.00658284 0)
(-0.298722 0.00633332 0)
(-0.299461 0.0060712 0)
(-0.300096 0.00576674 0)
(-0.300623 0.00540505 0)
(-0.301066 0.00505226 0)
(-0.301443 0.00486302 0)
(-0.30189 0.00481219 0)
(-0.350576 0.00256752 0)
(-0.351971 0.00223633 0)
(-0.353421 0.00113271 0)
(-0.354792 0.000236144 0)
(-0.356087 -0.000587385 0)
(-0.357293 -0.00132466 0)
(-0.358399 -0.00197529 0)
(-0.359382 -0.00237025 0)
(-0.360285 -0.00358819 0)
(-0.36091 -0.00218831 0)
(-0.361672 -0.00528045 0)
(-0.361672 -0.0018626 0)
(-0.36193 -0.0055478 0)
(-0.362008 -0.00345819 0)
(-0.361563 -0.00191976 0)
(-0.361442 -0.0165888 0)
(-0.358866 -0.00538711 0)
(-0.357652 -0.000102437 0)
(-0.356257 -2.34838e-05 0)
(-0.354658 -3.98046e-05 0)
(-0.352815 -4.89076e-05 0)
(-0.350776 -5.65316e-05 0)
(-0.3486 -6.19377e-05 0)
(-0.346386 -6.55564e-05 0)
(-0.344084 -6.53612e-05 0)
(-0.341702 -5.76677e-05 0)
(-0.33998 -5.83655e-05 0)
(-0.337954 -5.14142e-05 0)
(-0.33629 -4.55698e-05 0)
(-0.334829 -3.96838e-05 0)
(-0.333583 -3.43664e-05 0)
(-0.332546 -2.98613e-05 0)
(-0.331709 -2.62976e-05 0)
(-0.331062 -2.37088e-05 0)
(-0.330591 -2.20736e-05 0)
(-0.330287 -2.13569e-05 0)
(-0.33014 -2.15646e-05 0)
(-0.330149 -2.28107e-05 0)
(-0.330325 -2.53104e-05 0)
(-0.330692 -3.44063e-05 0)
(-0.331768 -3.88624e-05 0)
(-0.332351 -3.11554e-05 0)
(-0.332392 -2.56645e-05 0)
(-0.332392 -2.52736e-05 0)
(-0.332392 -2.52678e-05 0)
(-0.332392 -2.52679e-05 0)
(-0.332392 -2.52677e-05 0)
(-0.332392 -2.52679e-05 0)
(-0.332392 -2.52677e-05 0)
(-0.332392 -2.52678e-05 0)
(-0.332392 -2.52677e-05 0)
(-0.332392 -2.52678e-05 0)
(-0.332392 -2.52676e-05 0)
(-0.332392 -2.52678e-05 0)
(-0.332392 -2.52676e-05 0)
(-0.332392 -2.52678e-05 0)
(-0.332392 -2.52676e-05 0)
(-0.332392 -2.52678e-05 0)
(-0.332392 -2.52675e-05 0)
(-0.332392 -2.52678e-05 0)
(-0.332392 -2.52675e-05 0)
(-0.332392 -2.52678e-05 0)
(-0.332392 -2.52675e-05 0)
(-0.332392 -2.52677e-05 0)
(-0.332392 -2.52674e-05 0)
(-0.332392 -2.52677e-05 0)
(-0.332392 -2.52674e-05 0)
(-0.332392 -2.52677e-05 0)
(-0.332392 -2.52674e-05 0)
(-0.332392 -2.52677e-05 0)
(-0.332392 -2.52673e-05 0)
(-0.332392 -2.52677e-05 0)
(-0.332392 -2.52673e-05 0)
(-0.332392 -2.52677e-05 0)
(-0.332392 -2.52673e-05 0)
(-0.332392 -2.52677e-05 0)
(-0.332392 -2.52673e-05 0)
(-0.332392 -2.52677e-05 0)
(-0.332392 -2.52673e-05 0)
(-0.332392 -2.52676e-05 0)
(-0.332392 -2.52672e-05 0)
(-0.332392 -2.52676e-05 0)
(-0.332392 -2.52672e-05 0)
(-0.332392 -2.52676e-05 0)
(-0.332392 -2.52672e-05 0)
(-0.332392 -2.52676e-05 0)
(-0.332392 -2.52672e-05 0)
(-0.332392 -2.52676e-05 0)
(-0.332392 -2.52671e-05 0)
(-0.332392 -2.52675e-05 0)
(-0.332392 -2.5267e-05 0)
(-0.332392 -2.52673e-05 0)
(-0.332392 -2.52667e-05 0)
(-0.332392 -2.52668e-05 0)
(-0.332392 -2.52661e-05 0)
(-0.332392 -2.52664e-05 0)
(-0.332392 -2.52656e-05 0)
(-0.332392 -2.52659e-05 0)
(-0.332392 -2.52652e-05 0)
(-0.332392 -2.52655e-05 0)
(-0.332392 -2.52648e-05 0)
(-0.332392 -2.5265e-05 0)
(-0.332392 -2.52643e-05 0)
(-0.332392 -2.52645e-05 0)
(-0.332392 -2.52638e-05 0)
(-0.332392 -2.52639e-05 0)
(-0.332392 -2.5263e-05 0)
(-0.332392 -2.52631e-05 0)
(-0.332392 -2.52621e-05 0)
(-0.332392 -2.5262e-05 0)
(-0.332392 -2.52606e-05 0)
(-0.332392 -2.52601e-05 0)
(-0.332392 -2.52585e-05 0)
(-0.332392 -2.52576e-05 0)
(-0.332392 -2.52555e-05 0)
(-0.332392 -2.52539e-05 0)
(-0.332392 -2.52509e-05 0)
(-0.332392 -2.52488e-05 0)
(-0.332392 -2.52459e-05 0)
(-0.332393 -2.52447e-05 0)
(-0.332393 -2.52696e-05 0)
(-0.332416 -2.58844e-05 0)
(-0.332925 -5.07267e-05 0)
)
;

boundaryField
{
    inandouthalf11
    {
        type            cyclic;
    }
    inandouthalf12
    {
        type            cyclic;
    }
    inandouthalf21
    {
        type            cyclic;
    }
    inandouthalf22
    {
        type            cyclic;
    }
    inandouthalf31
    {
        type            cyclic;
    }
    inandouthalf32
    {
        type            cyclic;
    }
    inandouthalf41
    {
        type            cyclic;
    }
    inandouthalf42
    {
        type            cyclic;
    }
    top
    {
        type            symmetryPlane;
    }
    walls
    {
        type            calculated;
        value           uniform (0 0 0);
    }
    frontAndBackPlanes
    {
        type            empty;
    }
}


// ************************************************************************* //
