/*--------------------------------*- C++ -*----------------------------------*\
| =========                 |                                                 |
| \\      /  F ield         | OpenFOAM: The Open Source CFD Toolbox           |
|  \\    /   O peration     | Version:  2.4.x                                 |
|   \\  /    A nd           | Web:      www.OpenFOAM.org                      |
|    \\/     M anipulation  |                                                 |
\*---------------------------------------------------------------------------*/
FoamFile
{
    version     2.0;
    format      ascii;
    class       surfaceScalarField;
    location    "11.7";
    object      ddt0(phib);
}
// * * * * * * * * * * * * * * * * * * * * * * * * * * * * * * * * * * * * * //

dimensions      [0 3 -2 0 0 0 0];

internalField   nonuniform List<scalar> 
359
(
-1.71836e-14
-4.30686e-14
-6.78301e-14
-9.24685e-14
-1.18235e-13
-1.44784e-13
-1.71516e-13
-1.98113e-13
-2.24331e-13
-2.50019e-13
-2.75015e-13
-2.99083e-13
-3.22039e-13
-3.43728e-13
-3.64059e-13
-3.82908e-13
-4.00302e-13
-4.1614e-13
-4.30499e-13
-4.43356e-13
-4.54832e-13
-4.64971e-13
-4.7392e-13
-4.81741e-13
-4.88636e-13
-4.94649e-13
-4.99953e-13
-5.04676e-13
-5.08934e-13
-5.12795e-13
-5.16456e-13
-5.19921e-13
-5.23401e-13
-5.26898e-13
-5.30493e-13
-5.34246e-13
-5.38305e-13
-5.42582e-13
-5.47249e-13
-5.5223e-13
-5.57649e-13
-5.63444e-13
-5.69662e-13
-5.76362e-13
-5.83559e-13
-5.91167e-13
-5.99286e-13
-6.07862e-13
-6.16922e-13
-6.2642e-13
-6.36386e-13
-6.46803e-13
-6.57668e-13
-6.68912e-13
-6.8063e-13
-6.92706e-13
-7.0521e-13
-7.18039e-13
-7.31294e-13
-7.44756e-13
-7.58646e-13
-7.7275e-13
-7.87234e-13
-8.01892e-13
-8.169e-13
-8.32084e-13
-8.47554e-13
-8.6316e-13
-8.79008e-13
-8.94969e-13
-9.11171e-13
-9.27418e-13
-9.43857e-13
-9.60352e-13
-9.77012e-13
-9.93661e-13
-1.01046e-12
-1.02724e-12
-1.04415e-12
-1.06102e-12
-1.07798e-12
-1.09485e-12
-1.11179e-12
-1.12863e-12
-1.14556e-12
-1.16234e-12
-1.17919e-12
-1.1959e-12
-1.21264e-12
-1.22921e-12
-1.24577e-12
-1.26214e-12
-1.27855e-12
-1.29475e-12
-1.31094e-12
-1.32688e-12
-1.34281e-12
-1.35847e-12
-1.37413e-12
-1.38955e-12
-1.4049e-12
-1.42001e-12
-1.4351e-12
-1.44989e-12
-1.46465e-12
-1.47919e-12
-1.49368e-12
-1.50796e-12
-1.52227e-12
-1.53638e-12
-1.55052e-12
-1.56447e-12
-1.57847e-12
-1.59223e-12
-1.60606e-12
-1.61966e-12
-1.63328e-12
-1.64659e-12
-1.65986e-12
-1.67276e-12
-1.68558e-12
-1.69801e-12
-1.71043e-12
-1.72256e-12
-1.73491e-12
-1.7473e-12
-1.7603e-12
-1.77383e-12
-1.78853e-12
-1.80432e-12
-1.8218e-12
-1.84059e-12
-1.86074e-12
-1.88112e-12
-1.90075e-12
-1.91737e-12
-1.92943e-12
-1.93579e-12
-1.93764e-12
-1.93641e-12
-1.93401e-12
-1.92088e-12
-1.91442e-12
-1.91595e-12
-1.91253e-12
-1.90261e-12
-1.37304e-11
3.65774e-09
3.91699e-09
3.35166e-09
2.8501e-09
2.37132e-09
1.91354e-09
1.48129e-09
1.08337e-09
7.29762e-10
4.28052e-10
1.81524e-10
-1.10714e-11
-1.5439e-10
-2.54925e-10
-3.19808e-10
-3.55964e-10
-3.69819e-10
-3.67577e-10
-3.55371e-10
-3.37407e-10
-3.12426e-10
-2.75074e-10
-2.25631e-10
-1.74245e-10
-1.31219e-10
-9.95927e-11
-7.75042e-11
-6.21574e-11
-5.13244e-11
-4.34888e-11
-3.76615e-11
-3.32038e-11
-2.96991e-11
-2.6872e-11
-2.45369e-11
-2.25665e-11
-2.08719e-11
-1.93902e-11
-1.80754e-11
-1.68947e-11
-1.58227e-11
-1.48413e-11
-1.39358e-11
-1.30957e-11
-1.2312e-11
-1.15784e-11
-1.08892e-11
-1.02404e-11
-9.62812e-12
-9.04977e-12
-8.50259e-12
-7.98475e-12
-7.49415e-12
-7.02942e-12
-6.58016e-12
-6.14655e-12
-5.72824e-12
-5.32552e-12
-4.93801e-12
-4.56611e-12
-4.20951e-12
-3.86879e-12
-3.54366e-12
-3.23493e-12
-2.94234e-12
-2.66674e-12
-2.40777e-12
-2.1662e-12
-1.94137e-12
-1.73376e-12
-1.54231e-12
-1.3673e-12
-1.20722e-12
-1.06222e-12
-9.30475e-13
-8.12135e-13
-7.05244e-13
-6.10095e-13
-5.24722e-13
-4.49673e-13
-3.83243e-13
-3.26456e-13
-2.77788e-13
-2.37975e-13
-2.02488e-13
-1.66482e-13
-1.25884e-13
-9.06802e-14
-7.10877e-14
-5.76003e-14
-4.54896e-14
-3.6483e-14
-2.86845e-14
-2.34448e-14
-1.88169e-14
-1.61447e-14
-1.35819e-14
-1.25248e-14
-1.11795e-14
-1.09748e-14
-1.01065e-14
-1.02349e-14
-9.53084e-15
-9.71751e-15
-9.00722e-15
-9.23758e-15
-8.64595e-15
-8.68719e-15
-8.19671e-15
-8.19832e-15
-7.75634e-15
-7.81898e-15
-7.51309e-15
-7.61404e-15
-7.39056e-15
-7.56093e-15
-7.32566e-15
-7.0269e-15
-6.39517e-15
-6.01777e-15
-5.56783e-15
-5.15237e-15
-4.75417e-15
-4.52189e-15
-4.34995e-15
-3.95971e-15
-3.61014e-15
-3.32729e-15
-3.15042e-15
-2.90718e-15
-2.72556e-15
-2.55541e-15
-2.45384e-15
-2.28878e-15
-2.14447e-15
-2.01441e-15
-1.86171e-15
-1.76574e-15
-1.61799e-15
-1.48638e-15
-1.25788e-15
-1.22754e-15
-1.1038e-15
-9.89623e-16
-7.89467e-16
-6.82838e-16
-5.33023e-16
-3.882e-16
-2.55099e-16
-1.13679e-16
-1.18064e-17
8.31585e-17
1.92693e-16
2.78697e-16
3.76129e-16
4.73891e-16
5.98583e-16
6.57803e-16
7.54475e-16
8.50791e-16
9.64813e-16
1.0511e-15
1.14289e-15
1.23258e-15
1.35078e-15
1.44189e-15
1.54558e-15
1.65427e-15
1.72748e-15
1.82693e-15
1.88759e-15
1.95438e-15
2.00158e-15
2.1461e-15
2.25298e-15
2.37548e-15
2.46225e-15
2.67517e-15
2.88543e-15
3.27257e-15
3.95812e-15
6.39572e-15
8.98442e-15
1.1727e-14
1.41792e-14
1.69486e-14
1.936e-14
2.17591e-14
2.4003e-14
2.62195e-14
2.86202e-14
3.10388e-14
3.39806e-14
3.62272e-14
3.98697e-14
4.35404e-14
4.92992e-14
5.24724e-14
5.92645e-14
6.63e-14
7.80923e-14
8.72602e-14
1.01485e-13
1.16818e-13
1.36194e-13
1.62591e-13
1.89032e-13
2.17365e-13
2.39185e-13
2.81334e-13
3.00432e-13
3.2846e-13
)
;

boundaryField
{
    inandouthalf11
    {
        type            cyclic;
        value           nonuniform List<scalar> 
100
(
-1.64256e-10
-1.63341e-10
-1.63219e-10
-1.63345e-10
-1.63405e-10
-1.63425e-10
-1.63451e-10
-1.63483e-10
-1.63516e-10
-1.6355e-10
-1.63583e-10
-1.63617e-10
-1.63651e-10
-1.63685e-10
-1.63719e-10
-1.63754e-10
-1.63788e-10
-1.63823e-10
-1.63858e-10
-1.63894e-10
-1.6393e-10
-1.63966e-10
-1.64002e-10
-1.64038e-10
-1.64075e-10
-1.64112e-10
-1.64149e-10
-1.64187e-10
-1.64225e-10
-1.64264e-10
-1.64302e-10
-1.64342e-10
-1.64381e-10
-1.64421e-10
-1.64462e-10
-1.64503e-10
-1.64544e-10
-1.64586e-10
-1.64628e-10
-1.64671e-10
-1.64715e-10
-1.64758e-10
-1.64802e-10
-1.64848e-10
-1.64893e-10
-1.64939e-10
-1.64986e-10
-1.65033e-10
-1.65081e-10
-1.65129e-10
-1.65178e-10
-1.65228e-10
-1.65278e-10
-1.65329e-10
-1.6538e-10
-1.65433e-10
-1.65485e-10
-1.65539e-10
-1.65593e-10
-1.65648e-10
-1.65704e-10
-1.65761e-10
-1.65818e-10
-1.65876e-10
-1.65935e-10
-1.65995e-10
-1.66055e-10
-1.66117e-10
-1.66179e-10
-1.66242e-10
-1.66306e-10
-1.66371e-10
-1.66437e-10
-1.66504e-10
-1.66572e-10
-1.66641e-10
-1.6671e-10
-1.66781e-10
-1.66854e-10
-1.66927e-10
-1.67001e-10
-1.67077e-10
-1.67154e-10
-1.67232e-10
-1.67312e-10
-1.67392e-10
-1.67475e-10
-1.67558e-10
-1.67643e-10
-1.6773e-10
-1.67818e-10
-1.67908e-10
-1.68e-10
-1.68093e-10
-1.68188e-10
-1.68285e-10
-1.68384e-10
-1.68485e-10
-1.68588e-10
-1.68693e-10
)
;
    }
    inandouthalf12
    {
        type            cyclic;
        value           nonuniform List<scalar> 
100
(
1.64256e-10
1.63341e-10
1.63219e-10
1.63345e-10
1.63405e-10
1.63425e-10
1.63451e-10
1.63483e-10
1.63516e-10
1.6355e-10
1.63583e-10
1.63617e-10
1.63651e-10
1.63685e-10
1.63719e-10
1.63754e-10
1.63788e-10
1.63823e-10
1.63858e-10
1.63894e-10
1.6393e-10
1.63966e-10
1.64002e-10
1.64038e-10
1.64075e-10
1.64112e-10
1.64149e-10
1.64187e-10
1.64225e-10
1.64264e-10
1.64302e-10
1.64342e-10
1.64381e-10
1.64421e-10
1.64462e-10
1.64503e-10
1.64544e-10
1.64586e-10
1.64628e-10
1.64671e-10
1.64715e-10
1.64758e-10
1.64802e-10
1.64848e-10
1.64893e-10
1.64939e-10
1.64986e-10
1.65033e-10
1.65081e-10
1.65129e-10
1.65178e-10
1.65228e-10
1.65278e-10
1.65329e-10
1.6538e-10
1.65433e-10
1.65485e-10
1.65539e-10
1.65593e-10
1.65648e-10
1.65704e-10
1.65761e-10
1.65818e-10
1.65876e-10
1.65935e-10
1.65995e-10
1.66055e-10
1.66117e-10
1.66179e-10
1.66242e-10
1.66306e-10
1.66371e-10
1.66437e-10
1.66504e-10
1.66572e-10
1.66641e-10
1.6671e-10
1.66781e-10
1.66854e-10
1.66927e-10
1.67001e-10
1.67077e-10
1.67154e-10
1.67232e-10
1.67312e-10
1.67392e-10
1.67475e-10
1.67558e-10
1.67643e-10
1.6773e-10
1.67818e-10
1.67908e-10
1.68e-10
1.68093e-10
1.68188e-10
1.68285e-10
1.68384e-10
1.68485e-10
1.68588e-10
1.68693e-10
)
;
    }
    inandouthalf21
    {
        type            cyclic;
        value           nonuniform List<scalar> 
100
(
-1.688e-10
-1.6891e-10
-1.69022e-10
-1.69136e-10
-1.69253e-10
-1.69373e-10
-1.69496e-10
-1.69622e-10
-1.6975e-10
-1.69882e-10
-1.70018e-10
-1.70156e-10
-1.70299e-10
-1.70445e-10
-1.70595e-10
-1.70749e-10
-1.70908e-10
-1.71071e-10
-1.71239e-10
-1.71412e-10
-1.71591e-10
-1.71775e-10
-1.71966e-10
-1.72163e-10
-1.72366e-10
-1.72577e-10
-1.72795e-10
-1.73022e-10
-1.73258e-10
-1.73504e-10
-1.73759e-10
-1.74026e-10
-1.74305e-10
-1.746e-10
-1.74915e-10
-1.7525e-10
-1.75605e-10
-1.75983e-10
-1.76402e-10
-1.7688e-10
-1.77397e-10
-1.78008e-10
-1.82253e-10
-1.8162e-10
-1.82399e-10
-1.83655e-10
-1.47162e-10
1.21201e-08
7.94996e-08
1.90948e-08
-1.46176e-08
-3.55872e-08
-4.88859e-08
-5.70423e-08
-6.15944e-08
-6.35591e-08
-6.36193e-08
-6.22293e-08
-5.9676e-08
-5.61188e-08
-5.1617e-08
-4.61506e-08
-3.96369e-08
-3.1946e-08
-2.29185e-08
-1.23877e-08
-2.09077e-10
1.37006e-08
2.93148e-08
4.64475e-08
6.47296e-08
8.36361e-08
1.02561e-07
1.20913e-07
1.38193e-07
1.54054e-07
1.68315e-07
1.80939e-07
1.92e-07
2.01638e-07
2.10024e-07
2.17335e-07
2.23738e-07
2.29381e-07
2.34392e-07
2.3888e-07
2.42934e-07
2.46628e-07
2.50021e-07
2.53164e-07
2.56095e-07
2.58848e-07
2.61449e-07
2.6392e-07
2.66279e-07
2.6854e-07
2.70714e-07
2.72813e-07
2.74845e-07
2.76816e-07
)
;
    }
    inandouthalf22
    {
        type            cyclic;
        value           nonuniform List<scalar> 
100
(
1.688e-10
1.6891e-10
1.69022e-10
1.69136e-10
1.69253e-10
1.69373e-10
1.69496e-10
1.69622e-10
1.6975e-10
1.69882e-10
1.70018e-10
1.70156e-10
1.70299e-10
1.70445e-10
1.70595e-10
1.70749e-10
1.70908e-10
1.71071e-10
1.71239e-10
1.71412e-10
1.71591e-10
1.71775e-10
1.71966e-10
1.72163e-10
1.72366e-10
1.72577e-10
1.72795e-10
1.73022e-10
1.73258e-10
1.73504e-10
1.73759e-10
1.74026e-10
1.74305e-10
1.746e-10
1.74915e-10
1.7525e-10
1.75605e-10
1.75983e-10
1.76402e-10
1.7688e-10
1.77397e-10
1.78008e-10
1.82253e-10
1.8162e-10
1.82399e-10
1.83655e-10
1.47162e-10
-1.21201e-08
-7.94996e-08
-1.90948e-08
1.46176e-08
3.55872e-08
4.88859e-08
5.70423e-08
6.15944e-08
6.35591e-08
6.36193e-08
6.22293e-08
5.9676e-08
5.61188e-08
5.1617e-08
4.61506e-08
3.96369e-08
3.1946e-08
2.29185e-08
1.23877e-08
2.09077e-10
-1.37006e-08
-2.93148e-08
-4.64475e-08
-6.47296e-08
-8.36361e-08
-1.02561e-07
-1.20913e-07
-1.38193e-07
-1.54054e-07
-1.68315e-07
-1.80939e-07
-1.92e-07
-2.01638e-07
-2.10024e-07
-2.17335e-07
-2.23738e-07
-2.29381e-07
-2.34392e-07
-2.3888e-07
-2.42934e-07
-2.46628e-07
-2.50021e-07
-2.53164e-07
-2.56095e-07
-2.58848e-07
-2.61449e-07
-2.6392e-07
-2.66279e-07
-2.6854e-07
-2.70714e-07
-2.72813e-07
-2.74845e-07
-2.76816e-07
)
;
    }
    inandouthalf31
    {
        type            cyclic;
        value           nonuniform List<scalar> 
110
(
2.78732e-07
2.86313e-07
2.94076e-07
3.02028e-07
3.10175e-07
3.18524e-07
3.2708e-07
3.3585e-07
3.4484e-07
3.54056e-07
3.63505e-07
3.73192e-07
3.83123e-07
3.93305e-07
4.03744e-07
4.14445e-07
4.25416e-07
4.36661e-07
4.48186e-07
4.59999e-07
4.72103e-07
4.84506e-07
4.97212e-07
5.10227e-07
5.23555e-07
5.37202e-07
5.51171e-07
5.65468e-07
5.80095e-07
5.95055e-07
6.1035e-07
6.25981e-07
6.4195e-07
6.58256e-07
6.74895e-07
6.91865e-07
7.09161e-07
7.26774e-07
7.44696e-07
7.62913e-07
7.8141e-07
8.00168e-07
8.19165e-07
8.38371e-07
8.57755e-07
8.77278e-07
8.96894e-07
9.16551e-07
9.3619e-07
9.55745e-07
9.75141e-07
9.943e-07
1.01314e-06
1.03159e-06
1.04956e-06
1.06702e-06
1.08392e-06
1.1003e-06
1.11623e-06
1.13184e-06
1.14731e-06
1.16289e-06
1.17883e-06
1.19537e-06
1.2127e-06
1.23097e-06
1.25029e-06
1.27072e-06
1.2923e-06
1.31504e-06
1.33895e-06
1.36405e-06
1.39033e-06
1.41781e-06
1.44652e-06
1.47655e-06
1.50797e-06
1.54337e-06
1.57811e-06
1.6104e-06
1.64309e-06
1.67644e-06
1.71046e-06
1.74518e-06
1.7806e-06
1.81675e-06
1.85362e-06
1.89124e-06
1.92963e-06
1.9688e-06
2.00876e-06
2.04953e-06
2.09113e-06
2.13358e-06
2.17688e-06
2.22107e-06
2.26615e-06
2.31215e-06
2.35908e-06
2.40696e-06
2.45581e-06
2.50566e-06
2.55652e-06
2.60841e-06
2.66135e-06
2.71537e-06
2.77049e-06
2.82672e-06
2.8841e-06
2.94263e-06
)
;
    }
    inandouthalf32
    {
        type            cyclic;
        value           nonuniform List<scalar> 
110
(
-2.78732e-07
-2.86313e-07
-2.94076e-07
-3.02028e-07
-3.10175e-07
-3.18524e-07
-3.2708e-07
-3.3585e-07
-3.4484e-07
-3.54056e-07
-3.63505e-07
-3.73192e-07
-3.83123e-07
-3.93305e-07
-4.03744e-07
-4.14445e-07
-4.25416e-07
-4.36661e-07
-4.48186e-07
-4.59999e-07
-4.72103e-07
-4.84506e-07
-4.97212e-07
-5.10227e-07
-5.23555e-07
-5.37202e-07
-5.51171e-07
-5.65468e-07
-5.80095e-07
-5.95055e-07
-6.1035e-07
-6.25981e-07
-6.4195e-07
-6.58256e-07
-6.74895e-07
-6.91865e-07
-7.09161e-07
-7.26774e-07
-7.44696e-07
-7.62913e-07
-7.8141e-07
-8.00168e-07
-8.19165e-07
-8.38371e-07
-8.57755e-07
-8.77278e-07
-8.96894e-07
-9.16551e-07
-9.3619e-07
-9.55745e-07
-9.75141e-07
-9.943e-07
-1.01314e-06
-1.03159e-06
-1.04956e-06
-1.06702e-06
-1.08392e-06
-1.1003e-06
-1.11623e-06
-1.13184e-06
-1.14731e-06
-1.16289e-06
-1.17883e-06
-1.19537e-06
-1.2127e-06
-1.23097e-06
-1.25029e-06
-1.27072e-06
-1.2923e-06
-1.31504e-06
-1.33895e-06
-1.36405e-06
-1.39033e-06
-1.41781e-06
-1.44652e-06
-1.47655e-06
-1.50797e-06
-1.54337e-06
-1.57811e-06
-1.6104e-06
-1.64309e-06
-1.67644e-06
-1.71046e-06
-1.74518e-06
-1.7806e-06
-1.81675e-06
-1.85362e-06
-1.89124e-06
-1.92963e-06
-1.9688e-06
-2.00876e-06
-2.04953e-06
-2.09113e-06
-2.13358e-06
-2.17688e-06
-2.22107e-06
-2.26615e-06
-2.31215e-06
-2.35908e-06
-2.40696e-06
-2.45581e-06
-2.50566e-06
-2.55652e-06
-2.60841e-06
-2.66135e-06
-2.71537e-06
-2.77049e-06
-2.82672e-06
-2.8841e-06
-2.94263e-06
)
;
    }
    inandouthalf41
    {
        type            cyclic;
        value           nonuniform List<scalar> 
50
(
2.63396e-06
2.63396e-06
2.63396e-06
2.63396e-06
2.63396e-06
2.63396e-06
2.63396e-06
2.63396e-06
2.63396e-06
2.63396e-06
2.63396e-06
2.63396e-06
2.63396e-06
2.63396e-06
2.63396e-06
2.63396e-06
2.63396e-06
2.63396e-06
2.63396e-06
2.63396e-06
2.63396e-06
2.63396e-06
2.63396e-06
2.63396e-06
2.63396e-06
2.63396e-06
2.63396e-06
2.63396e-06
2.63396e-06
2.63396e-06
2.63396e-06
2.63396e-06
2.63396e-06
2.63396e-06
2.63396e-06
2.63396e-06
2.63396e-06
2.63396e-06
2.63396e-06
2.63396e-06
2.63396e-06
2.63396e-06
2.63396e-06
2.63396e-06
2.63396e-06
2.63396e-06
2.63396e-06
2.63396e-06
2.63396e-06
2.63396e-06
)
;
    }
    inandouthalf42
    {
        type            cyclic;
        value           nonuniform List<scalar> 
50
(
-2.63396e-06
-2.63396e-06
-2.63396e-06
-2.63396e-06
-2.63396e-06
-2.63396e-06
-2.63396e-06
-2.63396e-06
-2.63396e-06
-2.63396e-06
-2.63396e-06
-2.63396e-06
-2.63396e-06
-2.63396e-06
-2.63396e-06
-2.63396e-06
-2.63396e-06
-2.63396e-06
-2.63396e-06
-2.63396e-06
-2.63396e-06
-2.63396e-06
-2.63396e-06
-2.63396e-06
-2.63396e-06
-2.63396e-06
-2.63396e-06
-2.63396e-06
-2.63396e-06
-2.63396e-06
-2.63396e-06
-2.63396e-06
-2.63396e-06
-2.63396e-06
-2.63396e-06
-2.63396e-06
-2.63396e-06
-2.63396e-06
-2.63396e-06
-2.63396e-06
-2.63396e-06
-2.63396e-06
-2.63396e-06
-2.63396e-06
-2.63396e-06
-2.63396e-06
-2.63396e-06
-2.63396e-06
-2.63396e-06
-2.63396e-06
)
;
    }
    top
    {
        type            symmetryPlane;
        value           uniform 0;
    }
    walls
    {
        type            calculated;
        value           uniform 0;
    }
    frontAndBackPlanes
    {
        type            empty;
        value           nonuniform 0();
    }
}


// ************************************************************************* //
