/*--------------------------------*- C++ -*----------------------------------*\
| =========                 |                                                 |
| \\      /  F ield         | OpenFOAM: The Open Source CFD Toolbox           |
|  \\    /   O peration     | Version:  2.4.x                                 |
|   \\  /    A nd           | Web:      www.OpenFOAM.org                      |
|    \\/     M anipulation  |                                                 |
\*---------------------------------------------------------------------------*/
FoamFile
{
    version     2.0;
    format      ascii;
    class       volVectorField;
    location    "11.7";
    object      gradPf;
}
// * * * * * * * * * * * * * * * * * * * * * * * * * * * * * * * * * * * * * //

dimensions      [0 1 -2 0 0 0 0];

internalField   nonuniform List<vector> 
360
(
(0 72.5248 0)
(0 81.0394 0)
(0 -0.0826889 0)
(0 -12.6761 0)
(-3.34407e-14 -5.21617 0)
(-3.34414e-14 -2.82617 0)
(-3.34423e-14 -3.62867 0)
(0 -4.12448 0)
(-3.34448e-14 -4.16569 0)
(0 -4.17202 0)
(-3.34473e-14 -4.15814 0)
(0 -4.14581 0)
(-3.34498e-14 -4.15188 0)
(0 -4.15848 0)
(0 -4.17555 0)
(0 -4.19249 0)
(0 -4.19908 0)
(-3.34563e-14 -4.2016 0)
(0 -4.22068 0)
(0 -4.22426 0)
(0 -4.22858 0)
(-3.34618e-14 -4.24812 0)
(0 -4.25273 0)
(0 -4.26285 0)
(0 -4.27347 0)
(-3.34675e-14 -4.27507 0)
(0 -4.28901 0)
(0 -4.30417 0)
(0 -4.30455 0)
(0 -4.31039 0)
(0 -4.33167 0)
(0 -4.3254 0)
(0 -4.34087 0)
(0 -4.35712 0)
(0 -4.35306 0)
(1.67414e-14 -4.36277 0)
(0 -4.36938 0)
(0 -4.39648 0)
(0 -4.37913 0)
(0 -4.39214 0)
(0 -4.42293 0)
(0 -4.3974 0)
(1.67473e-14 -4.41938 0)
(0 -4.43535 0)
(0 -4.42961 0)
(0 -4.45442 0)
(0 -4.44011 0)
(0 -4.43974 0)
(0 -4.48379 0)
(0 -4.47048 0)
(3.35092e-14 -4.46522 0)
(0 -4.48619 0)
(0 -4.49297 0)
(0 -4.48879 0)
(0 -4.50501 0)
(0 -4.50947 0)
(0 -4.50985 0)
(0 -4.52965 0)
(0 -4.50857 0)
(0 -4.53297 0)
(0 -4.54073 0)
(0 -4.53752 0)
(0 -4.55261 0)
(0 -4.54974 0)
(0 -4.55295 0)
(0 -4.55932 0)
(0 -4.57295 0)
(0 -4.57319 0)
(0 -4.56114 0)
(0 -4.57589 0)
(0 -4.60219 0)
(0 -4.5806 0)
(0 -4.58275 0)
(0 -4.60069 0)
(0 -4.60571 0)
(0 -4.60615 0)
(0 -4.59907 0)
(0 -4.60973 0)
(0 -4.61699 0)
(0 -4.61475 0)
(0 -4.61627 0)
(0 -4.62467 0)
(0 -4.62703 0)
(0 -4.62956 0)
(0 -4.63236 0)
(0 -4.63565 0)
(0 -4.63769 0)
(0 -4.63732 0)
(0 -4.63992 0)
(0 -4.64254 0)
(0 -4.64361 0)
(0 -4.64605 0)
(0 -4.6491 0)
(0 -4.65086 0)
(0 -4.65232 0)
(0 -4.65351 0)
(0 -4.6541 0)
(0 -4.65428 0)
(0 -4.65447 0)
(0 -4.65453 0)
(0 -4.65434 0)
(0 -4.65407 0)
(0 -4.65351 0)
(0 -4.65241 0)
(0 -4.65079 0)
(0 -4.64862 0)
(0 -4.64583 0)
(0 -4.64245 0)
(0 -4.63844 0)
(0 -4.63376 0)
(0 -4.62836 0)
(0 -4.62222 0)
(0 -4.6153 0)
(0 -4.60761 0)
(0 -4.59915 0)
(0 -4.58993 0)
(0 -4.57999 0)
(0 -4.56937 0)
(0 -4.5581 0)
(0 -4.54621 0)
(0 -4.53359 0)
(0 -4.52004 0)
(0 -4.50521 0)
(0 -4.48875 0)
(0 -4.4706 0)
(0 -4.45131 0)
(0 -4.43196 0)
(0 -4.41337 0)
(0 -4.39468 0)
(0 -4.37265 0)
(0 -4.34514 0)
(0 -4.31953 0)
(0 -4.3154 0)
(0 -4.34335 0)
(0 -4.37759 0)
(0 -4.38213 0)
(0 -4.37955 0)
(0 -4.46012 0)
(0 -4.6608 0)
(0 -4.76291 0)
(0 -4.90503 0)
(0 -14.4404 0)
(0 -10.6637 0)
(0 -0.270125 0)
(0 -3.76267 0)
(0 -3.92523 0)
(0 -9.61914 0)
(0 -9.67845 0)
(0 0 0)
(0 0 0)
(0 0 0)
(0 0 0)
(0 0 0)
(0 0 0)
(0 0 0)
(0 0 0)
(0 0 0)
(0 0 0)
(0 0 0)
(0 0 0)
(0 0 0)
(0 0 0)
(0 0 0)
(0 0 0)
(0 0 0)
(0 0 0)
(0 0 0)
(0 0 0)
(0 0 0)
(0 0 0)
(0 0 0)
(0 0 0)
(0 0 0)
(0 0 0)
(0 0 0)
(0 0 0)
(0 0 0)
(0 0 0)
(0 0 0)
(0 0 0)
(0 0 0)
(0 0 0)
(0 0 0)
(0 0 0)
(0 0 0)
(0 0 0)
(0 0 0)
(0 0 0)
(0 0 0)
(0 0 0)
(0 0 0)
(0 0 0)
(0 0 0)
(0 0 0)
(0 0 0)
(0 0 0)
(0 0 0)
(0 0 0)
(0 0 0)
(0 0 0)
(0 0 0)
(0 0 0)
(0 0 0)
(0 0 0)
(0 0 0)
(0 0 0)
(0 0 0)
(0 0 0)
(0 0 0)
(0 0 0)
(0 0 0)
(0 0 0)
(0 0 0)
(0 0 0)
(0 0 0)
(0 0 0)
(0 0 0)
(0 0 0)
(0 0 0)
(0 0 0)
(0 0 0)
(0 0 0)
(0 0 0)
(0 0 0)
(0 0 0)
(0 0 0)
(0 0 0)
(0 0 0)
(0 0 0)
(0 0 0)
(0 0 0)
(0 0 0)
(0 0 0)
(0 0 0)
(0 0 0)
(0 0 0)
(0 0 0)
(0 0 0)
(0 0 0)
(0 0 0)
(0 0 0)
(0 0 0)
(0 0 0)
(0 0 0)
(0 0 0)
(0 0 0)
(0 0 0)
(0 0 0)
(0 0 0)
(0 0 0)
(0 0 0)
(0 0 0)
(0 0 0)
(0 0 0)
(0 0 0)
(0 0 0)
(0 0 0)
(0 0 0)
(0 0 0)
(0 0 0)
(0 0 0)
(0 0 0)
(0 0 0)
(0 0 0)
(0 0 0)
(0 0 0)
(0 0 0)
(0 0 0)
(0 0 0)
(0 0 0)
(0 0 0)
(0 0 0)
(0 0 0)
(0 0 0)
(0 0 0)
(0 0 0)
(0 0 0)
(0 0 0)
(0 0 0)
(0 0 0)
(0 0 0)
(0 0 0)
(0 0 0)
(0 0 0)
(0 0 0)
(0 0 0)
(0 0 0)
(0 0 0)
(0 0 0)
(0 0 0)
(0 0 0)
(0 0 0)
(0 0 0)
(0 0 0)
(0 0 0)
(0 0 0)
(0 0 0)
(0 0 0)
(0 0 0)
(0 0 0)
(0 0 0)
(0 0 0)
(0 0 0)
(0 0 0)
(0 0 0)
(0 0 0)
(0 0 0)
(0 0 0)
(0 0 0)
(0 0 0)
(0 0 0)
(0 0 0)
(0 0 0)
(0 0 0)
(0 0 0)
(0 0 0)
(0 0 0)
(0 0 0)
(0 0 0)
(0 0 0)
(0 0 0)
(0 0 0)
(0 0 0)
(0 0 0)
(0 0 0)
(0 0 0)
(0 0 0)
(0 0 0)
(0 0 0)
(0 0 0)
(0 0 0)
(0 0 0)
(0 0 0)
(0 0 0)
(0 0 0)
(0 0 0)
(0 0 0)
(0 0 0)
(0 0 0)
(0 0 0)
(0 0 0)
(0 0 0)
(0 0 0)
(0 0 0)
(0 0 0)
(0 0 0)
(0 0 0)
(0 0 0)
(0 0 0)
(0 0 0)
(0 0 0)
(0 0 0)
(0 0 0)
(0 0 0)
(0 0 0)
(0 0 0)
(0 0 0)
(0 0 0)
(0 0 0)
(0 0 0)
)
;

boundaryField
{
    inandouthalf11
    {
        type            cyclic;
    }
    inandouthalf12
    {
        type            cyclic;
    }
    inandouthalf21
    {
        type            cyclic;
    }
    inandouthalf22
    {
        type            cyclic;
    }
    inandouthalf31
    {
        type            cyclic;
    }
    inandouthalf32
    {
        type            cyclic;
    }
    inandouthalf41
    {
        type            cyclic;
    }
    inandouthalf42
    {
        type            cyclic;
    }
    top
    {
        type            symmetryPlane;
    }
    walls
    {
        type            calculated;
        value           uniform (0 0 0);
    }
    frontAndBackPlanes
    {
        type            empty;
    }
}


// ************************************************************************* //
