/*--------------------------------*- C++ -*----------------------------------*\
| =========                 |                                                 |
| \\      /  F ield         | OpenFOAM: The Open Source CFD Toolbox           |
|  \\    /   O peration     | Version:  2.4.x                                 |
|   \\  /    A nd           | Web:      www.OpenFOAM.org                      |
|    \\/     M anipulation  |                                                 |
\*---------------------------------------------------------------------------*/
FoamFile
{
    version     2.0;
    format      ascii;
    class       surfaceScalarField;
    location    "11.7";
    object      phia;
}
// * * * * * * * * * * * * * * * * * * * * * * * * * * * * * * * * * * * * * //

dimensions      [0 3 -1 0 0 0 0];

internalField   nonuniform List<scalar> 
359
(
-9.23663e-15
-2.31088e-14
-3.62503e-14
-4.92589e-14
-6.29706e-14
-7.7305e-14
-9.20483e-14
-1.07136e-13
-1.22562e-13
-1.38322e-13
-1.54389e-13
-1.70714e-13
-1.87244e-13
-2.03923e-13
-2.20698e-13
-2.37519e-13
-2.54334e-13
-2.71096e-13
-2.87758e-13
-3.04284e-13
-3.20632e-13
-3.36776e-13
-3.52688e-13
-3.68349e-13
-3.83743e-13
-3.98856e-13
-4.13682e-13
-4.28217e-13
-4.42462e-13
-4.56416e-13
-4.70086e-13
-4.83481e-13
-4.96603e-13
-5.09471e-13
-5.22089e-13
-5.34473e-13
-5.46632e-13
-5.58581e-13
-5.70336e-13
-5.81903e-13
-5.93301e-13
-6.04541e-13
-6.15631e-13
-6.2659e-13
-6.37425e-13
-6.48147e-13
-6.58769e-13
-6.69294e-13
-6.79736e-13
-6.90106e-13
-7.00407e-13
-7.10649e-13
-7.20837e-13
-7.3098e-13
-7.41079e-13
-7.51146e-13
-7.61178e-13
-7.71184e-13
-7.81165e-13
-7.91121e-13
-8.01062e-13
-8.10984e-13
-8.20895e-13
-8.30793e-13
-8.4068e-13
-8.50554e-13
-8.60418e-13
-8.70271e-13
-8.80112e-13
-8.89937e-13
-8.99752e-13
-9.09556e-13
-9.19341e-13
-9.29114e-13
-9.38869e-13
-9.48608e-13
-9.58326e-13
-9.68019e-13
-9.77686e-13
-9.87324e-13
-9.9693e-13
-1.0065e-12
-1.01604e-12
-1.02554e-12
-1.035e-12
-1.04442e-12
-1.05379e-12
-1.06312e-12
-1.07239e-12
-1.0816e-12
-1.09076e-12
-1.09985e-12
-1.10888e-12
-1.11784e-12
-1.12673e-12
-1.13554e-12
-1.14429e-12
-1.15296e-12
-1.16155e-12
-1.17005e-12
-1.17847e-12
-1.18681e-12
-1.19506e-12
-1.20323e-12
-1.21131e-12
-1.21931e-12
-1.22722e-12
-1.23505e-12
-1.24281e-12
-1.25048e-12
-1.25809e-12
-1.26562e-12
-1.27308e-12
-1.28047e-12
-1.2878e-12
-1.29505e-12
-1.30222e-12
-1.30931e-12
-1.31631e-12
-1.3232e-12
-1.32998e-12
-1.33664e-12
-1.34317e-12
-1.34958e-12
-1.35587e-12
-1.36207e-12
-1.3682e-12
-1.37431e-12
-1.38046e-12
-1.38672e-12
-1.39312e-12
-1.3997e-12
-1.40642e-12
-1.41315e-12
-1.41962e-12
-1.42537e-12
-1.42991e-12
-1.43294e-12
-1.43458e-12
-1.43527e-12
-1.43555e-12
-1.43551e-12
-1.43631e-12
-1.43659e-12
-1.43674e-12
-1.43771e-12
-1.2338e-12
2.22178e-09
4.60512e-09
6.01612e-09
7.06719e-09
8.04888e-09
9.03402e-09
1.00513e-08
1.11096e-08
1.22073e-08
1.33359e-08
1.44812e-08
1.5625e-08
1.67443e-08
1.78112e-08
1.87922e-08
1.96461e-08
2.03229e-08
2.07599e-08
2.08733e-08
2.05409e-08
1.95955e-08
1.78812e-08
1.53789e-08
1.22648e-08
8.81118e-09
5.25851e-09
1.77034e-09
-1.55702e-09
-4.67442e-09
-7.56237e-09
-1.02188e-08
-1.26508e-08
-1.48706e-08
-1.68921e-08
-1.87298e-08
-2.03976e-08
-2.1909e-08
-2.32765e-08
-2.45113e-08
-2.56242e-08
-2.66247e-08
-2.75219e-08
-2.83237e-08
-2.90379e-08
-2.96713e-08
-3.02305e-08
-3.07214e-08
-3.11496e-08
-3.15203e-08
-3.18384e-08
-3.21082e-08
-3.2334e-08
-3.25198e-08
-3.26692e-08
-3.27877e-08
-3.2877e-08
-3.29387e-08
-3.29745e-08
-3.29863e-08
-3.29758e-08
-3.29445e-08
-3.28938e-08
-3.28251e-08
-3.2739e-08
-3.2636e-08
-3.25161e-08
-3.23786e-08
-3.22225e-08
-3.20462e-08
-3.18475e-08
-3.16244e-08
-3.13743e-08
-3.10953e-08
-3.07856e-08
-3.04442e-08
-3.00709e-08
-2.96659e-08
-2.92295e-08
-2.87625e-08
-2.82651e-08
-2.77374e-08
-2.71796e-08
-2.65933e-08
-2.59849e-08
-2.5371e-08
-2.47934e-08
-2.43371e-08
-2.40752e-08
-2.38856e-08
-2.28995e-08
-2.18734e-08
-2.10572e-08
-2.00935e-08
-1.8999e-08
-1.77912e-08
-1.649e-08
-1.51169e-08
-1.36944e-08
-1.22498e-08
-1.08368e-08
-9.34697e-09
-8.13309e-09
-6.38687e-09
-5.33447e-09
-3.48844e-09
-7.4028e-08
-1.49332e-07
-1.58596e-07
-1.58483e-07
-1.58467e-07
-1.58443e-07
-1.58419e-07
-1.58393e-07
-1.58368e-07
-1.58346e-07
-1.58326e-07
-1.58308e-07
-1.58292e-07
-1.5828e-07
-1.5827e-07
-1.58263e-07
-1.58257e-07
-1.58253e-07
-1.5825e-07
-1.58247e-07
-1.58244e-07
-1.58241e-07
-1.58236e-07
-1.58228e-07
-1.58211e-07
-1.58184e-07
-1.58178e-07
-1.58179e-07
-1.58179e-07
-1.58179e-07
-1.58179e-07
-1.58179e-07
-1.58179e-07
-1.58179e-07
-1.58179e-07
-1.58179e-07
-1.58179e-07
-1.58179e-07
-1.58179e-07
-1.58179e-07
-1.58179e-07
-1.58179e-07
-1.58179e-07
-1.58179e-07
-1.58179e-07
-1.58179e-07
-1.58179e-07
-1.58179e-07
-1.58179e-07
-1.58179e-07
-1.58179e-07
-1.58179e-07
-1.58179e-07
-1.58179e-07
-1.58179e-07
-1.58179e-07
-1.58179e-07
-1.58179e-07
-1.58179e-07
-1.58179e-07
-1.58179e-07
-1.58179e-07
-1.58179e-07
-1.58179e-07
-1.58179e-07
-1.58179e-07
-1.58179e-07
-1.58179e-07
-1.58179e-07
-1.58179e-07
-1.58179e-07
-1.58179e-07
-1.58179e-07
-1.58179e-07
-1.58179e-07
-1.58179e-07
-1.58179e-07
-1.58179e-07
-1.58179e-07
-1.58179e-07
-1.58179e-07
-1.58179e-07
-1.58179e-07
-1.58179e-07
-1.58179e-07
-1.58179e-07
-1.58179e-07
-1.58179e-07
-1.58179e-07
-1.58179e-07
-1.58179e-07
-1.58179e-07
-1.58179e-07
-1.58179e-07
-1.58179e-07
-1.58179e-07
-1.58179e-07
-1.58179e-07
-1.58179e-07
-1.58179e-07
-1.58179e-07
-1.58179e-07
-1.58179e-07
-1.58178e-07
-1.58161e-07
-1.57454e-07
-1.32573e-07
)
;

boundaryField
{
    inandouthalf11
    {
        type            cyclic;
        value           nonuniform List<scalar> 
100
(
2.03789e-38
1.21878e-15
2.55916e-15
3.79678e-15
5.09314e-15
6.47817e-15
7.91911e-15
9.40023e-15
1.09206e-14
1.24807e-14
1.40787e-14
1.5711e-14
1.73726e-14
1.90579e-14
2.07616e-14
2.24783e-14
2.42029e-14
2.59302e-14
2.76553e-14
2.93739e-14
3.10817e-14
3.27751e-14
3.4451e-14
3.6107e-14
3.77408e-14
3.93509e-14
4.09358e-14
4.24949e-14
4.40277e-14
4.55342e-14
4.70144e-14
4.84689e-14
4.98982e-14
5.13032e-14
5.2685e-14
5.40444e-14
5.53827e-14
5.67012e-14
5.80011e-14
5.92838e-14
6.05504e-14
6.18024e-14
6.30408e-14
6.4267e-14
6.54823e-14
6.66878e-14
6.78847e-14
6.90736e-14
7.02557e-14
7.14323e-14
7.2604e-14
7.37717e-14
7.4936e-14
7.60978e-14
7.72578e-14
7.84164e-14
7.95743e-14
8.0732e-14
8.18898e-14
8.30479e-14
8.42069e-14
8.53671e-14
8.65288e-14
8.76923e-14
8.88576e-14
9.00248e-14
9.11941e-14
9.23656e-14
9.3539e-14
9.47143e-14
9.58915e-14
9.70709e-14
9.82522e-14
9.94353e-14
1.0062e-13
1.01807e-13
1.02995e-13
1.04184e-13
1.05374e-13
1.06565e-13
1.07756e-13
1.08947e-13
1.10138e-13
1.11329e-13
1.12519e-13
1.13709e-13
1.14898e-13
1.16086e-13
1.17272e-13
1.18455e-13
1.19637e-13
1.20815e-13
1.2199e-13
1.23162e-13
1.24331e-13
1.25496e-13
1.26657e-13
1.27814e-13
1.28967e-13
1.30116e-13
)
;
    }
    inandouthalf12
    {
        type            cyclic;
        value           nonuniform List<scalar> 
100
(
-2.03789e-38
-1.21878e-15
-2.55916e-15
-3.79678e-15
-5.09314e-15
-6.47817e-15
-7.91911e-15
-9.40023e-15
-1.09206e-14
-1.24807e-14
-1.40787e-14
-1.5711e-14
-1.73726e-14
-1.90579e-14
-2.07616e-14
-2.24783e-14
-2.42029e-14
-2.59302e-14
-2.76553e-14
-2.93739e-14
-3.10817e-14
-3.27751e-14
-3.4451e-14
-3.6107e-14
-3.77408e-14
-3.93509e-14
-4.09358e-14
-4.24949e-14
-4.40277e-14
-4.55342e-14
-4.70144e-14
-4.84689e-14
-4.98982e-14
-5.13032e-14
-5.2685e-14
-5.40444e-14
-5.53827e-14
-5.67012e-14
-5.80011e-14
-5.92838e-14
-6.05504e-14
-6.18024e-14
-6.30408e-14
-6.4267e-14
-6.54823e-14
-6.66878e-14
-6.78847e-14
-6.90736e-14
-7.02557e-14
-7.14323e-14
-7.2604e-14
-7.37717e-14
-7.4936e-14
-7.60978e-14
-7.72578e-14
-7.84164e-14
-7.95743e-14
-8.0732e-14
-8.18898e-14
-8.30479e-14
-8.42069e-14
-8.53671e-14
-8.65288e-14
-8.76923e-14
-8.88576e-14
-9.00248e-14
-9.11941e-14
-9.23656e-14
-9.3539e-14
-9.47143e-14
-9.58915e-14
-9.70709e-14
-9.82522e-14
-9.94353e-14
-1.0062e-13
-1.01807e-13
-1.02995e-13
-1.04184e-13
-1.05374e-13
-1.06565e-13
-1.07756e-13
-1.08947e-13
-1.10138e-13
-1.11329e-13
-1.12519e-13
-1.13709e-13
-1.14898e-13
-1.16086e-13
-1.17272e-13
-1.18455e-13
-1.19637e-13
-1.20815e-13
-1.2199e-13
-1.23162e-13
-1.24331e-13
-1.25496e-13
-1.26657e-13
-1.27814e-13
-1.28967e-13
-1.30116e-13
)
;
    }
    inandouthalf21
    {
        type            cyclic;
        value           nonuniform List<scalar> 
100
(
1.31259e-13
1.32398e-13
1.33532e-13
1.34662e-13
1.35787e-13
1.36908e-13
1.38025e-13
1.39139e-13
1.40251e-13
1.4136e-13
1.42468e-13
1.43576e-13
1.44683e-13
1.45792e-13
1.46902e-13
1.48014e-13
1.49128e-13
1.50243e-13
1.5136e-13
1.52477e-13
1.53594e-13
1.54711e-13
1.55826e-13
1.5694e-13
1.58056e-13
1.59177e-13
1.6031e-13
1.61464e-13
1.62653e-13
1.63892e-13
1.652e-13
1.66591e-13
1.68076e-13
1.69648e-13
1.71271e-13
1.72855e-13
1.7426e-13
1.75337e-13
1.76016e-13
1.76353e-13
1.76491e-13
1.76563e-13
1.76644e-13
1.76814e-13
1.7697e-13
1.77194e-13
1.78237e-13
3.5959e-13
9.76294e-08
2.07105e-07
2.95033e-07
3.68115e-07
4.30113e-07
4.83501e-07
5.29986e-07
5.70808e-07
6.06902e-07
6.38993e-07
6.67648e-07
6.93308e-07
7.1632e-07
7.36956e-07
7.55432e-07
7.71922e-07
7.86578e-07
7.99535e-07
8.10926e-07
8.20886e-07
8.2956e-07
8.37103e-07
8.43669e-07
8.49401e-07
8.54423e-07
8.58832e-07
8.62712e-07
8.66127e-07
8.69134e-07
8.7178e-07
8.74105e-07
8.76144e-07
8.77928e-07
8.79483e-07
8.80833e-07
8.81999e-07
8.82999e-07
8.83849e-07
8.84566e-07
8.8516e-07
8.85646e-07
8.86034e-07
8.86332e-07
8.86552e-07
8.867e-07
8.86784e-07
8.86811e-07
8.86788e-07
8.8672e-07
8.86613e-07
8.86472e-07
8.86301e-07
)
;
    }
    inandouthalf22
    {
        type            cyclic;
        value           nonuniform List<scalar> 
100
(
-1.31259e-13
-1.32398e-13
-1.33532e-13
-1.34662e-13
-1.35787e-13
-1.36908e-13
-1.38025e-13
-1.39139e-13
-1.40251e-13
-1.4136e-13
-1.42468e-13
-1.43576e-13
-1.44683e-13
-1.45792e-13
-1.46902e-13
-1.48014e-13
-1.49128e-13
-1.50243e-13
-1.5136e-13
-1.52477e-13
-1.53594e-13
-1.54711e-13
-1.55826e-13
-1.5694e-13
-1.58056e-13
-1.59177e-13
-1.6031e-13
-1.61464e-13
-1.62653e-13
-1.63892e-13
-1.652e-13
-1.66591e-13
-1.68076e-13
-1.69648e-13
-1.71271e-13
-1.72855e-13
-1.7426e-13
-1.75337e-13
-1.76016e-13
-1.76353e-13
-1.76491e-13
-1.76563e-13
-1.76644e-13
-1.76814e-13
-1.7697e-13
-1.77194e-13
-1.78237e-13
-3.5959e-13
-9.76294e-08
-2.07105e-07
-2.95033e-07
-3.68115e-07
-4.30113e-07
-4.83501e-07
-5.29986e-07
-5.70808e-07
-6.06902e-07
-6.38993e-07
-6.67648e-07
-6.93308e-07
-7.1632e-07
-7.36956e-07
-7.55432e-07
-7.71922e-07
-7.86578e-07
-7.99535e-07
-8.10926e-07
-8.20886e-07
-8.2956e-07
-8.37103e-07
-8.43669e-07
-8.49401e-07
-8.54423e-07
-8.58832e-07
-8.62712e-07
-8.66127e-07
-8.69134e-07
-8.7178e-07
-8.74105e-07
-8.76144e-07
-8.77928e-07
-8.79483e-07
-8.80833e-07
-8.81999e-07
-8.82999e-07
-8.83849e-07
-8.84566e-07
-8.8516e-07
-8.85646e-07
-8.86034e-07
-8.86332e-07
-8.86552e-07
-8.867e-07
-8.86784e-07
-8.86811e-07
-8.86788e-07
-8.8672e-07
-8.86613e-07
-8.86472e-07
-8.86301e-07
)
;
    }
    inandouthalf31
    {
        type            cyclic;
        value           nonuniform List<scalar> 
110
(
8.86109e-07
9.03871e-07
9.21965e-07
9.40397e-07
9.59177e-07
9.7831e-07
9.97806e-07
1.01767e-06
1.03792e-06
1.05856e-06
1.07959e-06
1.10103e-06
1.12289e-06
1.14518e-06
1.1679e-06
1.19107e-06
1.2147e-06
1.23879e-06
1.26337e-06
1.28843e-06
1.314e-06
1.34008e-06
1.36668e-06
1.39382e-06
1.4215e-06
1.44974e-06
1.47856e-06
1.50796e-06
1.53797e-06
1.56859e-06
1.59984e-06
1.63175e-06
1.66432e-06
1.69757e-06
1.73152e-06
1.76623e-06
1.80154e-06
1.7533e-06
1.7829e-06
1.81276e-06
1.84306e-06
1.87381e-06
1.90503e-06
1.93675e-06
1.96899e-06
2.00178e-06
2.03521e-06
2.06914e-06
2.10401e-06
2.13929e-06
2.1759e-06
2.21289e-06
2.25085e-06
2.29127e-06
2.33233e-06
2.37343e-06
2.4164e-06
2.46076e-06
2.50667e-06
2.55421e-06
2.60346e-06
2.65446e-06
2.70734e-06
2.76201e-06
2.8185e-06
2.87684e-06
2.93698e-06
2.99889e-06
3.06254e-06
3.12789e-06
3.19488e-06
3.26348e-06
3.3336e-06
3.40517e-06
3.4781e-06
3.55226e-06
3.62749e-06
3.70303e-06
3.7786e-06
3.85532e-06
3.93357e-06
4.01341e-06
4.09487e-06
4.17799e-06
4.26279e-06
4.34931e-06
4.43759e-06
4.52766e-06
4.61956e-06
4.71333e-06
4.80899e-06
4.9066e-06
5.00619e-06
5.10781e-06
5.21148e-06
5.31726e-06
5.42519e-06
5.5353e-06
5.64766e-06
5.76229e-06
5.87925e-06
5.99858e-06
6.12034e-06
6.24456e-06
6.37131e-06
6.50063e-06
6.63258e-06
6.7672e-06
6.90456e-06
7.0447e-06
)
;
    }
    inandouthalf32
    {
        type            cyclic;
        value           nonuniform List<scalar> 
110
(
-8.86109e-07
-9.03871e-07
-9.21965e-07
-9.40397e-07
-9.59177e-07
-9.7831e-07
-9.97806e-07
-1.01767e-06
-1.03792e-06
-1.05856e-06
-1.07959e-06
-1.10103e-06
-1.12289e-06
-1.14518e-06
-1.1679e-06
-1.19107e-06
-1.2147e-06
-1.23879e-06
-1.26337e-06
-1.28843e-06
-1.314e-06
-1.34008e-06
-1.36668e-06
-1.39382e-06
-1.4215e-06
-1.44974e-06
-1.47856e-06
-1.50796e-06
-1.53797e-06
-1.56859e-06
-1.59984e-06
-1.63175e-06
-1.66432e-06
-1.69757e-06
-1.73152e-06
-1.76623e-06
-1.80154e-06
-1.7533e-06
-1.7829e-06
-1.81276e-06
-1.84306e-06
-1.87381e-06
-1.90503e-06
-1.93675e-06
-1.96899e-06
-2.00178e-06
-2.03521e-06
-2.06914e-06
-2.10401e-06
-2.13929e-06
-2.1759e-06
-2.21289e-06
-2.25085e-06
-2.29127e-06
-2.33233e-06
-2.37343e-06
-2.4164e-06
-2.46076e-06
-2.50667e-06
-2.55421e-06
-2.60346e-06
-2.65446e-06
-2.70734e-06
-2.76201e-06
-2.8185e-06
-2.87684e-06
-2.93698e-06
-2.99889e-06
-3.06254e-06
-3.12789e-06
-3.19488e-06
-3.26348e-06
-3.3336e-06
-3.40517e-06
-3.4781e-06
-3.55226e-06
-3.62749e-06
-3.70303e-06
-3.7786e-06
-3.85532e-06
-3.93357e-06
-4.01341e-06
-4.09487e-06
-4.17799e-06
-4.26279e-06
-4.34931e-06
-4.43759e-06
-4.52766e-06
-4.61956e-06
-4.71333e-06
-4.80899e-06
-4.9066e-06
-5.00619e-06
-5.10781e-06
-5.21148e-06
-5.31726e-06
-5.42519e-06
-5.5353e-06
-5.64766e-06
-5.76229e-06
-5.87925e-06
-5.99858e-06
-6.12034e-06
-6.24456e-06
-6.37131e-06
-6.50063e-06
-6.63258e-06
-6.7672e-06
-6.90456e-06
-7.0447e-06
)
;
    }
    inandouthalf41
    {
        type            cyclic;
        value           nonuniform List<scalar> 
50
(
6.30572e-06
6.30572e-06
6.30572e-06
6.30572e-06
6.30572e-06
6.30572e-06
6.30572e-06
6.30572e-06
6.30572e-06
6.30572e-06
6.30572e-06
6.30572e-06
6.30572e-06
6.30572e-06
6.30572e-06
6.30572e-06
6.30572e-06
6.30572e-06
6.30572e-06
6.30572e-06
6.30572e-06
6.30572e-06
6.30572e-06
6.30572e-06
6.30572e-06
6.30572e-06
6.30572e-06
6.30572e-06
6.30572e-06
6.30572e-06
6.30572e-06
6.30572e-06
6.30572e-06
6.30572e-06
6.30572e-06
6.30572e-06
6.30572e-06
6.30572e-06
6.30572e-06
6.30572e-06
6.30572e-06
6.30572e-06
6.30572e-06
6.30572e-06
6.30572e-06
6.30572e-06
6.30572e-06
6.30572e-06
6.30564e-06
6.30387e-06
)
;
    }
    inandouthalf42
    {
        type            cyclic;
        value           nonuniform List<scalar> 
50
(
-6.30572e-06
-6.30572e-06
-6.30572e-06
-6.30572e-06
-6.30572e-06
-6.30572e-06
-6.30572e-06
-6.30572e-06
-6.30572e-06
-6.30572e-06
-6.30572e-06
-6.30572e-06
-6.30572e-06
-6.30572e-06
-6.30572e-06
-6.30572e-06
-6.30572e-06
-6.30572e-06
-6.30572e-06
-6.30572e-06
-6.30572e-06
-6.30572e-06
-6.30572e-06
-6.30572e-06
-6.30572e-06
-6.30572e-06
-6.30572e-06
-6.30572e-06
-6.30572e-06
-6.30572e-06
-6.30572e-06
-6.30572e-06
-6.30572e-06
-6.30572e-06
-6.30572e-06
-6.30572e-06
-6.30572e-06
-6.30572e-06
-6.30572e-06
-6.30572e-06
-6.30572e-06
-6.30572e-06
-6.30572e-06
-6.30572e-06
-6.30572e-06
-6.30572e-06
-6.30572e-06
-6.30572e-06
-6.30564e-06
-6.30387e-06
)
;
    }
    top
    {
        type            symmetryPlane;
        value           uniform 0;
    }
    walls
    {
        type            fixedValue;
        value           uniform 0;
    }
    frontAndBackPlanes
    {
        type            empty;
        value           nonuniform 0();
    }
}


// ************************************************************************* //
