/*--------------------------------*- C++ -*----------------------------------*\
| =========                 |                                                 |
| \\      /  F ield         | OpenFOAM: The Open Source CFD Toolbox           |
|  \\    /   O peration     | Version:  2.4.x                                 |
|   \\  /    A nd           | Web:      www.OpenFOAM.org                      |
|    \\/     M anipulation  |                                                 |
\*---------------------------------------------------------------------------*/
FoamFile
{
    version     2.0;
    format      ascii;
    class       surfaceScalarField;
    location    "11.7";
    object      phia_0;
}
// * * * * * * * * * * * * * * * * * * * * * * * * * * * * * * * * * * * * * //

dimensions      [0 3 -1 0 0 0 0];

internalField   nonuniform List<scalar> 
359
(
-9.23879e-15
-2.31142e-14
-3.62588e-14
-4.92704e-14
-6.29854e-14
-7.73231e-14
-9.20698e-14
-1.07161e-13
-1.2259e-13
-1.38353e-13
-1.54424e-13
-1.70751e-13
-1.87284e-13
-2.03966e-13
-2.20744e-13
-2.37567e-13
-2.54384e-13
-2.71148e-13
-2.87812e-13
-3.0434e-13
-3.20689e-13
-3.36834e-13
-3.52748e-13
-3.6841e-13
-3.83804e-13
-3.98918e-13
-4.13744e-13
-4.2828e-13
-4.42525e-13
-4.56481e-13
-4.70151e-13
-4.83546e-13
-4.96669e-13
-5.09537e-13
-5.22155e-13
-5.34539e-13
-5.46699e-13
-5.58649e-13
-5.70405e-13
-5.81972e-13
-5.93371e-13
-6.04612e-13
-6.15703e-13
-6.26662e-13
-6.37497e-13
-6.48221e-13
-6.58844e-13
-6.6937e-13
-6.79813e-13
-6.90185e-13
-7.00486e-13
-7.1073e-13
-7.20919e-13
-7.31064e-13
-7.41164e-13
-7.51232e-13
-7.61266e-13
-7.71274e-13
-7.81257e-13
-7.91214e-13
-8.01157e-13
-8.11081e-13
-8.20994e-13
-8.30894e-13
-8.40782e-13
-8.50658e-13
-8.60524e-13
-8.70379e-13
-8.80222e-13
-8.90049e-13
-8.99866e-13
-9.09672e-13
-9.1946e-13
-9.29234e-13
-9.38991e-13
-9.48733e-13
-9.58453e-13
-9.68148e-13
-9.77817e-13
-9.87457e-13
-9.97065e-13
-1.00664e-12
-1.01618e-12
-1.02568e-12
-1.03514e-12
-1.04457e-12
-1.05394e-12
-1.06327e-12
-1.07254e-12
-1.08176e-12
-1.09092e-12
-1.10001e-12
-1.10904e-12
-1.118e-12
-1.12689e-12
-1.13571e-12
-1.14446e-12
-1.15313e-12
-1.16172e-12
-1.17023e-12
-1.17865e-12
-1.18699e-12
-1.19525e-12
-1.20341e-12
-1.2115e-12
-1.2195e-12
-1.22741e-12
-1.23525e-12
-1.243e-12
-1.25068e-12
-1.25828e-12
-1.26582e-12
-1.27328e-12
-1.28068e-12
-1.288e-12
-1.29525e-12
-1.30243e-12
-1.30952e-12
-1.31652e-12
-1.32341e-12
-1.3302e-12
-1.33686e-12
-1.34339e-12
-1.3498e-12
-1.3561e-12
-1.36229e-12
-1.36842e-12
-1.37454e-12
-1.38069e-12
-1.38695e-12
-1.39336e-12
-1.39994e-12
-1.40666e-12
-1.41339e-12
-1.41986e-12
-1.42562e-12
-1.43016e-12
-1.43319e-12
-1.43483e-12
-1.43553e-12
-1.4358e-12
-1.43577e-12
-1.43657e-12
-1.43684e-12
-1.43699e-12
-1.43796e-12
-1.2359e-12
2.22235e-09
4.6069e-09
6.0186e-09
7.07005e-09
8.05204e-09
9.03746e-09
1.0055e-08
1.11135e-08
1.22114e-08
1.33401e-08
1.44855e-08
1.56293e-08
1.67484e-08
1.78151e-08
1.87956e-08
1.96489e-08
2.03247e-08
2.07605e-08
2.08721e-08
2.05373e-08
1.95887e-08
1.78704e-08
1.53643e-08
1.22473e-08
8.79177e-09
5.2381e-09
1.74954e-09
-1.57784e-09
-4.69503e-09
-7.58265e-09
-1.02386e-08
-1.26703e-08
-1.48897e-08
-1.69107e-08
-1.8748e-08
-2.04154e-08
-2.19265e-08
-2.32935e-08
-2.45281e-08
-2.56406e-08
-2.66408e-08
-2.75377e-08
-2.83392e-08
-2.90531e-08
-2.96863e-08
-3.02452e-08
-3.07358e-08
-3.11637e-08
-3.15342e-08
-3.18519e-08
-3.21215e-08
-3.23471e-08
-3.25327e-08
-3.26818e-08
-3.28001e-08
-3.28891e-08
-3.29505e-08
-3.29862e-08
-3.29977e-08
-3.29869e-08
-3.29554e-08
-3.29045e-08
-3.28354e-08
-3.27491e-08
-3.26458e-08
-3.25256e-08
-3.23879e-08
-3.22315e-08
-3.20549e-08
-3.1856e-08
-3.16326e-08
-3.13822e-08
-3.11029e-08
-3.07929e-08
-3.04513e-08
-3.00777e-08
-2.96724e-08
-2.92358e-08
-2.87685e-08
-2.82709e-08
-2.7743e-08
-2.71849e-08
-2.65985e-08
-2.59898e-08
-2.53758e-08
-2.47979e-08
-2.43413e-08
-2.40791e-08
-2.38895e-08
-2.29024e-08
-2.18754e-08
-2.10585e-08
-2.00941e-08
-1.89989e-08
-1.77904e-08
-1.64886e-08
-1.51151e-08
-1.36922e-08
-1.22473e-08
-1.08341e-08
-9.34393e-09
-8.13025e-09
-6.38344e-09
-5.33208e-09
-3.48261e-09
-7.40177e-08
-1.49331e-07
-1.58596e-07
-1.58482e-07
-1.58467e-07
-1.58443e-07
-1.58418e-07
-1.58393e-07
-1.58368e-07
-1.58345e-07
-1.58326e-07
-1.58308e-07
-1.58292e-07
-1.5828e-07
-1.5827e-07
-1.58263e-07
-1.58257e-07
-1.58253e-07
-1.5825e-07
-1.58247e-07
-1.58244e-07
-1.58241e-07
-1.58236e-07
-1.58228e-07
-1.58211e-07
-1.58184e-07
-1.58178e-07
-1.58179e-07
-1.58179e-07
-1.58179e-07
-1.58179e-07
-1.58179e-07
-1.58179e-07
-1.58179e-07
-1.58179e-07
-1.58179e-07
-1.58179e-07
-1.58179e-07
-1.58179e-07
-1.58179e-07
-1.58179e-07
-1.58179e-07
-1.58179e-07
-1.58179e-07
-1.58179e-07
-1.58179e-07
-1.58179e-07
-1.58179e-07
-1.58179e-07
-1.58179e-07
-1.58179e-07
-1.58179e-07
-1.58179e-07
-1.58179e-07
-1.58179e-07
-1.58179e-07
-1.58179e-07
-1.58179e-07
-1.58179e-07
-1.58179e-07
-1.58179e-07
-1.58179e-07
-1.58179e-07
-1.58179e-07
-1.58179e-07
-1.58179e-07
-1.58179e-07
-1.58179e-07
-1.58179e-07
-1.58179e-07
-1.58179e-07
-1.58179e-07
-1.58179e-07
-1.58179e-07
-1.58179e-07
-1.58179e-07
-1.58179e-07
-1.58179e-07
-1.58179e-07
-1.58179e-07
-1.58179e-07
-1.58179e-07
-1.58179e-07
-1.58179e-07
-1.58179e-07
-1.58179e-07
-1.58179e-07
-1.58179e-07
-1.58179e-07
-1.58179e-07
-1.58179e-07
-1.58179e-07
-1.58179e-07
-1.58179e-07
-1.58179e-07
-1.58179e-07
-1.58179e-07
-1.58179e-07
-1.58179e-07
-1.58179e-07
-1.58179e-07
-1.58179e-07
-1.58179e-07
-1.58178e-07
-1.58161e-07
-1.57454e-07
-1.32573e-07
)
;

boundaryField
{
    inandouthalf11
    {
        type            cyclic;
        value           nonuniform List<scalar> 
100
(
2.03799e-38
1.21913e-15
2.55989e-15
3.79787e-15
5.09459e-15
6.48001e-15
7.92137e-15
9.40288e-15
1.09237e-14
1.24841e-14
1.40826e-14
1.57152e-14
1.73772e-14
1.90629e-14
2.07669e-14
2.24839e-14
2.42088e-14
2.59364e-14
2.76618e-14
2.93806e-14
3.10886e-14
3.27822e-14
3.44583e-14
3.61145e-14
3.77485e-14
3.93586e-14
4.09437e-14
4.25029e-14
4.40358e-14
4.55424e-14
4.70227e-14
4.84773e-14
4.99067e-14
5.13118e-14
5.26936e-14
5.40532e-14
5.53916e-14
5.67101e-14
5.80102e-14
5.92929e-14
6.05596e-14
6.18117e-14
6.30503e-14
6.42766e-14
6.5492e-14
6.66977e-14
6.78946e-14
6.90837e-14
7.0266e-14
7.14427e-14
7.26146e-14
7.37824e-14
7.49469e-14
7.61089e-14
7.7269e-14
7.84279e-14
7.9586e-14
8.07439e-14
8.19019e-14
8.30602e-14
8.42194e-14
8.53798e-14
8.65417e-14
8.77055e-14
8.8871e-14
9.00385e-14
9.12081e-14
9.23798e-14
9.35535e-14
9.4729e-14
9.59065e-14
9.70861e-14
9.82677e-14
9.9451e-14
1.00636e-13
1.01823e-13
1.03012e-13
1.04201e-13
1.05391e-13
1.06582e-13
1.07774e-13
1.08965e-13
1.10156e-13
1.11347e-13
1.12538e-13
1.13728e-13
1.14917e-13
1.16105e-13
1.17292e-13
1.18476e-13
1.19657e-13
1.20836e-13
1.22011e-13
1.23184e-13
1.24353e-13
1.25518e-13
1.26679e-13
1.27837e-13
1.2899e-13
1.30139e-13
)
;
    }
    inandouthalf12
    {
        type            cyclic;
        value           nonuniform List<scalar> 
100
(
-2.03799e-38
-1.21913e-15
-2.55989e-15
-3.79787e-15
-5.09459e-15
-6.48001e-15
-7.92137e-15
-9.40288e-15
-1.09237e-14
-1.24841e-14
-1.40826e-14
-1.57152e-14
-1.73772e-14
-1.90629e-14
-2.07669e-14
-2.24839e-14
-2.42088e-14
-2.59364e-14
-2.76618e-14
-2.93806e-14
-3.10886e-14
-3.27822e-14
-3.44583e-14
-3.61145e-14
-3.77485e-14
-3.93586e-14
-4.09437e-14
-4.25029e-14
-4.40358e-14
-4.55424e-14
-4.70227e-14
-4.84773e-14
-4.99067e-14
-5.13118e-14
-5.26936e-14
-5.40532e-14
-5.53916e-14
-5.67101e-14
-5.80102e-14
-5.92929e-14
-6.05596e-14
-6.18117e-14
-6.30503e-14
-6.42766e-14
-6.5492e-14
-6.66977e-14
-6.78946e-14
-6.90837e-14
-7.0266e-14
-7.14427e-14
-7.26146e-14
-7.37824e-14
-7.49469e-14
-7.61089e-14
-7.7269e-14
-7.84279e-14
-7.9586e-14
-8.07439e-14
-8.19019e-14
-8.30602e-14
-8.42194e-14
-8.53798e-14
-8.65417e-14
-8.77055e-14
-8.8871e-14
-9.00385e-14
-9.12081e-14
-9.23798e-14
-9.35535e-14
-9.4729e-14
-9.59065e-14
-9.70861e-14
-9.82677e-14
-9.9451e-14
-1.00636e-13
-1.01823e-13
-1.03012e-13
-1.04201e-13
-1.05391e-13
-1.06582e-13
-1.07774e-13
-1.08965e-13
-1.10156e-13
-1.11347e-13
-1.12538e-13
-1.13728e-13
-1.14917e-13
-1.16105e-13
-1.17292e-13
-1.18476e-13
-1.19657e-13
-1.20836e-13
-1.22011e-13
-1.23184e-13
-1.24353e-13
-1.25518e-13
-1.26679e-13
-1.27837e-13
-1.2899e-13
-1.30139e-13
)
;
    }
    inandouthalf21
    {
        type            cyclic;
        value           nonuniform List<scalar> 
100
(
1.31282e-13
1.32422e-13
1.33556e-13
1.34686e-13
1.35811e-13
1.36933e-13
1.3805e-13
1.39164e-13
1.40276e-13
1.41386e-13
1.42494e-13
1.43602e-13
1.4471e-13
1.45818e-13
1.46929e-13
1.48041e-13
1.49155e-13
1.50271e-13
1.51388e-13
1.52505e-13
1.53623e-13
1.54739e-13
1.55855e-13
1.56969e-13
1.58085e-13
1.59207e-13
1.6034e-13
1.61494e-13
1.62683e-13
1.63923e-13
1.65231e-13
1.66623e-13
1.68108e-13
1.69681e-13
1.71304e-13
1.72889e-13
1.74295e-13
1.75372e-13
1.76051e-13
1.76388e-13
1.76526e-13
1.76598e-13
1.76679e-13
1.76849e-13
1.77005e-13
1.77229e-13
1.78271e-13
3.58089e-13
9.76148e-08
2.071e-07
2.95034e-07
3.68121e-07
4.30121e-07
4.83511e-07
5.29997e-07
5.70819e-07
6.06913e-07
6.39004e-07
6.67657e-07
6.93316e-07
7.16327e-07
7.36961e-07
7.55434e-07
7.71922e-07
7.86575e-07
7.9953e-07
8.10917e-07
8.20874e-07
8.29546e-07
8.37085e-07
8.43649e-07
8.4938e-07
8.54399e-07
8.58807e-07
8.62685e-07
8.66098e-07
8.69104e-07
8.71748e-07
8.74072e-07
8.7611e-07
8.77892e-07
8.79447e-07
8.80796e-07
8.8196e-07
8.82959e-07
8.83809e-07
8.84525e-07
8.85119e-07
8.85604e-07
8.8599e-07
8.86288e-07
8.86507e-07
8.86654e-07
8.86738e-07
8.86764e-07
8.86741e-07
8.86672e-07
8.86565e-07
8.86423e-07
8.86252e-07
)
;
    }
    inandouthalf22
    {
        type            cyclic;
        value           nonuniform List<scalar> 
100
(
-1.31282e-13
-1.32422e-13
-1.33556e-13
-1.34686e-13
-1.35811e-13
-1.36933e-13
-1.3805e-13
-1.39164e-13
-1.40276e-13
-1.41386e-13
-1.42494e-13
-1.43602e-13
-1.4471e-13
-1.45818e-13
-1.46929e-13
-1.48041e-13
-1.49155e-13
-1.50271e-13
-1.51388e-13
-1.52505e-13
-1.53623e-13
-1.54739e-13
-1.55855e-13
-1.56969e-13
-1.58085e-13
-1.59207e-13
-1.6034e-13
-1.61494e-13
-1.62683e-13
-1.63923e-13
-1.65231e-13
-1.66623e-13
-1.68108e-13
-1.69681e-13
-1.71304e-13
-1.72889e-13
-1.74295e-13
-1.75372e-13
-1.76051e-13
-1.76388e-13
-1.76526e-13
-1.76598e-13
-1.76679e-13
-1.76849e-13
-1.77005e-13
-1.77229e-13
-1.78271e-13
-3.58089e-13
-9.76148e-08
-2.071e-07
-2.95034e-07
-3.68121e-07
-4.30121e-07
-4.83511e-07
-5.29997e-07
-5.70819e-07
-6.06913e-07
-6.39004e-07
-6.67657e-07
-6.93316e-07
-7.16327e-07
-7.36961e-07
-7.55434e-07
-7.71922e-07
-7.86575e-07
-7.9953e-07
-8.10917e-07
-8.20874e-07
-8.29546e-07
-8.37085e-07
-8.43649e-07
-8.4938e-07
-8.54399e-07
-8.58807e-07
-8.62685e-07
-8.66098e-07
-8.69104e-07
-8.71748e-07
-8.74072e-07
-8.7611e-07
-8.77892e-07
-8.79447e-07
-8.80796e-07
-8.8196e-07
-8.82959e-07
-8.83809e-07
-8.84525e-07
-8.85119e-07
-8.85604e-07
-8.8599e-07
-8.86288e-07
-8.86507e-07
-8.86654e-07
-8.86738e-07
-8.86764e-07
-8.86741e-07
-8.86672e-07
-8.86565e-07
-8.86423e-07
-8.86252e-07
)
;
    }
    inandouthalf31
    {
        type            cyclic;
        value           nonuniform List<scalar> 
110
(
8.86059e-07
9.03819e-07
9.21912e-07
9.40343e-07
9.5912e-07
9.78252e-07
9.97747e-07
1.01761e-06
1.03786e-06
1.05849e-06
1.07952e-06
1.10096e-06
1.12282e-06
1.1451e-06
1.16782e-06
1.19099e-06
1.21462e-06
1.23871e-06
1.26329e-06
1.28835e-06
1.31391e-06
1.33999e-06
1.36659e-06
1.39372e-06
1.42141e-06
1.44965e-06
1.47846e-06
1.50786e-06
1.53786e-06
1.56848e-06
1.59973e-06
1.63164e-06
1.66421e-06
1.69746e-06
1.7314e-06
1.76611e-06
1.80141e-06
1.75315e-06
1.78275e-06
1.8126e-06
1.8429e-06
1.87364e-06
1.90486e-06
1.93658e-06
1.96882e-06
2.00161e-06
2.03503e-06
2.06895e-06
2.10382e-06
2.1391e-06
2.17571e-06
2.21269e-06
2.25065e-06
2.29106e-06
2.33212e-06
2.37321e-06
2.41618e-06
2.46054e-06
2.50644e-06
2.55398e-06
2.60323e-06
2.65422e-06
2.70711e-06
2.76177e-06
2.81826e-06
2.87659e-06
2.93672e-06
2.99863e-06
3.06228e-06
3.12762e-06
3.19462e-06
3.2632e-06
3.33332e-06
3.40488e-06
3.47781e-06
3.55196e-06
3.62719e-06
3.70271e-06
3.77829e-06
3.85499e-06
3.93324e-06
4.01307e-06
4.09453e-06
4.17763e-06
4.26243e-06
4.34895e-06
4.43722e-06
4.52728e-06
4.61917e-06
4.71293e-06
4.80859e-06
4.90619e-06
5.00577e-06
5.10738e-06
5.21104e-06
5.31681e-06
5.42473e-06
5.53484e-06
5.64718e-06
5.7618e-06
5.87875e-06
5.99808e-06
6.11982e-06
6.24404e-06
6.37077e-06
6.50008e-06
6.63202e-06
6.76663e-06
6.90398e-06
7.04411e-06
)
;
    }
    inandouthalf32
    {
        type            cyclic;
        value           nonuniform List<scalar> 
110
(
-8.86059e-07
-9.03819e-07
-9.21912e-07
-9.40343e-07
-9.5912e-07
-9.78252e-07
-9.97747e-07
-1.01761e-06
-1.03786e-06
-1.05849e-06
-1.07952e-06
-1.10096e-06
-1.12282e-06
-1.1451e-06
-1.16782e-06
-1.19099e-06
-1.21462e-06
-1.23871e-06
-1.26329e-06
-1.28835e-06
-1.31391e-06
-1.33999e-06
-1.36659e-06
-1.39372e-06
-1.42141e-06
-1.44965e-06
-1.47846e-06
-1.50786e-06
-1.53786e-06
-1.56848e-06
-1.59973e-06
-1.63164e-06
-1.66421e-06
-1.69746e-06
-1.7314e-06
-1.76611e-06
-1.80141e-06
-1.75315e-06
-1.78275e-06
-1.8126e-06
-1.8429e-06
-1.87364e-06
-1.90486e-06
-1.93658e-06
-1.96882e-06
-2.00161e-06
-2.03503e-06
-2.06895e-06
-2.10382e-06
-2.1391e-06
-2.17571e-06
-2.21269e-06
-2.25065e-06
-2.29106e-06
-2.33212e-06
-2.37321e-06
-2.41618e-06
-2.46054e-06
-2.50644e-06
-2.55398e-06
-2.60323e-06
-2.65422e-06
-2.70711e-06
-2.76177e-06
-2.81826e-06
-2.87659e-06
-2.93672e-06
-2.99863e-06
-3.06228e-06
-3.12762e-06
-3.19462e-06
-3.2632e-06
-3.33332e-06
-3.40488e-06
-3.47781e-06
-3.55196e-06
-3.62719e-06
-3.70271e-06
-3.77829e-06
-3.85499e-06
-3.93324e-06
-4.01307e-06
-4.09453e-06
-4.17763e-06
-4.26243e-06
-4.34895e-06
-4.43722e-06
-4.52728e-06
-4.61917e-06
-4.71293e-06
-4.80859e-06
-4.90619e-06
-5.00577e-06
-5.10738e-06
-5.21104e-06
-5.31681e-06
-5.42473e-06
-5.53484e-06
-5.64718e-06
-5.7618e-06
-5.87875e-06
-5.99808e-06
-6.11982e-06
-6.24404e-06
-6.37077e-06
-6.50008e-06
-6.63202e-06
-6.76663e-06
-6.90398e-06
-7.04411e-06
)
;
    }
    inandouthalf41
    {
        type            cyclic;
        value           nonuniform List<scalar> 
50
(
6.30519e-06
6.30519e-06
6.30519e-06
6.30519e-06
6.30519e-06
6.30519e-06
6.30519e-06
6.30519e-06
6.30519e-06
6.30519e-06
6.30519e-06
6.30519e-06
6.30519e-06
6.30519e-06
6.30519e-06
6.30519e-06
6.30519e-06
6.30519e-06
6.30519e-06
6.30519e-06
6.30519e-06
6.30519e-06
6.30519e-06
6.30519e-06
6.30519e-06
6.30519e-06
6.30519e-06
6.30519e-06
6.30519e-06
6.30519e-06
6.30519e-06
6.30519e-06
6.30519e-06
6.30519e-06
6.30519e-06
6.30519e-06
6.30519e-06
6.30519e-06
6.30519e-06
6.30519e-06
6.30519e-06
6.30519e-06
6.30519e-06
6.30519e-06
6.30519e-06
6.30519e-06
6.30519e-06
6.30519e-06
6.30511e-06
6.30334e-06
)
;
    }
    inandouthalf42
    {
        type            cyclic;
        value           nonuniform List<scalar> 
50
(
-6.30519e-06
-6.30519e-06
-6.30519e-06
-6.30519e-06
-6.30519e-06
-6.30519e-06
-6.30519e-06
-6.30519e-06
-6.30519e-06
-6.30519e-06
-6.30519e-06
-6.30519e-06
-6.30519e-06
-6.30519e-06
-6.30519e-06
-6.30519e-06
-6.30519e-06
-6.30519e-06
-6.30519e-06
-6.30519e-06
-6.30519e-06
-6.30519e-06
-6.30519e-06
-6.30519e-06
-6.30519e-06
-6.30519e-06
-6.30519e-06
-6.30519e-06
-6.30519e-06
-6.30519e-06
-6.30519e-06
-6.30519e-06
-6.30519e-06
-6.30519e-06
-6.30519e-06
-6.30519e-06
-6.30519e-06
-6.30519e-06
-6.30519e-06
-6.30519e-06
-6.30519e-06
-6.30519e-06
-6.30519e-06
-6.30519e-06
-6.30519e-06
-6.30519e-06
-6.30519e-06
-6.30519e-06
-6.30511e-06
-6.30334e-06
)
;
    }
    top
    {
        type            symmetryPlane;
        value           uniform 0;
    }
    walls
    {
        type            fixedValue;
        value           uniform 0;
    }
    frontAndBackPlanes
    {
        type            empty;
        value           nonuniform 0();
    }
}


// ************************************************************************* //
