/*--------------------------------*- C++ -*----------------------------------*\
| =========                 |                                                 |
| \\      /  F ield         | OpenFOAM: The Open Source CFD Toolbox           |
|  \\    /   O peration     | Version:  2.4.x                                 |
|   \\  /    A nd           | Web:      www.OpenFOAM.org                      |
|    \\/     M anipulation  |                                                 |
\*---------------------------------------------------------------------------*/
FoamFile
{
    version     2.0;
    format      ascii;
    class       volVectorField;
    location    "9.65";
    object      ddt0(Ua);
}
// * * * * * * * * * * * * * * * * * * * * * * * * * * * * * * * * * * * * * //

dimensions      [0 1 -2 0 0 0 0];

internalField   nonuniform List<vector> 
360
(
(-2.27429e-32 -3.84053e-33 0)
(-7.53185e-09 1.35591e-08 0)
(-1.55631e-08 2.47679e-08 0)
(-2.27108e-08 3.51881e-08 0)
(-2.9978e-08 4.67373e-08 0)
(-3.75777e-08 5.9377e-08 0)
(-4.53578e-08 7.27028e-08 0)
(-5.32621e-08 8.66163e-08 0)
(-6.13206e-08 1.01151e-07 0)
(-6.9573e-08 1.16338e-07 0)
(-7.80499e-08 1.32197e-07 0)
(-8.67709e-08 1.48727e-07 0)
(-9.57483e-08 1.65918e-07 0)
(-1.04991e-07 1.83753e-07 0)
(-1.14506e-07 2.02215e-07 0)
(-1.24301e-07 2.21286e-07 0)
(-1.34379e-07 2.40951e-07 0)
(-1.44745e-07 2.61185e-07 0)
(-1.55399e-07 2.81964e-07 0)
(-1.6634e-07 3.03263e-07 0)
(-1.77568e-07 3.25055e-07 0)
(-1.89079e-07 3.47311e-07 0)
(-2.00871e-07 3.70007e-07 0)
(-2.1294e-07 3.93115e-07 0)
(-2.25284e-07 4.16608e-07 0)
(-2.37895e-07 4.40458e-07 0)
(-2.50769e-07 4.64636e-07 0)
(-2.639e-07 4.89116e-07 0)
(-2.77282e-07 5.13871e-07 0)
(-2.90908e-07 5.38873e-07 0)
(-3.04769e-07 5.6409e-07 0)
(-3.18859e-07 5.89498e-07 0)
(-3.33167e-07 6.15064e-07 0)
(-3.47686e-07 6.4076e-07 0)
(-3.62405e-07 6.66558e-07 0)
(-3.77314e-07 6.92424e-07 0)
(-3.92401e-07 7.18326e-07 0)
(-4.07655e-07 7.44233e-07 0)
(-4.23066e-07 7.70117e-07 0)
(-4.38618e-07 7.95939e-07 0)
(-4.543e-07 8.21667e-07 0)
(-4.70098e-07 8.47271e-07 0)
(-4.85995e-07 8.72709e-07 0)
(-5.01978e-07 8.9795e-07 0)
(-5.18033e-07 9.22962e-07 0)
(-5.34143e-07 9.47707e-07 0)
(-5.50293e-07 9.72154e-07 0)
(-5.66461e-07 9.96258e-07 0)
(-5.82632e-07 1.01999e-06 0)
(-5.98792e-07 1.04331e-06 0)
(-6.14923e-07 1.0662e-06 0)
(-6.31006e-07 1.08862e-06 0)
(-6.47023e-07 1.11054e-06 0)
(-6.62958e-07 1.13193e-06 0)
(-6.78793e-07 1.15276e-06 0)
(-6.94511e-07 1.173e-06 0)
(-7.10096e-07 1.19264e-06 0)
(-7.2553e-07 1.21164e-06 0)
(-7.40797e-07 1.23e-06 0)
(-7.55879e-07 1.24768e-06 0)
(-7.70764e-07 1.26467e-06 0)
(-7.85441e-07 1.28098e-06 0)
(-7.99897e-07 1.29658e-06 0)
(-8.14121e-07 1.31149e-06 0)
(-8.28101e-07 1.32568e-06 0)
(-8.41828e-07 1.33916e-06 0)
(-8.55291e-07 1.35194e-06 0)
(-8.68483e-07 1.36402e-06 0)
(-8.81397e-07 1.3754e-06 0)
(-8.94025e-07 1.3861e-06 0)
(-9.06365e-07 1.39612e-06 0)
(-9.18417e-07 1.4055e-06 0)
(-9.30179e-07 1.41424e-06 0)
(-9.41648e-07 1.42237e-06 0)
(-9.52829e-07 1.42991e-06 0)
(-9.63722e-07 1.43688e-06 0)
(-9.7433e-07 1.44331e-06 0)
(-9.84651e-07 1.44921e-06 0)
(-9.94691e-07 1.45462e-06 0)
(-1.00445e-06 1.45956e-06 0)
(-1.01394e-06 1.46405e-06 0)
(-1.02316e-06 1.46813e-06 0)
(-1.03212e-06 1.47182e-06 0)
(-1.04083e-06 1.47514e-06 0)
(-1.04929e-06 1.47813e-06 0)
(-1.05752e-06 1.48081e-06 0)
(-1.06552e-06 1.4832e-06 0)
(-1.07329e-06 1.48533e-06 0)
(-1.08086e-06 1.48722e-06 0)
(-1.08821e-06 1.48888e-06 0)
(-1.09535e-06 1.49035e-06 0)
(-1.10231e-06 1.49164e-06 0)
(-1.10907e-06 1.49276e-06 0)
(-1.11566e-06 1.49374e-06 0)
(-1.12207e-06 1.49459e-06 0)
(-1.12832e-06 1.49532e-06 0)
(-1.13441e-06 1.49596e-06 0)
(-1.14036e-06 1.49651e-06 0)
(-1.14615e-06 1.49698e-06 0)
(-1.15181e-06 1.49738e-06 0)
(-1.15733e-06 1.49773e-06 0)
(-1.16273e-06 1.49802e-06 0)
(-1.168e-06 1.49827e-06 0)
(-1.17315e-06 1.49847e-06 0)
(-1.17819e-06 1.49864e-06 0)
(-1.18312e-06 1.49878e-06 0)
(-1.18794e-06 1.49889e-06 0)
(-1.19266e-06 1.49896e-06 0)
(-1.19728e-06 1.499e-06 0)
(-1.20181e-06 1.49902e-06 0)
(-1.20624e-06 1.49901e-06 0)
(-1.21059e-06 1.49897e-06 0)
(-1.21486e-06 1.49891e-06 0)
(-1.21905e-06 1.49883e-06 0)
(-1.22317e-06 1.49873e-06 0)
(-1.22723e-06 1.49863e-06 0)
(-1.23123e-06 1.49851e-06 0)
(-1.23518e-06 1.49837e-06 0)
(-1.23908e-06 1.49822e-06 0)
(-1.24292e-06 1.49802e-06 0)
(-1.2467e-06 1.49777e-06 0)
(-1.25038e-06 1.49742e-06 0)
(-1.25393e-06 1.49694e-06 0)
(-1.25732e-06 1.4963e-06 0)
(-1.26051e-06 1.49547e-06 0)
(-1.26347e-06 1.49444e-06 0)
(-1.26619e-06 1.49325e-06 0)
(-1.26872e-06 1.49196e-06 0)
(-1.27115e-06 1.49067e-06 0)
(-1.2736e-06 1.4895e-06 0)
(-1.27624e-06 1.48856e-06 0)
(-1.27922e-06 1.48788e-06 0)
(-1.28261e-06 1.48741e-06 0)
(-1.28632e-06 1.48698e-06 0)
(-1.28993e-06 1.48619e-06 0)
(-1.29245e-06 1.48444e-06 0)
(-1.29215e-06 1.48107e-06 0)
(-1.28768e-06 1.47602e-06 0)
(-1.27965e-06 1.47045e-06 0)
(-1.27239e-06 1.46642e-06 0)
(-1.26911e-06 1.46474e-06 0)
(-1.26921e-06 1.46412e-06 0)
(-1.26981e-06 1.46333e-06 0)
(-1.28725e-06 1.46552e-06 0)
(-0.11078 0.00710893 0)
(-0.504394 -0.0186847 0)
(-0.552598 -0.00405317 0)
(-0.54728 -0.0111044 0)
(-0.547688 -0.0131946 0)
(-0.55384 -0.0141337 0)
(-0.563609 -0.0143594 0)
(-0.576452 -0.014329 0)
(-0.591284 -0.0142095 0)
(-0.607431 -0.0140153 0)
(-0.624413 -0.0137869 0)
(-0.641857 -0.0135615 0)
(-0.659466 -0.0133657 0)
(-0.677002 -0.0132164 0)
(-0.694278 -0.013123 0)
(-0.711153 -0.0130885 0)
(-0.727522 -0.0131101 0)
(-0.743314 -0.0131815 0)
(-0.758484 -0.0132938 0)
(-0.77301 -0.0134363 0)
(-0.786882 -0.0135974 0)
(-0.800106 -0.0137659 0)
(-0.812694 -0.0139317 0)
(-0.824666 -0.0140858 0)
(-0.836046 -0.014221 0)
(-0.846858 -0.0143315 0)
(-0.857129 -0.0144129 0)
(-0.866885 -0.0144625 0)
(-0.876151 -0.0144785 0)
(-0.884953 -0.01446 0)
(-0.893311 -0.0144065 0)
(-0.901246 -0.0143183 0)
(-0.908777 -0.0141952 0)
(-0.915919 -0.0140371 0)
(-0.922685 -0.0138432 0)
(-0.929088 -0.0136124 0)
(-0.935137 -0.0133424 0)
(-0.94084 -0.01303 0)
(-0.946206 -0.01267 0)
(-0.951242 -0.0122544 0)
(-0.955956 -0.0117679 0)
(-0.960359 -0.0111854 0)
(-0.964462 -0.0104793 0)
(-0.968284 -0.00965504 0)
(-0.971847 -0.00884915 0)
(-0.975177 -0.00852513 0)
(-0.978307 -0.00897444 0)
(-0.981238 -0.00980168 0)
(-0.983947 -0.0106131 0)
(-0.98642 -0.0113693 0)
(-0.988644 -0.0120949 0)
(-0.990611 -0.0127903 0)
(-0.992314 -0.0134538 0)
(-0.993748 -0.0140833 0)
(-0.994907 -0.0146765 0)
(-0.995788 -0.0152306 0)
(-0.99639 -0.0157426 0)
(-0.996714 -0.0162138 0)
(-0.996747 -0.0166429 0)
(-0.99647 -0.0170221 0)
(-0.995869 -0.0173419 0)
(-0.994931 -0.0175888 0)
(-0.993647 -0.0177416 0)
(-0.992019 -0.0177668 0)
(-0.990057 -0.0176177 0)
(-0.987787 -0.0172407 0)
(-0.985252 -0.0165947 0)
(-0.982516 -0.0156772 0)
(-0.979652 -0.0145428 0)
(-0.976739 -0.0132972 0)
(-0.973844 -0.0120653 0)
(-0.971016 -0.0109523 0)
(-0.968283 -0.0100202 0)
(-0.965652 -0.00928756 0)
(-0.963124 -0.0087421 0)
(-0.960693 -0.00835689 0)
(-0.958353 -0.0081013 0)
(-0.956102 -0.00794668 0)
(-0.953942 -0.00786854 0)
(-0.951874 -0.00784672 0)
(-0.949906 -0.00786487 0)
(-0.948044 -0.00790987 0)
(-0.946296 -0.00797106 0)
(-0.944667 -0.00804092 0)
(-0.943163 -0.00811262 0)
(-0.941787 -0.00818319 0)
(-0.940543 -0.00824955 0)
(-0.93943 -0.00831044 0)
(-0.938454 -0.00836732 0)
(-0.937616 -0.00841922 0)
(-0.93693 -0.00847327 0)
(-0.936403 -0.00852769 0)
(-0.935857 -0.00856068 0)
(-0.870687 -0.00565348 0)
(-0.869218 -0.00874626 0)
(-0.867304 -0.00830585 0)
(-0.865335 -0.00837284 0)
(-0.863407 -0.00891931 0)
(-0.861691 -0.0086862 0)
(-0.860018 -0.00967123 0)
(-0.858766 -0.00512326 0)
(-0.856836 -0.0125678 0)
(-0.856142 0.00786574 0)
(-0.854479 -0.0153497 0)
(-0.854618 0.0309089 0)
(-0.851187 -0.020145 0)
(-0.852186 0.0618039 0)
(-0.849536 0.0782129 0)
(-0.851544 0.000293847 0)
(-0.850792 0.000118093 0)
(-0.850142 0.000130121 0)
(-0.849583 0.000127984 0)
(-0.849122 0.000126473 0)
(-0.848766 0.000124512 0)
(-0.848524 0.000122167 0)
(-0.848406 0.000119421 0)
(-0.848422 0.00011626 0)
(-0.848587 0.000112669 0)
(-0.848912 0.000108635 0)
(-0.849414 0.000104147 0)
(-0.850105 9.9195e-05 0)
(-0.850997 9.37707e-05 0)
(-0.852094 8.78714e-05 0)
(-0.853379 8.08793e-05 0)
(-0.854812 6.46436e-05 0)
(-0.856424 5.39705e-05 0)
(-0.857297 7.43068e-05 0)
(-0.857393 9.90576e-05 0)
(-0.857394 0.000102788 0)
(-0.857394 0.000102854 0)
(-0.857394 0.000102854 0)
(-0.857394 0.000102855 0)
(-0.857394 0.000102854 0)
(-0.857394 0.000102855 0)
(-0.857394 0.000102854 0)
(-0.857394 0.000102855 0)
(-0.857394 0.000102854 0)
(-0.857394 0.000102855 0)
(-0.857394 0.000102854 0)
(-0.857394 0.000102855 0)
(-0.857394 0.000102854 0)
(-0.857394 0.000102855 0)
(-0.857394 0.000102854 0)
(-0.857394 0.000102855 0)
(-0.857394 0.000102854 0)
(-0.857394 0.000102855 0)
(-0.857394 0.000102854 0)
(-0.857394 0.000102855 0)
(-0.857394 0.000102854 0)
(-0.857394 0.000102855 0)
(-0.857394 0.000102854 0)
(-0.857394 0.000102855 0)
(-0.857394 0.000102854 0)
(-0.857394 0.000102855 0)
(-0.857394 0.000102854 0)
(-0.857394 0.000102855 0)
(-0.857394 0.000102854 0)
(-0.857394 0.000102855 0)
(-0.857394 0.000102854 0)
(-0.857394 0.000102855 0)
(-0.857394 0.000102854 0)
(-0.857394 0.000102855 0)
(-0.857394 0.000102854 0)
(-0.857394 0.000102855 0)
(-0.857394 0.000102854 0)
(-0.857394 0.000102855 0)
(-0.857394 0.000102854 0)
(-0.857394 0.000102855 0)
(-0.857394 0.000102854 0)
(-0.857394 0.000102855 0)
(-0.857394 0.000102854 0)
(-0.857394 0.000102855 0)
(-0.857394 0.000102854 0)
(-0.857394 0.000102855 0)
(-0.857394 0.000102854 0)
(-0.857394 0.000102854 0)
(-0.857394 0.000102854 0)
(-0.857394 0.000102854 0)
(-0.857394 0.000102853 0)
(-0.857394 0.000102854 0)
(-0.857394 0.000102853 0)
(-0.857394 0.000102854 0)
(-0.857394 0.000102853 0)
(-0.857394 0.000102854 0)
(-0.857394 0.000102853 0)
(-0.857394 0.000102853 0)
(-0.857394 0.000102851 0)
(-0.857394 0.000102852 0)
(-0.857394 0.00010285 0)
(-0.857394 0.00010285 0)
(-0.857394 0.000102849 0)
(-0.857394 0.000102849 0)
(-0.857394 0.000102847 0)
(-0.857394 0.000102848 0)
(-0.857394 0.000102846 0)
(-0.857394 0.000102846 0)
(-0.857394 0.000102845 0)
(-0.857394 0.000102845 0)
(-0.857394 0.000102844 0)
(-0.857394 0.000102844 0)
(-0.857394 0.000102843 0)
(-0.857394 0.000102843 0)
(-0.857394 0.000102841 0)
(-0.857394 0.000102841 0)
(-0.857394 0.00010284 0)
(-0.857394 0.00010284 0)
(-0.857394 0.000102839 0)
(-0.857394 0.00010284 0)
(-0.857394 0.000102839 0)
(-0.857394 0.00010284 0)
(-0.857394 0.00010284 0)
(-0.857394 0.000102842 0)
(-0.857394 0.000102847 0)
(-0.857393 0.000102956 0)
(-0.857358 0.000105292 0)
(-0.856557 0.000201007 0)
)
;

boundaryField
{
    inandouthalf11
    {
        type            cyclic;
    }
    inandouthalf12
    {
        type            cyclic;
    }
    inandouthalf21
    {
        type            cyclic;
    }
    inandouthalf22
    {
        type            cyclic;
    }
    inandouthalf31
    {
        type            cyclic;
    }
    inandouthalf32
    {
        type            cyclic;
    }
    inandouthalf41
    {
        type            cyclic;
    }
    inandouthalf42
    {
        type            cyclic;
    }
    top
    {
        type            symmetryPlane;
    }
    walls
    {
        type            calculated;
        value           uniform (0 0 0);
    }
    frontAndBackPlanes
    {
        type            empty;
    }
}


// ************************************************************************* //
