/*--------------------------------*- C++ -*----------------------------------*\
| =========                 |                                                 |
| \\      /  F ield         | OpenFOAM: The Open Source CFD Toolbox           |
|  \\    /   O peration     | Version:  2.4.x                                 |
|   \\  /    A nd           | Web:      www.OpenFOAM.org                      |
|    \\/     M anipulation  |                                                 |
\*---------------------------------------------------------------------------*/
FoamFile
{
    version     2.0;
    format      ascii;
    class       volVectorField;
    location    "9.65";
    object      ddt0(Ub);
}
// * * * * * * * * * * * * * * * * * * * * * * * * * * * * * * * * * * * * * //

dimensions      [0 1 -2 0 0 0 0];

internalField   nonuniform List<vector> 
360
(
(-0.000268038 -5.71927e-09 0)
(-0.000266556 -2.04536e-08 0)
(-0.000266362 -3.82183e-08 0)
(-0.000266569 -5.57774e-08 0)
(-0.000266671 -7.4176e-08 0)
(-0.000266709 -9.39292e-08 0)
(-0.000266754 -1.14864e-07 0)
(-0.000266811 -1.36799e-07 0)
(-0.000266869 -1.59707e-07 0)
(-0.000266928 -1.83625e-07 0)
(-0.000266987 -2.08592e-07 0)
(-0.000267047 -2.34613e-07 0)
(-0.000267107 -2.6167e-07 0)
(-0.000267168 -2.89727e-07 0)
(-0.00026723 -3.18767e-07 0)
(-0.000267293 -3.48763e-07 0)
(-0.000267356 -3.7968e-07 0)
(-0.000267421 -4.11483e-07 0)
(-0.000267486 -4.44135e-07 0)
(-0.000267553 -4.77599e-07 0)
(-0.000267619 -5.1183e-07 0)
(-0.000267688 -5.46787e-07 0)
(-0.000267756 -5.82424e-07 0)
(-0.000267826 -6.18704e-07 0)
(-0.000267897 -6.5558e-07 0)
(-0.000267969 -6.93005e-07 0)
(-0.000268041 -7.30937e-07 0)
(-0.000268115 -7.69333e-07 0)
(-0.000268189 -8.08151e-07 0)
(-0.000268264 -8.47346e-07 0)
(-0.000268341 -8.8687e-07 0)
(-0.000268418 -9.26685e-07 0)
(-0.000268496 -9.66731e-07 0)
(-0.000268575 -1.00697e-06 0)
(-0.000268655 -1.04737e-06 0)
(-0.000268736 -1.08785e-06 0)
(-0.000268818 -1.12837e-06 0)
(-0.000268901 -1.16889e-06 0)
(-0.000268985 -1.20937e-06 0)
(-0.000269069 -1.24973e-06 0)
(-0.000269155 -1.28994e-06 0)
(-0.000269242 -1.32995e-06 0)
(-0.000269329 -1.36967e-06 0)
(-0.000269417 -1.40908e-06 0)
(-0.000269507 -1.44811e-06 0)
(-0.000269597 -1.4867e-06 0)
(-0.000269689 -1.52482e-06 0)
(-0.00026978 -1.56238e-06 0)
(-0.000269873 -1.59935e-06 0)
(-0.000269968 -1.63567e-06 0)
(-0.000270062 -1.67129e-06 0)
(-0.000270158 -1.70617e-06 0)
(-0.000270255 -1.74024e-06 0)
(-0.000270353 -1.77348e-06 0)
(-0.000270451 -1.80582e-06 0)
(-0.000270551 -1.83725e-06 0)
(-0.000270651 -1.8677e-06 0)
(-0.000270753 -1.89715e-06 0)
(-0.000270856 -1.92557e-06 0)
(-0.000270958 -1.95292e-06 0)
(-0.000271063 -1.9792e-06 0)
(-0.000271168 -2.00437e-06 0)
(-0.000271275 -2.02845e-06 0)
(-0.000271382 -2.05141e-06 0)
(-0.00027149 -2.07325e-06 0)
(-0.0002716 -2.09397e-06 0)
(-0.00027171 -2.11357e-06 0)
(-0.000271822 -2.13208e-06 0)
(-0.000271935 -2.14948e-06 0)
(-0.000272048 -2.16579e-06 0)
(-0.000272163 -2.18106e-06 0)
(-0.00027228 -2.19529e-06 0)
(-0.000272396 -2.20853e-06 0)
(-0.000272515 -2.2208e-06 0)
(-0.000272635 -2.23213e-06 0)
(-0.000272757 -2.24257e-06 0)
(-0.000272879 -2.25214e-06 0)
(-0.000273004 -2.2609e-06 0)
(-0.000273129 -2.26886e-06 0)
(-0.000273257 -2.27608e-06 0)
(-0.000273385 -2.2826e-06 0)
(-0.000273516 -2.28846e-06 0)
(-0.000273648 -2.2937e-06 0)
(-0.000273782 -2.29836e-06 0)
(-0.000273918 -2.30249e-06 0)
(-0.000274056 -2.30613e-06 0)
(-0.000274196 -2.30931e-06 0)
(-0.000274338 -2.31206e-06 0)
(-0.000274482 -2.31443e-06 0)
(-0.000274629 -2.31645e-06 0)
(-0.000274778 -2.31814e-06 0)
(-0.000274929 -2.31954e-06 0)
(-0.000275083 -2.32068e-06 0)
(-0.000275239 -2.32158e-06 0)
(-0.000275398 -2.32226e-06 0)
(-0.00027556 -2.32275e-06 0)
(-0.000275726 -2.32307e-06 0)
(-0.000275894 -2.32324e-06 0)
(-0.000276065 -2.32327e-06 0)
(-0.00027624 -2.32319e-06 0)
(-0.000276418 -2.32299e-06 0)
(-0.0002766 -2.3227e-06 0)
(-0.000276786 -2.32232e-06 0)
(-0.000276976 -2.32186e-06 0)
(-0.00027717 -2.32133e-06 0)
(-0.000277368 -2.32073e-06 0)
(-0.000277571 -2.32007e-06 0)
(-0.000277778 -2.31933e-06 0)
(-0.000277991 -2.31852e-06 0)
(-0.000278208 -2.31765e-06 0)
(-0.000278431 -2.31672e-06 0)
(-0.00027866 -2.31572e-06 0)
(-0.000278894 -2.31466e-06 0)
(-0.000279134 -2.31355e-06 0)
(-0.000279381 -2.31239e-06 0)
(-0.000279635 -2.31118e-06 0)
(-0.000279895 -2.30993e-06 0)
(-0.000280163 -2.30861e-06 0)
(-0.000280439 -2.30723e-06 0)
(-0.000280723 -2.30576e-06 0)
(-0.000281016 -2.30416e-06 0)
(-0.000281318 -2.30237e-06 0)
(-0.00028163 -2.30035e-06 0)
(-0.000281953 -2.29804e-06 0)
(-0.000282286 -2.2954e-06 0)
(-0.00028263 -2.29244e-06 0)
(-0.000282987 -2.28918e-06 0)
(-0.000283358 -2.28574e-06 0)
(-0.000283743 -2.28226e-06 0)
(-0.000284145 -2.27889e-06 0)
(-0.000284564 -2.27578e-06 0)
(-0.000285001 -2.27296e-06 0)
(-0.000285458 -2.27035e-06 0)
(-0.00028594 -2.2676e-06 0)
(-0.000286453 -2.26413e-06 0)
(-0.000286996 -2.25907e-06 0)
(-0.000287565 -2.25165e-06 0)
(-0.000288168 -2.24194e-06 0)
(-0.000288834 -2.23151e-06 0)
(-0.0002896 -2.1113e-06 0)
(-0.000290436 -4.49396e-06 0)
(-0.000291427 8.4247e-06 0)
(-0.000302385 -4.93891e-05 0)
(-0.000548596 0.000211002 0)
(-0.130934 -0.000400723 0)
(-0.546542 0.00115714 0)
(-0.554807 0.0061416 0)
(-0.549923 0.0045982 0)
(-0.552676 0.00396301 0)
(-0.560287 0.00350416 0)
(-0.571246 0.00300145 0)
(-0.584548 0.00250295 0)
(-0.599535 0.00205643 0)
(-0.615682 0.00166995 0)
(-0.63257 0.00134507 0)
(-0.649863 0.00107923 0)
(-0.667289 0.000867041 0)
(-0.68463 0.000701468 0)
(-0.701713 0.000574922 0)
(-0.718407 0.00047999 0)
(-0.734616 0.000409848 0)
(-0.750274 0.000358592 0)
(-0.765335 0.000321314 0)
(-0.779778 0.000294058 0)
(-0.793592 0.000273726 0)
(-0.80678 0.000257985 0)
(-0.819354 0.000245134 0)
(-0.831331 0.000233975 0)
(-0.842734 0.000223699 0)
(-0.853587 0.000213789 0)
(-0.863917 0.000203939 0)
(-0.87375 0.000193993 0)
(-0.883113 0.000183896 0)
(-0.892033 0.000173654 0)
(-0.900535 0.000163309 0)
(-0.908643 0.000152925 0)
(-0.916379 0.000142566 0)
(-0.923764 0.000132298 0)
(-0.930818 0.000122177 0)
(-0.937559 0.000112252 0)
(-0.944003 0.00010256 0)
(-0.950164 9.31308e-05 0)
(-0.956057 8.39805e-05 0)
(-0.961692 7.51086e-05 0)
(-0.96708 6.64856e-05 0)
(-0.97223 5.80552e-05 0)
(-0.977149 4.98019e-05 0)
(-0.981844 4.18828e-05 0)
(-0.986321 3.48797e-05 0)
(-0.990584 3.02809e-05 0)
(-0.994639 2.87187e-05 0)
(-0.998493 2.84595e-05 0)
(-1.00215 2.79648e-05 0)
(-1.00562 2.71397e-05 0)
(-1.00889 2.61457e-05 0)
(-1.01197 2.50319e-05 0)
(-1.01486 2.38193e-05 0)
(-1.01756 2.25267e-05 0)
(-1.02007 2.11724e-05 0)
(-1.02237 1.97734e-05 0)
(-1.02447 1.83451e-05 0)
(-1.02638 1.68867e-05 0)
(-1.02811 1.53959e-05 0)
(-1.02962 1.38848e-05 0)
(-1.03089 1.23642e-05 0)
(-1.03191 1.08411e-05 0)
(-1.03262 9.31665e-06 0)
(-1.03301 7.78644e-06 0)
(-1.03303 6.24888e-06 0)
(-1.03263 4.72184e-06 0)
(-1.03177 3.25961e-06 0)
(-1.03039 1.95305e-06 0)
(-1.02843 9.01687e-07 0)
(-1.02585 1.68583e-07 0)
(-1.02257 -2.50644e-07 0)
(-1.01855 -4.21703e-07 0)
(-1.01374 -4.361e-07 0)
(-1.00811 -3.74791e-07 0)
(-1.00164 -2.91016e-07 0)
(-0.994373 -2.11666e-07 0)
(-0.98637 -1.46509e-07 0)
(-0.977748 -9.68405e-08 0)
(-0.968678 -6.07171e-08 0)
(-0.959374 -3.54083e-08 0)
(-0.950076 -1.83317e-08 0)
(-0.941025 -7.32197e-09 0)
(-0.932436 -5.94054e-10 0)
(-0.92447 3.19366e-09 0)
(-0.917224 5.05556e-09 0)
(-0.910731 5.78032e-09 0)
(-0.904973 5.76825e-09 0)
(-0.899893 5.44324e-09 0)
(-0.895416 5.00312e-09 0)
(-0.89146 4.59245e-09 0)
(-0.887945 3.97801e-09 0)
(-0.8848 2.60837e-09 0)
(-0.881963 3.81167e-09 0)
(-0.879383 5.99515e-09 0)
(-0.87702 5.96716e-09 0)
(-0.874842 5.42803e-09 0)
(-0.872824 4.63479e-09 0)
(-0.870945 3.82794e-09 0)
(-0.869191 3.10617e-09 0)
(-0.867549 2.47152e-09 0)
(-0.866012 1.88809e-09 0)
(-0.864571 1.40481e-09 0)
(-0.863222 1.01797e-09 0)
(-0.86196 8.12392e-10 0)
(-0.860783 7.7469e-10 0)
(-0.859688 8.056e-10 0)
(-0.858676 9.66214e-10 0)
(-0.857746 1.04851e-09 0)
(-0.856898 1.02072e-09 0)
(-0.856135 9.94313e-10 0)
(-0.855461 9.67895e-10 0)
(-0.854878 9.40188e-10 0)
(-0.854393 9.1125e-10 0)
(-0.854013 8.79603e-10 0)
(-0.853744 8.46306e-10 0)
(-0.853597 8.11181e-10 0)
(-0.853584 7.77196e-10 0)
(-0.853716 7.41802e-10 0)
(-0.854007 6.88661e-10 0)
(-0.854472 7.34887e-10 0)
(-0.855125 5.35345e-10 0)
(-0.855978 8.21052e-10 0)
(-0.857036 3.63315e-10 0)
(-0.85829 9.42033e-10 0)
(-0.859695 2.04291e-10 0)
(-0.861297 1.04423e-09 0)
(-0.862394 9.69769e-11 0)
(-0.862524 1.08999e-09 0)
(-0.862526 2.94747e-11 0)
(-0.862526 1.12945e-09 0)
(-0.862526 -3.22146e-11 0)
(-0.862526 1.16533e-09 0)
(-0.862526 -1.09666e-10 0)
(-0.862526 1.19376e-09 0)
(-0.862526 -2.00851e-10 0)
(-0.862526 1.21409e-09 0)
(-0.862526 -3.00391e-10 0)
(-0.862526 1.24702e-09 0)
(-0.862526 -3.91285e-10 0)
(-0.862526 1.28124e-09 0)
(-0.862526 -4.97184e-10 0)
(-0.862526 1.31082e-09 0)
(-0.862526 -6.12664e-10 0)
(-0.862526 1.3333e-09 0)
(-0.862526 -7.43269e-10 0)
(-0.862526 1.35585e-09 0)
(-0.862526 -8.74757e-10 0)
(-0.862526 1.37681e-09 0)
(-0.862526 -1.02098e-09 0)
(-0.862526 1.39341e-09 0)
(-0.862526 -1.17796e-09 0)
(-0.862526 1.39713e-09 0)
(-0.862526 -1.33784e-09 0)
(-0.862526 1.45564e-09 0)
(-0.862526 -1.45511e-09 0)
(-0.862526 1.51354e-09 0)
(-0.862526 -1.59074e-09 0)
(-0.862526 1.57426e-09 0)
(-0.862526 -1.73094e-09 0)
(-0.862526 1.62906e-09 0)
(-0.862526 -1.88171e-09 0)
(-0.862526 1.69255e-09 0)
(-0.862526 -2.03241e-09 0)
(-0.862526 1.74692e-09 0)
(-0.862526 -2.20834e-09 0)
(-0.862526 1.7892e-09 0)
(-0.862526 -2.14869e-09 0)
(-0.862526 1.51118e-09 0)
(-0.862526 -2.27966e-09 0)
(-0.862526 1.44696e-09 0)
(-0.862526 -2.41401e-09 0)
(-0.862526 1.35979e-09 0)
(-0.862526 -2.5749e-09 0)
(-0.862526 1.25472e-09 0)
(-0.862526 -2.75448e-09 0)
(-0.862526 1.11373e-09 0)
(-0.862526 -2.98634e-09 0)
(-0.862526 9.05402e-10 0)
(-0.862526 -3.28231e-09 0)
(-0.862526 6.40576e-10 0)
(-0.862526 -3.655e-09 0)
(-0.862526 2.44507e-10 0)
(-0.862526 -4.21479e-09 0)
(-0.862526 -4.8556e-10 0)
(-0.862526 -5.67172e-09 0)
(-0.862526 -2.90336e-09 0)
(-0.862526 -8.80254e-09 0)
(-0.862526 -6.18206e-09 0)
(-0.862526 -1.22251e-08 0)
(-0.862526 -9.61862e-09 0)
(-0.862526 -1.57012e-08 0)
(-0.862526 -1.29652e-08 0)
(-0.862526 -1.91577e-08 0)
(-0.862526 -1.65579e-08 0)
(-0.862526 -2.27587e-08 0)
(-0.862526 -1.98368e-08 0)
(-0.862526 -2.59375e-08 0)
(-0.862526 -2.29272e-08 0)
(-0.862526 -2.87871e-08 0)
(-0.862526 -2.53396e-08 0)
(-0.862526 -3.18544e-08 0)
(-0.862526 -2.97789e-08 0)
(-0.862526 -3.65538e-08 0)
(-0.862526 -3.33698e-08 0)
(-0.862526 -3.94089e-08 0)
(-0.862526 -3.57598e-08 0)
(-0.862526 -4.05539e-08 0)
(-0.862526 -3.53464e-08 0)
(-0.862526 -4.00983e-08 0)
(-0.862526 -3.54653e-08 0)
(-0.862526 -3.91803e-08 0)
(-0.862526 -3.23891e-08 0)
(-0.862526 -3.33109e-08 0)
(-0.862526 -2.53037e-08 0)
(-0.862526 -3.0986e-08 0)
(-0.862526 -1.27907e-08 0)
)
;

boundaryField
{
    inandouthalf11
    {
        type            cyclic;
    }
    inandouthalf12
    {
        type            cyclic;
    }
    inandouthalf21
    {
        type            cyclic;
    }
    inandouthalf22
    {
        type            cyclic;
    }
    inandouthalf31
    {
        type            cyclic;
    }
    inandouthalf32
    {
        type            cyclic;
    }
    inandouthalf41
    {
        type            cyclic;
    }
    inandouthalf42
    {
        type            cyclic;
    }
    top
    {
        type            symmetryPlane;
    }
    walls
    {
        type            calculated;
        value           uniform (0 0 0);
    }
    frontAndBackPlanes
    {
        type            empty;
    }
}


// ************************************************************************* //
