/*--------------------------------*- C++ -*----------------------------------*\
| =========                 |                                                 |
| \\      /  F ield         | OpenFOAM: The Open Source CFD Toolbox           |
|  \\    /   O peration     | Version:  2.4.x                                 |
|   \\  /    A nd           | Web:      www.OpenFOAM.org                      |
|    \\/     M anipulation  |                                                 |
\*---------------------------------------------------------------------------*/
FoamFile
{
    version     2.0;
    format      ascii;
    class       volScalarField;
    location    "9.65";
    object      epsilon;
}
// * * * * * * * * * * * * * * * * * * * * * * * * * * * * * * * * * * * * * //

dimensions      [0 2 -3 0 0 0 0];

internalField   nonuniform List<scalar> 
360
(
1e-20
1e-20
1e-20
1e-20
1e-20
1e-20
1e-20
1e-20
1e-20
1e-20
1e-20
1e-20
1e-20
1e-20
1e-20
1e-20
1e-20
1e-20
1e-20
1e-20
1e-20
1e-20
1e-20
1e-20
1e-20
1e-20
1e-20
1e-20
1e-20
1e-20
1e-20
1e-20
1e-20
1e-20
1e-20
1e-20
1e-20
1e-20
1e-20
1e-20
1e-20
1e-20
1e-20
1e-20
1e-20
1e-20
1e-20
1e-20
1e-20
1e-20
1e-20
1e-20
1e-20
1e-20
1e-20
1e-20
1e-20
1e-20
1e-20
1e-20
1e-20
1e-20
1e-20
1e-20
1e-20
1e-20
1e-20
1e-20
1e-20
1e-20
1e-20
1e-20
1e-20
1e-20
1e-20
1e-20
1e-20
1e-20
1e-20
1e-20
1e-20
1e-20
1e-20
1e-20
1e-20
1e-20
1e-20
1e-20
1e-20
1e-20
1e-20
1e-20
1e-20
1e-20
1e-20
1e-20
1e-20
1e-20
1e-20
1e-20
1e-20
1e-20
1e-20
1e-20
1e-20
1e-20
1e-20
1e-20
1e-20
1e-20
1e-20
1e-20
1e-20
1e-20
1e-20
1e-20
1e-20
1e-20
1e-20
1e-20
1e-20
1e-20
1e-20
1e-20
1e-20
1e-20
2.16987e-20
1.14963e-19
6.49463e-19
3.61762e-18
1.98353e-17
1.07636e-16
5.83873e-16
3.21941e-15
1.85197e-14
1.15331e-13
8.13362e-13
6.77726e-12
6.85685e-11
8.55598e-10
1.34353e-08
2.72859e-07
7.31098e-06
0.00024695
0.00792033
0.0858445
0.165914
0.187665
0.191262
0.188075
0.182168
0.175209
0.16794
0.160765
0.153888
0.1474
0.14133
0.135668
0.130389
0.12546
0.120847
0.116517
0.112438
0.108585
0.104931
0.101458
0.0981447
0.0949764
0.091939
0.0890199
0.0862087
0.0834959
0.0808732
0.0783333
0.0758699
0.0734771
0.07115
0.068884
0.0666751
0.0645197
0.0624146
0.0603569
0.0583441
0.0563739
0.0544443
0.0525535
0.0507
0.0488823
0.0470993
0.0453499
0.0436334
0.041949
0.040296
0.038674
0.0370826
0.0355214
0.0339904
0.0324894
0.0310185
0.0295777
0.0281672
0.0267734
0.0253839
0.0240006
0.0226256
0.0212614
0.0199106
0.0185762
0.0172615
0.0159702
0.0147064
0.0134744
0.0122791
0.0111255
0.0100191
0.00896535
0.00796977
0.00703767
0.00617386
0.00538237
0.00466611
0.00402654
0.00346338
0.00297454
0.0025561
0.0022026
0.00190741
0.0016633
0.00146294
0.00129931
0.00116604
0.00105755
0.000969109
0.00089676
0.000837268
0.000787999
0.000746812
0.000711974
0.000682069
0.000655943
0.000632644
0.000611385
0.000591514
0.000572487
0.000553852
0.000535235
0.000516327
0.000496883
0.000476708
0.000455658
0.000433636
0.00041059
0.000386507
0.000361422
0.000335406
0.000308575
0.000281084
0.000253131
0.000224955
0.000196834
0.000169087
0.000142068
0.000116165
9.17906e-05
6.93769e-05
4.93627e-05
3.21804e-05
1.82424e-05
7.94844e-06
1.77857e-06
1.01965e-07
1.44561e-09
1.52654e-11
1.53566e-13
1.48123e-15
1.3737e-17
1.30528e-19
1.01302e-20
1e-20
1e-20
1e-20
1e-20
1e-20
1e-20
1e-20
1e-20
1e-20
1e-20
1e-20
1e-20
1e-20
1e-20
1e-20
1e-20
1e-20
1e-20
1e-20
1e-20
1e-20
1e-20
1e-20
1e-20
1e-20
1e-20
1e-20
1e-20
1e-20
1e-20
1e-20
1e-20
1e-20
1e-20
1e-20
1e-20
1e-20
1e-20
1e-20
1e-20
1e-20
1e-20
1e-20
1e-20
1e-20
1e-20
1e-20
1e-20
1e-20
1e-20
1e-20
1e-20
1e-20
1e-20
1e-20
1e-20
1e-20
1e-20
1e-20
1e-20
1e-20
1e-20
1e-20
1e-20
1e-20
1e-20
1e-20
1e-20
1e-20
1e-20
1e-20
1e-20
1e-20
1e-20
1e-20
1e-20
1e-20
1e-20
1e-20
1e-20
1e-20
1e-20
)
;

boundaryField
{
    inandouthalf11
    {
        type            cyclic;
    }
    inandouthalf12
    {
        type            cyclic;
    }
    inandouthalf21
    {
        type            cyclic;
    }
    inandouthalf22
    {
        type            cyclic;
    }
    inandouthalf31
    {
        type            cyclic;
    }
    inandouthalf32
    {
        type            cyclic;
    }
    inandouthalf41
    {
        type            cyclic;
    }
    inandouthalf42
    {
        type            cyclic;
    }
    top
    {
        type            symmetryPlane;
    }
    walls
    {
        type            zeroGradient;
    }
    frontAndBackPlanes
    {
        type            empty;
    }
}


// ************************************************************************* //
