/*--------------------------------*- C++ -*----------------------------------*\
| =========                 |                                                 |
| \\      /  F ield         | OpenFOAM: The Open Source CFD Toolbox           |
|  \\    /   O peration     | Version:  2.4.x                                 |
|   \\  /    A nd           | Web:      www.OpenFOAM.org                      |
|    \\/     M anipulation  |                                                 |
\*---------------------------------------------------------------------------*/
FoamFile
{
    version     2.0;
    format      ascii;
    class       volScalarField;
    location    "9.65";
    object      epsilon_0;
}
// * * * * * * * * * * * * * * * * * * * * * * * * * * * * * * * * * * * * * //

dimensions      [0 2 -3 0 0 0 0];

internalField   nonuniform List<scalar> 
360
(
1.60309e-27
1e-20
1e-20
1e-20
1e-20
1e-20
1e-20
1e-20
1e-20
1e-20
1e-20
1e-20
1e-20
1e-20
1e-20
1e-20
1e-20
1e-20
1e-20
1e-20
1e-20
1e-20
1e-20
1e-20
1e-20
1e-20
1e-20
1e-20
1e-20
1e-20
1e-20
1e-20
1e-20
1e-20
1e-20
1e-20
1e-20
1e-20
1e-20
1e-20
1e-20
1e-20
1e-20
1e-20
1e-20
1e-20
1e-20
1e-20
1e-20
1e-20
1e-20
1e-20
1e-20
1e-20
1e-20
1e-20
1e-20
1e-20
1e-20
1e-20
1e-20
1e-20
1e-20
1e-20
1e-20
1e-20
1e-20
1e-20
1e-20
1e-20
1e-20
1e-20
1e-20
1e-20
1e-20
1e-20
1e-20
1e-20
1e-20
1e-20
1e-20
1e-20
1e-20
1e-20
1e-20
1e-20
1e-20
1e-20
1e-20
1e-20
1e-20
1e-20
1e-20
1e-20
1e-20
1e-20
1e-20
1e-20
1e-20
1e-20
1e-20
1e-20
1e-20
1e-20
1e-20
1e-20
1e-20
1e-20
1e-20
1e-20
1e-20
1e-20
1e-20
1e-20
1e-20
1e-20
1e-20
1e-20
1e-20
1e-20
1e-20
1e-20
1e-20
1e-20
1e-20
1e-20
2.16874e-20
1.14917e-19
6.49356e-19
3.61793e-18
1.98424e-17
1.07705e-16
5.84425e-16
3.22346e-15
1.85487e-14
1.15545e-13
8.15109e-13
6.79402e-12
6.87666e-11
8.58487e-10
1.3487e-08
2.74021e-07
7.34463e-06
0.000248147
0.00795338
0.0860218
0.166037
0.187757
0.191338
0.188142
0.182229
0.175266
0.167994
0.160816
0.153937
0.147448
0.141376
0.135712
0.130431
0.125501
0.120886
0.116554
0.112474
0.108618
0.104964
0.101488
0.0981738
0.0950041
0.0919651
0.0890447
0.0862322
0.083518
0.0808941
0.078353
0.0758885
0.0734946
0.0711664
0.0688994
0.0666896
0.0645332
0.0624272
0.0603686
0.058355
0.0563839
0.0544535
0.052562
0.0507077
0.0488893
0.0471056
0.0453556
0.0436385
0.0419534
0.0402998
0.0386772
0.0370853
0.0355236
0.0339921
0.0324906
0.0310192
0.0295779
0.0281671
0.0267728
0.0253829
0.0239992
0.0226239
0.0212594
0.0199082
0.0185736
0.0172586
0.0159671
0.0147031
0.013471
0.0122756
0.011122
0.0100155
0.00896182
0.00796632
0.00703435
0.00617072
0.00537945
0.00466344
0.00402414
0.00346127
0.00297273
0.00255457
0.00220132
0.00190637
0.00166248
0.00146229
0.00129881
0.00116566
0.00105727
0.000968905
0.000896619
0.000837177
0.000787947
0.000746792
0.000711977
0.000682091
0.000655979
0.00063269
0.000611438
0.000591572
0.000572548
0.000553914
0.000535295
0.000516386
0.000496939
0.00047676
0.000455706
0.00043368
0.000410628
0.00038654
0.000361449
0.000335427
0.00030859
0.000281094
0.000253136
0.000224955
0.00019683
0.00016908
0.000142058
0.000116152
9.17766e-05
6.93625e-05
4.93487e-05
3.21678e-05
1.8232e-05
7.94101e-06
1.77526e-06
1.01624e-07
1.43974e-09
1.52027e-11
1.52932e-13
1.47511e-15
1.36801e-17
1.30023e-19
1.01279e-20
1e-20
1e-20
1e-20
1e-20
1e-20
1e-20
1e-20
1e-20
1e-20
1e-20
1e-20
1e-20
1e-20
1e-20
1e-20
1e-20
1e-20
1e-20
1e-20
1e-20
1e-20
1e-20
1e-20
1e-20
1e-20
1e-20
1e-20
1e-20
1e-20
1e-20
1e-20
1e-20
1e-20
1e-20
1e-20
1e-20
1e-20
1e-20
1e-20
1e-20
1e-20
1e-20
1e-20
1e-20
1e-20
1e-20
1e-20
1e-20
1e-20
1e-20
1e-20
1e-20
1e-20
1e-20
1e-20
1e-20
1e-20
1e-20
1e-20
1e-20
1e-20
1e-20
1e-20
1e-20
1e-20
1e-20
1e-20
1e-20
1e-20
1e-20
1e-20
1e-20
1e-20
1e-20
1e-20
1e-20
1e-20
1e-20
1e-20
1e-20
1e-20
1e-20
)
;

boundaryField
{
    inandouthalf11
    {
        type            cyclic;
    }
    inandouthalf12
    {
        type            cyclic;
    }
    inandouthalf21
    {
        type            cyclic;
    }
    inandouthalf22
    {
        type            cyclic;
    }
    inandouthalf31
    {
        type            cyclic;
    }
    inandouthalf32
    {
        type            cyclic;
    }
    inandouthalf41
    {
        type            cyclic;
    }
    inandouthalf42
    {
        type            cyclic;
    }
    top
    {
        type            symmetryPlane;
    }
    walls
    {
        type            zeroGradient;
    }
    frontAndBackPlanes
    {
        type            empty;
    }
}


// ************************************************************************* //
