/*--------------------------------*- C++ -*----------------------------------*\
| =========                 |                                                 |
| \\      /  F ield         | OpenFOAM: The Open Source CFD Toolbox           |
|  \\    /   O peration     | Version:  2.4.x                                 |
|   \\  /    A nd           | Web:      www.OpenFOAM.org                      |
|    \\/     M anipulation  |                                                 |
\*---------------------------------------------------------------------------*/
FoamFile
{
    version     2.0;
    format      ascii;
    class       volScalarField;
    location    "9.65";
    object      k;
}
// * * * * * * * * * * * * * * * * * * * * * * * * * * * * * * * * * * * * * //

dimensions      [0 2 -2 0 0 0 0];

internalField   nonuniform List<scalar> 
360
(
1e-20
1e-20
1e-20
1e-20
1e-20
1e-20
1e-20
1e-20
1e-20
1e-20
1e-20
1e-20
1e-20
1e-20
1e-20
1e-20
1e-20
1e-20
1e-20
1e-20
1e-20
1e-20
1e-20
1e-20
1e-20
1e-20
1e-20
1e-20
1e-20
1e-20
1e-20
1e-20
1e-20
1e-20
1e-20
1e-20
1e-20
1e-20
1e-20
1e-20
1e-20
1e-20
1e-20
1e-20
1e-20
1e-20
1e-20
1e-20
1e-20
1e-20
1e-20
1e-20
1e-20
1e-20
1e-20
1e-20
1e-20
1e-20
1e-20
1e-20
1e-20
1e-20
1e-20
1e-20
1e-20
1e-20
1e-20
1e-20
1e-20
1e-20
1e-20
1e-20
1e-20
1e-20
1e-20
1e-20
1e-20
1e-20
1e-20
1e-20
1e-20
1e-20
1e-20
1e-20
1e-20
1e-20
1e-20
1e-20
1e-20
1e-20
1e-20
1e-20
1e-20
1e-20
1e-20
1e-20
1e-20
1e-20
1e-20
1e-20
1e-20
1e-20
1e-20
1e-20
1e-20
1e-20
1e-20
1e-20
1e-20
1e-20
1e-20
1e-20
1e-20
1e-20
1e-20
1e-20
1e-20
1e-20
1e-20
1e-20
1e-20
1e-20
1e-20
1e-20
1e-20
1e-20
1.86925e-20
9.19734e-20
4.90073e-19
2.55967e-18
1.30384e-17
6.49393e-17
3.18323e-16
1.55514e-15
7.73962e-15
4.06113e-14
2.35463e-13
1.5844e-12
1.27844e-11
1.25522e-10
1.52743e-09
2.37731e-08
4.93327e-07
1.27452e-05
0.000309813
0.0026468
0.00541599
0.00698589
0.00802138
0.00876969
0.00934671
0.00981634
0.0102153
0.0105626
0.0108703
0.0111458
0.011394
0.011618
0.0118196
0.0120001
0.0121604
0.0123013
0.0124234
0.0125271
0.0126133
0.0126823
0.0127348
0.0127714
0.0127927
0.0127993
0.0127917
0.0127705
0.0127361
0.0126893
0.0126304
0.0125599
0.0124783
0.0123861
0.0122836
0.0121714
0.0120498
0.0119192
0.01178
0.0116325
0.0114772
0.0113143
0.0111443
0.0109675
0.0107841
0.0105947
0.0103994
0.0101984
0.00999217
0.00978087
0.00956483
0.00934437
0.00911983
0.00889154
0.00865987
0.00842517
0.00818782
0.00794577
0.00769683
0.00744125
0.00717933
0.00691142
0.00663799
0.00635957
0.00607683
0.00579055
0.00550163
0.00521116
0.00492035
0.00463062
0.00434351
0.00406079
0.00378437
0.00351629
0.00325871
0.00301377
0.00278355
0.0025699
0.0023743
0.00219776
0.00204067
0.0019028
0.00178332
0.0016809
0.00159386
0.00152035
0.00145847
0.0014064
0.00136245
0.00132513
0.00129312
0.0012653
0.00124067
0.00121841
0.00119779
0.00117818
0.00115904
0.00113988
0.00112027
0.00109984
0.00107827
0.00105525
0.00103054
0.00100392
0.000975202
0.000944234
0.000910902
0.000875121
0.000836846
0.000796068
0.000752818
0.000707172
0.000659253
0.000609234
0.000557346
0.000503884
0.00044921
0.000393765
0.000338075
0.000282763
0.000228561
0.000176329
0.000127084
8.20657e-05
4.29588e-05
1.25052e-05
9.10091e-07
1.38122e-08
1.46646e-10
1.48224e-12
1.43747e-14
1.34078e-16
1.21167e-18
1.85056e-20
1e-20
1e-20
1e-20
1e-20
1e-20
1e-20
1e-20
1e-20
1e-20
1e-20
1e-20
1e-20
1e-20
1e-20
1e-20
1e-20
1e-20
1e-20
1e-20
1e-20
1e-20
1e-20
1e-20
1e-20
1e-20
1e-20
1e-20
1e-20
1e-20
1e-20
1e-20
1e-20
1e-20
1e-20
1e-20
1e-20
1e-20
1e-20
1e-20
1e-20
1e-20
1e-20
1e-20
1e-20
1e-20
1e-20
1e-20
1e-20
1e-20
1e-20
1e-20
1e-20
1e-20
1e-20
1e-20
1e-20
1e-20
1e-20
1e-20
1e-20
1e-20
1e-20
1e-20
1e-20
1e-20
1e-20
1e-20
1e-20
1e-20
1e-20
1e-20
1e-20
1e-20
1e-20
1e-20
1e-20
1e-20
1e-20
1e-20
1e-20
1e-20
1e-20
)
;

boundaryField
{
    inandouthalf11
    {
        type            cyclic;
    }
    inandouthalf12
    {
        type            cyclic;
    }
    inandouthalf21
    {
        type            cyclic;
    }
    inandouthalf22
    {
        type            cyclic;
    }
    inandouthalf31
    {
        type            cyclic;
    }
    inandouthalf32
    {
        type            cyclic;
    }
    inandouthalf41
    {
        type            cyclic;
    }
    inandouthalf42
    {
        type            cyclic;
    }
    top
    {
        type            symmetryPlane;
    }
    walls
    {
        type            zeroGradient;
    }
    frontAndBackPlanes
    {
        type            empty;
    }
}


// ************************************************************************* //
