/*--------------------------------*- C++ -*----------------------------------*\
| =========                 |                                                 |
| \\      /  F ield         | OpenFOAM: The Open Source CFD Toolbox           |
|  \\    /   O peration     | Version:  2.4.x                                 |
|   \\  /    A nd           | Web:      www.OpenFOAM.org                      |
|    \\/     M anipulation  |                                                 |
\*---------------------------------------------------------------------------*/
FoamFile
{
    version     2.0;
    format      ascii;
    class       volScalarField;
    location    "9.65";
    object      nutb;
}
// * * * * * * * * * * * * * * * * * * * * * * * * * * * * * * * * * * * * * //

dimensions      [0 2 -1 0 0 0 0];

internalField   nonuniform List<scalar> 
360
(
9e-22
9e-22
9e-22
9e-22
9e-22
9e-22
9e-22
9e-22
9e-22
9e-22
9e-22
9e-22
9e-22
9e-22
9e-22
9e-22
9e-22
9e-22
9e-22
9e-22
9e-22
9e-22
9e-22
9e-22
9e-22
9e-22
9e-22
9e-22
9e-22
9e-22
9e-22
9e-22
9e-22
9e-22
9e-22
9e-22
9e-22
9e-22
9e-22
9e-22
9e-22
9e-22
9e-22
9e-22
9e-22
9e-22
9e-22
9e-22
9e-22
9e-22
9e-22
9e-22
9e-22
9e-22
9e-22
9e-22
9e-22
9e-22
9e-22
9e-22
9e-22
9e-22
9e-22
9e-22
9e-22
9e-22
9e-22
9e-22
9e-22
9e-22
9e-22
9e-22
9e-22
9e-22
9e-22
9e-22
9e-22
9e-22
9e-22
9e-22
9e-22
9e-22
9e-22
9e-22
9e-22
9e-22
9e-22
9e-22
9e-22
9e-22
9e-22
9e-22
9e-22
9e-22
9e-22
9e-22
9e-22
9e-22
9e-22
9e-22
9e-22
9e-22
9e-22
9e-22
9e-22
9e-22
9e-22
9e-22
9e-22
9e-22
9e-22
9e-22
9e-22
9e-22
9e-22
9e-22
9e-22
9e-22
9e-22
9e-22
9e-22
9e-22
9e-22
9e-22
9e-22
9e-22
1.44926e-21
6.62232e-21
3.3282e-20
1.63001e-19
7.71348e-19
3.52616e-18
1.56192e-17
6.76094e-17
2.91103e-16
1.28704e-15
6.13483e-15
3.33364e-14
2.14524e-13
1.65735e-12
1.56286e-11
1.86413e-10
2.99596e-09
5.92008e-08
1.09068e-06
7.34469e-06
1.59116e-05
2.34047e-05
3.0277e-05
3.68028e-05
4.31607e-05
4.94978e-05
5.59229e-05
6.24593e-05
6.91067e-05
7.58518e-05
8.26726e-05
8.95417e-05
9.64284e-05
0.000103301
0.00011013
0.000116885
0.00012354
0.00013007
0.000136456
0.000142677
0.000148717
0.000154563
0.000160203
0.000165626
0.000170823
0.000175788
0.000180515
0.000184999
0.000189236
0.000193224
0.00019696
0.000200443
0.000203673
0.000206648
0.00020937
0.00021184
0.000214059
0.000216028
0.000217751
0.000219228
0.000220465
0.000221464
0.000222228
0.000222762
0.000223067
0.000223145
0.000222998
0.000222627
0.000222038
0.000221234
0.000220221
0.000219005
0.000217593
0.000215991
0.000214208
0.000212232
0.000210043
0.000207641
0.000205026
0.000202202
0.000199173
0.000195948
0.000192539
0.00018896
0.000185234
0.000181385
0.000177447
0.00017346
0.000169471
0.000165538
0.000161727
0.000158119
0.000154802
0.000151876
0.000149446
0.000147619
0.000146492
0.000146144
0.000146625
0.000147942
0.000150057
0.000152881
0.000156285
0.00016011
0.000164182
0.000168328
0.000172389
0.00017623
0.000179744
0.000182853
0.000185501
0.000187658
0.000189311
0.00019046
0.000191109
0.000191269
0.000190951
0.000190169
0.000188931
0.000187245
0.000185118
0.000182552
0.000179547
0.000176102
0.000172211
0.000167869
0.000163071
0.000157808
0.000152073
0.000145859
0.000139159
0.000131967
0.000124279
0.000116092
0.000107407
9.82243e-05
8.85509e-05
7.83951e-05
6.77692e-05
5.66881e-05
4.51681e-05
3.32264e-05
2.08961e-05
7.91316e-06
7.31075e-07
1.18773e-08
1.26786e-10
1.28762e-12
1.2555e-14
1.17778e-16
1.0123e-18
3.04252e-21
9e-22
9e-22
9e-22
9e-22
9e-22
9e-22
9e-22
9e-22
9e-22
9e-22
9e-22
9e-22
9e-22
9e-22
9e-22
9e-22
9e-22
9e-22
9e-22
9e-22
9e-22
9e-22
9e-22
9e-22
9e-22
9e-22
9e-22
9e-22
9e-22
9e-22
9e-22
9e-22
9e-22
9e-22
9e-22
9e-22
9e-22
9e-22
9e-22
9e-22
9e-22
9e-22
9e-22
9e-22
9e-22
9e-22
9e-22
9e-22
9e-22
9e-22
9e-22
9e-22
9e-22
9e-22
9e-22
9e-22
9e-22
9e-22
9e-22
9e-22
9e-22
9e-22
9e-22
9e-22
9e-22
9e-22
9e-22
9e-22
9e-22
9e-22
9e-22
9e-22
9e-22
9e-22
9e-22
9e-22
9e-22
9e-22
9e-22
9e-22
9e-22
9e-22
)
;

boundaryField
{
    inandouthalf11
    {
        type            cyclic;
    }
    inandouthalf12
    {
        type            cyclic;
    }
    inandouthalf21
    {
        type            cyclic;
    }
    inandouthalf22
    {
        type            cyclic;
    }
    inandouthalf31
    {
        type            cyclic;
    }
    inandouthalf32
    {
        type            cyclic;
    }
    inandouthalf41
    {
        type            cyclic;
    }
    inandouthalf42
    {
        type            cyclic;
    }
    top
    {
        type            symmetryPlane;
    }
    walls
    {
        type            calculated;
        value           uniform 0;
    }
    frontAndBackPlanes
    {
        type            empty;
    }
}


// ************************************************************************* //
