/*--------------------------------*- C++ -*----------------------------------*\
| =========                 |                                                 |
| \\      /  F ield         | OpenFOAM: The Open Source CFD Toolbox           |
|  \\    /   O peration     | Version:  2.4.x                                 |
|   \\  /    A nd           | Web:      www.OpenFOAM.org                      |
|    \\/     M anipulation  |                                                 |
\*---------------------------------------------------------------------------*/
FoamFile
{
    version     2.0;
    format      ascii;
    class       volScalarField;
    location    "9.65";
    object      p;
}
// * * * * * * * * * * * * * * * * * * * * * * * * * * * * * * * * * * * * * //

dimensions      [1 -1 -2 0 0 0 0];

internalField   nonuniform List<scalar> 
360
(
4905.87
4900.96
4896.06
4891.15
4886.25
4881.34
4876.43
4871.53
4866.62
4861.72
4856.81
4851.91
4847
4842.09
4837.19
4832.28
4827.37
4822.47
4817.56
4812.66
4807.75
4802.84
4797.93
4793.03
4788.12
4783.21
4778.31
4773.4
4768.49
4763.58
4758.67
4753.77
4748.86
4743.95
4739.04
4734.13
4729.22
4724.32
4719.41
4714.5
4709.59
4704.68
4699.77
4694.86
4689.95
4685.04
4680.13
4675.22
4670.31
4665.4
4660.49
4655.58
4650.67
4645.76
4640.85
4635.94
4631.02
4626.11
4621.2
4616.29
4611.38
4606.46
4601.55
4596.64
4591.73
4586.82
4581.9
4576.99
4572.08
4567.16
4562.25
4557.34
4552.42
4547.51
4542.6
4537.68
4532.77
4527.85
4522.94
4518.03
4513.11
4508.2
4503.28
4498.37
4493.45
4488.54
4483.62
4478.71
4473.79
4468.88
4463.96
4459.05
4454.13
4449.21
4444.3
4439.38
4434.47
4429.55
4424.63
4419.72
4414.8
4409.89
4404.97
4400.05
4395.14
4390.22
4385.3
4380.39
4375.47
4370.55
4365.64
4360.72
4355.8
4350.89
4345.97
4341.05
4336.14
4331.22
4326.3
4321.39
4316.47
4311.55
4306.63
4301.72
4296.8
4291.88
4286.97
4282.05
4277.13
4272.21
4267.3
4262.38
4257.46
4252.54
4247.63
4242.71
4237.79
4232.88
4227.96
4223.04
4218.13
4213.21
4208.31
4203.3
4198.3
4188.15
4179.11
4171.62
4164.75
4158.23
4151.94
4145.78
4139.73
4133.77
4127.9
4122.12
4116.41
4110.77
4105.21
4099.7
4094.25
4088.86
4083.51
4078.22
4072.96
4067.74
4062.56
4057.41
4052.29
4047.2
4042.14
4037.1
4032.08
4027.08
4022.11
4017.15
4012.2
4007.28
4002.36
3997.46
3992.58
3987.7
3982.84
3977.98
3973.14
3968.31
3963.48
3958.66
3953.85
3949.04
3944.25
3939.46
3934.67
3929.89
3925.12
3920.34
3915.58
3910.81
3906.05
3901.3
3896.54
3891.74
3886.84
3881.85
3876.76
3871.56
3866.26
3860.85
3855.33
3849.7
3843.95
3838.08
3832.1
3825.98
3819.74
3813.36
3806.84
3800.19
3793.39
3786.43
3779.33
3772.07
3764.64
3757.05
3749.29
3741.35
3733.24
3724.96
3716.49
3707.84
3699.01
3689.99
3680.78
3671.38
3661.79
3651.99
3642
3631.8
3621.39
3610.77
3599.94
3588.88
3577.6
3566.09
3554.35
3542.37
3530.15
3517.68
3504.96
3491.98
3478.74
3465.23
3451.45
3437.39
3423.05
3408.41
3393.48
3378.25
3362.71
3346.85
3330.67
3314.17
3297.33
3280.14
3262.6
3244.71
3226.45
3207.82
3188.8
3169.39
3149.58
3129.35
3108.72
3087.66
3066.18
3044.26
3021.9
2999.08
2975.8
2952.05
2927.81
2903.09
2877.86
2852.12
2825.86
2799.06
2771.72
2743.82
2715.36
2686.32
2656.7
2626.47
2595.62
2564.15
2532.05
2499.29
2465.86
2431.76
2396.96
2361.46
2325.24
2288.28
2250.57
2212.1
2172.85
2132.8
2091.93
2050.24
2007.7
1964.3
1922.76
1883.52
1844.28
1805.04
1765.8
1726.56
1687.32
1648.08
1608.84
1569.6
1530.36
1491.12
1451.88
1412.64
1373.4
1334.16
1294.92
1255.68
1216.44
1177.2
1137.96
1098.72
1059.48
1020.24
981
941.76
902.52
863.28
824.04
784.8
745.56
706.32
667.08
627.84
588.6
549.36
510.12
470.88
431.64
392.4
353.16
313.92
274.68
235.44
196.2
156.96
117.72
78.48
39.24
1.39959e-07
)
;

boundaryField
{
    inandouthalf11
    {
        type            cyclic;
    }
    inandouthalf12
    {
        type            cyclic;
    }
    inandouthalf21
    {
        type            cyclic;
    }
    inandouthalf22
    {
        type            cyclic;
    }
    inandouthalf31
    {
        type            cyclic;
    }
    inandouthalf32
    {
        type            cyclic;
    }
    inandouthalf41
    {
        type            cyclic;
    }
    inandouthalf42
    {
        type            cyclic;
    }
    top
    {
        type            symmetryPlane;
    }
    walls
    {
        type            slip;
    }
    frontAndBackPlanes
    {
        type            empty;
    }
}


// ************************************************************************* //
