/*--------------------------------*- C++ -*----------------------------------*\
| =========                 |                                                 |
| \\      /  F ield         | OpenFOAM: The Open Source CFD Toolbox           |
|  \\    /   O peration     | Version:  2.4.x                                 |
|   \\  /    A nd           | Web:      www.OpenFOAM.org                      |
|    \\/     M anipulation  |                                                 |
\*---------------------------------------------------------------------------*/
FoamFile
{
    version     2.0;
    format      ascii;
    class       volScalarField;
    location    "9.65";
    object      pa;
}
// * * * * * * * * * * * * * * * * * * * * * * * * * * * * * * * * * * * * * //

dimensions      [1 -1 -2 0 0 0 0];

internalField   nonuniform List<scalar> 
360
(
2.90348e-16
2.92851e-16
2.93115e-16
2.92855e-16
2.92732e-16
2.92693e-16
2.92644e-16
2.92581e-16
2.92516e-16
2.9245e-16
2.92384e-16
2.92317e-16
2.9225e-16
2.92183e-16
2.92114e-16
2.92045e-16
2.91975e-16
2.91905e-16
2.91834e-16
2.91762e-16
2.91689e-16
2.91616e-16
2.91542e-16
2.91467e-16
2.91391e-16
2.91314e-16
2.91237e-16
2.91159e-16
2.9108e-16
2.91e-16
2.9092e-16
2.90838e-16
2.90756e-16
2.90672e-16
2.90589e-16
2.90504e-16
2.90418e-16
2.90331e-16
2.90243e-16
2.90155e-16
2.90065e-16
2.89974e-16
2.89883e-16
2.8979e-16
2.89697e-16
2.89602e-16
2.89506e-16
2.8941e-16
2.89312e-16
2.89212e-16
2.89113e-16
2.89012e-16
2.88909e-16
2.88805e-16
2.88701e-16
2.88594e-16
2.88488e-16
2.88379e-16
2.88269e-16
2.88158e-16
2.88045e-16
2.87931e-16
2.87815e-16
2.87699e-16
2.8758e-16
2.8746e-16
2.87339e-16
2.87216e-16
2.87091e-16
2.86965e-16
2.86837e-16
2.86707e-16
2.86576e-16
2.86442e-16
2.86307e-16
2.8617e-16
2.86031e-16
2.8589e-16
2.85747e-16
2.85601e-16
2.85454e-16
2.85304e-16
2.85152e-16
2.84998e-16
2.84841e-16
2.84681e-16
2.84519e-16
2.84355e-16
2.84187e-16
2.84017e-16
2.83844e-16
2.83668e-16
2.83488e-16
2.83306e-16
2.8312e-16
2.8293e-16
2.82737e-16
2.82541e-16
2.8234e-16
2.82136e-16
2.81927e-16
2.81714e-16
2.81497e-16
2.81275e-16
2.81048e-16
2.80816e-16
2.80579e-16
2.80337e-16
2.80089e-16
2.79836e-16
2.79576e-16
2.7931e-16
2.79038e-16
2.78758e-16
2.78472e-16
2.78178e-16
2.77876e-16
2.77566e-16
2.77248e-16
2.7692e-16
2.76583e-16
2.76236e-16
2.75879e-16
2.7551e-16
2.75129e-16
2.74736e-16
5.12311e-16
2.51694e-15
1.33928e-14
6.98512e-14
3.55276e-13
1.76674e-12
8.64602e-12
4.21643e-11
2.09429e-10
1.09648e-09
6.34156e-09
4.25558e-08
3.4241e-07
3.35468e-06
4.11649e-05
0.000809137
0.0357336
0.918031
6.45634
7.52319
7.65479
7.13186
6.45415
5.75244
5.05739
4.43838
3.89937
3.43087
3.02465
2.67283
2.36804
2.10354
1.8734
1.67248
1.49643
1.34159
1.2049
1.0838
0.976146
0.880143
0.794283
0.717302
0.648117
0.585814
0.529608
0.478823
0.432876
0.391257
0.353526
0.319292
0.288214
0.259987
0.234341
0.211036
0.189857
0.170608
0.153116
0.137221
0.122778
0.109654
0.0977264
0.0868884
0.0770635
0.068212
0.0603542
0.0534436
0.0473519
0.041968
0.0372022
0.032977
0.0292264
0.0258942
0.0229315
0.0202961
0.0179508
0.0158423
0.0139317
0.0122044
0.0106465
0.00924452
0.00798478
0.0068536
0.00583747
0.0049244
0.0041057
0.0033775
0.0027402
0.00219566
0.00174331
0.0013776
0.0010882
0.000862158
0.000686403
0.0005494
0.000441866
0.000356622
0.000288371
0.000233146
0.000188108
0.000151094
0.000120583
9.5324e-05
7.46183e-05
5.73351e-05
4.37062e-05
3.19527e-05
2.3481e-05
1.55583e-05
1.06709e-05
5.28206e-06
0
0
0
0
0
0
0
0
0
0
0
0
0
0
0
0
0
0
0
0
0
0
0
0
0
0
0
0
0
0
0
0
0
0
0
0
0
0
0
0
0
0
0
0
0
0
0
0
0
0
0
0
0
0
0
0
0
0
0
0
0
0
0
0
0
0
0
0
0
0
0
0
0
0
0
0
0
0
0
0
0
0
0
0
0
0
0
0
0
0
0
0
0
0
0
0
0
0
0
0
0
0
0
0
0
0
0
0
0
0
0
0
0
0
0
0
0
0
0
0
0
0
0
0
)
;

boundaryField
{
    inandouthalf11
    {
        type            cyclic;
    }
    inandouthalf12
    {
        type            cyclic;
    }
    inandouthalf21
    {
        type            cyclic;
    }
    inandouthalf22
    {
        type            cyclic;
    }
    inandouthalf31
    {
        type            cyclic;
    }
    inandouthalf32
    {
        type            cyclic;
    }
    inandouthalf41
    {
        type            cyclic;
    }
    inandouthalf42
    {
        type            cyclic;
    }
    top
    {
        type            symmetryPlane;
    }
    walls
    {
        type            calculated;
        value           uniform 2.90348e-16;
    }
    frontAndBackPlanes
    {
        type            empty;
    }
}


// ************************************************************************* //
