/*--------------------------------*- C++ -*----------------------------------*\
| =========                 |                                                 |
| \\      /  F ield         | OpenFOAM: The Open Source CFD Toolbox           |
|  \\    /   O peration     | Version:  2.4.x                                 |
|   \\  /    A nd           | Web:      www.OpenFOAM.org                      |
|    \\/     M anipulation  |                                                 |
\*---------------------------------------------------------------------------*/
FoamFile
{
    version     2.0;
    format      ascii;
    class       surfaceScalarField;
    location    "9.65";
    object      phia;
}
// * * * * * * * * * * * * * * * * * * * * * * * * * * * * * * * * * * * * * //

dimensions      [0 3 -1 0 0 0 0];

internalField   nonuniform List<scalar> 
359
(
-4.20402e-14
-1.04848e-13
-1.61432e-13
-2.14395e-13
-2.67985e-13
-3.22228e-13
-3.76509e-13
-4.30843e-13
-4.85506e-13
-5.4078e-13
-5.96863e-13
-6.53868e-13
-7.11888e-13
-7.7099e-13
-8.3124e-13
-8.92698e-13
-9.5541e-13
-1.0194e-12
-1.0847e-12
-1.15131e-12
-1.21924e-12
-1.2885e-12
-1.35909e-12
-1.43099e-12
-1.50421e-12
-1.57872e-12
-1.65451e-12
-1.73156e-12
-1.80986e-12
-1.88936e-12
-1.97004e-12
-2.0519e-12
-2.13485e-12
-2.21891e-12
-2.30401e-12
-2.39012e-12
-2.47719e-12
-2.56518e-12
-2.65408e-12
-2.74376e-12
-2.83426e-12
-2.92548e-12
-3.01734e-12
-3.10985e-12
-3.20292e-12
-3.29649e-12
-3.39052e-12
-3.4849e-12
-3.5796e-12
-3.6746e-12
-3.76976e-12
-3.86507e-12
-3.96044e-12
-4.05583e-12
-4.15114e-12
-4.24635e-12
-4.34135e-12
-4.43612e-12
-4.53055e-12
-4.62457e-12
-4.71818e-12
-4.81127e-12
-4.90384e-12
-4.9958e-12
-5.08711e-12
-5.17769e-12
-5.26751e-12
-5.35651e-12
-5.44464e-12
-5.53182e-12
-5.61808e-12
-5.70337e-12
-5.78762e-12
-5.87084e-12
-5.95299e-12
-6.03407e-12
-6.114e-12
-6.19277e-12
-6.27036e-12
-6.34674e-12
-6.42188e-12
-6.4958e-12
-6.56848e-12
-6.63993e-12
-6.71014e-12
-6.7791e-12
-6.84682e-12
-6.91328e-12
-6.97846e-12
-7.04236e-12
-7.10497e-12
-7.1663e-12
-7.22635e-12
-7.28514e-12
-7.34268e-12
-7.39896e-12
-7.45401e-12
-7.50782e-12
-7.56041e-12
-7.61177e-12
-7.66192e-12
-7.71087e-12
-7.75863e-12
-7.80521e-12
-7.85062e-12
-7.89489e-12
-7.93803e-12
-7.98005e-12
-8.02097e-12
-8.06079e-12
-8.09953e-12
-8.13719e-12
-8.17379e-12
-8.20934e-12
-8.24383e-12
-8.27729e-12
-8.30971e-12
-8.34111e-12
-8.3715e-12
-8.40087e-12
-8.42921e-12
-8.45648e-12
-8.48263e-12
-8.50755e-12
-8.53114e-12
-8.55327e-12
-8.5738e-12
-8.59267e-12
-8.60983e-12
-8.62537e-12
-8.63941e-12
-8.6522e-12
-8.66401e-12
-8.67515e-12
-8.68576e-12
-8.6957e-12
-8.70433e-12
-8.71078e-12
-8.71456e-12
-8.71608e-12
-8.71645e-12
-8.71556e-12
-8.71747e-12
1.50013e-11
-5.40611e-09
-1.0127e-08
-1.28594e-08
-1.44548e-08
-1.56408e-08
-1.66377e-08
-1.75434e-08
-1.84345e-08
-1.92672e-08
-2.00284e-08
-2.07073e-08
-2.12934e-08
-2.17773e-08
-2.21521e-08
-2.24136e-08
-2.25602e-08
-2.2593e-08
-2.25151e-08
-2.23311e-08
-2.20468e-08
-2.16688e-08
-2.12042e-08
-2.06602e-08
-2.0044e-08
-1.93629e-08
-1.86234e-08
-1.78322e-08
-1.69955e-08
-1.6119e-08
-1.52084e-08
-1.42689e-08
-1.33058e-08
-1.2324e-08
-1.13285e-08
-1.03246e-08
-9.31777e-09
-8.31381e-09
-7.31935e-09
-6.34204e-09
-5.39108e-09
-4.47821e-09
-3.61865e-09
-2.83074e-09
-2.13178e-09
-1.52218e-09
-9.60202e-10
-3.3362e-10
3.99364e-10
1.21996e-09
2.12431e-09
3.1057e-09
4.15714e-09
5.27224e-09
6.44479e-09
7.66857e-09
8.93725e-09
1.02443e-08
1.16104e-08
1.303e-08
1.44964e-08
1.6001e-08
1.75322e-08
1.90734e-08
2.06004e-08
2.20782e-08
2.34603e-08
2.46921e-08
2.57204e-08
2.65057e-08
2.70334e-08
2.73167e-08
2.73904e-08
2.73006e-08
2.70948e-08
2.68151e-08
2.64956e-08
2.61623e-08
2.58336e-08
2.55223e-08
2.52358e-08
2.49782e-08
2.47499e-08
2.45501e-08
2.4373e-08
2.42197e-08
2.407e-08
2.39464e-08
2.37834e-08
2.36727e-08
2.34141e-08
2.33508e-08
2.2485e-08
1.49054e-08
1.52299e-08
1.48954e-08
1.43408e-08
1.39934e-08
1.36891e-08
1.34624e-08
1.33141e-08
1.31033e-08
1.32053e-08
1.24487e-08
1.34284e-08
1.07018e-08
1.6143e-08
-4.11734e-08
-1.4037e-07
-1.58282e-07
-1.58237e-07
-1.58245e-07
-1.58249e-07
-1.58252e-07
-1.58254e-07
-1.58254e-07
-1.58253e-07
-1.58251e-07
-1.58247e-07
-1.5824e-07
-1.58232e-07
-1.58221e-07
-1.58207e-07
-1.58191e-07
-1.58169e-07
-1.58141e-07
-1.58089e-07
-1.58064e-07
-1.58064e-07
-1.58064e-07
-1.58064e-07
-1.58064e-07
-1.58064e-07
-1.58064e-07
-1.58064e-07
-1.58064e-07
-1.58064e-07
-1.58064e-07
-1.58064e-07
-1.58064e-07
-1.58064e-07
-1.58064e-07
-1.58064e-07
-1.58064e-07
-1.58064e-07
-1.58064e-07
-1.58064e-07
-1.58064e-07
-1.58064e-07
-1.58064e-07
-1.58064e-07
-1.58064e-07
-1.58064e-07
-1.58064e-07
-1.58064e-07
-1.58064e-07
-1.58064e-07
-1.58064e-07
-1.58064e-07
-1.58064e-07
-1.58064e-07
-1.58064e-07
-1.58064e-07
-1.58064e-07
-1.58064e-07
-1.58064e-07
-1.58064e-07
-1.58064e-07
-1.58064e-07
-1.58064e-07
-1.58064e-07
-1.58064e-07
-1.58064e-07
-1.58064e-07
-1.58064e-07
-1.58064e-07
-1.58064e-07
-1.58064e-07
-1.58064e-07
-1.58064e-07
-1.58064e-07
-1.58064e-07
-1.58064e-07
-1.58064e-07
-1.58064e-07
-1.58064e-07
-1.58064e-07
-1.58064e-07
-1.58064e-07
-1.58064e-07
-1.58064e-07
-1.58064e-07
-1.58064e-07
-1.58064e-07
-1.58064e-07
-1.58064e-07
-1.58064e-07
-1.58064e-07
-1.58064e-07
-1.58064e-07
-1.58064e-07
-1.58064e-07
-1.58064e-07
-1.58064e-07
-1.58064e-07
-1.58064e-07
-1.58064e-07
-1.58064e-07
-1.58064e-07
-1.58064e-07
-1.58064e-07
-1.58064e-07
-1.58063e-07
-1.58046e-07
-1.57338e-07
-1.32395e-07
)
;

boundaryField
{
    inandouthalf11
    {
        type            cyclic;
        value           nonuniform List<scalar> 
100
(
-7.60871e-39
-2.05184e-15
-4.23883e-15
-6.18064e-15
-8.15278e-15
-1.02143e-14
-1.23244e-14
-1.44686e-14
-1.66566e-14
-1.89007e-14
-2.12111e-14
-2.3595e-14
-2.60577e-14
-2.86038e-14
-3.12375e-14
-3.39629e-14
-3.67841e-14
-3.97042e-14
-4.27261e-14
-4.58522e-14
-4.90847e-14
-5.24255e-14
-5.58765e-14
-5.94396e-14
-6.3116e-14
-6.69069e-14
-7.08133e-14
-7.48363e-14
-7.89767e-14
-8.3235e-14
-8.76113e-14
-9.21061e-14
-9.67193e-14
-1.01451e-13
-1.06301e-13
-1.11268e-13
-1.16352e-13
-1.21552e-13
-1.26867e-13
-1.32296e-13
-1.37837e-13
-1.43489e-13
-1.4925e-13
-1.55118e-13
-1.61091e-13
-1.67166e-13
-1.73342e-13
-1.79615e-13
-1.8598e-13
-1.92438e-13
-1.98984e-13
-2.05614e-13
-2.12325e-13
-2.19113e-13
-2.25975e-13
-2.32906e-13
-2.39903e-13
-2.46961e-13
-2.54074e-13
-2.61239e-13
-2.68451e-13
-2.75706e-13
-2.83001e-13
-2.90331e-13
-2.97692e-13
-3.05078e-13
-3.12485e-13
-3.19909e-13
-3.27344e-13
-3.34785e-13
-3.42229e-13
-3.49673e-13
-3.57113e-13
-3.64545e-13
-3.71967e-13
-3.79376e-13
-3.86768e-13
-3.94137e-13
-4.01481e-13
-4.08796e-13
-4.16079e-13
-4.23327e-13
-4.30539e-13
-4.37715e-13
-4.44852e-13
-4.51948e-13
-4.59003e-13
-4.66013e-13
-4.72977e-13
-4.79891e-13
-4.86754e-13
-4.93564e-13
-5.00321e-13
-5.07023e-13
-5.13672e-13
-5.20267e-13
-5.26807e-13
-5.33292e-13
-5.39722e-13
-5.46096e-13
)
;
    }
    inandouthalf12
    {
        type            cyclic;
        value           nonuniform List<scalar> 
100
(
7.60871e-39
2.05184e-15
4.23883e-15
6.18064e-15
8.15278e-15
1.02143e-14
1.23244e-14
1.44686e-14
1.66566e-14
1.89007e-14
2.12111e-14
2.3595e-14
2.60577e-14
2.86038e-14
3.12375e-14
3.39629e-14
3.67841e-14
3.97042e-14
4.27261e-14
4.58522e-14
4.90847e-14
5.24255e-14
5.58765e-14
5.94396e-14
6.3116e-14
6.69069e-14
7.08133e-14
7.48363e-14
7.89767e-14
8.3235e-14
8.76113e-14
9.21061e-14
9.67193e-14
1.01451e-13
1.06301e-13
1.11268e-13
1.16352e-13
1.21552e-13
1.26867e-13
1.32296e-13
1.37837e-13
1.43489e-13
1.4925e-13
1.55118e-13
1.61091e-13
1.67166e-13
1.73342e-13
1.79615e-13
1.8598e-13
1.92438e-13
1.98984e-13
2.05614e-13
2.12325e-13
2.19113e-13
2.25975e-13
2.32906e-13
2.39903e-13
2.46961e-13
2.54074e-13
2.61239e-13
2.68451e-13
2.75706e-13
2.83001e-13
2.90331e-13
2.97692e-13
3.05078e-13
3.12485e-13
3.19909e-13
3.27344e-13
3.34785e-13
3.42229e-13
3.49673e-13
3.57113e-13
3.64545e-13
3.71967e-13
3.79376e-13
3.86768e-13
3.94137e-13
4.01481e-13
4.08796e-13
4.16079e-13
4.23327e-13
4.30539e-13
4.37715e-13
4.44852e-13
4.51948e-13
4.59003e-13
4.66013e-13
4.72977e-13
4.79891e-13
4.86754e-13
4.93564e-13
5.00321e-13
5.07023e-13
5.13672e-13
5.20267e-13
5.26807e-13
5.33292e-13
5.39722e-13
5.46096e-13
)
;
    }
    inandouthalf21
    {
        type            cyclic;
        value           nonuniform List<scalar> 
100
(
-5.52413e-13
-5.58675e-13
-5.64881e-13
-5.71032e-13
-5.77129e-13
-5.83173e-13
-5.89166e-13
-5.95109e-13
-6.01004e-13
-6.06852e-13
-6.12655e-13
-6.18414e-13
-6.24131e-13
-6.29807e-13
-6.35445e-13
-6.41047e-13
-6.46615e-13
-6.52152e-13
-6.57662e-13
-6.63148e-13
-6.68609e-13
-6.74045e-13
-6.79448e-13
-6.84805e-13
-6.90095e-13
-6.95288e-13
-7.00351e-13
-7.0525e-13
-7.09961e-13
-7.14474e-13
-7.18804e-13
-7.22999e-13
-7.27139e-13
-7.31339e-13
-7.35721e-13
-7.40347e-13
-7.45093e-13
-7.49533e-13
-7.53006e-13
-7.55038e-13
-7.55834e-13
-7.56081e-13
-7.56245e-13
-7.56904e-13
-4.68204e-10
-8.205e-08
-1.81051e-07
-2.63467e-07
-3.32666e-07
-3.92191e-07
-4.4435e-07
-4.90623e-07
-5.31975e-07
-5.69172e-07
-6.0285e-07
-6.33537e-07
-6.61665e-07
-6.87594e-07
-7.11625e-07
-7.34006e-07
-7.54946e-07
-7.74621e-07
-7.93179e-07
-8.10745e-07
-8.27425e-07
-8.43311e-07
-8.5848e-07
-8.73e-07
-8.86928e-07
-9.00315e-07
-9.13205e-07
-9.25636e-07
-9.37642e-07
-9.49253e-07
-9.60493e-07
-9.71387e-07
-9.81953e-07
-9.9221e-07
-1.00217e-06
-1.01185e-06
-1.02127e-06
-1.03042e-06
-1.03932e-06
-1.04799e-06
-1.05641e-06
-1.0646e-06
-1.07257e-06
-1.08032e-06
-1.08785e-06
-1.09517e-06
-1.10229e-06
-1.1092e-06
-1.11591e-06
-1.12243e-06
-1.12875e-06
-1.13488e-06
-1.14081e-06
-1.14654e-06
-1.15208e-06
-1.15741e-06
)
;
    }
    inandouthalf22
    {
        type            cyclic;
        value           nonuniform List<scalar> 
100
(
5.52413e-13
5.58675e-13
5.64881e-13
5.71032e-13
5.77129e-13
5.83173e-13
5.89166e-13
5.95109e-13
6.01004e-13
6.06852e-13
6.12655e-13
6.18414e-13
6.24131e-13
6.29807e-13
6.35445e-13
6.41047e-13
6.46615e-13
6.52152e-13
6.57662e-13
6.63148e-13
6.68609e-13
6.74045e-13
6.79448e-13
6.84805e-13
6.90095e-13
6.95288e-13
7.00351e-13
7.0525e-13
7.09961e-13
7.14474e-13
7.18804e-13
7.22999e-13
7.27139e-13
7.31339e-13
7.35721e-13
7.40347e-13
7.45093e-13
7.49533e-13
7.53006e-13
7.55038e-13
7.55834e-13
7.56081e-13
7.56245e-13
7.56904e-13
4.68204e-10
8.205e-08
1.81051e-07
2.63467e-07
3.32666e-07
3.92191e-07
4.4435e-07
4.90623e-07
5.31975e-07
5.69172e-07
6.0285e-07
6.33537e-07
6.61665e-07
6.87594e-07
7.11625e-07
7.34006e-07
7.54946e-07
7.74621e-07
7.93179e-07
8.10745e-07
8.27425e-07
8.43311e-07
8.5848e-07
8.73e-07
8.86928e-07
9.00315e-07
9.13205e-07
9.25636e-07
9.37642e-07
9.49253e-07
9.60493e-07
9.71387e-07
9.81953e-07
9.9221e-07
1.00217e-06
1.01185e-06
1.02127e-06
1.03042e-06
1.03932e-06
1.04799e-06
1.05641e-06
1.0646e-06
1.07257e-06
1.08032e-06
1.08785e-06
1.09517e-06
1.10229e-06
1.1092e-06
1.11591e-06
1.12243e-06
1.12875e-06
1.13488e-06
1.14081e-06
1.14654e-06
1.15208e-06
1.15741e-06
)
;
    }
    inandouthalf31
    {
        type            cyclic;
        value           nonuniform List<scalar> 
110
(
-1.16255e-06
-1.19123e-06
-1.22048e-06
-1.25029e-06
-1.28066e-06
-1.31158e-06
-1.34306e-06
-1.37508e-06
-1.40763e-06
-1.44072e-06
-1.47433e-06
-1.50847e-06
-1.54313e-06
-1.57833e-06
-1.61407e-06
-1.65037e-06
-1.68725e-06
-1.72472e-06
-1.76281e-06
-1.80153e-06
-1.84089e-06
-1.88092e-06
-1.92162e-06
-1.96302e-06
-2.00512e-06
-2.04794e-06
-2.09149e-06
-2.1358e-06
-2.18088e-06
-2.22675e-06
-2.27341e-06
-2.3209e-06
-2.3692e-06
-2.41833e-06
-2.46828e-06
-2.51905e-06
-2.57087e-06
-2.72652e-06
-2.78298e-06
-2.83764e-06
-2.89284e-06
-2.94894e-06
-3.00595e-06
-3.06387e-06
-3.12276e-06
-3.18254e-06
-3.24347e-06
-3.30512e-06
-3.36831e-06
-3.43193e-06
-3.49695e-06
-3.55877e-06
-3.62564e-06
-3.69371e-06
-3.7635e-06
-3.83455e-06
-3.90697e-06
-3.9808e-06
-4.05611e-06
-4.13298e-06
-4.21147e-06
-4.29168e-06
-4.37371e-06
-4.45767e-06
-4.54367e-06
-4.63187e-06
-4.72239e-06
-4.8154e-06
-4.91101e-06
-5.00951e-06
-5.11086e-06
-5.21458e-06
-5.32042e-06
-5.42841e-06
-5.5386e-06
-5.65101e-06
-5.76571e-06
-5.88274e-06
-6.00215e-06
-6.12397e-06
-6.24828e-06
-6.3751e-06
-6.5045e-06
-6.63652e-06
-6.77122e-06
-6.90866e-06
-7.04889e-06
-7.19196e-06
-7.33794e-06
-7.48688e-06
-7.63884e-06
-7.79389e-06
-7.95209e-06
-8.11349e-06
-8.27818e-06
-8.4462e-06
-8.61764e-06
-8.79255e-06
-8.97102e-06
-9.15311e-06
-9.33889e-06
-9.52844e-06
-9.72185e-06
-9.91917e-06
-1.01205e-05
-1.03259e-05
-1.05355e-05
-1.07494e-05
-1.09675e-05
-1.11902e-05
)
;
    }
    inandouthalf32
    {
        type            cyclic;
        value           nonuniform List<scalar> 
110
(
1.16255e-06
1.19123e-06
1.22048e-06
1.25029e-06
1.28066e-06
1.31158e-06
1.34306e-06
1.37508e-06
1.40763e-06
1.44072e-06
1.47433e-06
1.50847e-06
1.54313e-06
1.57833e-06
1.61407e-06
1.65037e-06
1.68725e-06
1.72472e-06
1.76281e-06
1.80153e-06
1.84089e-06
1.88092e-06
1.92162e-06
1.96302e-06
2.00512e-06
2.04794e-06
2.09149e-06
2.1358e-06
2.18088e-06
2.22675e-06
2.27341e-06
2.3209e-06
2.3692e-06
2.41833e-06
2.46828e-06
2.51905e-06
2.57087e-06
2.72652e-06
2.78298e-06
2.83764e-06
2.89284e-06
2.94894e-06
3.00595e-06
3.06387e-06
3.12276e-06
3.18254e-06
3.24347e-06
3.30512e-06
3.36831e-06
3.43193e-06
3.49695e-06
3.55877e-06
3.62564e-06
3.69371e-06
3.7635e-06
3.83455e-06
3.90697e-06
3.9808e-06
4.05611e-06
4.13298e-06
4.21147e-06
4.29168e-06
4.37371e-06
4.45767e-06
4.54367e-06
4.63187e-06
4.72239e-06
4.8154e-06
4.91101e-06
5.00951e-06
5.11086e-06
5.21458e-06
5.32042e-06
5.42841e-06
5.5386e-06
5.65101e-06
5.76571e-06
5.88274e-06
6.00215e-06
6.12397e-06
6.24828e-06
6.3751e-06
6.5045e-06
6.63652e-06
6.77122e-06
6.90866e-06
7.04889e-06
7.19196e-06
7.33794e-06
7.48688e-06
7.63884e-06
7.79389e-06
7.95209e-06
8.11349e-06
8.27818e-06
8.4462e-06
8.61764e-06
8.79255e-06
8.97102e-06
9.15311e-06
9.33889e-06
9.52844e-06
9.72185e-06
9.91917e-06
1.01205e-05
1.03259e-05
1.05355e-05
1.07494e-05
1.09675e-05
1.11902e-05
)
;
    }
    inandouthalf41
    {
        type            cyclic;
        value           nonuniform List<scalar> 
50
(
-1.00163e-05
-1.00163e-05
-1.00163e-05
-1.00163e-05
-1.00163e-05
-1.00163e-05
-1.00163e-05
-1.00163e-05
-1.00163e-05
-1.00163e-05
-1.00163e-05
-1.00163e-05
-1.00163e-05
-1.00163e-05
-1.00163e-05
-1.00163e-05
-1.00163e-05
-1.00163e-05
-1.00163e-05
-1.00163e-05
-1.00163e-05
-1.00163e-05
-1.00163e-05
-1.00163e-05
-1.00163e-05
-1.00163e-05
-1.00163e-05
-1.00163e-05
-1.00163e-05
-1.00163e-05
-1.00163e-05
-1.00163e-05
-1.00163e-05
-1.00163e-05
-1.00163e-05
-1.00163e-05
-1.00163e-05
-1.00163e-05
-1.00163e-05
-1.00163e-05
-1.00163e-05
-1.00163e-05
-1.00163e-05
-1.00163e-05
-1.00163e-05
-1.00163e-05
-1.00163e-05
-1.00163e-05
-1.00165e-05
-1.00209e-05
)
;
    }
    inandouthalf42
    {
        type            cyclic;
        value           nonuniform List<scalar> 
50
(
1.00163e-05
1.00163e-05
1.00163e-05
1.00163e-05
1.00163e-05
1.00163e-05
1.00163e-05
1.00163e-05
1.00163e-05
1.00163e-05
1.00163e-05
1.00163e-05
1.00163e-05
1.00163e-05
1.00163e-05
1.00163e-05
1.00163e-05
1.00163e-05
1.00163e-05
1.00163e-05
1.00163e-05
1.00163e-05
1.00163e-05
1.00163e-05
1.00163e-05
1.00163e-05
1.00163e-05
1.00163e-05
1.00163e-05
1.00163e-05
1.00163e-05
1.00163e-05
1.00163e-05
1.00163e-05
1.00163e-05
1.00163e-05
1.00163e-05
1.00163e-05
1.00163e-05
1.00163e-05
1.00163e-05
1.00163e-05
1.00163e-05
1.00163e-05
1.00163e-05
1.00163e-05
1.00163e-05
1.00163e-05
1.00165e-05
1.00209e-05
)
;
    }
    top
    {
        type            symmetryPlane;
        value           uniform 0;
    }
    walls
    {
        type            fixedValue;
        value           uniform 0;
    }
    frontAndBackPlanes
    {
        type            empty;
        value           nonuniform 0();
    }
}


// ************************************************************************* //
