/*--------------------------------*- C++ -*----------------------------------*\
| =========                 |                                                 |
| \\      /  F ield         | OpenFOAM: The Open Source CFD Toolbox           |
|  \\    /   O peration     | Version:  2.4.x                                 |
|   \\  /    A nd           | Web:      www.OpenFOAM.org                      |
|    \\/     M anipulation  |                                                 |
\*---------------------------------------------------------------------------*/
FoamFile
{
    version     2.0;
    format      ascii;
    class       surfaceScalarField;
    location    "9.65";
    object      phib_0;
}
// * * * * * * * * * * * * * * * * * * * * * * * * * * * * * * * * * * * * * //

dimensions      [0 3 -1 0 0 0 0];

internalField   nonuniform List<scalar> 
359
(
6.61282e-14
1.65255e-13
2.54439e-13
3.37825e-13
4.22222e-13
5.07655e-13
5.93127e-13
6.78662e-13
7.64697e-13
8.51679e-13
9.39918e-13
1.02959e-12
1.12085e-12
1.21379e-12
1.30851e-12
1.40512e-12
1.50368e-12
1.60424e-12
1.70682e-12
1.81145e-12
1.91814e-12
2.02688e-12
2.13769e-12
2.25055e-12
2.36544e-12
2.48233e-12
2.60121e-12
2.72204e-12
2.84479e-12
2.96941e-12
3.09586e-12
3.2241e-12
3.35404e-12
3.48568e-12
3.61892e-12
3.75371e-12
3.88996e-12
4.02762e-12
4.16666e-12
4.3069e-12
4.44835e-12
4.59091e-12
4.73443e-12
4.87892e-12
5.02423e-12
5.1703e-12
5.31703e-12
5.46425e-12
5.61192e-12
5.76e-12
5.9083e-12
6.05677e-12
6.20527e-12
6.35375e-12
6.50204e-12
6.65013e-12
6.79783e-12
6.94509e-12
7.09178e-12
7.23774e-12
7.38301e-12
7.5274e-12
7.67091e-12
7.8134e-12
7.95479e-12
8.09498e-12
8.23391e-12
8.3715e-12
8.50765e-12
8.64225e-12
8.77532e-12
8.90682e-12
9.03661e-12
9.16471e-12
9.29107e-12
9.41567e-12
9.53842e-12
9.65926e-12
9.77817e-12
9.89512e-12
1.00101e-11
1.0123e-11
1.02339e-11
1.03428e-11
1.04497e-11
1.05546e-11
1.06574e-11
1.07582e-11
1.08569e-11
1.09535e-11
1.1048e-11
1.11404e-11
1.12307e-11
1.13189e-11
1.14051e-11
1.14892e-11
1.15713e-11
1.16514e-11
1.17294e-11
1.18054e-11
1.18794e-11
1.19514e-11
1.20215e-11
1.20895e-11
1.21557e-11
1.22199e-11
1.22822e-11
1.23426e-11
1.24012e-11
1.24579e-11
1.25128e-11
1.25658e-11
1.26171e-11
1.26665e-11
1.27141e-11
1.27599e-11
1.28039e-11
1.28461e-11
1.28865e-11
1.29251e-11
1.29619e-11
1.29968e-11
1.30297e-11
1.30604e-11
1.30888e-11
1.31147e-11
1.31377e-11
1.31579e-11
1.3175e-11
1.31893e-11
1.32009e-11
1.32101e-11
1.32173e-11
1.32228e-11
1.32268e-11
1.32291e-11
1.32286e-11
1.32236e-11
1.32127e-11
1.31966e-11
1.31769e-11
1.3045e-11
1.29039e-11
-1.9724e-11
4.43119e-09
4.94116e-09
4.91814e-09
4.75816e-09
4.53979e-09
4.28598e-09
3.99947e-09
3.70156e-09
3.4054e-09
3.11689e-09
2.83966e-09
2.57619e-09
2.32812e-09
2.09643e-09
1.88156e-09
1.68349e-09
1.50188e-09
1.33612e-09
1.18544e-09
1.04894e-09
9.25684e-10
8.14693e-10
7.15005e-10
6.25684e-10
5.45832e-10
4.74603e-10
4.11202e-10
3.54892e-10
3.04993e-10
2.60878e-10
2.21976e-10
1.87766e-10
1.57773e-10
1.31567e-10
1.08761e-10
8.90021e-11
7.1976e-11
5.73986e-11
4.5016e-11
3.46027e-11
2.59608e-11
1.89194e-11
1.33241e-11
9.01535e-12
5.77199e-12
3.25711e-12
1.00011e-12
-1.12343e-12
-3.04762e-12
-4.76548e-12
-6.27002e-12
-7.56041e-12
-8.64191e-12
-9.52338e-12
-1.02159e-11
-1.07319e-11
-1.10847e-11
-1.12902e-11
-1.13539e-11
-1.12823e-11
-1.10822e-11
-1.07602e-11
-1.03211e-11
-9.76688e-12
-9.09863e-12
-8.3206e-12
-7.44798e-12
-6.51313e-12
-5.56479e-12
-4.65777e-12
-3.83816e-12
-3.1327e-12
-2.54738e-12
-2.07318e-12
-1.69363e-12
-1.39083e-12
-1.14853e-12
-9.53301e-13
-7.94581e-13
-6.64265e-13
-5.56223e-13
-4.65844e-13
-3.89635e-13
-3.2521e-13
-2.70229e-13
-2.23891e-13
-1.8407e-13
-1.50946e-13
-1.22374e-13
-9.92312e-14
-7.89151e-14
-6.54512e-14
-4.00369e-14
-3.04541e-14
-2.08818e-14
-1.42583e-14
-9.74164e-15
-6.63213e-15
-4.49168e-15
-3.0209e-15
-1.99092e-15
-1.31378e-15
-7.90269e-16
-5.17731e-16
-2.36936e-16
-1.70526e-16
8.36485e-17
-1.43273e-17
-1.38684e-17
-1.34399e-17
-1.29298e-17
-1.24522e-17
-1.19082e-17
-1.13941e-17
-1.08211e-17
-1.0278e-17
-9.70108e-18
-9.16516e-18
-8.62198e-18
-8.15044e-18
-7.73021e-18
-7.38205e-18
-7.05867e-18
-6.76924e-18
-6.50508e-18
-6.25591e-18
-6.00908e-18
-5.77309e-18
-5.57656e-18
-5.38456e-18
-5.19149e-18
-4.98236e-18
-4.7862e-18
-4.5705e-18
-4.35182e-18
-4.12445e-18
-3.94863e-18
-3.76612e-18
-3.58688e-18
-3.38362e-18
-3.19446e-18
-2.98038e-18
-2.69779e-18
-2.45708e-18
-2.24446e-18
-2.01263e-18
-1.7782e-18
-1.5231e-18
-1.28469e-18
-1.03459e-18
-7.98406e-19
-5.87905e-19
-5.09054e-19
-4.43271e-19
-3.97331e-19
-3.18939e-19
-2.89006e-19
-2.59156e-19
-2.30817e-19
-2.03813e-19
-1.84147e-19
-1.65631e-19
-1.4916e-19
-1.3485e-19
-1.1937e-19
-1.08096e-19
-9.89068e-20
-9.36459e-20
-8.3762e-20
-7.89023e-20
-7.36753e-20
-7.45008e-20
-7.20739e-20
-7.46994e-20
-7.85499e-20
-8.77018e-20
-9.59753e-20
-1.08491e-19
-1.21603e-19
-1.3973e-19
-1.63949e-19
-1.93967e-19
-2.37034e-19
-3.14285e-19
-4.94609e-19
-7.04512e-19
-9.28678e-19
-1.1463e-18
-1.38297e-18
-1.60158e-18
-1.82391e-18
-2.01933e-18
-2.27973e-18
-2.49776e-18
-2.71667e-18
-2.87337e-18
-3.09432e-18
-3.22577e-18
-3.37178e-18
-3.43577e-18
-3.79888e-18
-4.02773e-18
-4.26528e-18
-4.29319e-18
-4.49569e-18
-4.43059e-18
-4.37617e-18
-4.18415e-18
-4.16243e-18
-3.93387e-18
-3.70565e-18
-3.42915e-18
-2.62506e-18
-2.72784e-18
-3.77189e-18
)
;

boundaryField
{
    inandouthalf11
    {
        type            cyclic;
        value           nonuniform List<scalar> 
100
(
1.82482e-10
1.81472e-10
1.8133e-10
1.81463e-10
1.81526e-10
1.81544e-10
1.81568e-10
1.81599e-10
1.81631e-10
1.81663e-10
1.81696e-10
1.81728e-10
1.81761e-10
1.81794e-10
1.81828e-10
1.81861e-10
1.81895e-10
1.8193e-10
1.81964e-10
1.81999e-10
1.82034e-10
1.8207e-10
1.82106e-10
1.82142e-10
1.82179e-10
1.82215e-10
1.82252e-10
1.8229e-10
1.82328e-10
1.82366e-10
1.82404e-10
1.82443e-10
1.82482e-10
1.82522e-10
1.82562e-10
1.82602e-10
1.82643e-10
1.82684e-10
1.82726e-10
1.82767e-10
1.8281e-10
1.82852e-10
1.82895e-10
1.82939e-10
1.82983e-10
1.83028e-10
1.83073e-10
1.83118e-10
1.83164e-10
1.83211e-10
1.83258e-10
1.83306e-10
1.83354e-10
1.83403e-10
1.83453e-10
1.83503e-10
1.83553e-10
1.83605e-10
1.83657e-10
1.8371e-10
1.83764e-10
1.83818e-10
1.83873e-10
1.83929e-10
1.83985e-10
1.84043e-10
1.84101e-10
1.84161e-10
1.84221e-10
1.84282e-10
1.84344e-10
1.84407e-10
1.84471e-10
1.84536e-10
1.84603e-10
1.8467e-10
1.84739e-10
1.84808e-10
1.84879e-10
1.84952e-10
1.85025e-10
1.851e-10
1.85177e-10
1.85254e-10
1.85334e-10
1.85414e-10
1.85497e-10
1.85581e-10
1.85666e-10
1.85754e-10
1.85843e-10
1.85934e-10
1.86027e-10
1.86122e-10
1.86219e-10
1.86318e-10
1.86419e-10
1.86523e-10
1.86629e-10
1.86737e-10
)
;
    }
    inandouthalf12
    {
        type            cyclic;
        value           nonuniform List<scalar> 
100
(
-1.82482e-10
-1.81472e-10
-1.8133e-10
-1.81463e-10
-1.81526e-10
-1.81544e-10
-1.81568e-10
-1.81599e-10
-1.81631e-10
-1.81663e-10
-1.81696e-10
-1.81728e-10
-1.81761e-10
-1.81794e-10
-1.81828e-10
-1.81861e-10
-1.81895e-10
-1.8193e-10
-1.81964e-10
-1.81999e-10
-1.82034e-10
-1.8207e-10
-1.82106e-10
-1.82142e-10
-1.82179e-10
-1.82215e-10
-1.82252e-10
-1.8229e-10
-1.82328e-10
-1.82366e-10
-1.82404e-10
-1.82443e-10
-1.82482e-10
-1.82522e-10
-1.82562e-10
-1.82602e-10
-1.82643e-10
-1.82684e-10
-1.82726e-10
-1.82767e-10
-1.8281e-10
-1.82852e-10
-1.82895e-10
-1.82939e-10
-1.82983e-10
-1.83028e-10
-1.83073e-10
-1.83118e-10
-1.83164e-10
-1.83211e-10
-1.83258e-10
-1.83306e-10
-1.83354e-10
-1.83403e-10
-1.83453e-10
-1.83503e-10
-1.83553e-10
-1.83605e-10
-1.83657e-10
-1.8371e-10
-1.83764e-10
-1.83818e-10
-1.83873e-10
-1.83929e-10
-1.83985e-10
-1.84043e-10
-1.84101e-10
-1.84161e-10
-1.84221e-10
-1.84282e-10
-1.84344e-10
-1.84407e-10
-1.84471e-10
-1.84536e-10
-1.84603e-10
-1.8467e-10
-1.84739e-10
-1.84808e-10
-1.84879e-10
-1.84952e-10
-1.85025e-10
-1.851e-10
-1.85177e-10
-1.85254e-10
-1.85334e-10
-1.85414e-10
-1.85497e-10
-1.85581e-10
-1.85666e-10
-1.85754e-10
-1.85843e-10
-1.85934e-10
-1.86027e-10
-1.86122e-10
-1.86219e-10
-1.86318e-10
-1.86419e-10
-1.86523e-10
-1.86629e-10
-1.86737e-10
)
;
    }
    inandouthalf21
    {
        type            cyclic;
        value           nonuniform List<scalar> 
100
(
1.86848e-10
1.86962e-10
1.87078e-10
1.87197e-10
1.87319e-10
1.87444e-10
1.87573e-10
1.87704e-10
1.8784e-10
1.87978e-10
1.88121e-10
1.88267e-10
1.88418e-10
1.88573e-10
1.88732e-10
1.88896e-10
1.89065e-10
1.89238e-10
1.89418e-10
1.89603e-10
1.89794e-10
1.89991e-10
1.90195e-10
1.90407e-10
1.90625e-10
1.90852e-10
1.91088e-10
1.91333e-10
1.91589e-10
1.91855e-10
1.92134e-10
1.92424e-10
1.92729e-10
1.9305e-10
1.93392e-10
1.93755e-10
1.94138e-10
1.94546e-10
1.95e-10
1.95524e-10
1.96093e-10
1.96738e-10
2.04065e-10
2.03684e-10
-1.00629e-09
-8.70038e-08
-1.85677e-07
-2.66367e-07
-3.34393e-07
-3.93097e-07
-4.44603e-07
-4.90284e-07
-5.31108e-07
-5.67846e-07
-6.01125e-07
-6.31465e-07
-6.59292e-07
-6.84962e-07
-7.08767e-07
-7.30955e-07
-7.5173e-07
-7.71264e-07
-7.89702e-07
-8.07169e-07
-8.23767e-07
-8.39587e-07
-8.54705e-07
-8.69188e-07
-8.83092e-07
-8.96469e-07
-9.09361e-07
-9.21807e-07
-9.3384e-07
-9.45492e-07
-9.56788e-07
-9.67752e-07
-9.78405e-07
-9.88766e-07
-9.98852e-07
-1.00868e-06
-1.01826e-06
-1.02761e-06
-1.03673e-06
-1.04565e-06
-1.05436e-06
-1.06287e-06
-1.0712e-06
-1.07935e-06
-1.08733e-06
-1.09514e-06
-1.10278e-06
-1.11027e-06
-1.1176e-06
-1.12478e-06
-1.13181e-06
-1.13869e-06
-1.14544e-06
-1.15204e-06
-1.1585e-06
-1.16483e-06
)
;
    }
    inandouthalf22
    {
        type            cyclic;
        value           nonuniform List<scalar> 
100
(
-1.86848e-10
-1.86962e-10
-1.87078e-10
-1.87197e-10
-1.87319e-10
-1.87444e-10
-1.87573e-10
-1.87704e-10
-1.8784e-10
-1.87978e-10
-1.88121e-10
-1.88267e-10
-1.88418e-10
-1.88573e-10
-1.88732e-10
-1.88896e-10
-1.89065e-10
-1.89238e-10
-1.89418e-10
-1.89603e-10
-1.89794e-10
-1.89991e-10
-1.90195e-10
-1.90407e-10
-1.90625e-10
-1.90852e-10
-1.91088e-10
-1.91333e-10
-1.91589e-10
-1.91855e-10
-1.92134e-10
-1.92424e-10
-1.92729e-10
-1.9305e-10
-1.93392e-10
-1.93755e-10
-1.94138e-10
-1.94546e-10
-1.95e-10
-1.95524e-10
-1.96093e-10
-1.96738e-10
-2.04065e-10
-2.03684e-10
1.00629e-09
8.70038e-08
1.85677e-07
2.66367e-07
3.34393e-07
3.93097e-07
4.44603e-07
4.90284e-07
5.31108e-07
5.67846e-07
6.01125e-07
6.31465e-07
6.59292e-07
6.84962e-07
7.08767e-07
7.30955e-07
7.5173e-07
7.71264e-07
7.89702e-07
8.07169e-07
8.23767e-07
8.39587e-07
8.54705e-07
8.69188e-07
8.83092e-07
8.96469e-07
9.09361e-07
9.21807e-07
9.3384e-07
9.45492e-07
9.56788e-07
9.67752e-07
9.78405e-07
9.88766e-07
9.98852e-07
1.00868e-06
1.01826e-06
1.02761e-06
1.03673e-06
1.04565e-06
1.05436e-06
1.06287e-06
1.0712e-06
1.07935e-06
1.08733e-06
1.09514e-06
1.10278e-06
1.11027e-06
1.1176e-06
1.12478e-06
1.13181e-06
1.13869e-06
1.14544e-06
1.15204e-06
1.1585e-06
1.16483e-06
)
;
    }
    inandouthalf31
    {
        type            cyclic;
        value           nonuniform List<scalar> 
110
(
-1.17103e-06
-1.20104e-06
-1.23177e-06
-1.26323e-06
-1.29542e-06
-1.32836e-06
-1.36206e-06
-1.39651e-06
-1.43172e-06
-1.46769e-06
-1.50442e-06
-1.5419e-06
-1.58012e-06
-1.61907e-06
-1.65873e-06
-1.69908e-06
-1.74009e-06
-1.78173e-06
-1.82395e-06
-1.86673e-06
-1.91002e-06
-1.95378e-06
-1.99798e-06
-2.0426e-06
-2.0876e-06
-2.13301e-06
-2.17882e-06
-2.22505e-06
-2.27174e-06
-2.31894e-06
-2.36667e-06
-2.41498e-06
-2.46392e-06
-2.51351e-06
-2.5638e-06
-2.61482e-06
-2.66659e-06
-2.71915e-06
-2.7725e-06
-2.82669e-06
-2.88173e-06
-2.93764e-06
-2.99444e-06
-3.05217e-06
-3.11082e-06
-3.17044e-06
-3.23105e-06
-3.29267e-06
-3.35533e-06
-3.41905e-06
-3.48387e-06
-3.54983e-06
-3.61695e-06
-3.68528e-06
-3.75485e-06
-3.82573e-06
-3.89795e-06
-3.97158e-06
-4.04667e-06
-4.1233e-06
-4.20155e-06
-4.2815e-06
-4.36325e-06
-4.44691e-06
-4.53261e-06
-4.62046e-06
-4.71063e-06
-4.80326e-06
-4.89851e-06
-4.99653e-06
-5.09752e-06
-5.20096e-06
-5.30653e-06
-5.41423e-06
-5.52413e-06
-5.63625e-06
-5.75065e-06
-5.86738e-06
-5.98647e-06
-6.10798e-06
-6.23196e-06
-6.35845e-06
-6.48751e-06
-6.61919e-06
-6.75354e-06
-6.89062e-06
-7.03048e-06
-7.17318e-06
-7.31877e-06
-7.46733e-06
-7.61889e-06
-7.77354e-06
-7.93132e-06
-8.0923e-06
-8.25655e-06
-8.42414e-06
-8.59513e-06
-8.76959e-06
-8.94759e-06
-9.1292e-06
-9.3145e-06
-9.50356e-06
-9.69645e-06
-9.89326e-06
-1.00941e-05
-1.0299e-05
-1.0508e-05
-1.07213e-05
-1.09389e-05
-1.11609e-05
)
;
    }
    inandouthalf32
    {
        type            cyclic;
        value           nonuniform List<scalar> 
110
(
1.17103e-06
1.20104e-06
1.23177e-06
1.26323e-06
1.29542e-06
1.32836e-06
1.36206e-06
1.39651e-06
1.43172e-06
1.46769e-06
1.50442e-06
1.5419e-06
1.58012e-06
1.61907e-06
1.65873e-06
1.69908e-06
1.74009e-06
1.78173e-06
1.82395e-06
1.86673e-06
1.91002e-06
1.95378e-06
1.99798e-06
2.0426e-06
2.0876e-06
2.13301e-06
2.17882e-06
2.22505e-06
2.27174e-06
2.31894e-06
2.36667e-06
2.41498e-06
2.46392e-06
2.51351e-06
2.5638e-06
2.61482e-06
2.66659e-06
2.71915e-06
2.7725e-06
2.82669e-06
2.88173e-06
2.93764e-06
2.99444e-06
3.05217e-06
3.11082e-06
3.17044e-06
3.23105e-06
3.29267e-06
3.35533e-06
3.41905e-06
3.48387e-06
3.54983e-06
3.61695e-06
3.68528e-06
3.75485e-06
3.82573e-06
3.89795e-06
3.97158e-06
4.04667e-06
4.1233e-06
4.20155e-06
4.2815e-06
4.36325e-06
4.44691e-06
4.53261e-06
4.62046e-06
4.71063e-06
4.80326e-06
4.89851e-06
4.99653e-06
5.09752e-06
5.20096e-06
5.30653e-06
5.41423e-06
5.52413e-06
5.63625e-06
5.75065e-06
5.86738e-06
5.98647e-06
6.10798e-06
6.23196e-06
6.35845e-06
6.48751e-06
6.61919e-06
6.75354e-06
6.89062e-06
7.03048e-06
7.17318e-06
7.31877e-06
7.46733e-06
7.61889e-06
7.77354e-06
7.93132e-06
8.0923e-06
8.25655e-06
8.42414e-06
8.59513e-06
8.76959e-06
8.94759e-06
9.1292e-06
9.3145e-06
9.50356e-06
9.69645e-06
9.89326e-06
1.00941e-05
1.0299e-05
1.0508e-05
1.07213e-05
1.09389e-05
1.11609e-05
)
;
    }
    inandouthalf41
    {
        type            cyclic;
        value           nonuniform List<scalar> 
50
(
-9.99016e-06
-9.99016e-06
-9.99016e-06
-9.99016e-06
-9.99016e-06
-9.99016e-06
-9.99016e-06
-9.99016e-06
-9.99016e-06
-9.99016e-06
-9.99016e-06
-9.99016e-06
-9.99016e-06
-9.99016e-06
-9.99016e-06
-9.99016e-06
-9.99016e-06
-9.99016e-06
-9.99016e-06
-9.99016e-06
-9.99016e-06
-9.99016e-06
-9.99016e-06
-9.99016e-06
-9.99016e-06
-9.99016e-06
-9.99016e-06
-9.99016e-06
-9.99016e-06
-9.99016e-06
-9.99016e-06
-9.99016e-06
-9.99016e-06
-9.99016e-06
-9.99016e-06
-9.99016e-06
-9.99016e-06
-9.99016e-06
-9.99016e-06
-9.99016e-06
-9.99016e-06
-9.99016e-06
-9.99016e-06
-9.99016e-06
-9.99016e-06
-9.99016e-06
-9.99016e-06
-9.99016e-06
-9.99016e-06
-9.99016e-06
)
;
    }
    inandouthalf42
    {
        type            cyclic;
        value           nonuniform List<scalar> 
50
(
9.99016e-06
9.99016e-06
9.99016e-06
9.99016e-06
9.99016e-06
9.99016e-06
9.99016e-06
9.99016e-06
9.99016e-06
9.99016e-06
9.99016e-06
9.99016e-06
9.99016e-06
9.99016e-06
9.99016e-06
9.99016e-06
9.99016e-06
9.99016e-06
9.99016e-06
9.99016e-06
9.99016e-06
9.99016e-06
9.99016e-06
9.99016e-06
9.99016e-06
9.99016e-06
9.99016e-06
9.99016e-06
9.99016e-06
9.99016e-06
9.99016e-06
9.99016e-06
9.99016e-06
9.99016e-06
9.99016e-06
9.99016e-06
9.99016e-06
9.99016e-06
9.99016e-06
9.99016e-06
9.99016e-06
9.99016e-06
9.99016e-06
9.99016e-06
9.99016e-06
9.99016e-06
9.99016e-06
9.99016e-06
9.99016e-06
9.99016e-06
)
;
    }
    top
    {
        type            symmetryPlane;
        value           uniform 0;
    }
    walls
    {
        type            fixedValue;
        value           uniform 0;
    }
    frontAndBackPlanes
    {
        type            empty;
        value           nonuniform 0();
    }
}


// ************************************************************************* //
