/*--------------------------------*- C++ -*----------------------------------*\
| =========                 |                                                 |
| \\      /  F ield         | OpenFOAM: The Open Source CFD Toolbox           |
|  \\    /   O peration     | Version:  2.4.x                                 |
|   \\  /    A nd           | Web:      www.OpenFOAM.org                      |
|    \\/     M anipulation  |                                                 |
\*---------------------------------------------------------------------------*/
FoamFile
{
    version     2.0;
    format      ascii;
    class       volVectorField;
    location    "9.65";
    object      susb;
}
// * * * * * * * * * * * * * * * * * * * * * * * * * * * * * * * * * * * * * //

dimensions      [0 1 -2 0 0 0 0];

internalField   nonuniform List<vector> 
360
(
(0 5.98186e-18 0)
(0 6.65568e-18 0)
(0 1.70119e-20 0)
(0 -9.17216e-19 0)
(-3.69968e-31 -3.88408e-19 0)
(-3.69935e-31 -2.10464e-19 0)
(-3.69893e-31 -2.69425e-19 0)
(0 -3.08495e-19 0)
(-3.69782e-31 -3.14484e-19 0)
(0 -3.178e-19 0)
(-3.69668e-31 -3.19274e-19 0)
(0 -3.20754e-19 0)
(-3.69553e-31 -3.23675e-19 0)
(0 -3.26706e-19 0)
(0 -3.30666e-19 0)
(0 -3.34692e-19 0)
(0 -3.37924e-19 0)
(-7.38509e-31 -3.40857e-19 0)
(0 -3.45218e-19 0)
(0 -3.48325e-19 0)
(0 -3.51558e-19 0)
(-3.69005e-31 -3.56127e-19 0)
(0 -3.59481e-19 0)
(0 -3.63352e-19 0)
(0 -3.67309e-19 0)
(-3.68744e-31 -3.70523e-19 0)
(0 -3.74883e-19 0)
(0 -3.794e-19 0)
(0 -3.82645e-19 0)
(0 -3.86418e-19 0)
(0 -3.91671e-19 0)
(0 -3.94427e-19 0)
(0 -3.99289e-19 0)
(0 -4.04247e-19 0)
(0 -4.0738e-19 0)
(3.68043e-31 -4.11855e-19 0)
(0 -4.1612e-19 0)
(0 -4.22461e-19 0)
(0 -4.24491e-19 0)
(0 -4.29614e-19 0)
(0 -4.36569e-19 0)
(0 -4.37953e-19 0)
(3.67506e-31 -4.44247e-19 0)
(0 -4.50004e-19 0)
(0 -4.53631e-19 0)
(0 -4.60512e-19 0)
(0 -4.6334e-19 0)
(0 -4.67774e-19 0)
(0 -4.77127e-19 0)
(0 -4.80342e-19 0)
(3.6684e-31 -4.84545e-19 0)
(0 -4.91718e-19 0)
(0 -4.97494e-19 0)
(0 -5.021e-19 0)
(0 -5.09216e-19 0)
(0 -5.15044e-19 0)
(0 -5.20575e-19 0)
(0 -5.28496e-19 0)
(0 -5.31669e-19 0)
(0 -5.40542e-19 0)
(0 -5.47512e-19 0)
(0 -5.53353e-19 0)
(0 -5.61564e-19 0)
(0 -5.67698e-19 0)
(0 -5.74748e-19 0)
(0 -5.82412e-19 0)
(0 -5.91217e-19 0)
(0 -5.98443e-19 0)
(0 -6.04177e-19 0)
(0 -6.13812e-19 0)
(0 -6.25315e-19 0)
(0 -6.30319e-19 0)
(0 -6.38905e-19 0)
(0 -6.49966e-19 0)
(0 -6.59498e-19 0)
(0 -6.68527e-19 0)
(0 -6.76685e-19 0)
(0 -6.8779e-19 0)
(0 -6.98721e-19 0)
(0 -7.08481e-19 0)
(0 -7.19156e-19 0)
(0 -7.31281e-19 0)
(0 -7.42797e-19 0)
(0 -7.54699e-19 0)
(0 -7.66999e-19 0)
(0 -7.79767e-19 0)
(0 -7.92703e-19 0)
(0 -8.0563e-19 0)
(0 -8.19525e-19 0)
(0 -8.33907e-19 0)
(0 -8.48511e-19 0)
(0 -8.63905e-19 0)
(0 -8.79976e-19 0)
(0 -8.96377e-19 0)
(0 -9.13314e-19 0)
(0 -9.30815e-19 0)
(0 -9.48845e-19 0)
(0 -9.67476e-19 0)
(0 -9.86836e-19 0)
(0 -1.00695e-18 0)
(0 -1.02782e-18 0)
(0 -1.04955e-18 0)
(0 -1.07214e-18 0)
(0 -1.09558e-18 0)
(0 -1.11991e-18 0)
(0 -1.14519e-18 0)
(0 -1.17146e-18 0)
(0 -1.19877e-18 0)
(0 -1.22719e-18 0)
(0 -1.25676e-18 0)
(0 -1.28756e-18 0)
(0 -1.31964e-18 0)
(0 -1.35308e-18 0)
(0 -1.38798e-18 0)
(0 -1.42444e-18 0)
(0 -1.46259e-18 0)
(0 -1.50256e-18 0)
(0 -1.54454e-18 0)
(0 -1.58869e-18 0)
(0 -1.63524e-18 0)
(0 -1.68436e-18 0)
(0 -1.73623e-18 0)
(0 -1.79099e-18 0)
(0 -1.84881e-18 0)
(0 -1.91003e-18 0)
(0 -1.97533e-18 0)
(0 -3.29427e-18 0)
(0 -1.56167e-17 0)
(0 -8.15535e-17 0)
(0 -4.15365e-16 0)
(0 -2.04438e-15 0)
(0 -9.73629e-15 0)
(0 -4.5201e-14 0)
(0 -2.06793e-13 0)
(0 -9.43264e-13 0)
(0 -4.39479e-12 0)
(0 -2.2121e-11 0)
(0 -1.30348e-10 0)
(0 -9.43693e-10 0)
(0 -8.08955e-09 0)
(0 -8.37803e-08 0)
(0 -6.45888e-06 0)
(0 -0.000112728 0)
(0 -0.0244237 0)
(0 -1.23413 0)
(0 -3.17912 0)
(0 -1.92553 0)
(0 -1.29604 0)
(0 -1.11919 0)
(0 -1.04761 0)
(0 -0.984887 0)
(0 -1.00066 0)
(0 -0.971378 0)
(0 -0.928908 0)
(0 -0.879816 0)
(0 -0.826945 0)
(0 -0.772353 0)
(0 -0.717725 0)
(0 -0.664354 0)
(0 -0.613131 0)
(0 -0.564661 0)
(0 -0.519256 0)
(0 -0.477032 0)
(0 -0.43797 0)
(0 -0.401976 0)
(0 -0.368892 0)
(0 -0.338527 0)
(0 -0.310681 0)
(0 -0.285152 0)
(0 -0.261747 0)
(0 -0.240279 0)
(0 -0.220581 0)
(0 -0.202492 0)
(0 -0.185869 0)
(0 -0.170585 0)
(0 -0.156519 0)
(0 -0.143564 0)
(0 -0.131624 0)
(0 -0.120612 0)
(0 -0.110451 0)
(0 -0.101068 0)
(0 -0.0923996 0)
(0 -0.0843889 0)
(0 -0.0769857 0)
(0 -0.0701475 0)
(0 -0.0638335 0)
(0 -0.0579854 0)
(0 -0.0524843 0)
(0 -0.0471416 0)
(0 -0.041691 0)
(0 -0.0370682 0)
(0 -0.0337581 0)
(0 -0.03076 0)
(0 -0.0280364 0)
(0 -0.0255651 0)
(0 -0.0233276 0)
(0 -0.0212994 0)
(0 -0.0194584 0)
(0 -0.0177851 0)
(0 -0.0162623 0)
(0 -0.0148752 0)
(0 -0.0135984 0)
(-6.37421e-18 -0.0124105 0)
(0 -0.0113071 0)
(0 -0.0102853 0)
(3.07207e-18 -0.00934494 0)
(0 -0.00848837 0)
(-2.98389e-18 -0.00771756 0)
(0 -0.00702773 0)
(2.88555e-18 -0.00640034 0)
(0 -0.00580161 0)
(0 -0.0051922 0)
(0 -0.00454618 0)
(1.32872e-18 -0.00386738 0)
(0 -0.00318933 0)
(0 -0.00255772 0)
(0 -0.00200924 0)
(0 -0.00156044 0)
(0 -0.00120892 0)
(0 -0.000941046 0)
(0 -0.000739877 0)
(-2.72097e-19 -0.000589421 0)
(0 -0.000476585 0)
(-1.31384e-19 -0.000391232 0)
(0 -0.000325869 0)
(0 -0.000274896 0)
(0 -0.000234455 0)
(0 -0.00020066 0)
(6.41945e-20 -0.000173692 0)
(0 -0.000147798 0)
(0 -0.000128896 0)
(0 -0.000107083 0)
(0 -9.40111e-05 0)
(0 -7.41449e-05 0)
(0 -6.79618e-05 0)
(0 -3.67817e-05 0)
(0 -1.74706e-05 0)
(0 -3.27476e-05 0)
(0 -3.00121e-05 0)
(0 -1.97876e-05 0)
(0 -1.43182e-05 0)
(0 -9.93576e-06 0)
(0 -6.92362e-06 0)
(-1.13074e-21 -4.78033e-06 0)
(1.09899e-21 -3.26165e-06 0)
(0 -2.22304e-06 0)
(0 -1.46934e-06 0)
(-2.51834e-22 -9.9016e-07 0)
(0 -6.29734e-07 0)
(0 -4.10633e-07 0)
(-1.37864e-23 -2.53383e-07 0)
(0 -1.05149e-07 0)
(0 -1.32946e-36 0)
(0 -4.96474e-49 0)
(0 -3.13658e-53 0)
(0 -1.37527e-53 0)
(0 -7.65115e-54 0)
(0 -3.17506e-54 0)
(0 -1.64668e-54 0)
(0 -8.7695e-55 0)
(0 -3.89016e-55 0)
(0 -1.79398e-55 0)
(0 -8.24708e-56 0)
(0 -3.5488e-56 0)
(0 -1.51129e-56 0)
(0 -6.12878e-57 0)
(3.31462e-73 -2.32863e-57 0)
(0 -8.03035e-58 0)
(0 -2.32627e-58 0)
(0 -3.98479e-59 0)
(0 -1.63442e-60 0)
(0 -1.15633e-62 0)
(0 -5.26711e-65 0)
(0 -2.23566e-67 0)
(0 -8.91882e-70 0)
(0 -3.34855e-72 0)
(0 -1.12586e-74 0)
(0 -1.29275e-77 0)
(0 -1.42549e-78 0)
(0 -5.17996e-79 0)
(0 -1.83305e-79 0)
(0 -6.31017e-80 0)
(0 -2.1107e-80 0)
(0 -6.8516e-81 0)
(0 -2.15558e-81 0)
(0 -6.56324e-82 0)
(3.29177e-98 -1.93101e-82 0)
(0 -5.48064e-83 0)
(0 -1.49785e-83 0)
(0 -3.93392e-84 0)
(0 -9.90727e-85 0)
(0 -2.38674e-85 0)
(0 -5.48553e-86 0)
(0 -1.19923e-86 0)
(0 -2.48547e-87 0)
(0 -4.86526e-88 0)
(6.41951e-105 -8.95649e-89 0)
(0 -1.54304e-89 0)
(0 -2.47375e-90 0)
(0 -3.66595e-91 0)
(0 -4.98235e-92 0)
(0 -6.15105e-93 0)
(0 -6.81736e-94 0)
(0 -6.68305e-95 0)
(0 -5.6833e-96 0)
(0 -4.08362e-97 0)
(0 -2.38697e-98 0)
(0 -1.0697e-99 0)
(0 -3.30493e-101 0)
(0 -5.48914e-103 0)
(0 -9.56862e-106 0)
(0 -1.39572e-111 0)
(0 -9.72528e-114 0)
(0 -3.3558e-116 0)
(0 -1.29369e-126 0)
(0 -2.53159e-137 0)
(0 -3.68908e-148 0)
(0 -3.89689e-159 0)
(0 -3.5798e-170 0)
(0 -2.52584e-181 0)
(0 -1.52999e-192 0)
(0 -4.50574e-203 0)
(0 -2.0304e-213 0)
(0 -1.29663e-221 0)
(0 -5.90115e-232 0)
(0 -4.45941e-240 0)
(0 -2.39494e-250 0)
(0 -1.53495e-258 0)
(0 -1.00979e-268 0)
(0 -5.28922e-277 0)
(0 -6.46332e-287 0)
(0 -1.86497e-295 0)
(0 -4.2844e-305 0)
(0 -6.79609e-314 0)
(0 -1.97626e-323 0)
(0 -0 0)
(0 0 0)
(0 0 0)
(0 0 0)
(0 0 0)
(0 0 0)
(0 0 0)
(0 0 0)
(0 0 0)
(0 0 0)
(0 0 0)
(0 0 0)
(0 0 0)
(0 0 0)
(0 0 0)
(0 0 0)
(0 0 0)
(0 0 0)
(0 0 0)
(0 0 0)
(0 0 0)
(0 0 0)
(0 0 0)
(0 0 0)
(0 0 0)
)
;

boundaryField
{
    inandouthalf11
    {
        type            cyclic;
    }
    inandouthalf12
    {
        type            cyclic;
    }
    inandouthalf21
    {
        type            cyclic;
    }
    inandouthalf22
    {
        type            cyclic;
    }
    inandouthalf31
    {
        type            cyclic;
    }
    inandouthalf32
    {
        type            cyclic;
    }
    inandouthalf41
    {
        type            cyclic;
    }
    inandouthalf42
    {
        type            cyclic;
    }
    top
    {
        type            symmetryPlane;
    }
    walls
    {
        type            zeroGradient;
    }
    frontAndBackPlanes
    {
        type            empty;
    }
}


// ************************************************************************* //
