/*--------------------------------*- C++ -*----------------------------------*\
| =========                 |                                                 |
| \\      /  F ield         | OpenFOAM: The Open Source CFD Toolbox           |
|  \\    /   O peration     | Version:  2.4.x                                 |
|   \\  /    A nd           | Web:      www.OpenFOAM.org                      |
|    \\/     M anipulation  |                                                 |
\*---------------------------------------------------------------------------*/
FoamFile
{
    version     2.0;
    format      ascii;
    class       volTensorField;
    location    "9.65";
    object      Taus;
}
// * * * * * * * * * * * * * * * * * * * * * * * * * * * * * * * * * * * * * //

dimensions      [0 2 -2 0 0 0 0];

internalField   nonuniform List<tensor> 
360
(
(0 0.0110758 0 0.0110758 -0.209199 0 0 0 0)
(0 0.0164727 0 0.0164727 -0.266278 0 0 0 0)
(0 0.020379 0 0.020379 -0.272602 0 0 0 0)
(0 0.0200743 0 0.0200743 -0.265715 0 0 0 0)
(-7.73828e-18 0.0197841 0 0.0197841 -0.262542 0 0 0 0)
(-1.51713e-17 0.0200568 0 0.0200568 -0.261466 0 0 0 0)
(-1.51138e-17 0.0203768 0 0.0203768 -0.260119 0 0 0 0)
(0 0.0206117 0 0.0206117 -0.258425 0 0 0 0)
(-1.48189e-17 0.0208148 0 0.0208148 -0.256701 0 0 0 0)
(0 0.0210091 0 0.0210091 -0.254973 0 0 0 0)
(-1.42488e-17 0.0211976 0 0.0211976 -0.253239 0 0 0 0)
(0 0.0213835 0 0.0213835 -0.251518 0 0 0 0)
(-2.71707e-17 0.0215645 0 0.0215645 -0.249792 0 0 0 0)
(0 0.0217406 0 0.0217406 -0.248065 0 0 0 0)
(0 0.0219107 0 0.0219107 -0.246331 0 0 0 0)
(0 0.0220743 0 0.0220743 -0.244588 0 0 0 0)
(0 0.0222323 0 0.0222323 -0.242839 0 0 0 0)
(-4.75518e-17 0.0223859 0 0.0223859 -0.241089 0 0 0 0)
(0 0.0225346 0 0.0225346 -0.239336 0 0 0 0)
(0 0.0226773 0 0.0226773 -0.237569 0 0 0 0)
(0 0.0228172 0 0.0228172 -0.235811 0 0 0 0)
(-4.26514e-17 0.022951 0 0.022951 -0.234039 0 0 0 0)
(0 0.0230802 0 0.0230802 -0.232264 0 0 0 0)
(0 0.0232051 0 0.0232051 -0.230486 0 0 0 0)
(0 0.0233252 0 0.0233252 -0.228701 0 0 0 0)
(-7.68761e-17 0.0234414 0 0.0234414 -0.226913 0 0 0 0)
(0 0.0235539 0 0.0235539 -0.225126 0 0 0 0)
(0 0.0236606 0 0.0236606 -0.223326 0 0 0 0)
(0 0.0237636 0 0.0237636 -0.221526 0 0 0 0)
(0 0.0238635 0 0.0238635 -0.219725 0 0 0 0)
(0 0.0239588 0 0.0239588 -0.217919 0 0 0 0)
(0 0.0240491 0 0.0240491 -0.216101 0 0 0 0)
(0 0.0241384 0 0.0241384 -0.2143 0 0 0 0)
(0 0.0242198 0 0.0242198 -0.212469 0 0 0 0)
(0 0.0243 0 0.0243 -0.210656 0 0 0 0)
(6.12204e-17 0.0243758 0 0.0243758 -0.208828 0 0 0 0)
(0 0.0244491 0 0.0244491 -0.207007 0 0 0 0)
(0 0.0245165 0 0.0245165 -0.205175 0 0 0 0)
(0 0.0245797 0 0.0245797 -0.203333 0 0 0 0)
(0 0.024644 0 0.024644 -0.201515 0 0 0 0)
(0 0.0246989 0 0.0246989 -0.199663 0 0 0 0)
(0 0.0247524 0 0.0247524 -0.197822 0 0 0 0)
(5.38489e-17 0.0248054 0 0.0248054 -0.195991 0 0 0 0)
(0 0.0248501 0 0.0248501 -0.194133 0 0 0 0)
(0 0.0248938 0 0.0248938 -0.192291 0 0 0 0)
(0 0.0249327 0 0.0249327 -0.190438 0 0 0 0)
(0 0.0249675 0 0.0249675 -0.188578 0 0 0 0)
(0 0.0250041 0 0.0250041 -0.186738 0 0 0 0)
(0 0.0250326 0 0.0250326 -0.184879 0 0 0 0)
(0 0.0250547 0 0.0250547 -0.183006 0 0 0 0)
(9.60969e-17 0.0250795 0 0.0250795 -0.181158 0 0 0 0)
(0 0.025098 0 0.025098 -0.17929 0 0 0 0)
(0 0.025113 0 0.025113 -0.177428 0 0 0 0)
(0 0.0251242 0 0.0251242 -0.175556 0 0 0 0)
(0 0.0251343 0 0.0251343 -0.173698 0 0 0 0)
(0 0.0251367 0 0.0251367 -0.171815 0 0 0 0)
(0 0.0251398 0 0.0251398 -0.169955 0 0 0 0)
(0 0.0251358 0 0.0251358 -0.168073 0 0 0 0)
(0 0.0251307 0 0.0251307 -0.166199 0 0 0 0)
(0 0.0251245 0 0.0251245 -0.164335 0 0 0 0)
(0 0.025109 0 0.025109 -0.162443 0 0 0 0)
(0 0.0250942 0 0.0250942 -0.160575 0 0 0 0)
(0 0.0250729 0 0.0250729 -0.158687 0 0 0 0)
(0 0.0250495 0 0.0250495 -0.156808 0 0 0 0)
(0 0.0250228 0 0.0250228 -0.154923 0 0 0 0)
(0 0.0249935 0 0.0249935 -0.153043 0 0 0 0)
(0 0.0249586 0 0.0249586 -0.151155 0 0 0 0)
(0 0.0249196 0 0.0249196 -0.149266 0 0 0 0)
(0 0.0248796 0 0.0248796 -0.147379 0 0 0 0)
(0 0.024838 0 0.024838 -0.1455 0 0 0 0)
(0 0.024787 0 0.024787 -0.143604 0 0 0 0)
(0 0.0247326 0 0.0247326 -0.141706 0 0 0 0)
(0 0.0246806 0 0.0246806 -0.139827 0 0 0 0)
(0 0.0246206 0 0.0246206 -0.137928 0 0 0 0)
(0 0.0245569 0 0.0245569 -0.136037 0 0 0 0)
(0 0.0244882 0 0.0244882 -0.134136 0 0 0 0)
(0 0.0244194 0 0.0244194 -0.132244 0 0 0 0)
(0 0.0243467 0 0.0243467 -0.130349 0 0 0 0)
(0 0.024269 0 0.024269 -0.128451 0 0 0 0)
(0 0.0241876 0 0.0241876 -0.126552 0 0 0 0)
(0 0.0241043 0 0.0241043 -0.124656 0 0 0 0)
(0 0.0240163 0 0.0240163 -0.122756 0 0 0 0)
(0 0.0239241 0 0.0239241 -0.120854 0 0 0 0)
(0 0.0238286 0 0.0238286 -0.118953 0 0 0 0)
(0 0.0237294 0 0.0237294 -0.11705 0 0 0 0)
(0 0.0236268 0 0.0236268 -0.115147 0 0 0 0)
(0 0.0235204 0 0.0235204 -0.113242 0 0 0 0)
(0 0.0234113 0 0.0234113 -0.111337 0 0 0 0)
(0 0.0232991 0 0.0232991 -0.109432 0 0 0 0)
(0 0.0231834 0 0.0231834 -0.107526 0 0 0 0)
(0 0.0230643 0 0.0230643 -0.105618 0 0 0 0)
(0 0.0229421 0 0.0229421 -0.103711 0 0 0 0)
(0 0.0228161 0 0.0228161 -0.101802 0 0 0 0)
(0 0.0226865 0 0.0226865 -0.0998913 0 0 0 0)
(0 0.0225537 0 0.0225537 -0.0979799 0 0 0 0)
(0 0.0224177 0 0.0224177 -0.0960675 0 0 0 0)
(0 0.0222786 0 0.0222786 -0.0941541 0 0 0 0)
(0 0.0221367 0 0.0221367 -0.0922398 0 0 0 0)
(0 0.021992 0 0.021992 -0.0903244 0 0 0 0)
(0 0.0218445 0 0.0218445 -0.0884078 0 0 0 0)
(0 0.0216942 0 0.0216942 -0.0864901 0 0 0 0)
(0 0.0215412 0 0.0215412 -0.084571 0 0 0 0)
(0 0.0213856 0 0.0213856 -0.0826504 0 0 0 0)
(0 0.0212274 0 0.0212274 -0.0807283 0 0 0 0)
(0 0.0210668 0 0.0210668 -0.0788046 0 0 0 0)
(0 0.020904 0 0.020904 -0.0768792 0 0 0 0)
(0 0.0207391 0 0.0207391 -0.074952 0 0 0 0)
(0 0.0205724 0 0.0205724 -0.0730229 0 0 0 0)
(0 0.020404 0 0.020404 -0.0710917 0 0 0 0)
(0 0.0202341 0 0.0202341 -0.0691582 0 0 0 0)
(0 0.020063 0 0.020063 -0.0672222 0 0 0 0)
(0 0.0198909 0 0.0198909 -0.0652836 0 0 0 0)
(0 0.0197179 0 0.0197179 -0.063342 0 0 0 0)
(0 0.0195443 0 0.0195443 -0.0613972 0 0 0 0)
(0 0.0193704 0 0.0193704 -0.0594487 0 0 0 0)
(0 0.0191962 0 0.0191962 -0.0574962 0 0 0 0)
(0 0.0190219 0 0.0190219 -0.055539 0 0 0 0)
(0 0.0188476 0 0.0188476 -0.0535767 0 0 0 0)
(0 0.0186733 0 0.0186733 -0.0516086 0 0 0 0)
(0 0.0184987 0 0.0184987 -0.049634 0 0 0 0)
(0 0.0183236 0 0.0183236 -0.0476522 0 0 0 0)
(0 0.0181478 0 0.0181478 -0.0456623 0 0 0 0)
(0 0.017971 0 0.017971 -0.0436635 0 0 0 0)
(0 0.0177927 0 0.0177927 -0.0416547 0 0 0 0)
(0 0.0176129 0 0.0176129 -0.0396344 0 0 0 0)
(0 0.0174311 0 0.0174311 -0.0376009 0 0 0 0)
(0 0.0172466 0 0.0172466 -0.0355515 0 0 0 0)
(0 0.0170582 0 0.0170582 -0.033483 0 0 0 0)
(0 0.0168646 0 0.0168646 -0.0313915 0 0 0 0)
(0 0.0166653 0 0.0166653 -0.0292717 0 0 0 0)
(0 0.0164608 0 0.0164608 -0.0271181 0 0 0 0)
(0 0.01625 0 0.01625 -0.0249264 0 0 0 0)
(0 0.0160235 0 0.0160235 -0.0226992 0 0 0 0)
(0 0.0157608 0 0.0157608 -0.02045 0 0 0 0)
(0 0.0154423 0 0.0154423 -0.0182008 0 0 0 0)
(0 0.015068 0 0.015068 -0.0159667 0 0 0 0)
(0 0.0146458 0 0.0146458 -0.0137537 0 0 0 0)
(0 0.0141634 0 0.0141634 -0.0115619 0 0 0 0)
(0 0.0135854 0 0.0135854 -0.00935677 0 0 0 0)
(0 0.0129242 0 0.0129242 -0.00686265 0 0 0 0)
(0 0.012336 0 0.012336 -0.00243259 0 0 0 0)
(0 0.0110222 0 0.0110222 0.00416996 0 0 0 0)
(0 0.00371195 0 0.00371195 -0.00208881 0 0 0 0)
(0 0.0029649 0 0.0029649 -0.000538617 0 0 0 0)
(0 0.00174109 0 0.00174109 -0.000102791 0 0 0 0)
(0 0.00308235 0 0.00308235 -9.95513e-05 0 0 0 0)
(0 0.00312037 0 0.00312037 -3.55617e-05 0 0 0 0)
(0 0.00261752 0 0.00261752 -2.8121e-05 0 0 0 0)
(0 0.00222464 0 0.00222464 -1.95886e-05 0 0 0 0)
(0 0.00193985 0 0.00193985 -1.89059e-05 0 0 0 0)
(0 0.00172964 0 0.00172964 -1.68795e-05 0 0 0 0)
(0 0.00158812 0 0.00158812 -1.43753e-05 0 0 0 0)
(0 0.00149219 0 0.00149219 -1.56166e-05 0 0 0 0)
(0 0.00143113 0 0.00143113 -1.53844e-05 0 0 0 0)
(0 0.00139814 0 0.00139814 -1.4751e-05 0 0 0 0)
(0 0.00138813 0 0.00138813 -1.38105e-05 0 0 0 0)
(0 0.00139723 0 0.00139723 -1.24867e-05 0 0 0 0)
(0 0.00142252 0 0.00142252 -1.0659e-05 0 0 0 0)
(0 0.00146184 0 0.00146184 -8.23107e-06 0 0 0 0)
(0 0.00151355 0 0.00151355 -5.12668e-06 0 0 0 0)
(0 0.00157649 0 0.00157649 -1.28482e-06 0 0 0 0)
(0 0.00164984 0 0.00164984 3.34549e-06 0 0 0 0)
(0 0.00173308 0 0.00173308 8.80691e-06 0 0 0 0)
(0 0.00182588 0 0.00182588 1.51335e-05 0 0 0 0)
(0 0.00192811 0 0.00192811 2.23526e-05 0 0 0 0)
(0 0.00203981 0 0.00203981 3.04898e-05 0 0 0 0)
(0 0.00216114 0 0.00216114 3.95705e-05 0 0 0 0)
(0 0.00229239 0 0.00229239 4.96216e-05 0 0 0 0)
(0 0.00243393 0 0.00243393 6.06718e-05 0 0 0 0)
(0 0.00258626 0 0.00258626 7.27537e-05 0 0 0 0)
(0 0.00274995 0 0.00274995 8.59022e-05 0 0 0 0)
(0 0.00292568 0 0.00292568 0.000100156 0 0 0 0)
(0 0.0031142 0 0.0031142 0.000115558 0 0 0 0)
(0 0.00331636 0 0.00331636 0.000132143 0 0 0 0)
(0 0.00353313 0 0.00353313 0.000149945 0 0 0 0)
(0 0.00376555 0 0.00376555 0.00016899 0 0 0 0)
(0 0.0040148 0 0.0040148 0.000189286 0 0 0 0)
(0 0.00428214 0 0.00428214 0.000210808 0 0 0 0)
(0 0.00456901 0 0.00456901 0.000233483 0 0 0 0)
(0 0.004877 0 0.004877 0.000257169 0 0 0 0)
(0 0.00520788 0 0.00520788 0.000281619 0 0 0 0)
(0 0.00556367 0 0.00556367 0.000306429 0 0 0 0)
(0 0.00594671 0 0.00594671 0.00033095 0 0 0 0)
(0 0.00635971 0 0.00635971 0.000354086 0 0 0 0)
(0 0.006806 0 0.006806 0.000373935 0 0 0 0)
(0 0.0072897 0 0.0072897 0.000387324 0 0 0 0)
(0 0.00781608 0 0.00781608 0.000390092 0 0 0 0)
(0 0.00839141 0 0.00839141 0.0003807 0 0 0 0)
(0 0.00902125 0 0.00902125 0.000369851 0 0 0 0)
(0 0.00970736 0 0.00970736 0.000389227 0 0 0 0)
(0 0.0104385 0 0.0104385 0.000467883 0 0 0 0)
(0 0.0112028 0 0.0112028 0.000595567 0 0 0 0)
(0 0.0119999 0 0.0119999 0.000743911 0 0 0 0)
(0 0.0128298 0 0.0128298 0.000904142 0 0 0 0)
(0 0.0136917 0 0.0136917 0.0010795 0 0 0 0)
(0 0.0145847 0 0.0145847 0.00127187 0 0 0 0)
(0 0.0155076 0 0.0155076 0.00148244 0 0 0 0)
(0 0.0164584 0 0.0164584 0.00171231 0 0 0 0)
(0 0.0174349 0 0.0174349 0.00196246 0 0 0 0)
(0 0.0184345 0 0.0184345 0.00223375 0 0 0 0)
(0 0.0194546 0 0.0194546 0.0025267 0 0 0 0)
(0 0.0205082 0 0.0205082 0.00284487 0 0 0 0)
(-4.76186e-16 0.0216098 0 0.0216098 0.00319244 0 0 0 0)
(0 0.0227629 0 0.0227629 0.00357029 0 0 0 0)
(0 0.0239705 0 0.0239705 0.00397766 0 0 0 0)
(6.09695e-16 0.025238 0 0.025238 0.00441 0 0 0 0)
(0 0.0265763 0 0.0265763 0.00485479 0 0 0 0)
(-7.32848e-16 0.0280079 0 0.0280079 0.00528538 0 0 0 0)
(0 0.0295747 0 0.0295747 0.00565463 0 0 0 0)
(9.03656e-16 0.0313441 0 0.0313441 0.00589219 0 0 0 0)
(0 0.0334107 0 0.0334107 0.00590981 0 0 0 0)
(0 0.035884 0 0.035884 0.0056171 0 0 0 0)
(0 0.0388627 0 0.0388627 0.00494536 0 0 0 0)
(1.55278e-15 0.0423974 0 0.0423974 0.00387275 0 0 0 0)
(0 0.0464564 0 0.0464564 0.00244115 0 0 0 0)
(0 0.0509111 0 0.0509111 0.00075571 0 0 0 0)
(0 0.0555518 0 0.0555518 -0.0010358 0 0 0 0)
(0 0.0601283 0 0.0601283 -0.00277666 0 0 0 0)
(0 0.0643959 0 0.0643959 -0.00433315 0 0 0 0)
(-3.72007e-15 0.06815 0 0.06815 -0.0056121 0 0 0 0)
(0 0.0712347 0 0.0712347 -0.00656371 0 0 0 0)
(-9.24636e-15 0.0735539 0 0.0735539 -0.00717709 0 0 0 0)
(0 0.0750483 0 0.0750483 -0.00747016 0 0 0 0)
(-1.10607e-14 0.0757058 0 0.0757058 -0.00748361 0 0 0 0)
(0 0.0755221 0 0.0755221 -0.00727204 0 0 0 0)
(0 0.074526 0 0.074526 -0.0069016 0 0 0 0)
(0 0.0727227 0 0.0727227 -0.0064476 0 0 0 0)
(0 0.0701412 0 0.0701412 -0.00596936 0 0 0 0)
(1.50369e-14 0.0667 0 0.0667 -0.00556435 0 0 0 0)
(1.56016e-14 0.0625355 0 0.0625355 -0.00525281 0 0 0 0)
(0 0.0572055 0 0.0572055 -0.00516302 0 0 0 0)
(0 0.0513145 0 0.0513145 -0.00526592 0 0 0 0)
(0 0.0436994 0 0.0436994 -0.00578532 0 0 0 0)
(0 0.0357317 0 0.0357317 -0.00650905 0 0 0 0)
(0 0.0255511 0 0.0255511 -0.00803831 0 0 0 0)
(0 0.0196134 0 0.0196134 -0.0124868 0 0 0 0)
(0 0 0 0 -0 0 0 0 0)
(0 0 0 0 -0 0 0 0 0)
(0 -0 0 -0 0 0 0 0 0)
(0 -0 0 -0 -0 0 0 0 0)
(0 -0 0 -0 0 0 0 0 0)
(0 -0 0 -0 -0 0 0 0 0)
(0 -0 0 -0 -0 0 0 0 0)
(-0 -0 0 -0 -0 0 0 0 0)
(0 -0 0 -0 0 0 0 0 0)
(0 -0 0 -0 -0 0 0 0 0)
(0 -0 0 -0 0 0 0 0 0)
(-0 -0 0 -0 -0 0 0 0 0)
(0 -0 0 -0 0 0 0 0 0)
(0 -0 0 -0 0 0 0 0 0)
(-0 -0 0 -0 -0 0 0 0 0)
(0 -0 0 -0 -0 0 0 0 0)
(0 -0 0 -0 -0 0 0 0 0)
(0 -0 0 -0 0 0 0 0 0)
(0 -0 0 -0 -0 0 0 0 0)
(0 -0 0 -0 -0 0 0 0 0)
(0 -0 0 -0 -0 0 0 0 0)
(0 -0 0 -0 -0 0 0 0 0)
(0 -0 0 -0 -0 0 0 0 0)
(0 -0 0 -0 0 0 0 0 0)
(0 -0 0 -0 0 0 0 0 0)
(0 -0 0 -0 0 0 0 0 0)
(0 -0 0 -0 0 0 0 0 0)
(0 -0 0 -0 0 0 0 0 0)
(0 -0 0 -0 0 0 0 0 0)
(0 -0 0 -0 0 0 0 0 0)
(0 -0 0 -0 0 0 0 0 0)
(0 -0 0 -0 0 0 0 0 0)
(0 -0 0 -0 0 0 0 0 0)
(0 -0 0 -0 0 0 0 0 0)
(0 -0 0 -0 0 0 0 0 0)
(0 -0 0 -0 0 0 0 0 0)
(0 -0 0 -0 0 0 0 0 0)
(0 0 0 0 0 0 0 0 0)
(0 0 0 0 -0 0 0 0 0)
(0 0 0 0 0 0 0 0 0)
(0 0 0 0 -0 0 0 0 0)
(0 0 0 0 0 0 0 0 0)
(0 0 0 0 -0 0 0 0 0)
(0 0 0 0 0 0 0 0 0)
(0 0 0 0 -0 0 0 0 0)
(0 0 0 0 0 0 0 0 0)
(0 0 0 0 -0 0 0 0 0)
(0 0 0 0 0 0 0 0 0)
(0 0 0 0 -0 0 0 0 0)
(0 0 0 0 0 0 0 0 0)
(0 0 0 0 -0 0 0 0 0)
(0 0 0 0 0 0 0 0 0)
(0 0 0 0 -0 0 0 0 0)
(0 0 0 0 0 0 0 0 0)
(0 0 0 0 -0 0 0 0 0)
(0 0 0 0 0 0 0 0 0)
(0 0 0 0 -0 0 0 0 0)
(0 -0 0 -0 0 0 0 0 0)
(0 0 0 0 -0 0 0 0 0)
(0 -0 0 -0 0 0 0 0 0)
(0 0 0 0 -0 0 0 0 0)
(0 -0 0 -0 0 0 0 0 0)
(0 0 0 0 -0 0 0 0 0)
(0 -0 0 -0 0 0 0 0 0)
(0 0 0 0 -0 0 0 0 0)
(0 -0 0 -0 0 0 0 0 0)
(0 0 0 0 -0 0 0 0 0)
(0 -0 0 -0 0 0 0 0 0)
(0 0 0 0 -0 0 0 0 0)
(0 -0 0 -0 0 0 0 0 0)
(0 0 0 0 -0 0 0 0 0)
(0 -0 0 -0 0 0 0 0 0)
(0 0 0 0 -0 0 0 0 0)
(0 -0 0 -0 0 0 0 0 0)
(0 0 0 0 -0 0 0 0 0)
(0 -0 0 -0 0 0 0 0 0)
(0 0 0 0 -0 0 0 0 0)
(0 -0 0 -0 0 0 0 0 0)
(0 0 0 0 -0 0 0 0 0)
(0 -0 0 -0 0 0 0 0 0)
(0 0 0 0 -0 0 0 0 0)
(0 -0 0 -0 0 0 0 0 0)
(0 0 0 0 -0 0 0 0 0)
(0 -0 0 -0 0 0 0 0 0)
(0 0 0 0 -0 0 0 0 0)
(0 -0 0 -0 0 0 0 0 0)
(0 0 0 0 -0 0 0 0 0)
(0 -0 0 -0 0 0 0 0 0)
(0 0 0 0 -0 0 0 0 0)
(0 -0 0 -0 0 0 0 0 0)
(0 0 0 0 -0 0 0 0 0)
(0 -0 0 -0 0 0 0 0 0)
(0 0 0 0 -0 0 0 0 0)
(0 -0 0 -0 0 0 0 0 0)
(0 0 0 0 -0 0 0 0 0)
(0 -0 0 -0 0 0 0 0 0)
(0 0 0 0 -0 0 0 0 0)
(0 -0 0 -0 0 0 0 0 0)
(0 0 0 0 -0 0 0 0 0)
(0 -0 0 -0 0 0 0 0 0)
(0 0 0 0 -0 0 0 0 0)
(0 -0 0 -0 0 0 0 0 0)
(0 0 0 0 -0 0 0 0 0)
(0 -0 0 -0 0 0 0 0 0)
(0 -0 0 -0 -0 0 0 0 0)
(0 -0 0 -0 0 0 0 0 0)
(0 0 0 0 -0 0 0 0 0)
(0 -0 0 -0 0 0 0 0 0)
(0 0 0 0 -0 0 0 0 0)
(0 -0 0 -0 0 0 0 0 0)
(0 0 0 0 -0 0 0 0 0)
(0 -0 0 -0 0 0 0 0 0)
(0 0 0 0 -0 0 0 0 0)
(0 -0 0 -0 0 0 0 0 0)
(0 0 0 0 -0 0 0 0 0)
(0 -0 0 -0 0 0 0 0 0)
(0 0 0 0 -0 0 0 0 0)
(0 0 0 0 0 0 0 0 0)
(0 0 0 0 0 0 0 0 0)
(0 0 0 0 0 0 0 0 0)
(0 0 0 0 0 0 0 0 0)
(0 0 0 0 0 0 0 0 0)
(0 0 0 0 0 0 0 0 0)
(0 0 0 0 0 0 0 0 0)
)
;

boundaryField
{
    inandouthalf11
    {
        type            cyclic;
    }
    inandouthalf12
    {
        type            cyclic;
    }
    inandouthalf21
    {
        type            cyclic;
    }
    inandouthalf22
    {
        type            cyclic;
    }
    inandouthalf31
    {
        type            cyclic;
    }
    inandouthalf32
    {
        type            cyclic;
    }
    inandouthalf41
    {
        type            cyclic;
    }
    inandouthalf42
    {
        type            cyclic;
    }
    top
    {
        type            symmetryPlane;
    }
    walls
    {
        type            zeroGradient;
    }
    frontAndBackPlanes
    {
        type            empty;
    }
}


// ************************************************************************* //
