/*--------------------------------*- C++ -*----------------------------------*\
| =========                 |                                                 |
| \\      /  F ield         | OpenFOAM: The Open Source CFD Toolbox           |
|  \\    /   O peration     | Version:  2.4.x                                 |
|   \\  /    A nd           | Web:      www.OpenFOAM.org                      |
|    \\/     M anipulation  |                                                 |
\*---------------------------------------------------------------------------*/
FoamFile
{
    version     2.0;
    format      ascii;
    class       volVectorField;
    location    "9.65";
    object      Ub;
}
// * * * * * * * * * * * * * * * * * * * * * * * * * * * * * * * * * * * * * //

dimensions      [0 1 -1 0 0 0 0];

internalField   nonuniform List<vector> 
360
(
(-0.000182535 8.13416e-09 0)
(-0.000181525 2.87471e-08 0)
(-0.000181383 5.24452e-08 0)
(-0.000181516 7.40265e-08 0)
(-0.000181579 9.49951e-08 0)
(-0.000181597 1.16214e-07 0)
(-0.000181621 1.37572e-07 0)
(-0.000181652 1.58944e-07 0)
(-0.000181684 1.80386e-07 0)
(-0.000181716 2.02009e-07 0)
(-0.000181749 2.23906e-07 0)
(-0.000181782 2.4614e-07 0)
(-0.000181814 2.68751e-07 0)
(-0.000181847 2.91769e-07 0)
(-0.000181881 3.15221e-07 0)
(-0.000181915 3.39132e-07 0)
(-0.000181949 3.63522e-07 0)
(-0.000181983 3.88405e-07 0)
(-0.000182018 4.13791e-07 0)
(-0.000182053 4.39686e-07 0)
(-0.000182088 4.66094e-07 0)
(-0.000182123 4.93016e-07 0)
(-0.000182159 5.20453e-07 0)
(-0.000182195 5.48403e-07 0)
(-0.000182232 5.76864e-07 0)
(-0.000182269 6.0583e-07 0)
(-0.000182306 6.35294e-07 0)
(-0.000182343 6.65249e-07 0)
(-0.000182381 6.9569e-07 0)
(-0.000182419 7.26603e-07 0)
(-0.000182458 7.57978e-07 0)
(-0.000182497 7.89807e-07 0)
(-0.000182536 8.2207e-07 0)
(-0.000182576 8.54761e-07 0)
(-0.000182615 8.87862e-07 0)
(-0.000182656 9.21357e-07 0)
(-0.000182696 9.55229e-07 0)
(-0.000182737 9.8946e-07 0)
(-0.000182779 1.02404e-06 0)
(-0.000182821 1.05894e-06 0)
(-0.000182863 1.09415e-06 0)
(-0.000182906 1.12964e-06 0)
(-0.000182949 1.16539e-06 0)
(-0.000182993 1.20138e-06 0)
(-0.000183037 1.2376e-06 0)
(-0.000183082 1.27401e-06 0)
(-0.000183127 1.31061e-06 0)
(-0.000183172 1.34734e-06 0)
(-0.000183218 1.3842e-06 0)
(-0.000183265 1.42116e-06 0)
(-0.000183312 1.4582e-06 0)
(-0.00018336 1.49529e-06 0)
(-0.000183408 1.5324e-06 0)
(-0.000183457 1.56952e-06 0)
(-0.000183506 1.60661e-06 0)
(-0.000183557 1.64365e-06 0)
(-0.000183607 1.68062e-06 0)
(-0.000183659 1.71748e-06 0)
(-0.000183711 1.75422e-06 0)
(-0.000183764 1.79079e-06 0)
(-0.000183818 1.8272e-06 0)
(-0.000183872 1.86339e-06 0)
(-0.000183927 1.89938e-06 0)
(-0.000183983 1.93512e-06 0)
(-0.000184039 1.9706e-06 0)
(-0.000184097 2.0058e-06 0)
(-0.000184155 2.04068e-06 0)
(-0.000184215 2.07525e-06 0)
(-0.000184275 2.10946e-06 0)
(-0.000184336 2.1433e-06 0)
(-0.000184398 2.17675e-06 0)
(-0.000184462 2.20982e-06 0)
(-0.000184525 2.24248e-06 0)
(-0.000184591 2.27472e-06 0)
(-0.000184657 2.30652e-06 0)
(-0.000184725 2.33789e-06 0)
(-0.000184793 2.3688e-06 0)
(-0.000184863 2.39925e-06 0)
(-0.000184934 2.42922e-06 0)
(-0.000185006 2.4587e-06 0)
(-0.00018508 2.48768e-06 0)
(-0.000185155 2.51617e-06 0)
(-0.000185231 2.54415e-06 0)
(-0.000185309 2.57163e-06 0)
(-0.000185388 2.5986e-06 0)
(-0.000185469 2.62507e-06 0)
(-0.000185551 2.65103e-06 0)
(-0.000185635 2.67648e-06 0)
(-0.000185721 2.70141e-06 0)
(-0.000185808 2.72582e-06 0)
(-0.000185898 2.74971e-06 0)
(-0.000185989 2.77307e-06 0)
(-0.000186082 2.79591e-06 0)
(-0.000186177 2.81822e-06 0)
(-0.000186274 2.84002e-06 0)
(-0.000186373 2.86131e-06 0)
(-0.000186474 2.88209e-06 0)
(-0.000186578 2.90236e-06 0)
(-0.000186684 2.92212e-06 0)
(-0.000186792 2.94137e-06 0)
(-0.000186903 2.96013e-06 0)
(-0.000187017 2.97838e-06 0)
(-0.000187133 2.99613e-06 0)
(-0.000187252 3.0134e-06 0)
(-0.000187374 3.03017e-06 0)
(-0.0001875 3.04647e-06 0)
(-0.000187628 3.06228e-06 0)
(-0.00018776 3.07763e-06 0)
(-0.000187895 3.0925e-06 0)
(-0.000188034 3.10691e-06 0)
(-0.000188176 3.12086e-06 0)
(-0.000188323 3.13435e-06 0)
(-0.000188473 3.14738e-06 0)
(-0.000188628 3.15996e-06 0)
(-0.000188788 3.17208e-06 0)
(-0.000188951 3.18376e-06 0)
(-0.00018912 3.19498e-06 0)
(-0.000189294 3.20575e-06 0)
(-0.000189474 3.21608e-06 0)
(-0.000189659 3.22596e-06 0)
(-0.00018985 3.23539e-06 0)
(-0.000190047 3.24435e-06 0)
(-0.000190251 3.25282e-06 0)
(-0.000190463 3.26077e-06 0)
(-0.000190682 3.26817e-06 0)
(-0.000190909 3.27494e-06 0)
(-0.000191144 3.28105e-06 0)
(-0.00019139 3.28645e-06 0)
(-0.000191645 3.29112e-06 0)
(-0.000191912 3.29504e-06 0)
(-0.00019219 3.29827e-06 0)
(-0.000192481 3.30087e-06 0)
(-0.000192785 3.3029e-06 0)
(-0.000193107 3.30447e-06 0)
(-0.000193449 3.30566e-06 0)
(-0.000193812 3.30645e-06 0)
(-0.000194195 3.30666e-06 0)
(-0.000194603 3.30589e-06 0)
(-0.000195058 3.30382e-06 0)
(-0.000195581 3.2734e-06 0)
(-0.000196151 3.97855e-06 0)
(-0.000196796 -6.98072e-07 0)
(-0.000204125 1.79635e-05 0)
(-0.000203793 -5.55472e-05 0)
(0.000980626 0.000190053 0)
(0.0868951 0.0015352 0)
(0.185567 0.00124372 0)
(0.266257 0.00123423 0)
(0.334283 0.00117598 0)
(0.392985 0.00111051 0)
(0.44449 0.00104586 0)
(0.490168 0.000966726 0)
(0.530989 0.00089041 0)
(0.567723 0.000816463 0)
(0.600999 0.000745144 0)
(0.631335 0.000677083 0)
(0.659159 0.000612796 0)
(0.684825 0.000552591 0)
(0.708628 0.00049662 0)
(0.730812 0.000444913 0)
(0.751583 0.000397411 0)
(0.771114 0.00035398 0)
(0.78955 0.000314438 0)
(0.807013 0.00027857 0)
(0.823609 0.000246139 0)
(0.839426 0.000216902 0)
(0.854542 0.000190615 0)
(0.869022 0.000167036 0)
(0.882924 0.000145937 0)
(0.896299 0.000127097 0)
(0.909189 0.000110311 0)
(0.921633 9.53868e-05 0)
(0.933665 8.21476e-05 0)
(0.945314 7.04297e-05 0)
(0.956608 6.00837e-05 0)
(0.967571 5.09728e-05 0)
(0.978222 4.29729e-05 0)
(0.988582 3.59711e-05 0)
(0.998667 2.98652e-05 0)
(1.00849 2.4563e-05 0)
(1.01807 1.99815e-05 0)
(1.02742 1.60458e-05 0)
(1.03654 1.26887e-05 0)
(1.04546 9.85045e-06 0)
(1.05417 7.4782e-06 0)
(1.06268 5.52645e-06 0)
(1.07101 3.95624e-06 0)
(1.07916 2.73094e-06 0)
(1.08713 1.80405e-06 0)
(1.09494 1.1013e-06 0)
(1.10258 5.18307e-07 0)
(1.11007 -2.14764e-08 0)
(1.1174 -5.26858e-07 0)
(1.12457 -9.8389e-07 0)
(1.13161 -1.38748e-06 0)
(1.13849 -1.73695e-06 0)
(1.14523 -2.03325e-06 0)
(1.15184 -2.27828e-06 0)
(1.1583 -2.47458e-06 0)
(1.16463 -2.62515e-06 0)
(1.17082 -2.73321e-06 0)
(1.17694 -2.80281e-06 0)
(1.18304 -2.83622e-06 0)
(1.18912 -2.83496e-06 0)
(1.19517 -2.80076e-06 0)
(1.20118 -2.73533e-06 0)
(1.20715 -2.64012e-06 0)
(1.21306 -2.51593e-06 0)
(1.2189 -2.36297e-06 0)
(1.22467 -2.1816e-06 0)
(1.23035 -1.97395e-06 0)
(1.23591 -1.7459e-06 0)
(1.24136 -1.50782e-06 0)
(1.24665 -1.27322e-06 0)
(1.25179 -1.05531e-06 0)
(1.25673 -8.63612e-07 0)
(1.26146 -7.02232e-07 0)
(1.26595 -5.70511e-07 0)
(1.27017 -4.64879e-07 0)
(1.2741 -3.80729e-07 0)
(1.27772 -3.13612e-07 0)
(1.28099 -2.59758e-07 0)
(1.28392 -2.1617e-07 0)
(1.28647 -1.80542e-07 0)
(1.28867 -1.51128e-07 0)
(1.2905 -1.26611e-07 0)
(1.292 -1.06005e-07 0)
(1.29317 -8.85862e-08 0)
(1.29404 -7.37888e-08 0)
(1.29464 -6.1219e-08 0)
(1.29501 -5.05315e-08 0)
(1.29516 -4.14741e-08 0)
(1.29512 -3.38082e-08 0)
(1.2949 -2.73801e-08 0)
(1.29454 -2.21134e-08 0)
(1.29403 -1.81015e-08 0)
(1.2934 -1.29688e-08 0)
(1.29265 -8.35599e-09 0)
(1.2918 -6.20516e-09 0)
(1.29085 -4.27134e-09 0)
(1.2898 -2.88701e-09 0)
(1.28867 -1.96037e-09 0)
(1.28746 -1.33269e-09 0)
(1.28617 -9.00176e-10 0)
(1.28481 -6.00077e-10 0)
(1.28338 -3.94613e-10 0)
(1.2819 -2.50229e-10 0)
(1.28036 -1.54831e-10 0)
(1.27877 -8.77349e-11 0)
(1.27713 -5.07339e-11 0)
(1.27545 -5.50816e-12 0)
(1.27375 1.82797e-11 0)
(1.27201 -6.34431e-12 0)
(1.27026 -4.97055e-12 0)
(1.26849 -3.3492e-12 0)
(1.26673 -3.04478e-12 0)
(1.26496 -3.0262e-12 0)
(1.26322 -2.92577e-12 0)
(1.2615 -2.78809e-12 0)
(1.25981 -2.66642e-12 0)
(1.25818 -2.51609e-12 0)
(1.25662 -2.05286e-12 0)
(1.25514 -1.00875e-12 0)
(1.25376 -1.1445e-11 0)
(1.25249 2.58305e-11 0)
(1.25137 -6.1067e-11 0)
(1.25041 1.02961e-10 0)
(1.24963 -1.66393e-10 0)
(1.24906 2.35841e-10 0)
(1.24871 -3.22173e-10 0)
(1.24861 4.08822e-10 0)
(1.2486 -5.05355e-10 0)
(1.2486 5.98232e-10 0)
(1.2486 -6.98761e-10 0)
(1.2486 7.9581e-10 0)
(1.2486 -9.00279e-10 0)
(1.2486 1.00184e-09 0)
(1.2486 -1.11058e-09 0)
(1.2486 1.21699e-09 0)
(1.2486 -1.33029e-09 0)
(1.2486 1.44184e-09 0)
(1.2486 -1.55998e-09 0)
(1.2486 1.67686e-09 0)
(1.2486 -1.80009e-09 0)
(1.2486 1.92254e-09 0)
(1.2486 -2.05103e-09 0)
(1.2486 2.17922e-09 0)
(1.2486 -2.31308e-09 0)
(1.2486 2.44722e-09 0)
(1.2486 -2.58659e-09 0)
(1.2486 2.72674e-09 0)
(1.2486 -2.87172e-09 0)
(1.2486 3.01801e-09 0)
(1.2486 -3.16865e-09 0)
(1.2486 3.32112e-09 0)
(1.2486 -3.47748e-09 0)
(1.2486 3.63615e-09 0)
(1.2486 -3.79834e-09 0)
(1.2486 3.96307e-09 0)
(1.2486 -4.13117e-09 0)
(1.2486 4.30191e-09 0)
(1.2486 -4.47588e-09 0)
(1.2486 4.65253e-09 0)
(1.2486 -4.8323e-09 0)
(1.2486 5.01476e-09 0)
(1.2486 -5.20019e-09 0)
(1.2486 5.38829e-09 0)
(1.2486 -5.57921e-09 0)
(1.2486 5.77272e-09 0)
(1.2486 -5.96887e-09 0)
(1.2486 5.41557e-09 0)
(1.2486 -5.49144e-09 0)
(1.2486 5.56647e-09 0)
(1.2486 -5.64059e-09 0)
(1.2486 5.71391e-09 0)
(1.2486 -5.78625e-09 0)
(1.2486 5.85782e-09 0)
(1.2486 -5.92837e-09 0)
(1.2486 5.99818e-09 0)
(1.2486 -6.0669e-09 0)
(1.2486 6.13491e-09 0)
(1.2486 -6.20178e-09 0)
(1.2486 6.26796e-09 0)
(1.2486 -6.33293e-09 0)
(1.2486 6.39725e-09 0)
(1.2486 -6.46028e-09 0)
(1.2486 6.52272e-09 0)
(1.2486 -6.58374e-09 0)
(1.2486 6.6443e-09 0)
(1.2486 -6.70317e-09 0)
(1.2486 6.76195e-09 0)
(1.2486 -6.8185e-09 0)
(1.2486 6.87548e-09 0)
(1.2486 -6.92964e-09 0)
(1.2486 6.98476e-09 0)
(1.2486 -7.03648e-09 0)
(1.2486 7.08963e-09 0)
(1.2486 -7.13881e-09 0)
(1.2486 7.18993e-09 0)
(1.2486 -7.23649e-09 0)
(1.2486 7.28541e-09 0)
(1.2486 -7.32928e-09 0)
(1.2486 7.37586e-09 0)
(1.2486 -7.41697e-09 0)
(1.2486 7.46097e-09 0)
(1.2486 -7.4991e-09 0)
(1.2486 7.54053e-09 0)
(1.2486 -7.57546e-09 0)
(1.2486 7.61394e-09 0)
(1.2486 -7.64557e-09 0)
(1.2486 7.6807e-09 0)
(1.2486 -7.7089e-09 0)
(1.2486 7.74009e-09 0)
(1.2486 -7.76451e-09 0)
(1.2486 7.79117e-09 0)
(1.2486 -7.81121e-09 0)
(1.2486 7.83221e-09 0)
(1.2486 -7.84679e-09 0)
(1.2486 7.86012e-09 0)
(1.2486 -7.8658e-09 0)
)
;

boundaryField
{
    inandouthalf11
    {
        type            cyclic;
    }
    inandouthalf12
    {
        type            cyclic;
    }
    inandouthalf21
    {
        type            cyclic;
    }
    inandouthalf22
    {
        type            cyclic;
    }
    inandouthalf31
    {
        type            cyclic;
    }
    inandouthalf32
    {
        type            cyclic;
    }
    inandouthalf41
    {
        type            cyclic;
    }
    inandouthalf42
    {
        type            cyclic;
    }
    top
    {
        type            symmetryPlane;
    }
    walls
    {
        type            fixedValue;
        value           uniform (0 0 0);
    }
    frontAndBackPlanes
    {
        type            empty;
    }
}


// ************************************************************************* //
