/*--------------------------------*- C++ -*----------------------------------*\
| =========                 |                                                 |
| \\      /  F ield         | OpenFOAM: The Open Source CFD Toolbox           |
|  \\    /   O peration     | Version:  2.4.x                                 |
|   \\  /    A nd           | Web:      www.OpenFOAM.org                      |
|    \\/     M anipulation  |                                                 |
\*---------------------------------------------------------------------------*/
FoamFile
{
    version     2.0;
    format      ascii;
    class       surfaceScalarField;
    location    "8.7";
    object      ddt0(phia);
}
// * * * * * * * * * * * * * * * * * * * * * * * * * * * * * * * * * * * * * //

dimensions      [0 3 -2 0 0 0 0];

internalField   nonuniform List<scalar> 
359
(
9.32044e-14
2.36499e-13
3.73603e-13
5.0943e-13
6.51483e-13
7.97992e-13
9.45597e-13
1.09256e-12
1.23809e-12
1.38171e-12
1.52297e-12
1.66133e-12
1.79631e-12
1.92752e-12
2.05463e-12
2.17738e-12
2.29556e-12
2.40897e-12
2.51746e-12
2.62092e-12
2.71927e-12
2.81248e-12
2.90059e-12
2.98365e-12
3.06179e-12
3.13515e-12
3.20394e-12
3.26842e-12
3.32887e-12
3.3856e-12
3.43897e-12
3.48936e-12
3.53713e-12
3.58273e-12
3.62652e-12
3.66894e-12
3.71036e-12
3.7512e-12
3.79182e-12
3.83256e-12
3.87377e-12
3.91574e-12
3.95873e-12
4.00301e-12
4.04877e-12
4.09621e-12
4.14546e-12
4.19663e-12
4.24983e-12
4.30516e-12
4.36262e-12
4.42225e-12
4.48404e-12
4.54799e-12
4.61402e-12
4.68214e-12
4.75223e-12
4.82424e-12
4.89807e-12
4.9736e-12
5.05081e-12
5.12958e-12
5.20984e-12
5.29147e-12
5.37437e-12
5.45842e-12
5.54353e-12
5.62958e-12
5.71646e-12
5.80406e-12
5.89234e-12
5.98125e-12
6.07064e-12
6.1605e-12
6.25075e-12
6.34134e-12
6.43213e-12
6.52305e-12
6.61401e-12
6.70497e-12
6.79585e-12
6.88663e-12
6.97728e-12
7.06779e-12
7.15813e-12
7.24826e-12
7.33814e-12
7.42772e-12
7.51695e-12
7.60576e-12
7.69414e-12
7.78205e-12
7.8695e-12
7.95648e-12
8.04302e-12
8.12911e-12
8.21476e-12
8.29998e-12
8.38476e-12
8.46913e-12
8.55308e-12
8.63665e-12
8.71985e-12
8.80271e-12
8.88524e-12
8.96745e-12
9.04932e-12
9.13083e-12
9.21197e-12
9.29272e-12
9.37313e-12
9.45336e-12
9.53371e-12
9.61475e-12
9.69733e-12
9.78265e-12
9.87228e-12
9.96796e-12
1.00714e-11
1.01839e-11
1.03057e-11
1.04355e-11
1.05697e-11
1.07024e-11
1.08252e-11
1.09276e-11
1.09978e-11
1.10234e-11
1.09921e-11
1.0895e-11
1.07321e-11
1.05234e-11
1.03237e-11
1.02304e-11
1.03602e-11
1.07735e-11
1.1383e-11
1.19705e-11
1.23514e-11
1.2511e-11
1.25567e-11
1.26069e-11
1.3833e-11
1.60946e-10
-1.01198e-08
-2.36726e-08
-2.88181e-08
-2.92131e-08
-2.77734e-08
-2.54889e-08
-2.27981e-08
-1.98165e-08
-1.67641e-08
-1.38312e-08
-1.11623e-08
-8.85741e-09
-6.97985e-09
-5.56342e-09
-4.62322e-09
-4.16606e-09
-4.17659e-09
-4.65437e-09
-5.58727e-09
-6.95573e-09
-8.73872e-09
-1.09114e-08
-1.34416e-08
-1.62861e-08
-1.93848e-08
-2.26547e-08
-2.59849e-08
-2.92335e-08
-3.22285e-08
-3.47698e-08
-3.66365e-08
-3.7599e-08
-3.74394e-08
-3.59758e-08
-3.30637e-08
-2.85006e-08
-2.18298e-08
-1.23255e-08
4.74323e-10
1.59486e-08
3.21825e-08
4.67833e-08
5.80291e-08
6.5401e-08
6.93304e-08
7.06594e-08
7.02347e-08
6.87311e-08
6.66224e-08
6.42164e-08
6.17023e-08
5.91911e-08
5.67446e-08
5.43948e-08
5.21557e-08
5.00318e-08
4.80213e-08
4.60827e-08
4.42164e-08
4.24223e-08
4.0701e-08
3.90532e-08
3.74798e-08
3.59828e-08
3.45654e-08
3.3231e-08
3.19842e-08
3.08287e-08
2.97661e-08
2.87987e-08
2.79289e-08
2.71542e-08
2.64697e-08
2.58701e-08
2.535e-08
2.49008e-08
2.45102e-08
2.41719e-08
2.38812e-08
2.36285e-08
2.34083e-08
2.32162e-08
2.30493e-08
2.29003e-08
2.27672e-08
2.26394e-08
2.25233e-08
2.24121e-08
2.22045e-08
2.21373e-08
2.21176e-08
2.05331e-08
-3.15762e-10
-1.47574e-08
-2.74097e-08
-4.21096e-08
-5.43848e-08
-6.60514e-08
-5.40672e-08
1.86009e-08
-1.96776e-07
2.62474e-07
6.02981e-07
4.6567e-08
-1.02349e-08
3.91208e-10
-3.00964e-10
-2.81498e-10
-3.06158e-10
-3.30467e-10
-3.56568e-10
-3.83853e-10
-4.11562e-10
-4.38603e-10
-4.63832e-10
-4.89531e-10
-4.92945e-10
-4.97556e-10
-5.07876e-10
-4.96705e-10
-5.72769e-10
-4.74198e-10
-3.67821e-10
-3.65527e-10
-3.65956e-10
-3.65967e-10
-3.65969e-10
-3.65969e-10
-3.65969e-10
-3.65969e-10
-3.65969e-10
-3.65969e-10
-3.65969e-10
-3.65969e-10
-3.65969e-10
-3.65969e-10
-3.65969e-10
-3.65969e-10
-3.65969e-10
-3.65969e-10
-3.6597e-10
-3.65969e-10
-3.6597e-10
-3.65969e-10
-3.6597e-10
-3.65969e-10
-3.6597e-10
-3.65969e-10
-3.6597e-10
-3.6597e-10
-3.6597e-10
-3.6597e-10
-3.65971e-10
-3.6597e-10
-3.65971e-10
-3.6597e-10
-3.65971e-10
-3.6597e-10
-3.65971e-10
-3.6597e-10
-3.65971e-10
-3.65971e-10
-3.65971e-10
-3.65971e-10
-3.65971e-10
-3.65971e-10
-3.65972e-10
-3.65971e-10
-3.65972e-10
-3.65971e-10
-3.65972e-10
-3.65972e-10
-3.65972e-10
-3.65972e-10
-3.65972e-10
-3.65972e-10
-3.65973e-10
-3.65972e-10
-3.65973e-10
-3.65973e-10
-3.65973e-10
-3.65973e-10
-3.65974e-10
-3.65975e-10
-3.65978e-10
-3.6598e-10
-3.65983e-10
-3.65985e-10
-3.65988e-10
-3.6599e-10
-3.65993e-10
-3.65994e-10
-3.65996e-10
-3.65998e-10
-3.66e-10
-3.66e-10
-3.66001e-10
-3.66001e-10
-3.66001e-10
-3.66001e-10
-3.66001e-10
-3.66002e-10
-3.66003e-10
-3.66003e-10
-3.66004e-10
-3.66004e-10
-3.66005e-10
-3.66008e-10
-3.66009e-10
-3.66011e-10
-3.66014e-10
-3.66031e-10
-3.66237e-10
-3.70744e-10
-5.7301e-10
)
;

boundaryField
{
    inandouthalf11
    {
        type            cyclic;
        value           nonuniform List<scalar> 
100
(
2.78237e-39
1.4318e-14
3.02968e-14
4.4984e-14
6.01078e-14
7.59307e-14
9.19669e-14
1.07918e-13
1.23677e-13
1.39189e-13
1.54403e-13
1.69266e-13
1.83722e-13
1.97725e-13
2.11234e-13
2.24217e-13
2.36647e-13
2.485e-13
2.59757e-13
2.70402e-13
2.80422e-13
2.89811e-13
2.98569e-13
3.06698e-13
3.14208e-13
3.2111e-13
3.27425e-13
3.33175e-13
3.38387e-13
3.43094e-13
3.47329e-13
3.51131e-13
3.54539e-13
3.57596e-13
3.60343e-13
3.62823e-13
3.65078e-13
3.67149e-13
3.69078e-13
3.70902e-13
3.72656e-13
3.74373e-13
3.76083e-13
3.77812e-13
3.79585e-13
3.81422e-13
3.83338e-13
3.85346e-13
3.87458e-13
3.89681e-13
3.9202e-13
3.94476e-13
3.97048e-13
3.99734e-13
4.02528e-13
4.05424e-13
4.08412e-13
4.11483e-13
4.14624e-13
4.17824e-13
4.2107e-13
4.2435e-13
4.27651e-13
4.30959e-13
4.34259e-13
4.37535e-13
4.40773e-13
4.43957e-13
4.47072e-13
4.50102e-13
4.53034e-13
4.55858e-13
4.58559e-13
4.61125e-13
4.63543e-13
4.65803e-13
4.67891e-13
4.69793e-13
4.71498e-13
4.72996e-13
4.74275e-13
4.75329e-13
4.76149e-13
4.76729e-13
4.77063e-13
4.77144e-13
4.76967e-13
4.76526e-13
4.75816e-13
4.74833e-13
4.73574e-13
4.72038e-13
4.70225e-13
4.68138e-13
4.65778e-13
4.63151e-13
4.60263e-13
4.5712e-13
4.53732e-13
4.50111e-13
)
;
    }
    inandouthalf12
    {
        type            cyclic;
        value           nonuniform List<scalar> 
100
(
-2.78237e-39
-1.4318e-14
-3.02968e-14
-4.4984e-14
-6.01078e-14
-7.59307e-14
-9.19669e-14
-1.07918e-13
-1.23677e-13
-1.39189e-13
-1.54403e-13
-1.69266e-13
-1.83722e-13
-1.97725e-13
-2.11234e-13
-2.24217e-13
-2.36647e-13
-2.485e-13
-2.59757e-13
-2.70402e-13
-2.80422e-13
-2.89811e-13
-2.98569e-13
-3.06698e-13
-3.14208e-13
-3.2111e-13
-3.27425e-13
-3.33175e-13
-3.38387e-13
-3.43094e-13
-3.47329e-13
-3.51131e-13
-3.54539e-13
-3.57596e-13
-3.60343e-13
-3.62823e-13
-3.65078e-13
-3.67149e-13
-3.69078e-13
-3.70902e-13
-3.72656e-13
-3.74373e-13
-3.76083e-13
-3.77812e-13
-3.79585e-13
-3.81422e-13
-3.83338e-13
-3.85346e-13
-3.87458e-13
-3.89681e-13
-3.9202e-13
-3.94476e-13
-3.97048e-13
-3.99734e-13
-4.02528e-13
-4.05424e-13
-4.08412e-13
-4.11483e-13
-4.14624e-13
-4.17824e-13
-4.2107e-13
-4.2435e-13
-4.27651e-13
-4.30959e-13
-4.34259e-13
-4.37535e-13
-4.40773e-13
-4.43957e-13
-4.47072e-13
-4.50102e-13
-4.53034e-13
-4.55858e-13
-4.58559e-13
-4.61125e-13
-4.63543e-13
-4.65803e-13
-4.67891e-13
-4.69793e-13
-4.71498e-13
-4.72996e-13
-4.74275e-13
-4.75329e-13
-4.76149e-13
-4.76729e-13
-4.77063e-13
-4.77144e-13
-4.76967e-13
-4.76526e-13
-4.75816e-13
-4.74833e-13
-4.73574e-13
-4.72038e-13
-4.70225e-13
-4.68138e-13
-4.65778e-13
-4.63151e-13
-4.60263e-13
-4.5712e-13
-4.53732e-13
-4.50111e-13
)
;
    }
    inandouthalf21
    {
        type            cyclic;
        value           nonuniform List<scalar> 
100
(
4.46269e-13
4.42221e-13
4.37983e-13
4.33571e-13
4.29001e-13
4.24287e-13
4.19441e-13
4.14473e-13
4.09389e-13
4.04194e-13
3.98896e-13
3.93511e-13
3.88073e-13
3.82644e-13
3.77331e-13
3.72298e-13
3.67776e-13
3.64064e-13
3.61506e-13
3.60452e-13
3.6118e-13
3.63795e-13
3.68114e-13
3.73552e-13
3.79051e-13
3.83053e-13
3.83524e-13
3.78013e-13
3.63751e-13
3.37921e-13
2.98411e-13
2.45588e-13
1.8558e-13
1.34525e-13
1.20222e-13
1.73099e-13
3.00948e-13
4.66181e-13
6.03947e-13
6.77051e-13
7.00751e-13
7.07202e-13
6.96241e-13
-2.21343e-12
-3.90835e-11
-2.61103e-07
-2.59176e-07
-2.30695e-07
-2.09044e-07
-1.94297e-07
-1.83752e-07
-1.75203e-07
-1.67829e-07
-1.60965e-07
-1.543e-07
-1.4776e-07
-1.41406e-07
-1.35364e-07
-1.29782e-07
-1.24804e-07
-1.2057e-07
-1.17191e-07
-1.14763e-07
-1.13377e-07
-1.13108e-07
-1.14035e-07
-1.1624e-07
-1.19815e-07
-1.24867e-07
-1.31521e-07
-1.39913e-07
-1.50196e-07
-1.62518e-07
-1.77016e-07
-1.93788e-07
-2.12873e-07
-2.34215e-07
-2.57644e-07
-2.82845e-07
-3.0936e-07
-3.3659e-07
-3.63822e-07
-3.90271e-07
-4.1516e-07
-4.37835e-07
-4.57897e-07
-4.75267e-07
-4.90137e-07
-5.02854e-07
-5.13797e-07
-5.23309e-07
-5.31668e-07
-5.39088e-07
-5.45735e-07
-5.51732e-07
-5.57177e-07
-5.62147e-07
-5.667e-07
-5.70887e-07
-5.74745e-07
)
;
    }
    inandouthalf22
    {
        type            cyclic;
        value           nonuniform List<scalar> 
100
(
-4.46269e-13
-4.42221e-13
-4.37983e-13
-4.33571e-13
-4.29001e-13
-4.24287e-13
-4.19441e-13
-4.14473e-13
-4.09389e-13
-4.04194e-13
-3.98896e-13
-3.93511e-13
-3.88073e-13
-3.82644e-13
-3.77331e-13
-3.72298e-13
-3.67776e-13
-3.64064e-13
-3.61506e-13
-3.60452e-13
-3.6118e-13
-3.63795e-13
-3.68114e-13
-3.73552e-13
-3.79051e-13
-3.83053e-13
-3.83524e-13
-3.78013e-13
-3.63751e-13
-3.37921e-13
-2.98411e-13
-2.45588e-13
-1.8558e-13
-1.34525e-13
-1.20222e-13
-1.73099e-13
-3.00948e-13
-4.66181e-13
-6.03947e-13
-6.77051e-13
-7.00751e-13
-7.07202e-13
-6.96241e-13
2.21343e-12
3.90835e-11
2.61103e-07
2.59176e-07
2.30695e-07
2.09044e-07
1.94297e-07
1.83752e-07
1.75203e-07
1.67829e-07
1.60965e-07
1.543e-07
1.4776e-07
1.41406e-07
1.35364e-07
1.29782e-07
1.24804e-07
1.2057e-07
1.17191e-07
1.14763e-07
1.13377e-07
1.13108e-07
1.14035e-07
1.1624e-07
1.19815e-07
1.24867e-07
1.31521e-07
1.39913e-07
1.50196e-07
1.62518e-07
1.77016e-07
1.93788e-07
2.12873e-07
2.34215e-07
2.57644e-07
2.82845e-07
3.0936e-07
3.3659e-07
3.63822e-07
3.90271e-07
4.1516e-07
4.37835e-07
4.57897e-07
4.75267e-07
4.90137e-07
5.02854e-07
5.13797e-07
5.23309e-07
5.31668e-07
5.39088e-07
5.45735e-07
5.51732e-07
5.57177e-07
5.62147e-07
5.667e-07
5.70887e-07
5.74745e-07
)
;
    }
    inandouthalf31
    {
        type            cyclic;
        value           nonuniform List<scalar> 
110
(
-5.78308e-07
-5.93439e-07
-6.0875e-07
-6.24252e-07
-6.39953e-07
-6.55863e-07
-6.71989e-07
-6.88339e-07
-7.04919e-07
-7.21736e-07
-7.38798e-07
-7.5611e-07
-7.7368e-07
-7.91515e-07
-8.09623e-07
-8.28014e-07
-8.46697e-07
-8.65683e-07
-8.84982e-07
-9.04607e-07
-9.2457e-07
-9.44883e-07
-9.65558e-07
-9.86608e-07
-1.00804e-06
-1.02987e-06
-1.05211e-06
-1.07475e-06
-1.09781e-06
-1.1213e-06
-1.1452e-06
-1.16951e-06
-1.19423e-06
-1.21934e-06
-1.24481e-06
-1.27058e-06
-1.29678e-06
-1.38048e-06
-1.42346e-06
-1.45069e-06
-1.48177e-06
-1.51433e-06
-1.54093e-06
-1.58662e-06
-1.60859e-06
-1.6439e-06
-1.66863e-06
-1.71188e-06
-1.75275e-06
-1.78811e-06
-1.82469e-06
-1.86145e-06
-1.89842e-06
-1.93554e-06
-1.97271e-06
-2.00985e-06
-2.04687e-06
-2.0837e-06
-2.12028e-06
-2.15665e-06
-2.1931e-06
-2.2284e-06
-2.26672e-06
-2.30441e-06
-2.34526e-06
-2.39371e-06
-2.44456e-06
-2.49441e-06
-2.54505e-06
-2.5967e-06
-2.64941e-06
-2.70319e-06
-2.75805e-06
-2.81404e-06
-2.87115e-06
-2.92943e-06
-2.98889e-06
-3.04956e-06
-3.11145e-06
-3.17461e-06
-3.23904e-06
-3.30479e-06
-3.37187e-06
-3.44031e-06
-3.51014e-06
-3.58138e-06
-3.65407e-06
-3.72824e-06
-3.80392e-06
-3.88112e-06
-3.9599e-06
-4.04028e-06
-4.12228e-06
-4.20596e-06
-4.29132e-06
-4.37843e-06
-4.4673e-06
-4.55797e-06
-4.65049e-06
-4.74488e-06
-4.84119e-06
-4.93945e-06
-5.03971e-06
-5.142e-06
-5.24637e-06
-5.35286e-06
-5.46151e-06
-5.57236e-06
-5.68546e-06
-5.80086e-06
)
;
    }
    inandouthalf32
    {
        type            cyclic;
        value           nonuniform List<scalar> 
110
(
5.78308e-07
5.93439e-07
6.0875e-07
6.24252e-07
6.39953e-07
6.55863e-07
6.71989e-07
6.88339e-07
7.04919e-07
7.21736e-07
7.38798e-07
7.5611e-07
7.7368e-07
7.91515e-07
8.09623e-07
8.28014e-07
8.46697e-07
8.65683e-07
8.84982e-07
9.04607e-07
9.2457e-07
9.44883e-07
9.65558e-07
9.86608e-07
1.00804e-06
1.02987e-06
1.05211e-06
1.07475e-06
1.09781e-06
1.1213e-06
1.1452e-06
1.16951e-06
1.19423e-06
1.21934e-06
1.24481e-06
1.27058e-06
1.29678e-06
1.38048e-06
1.42346e-06
1.45069e-06
1.48177e-06
1.51433e-06
1.54093e-06
1.58662e-06
1.60859e-06
1.6439e-06
1.66863e-06
1.71188e-06
1.75275e-06
1.78811e-06
1.82469e-06
1.86145e-06
1.89842e-06
1.93554e-06
1.97271e-06
2.00985e-06
2.04687e-06
2.0837e-06
2.12028e-06
2.15665e-06
2.1931e-06
2.2284e-06
2.26672e-06
2.30441e-06
2.34526e-06
2.39371e-06
2.44456e-06
2.49441e-06
2.54505e-06
2.5967e-06
2.64941e-06
2.70319e-06
2.75805e-06
2.81404e-06
2.87115e-06
2.92943e-06
2.98889e-06
3.04956e-06
3.11145e-06
3.17461e-06
3.23904e-06
3.30479e-06
3.37187e-06
3.44031e-06
3.51014e-06
3.58138e-06
3.65407e-06
3.72824e-06
3.80392e-06
3.88112e-06
3.9599e-06
4.04028e-06
4.12228e-06
4.20596e-06
4.29132e-06
4.37843e-06
4.4673e-06
4.55797e-06
4.65049e-06
4.74488e-06
4.84119e-06
4.93945e-06
5.03971e-06
5.142e-06
5.24637e-06
5.35286e-06
5.46151e-06
5.57236e-06
5.68546e-06
5.80086e-06
)
;
    }
    inandouthalf41
    {
        type            cyclic;
        value           nonuniform List<scalar> 
50
(
-5.19236e-06
-5.19236e-06
-5.19236e-06
-5.19236e-06
-5.19236e-06
-5.19236e-06
-5.19236e-06
-5.19236e-06
-5.19236e-06
-5.19236e-06
-5.19236e-06
-5.19236e-06
-5.19236e-06
-5.19236e-06
-5.19236e-06
-5.19236e-06
-5.19236e-06
-5.19236e-06
-5.19236e-06
-5.19236e-06
-5.19236e-06
-5.19236e-06
-5.19236e-06
-5.19236e-06
-5.19236e-06
-5.19236e-06
-5.19236e-06
-5.19236e-06
-5.19236e-06
-5.19236e-06
-5.19236e-06
-5.19236e-06
-5.19236e-06
-5.19236e-06
-5.19236e-06
-5.19236e-06
-5.19236e-06
-5.19236e-06
-5.19236e-06
-5.19236e-06
-5.19236e-06
-5.19236e-06
-5.19236e-06
-5.19236e-06
-5.19236e-06
-5.19236e-06
-5.19236e-06
-5.19238e-06
-5.1927e-06
-5.20009e-06
)
;
    }
    inandouthalf42
    {
        type            cyclic;
        value           nonuniform List<scalar> 
50
(
5.19236e-06
5.19236e-06
5.19236e-06
5.19236e-06
5.19236e-06
5.19236e-06
5.19236e-06
5.19236e-06
5.19236e-06
5.19236e-06
5.19236e-06
5.19236e-06
5.19236e-06
5.19236e-06
5.19236e-06
5.19236e-06
5.19236e-06
5.19236e-06
5.19236e-06
5.19236e-06
5.19236e-06
5.19236e-06
5.19236e-06
5.19236e-06
5.19236e-06
5.19236e-06
5.19236e-06
5.19236e-06
5.19236e-06
5.19236e-06
5.19236e-06
5.19236e-06
5.19236e-06
5.19236e-06
5.19236e-06
5.19236e-06
5.19236e-06
5.19236e-06
5.19236e-06
5.19236e-06
5.19236e-06
5.19236e-06
5.19236e-06
5.19236e-06
5.19236e-06
5.19236e-06
5.19236e-06
5.19238e-06
5.1927e-06
5.20009e-06
)
;
    }
    top
    {
        type            symmetryPlane;
        value           uniform 0;
    }
    walls
    {
        type            calculated;
        value           uniform 0;
    }
    frontAndBackPlanes
    {
        type            empty;
        value           nonuniform 0();
    }
}


// ************************************************************************* //
