/*--------------------------------*- C++ -*----------------------------------*\
| =========                 |                                                 |
| \\      /  F ield         | OpenFOAM: The Open Source CFD Toolbox           |
|  \\    /   O peration     | Version:  2.4.x                                 |
|   \\  /    A nd           | Web:      www.OpenFOAM.org                      |
|    \\/     M anipulation  |                                                 |
\*---------------------------------------------------------------------------*/
FoamFile
{
    version     2.0;
    format      ascii;
    class       volScalarField;
    location    "8.7";
    object      ddt0(((1.5*(alpha+1e-08))*rho),Theta);
}
// * * * * * * * * * * * * * * * * * * * * * * * * * * * * * * * * * * * * * //

dimensions      [1 -1 -3 0 0 0 0];

internalField   nonuniform List<scalar> 
360
(
-1.37667e-21
-4.58552e-21
-3.40772e-21
-3.29235e-21
-3.73055e-21
-4.01475e-21
-4.10071e-21
-4.12452e-21
-4.13395e-21
-4.13151e-21
-4.11338e-21
-4.07537e-21
-4.01694e-21
-3.94012e-21
-3.84786e-21
-3.74264e-21
-3.62541e-21
-3.49668e-21
-3.35802e-21
-3.21095e-21
-3.05689e-21
-2.89839e-21
-2.73759e-21
-2.5762e-21
-2.41623e-21
-2.25949e-21
-2.10809e-21
-1.9641e-21
-1.82865e-21
-1.7028e-21
-1.58802e-21
-1.48499e-21
-1.3942e-21
-1.31624e-21
-1.25075e-21
-1.1974e-21
-1.15612e-21
-1.12663e-21
-1.10778e-21
-1.09856e-21
-1.09865e-21
-1.10663e-21
-1.12142e-21
-1.14269e-21
-1.16919e-21
-1.19983e-21
-1.23341e-21
-1.26898e-21
-1.30701e-21
-1.34668e-21
-1.38628e-21
-1.42568e-21
-1.46476e-21
-1.50269e-21
-1.53924e-21
-1.5742e-21
-1.60695e-21
-1.63737e-21
-1.66488e-21
-1.68986e-21
-1.71325e-21
-1.73456e-21
-1.75359e-21
-1.76997e-21
-1.78322e-21
-1.7936e-21
-1.80149e-21
-1.80654e-21
-1.80814e-21
-1.80739e-21
-1.80586e-21
-1.80256e-21
-1.79665e-21
-1.78941e-21
-1.78114e-21
-1.77079e-21
-1.75751e-21
-1.74168e-21
-1.72414e-21
-1.7049e-21
-1.68417e-21
-1.66275e-21
-1.64104e-21
-1.61894e-21
-1.59632e-21
-1.57293e-21
-1.54845e-21
-1.52256e-21
-1.49527e-21
-1.46692e-21
-1.43783e-21
-1.4084e-21
-1.37907e-21
-1.35006e-21
-1.32141e-21
-1.29307e-21
-1.26494e-21
-1.23695e-21
-1.2091e-21
-1.18148e-21
-1.15422e-21
-1.12749e-21
-1.10143e-21
-1.07611e-21
-1.05154e-21
-1.02768e-21
-1.00446e-21
-9.81895e-22
-9.60106e-22
-9.39484e-22
-9.20811e-22
-9.05422e-22
-8.95349e-22
-8.93403e-22
-9.03094e-22
-9.28276e-22
-9.72362e-22
-1.03702e-21
-1.12037e-21
-1.21517e-21
-1.30755e-21
-1.37743e-21
-1.40105e-21
-1.35525e-21
-1.22143e-21
-9.86554e-22
-6.39129e-22
-1.61438e-22
4.75763e-22
1.29987e-21
-8.54778e-20
6.15841e-16
8.16084e-15
1.06564e-13
1.45742e-12
2.13394e-11
3.43136e-10
6.1763e-09
1.25429e-07
2.90798e-06
0.000106242
0.00982278
0.333308
3.13623
16.2384
20.4661
12.6789
8.51854
6.24065
4.79648
3.75875
2.88149
2.30053
1.89532
1.61516
1.42901
1.31354
1.24931
1.21987
1.21148
1.21078
1.21401
1.20994
1.19569
1.16859
1.12772
1.07343
1.00719
0.931111
0.847807
0.760038
0.670566
0.581971
0.496551
0.416235
0.342549
0.276584
0.218989
0.169978
0.129362
0.0965882
0.0708266
0.0510891
0.0363546
0.0256498
0.0180811
0.012852
0.00928978
0.00686746
0.00520319
0.00403751
0.00320128
0.00258627
0.00212312
0.00176679
0.0014874
0.00126465
0.00108446
0.000936802
0.000814432
0.000711968
0.000624561
0.000548849
0.000482954
0.000425348
0.000374777
0.000330214
0.00029081
0.000255852
0.000224747
0.000197
0.000172199
0.000150011
0.00013016
0.000112403
9.65489e-05
8.24473e-05
6.99625e-05
5.89664e-05
4.93415e-05
4.09899e-05
3.37992e-05
2.76445e-05
2.24244e-05
1.80358e-05
1.43712e-05
1.13385e-05
8.84351e-06
6.81689e-06
5.17243e-06
3.8648e-06
2.81095e-06
2.00393e-06
1.35511e-06
8.46985e-07
4.71929e-07
0
0
0
0
0
0
0
0
0
0
0
0
0
0
0
0
0
0
0
0
0
0
0
0
0
0
0
0
0
0
0
0
0
0
0
0
0
0
0
0
0
0
0
0
0
0
0
0
0
0
0
0
0
0
0
0
0
0
0
0
0
0
0
0
0
0
0
0
0
0
0
0
0
0
0
0
0
0
0
0
0
0
0
0
0
0
0
0
0
0
0
0
0
0
0
0
0
0
0
0
0
0
0
0
0
0
0
0
0
0
0
0
0
0
0
0
0
0
0
0
0
0
0
0
)
;

boundaryField
{
    inandouthalf11
    {
        type            cyclic;
    }
    inandouthalf12
    {
        type            cyclic;
    }
    inandouthalf21
    {
        type            cyclic;
    }
    inandouthalf22
    {
        type            cyclic;
    }
    inandouthalf31
    {
        type            cyclic;
    }
    inandouthalf32
    {
        type            cyclic;
    }
    inandouthalf41
    {
        type            cyclic;
    }
    inandouthalf42
    {
        type            cyclic;
    }
    top
    {
        type            symmetryPlane;
    }
    walls
    {
        type            calculated;
        value           uniform -1.37667e-21;
    }
    frontAndBackPlanes
    {
        type            empty;
    }
}


// ************************************************************************* //
