/*--------------------------------*- C++ -*----------------------------------*\
| =========                 |                                                 |
| \\      /  F ield         | OpenFOAM: The Open Source CFD Toolbox           |
|  \\    /   O peration     | Version:  2.4.x                                 |
|   \\  /    A nd           | Web:      www.OpenFOAM.org                      |
|    \\/     M anipulation  |                                                 |
\*---------------------------------------------------------------------------*/
FoamFile
{
    version     2.0;
    format      ascii;
    class       volVectorField;
    location    "8.7";
    object      ddt0(Ua);
}
// * * * * * * * * * * * * * * * * * * * * * * * * * * * * * * * * * * * * * //

dimensions      [0 1 -2 0 0 0 0];

internalField   nonuniform List<vector> 
360
(
(-2.78237e-33 -2.52023e-33 0)
(-1.4318e-08 4.2818e-08 0)
(-3.02968e-08 7.80888e-08 0)
(-4.4984e-08 1.101e-07 0)
(-6.01078e-08 1.44539e-07 0)
(-7.59307e-08 1.81004e-07 0)
(-9.19669e-08 2.17976e-07 0)
(-1.07918e-07 2.54848e-07 0)
(-1.23677e-07 2.91435e-07 0)
(-1.39189e-07 3.27609e-07 0)
(-1.54403e-07 3.63251e-07 0)
(-1.69266e-07 3.98234e-07 0)
(-1.83722e-07 4.3243e-07 0)
(-1.97725e-07 4.65727e-07 0)
(-2.11234e-07 4.98034e-07 0)
(-2.24217e-07 5.2928e-07 0)
(-2.36647e-07 5.59409e-07 0)
(-2.485e-07 5.88369e-07 0)
(-2.59757e-07 6.16115e-07 0)
(-2.70402e-07 6.42616e-07 0)
(-2.80422e-07 6.67845e-07 0)
(-2.89811e-07 6.9179e-07 0)
(-2.98569e-07 7.14452e-07 0)
(-3.06698e-07 7.35842e-07 0)
(-3.14208e-07 7.55984e-07 0)
(-3.2111e-07 7.74909e-07 0)
(-3.27425e-07 7.92664e-07 0)
(-3.33175e-07 8.09306e-07 0)
(-3.38387e-07 8.24903e-07 0)
(-3.43094e-07 8.39531e-07 0)
(-3.47329e-07 8.53271e-07 0)
(-3.51131e-07 8.66217e-07 0)
(-3.54539e-07 8.78462e-07 0)
(-3.57596e-07 8.90107e-07 0)
(-3.60343e-07 9.01256e-07 0)
(-3.62823e-07 9.12007e-07 0)
(-3.65078e-07 9.22462e-07 0)
(-3.67149e-07 9.3272e-07 0)
(-3.69078e-07 9.4288e-07 0)
(-3.70902e-07 9.53029e-07 0)
(-3.72656e-07 9.63253e-07 0)
(-3.74373e-07 9.73633e-07 0)
(-3.76083e-07 9.84237e-07 0)
(-3.77812e-07 9.95131e-07 0)
(-3.79585e-07 1.00637e-06 0)
(-3.81422e-07 1.01801e-06 0)
(-3.83338e-07 1.03009e-06 0)
(-3.85346e-07 1.04264e-06 0)
(-3.87458e-07 1.05568e-06 0)
(-3.89681e-07 1.06924e-06 0)
(-3.9202e-07 1.08334e-06 0)
(-3.94476e-07 1.09797e-06 0)
(-3.97048e-07 1.11315e-06 0)
(-3.99734e-07 1.12887e-06 0)
(-4.02528e-07 1.14512e-06 0)
(-4.05424e-07 1.16189e-06 0)
(-4.08412e-07 1.17917e-06 0)
(-4.11483e-07 1.19694e-06 0)
(-4.14624e-07 1.21518e-06 0)
(-4.17824e-07 1.23385e-06 0)
(-4.2107e-07 1.25295e-06 0)
(-4.2435e-07 1.27245e-06 0)
(-4.27651e-07 1.29234e-06 0)
(-4.30959e-07 1.31258e-06 0)
(-4.34259e-07 1.33315e-06 0)
(-4.37535e-07 1.35403e-06 0)
(-4.40773e-07 1.37518e-06 0)
(-4.43957e-07 1.39658e-06 0)
(-4.47072e-07 1.41821e-06 0)
(-4.50102e-07 1.44002e-06 0)
(-4.53034e-07 1.46201e-06 0)
(-4.55858e-07 1.48416e-06 0)
(-4.58559e-07 1.50646e-06 0)
(-4.61125e-07 1.52887e-06 0)
(-4.63543e-07 1.55138e-06 0)
(-4.65803e-07 1.57399e-06 0)
(-4.67891e-07 1.59667e-06 0)
(-4.69793e-07 1.61939e-06 0)
(-4.71498e-07 1.64213e-06 0)
(-4.72996e-07 1.66488e-06 0)
(-4.74275e-07 1.68761e-06 0)
(-4.75329e-07 1.71032e-06 0)
(-4.76149e-07 1.733e-06 0)
(-4.76729e-07 1.75564e-06 0)
(-4.77063e-07 1.77825e-06 0)
(-4.77144e-07 1.80081e-06 0)
(-4.76967e-07 1.82332e-06 0)
(-4.76526e-07 1.84575e-06 0)
(-4.75816e-07 1.86811e-06 0)
(-4.74833e-07 1.89037e-06 0)
(-4.73574e-07 1.91252e-06 0)
(-4.72038e-07 1.93455e-06 0)
(-4.70225e-07 1.95647e-06 0)
(-4.68138e-07 1.97828e-06 0)
(-4.65778e-07 1.99997e-06 0)
(-4.63151e-07 2.02154e-06 0)
(-4.60263e-07 2.04301e-06 0)
(-4.5712e-07 2.06437e-06 0)
(-4.53732e-07 2.08562e-06 0)
(-4.50111e-07 2.10676e-06 0)
(-4.46269e-07 2.1278e-06 0)
(-4.42221e-07 2.14874e-06 0)
(-4.37983e-07 2.16958e-06 0)
(-4.33571e-07 2.19034e-06 0)
(-4.29001e-07 2.21101e-06 0)
(-4.24287e-07 2.23161e-06 0)
(-4.19441e-07 2.25212e-06 0)
(-4.14473e-07 2.27254e-06 0)
(-4.09389e-07 2.29287e-06 0)
(-4.04194e-07 2.31311e-06 0)
(-3.98896e-07 2.33325e-06 0)
(-3.93511e-07 2.35332e-06 0)
(-3.88073e-07 2.37336e-06 0)
(-3.82644e-07 2.39349e-06 0)
(-3.77331e-07 2.41388e-06 0)
(-3.72298e-07 2.43478e-06 0)
(-3.67776e-07 2.45655e-06 0)
(-3.64064e-07 2.47959e-06 0)
(-3.61506e-07 2.50439e-06 0)
(-3.60452e-07 2.53132e-06 0)
(-3.6118e-07 2.56064e-06 0)
(-3.63795e-07 2.59223e-06 0)
(-3.68114e-07 2.62552e-06 0)
(-3.73552e-07 2.65933e-06 0)
(-3.79051e-07 2.69186e-06 0)
(-3.83053e-07 2.72072e-06 0)
(-3.83524e-07 2.74308e-06 0)
(-3.78013e-07 2.75584e-06 0)
(-3.63751e-07 2.75584e-06 0)
(-3.37921e-07 2.7402e-06 0)
(-2.98411e-07 2.70729e-06 0)
(-2.45588e-07 2.65875e-06 0)
(-1.8558e-07 2.60297e-06 0)
(-1.34525e-07 2.5589e-06 0)
(-1.20222e-07 2.55631e-06 0)
(-1.73099e-07 2.62383e-06 0)
(-3.00948e-07 2.76286e-06 0)
(-4.66181e-07 2.92834e-06 0)
(-6.03947e-07 3.05686e-06 0)
(-6.77051e-07 3.11916e-06 0)
(-7.00751e-07 3.1364e-06 0)
(-7.07202e-07 3.14182e-06 0)
(-6.96241e-07 3.15843e-06 0)
(2.21343e-06 7.24682e-06 0)
(3.90835e-05 3.86108e-05 0)
(0.261103 -0.00485395 0)
(0.259176 -0.00733607 0)
(0.230695 -0.00756226 0)
(0.209044 -0.00726056 0)
(0.194297 -0.00673202 0)
(0.183752 -0.00613022 0)
(0.175203 -0.00535268 0)
(0.167829 -0.0045873 0)
(0.160965 -0.00383228 0)
(0.1543 -0.00312503 0)
(0.14776 -0.00249658 0)
(0.141406 -0.00196855 0)
(0.135364 -0.00155297 0)
(0.129782 -0.00125571 0)
(0.124804 -0.00107916 0)
(0.12057 -0.00102215 0)
(0.117191 -0.00108258 0)
(0.114763 -0.00125881 0)
(0.113377 -0.00154686 0)
(0.113108 -0.00194168 0)
(0.114035 -0.00243759 0)
(0.11624 -0.00302761 0)
(0.119815 -0.00370259 0)
(0.124867 -0.00444991 0)
(0.131521 -0.00525192 0)
(0.139913 -0.00608455 0)
(0.150196 -0.00691625 0)
(0.162518 -0.0077077 0)
(0.177016 -0.00841203 0)
(0.193788 -0.00897587 0)
(0.212873 -0.00934168 0)
(0.234215 -0.00945264 0)
(0.257644 -0.0092608 0)
(0.282845 -0.00873187 0)
(0.30936 -0.00782788 0)
(0.33659 -0.00645854 0)
(0.363822 -0.00445021 0)
(0.390271 -0.00162659 0)
(0.41516 0.00199607 0)
(0.437835 0.00607128 0)
(0.457897 0.0100186 0)
(0.475267 0.013298 0)
(0.490137 0.0156283 0)
(0.502854 0.0170128 0)
(0.513797 0.0176282 0)
(0.523309 0.0176997 0)
(0.531668 0.0174249 0)
(0.539088 0.0169493 0)
(0.545735 0.0163691 0)
(0.551732 0.0157444 0)
(0.557177 0.0151105 0)
(0.562147 0.0144876 0)
(0.5667 0.0138864 0)
(0.570887 0.0133121 0)
(0.574745 0.0127665 0)
(0.578306 0.0122498 0)
(0.581632 0.0117562 0)
(0.584769 0.0112806 0)
(0.58773 0.0108231 0)
(0.590527 0.0103837 0)
(0.593168 0.00996263 0)
(0.595663 0.00955996 0)
(0.598017 0.0091761 0)
(0.600238 0.00881168 0)
(0.602332 0.00846758 0)
(0.604305 0.00814483 0)
(0.606162 0.00784446 0)
(0.607909 0.00756715 0)
(0.609551 0.00731346 0)
(0.611093 0.00708398 0)
(0.612541 0.00687869 0)
(0.613901 0.00669669 0)
(0.61518 0.00653667 0)
(0.616384 0.00639729 0)
(0.617519 0.00627673 0)
(0.618591 0.00617233 0)
(0.619605 0.0060818 0)
(0.620567 0.00600364 0)
(0.621481 0.00593612 0)
(0.622351 0.0058774 0)
(0.623179 0.0058262 0)
(0.623968 0.00578161 0)
(0.624718 0.00574244 0)
(0.625429 0.00570744 0)
(0.626098 0.00567525 0)
(0.626723 0.00564549 0)
(0.627298 0.00561618 0)
(0.627812 0.00557809 0)
(0.62826 0.00554814 0)
(0.628626 0.00552668 0)
(0.628873 0.00541008 0)
(0.629075 0.00515735 0)
(0.656356 -0.00559857 0)
(0.663324 -0.00425486 0)
(0.662565 -0.0085988 0)
(0.663297 -0.0124308 0)
(0.664387 -0.00791027 0)
(0.66261 -0.038742 0)
(0.668683 0.0294523 0)
(0.664459 -0.0365545 0)
(0.665533 -0.0636384 0)
(0.662106 0.182376 0)
(0.665755 0.0793342 0)
(0.668089 -0.00533641 0)
(0.66801 0.00027499 0)
(0.668115 -8.33519e-05 0)
(0.668013 -6.73394e-05 0)
(0.66773 -7.38372e-05 0)
(0.667241 -7.96367e-05 0)
(0.666526 -8.59444e-05 0)
(0.665566 -9.25988e-05 0)
(0.664341 -9.94418e-05 0)
(0.66284 -0.000106233 0)
(0.66106 -0.000112652 0)
(0.659022 -0.000118448 0)
(0.656827 -0.000125018 0)
(0.654125 -0.000119812 0)
(0.652135 -0.0001275 0)
(0.649789 -0.000124698 0)
(0.648154 -0.000133603 0)
(0.648382 -0.000129945 0)
(0.648983 -0.000105773 0)
(0.649044 -9.24693e-05 0)
(0.649046 -9.15078e-05 0)
(0.649046 -9.14917e-05 0)
(0.649046 -9.14925e-05 0)
(0.649046 -9.14921e-05 0)
(0.649046 -9.14925e-05 0)
(0.649046 -9.14921e-05 0)
(0.649046 -9.14925e-05 0)
(0.649046 -9.14921e-05 0)
(0.649046 -9.14925e-05 0)
(0.649046 -9.14921e-05 0)
(0.649046 -9.14925e-05 0)
(0.649046 -9.14921e-05 0)
(0.649046 -9.14925e-05 0)
(0.649046 -9.14921e-05 0)
(0.649046 -9.14925e-05 0)
(0.649046 -9.14921e-05 0)
(0.649046 -9.14926e-05 0)
(0.649046 -9.14921e-05 0)
(0.649046 -9.14926e-05 0)
(0.649046 -9.14921e-05 0)
(0.649046 -9.14926e-05 0)
(0.649046 -9.14921e-05 0)
(0.649046 -9.14927e-05 0)
(0.649046 -9.14921e-05 0)
(0.649046 -9.14928e-05 0)
(0.649046 -9.14921e-05 0)
(0.649046 -9.14929e-05 0)
(0.649046 -9.14922e-05 0)
(0.649046 -9.1493e-05 0)
(0.649046 -9.14922e-05 0)
(0.649046 -9.1493e-05 0)
(0.649046 -9.14922e-05 0)
(0.649046 -9.14931e-05 0)
(0.649046 -9.14922e-05 0)
(0.649046 -9.14931e-05 0)
(0.649046 -9.14922e-05 0)
(0.649046 -9.14932e-05 0)
(0.649046 -9.14922e-05 0)
(0.649046 -9.14933e-05 0)
(0.649046 -9.14922e-05 0)
(0.649046 -9.14933e-05 0)
(0.649046 -9.14922e-05 0)
(0.649046 -9.14933e-05 0)
(0.649046 -9.14923e-05 0)
(0.649046 -9.14934e-05 0)
(0.649046 -9.14924e-05 0)
(0.649046 -9.14935e-05 0)
(0.649046 -9.14924e-05 0)
(0.649046 -9.14935e-05 0)
(0.649046 -9.14925e-05 0)
(0.649046 -9.14936e-05 0)
(0.649046 -9.14925e-05 0)
(0.649046 -9.14936e-05 0)
(0.649046 -9.14926e-05 0)
(0.649046 -9.14937e-05 0)
(0.649046 -9.14926e-05 0)
(0.649046 -9.14938e-05 0)
(0.649046 -9.14927e-05 0)
(0.649046 -9.1494e-05 0)
(0.649046 -9.14931e-05 0)
(0.649046 -9.14947e-05 0)
(0.649046 -9.14941e-05 0)
(0.649046 -9.1496e-05 0)
(0.649046 -9.14955e-05 0)
(0.649046 -9.14973e-05 0)
(0.649046 -9.14968e-05 0)
(0.649046 -9.14985e-05 0)
(0.649046 -9.14977e-05 0)
(0.649046 -9.14994e-05 0)
(0.649046 -9.14987e-05 0)
(0.649046 -9.15004e-05 0)
(0.649046 -9.14994e-05 0)
(0.649046 -9.15008e-05 0)
(0.649046 -9.14996e-05 0)
(0.649046 -9.15009e-05 0)
(0.649046 -9.14996e-05 0)
(0.649046 -9.15009e-05 0)
(0.649046 -9.14998e-05 0)
(0.649046 -9.15012e-05 0)
(0.649046 -9.15001e-05 0)
(0.649046 -9.15015e-05 0)
(0.649046 -9.15004e-05 0)
(0.649046 -9.15018e-05 0)
(0.649046 -9.1501e-05 0)
(0.649046 -9.15027e-05 0)
(0.649046 -9.15018e-05 0)
(0.649046 -9.15038e-05 0)
(0.649046 -9.1504e-05 0)
(0.649046 -9.15108e-05 0)
(0.649047 -9.16099e-05 0)
(0.649087 -9.37644e-05 0)
(0.650011 -0.000181032 0)
)
;

boundaryField
{
    inandouthalf11
    {
        type            cyclic;
    }
    inandouthalf12
    {
        type            cyclic;
    }
    inandouthalf21
    {
        type            cyclic;
    }
    inandouthalf22
    {
        type            cyclic;
    }
    inandouthalf31
    {
        type            cyclic;
    }
    inandouthalf32
    {
        type            cyclic;
    }
    inandouthalf41
    {
        type            cyclic;
    }
    inandouthalf42
    {
        type            cyclic;
    }
    top
    {
        type            symmetryPlane;
    }
    walls
    {
        type            calculated;
        value           uniform (0 0 0);
    }
    frontAndBackPlanes
    {
        type            empty;
    }
}


// ************************************************************************* //
