/*--------------------------------*- C++ -*----------------------------------*\
| =========                 |                                                 |
| \\      /  F ield         | OpenFOAM: The Open Source CFD Toolbox           |
|  \\    /   O peration     | Version:  2.4.x                                 |
|   \\  /    A nd           | Web:      www.OpenFOAM.org                      |
|    \\/     M anipulation  |                                                 |
\*---------------------------------------------------------------------------*/
FoamFile
{
    version     2.0;
    format      ascii;
    class       volVectorField;
    location    "8.7";
    object      ddt0(Ub);
}
// * * * * * * * * * * * * * * * * * * * * * * * * * * * * * * * * * * * * * //

dimensions      [0 1 -2 0 0 0 0];

internalField   nonuniform List<vector> 
360
(
(-0.000312199 -1.78412e-08 0)
(-0.000310534 -6.40818e-08 0)
(-0.000310302 -1.19523e-07 0)
(-0.000310545 -1.73055e-07 0)
(-0.000310675 -2.27496e-07 0)
(-0.00031073 -2.84027e-07 0)
(-0.000310792 -3.41659e-07 0)
(-0.000310867 -3.99371e-07 0)
(-0.000310943 -4.56656e-07 0)
(-0.000311019 -5.13271e-07 0)
(-0.000311096 -5.69039e-07 0)
(-0.000311173 -6.23754e-07 0)
(-0.00031125 -6.77228e-07 0)
(-0.000311327 -7.29284e-07 0)
(-0.000311404 -7.79775e-07 0)
(-0.000311481 -8.28588e-07 0)
(-0.000311559 -8.75633e-07 0)
(-0.000311636 -9.20838e-07 0)
(-0.000311713 -9.64128e-07 0)
(-0.00031179 -1.00545e-06 0)
(-0.000311867 -1.04476e-06 0)
(-0.000311944 -1.08206e-06 0)
(-0.000312021 -1.11734e-06 0)
(-0.000312098 -1.15061e-06 0)
(-0.000312175 -1.18192e-06 0)
(-0.000312252 -1.21131e-06 0)
(-0.000312329 -1.23886e-06 0)
(-0.000312406 -1.26465e-06 0)
(-0.000312483 -1.28881e-06 0)
(-0.00031256 -1.31144e-06 0)
(-0.000312638 -1.33267e-06 0)
(-0.000312716 -1.35265e-06 0)
(-0.000312794 -1.37152e-06 0)
(-0.000312873 -1.38946e-06 0)
(-0.000312951 -1.4066e-06 0)
(-0.000313031 -1.42312e-06 0)
(-0.00031311 -1.43917e-06 0)
(-0.000313191 -1.45491e-06 0)
(-0.000313273 -1.4705e-06 0)
(-0.000313354 -1.48604e-06 0)
(-0.000313437 -1.50171e-06 0)
(-0.000313521 -1.51761e-06 0)
(-0.000313605 -1.53386e-06 0)
(-0.000313691 -1.55056e-06 0)
(-0.000313777 -1.56778e-06 0)
(-0.000313864 -1.58563e-06 0)
(-0.000313953 -1.60416e-06 0)
(-0.000314042 -1.62341e-06 0)
(-0.000314132 -1.64342e-06 0)
(-0.000314225 -1.66425e-06 0)
(-0.000314317 -1.6859e-06 0)
(-0.000314412 -1.70839e-06 0)
(-0.000314507 -1.73172e-06 0)
(-0.000314604 -1.75588e-06 0)
(-0.000314701 -1.78086e-06 0)
(-0.000314801 -1.80666e-06 0)
(-0.000314901 -1.83323e-06 0)
(-0.000315003 -1.86057e-06 0)
(-0.000315106 -1.88862e-06 0)
(-0.00031521 -1.91734e-06 0)
(-0.000315317 -1.94673e-06 0)
(-0.000315423 -1.97673e-06 0)
(-0.000315533 -2.00732e-06 0)
(-0.000315643 -2.03844e-06 0)
(-0.000315754 -2.07008e-06 0)
(-0.000315867 -2.10217e-06 0)
(-0.000315982 -2.13469e-06 0)
(-0.000316098 -2.16757e-06 0)
(-0.000316215 -2.20079e-06 0)
(-0.000316333 -2.23429e-06 0)
(-0.000316455 -2.26806e-06 0)
(-0.000316577 -2.30207e-06 0)
(-0.0003167 -2.33627e-06 0)
(-0.000316826 -2.37064e-06 0)
(-0.000316953 -2.40516e-06 0)
(-0.000317083 -2.43981e-06 0)
(-0.000317213 -2.47453e-06 0)
(-0.000317346 -2.50931e-06 0)
(-0.00031748 -2.5441e-06 0)
(-0.000317617 -2.57887e-06 0)
(-0.000317755 -2.61361e-06 0)
(-0.000317895 -2.64829e-06 0)
(-0.000318037 -2.6829e-06 0)
(-0.000318182 -2.71744e-06 0)
(-0.000318329 -2.7519e-06 0)
(-0.000318478 -2.78626e-06 0)
(-0.000318629 -2.8205e-06 0)
(-0.000318783 -2.85462e-06 0)
(-0.000318939 -2.88858e-06 0)
(-0.000319098 -2.92236e-06 0)
(-0.00031926 -2.95594e-06 0)
(-0.000319424 -2.98933e-06 0)
(-0.000319591 -3.02251e-06 0)
(-0.000319761 -3.05547e-06 0)
(-0.000319935 -3.08822e-06 0)
(-0.000320112 -3.12077e-06 0)
(-0.000320292 -3.15312e-06 0)
(-0.000320475 -3.18526e-06 0)
(-0.000320663 -3.2172e-06 0)
(-0.000320854 -3.24893e-06 0)
(-0.000321049 -3.28046e-06 0)
(-0.000321248 -3.31181e-06 0)
(-0.000321452 -3.34296e-06 0)
(-0.00032166 -3.37394e-06 0)
(-0.000321874 -3.40474e-06 0)
(-0.000322092 -3.43536e-06 0)
(-0.000322315 -3.46581e-06 0)
(-0.000322544 -3.49608e-06 0)
(-0.000322779 -3.52615e-06 0)
(-0.00032302 -3.55603e-06 0)
(-0.000323267 -3.58571e-06 0)
(-0.000323521 -3.61523e-06 0)
(-0.000323781 -3.64468e-06 0)
(-0.000324049 -3.67422e-06 0)
(-0.000324324 -3.70412e-06 0)
(-0.000324608 -3.73478e-06 0)
(-0.000324901 -3.76673e-06 0)
(-0.000325203 -3.80059e-06 0)
(-0.000325515 -3.83703e-06 0)
(-0.000325838 -3.87662e-06 0)
(-0.000326173 -3.91964e-06 0)
(-0.000326521 -3.96587e-06 0)
(-0.000326881 -4.01437e-06 0)
(-0.000327255 -4.06331e-06 0)
(-0.000327641 -4.10992e-06 0)
(-0.00032804 -4.15059e-06 0)
(-0.000328451 -4.18105e-06 0)
(-0.000328872 -4.19665e-06 0)
(-0.000329302 -4.19269e-06 0)
(-0.000329741 -4.16517e-06 0)
(-0.000330186 -4.11242e-06 0)
(-0.00033064 -4.03829e-06 0)
(-0.000331109 -3.95709e-06 0)
(-0.000331616 -3.89782e-06 0)
(-0.000332191 -3.90122e-06 0)
(-0.000332866 -4.00082e-06 0)
(-0.000333645 -4.19123e-06 0)
(-0.000334504 -4.41408e-06 0)
(-0.000335415 -4.59261e-06 0)
(-0.000336381 -4.7121e-06 0)
(-0.000337378 -2.62357e-06 0)
(-0.000338327 -2.11253e-05 0)
(-0.000339097 4.57145e-05 0)
(-5.43322e-05 -0.000216355 0)
(0.0490583 0.000731591 0)
(0.290555 0.00585894 0)
(0.251733 0.00424604 0)
(0.219532 0.00334475 0)
(0.198011 0.00259558 0)
(0.183593 0.00198772 0)
(0.173275 0.00146854 0)
(0.1653 0.0010071 0)
(0.1585 0.000615361 0)
(0.152199 0.00029216 0)
(0.146079 3.28968e-05 0)
(0.140042 -0.000168804 0)
(0.134116 -0.000320758 0)
(0.128386 -0.000431275 0)
(0.122964 -0.000508318 0)
(0.117967 -0.000559018 0)
(0.113503 -0.000589492 0)
(0.10967 -0.000604728 0)
(0.106549 -0.000608747 0)
(0.104211 -0.000604795 0)
(0.102715 -0.000595332 0)
(0.102114 -0.000582174 0)
(0.102453 -0.000566615 0)
(0.103777 -0.000549545 0)
(0.106129 -0.000531537 0)
(0.109556 -0.00051293 0)
(0.114107 -0.000493876 0)
(0.119844 -0.000474368 0)
(0.126835 -0.000454272 0)
(0.135164 -0.000433356 0)
(0.144929 -0.000411332 0)
(0.156243 -0.000387907 0)
(0.169231 -0.000362821 0)
(0.184027 -0.000335918 0)
(0.200761 -0.000307286 0)
(0.219539 -0.000277447 0)
(0.240412 -0.000247373 0)
(0.263346 -0.000218032 0)
(0.28817 -0.000189679 0)
(0.314543 -0.000161747 0)
(0.341932 -0.000133752 0)
(0.36963 -0.00010634 0)
(0.396832 -8.12345e-05 0)
(0.422753 -6.01481e-05 0)
(0.446741 -4.38169e-05 0)
(0.468367 -3.19009e-05 0)
(0.487441 -2.34844e-05 0)
(0.503986 -1.7589e-05 0)
(0.518175 -1.3427e-05 0)
(0.530268 -1.04416e-05 0)
(0.540553 -8.26003e-06 0)
(0.549317 -6.63577e-06 0)
(0.556817 -5.40482e-06 0)
(0.563279 -4.45653e-06 0)
(0.568892 -3.71498e-06 0)
(0.573809 -3.12724e-06 0)
(0.578158 -2.65566e-06 0)
(0.582079 -2.26931e-06 0)
(0.585676 -1.94785e-06 0)
(0.588999 -1.67898e-06 0)
(0.592091 -1.453e-06 0)
(0.594988 -1.26217e-06 0)
(0.59772 -1.10034e-06 0)
(0.60031 -9.62564e-07 0)
(0.60278 -8.44863e-07 0)
(0.605148 -7.43948e-07 0)
(0.607426 -6.5703e-07 0)
(0.609626 -5.81709e-07 0)
(0.611758 -5.15996e-07 0)
(0.613831 -4.58319e-07 0)
(0.615849 -4.07292e-07 0)
(0.617819 -3.61647e-07 0)
(0.619744 -3.20415e-07 0)
(0.621629 -2.82984e-07 0)
(0.623477 -2.48873e-07 0)
(0.625288 -2.17664e-07 0)
(0.627066 -1.8915e-07 0)
(0.628812 -1.63322e-07 0)
(0.630526 -1.40113e-07 0)
(0.632211 -1.19367e-07 0)
(0.633866 -1.0097e-07 0)
(0.635491 -8.48272e-08 0)
(0.637088 -7.07735e-08 0)
(0.638655 -5.86208e-08 0)
(0.640193 -4.81946e-08 0)
(0.6417 -3.93392e-08 0)
(0.643178 -3.18445e-08 0)
(0.644623 -2.55178e-08 0)
(0.646036 -2.03859e-08 0)
(0.647415 -1.61627e-08 0)
(0.648757 -1.2262e-08 0)
(0.650062 -9.24995e-09 0)
(0.651326 -6.68538e-09 0)
(0.652547 -3.83854e-09 0)
(0.653721 -1.62178e-09 0)
(0.654845 -2.08454e-10 0)
(0.655915 6.44929e-10 0)
(0.656925 1.11534e-09 0)
(0.65787 1.17987e-09 0)
(0.658744 9.19327e-10 0)
(0.659539 1.2951e-09 0)
(0.660247 1.37883e-09 0)
(0.66086 1.25064e-09 0)
(0.661366 1.51406e-09 0)
(0.661753 1.28112e-09 0)
(0.662009 1.20798e-09 0)
(0.662119 1.1525e-09 0)
(0.662066 1.09903e-09 0)
(0.661831 1.04697e-09 0)
(0.661395 1.0008e-09 0)
(0.660737 9.57857e-10 0)
(0.659836 9.21422e-10 0)
(0.658673 8.89181e-10 0)
(0.657234 8.66504e-10 0)
(0.655514 7.73113e-10 0)
(0.653522 9.33629e-10 0)
(0.651297 6.01335e-10 0)
(0.648914 1.07823e-09 0)
(0.646501 4.23412e-10 0)
(0.644256 1.24303e-09 0)
(0.642462 2.66595e-10 0)
(0.642299 1.32402e-09 0)
(0.643052 1.34332e-10 0)
(0.643135 1.34843e-09 0)
(0.643137 4.05185e-11 0)
(0.643137 1.37406e-09 0)
(0.643137 -4.35079e-11 0)
(0.643137 1.42655e-09 0)
(0.643137 -1.1415e-10 0)
(0.643137 1.48621e-09 0)
(0.643137 -1.94413e-10 0)
(0.643137 1.54777e-09 0)
(0.643137 -2.79006e-10 0)
(0.643137 1.614e-09 0)
(0.643137 -3.76006e-10 0)
(0.643137 1.67828e-09 0)
(0.643137 -4.75497e-10 0)
(0.643137 1.78728e-09 0)
(0.643137 -5.3238e-10 0)
(0.643137 1.88277e-09 0)
(0.643137 -6.3337e-10 0)
(0.643137 1.96088e-09 0)
(0.643137 -7.76474e-10 0)
(0.643137 1.97197e-09 0)
(0.643137 -9.73514e-10 0)
(0.643137 2.02084e-09 0)
(0.643137 -1.14561e-09 0)
(0.643137 2.01512e-09 0)
(0.643137 -1.4034e-09 0)
(0.643137 1.9794e-09 0)
(0.643137 -1.70334e-09 0)
(0.643137 1.84596e-09 0)
(0.643137 -2.03837e-09 0)
(0.643137 1.92478e-09 0)
(0.643137 -2.16453e-09 0)
(0.643137 2.00228e-09 0)
(0.643137 -2.36731e-09 0)
(0.643137 2.0681e-09 0)
(0.643137 -2.58534e-09 0)
(0.643137 2.09985e-09 0)
(0.643137 -2.83972e-09 0)
(0.643137 2.15421e-09 0)
(0.643137 -3.07797e-09 0)
(0.643137 2.19566e-09 0)
(0.643137 -3.34933e-09 0)
(0.643137 2.23036e-09 0)
(0.643137 -3.27072e-09 0)
(0.643137 1.84696e-09 0)
(0.643137 -3.44447e-09 0)
(0.643137 1.75485e-09 0)
(0.643137 -3.62427e-09 0)
(0.643137 1.66061e-09 0)
(0.643137 -3.80131e-09 0)
(0.643137 1.56833e-09 0)
(0.643137 -3.96632e-09 0)
(0.643137 1.49051e-09 0)
(0.643137 -4.14911e-09 0)
(0.643137 1.33873e-09 0)
(0.643137 -4.40223e-09 0)
(0.643137 1.16256e-09 0)
(0.643137 -4.68557e-09 0)
(0.643137 8.83056e-10 0)
(0.643137 -5.16538e-09 0)
(0.643137 1.04199e-10 0)
(0.643137 -6.85444e-09 0)
(0.643137 -2.5636e-09 0)
(0.643137 -1.0281e-08 0)
(0.643137 -6.03291e-09 0)
(0.643137 -1.37355e-08 0)
(0.643137 -9.31918e-09 0)
(0.643137 -1.6719e-08 0)
(0.643137 -1.17244e-08 0)
(0.643137 -1.90889e-08 0)
(0.643137 -1.42715e-08 0)
(0.643137 -2.14742e-08 0)
(0.643137 -1.58709e-08 0)
(0.643137 -2.25567e-08 0)
(0.643137 -1.65973e-08 0)
(0.643137 -2.28768e-08 0)
(0.643137 -1.63784e-08 0)
(0.643137 -2.2822e-08 0)
(0.643137 -1.69123e-08 0)
(0.643137 -2.37885e-08 0)
(0.643137 -1.78189e-08 0)
(0.643137 -2.4653e-08 0)
(0.643137 -1.86137e-08 0)
(0.643137 -2.57186e-08 0)
(0.643137 -2.05573e-08 0)
(0.643137 -2.83735e-08 0)
(0.643137 -2.30429e-08 0)
(0.643137 -3.17701e-08 0)
(0.643137 -2.92132e-08 0)
(0.643137 -3.9125e-08 0)
(0.643137 -3.88846e-08 0)
(0.643137 -6.27568e-08 0)
(0.643137 -3.20833e-08 0)
)
;

boundaryField
{
    inandouthalf11
    {
        type            cyclic;
    }
    inandouthalf12
    {
        type            cyclic;
    }
    inandouthalf21
    {
        type            cyclic;
    }
    inandouthalf22
    {
        type            cyclic;
    }
    inandouthalf31
    {
        type            cyclic;
    }
    inandouthalf32
    {
        type            cyclic;
    }
    inandouthalf41
    {
        type            cyclic;
    }
    inandouthalf42
    {
        type            cyclic;
    }
    top
    {
        type            symmetryPlane;
    }
    walls
    {
        type            calculated;
        value           uniform (0 0 0);
    }
    frontAndBackPlanes
    {
        type            empty;
    }
}


// ************************************************************************* //
