/*--------------------------------*- C++ -*----------------------------------*\
| =========                 |                                                 |
| \\      /  F ield         | OpenFOAM: The Open Source CFD Toolbox           |
|  \\    /   O peration     | Version:  2.4.x                                 |
|   \\  /    A nd           | Web:      www.OpenFOAM.org                      |
|    \\/     M anipulation  |                                                 |
\*---------------------------------------------------------------------------*/
FoamFile
{
    version     2.0;
    format      ascii;
    class       volScalarField;
    location    "8.7";
    object      epsilon;
}
// * * * * * * * * * * * * * * * * * * * * * * * * * * * * * * * * * * * * * //

dimensions      [0 2 -3 0 0 0 0];

internalField   nonuniform List<scalar> 
360
(
1e-20
1e-20
1e-20
1e-20
1e-20
1e-20
1e-20
1e-20
1e-20
1e-20
1e-20
1e-20
1e-20
1e-20
1e-20
1e-20
1e-20
1e-20
1e-20
1e-20
1e-20
1e-20
1e-20
1e-20
1e-20
1e-20
1e-20
1e-20
1e-20
1e-20
1e-20
1e-20
1e-20
1e-20
1e-20
1e-20
1e-20
1e-20
1e-20
1e-20
1e-20
1e-20
1e-20
1e-20
1e-20
1e-20
1e-20
1e-20
1e-20
1e-20
1e-20
1e-20
1e-20
1e-20
1e-20
1e-20
1e-20
1e-20
1e-20
1e-20
1e-20
1e-20
1e-20
1e-20
1e-20
1e-20
1e-20
1e-20
1e-20
1e-20
1e-20
1e-20
1e-20
1e-20
1e-20
1e-20
1e-20
1e-20
1e-20
1e-20
1e-20
1e-20
1e-20
1e-20
1e-20
1e-20
1e-20
1e-20
1e-20
1e-20
1e-20
1e-20
1e-20
1e-20
1e-20
1e-20
1e-20
1e-20
1e-20
1e-20
1e-20
1e-20
1e-20
1e-20
1e-20
1e-20
1e-20
1e-20
1e-20
1e-20
1e-20
1e-20
1e-20
1e-20
1e-20
1e-20
1e-20
1e-20
1e-20
1e-20
1e-20
1e-20
1e-20
1e-20
1e-20
1e-20
1e-20
1e-20
1e-20
1e-20
1.10519e-20
6.19308e-20
8.25037e-19
1.24477e-17
2.00644e-16
3.48513e-15
6.62072e-14
1.39905e-12
3.33975e-11
9.11836e-10
2.87755e-08
1.061e-06
4.60264e-05
0.00209581
0.0478179
0.282165
0.432501
0.482105
0.491836
0.483613
0.46678
0.445786
0.42294
0.399505
0.376161
0.353286
0.331088
0.309679
0.28911
0.269399
0.250546
0.232539
0.215361
0.198995
0.183418
0.168613
0.154559
0.141237
0.12863
0.116722
0.105498
0.094943
0.085045
0.0757927
0.0671763
0.0591872
0.0518182
0.0450625
0.0389136
0.0333641
0.0284045
0.0240219
0.0201979
0.016907
0.0141159
0.0117832
0.00986037
0.00829476
0.00703243
0.00602157
0.00521511
0.00457227
0.004059
0.00364773
0.00331658
0.00304844
0.00283
0.00265097
0.00250341
0.0023811
0.00227924
0.00219315
0.00211962
0.00205682
0.00200319
0.0019574
0.00191834
0.00188504
0.00185667
0.00183249
0.00181187
0.00179425
0.0017791
0.00176599
0.00175449
0.00174421
0.00173482
0.00172598
0.0017174
0.00170878
0.00169986
0.00169038
0.0016801
0.0016688
0.00165626
0.00164228
0.00162666
0.00160923
0.00158982
0.00156827
0.00154445
0.00151822
0.00148948
0.00145813
0.00142409
0.00138731
0.00134776
0.00130541
0.00126029
0.00121244
0.00116193
0.00110886
0.00105338
0.000995655
0.00093592
0.000874434
0.000811509
0.000747506
0.000682837
0.000617967
0.000553412
0.000489738
0.000427557
0.000367518
0.000310298
0.000256579
0.000207028
0.000162259
0.000122799
8.90294e-05
6.11435e-05
3.90963e-05
2.25861e-05
1.10767e-05
3.88312e-06
5.88743e-07
2.22331e-08
3.57993e-10
5.37642e-12
8.09043e-14
1.22087e-15
1.84202e-17
2.83113e-19
1.22806e-20
1e-20
1e-20
1e-20
1e-20
1e-20
1e-20
1e-20
1e-20
1e-20
1e-20
1e-20
1e-20
1e-20
1e-20
1e-20
1e-20
1e-20
1e-20
1e-20
1e-20
1e-20
1e-20
1e-20
1e-20
1e-20
1e-20
1e-20
1e-20
1e-20
1e-20
1e-20
1e-20
1e-20
1e-20
1e-20
1e-20
1e-20
1e-20
1e-20
1e-20
1e-20
1e-20
1e-20
1e-20
1e-20
1e-20
1e-20
1e-20
1e-20
1e-20
1e-20
1e-20
1e-20
1e-20
1e-20
1e-20
1e-20
1e-20
1e-20
1e-20
1e-20
1e-20
1e-20
1e-20
1e-20
1e-20
1e-20
1e-20
1e-20
1e-20
1e-20
1e-20
1e-20
1e-20
1e-20
1e-20
1e-20
1e-20
1e-20
1e-20
1e-20
1e-20
1e-20
1e-20
1e-20
1e-20
)
;

boundaryField
{
    inandouthalf11
    {
        type            cyclic;
    }
    inandouthalf12
    {
        type            cyclic;
    }
    inandouthalf21
    {
        type            cyclic;
    }
    inandouthalf22
    {
        type            cyclic;
    }
    inandouthalf31
    {
        type            cyclic;
    }
    inandouthalf32
    {
        type            cyclic;
    }
    inandouthalf41
    {
        type            cyclic;
    }
    inandouthalf42
    {
        type            cyclic;
    }
    top
    {
        type            symmetryPlane;
    }
    walls
    {
        type            zeroGradient;
    }
    frontAndBackPlanes
    {
        type            empty;
    }
}


// ************************************************************************* //
