/*--------------------------------*- C++ -*----------------------------------*\
| =========                 |                                                 |
| \\      /  F ield         | OpenFOAM: The Open Source CFD Toolbox           |
|  \\    /   O peration     | Version:  2.4.x                                 |
|   \\  /    A nd           | Web:      www.OpenFOAM.org                      |
|    \\/     M anipulation  |                                                 |
\*---------------------------------------------------------------------------*/
FoamFile
{
    version     2.0;
    format      ascii;
    class       volScalarField;
    location    "8.7";
    object      epsilon_0;
}
// * * * * * * * * * * * * * * * * * * * * * * * * * * * * * * * * * * * * * //

dimensions      [0 2 -3 0 0 0 0];

internalField   nonuniform List<scalar> 
360
(
1.60309e-27
1e-20
1e-20
1e-20
1e-20
1e-20
1e-20
1e-20
1e-20
1e-20
1e-20
1e-20
1e-20
1e-20
1e-20
1e-20
1e-20
1e-20
1e-20
1e-20
1e-20
1e-20
1e-20
1e-20
1e-20
1e-20
1e-20
1e-20
1e-20
1e-20
1e-20
1e-20
1e-20
1e-20
1e-20
1e-20
1e-20
1e-20
1e-20
1e-20
1e-20
1e-20
1e-20
1e-20
1e-20
1e-20
1e-20
1e-20
1e-20
1e-20
1e-20
1e-20
1e-20
1e-20
1e-20
1e-20
1e-20
1e-20
1e-20
1e-20
1e-20
1e-20
1e-20
1e-20
1e-20
1e-20
1e-20
1e-20
1e-20
1e-20
1e-20
1e-20
1e-20
1e-20
1e-20
1e-20
1e-20
1e-20
1e-20
1e-20
1e-20
1e-20
1e-20
1e-20
1e-20
1e-20
1e-20
1e-20
1e-20
1e-20
1e-20
1e-20
1e-20
1e-20
1e-20
1e-20
1e-20
1e-20
1e-20
1e-20
1e-20
1e-20
1e-20
1e-20
1e-20
1e-20
1e-20
1e-20
1e-20
1e-20
1e-20
1e-20
1e-20
1e-20
1e-20
1e-20
1e-20
1e-20
1e-20
1e-20
1e-20
1e-20
1e-20
1e-20
1e-20
1e-20
1e-20
1e-20
1e-20
1e-20
1.10382e-20
6.17083e-20
8.21819e-19
1.24e-17
1.99891e-16
3.47224e-15
6.59624e-14
1.39381e-12
3.32707e-11
9.08333e-10
2.86641e-08
1.05687e-06
4.58462e-05
0.00208833
0.0477022
0.281861
0.432311
0.481972
0.491737
0.483536
0.466721
0.44574
0.422903
0.399476
0.376137
0.353265
0.33107
0.309661
0.289092
0.269379
0.250524
0.232515
0.215335
0.198966
0.183387
0.168579
0.154523
0.141199
0.128591
0.116682
0.105457
0.0949017
0.0850036
0.0757516
0.067136
0.059148
0.0517804
0.0450264
0.0388795
0.0333323
0.0283753
0.0239955
0.0201743
0.0168864
0.0140982
0.0117682
0.00984789
0.00828454
0.00702415
0.00601492
0.00520982
0.00456806
0.00405567
0.00364509
0.0033145
0.00304679
0.0028287
0.00264996
0.00250262
0.0023805
0.00227878
0.00219282
0.0021194
0.00205669
0.00200313
0.00195741
0.00191841
0.00188516
0.00185682
0.00183268
0.00181209
0.00179449
0.00177937
0.00176627
0.00175478
0.00174452
0.00173514
0.00172631
0.00171773
0.00170911
0.00170019
0.00169071
0.00168043
0.00166913
0.00165658
0.0016426
0.00162697
0.00160953
0.00159011
0.00156856
0.00154472
0.00151848
0.00148973
0.00145836
0.00142431
0.00138752
0.00134795
0.00130559
0.00126045
0.00121258
0.00116205
0.00110897
0.00105347
0.000995733
0.000935981
0.000874479
0.00081154
0.000747522
0.000682841
0.000617959
0.000553393
0.00048971
0.000427521
0.000367477
0.000310254
0.000256533
0.000206982
0.000162216
0.000122759
8.89951e-05
6.11154e-05
3.90748e-05
2.25709e-05
1.10672e-05
3.87808e-06
5.87403e-07
2.21578e-08
3.56747e-10
5.35844e-12
8.06453e-14
1.21712e-15
1.8366e-17
2.82328e-19
1.22704e-20
1e-20
1e-20
1e-20
1e-20
1e-20
1e-20
1e-20
1e-20
1e-20
1e-20
1e-20
1e-20
1e-20
1e-20
1e-20
1e-20
1e-20
1e-20
1e-20
1e-20
1e-20
1e-20
1e-20
1e-20
1e-20
1e-20
1e-20
1e-20
1e-20
1e-20
1e-20
1e-20
1e-20
1e-20
1e-20
1e-20
1e-20
1e-20
1e-20
1e-20
1e-20
1e-20
1e-20
1e-20
1e-20
1e-20
1e-20
1e-20
1e-20
1e-20
1e-20
1e-20
1e-20
1e-20
1e-20
1e-20
1e-20
1e-20
1e-20
1e-20
1e-20
1e-20
1e-20
1e-20
1e-20
1e-20
1e-20
1e-20
1e-20
1e-20
1e-20
1e-20
1e-20
1e-20
1e-20
1e-20
1e-20
1e-20
1e-20
1e-20
1e-20
1e-20
1e-20
1e-20
1e-20
1e-20
)
;

boundaryField
{
    inandouthalf11
    {
        type            cyclic;
    }
    inandouthalf12
    {
        type            cyclic;
    }
    inandouthalf21
    {
        type            cyclic;
    }
    inandouthalf22
    {
        type            cyclic;
    }
    inandouthalf31
    {
        type            cyclic;
    }
    inandouthalf32
    {
        type            cyclic;
    }
    inandouthalf41
    {
        type            cyclic;
    }
    inandouthalf42
    {
        type            cyclic;
    }
    top
    {
        type            symmetryPlane;
    }
    walls
    {
        type            zeroGradient;
    }
    frontAndBackPlanes
    {
        type            empty;
    }
}


// ************************************************************************* //
