/*--------------------------------*- C++ -*----------------------------------*\
| =========                 |                                                 |
| \\      /  F ield         | OpenFOAM: The Open Source CFD Toolbox           |
|  \\    /   O peration     | Version:  2.4.x                                 |
|   \\  /    A nd           | Web:      www.OpenFOAM.org                      |
|    \\/     M anipulation  |                                                 |
\*---------------------------------------------------------------------------*/
FoamFile
{
    version     2.0;
    format      ascii;
    class       volScalarField;
    location    "8.7";
    object      nutb;
}
// * * * * * * * * * * * * * * * * * * * * * * * * * * * * * * * * * * * * * //

dimensions      [0 2 -1 0 0 0 0];

internalField   nonuniform List<scalar> 
360
(
9e-22
9e-22
9e-22
9e-22
9e-22
9e-22
9e-22
9e-22
9e-22
9e-22
9e-22
9e-22
9e-22
9e-22
9e-22
9e-22
9e-22
9e-22
9e-22
9e-22
9e-22
9e-22
9e-22
9e-22
9e-22
9e-22
9e-22
9e-22
9e-22
9e-22
9e-22
9e-22
9e-22
9e-22
9e-22
9e-22
9e-22
9e-22
9e-22
9e-22
9e-22
9e-22
9e-22
9e-22
9e-22
9e-22
9e-22
9e-22
9e-22
9e-22
9e-22
9e-22
9e-22
9e-22
9e-22
9e-22
9e-22
9e-22
9e-22
9e-22
9e-22
9e-22
9e-22
9e-22
9e-22
9e-22
9e-22
9e-22
9e-22
9e-22
9e-22
9e-22
9e-22
9e-22
9e-22
9e-22
9e-22
9e-22
9e-22
9e-22
9e-22
9e-22
9e-22
9e-22
9e-22
9e-22
9e-22
9e-22
9e-22
9e-22
9e-22
9e-22
9e-22
9e-22
9e-22
9e-22
9e-22
9e-22
9e-22
9e-22
9e-22
9e-22
9e-22
9e-22
9e-22
9e-22
9e-22
9e-22
9e-22
9e-22
9e-22
9e-22
9e-22
9e-22
9e-22
9e-22
9e-22
9e-22
9e-22
9e-22
9e-22
9e-22
9e-22
9e-22
9e-22
9e-22
9e-22
9e-22
9e-22
9e-22
8.14339e-22
8.10739e-22
7.71071e-21
9.03558e-20
1.11039e-18
1.43586e-17
1.98192e-16
2.97802e-15
4.96591e-14
9.32362e-13
1.99163e-11
4.88943e-10
1.38638e-08
3.79179e-07
4.63791e-06
1.6859e-05
2.85768e-05
3.85354e-05
4.73249e-05
5.5238e-05
6.24248e-05
6.89713e-05
7.49521e-05
8.04227e-05
8.54154e-05
8.99456e-05
9.4029e-05
9.76789e-05
0.000100907
0.000103724
0.000106139
0.00010816
0.000109796
0.000111054
0.000111943
0.000112473
0.000112653
0.000112495
0.000112014
0.000111225
0.000110146
0.000108801
0.000107215
0.000105419
0.000103448
0.000101346
9.91624e-05
9.69561e-05
9.47963e-05
9.27635e-05
9.09497e-05
8.94586e-05
8.84029e-05
8.78998e-05
8.80628e-05
8.89904e-05
9.07542e-05
9.3389e-05
9.68863e-05
0.000101194
0.000106222
0.000111854
0.000117956
0.000124394
0.000131036
0.000137767
0.000144485
0.000151107
0.000157568
0.000163818
0.000169822
0.000175617
0.00018123
0.000186639
0.000191825
0.000196776
0.000201484
0.000205943
0.000210152
0.000214109
0.000217818
0.000221279
0.000224498
0.000227478
0.000230223
0.000232737
0.000235023
0.000237083
0.000238921
0.000240537
0.000241932
0.000243105
0.000244055
0.00024478
0.000245277
0.000245542
0.000245571
0.000245358
0.000244896
0.000244179
0.0002432
0.000241951
0.000240422
0.000238605
0.00023649
0.000234068
0.000231328
0.000228261
0.000224856
0.000221103
0.000216992
0.000212513
0.000207657
0.000202415
0.000196779
0.000190742
0.0001843
0.000177448
0.000170186
0.000162514
0.000154438
0.000145964
0.000137107
0.000127884
0.00011832
0.000108445
9.82967e-05
8.79213e-05
7.73699e-05
6.66982e-05
5.5962e-05
4.52116e-05
3.44853e-05
2.38034e-05
1.3183e-05
3.4615e-06
1.88426e-07
3.20713e-09
4.85907e-11
7.32149e-13
1.09889e-14
1.63829e-16
2.36455e-18
1.57991e-20
9e-22
9e-22
9e-22
9e-22
9e-22
9e-22
9e-22
9e-22
9e-22
9e-22
9e-22
9e-22
9e-22
9e-22
9e-22
9e-22
9e-22
9e-22
9e-22
9e-22
9e-22
9e-22
9e-22
9e-22
9e-22
9e-22
9e-22
9e-22
9e-22
9e-22
9e-22
9e-22
9e-22
9e-22
9e-22
9e-22
9e-22
9e-22
9e-22
9e-22
9e-22
9e-22
9e-22
9e-22
9e-22
9e-22
9e-22
9e-22
9e-22
9e-22
9e-22
9e-22
9e-22
9e-22
9e-22
9e-22
9e-22
9e-22
9e-22
9e-22
9e-22
9e-22
9e-22
9e-22
9e-22
9e-22
9e-22
9e-22
9e-22
9e-22
9e-22
9e-22
9e-22
9e-22
9e-22
9e-22
9e-22
9e-22
9e-22
9e-22
9e-22
9e-22
9e-22
9e-22
9e-22
9e-22
)
;

boundaryField
{
    inandouthalf11
    {
        type            cyclic;
    }
    inandouthalf12
    {
        type            cyclic;
    }
    inandouthalf21
    {
        type            cyclic;
    }
    inandouthalf22
    {
        type            cyclic;
    }
    inandouthalf31
    {
        type            cyclic;
    }
    inandouthalf32
    {
        type            cyclic;
    }
    inandouthalf41
    {
        type            cyclic;
    }
    inandouthalf42
    {
        type            cyclic;
    }
    top
    {
        type            symmetryPlane;
    }
    walls
    {
        type            calculated;
        value           uniform 0;
    }
    frontAndBackPlanes
    {
        type            empty;
    }
}


// ************************************************************************* //
