/*--------------------------------*- C++ -*----------------------------------*\
| =========                 |                                                 |
| \\      /  F ield         | OpenFOAM: The Open Source CFD Toolbox           |
|  \\    /   O peration     | Version:  2.4.x                                 |
|   \\  /    A nd           | Web:      www.OpenFOAM.org                      |
|    \\/     M anipulation  |                                                 |
\*---------------------------------------------------------------------------*/
FoamFile
{
    version     2.0;
    format      ascii;
    class       surfaceScalarField;
    location    "8.7";
    object      phib_0;
}
// * * * * * * * * * * * * * * * * * * * * * * * * * * * * * * * * * * * * * //

dimensions      [0 3 -1 0 0 0 0];

internalField   nonuniform List<scalar> 
359
(
1.61362e-13
4.06944e-13
6.38309e-13
8.65041e-13
1.1018e-12
1.34698e-12
1.59646e-12
1.84893e-12
2.10437e-12
2.36306e-12
2.62503e-12
2.89005e-12
3.15787e-12
3.4282e-12
3.70078e-12
3.97541e-12
4.25183e-12
4.52975e-12
4.80885e-12
5.08889e-12
5.36946e-12
5.65034e-12
5.93121e-12
6.21178e-12
6.4918e-12
6.77097e-12
7.04903e-12
7.3258e-12
7.60103e-12
7.87453e-12
8.1461e-12
8.41564e-12
8.6829e-12
8.94791e-12
9.21046e-12
9.47053e-12
9.728e-12
9.98287e-12
1.02352e-11
1.04848e-11
1.07318e-11
1.09762e-11
1.12179e-11
1.14572e-11
1.16939e-11
1.19282e-11
1.21601e-11
1.23896e-11
1.26168e-11
1.28418e-11
1.30647e-11
1.32855e-11
1.35042e-11
1.37211e-11
1.3936e-11
1.41491e-11
1.43603e-11
1.45698e-11
1.47775e-11
1.49835e-11
1.51879e-11
1.53906e-11
1.55918e-11
1.57915e-11
1.59896e-11
1.61861e-11
1.63811e-11
1.65745e-11
1.67664e-11
1.69566e-11
1.71452e-11
1.73323e-11
1.75178e-11
1.77017e-11
1.78841e-11
1.80648e-11
1.82439e-11
1.84213e-11
1.85969e-11
1.87706e-11
1.89426e-11
1.91127e-11
1.92809e-11
1.94473e-11
1.96118e-11
1.97744e-11
1.9935e-11
2.00937e-11
2.02503e-11
2.04047e-11
2.0557e-11
2.07071e-11
2.08549e-11
2.10005e-11
2.11439e-11
2.1285e-11
2.14239e-11
2.15604e-11
2.16945e-11
2.18263e-11
2.19556e-11
2.20824e-11
2.22068e-11
2.23287e-11
2.24482e-11
2.25653e-11
2.26799e-11
2.27923e-11
2.29025e-11
2.30106e-11
2.31167e-11
2.3221e-11
2.33237e-11
2.34248e-11
2.35244e-11
2.36226e-11
2.37194e-11
2.38146e-11
2.39081e-11
2.39994e-11
2.40883e-11
2.41744e-11
2.42573e-11
2.4337e-11
2.44135e-11
2.44874e-11
2.45596e-11
2.46316e-11
2.47053e-11
2.47829e-11
2.48667e-11
2.49584e-11
2.50578e-11
2.51611e-11
2.52598e-11
2.53406e-11
2.53912e-11
2.54069e-11
2.53938e-11
2.5364e-11
2.53288e-11
2.52881e-11
2.52245e-11
1.92319e-11
-3.32213e-09
-4.239e-09
-4.50243e-09
-4.58253e-09
-4.56177e-09
-4.47636e-09
-4.3451e-09
-4.17718e-09
-3.9859e-09
-3.78121e-09
-3.5693e-09
-3.35463e-09
-3.14041e-09
-2.92904e-09
-2.72226e-09
-2.52132e-09
-2.32708e-09
-2.14024e-09
-1.9612e-09
-1.79024e-09
-1.62756e-09
-1.47327e-09
-1.32742e-09
-1.19007e-09
-1.0612e-09
-9.40828e-10
-8.28911e-10
-7.25407e-10
-6.30244e-10
-5.43324e-10
-4.64512e-10
-3.93628e-10
-3.30446e-10
-2.74687e-10
-2.2601e-10
-1.83991e-10
-1.48104e-10
-1.17745e-10
-9.23241e-11
-7.13681e-11
-5.4514e-11
-4.13847e-11
-3.14804e-11
-2.41877e-11
-1.88783e-11
-1.50058e-11
-1.21479e-11
-1.0002e-11
-8.35947e-12
-7.07834e-12
-6.0615e-12
-5.24163e-12
-4.57123e-12
-4.01615e-12
-3.55143e-12
-3.15843e-12
-2.82308e-12
-2.52918e-12
-2.27032e-12
-2.04123e-12
-1.83751e-12
-1.65551e-12
-1.49221e-12
-1.34501e-12
-1.21174e-12
-1.09056e-12
-9.79935e-13
-8.786e-13
-7.85568e-13
-7.00005e-13
-6.21245e-13
-5.48845e-13
-4.82494e-13
-4.21921e-13
-3.66886e-13
-3.17222e-13
-2.72759e-13
-2.33211e-13
-1.98265e-13
-1.67631e-13
-1.40962e-13
-1.17894e-13
-9.80588e-14
-8.11266e-14
-6.67446e-14
-5.46176e-14
-4.43965e-14
-3.59124e-14
-2.8889e-14
-2.28491e-14
-1.8071e-14
-1.4589e-14
-1.08726e-14
-7.91462e-15
-5.69058e-15
-4.01459e-15
-2.76295e-15
-1.83027e-15
-1.19262e-15
-6.42051e-16
-3.78907e-16
-1.09152e-16
2.96264e-17
6.53115e-18
6.26102e-18
6.00149e-18
5.72811e-18
5.46512e-18
5.18996e-18
4.92233e-18
4.64357e-18
4.37323e-18
4.09443e-18
3.82253e-18
3.5457e-18
3.27594e-18
3.00686e-18
2.74701e-18
2.49559e-18
2.26015e-18
2.0424e-18
1.84325e-18
1.70913e-18
1.53647e-18
1.37601e-18
1.22532e-18
1.08416e-18
9.50515e-19
8.24721e-19
7.09143e-19
6.0052e-19
5.01409e-19
4.05462e-19
3.19282e-19
2.38346e-19
1.65591e-19
8.09305e-20
8.61591e-21
-5.88613e-20
-1.04821e-19
-1.59118e-19
-1.86234e-19
-2.43341e-19
-2.43014e-19
-2.68926e-19
-2.72434e-19
-2.72889e-19
-2.43803e-19
-2.29962e-19
-1.92822e-19
-1.5861e-19
-1.2268e-19
-9.45567e-20
-1.09457e-19
-1.31363e-19
-1.30659e-19
-1.55337e-19
-1.69913e-19
-1.86552e-19
-1.93248e-19
-2.18333e-19
-2.3378e-19
-2.49813e-19
-2.52184e-19
-2.65891e-19
-2.65077e-19
-2.65259e-19
-2.59234e-19
-2.73309e-19
-2.82459e-19
-2.92665e-19
-2.94545e-19
-3.03601e-19
-3.04736e-19
-3.05626e-19
-3.02753e-19
-3.17393e-19
-3.27464e-19
-3.4082e-19
-3.48021e-19
-3.75471e-19
-4.03945e-19
-4.65907e-19
-6.32603e-19
-9.64244e-19
-1.364e-18
-1.7919e-18
-2.12909e-18
-2.57137e-18
-2.85225e-18
-3.1396e-18
-3.2594e-18
-3.68589e-18
-3.88832e-18
-4.08877e-18
-3.99228e-18
-4.1179e-18
-3.92382e-18
-3.74238e-18
-3.32071e-18
-3.39889e-18
-3.22286e-18
-3.05562e-18
-2.55324e-18
-2.24386e-18
-1.64639e-18
-1.02523e-18
-3.99881e-19
6.83179e-19
1.5902e-18
2.51884e-18
2.73113e-18
4.58938e-18
3.92115e-18
1.91167e-18
)
;

boundaryField
{
    inandouthalf11
    {
        type            cyclic;
        value           nonuniform List<scalar> 
100
(
-1.3621e-10
-1.35482e-10
-1.3539e-10
-1.35503e-10
-1.35567e-10
-1.35598e-10
-1.35633e-10
-1.35674e-10
-1.35715e-10
-1.35758e-10
-1.35801e-10
-1.35844e-10
-1.35887e-10
-1.35931e-10
-1.35976e-10
-1.36021e-10
-1.36066e-10
-1.36112e-10
-1.36158e-10
-1.36205e-10
-1.36252e-10
-1.36299e-10
-1.36347e-10
-1.36395e-10
-1.36443e-10
-1.36491e-10
-1.3654e-10
-1.36589e-10
-1.36638e-10
-1.36687e-10
-1.36737e-10
-1.36787e-10
-1.36837e-10
-1.36887e-10
-1.36938e-10
-1.36989e-10
-1.37039e-10
-1.37091e-10
-1.37142e-10
-1.37193e-10
-1.37245e-10
-1.37297e-10
-1.37349e-10
-1.37402e-10
-1.37455e-10
-1.37508e-10
-1.37561e-10
-1.37615e-10
-1.37669e-10
-1.37723e-10
-1.37778e-10
-1.37833e-10
-1.37888e-10
-1.37944e-10
-1.38e-10
-1.38057e-10
-1.38113e-10
-1.38171e-10
-1.38229e-10
-1.38287e-10
-1.38346e-10
-1.38405e-10
-1.38465e-10
-1.38526e-10
-1.38587e-10
-1.38648e-10
-1.3871e-10
-1.38773e-10
-1.38836e-10
-1.389e-10
-1.38965e-10
-1.39031e-10
-1.39096e-10
-1.39163e-10
-1.39231e-10
-1.39299e-10
-1.39368e-10
-1.39438e-10
-1.39509e-10
-1.3958e-10
-1.39652e-10
-1.39726e-10
-1.398e-10
-1.39875e-10
-1.39951e-10
-1.40029e-10
-1.40107e-10
-1.40186e-10
-1.40267e-10
-1.40348e-10
-1.40431e-10
-1.40515e-10
-1.40601e-10
-1.40687e-10
-1.40776e-10
-1.40865e-10
-1.40956e-10
-1.41049e-10
-1.41143e-10
-1.41239e-10
)
;
    }
    inandouthalf12
    {
        type            cyclic;
        value           nonuniform List<scalar> 
100
(
1.3621e-10
1.35482e-10
1.3539e-10
1.35503e-10
1.35567e-10
1.35598e-10
1.35633e-10
1.35674e-10
1.35715e-10
1.35758e-10
1.35801e-10
1.35844e-10
1.35887e-10
1.35931e-10
1.35976e-10
1.36021e-10
1.36066e-10
1.36112e-10
1.36158e-10
1.36205e-10
1.36252e-10
1.36299e-10
1.36347e-10
1.36395e-10
1.36443e-10
1.36491e-10
1.3654e-10
1.36589e-10
1.36638e-10
1.36687e-10
1.36737e-10
1.36787e-10
1.36837e-10
1.36887e-10
1.36938e-10
1.36989e-10
1.37039e-10
1.37091e-10
1.37142e-10
1.37193e-10
1.37245e-10
1.37297e-10
1.37349e-10
1.37402e-10
1.37455e-10
1.37508e-10
1.37561e-10
1.37615e-10
1.37669e-10
1.37723e-10
1.37778e-10
1.37833e-10
1.37888e-10
1.37944e-10
1.38e-10
1.38057e-10
1.38113e-10
1.38171e-10
1.38229e-10
1.38287e-10
1.38346e-10
1.38405e-10
1.38465e-10
1.38526e-10
1.38587e-10
1.38648e-10
1.3871e-10
1.38773e-10
1.38836e-10
1.389e-10
1.38965e-10
1.39031e-10
1.39096e-10
1.39163e-10
1.39231e-10
1.39299e-10
1.39368e-10
1.39438e-10
1.39509e-10
1.3958e-10
1.39652e-10
1.39726e-10
1.398e-10
1.39875e-10
1.39951e-10
1.40029e-10
1.40107e-10
1.40186e-10
1.40267e-10
1.40348e-10
1.40431e-10
1.40515e-10
1.40601e-10
1.40687e-10
1.40776e-10
1.40865e-10
1.40956e-10
1.41049e-10
1.41143e-10
1.41239e-10
)
;
    }
    inandouthalf21
    {
        type            cyclic;
        value           nonuniform List<scalar> 
100
(
-1.41337e-10
-1.41436e-10
-1.41538e-10
-1.41641e-10
-1.41747e-10
-1.41854e-10
-1.41964e-10
-1.42077e-10
-1.42191e-10
-1.42309e-10
-1.42429e-10
-1.42552e-10
-1.42678e-10
-1.42807e-10
-1.4294e-10
-1.43076e-10
-1.43216e-10
-1.43359e-10
-1.43507e-10
-1.43659e-10
-1.43815e-10
-1.43976e-10
-1.44142e-10
-1.44313e-10
-1.44489e-10
-1.44672e-10
-1.44861e-10
-1.45057e-10
-1.45262e-10
-1.45475e-10
-1.45699e-10
-1.45933e-10
-1.4618e-10
-1.4644e-10
-1.46717e-10
-1.47008e-10
-1.4731e-10
-1.47626e-10
-1.47971e-10
-1.48364e-10
-1.4879e-10
-1.49203e-10
-1.49713e-10
-1.63214e-10
-3.71417e-09
-1.19641e-07
-2.37973e-07
-3.3931e-07
-4.27682e-07
-5.05959e-07
-5.76133e-07
-6.39634e-07
-6.97479e-07
-7.50487e-07
-7.99304e-07
-8.44457e-07
-8.86383e-07
-9.25446e-07
-9.61951e-07
-9.9616e-07
-1.02829e-06
-1.05854e-06
-1.08707e-06
-1.11403e-06
-1.13953e-06
-1.16368e-06
-1.18658e-06
-1.20831e-06
-1.22894e-06
-1.24853e-06
-1.26712e-06
-1.28477e-06
-1.30151e-06
-1.31736e-06
-1.33235e-06
-1.3465e-06
-1.35981e-06
-1.37228e-06
-1.38392e-06
-1.39472e-06
-1.40466e-06
-1.41374e-06
-1.42196e-06
-1.42929e-06
-1.43577e-06
-1.4414e-06
-1.44623e-06
-1.45031e-06
-1.45371e-06
-1.4565e-06
-1.45876e-06
-1.46057e-06
-1.462e-06
-1.46311e-06
-1.46395e-06
-1.46456e-06
-1.46498e-06
-1.46525e-06
-1.46538e-06
-1.46539e-06
)
;
    }
    inandouthalf22
    {
        type            cyclic;
        value           nonuniform List<scalar> 
100
(
1.41337e-10
1.41436e-10
1.41538e-10
1.41641e-10
1.41747e-10
1.41854e-10
1.41964e-10
1.42077e-10
1.42191e-10
1.42309e-10
1.42429e-10
1.42552e-10
1.42678e-10
1.42807e-10
1.4294e-10
1.43076e-10
1.43216e-10
1.43359e-10
1.43507e-10
1.43659e-10
1.43815e-10
1.43976e-10
1.44142e-10
1.44313e-10
1.44489e-10
1.44672e-10
1.44861e-10
1.45057e-10
1.45262e-10
1.45475e-10
1.45699e-10
1.45933e-10
1.4618e-10
1.4644e-10
1.46717e-10
1.47008e-10
1.4731e-10
1.47626e-10
1.47971e-10
1.48364e-10
1.4879e-10
1.49203e-10
1.49713e-10
1.63214e-10
3.71417e-09
1.19641e-07
2.37973e-07
3.3931e-07
4.27682e-07
5.05959e-07
5.76133e-07
6.39634e-07
6.97479e-07
7.50487e-07
7.99304e-07
8.44457e-07
8.86383e-07
9.25446e-07
9.61951e-07
9.9616e-07
1.02829e-06
1.05854e-06
1.08707e-06
1.11403e-06
1.13953e-06
1.16368e-06
1.18658e-06
1.20831e-06
1.22894e-06
1.24853e-06
1.26712e-06
1.28477e-06
1.30151e-06
1.31736e-06
1.33235e-06
1.3465e-06
1.35981e-06
1.37228e-06
1.38392e-06
1.39472e-06
1.40466e-06
1.41374e-06
1.42196e-06
1.42929e-06
1.43577e-06
1.4414e-06
1.44623e-06
1.45031e-06
1.45371e-06
1.4565e-06
1.45876e-06
1.46057e-06
1.462e-06
1.46311e-06
1.46395e-06
1.46456e-06
1.46498e-06
1.46525e-06
1.46538e-06
1.46539e-06
)
;
    }
    inandouthalf31
    {
        type            cyclic;
        value           nonuniform List<scalar> 
110
(
-1.4653e-06
-1.49486e-06
-1.52493e-06
-1.55552e-06
-1.58664e-06
-1.6183e-06
-1.65052e-06
-1.68329e-06
-1.71664e-06
-1.75058e-06
-1.7851e-06
-1.82023e-06
-1.85597e-06
-1.89233e-06
-1.92932e-06
-1.96695e-06
-2.00523e-06
-2.04418e-06
-2.08379e-06
-2.12408e-06
-2.16506e-06
-2.20674e-06
-2.24913e-06
-2.29225e-06
-2.3361e-06
-2.38069e-06
-2.42603e-06
-2.47215e-06
-2.51904e-06
-2.56673e-06
-2.61522e-06
-2.66453e-06
-2.71468e-06
-2.76567e-06
-2.81754e-06
-2.87028e-06
-2.92393e-06
-2.97849e-06
-3.034e-06
-3.09046e-06
-3.14791e-06
-3.20638e-06
-3.26588e-06
-3.32645e-06
-3.38812e-06
-3.45092e-06
-3.51491e-06
-3.58012e-06
-3.64659e-06
-3.7144e-06
-3.78359e-06
-3.85423e-06
-3.92641e-06
-4.00021e-06
-4.07573e-06
-4.15307e-06
-4.23235e-06
-4.31372e-06
-4.39731e-06
-4.48327e-06
-4.57176e-06
-4.66291e-06
-4.75684e-06
-4.85359e-06
-4.95307e-06
-5.05484e-06
-5.15784e-06
-5.26255e-06
-5.36937e-06
-5.47835e-06
-5.58955e-06
-5.703e-06
-5.81876e-06
-5.93686e-06
-6.05737e-06
-6.18031e-06
-6.30576e-06
-6.43375e-06
-6.56434e-06
-6.69757e-06
-6.83352e-06
-6.97222e-06
-7.11374e-06
-7.25813e-06
-7.40545e-06
-7.55576e-06
-7.70912e-06
-7.86559e-06
-8.02524e-06
-8.18814e-06
-8.35433e-06
-8.5239e-06
-8.69692e-06
-8.87344e-06
-9.05355e-06
-9.23731e-06
-9.4248e-06
-9.6161e-06
-9.81128e-06
-1.00104e-05
-1.02136e-05
-1.04209e-05
-1.06324e-05
-1.08482e-05
-1.10684e-05
-1.12931e-05
-1.15223e-05
-1.17562e-05
-1.19948e-05
-1.22383e-05
)
;
    }
    inandouthalf32
    {
        type            cyclic;
        value           nonuniform List<scalar> 
110
(
1.4653e-06
1.49486e-06
1.52493e-06
1.55552e-06
1.58664e-06
1.6183e-06
1.65052e-06
1.68329e-06
1.71664e-06
1.75058e-06
1.7851e-06
1.82023e-06
1.85597e-06
1.89233e-06
1.92932e-06
1.96695e-06
2.00523e-06
2.04418e-06
2.08379e-06
2.12408e-06
2.16506e-06
2.20674e-06
2.24913e-06
2.29225e-06
2.3361e-06
2.38069e-06
2.42603e-06
2.47215e-06
2.51904e-06
2.56673e-06
2.61522e-06
2.66453e-06
2.71468e-06
2.76567e-06
2.81754e-06
2.87028e-06
2.92393e-06
2.97849e-06
3.034e-06
3.09046e-06
3.14791e-06
3.20638e-06
3.26588e-06
3.32645e-06
3.38812e-06
3.45092e-06
3.51491e-06
3.58012e-06
3.64659e-06
3.7144e-06
3.78359e-06
3.85423e-06
3.92641e-06
4.00021e-06
4.07573e-06
4.15307e-06
4.23235e-06
4.31372e-06
4.39731e-06
4.48327e-06
4.57176e-06
4.66291e-06
4.75684e-06
4.85359e-06
4.95307e-06
5.05484e-06
5.15784e-06
5.26255e-06
5.36937e-06
5.47835e-06
5.58955e-06
5.703e-06
5.81876e-06
5.93686e-06
6.05737e-06
6.18031e-06
6.30576e-06
6.43375e-06
6.56434e-06
6.69757e-06
6.83352e-06
6.97222e-06
7.11374e-06
7.25813e-06
7.40545e-06
7.55576e-06
7.70912e-06
7.86559e-06
8.02524e-06
8.18814e-06
8.35433e-06
8.5239e-06
8.69692e-06
8.87344e-06
9.05355e-06
9.23731e-06
9.4248e-06
9.6161e-06
9.81128e-06
1.00104e-05
1.02136e-05
1.04209e-05
1.06324e-05
1.08482e-05
1.10684e-05
1.12931e-05
1.15223e-05
1.17562e-05
1.19948e-05
1.22383e-05
)
;
    }
    inandouthalf41
    {
        type            cyclic;
        value           nonuniform List<scalar> 
50
(
-1.09545e-05
-1.09545e-05
-1.09545e-05
-1.09545e-05
-1.09545e-05
-1.09545e-05
-1.09545e-05
-1.09545e-05
-1.09545e-05
-1.09545e-05
-1.09545e-05
-1.09545e-05
-1.09545e-05
-1.09545e-05
-1.09545e-05
-1.09545e-05
-1.09545e-05
-1.09545e-05
-1.09545e-05
-1.09545e-05
-1.09545e-05
-1.09545e-05
-1.09545e-05
-1.09545e-05
-1.09545e-05
-1.09545e-05
-1.09545e-05
-1.09545e-05
-1.09545e-05
-1.09545e-05
-1.09545e-05
-1.09545e-05
-1.09545e-05
-1.09545e-05
-1.09545e-05
-1.09545e-05
-1.09545e-05
-1.09545e-05
-1.09545e-05
-1.09545e-05
-1.09545e-05
-1.09545e-05
-1.09545e-05
-1.09545e-05
-1.09545e-05
-1.09545e-05
-1.09545e-05
-1.09545e-05
-1.09545e-05
-1.09545e-05
)
;
    }
    inandouthalf42
    {
        type            cyclic;
        value           nonuniform List<scalar> 
50
(
1.09545e-05
1.09545e-05
1.09545e-05
1.09545e-05
1.09545e-05
1.09545e-05
1.09545e-05
1.09545e-05
1.09545e-05
1.09545e-05
1.09545e-05
1.09545e-05
1.09545e-05
1.09545e-05
1.09545e-05
1.09545e-05
1.09545e-05
1.09545e-05
1.09545e-05
1.09545e-05
1.09545e-05
1.09545e-05
1.09545e-05
1.09545e-05
1.09545e-05
1.09545e-05
1.09545e-05
1.09545e-05
1.09545e-05
1.09545e-05
1.09545e-05
1.09545e-05
1.09545e-05
1.09545e-05
1.09545e-05
1.09545e-05
1.09545e-05
1.09545e-05
1.09545e-05
1.09545e-05
1.09545e-05
1.09545e-05
1.09545e-05
1.09545e-05
1.09545e-05
1.09545e-05
1.09545e-05
1.09545e-05
1.09545e-05
1.09545e-05
)
;
    }
    top
    {
        type            symmetryPlane;
        value           uniform 0;
    }
    walls
    {
        type            fixedValue;
        value           uniform 0;
    }
    frontAndBackPlanes
    {
        type            empty;
        value           nonuniform 0();
    }
}


// ************************************************************************* //
