/*--------------------------------*- C++ -*----------------------------------*\
| =========                 |                                                 |
| \\      /  F ield         | OpenFOAM: The Open Source CFD Toolbox           |
|  \\    /   O peration     | Version:  2.4.x                                 |
|   \\  /    A nd           | Web:      www.OpenFOAM.org                      |
|    \\/     M anipulation  |                                                 |
\*---------------------------------------------------------------------------*/
FoamFile
{
    version     2.0;
    format      ascii;
    class       volTensorField;
    location    "8.7";
    object      Tauf;
}
// * * * * * * * * * * * * * * * * * * * * * * * * * * * * * * * * * * * * * //

dimensions      [0 2 -2 0 0 0 0];

internalField   nonuniform List<tensor> 
360
(
(0 2.71567e-07 0 2.71567e-07 1.80727e-10 0 0 0 0)
(0 -8.19731e-10 0 -8.19731e-10 2.21568e-10 0 0 0 0)
(0 2.17171e-11 0 2.17171e-11 2.34665e-10 0 0 0 0)
(0 1.77101e-10 0 1.77101e-10 2.30449e-10 0 0 0 0)
(-2.58494e-23 9.43711e-11 0 9.43711e-11 2.36291e-10 0 0 0 0)
(-2.58494e-23 6.59688e-11 0 6.59688e-11 2.44073e-10 0 0 0 0)
(-2.58494e-23 7.56655e-11 0 7.56655e-11 2.49108e-10 0 0 0 0)
(0 8.24697e-11 0 8.24697e-11 2.52424e-10 0 0 0 0)
(-2.58494e-23 8.4065e-11 0 8.4065e-11 2.55464e-10 0 0 0 0)
(0 8.52249e-11 0 8.52249e-11 2.58654e-10 0 0 0 0)
(-2.58494e-23 8.60017e-11 0 8.60017e-11 2.6187e-10 0 0 0 0)
(0 8.67088e-11 0 8.67088e-11 2.64915e-10 0 0 0 0)
(-2.58494e-23 8.76017e-11 0 8.76017e-11 2.67703e-10 0 0 0 0)
(0 8.84716e-11 0 8.84716e-11 2.70222e-10 0 0 0 0)
(0 8.94655e-11 0 8.94655e-11 2.7249e-10 0 0 0 0)
(0 9.04352e-11 0 9.04352e-11 2.74526e-10 0 0 0 0)
(0 9.12293e-11 0 9.12293e-11 2.76309e-10 0 0 0 0)
(-2.58494e-23 9.19257e-11 0 9.19257e-11 2.77804e-10 0 0 0 0)
(0 9.28203e-11 0 9.28203e-11 2.79006e-10 0 0 0 0)
(0 9.34579e-11 0 9.34579e-11 2.79904e-10 0 0 0 0)
(0 9.40746e-11 0 9.40746e-11 2.80483e-10 0 0 0 0)
(-2.58494e-23 9.48803e-11 0 9.48803e-11 2.80771e-10 0 0 0 0)
(0 9.54408e-11 0 9.54408e-11 2.8077e-10 0 0 0 0)
(0 9.605e-11 0 9.605e-11 2.80482e-10 0 0 0 0)
(0 9.66359e-11 0 9.66359e-11 2.79919e-10 0 0 0 0)
(-2.58494e-23 9.70599e-11 0 9.70599e-11 2.7908e-10 0 0 0 0)
(0 9.76495e-11 0 9.76495e-11 2.77993e-10 0 0 0 0)
(0 9.82371e-11 0 9.82371e-11 2.76689e-10 0 0 0 0)
(0 9.85781e-11 0 9.85781e-11 2.75166e-10 0 0 0 0)
(0 9.89809e-11 0 9.89809e-11 2.73429e-10 0 0 0 0)
(0 9.96178e-11 0 9.96178e-11 2.71529e-10 0 0 0 0)
(0 9.98072e-11 0 9.98072e-11 2.69459e-10 0 0 0 0)
(0 1.00342e-10 0 1.00342e-10 2.67254e-10 0 0 0 0)
(0 1.0088e-10 0 1.0088e-10 2.64948e-10 0 0 0 0)
(0 1.01089e-10 0 1.01089e-10 2.6253e-10 0 0 0 0)
(5.16988e-23 1.01522e-10 0 1.01522e-10 2.60024e-10 0 0 0 0)
(0 1.01913e-10 0 1.01913e-10 2.57452e-10 0 0 0 0)
(0 1.02663e-10 0 1.02663e-10 2.54876e-10 0 0 0 0)
(0 1.02666e-10 0 1.02666e-10 2.52251e-10 0 0 0 0)
(0 1.032e-10 0 1.032e-10 2.49604e-10 0 0 0 0)
(0 1.04056e-10 0 1.04056e-10 2.46996e-10 0 0 0 0)
(0 1.03955e-10 0 1.03955e-10 2.44366e-10 0 0 0 0)
(2.58494e-23 1.04708e-10 0 1.04708e-10 2.41767e-10 0 0 0 0)
(0 1.05381e-10 0 1.05381e-10 2.39231e-10 0 0 0 0)
(0 1.05693e-10 0 1.05693e-10 2.36728e-10 0 0 0 0)
(0 1.06571e-10 0 1.06571e-10 2.34296e-10 0 0 0 0)
(0 1.06756e-10 0 1.06756e-10 2.3188e-10 0 0 0 0)
(0 1.07232e-10 0 1.07232e-10 2.29488e-10 0 0 0 0)
(0 1.08579e-10 0 1.08579e-10 2.27226e-10 0 0 0 0)
(0 1.08878e-10 0 1.08878e-10 2.25029e-10 0 0 0 0)
(2.58494e-23 1.09351e-10 0 1.09351e-10 2.22876e-10 0 0 0 0)
(0 1.10347e-10 0 1.10347e-10 2.2079e-10 0 0 0 0)
(0 1.11119e-10 0 1.11119e-10 2.18773e-10 0 0 0 0)
(0 1.11699e-10 0 1.11699e-10 2.16801e-10 0 0 0 0)
(0 1.12722e-10 0 1.12722e-10 2.14903e-10 0 0 0 0)
(0 1.13534e-10 0 1.13534e-10 2.13056e-10 0 0 0 0)
(0 1.14297e-10 0 1.14297e-10 2.11239e-10 0 0 0 0)
(0 1.15482e-10 0 1.15482e-10 2.09485e-10 0 0 0 0)
(0 1.15851e-10 0 1.15851e-10 2.07708e-10 0 0 0 0)
(0 1.17221e-10 0 1.17221e-10 2.05999e-10 0 0 0 0)
(0 1.18279e-10 0 1.18279e-10 2.04345e-10 0 0 0 0)
(0 1.19148e-10 0 1.19148e-10 2.02732e-10 0 0 0 0)
(0 1.2043e-10 0 1.2043e-10 2.01174e-10 0 0 0 0)
(0 1.21354e-10 0 1.21354e-10 1.99618e-10 0 0 0 0)
(0 1.22438e-10 0 1.22438e-10 1.98063e-10 0 0 0 0)
(0 1.23631e-10 0 1.23631e-10 1.96505e-10 0 0 0 0)
(0 1.25024e-10 0 1.25024e-10 1.94959e-10 0 0 0 0)
(0 1.26144e-10 0 1.26144e-10 1.93401e-10 0 0 0 0)
(0 1.27005e-10 0 1.27005e-10 1.91792e-10 0 0 0 0)
(0 1.28549e-10 0 1.28549e-10 1.90184e-10 0 0 0 0)
(0 1.30432e-10 0 1.30432e-10 1.8864e-10 0 0 0 0)
(0 1.31187e-10 0 1.31187e-10 1.87058e-10 0 0 0 0)
(0 1.3256e-10 0 1.3256e-10 1.85471e-10 0 0 0 0)
(0 1.34368e-10 0 1.34368e-10 1.83893e-10 0 0 0 0)
(0 1.35915e-10 0 1.35915e-10 1.82314e-10 0 0 0 0)
(0 1.37367e-10 0 1.37367e-10 1.80714e-10 0 0 0 0)
(0 1.38655e-10 0 1.38655e-10 1.79038e-10 0 0 0 0)
(0 1.40452e-10 0 1.40452e-10 1.77316e-10 0 0 0 0)
(0 1.42223e-10 0 1.42223e-10 1.75553e-10 0 0 0 0)
(0 1.43791e-10 0 1.43791e-10 1.73745e-10 0 0 0 0)
(0 1.4552e-10 0 1.4552e-10 1.71904e-10 0 0 0 0)
(0 1.47508e-10 0 1.47508e-10 1.70057e-10 0 0 0 0)
(0 1.49396e-10 0 1.49396e-10 1.68201e-10 0 0 0 0)
(0 1.51354e-10 0 1.51354e-10 1.66341e-10 0 0 0 0)
(0 1.5338e-10 0 1.5338e-10 1.64465e-10 0 0 0 0)
(0 1.55485e-10 0 1.55485e-10 1.62562e-10 0 0 0 0)
(0 1.57614e-10 0 1.57614e-10 1.60615e-10 0 0 0 0)
(0 1.59737e-10 0 1.59737e-10 1.58605e-10 0 0 0 0)
(0 1.62026e-10 0 1.62026e-10 1.56537e-10 0 0 0 0)
(0 1.644e-10 0 1.644e-10 1.54413e-10 0 0 0 0)
(0 1.66818e-10 0 1.66818e-10 1.52242e-10 0 0 0 0)
(0 1.69379e-10 0 1.69379e-10 1.50041e-10 0 0 0 0)
(0 1.72066e-10 0 1.72066e-10 1.47823e-10 0 0 0 0)
(0 1.74819e-10 0 1.74819e-10 1.4559e-10 0 0 0 0)
(0 1.7767e-10 0 1.7767e-10 1.43345e-10 0 0 0 0)
(0 1.80625e-10 0 1.80625e-10 1.41082e-10 0 0 0 0)
(0 1.83677e-10 0 1.83677e-10 1.38791e-10 0 0 0 0)
(0 1.86837e-10 0 1.86837e-10 1.36467e-10 0 0 0 0)
(0 1.9013e-10 0 1.9013e-10 1.34105e-10 0 0 0 0)
(0 1.93562e-10 0 1.93562e-10 1.31707e-10 0 0 0 0)
(0 1.97137e-10 0 1.97137e-10 1.29276e-10 0 0 0 0)
(0 2.00874e-10 0 2.00874e-10 1.26823e-10 0 0 0 0)
(0 2.04777e-10 0 2.04777e-10 1.24358e-10 0 0 0 0)
(0 2.08846e-10 0 2.08846e-10 1.21895e-10 0 0 0 0)
(0 2.13094e-10 0 2.13094e-10 1.19447e-10 0 0 0 0)
(0 2.17534e-10 0 2.17534e-10 1.17032e-10 0 0 0 0)
(0 2.22177e-10 0 2.22177e-10 1.14668e-10 0 0 0 0)
(0 2.2704e-10 0 2.2704e-10 1.12376e-10 0 0 0 0)
(0 2.32138e-10 0 2.32138e-10 1.10177e-10 0 0 0 0)
(0 2.37486e-10 0 2.37486e-10 1.08092e-10 0 0 0 0)
(0 2.43098e-10 0 2.43098e-10 1.06137e-10 0 0 0 0)
(0 2.4899e-10 0 2.4899e-10 1.0432e-10 0 0 0 0)
(0 2.55177e-10 0 2.55177e-10 1.02642e-10 0 0 0 0)
(0 2.61673e-10 0 2.61673e-10 1.01086e-10 0 0 0 0)
(0 2.68492e-10 0 2.68492e-10 9.96187e-11 0 0 0 0)
(0 2.75647e-10 0 2.75647e-10 9.81873e-11 0 0 0 0)
(0 2.83151e-10 0 2.83151e-10 9.67197e-11 0 0 0 0)
(0 2.91019e-10 0 2.91019e-10 9.5129e-11 0 0 0 0)
(0 2.99271e-10 0 2.99271e-10 9.33224e-11 0 0 0 0)
(0 3.07929e-10 0 3.07929e-10 9.12166e-11 0 0 0 0)
(0 3.17025e-10 0 3.17025e-10 8.87577e-11 0 0 0 0)
(0 3.26599e-10 0 3.26599e-10 8.59447e-11 0 0 0 0)
(0 3.36706e-10 0 3.36706e-10 8.28528e-11 0 0 0 0)
(0 3.47435e-10 0 3.47435e-10 7.96504e-11 0 0 0 0)
(0 3.58933e-10 0 3.58933e-10 7.6607e-11 0 0 0 0)
(0 3.71434e-10 0 3.71434e-10 7.40872e-11 0 0 0 0)
(0 3.85263e-10 0 3.85263e-10 7.25314e-11 0 0 0 0)
(0 4.00755e-10 0 4.00755e-10 7.24185e-11 0 0 0 0)
(0 4.18095e-10 0 4.18095e-10 7.42002e-11 0 0 0 0)
(0 4.37163e-10 0 4.37163e-10 7.81749e-11 0 0 0 0)
(0 4.57748e-10 0 4.57748e-10 8.42592e-11 0 0 0 0)
(0 4.80354e-10 0 4.80354e-10 9.16451e-11 0 0 0 0)
(0 5.0662e-10 0 5.0662e-10 9.83992e-11 0 0 0 0)
(0 5.37081e-10 0 5.37081e-10 1.01145e-10 0 0 0 0)
(0 5.67685e-10 0 5.67685e-10 9.5374e-11 0 0 0 0)
(0 5.93083e-10 0 5.93083e-10 7.7573e-11 0 0 0 0)
(0 6.17713e-10 0 6.17713e-10 4.8859e-11 0 0 0 0)
(0 6.60578e-10 0 6.60578e-10 1.63702e-11 0 0 0 0)
(0 7.37551e-10 0 7.37551e-10 -8.34494e-12 0 0 0 0)
(0 8.18528e-10 0 8.18528e-10 -4.02959e-10 0 0 0 0)
(0 8.38687e-10 0 8.38687e-10 5.09193e-09 0 0 0 0)
(0 9.23285e-10 0 9.23285e-10 -2.28152e-08 0 0 0 0)
(0 1.42628e-08 0 1.42628e-08 8.68328e-08 0 0 0 0)
(0 4.92961e-06 0 4.92961e-06 -4.04517e-07 0 0 0 0)
(0 0.000673932 0 0.000673932 -1.36187e-05 0 0 0 0)
(0 0.00418435 0 0.00418435 -3.48205e-05 0 0 0 0)
(0 0.00649667 0 0.00649667 2.04482e-07 0 0 0 0)
(0 0.00749979 0 0.00749979 -2.02749e-06 0 0 0 0)
(0 0.00805298 0 0.00805298 1.60201e-06 0 0 0 0)
(0 0.00834831 0 0.00834831 5.07426e-06 0 0 0 0)
(0 0.00847807 0 0.00847807 8.37157e-06 0 0 0 0)
(0 0.00849053 0 0.00849053 1.18227e-05 0 0 0 0)
(0 0.00841929 0 0.00841929 1.48263e-05 0 0 0 0)
(0 0.00829064 0 0.00829064 1.67571e-05 0 0 0 0)
(0 0.0081203 0 0.0081203 1.8348e-05 0 0 0 0)
(0 0.00791928 0 0.00791928 1.95593e-05 0 0 0 0)
(0 0.00769604 0 0.00769604 2.0392e-05 0 0 0 0)
(0 0.00745676 0 0.00745676 2.0889e-05 0 0 0 0)
(0 0.00720607 0 0.00720607 2.10995e-05 0 0 0 0)
(0 0.00694744 0 0.00694744 2.10673e-05 0 0 0 0)
(0 0.0066835 0 0.0066835 2.08284e-05 0 0 0 0)
(0 0.00641626 0 0.00641626 2.04133e-05 0 0 0 0)
(0 0.00614721 0 0.00614721 1.98516e-05 0 0 0 0)
(0 0.00587752 0 0.00587752 1.91686e-05 0 0 0 0)
(0 0.00560805 0 0.00560805 1.83846e-05 0 0 0 0)
(0 0.00533952 0 0.00533952 1.75175e-05 0 0 0 0)
(0 0.0050725 0 0.0050725 1.65832e-05 0 0 0 0)
(0 0.00480747 0 0.00480747 1.5596e-05 0 0 0 0)
(0 0.00454488 0 0.00454488 1.45689e-05 0 0 0 0)
(0 0.00428513 0 0.00428513 1.35141e-05 0 0 0 0)
(0 0.00402863 0 0.00402863 1.24435e-05 0 0 0 0)
(0 0.00377581 0 0.00377581 1.13689e-05 0 0 0 0)
(0 0.00352709 0 0.00352709 1.03016e-05 0 0 0 0)
(0 0.00328294 0 0.00328294 9.25324e-06 0 0 0 0)
(0 0.00304386 0 0.00304386 8.23504e-06 0 0 0 0)
(0 0.00281038 0 0.00281038 7.25776e-06 0 0 0 0)
(0 0.0025831 0 0.0025831 6.33133e-06 0 0 0 0)
(0 0.00236268 0 0.00236268 5.46459e-06 0 0 0 0)
(0 0.00214985 0 0.00214985 4.66577e-06 0 0 0 0)
(0 0.00194542 0 0.00194542 3.94309e-06 0 0 0 0)
(0 0.00175024 0 0.00175024 3.3038e-06 0 0 0 0)
(0 0.00156522 0 0.00156522 2.75006e-06 0 0 0 0)
(0 0.00139124 0 0.00139124 2.27484e-06 0 0 0 0)
(0 0.00122909 0 0.00122909 1.86337e-06 0 0 0 0)
(0 0.00107939 0 0.00107939 1.50138e-06 0 0 0 0)
(0 0.000942481 0 0.000942481 1.1831e-06 0 0 0 0)
(0 0.000818353 0 0.000818353 9.11395e-07 0 0 0 0)
(0 0.000706634 0 0.000706634 6.90877e-07 0 0 0 0)
(0 0.000606605 0 0.000606605 5.21368e-07 0 0 0 0)
(0 0.000517289 0 0.000517289 3.96548e-07 0 0 0 0)
(0 0.000437562 0 0.000437562 3.06741e-07 0 0 0 0)
(0 0.000366256 0 0.000366256 2.42299e-07 0 0 0 0)
(0 0.000302248 0 0.000302248 1.95472e-07 0 0 0 0)
(0 0.000244511 0 0.000244511 1.6073e-07 0 0 0 0)
(0 0.00019214 0 0.00019214 1.34348e-07 0 0 0 0)
(0 0.000144361 0 0.000144361 1.13857e-07 0 0 0 0)
(0 0.00010052 0 0.00010052 9.76136e-08 0 0 0 0)
(0 6.0076e-05 0 6.0076e-05 8.45024e-08 0 0 0 0)
(0 2.25804e-05 0 2.25804e-05 7.37553e-08 0 0 0 0)
(0 -1.23357e-05 0 -1.23357e-05 6.48299e-08 0 0 0 0)
(0 -4.49801e-05 0 -4.49801e-05 5.73312e-08 0 0 0 0)
(0 -7.58972e-05 0 -7.58972e-05 5.09201e-08 0 0 0 0)
(-7.41372e-17 -0.000105562 0 -0.000105562 4.53517e-08 0 0 0 0)
(0 -0.00013407 0 -0.00013407 4.0505e-08 0 0 0 0)
(0 -0.000161496 0 -0.000161496 3.62759e-08 0 0 0 0)
(3.78773e-17 -0.000187897 0 -0.000187897 3.2576e-08 0 0 0 0)
(0 -0.000213319 0 -0.000213319 2.93316e-08 0 0 0 0)
(-7.61435e-17 -0.000237796 0 -0.000237796 2.64822e-08 0 0 0 0)
(0 -0.000261353 0 -0.000261353 2.39763e-08 0 0 0 0)
(3.80152e-17 -0.000284006 0 -0.000284006 2.17674e-08 0 0 0 0)
(0 -0.000305764 0 -0.000305764 1.98114e-08 0 0 0 0)
(0 -0.000326631 0 -0.000326631 1.80656e-08 0 0 0 0)
(0 -0.000346604 0 -0.000346604 1.64926e-08 0 0 0 0)
(3.72594e-17 -0.000365678 0 -0.000365678 1.50637e-08 0 0 0 0)
(0 -0.000383843 0 -0.000383843 1.37502e-08 0 0 0 0)
(0 -0.000401084 0 -0.000401084 1.25225e-08 0 0 0 0)
(0 -0.000417386 0 -0.000417386 1.13598e-08 0 0 0 0)
(0 -0.000432729 0 -0.000432729 1.02539e-08 0 0 0 0)
(0 -0.000447093 0 -0.000447093 9.1992e-09 0 0 0 0)
(-6.98303e-17 -0.000460455 0 -0.000460455 8.19073e-09 0 0 0 0)
(0 -0.00047279 0 -0.00047279 7.2321e-09 0 0 0 0)
(0 -0.000484074 0 -0.000484074 6.33482e-09 0 0 0 0)
(0 -0.000494279 0 -0.000494279 5.50561e-09 0 0 0 0)
(-6.55692e-17 -0.000503379 0 -0.000503379 4.74568e-09 0 0 0 0)
(0 -0.000511346 0 -0.000511346 4.05769e-09 0 0 0 0)
(0 -0.000518151 0 -0.000518151 3.44373e-09 0 0 0 0)
(0 -0.000523766 0 -0.000523766 2.90149e-09 0 0 0 0)
(0 -0.000528162 0 -0.000528162 2.42669e-09 0 0 0 0)
(5.93296e-17 -0.000531312 0 -0.000531312 2.01526e-09 0 0 0 0)
(0 -0.000533186 0 -0.000533186 1.66307e-09 0 0 0 0)
(0 -0.000533758 0 -0.000533758 1.36278e-09 0 0 0 0)
(0 -0.000533002 0 -0.000533002 1.1076e-09 0 0 0 0)
(0 -0.000530893 0 -0.000530893 9.01558e-10 0 0 0 0)
(0 -0.000527405 0 -0.000527405 7.30657e-10 0 0 0 0)
(0 -0.000522519 0 -0.000522519 5.65107e-10 0 0 0 0)
(0 -0.000516215 0 -0.000516215 4.43672e-10 0 0 0 0)
(0 -0.000508476 0 -0.000508476 3.87931e-10 0 0 0 0)
(0 -0.000499289 0 -0.000499289 3.24913e-10 0 0 0 0)
(0 -0.000488647 0 -0.000488647 2.39622e-10 0 0 0 0)
(0 -0.000476545 0 -0.000476545 1.70542e-10 0 0 0 0)
(0 -0.000462986 0 -0.000462986 1.21822e-10 0 0 0 0)
(0 -0.000447979 0 -0.000447979 8.59378e-11 0 0 0 0)
(0 -0.000431543 0 -0.000431543 6.06491e-11 0 0 0 0)
(-3.63079e-17 -0.000413706 0 -0.000413706 4.19425e-11 0 0 0 0)
(3.45996e-17 -0.000394506 0 -0.000394506 2.66359e-11 0 0 0 0)
(0 -0.000373997 0 -0.000373997 1.79445e-11 0 0 0 0)
(0 -0.000352246 0 -0.000352246 9.51593e-12 0 0 0 0)
(-5.87833e-17 -0.000329341 0 -0.000329341 8.42199e-13 0 0 0 0)
(0 -0.000305388 0 -0.000305388 -1.08485e-12 0 0 0 0)
(0 -0.000280521 0 -0.000280521 -1.29912e-13 0 0 0 0)
(-2.41039e-17 -0.000254899 0 -0.000254899 4.09385e-14 0 0 0 0)
(0 -0.000228716 0 -0.000228716 6.29653e-15 0 0 0 0)
(0 -0.000202202 0 -0.000202202 -1.21254e-14 0 0 0 0)
(0 -0.00017563 0 -0.00017563 -1.08219e-14 0 0 0 0)
(0 -0.00014932 0 -0.00014932 -1.27121e-14 0 0 0 0)
(0 -0.00012364 0 -0.00012364 -2.66067e-14 0 0 0 0)
(0 -9.90149e-05 0 -9.90149e-05 -1.34621e-14 0 0 0 0)
(0 -7.59199e-05 0 -7.59199e-05 3.56136e-13 0 0 0 0)
(0 -5.48741e-05 0 -5.48741e-05 -1.09951e-12 0 0 0 0)
(0 -3.64225e-05 0 -3.64225e-05 1.89172e-12 0 0 0 0)
(0 -2.11014e-05 0 -2.11014e-05 -2.52564e-12 0 0 0 0)
(0 -9.38118e-06 0 -9.38118e-06 2.81222e-12 0 0 0 0)
(0 -1.58197e-06 0 -1.58197e-06 -2.7121e-12 0 0 0 0)
(0 2.24078e-06 0 2.24078e-06 2.20791e-12 0 0 0 0)
(0 2.35475e-06 0 2.35475e-06 -1.3884e-12 0 0 0 0)
(0 5.34656e-07 0 5.34656e-07 4.55749e-13 0 0 0 0)
(2.67242e-19 3.58715e-08 0 3.58715e-08 -1.22376e-13 0 0 0 0)
(0 1.57442e-09 0 1.57442e-09 1.02028e-13 0 0 0 0)
(0 3.50525e-11 0 3.50525e-11 -9.99984e-14 0 0 0 0)
(0 5.01107e-12 0 5.01107e-12 9.81462e-14 0 0 0 0)
(0 3.28838e-12 0 3.28838e-12 -9.65156e-14 0 0 0 0)
(0 2.35901e-12 0 2.35901e-12 9.48535e-14 0 0 0 0)
(0 1.68481e-12 0 1.68481e-12 -9.3372e-14 0 0 0 0)
(0 1.19526e-12 0 1.19526e-12 9.18553e-14 0 0 0 0)
(0 8.42073e-13 0 8.42073e-13 -9.0479e-14 0 0 0 0)
(0 5.88993e-13 0 5.88993e-13 8.90654e-14 0 0 0 0)
(0 4.09056e-13 0 4.09056e-13 -8.77624e-14 0 0 0 0)
(0 2.8199e-13 0 2.8199e-13 8.64182e-14 0 0 0 0)
(0 1.92885e-13 0 1.92885e-13 -8.51603e-14 0 0 0 0)
(0 1.30943e-13 0 1.30943e-13 8.38614e-14 0 0 0 0)
(0 8.82783e-14 0 8.82783e-14 -8.26323e-14 0 0 0 0)
(0 5.90195e-14 0 5.90195e-14 8.13523e-14 0 0 0 0)
(0 3.90622e-14 0 3.90622e-14 -8.01325e-14 0 0 0 0)
(0 2.5684e-14 0 2.5684e-14 7.88688e-14 0 0 0 0)
(0 1.67206e-14 0 1.67206e-14 -7.76426e-14 0 0 0 0)
(0 1.08312e-14 0 1.08312e-14 7.63783e-14 0 0 0 0)
(0 6.93057e-15 0 6.93057e-15 -7.51391e-14 0 0 0 0)
(0 4.36375e-15 0 4.36375e-15 7.38659e-14 0 0 0 0)
(0 2.72402e-15 0 2.72402e-15 -7.25995e-14 0 0 0 0)
(0 1.6588e-15 0 1.6588e-15 7.13085e-14 0 0 0 0)
(0 1.06401e-15 0 1.06401e-15 -7.00175e-14 0 0 0 0)
(0 6.96341e-16 0 6.96341e-16 6.8713e-14 0 0 0 0)
(0 4.10427e-16 0 4.10427e-16 -6.73892e-14 0 0 0 0)
(0 2.14104e-16 0 2.14104e-16 6.60612e-14 0 0 0 0)
(0 1.71476e-16 0 1.71476e-16 -6.47053e-14 0 0 0 0)
(0 1.01454e-16 0 1.01454e-16 6.33561e-14 0 0 0 0)
(2.46128e-19 -1.51369e-17 0 -1.51369e-17 -6.19761e-14 0 0 0 0)
(0 -2.42438e-17 0 -2.42438e-17 6.05831e-14 0 0 0 0)
(0 1.60774e-17 0 1.60774e-17 -5.91909e-14 0 0 0 0)
(-2.31729e-19 1.76693e-17 0 1.76693e-17 5.77684e-14 0 0 0 0)
(0 8.65891e-17 0 8.65891e-17 -5.63421e-14 0 0 0 0)
(0 3.86212e-17 0 3.86212e-17 5.4887e-14 0 0 0 0)
(0 -6.85607e-17 0 -6.85607e-17 -5.34292e-14 0 0 0 0)
(0 -5.07852e-18 0 -5.07852e-18 5.19451e-14 0 0 0 0)
(0 -2.08007e-17 0 -2.08007e-17 -5.04537e-14 0 0 0 0)
(0 6.16227e-19 0 6.16227e-19 4.89322e-14 0 0 0 0)
(0 3.17587e-17 0 3.17587e-17 -4.74046e-14 0 0 0 0)
(0 2.77232e-17 0 2.77232e-17 4.58485e-14 0 0 0 0)
(0 1.71636e-17 0 1.71636e-17 -4.42784e-14 0 0 0 0)
(0 -8.19309e-17 0 -8.19309e-17 4.27158e-14 0 0 0 0)
(0 -1.02544e-16 0 -1.02544e-16 -4.7061e-14 0 0 0 0)
(0 -4.88632e-17 0 -4.88632e-17 4.65257e-14 0 0 0 0)
(0 4.26693e-17 0 4.26693e-17 -4.60241e-14 0 0 0 0)
(0 2.23405e-17 0 2.23405e-17 4.55095e-14 0 0 0 0)
(0 1.3182e-17 0 1.3182e-17 -4.50009e-14 0 0 0 0)
(0 4.49457e-17 0 4.49457e-17 4.44794e-14 0 0 0 0)
(0 -2.10699e-17 0 -2.10699e-17 -4.39594e-14 0 0 0 0)
(0 -1.4029e-17 0 -1.4029e-17 4.34285e-14 0 0 0 0)
(0 2.09641e-17 0 2.09641e-17 -4.28957e-14 0 0 0 0)
(0 -8.70856e-17 0 -8.70856e-17 4.23563e-14 0 0 0 0)
(0 -4.96044e-17 0 -4.96044e-17 -4.18145e-14 0 0 0 0)
(0 7.12037e-17 0 7.12037e-17 4.12574e-14 0 0 0 0)
(0 4.58986e-17 0 4.58986e-17 -4.07032e-14 0 0 0 0)
(0 -4.2881e-18 0 -4.2881e-18 4.01376e-14 0 0 0 0)
(0 2.64698e-19 0 2.64698e-19 -3.95684e-14 0 0 0 0)
(0 -9.47618e-18 0 -9.47618e-18 3.89839e-14 0 0 0 0)
(0 -8.89385e-18 0 -8.89385e-18 -3.8394e-14 0 0 0 0)
(0 3.09696e-17 0 3.09696e-17 3.77891e-14 0 0 0 0)
(0 -1.15408e-17 0 -1.15408e-17 -3.72766e-14 0 0 0 0)
(0 -2.17052e-18 0 -2.17052e-18 3.65048e-14 0 0 0 0)
(0 2.17052e-18 0 2.17052e-18 -3.60582e-14 0 0 0 0)
(0 -3.47813e-17 0 -3.47813e-17 3.52746e-14 0 0 0 0)
(0 -9.68794e-18 0 -9.68794e-18 -3.47904e-14 0 0 0 0)
(0 4.09752e-17 0 4.09752e-17 3.39883e-14 0 0 0 0)
(0 7.94093e-18 0 7.94093e-18 -3.34545e-14 0 0 0 0)
(0 6.8292e-18 0 6.8292e-18 3.26586e-14 0 0 0 0)
(0 6.8292e-18 0 6.8292e-18 -3.20981e-14 0 0 0 0)
(0 -1.4876e-17 0 -1.4876e-17 3.12488e-14 0 0 0 0)
(0 -5.32043e-17 0 -5.32043e-17 -3.06488e-14 0 0 0 0)
(0 -1.53366e-16 0 -1.53366e-16 2.98101e-14 0 0 0 0)
(0 -3.72483e-16 0 -3.72483e-16 -2.91389e-14 0 0 0 0)
(0 -1.67289e-17 0 -1.67289e-17 2.82744e-14 0 0 0 0)
(0 3.72006e-16 0 3.72006e-16 -2.75278e-14 0 0 0 0)
(0 1.60089e-16 0 1.60089e-16 2.66472e-14 0 0 0 0)
(0 3.5046e-17 0 3.5046e-17 -2.58982e-14 0 0 0 0)
(0 1.26526e-17 0 1.26526e-17 2.4858e-14 0 0 0 0)
(0 5.31513e-17 0 5.31513e-17 -2.4103e-14 0 0 0 0)
(0 2.64168e-17 0 2.64168e-17 2.30121e-14 0 0 0 0)
(0 -2.44051e-17 0 -2.44051e-17 -2.21639e-14 0 0 0 0)
(0 -9.78852e-17 0 -9.78852e-17 2.09798e-14 0 0 0 0)
(0 8.68209e-18 0 8.68209e-18 -2.00233e-14 0 0 0 0)
(0 1.52148e-16 0 1.52148e-16 1.8705e-14 0 0 0 0)
(0 8.49151e-17 0 8.49151e-17 -1.76942e-14 0 0 0 0)
(0 -4.39928e-17 0 -4.39928e-17 1.60898e-14 0 0 0 0)
(0 -7.30566e-17 0 -7.30566e-17 -1.49207e-14 0 0 0 0)
(0 -7.06214e-17 0 -7.06214e-17 1.30287e-14 0 0 0 0)
(0 -4.80162e-17 0 -4.80162e-17 -1.1471e-14 0 0 0 0)
(0 3.18167e-17 0 3.18167e-17 8.87499e-15 0 0 0 0)
(0 -6.90332e-17 0 -6.90332e-17 -5.72153e-15 0 0 0 0)
(0 -9.59794e-17 0 -9.59794e-17 4.35581e-15 0 0 0 0)
)
;

boundaryField
{
    inandouthalf11
    {
        type            cyclic;
    }
    inandouthalf12
    {
        type            cyclic;
    }
    inandouthalf21
    {
        type            cyclic;
    }
    inandouthalf22
    {
        type            cyclic;
    }
    inandouthalf31
    {
        type            cyclic;
    }
    inandouthalf32
    {
        type            cyclic;
    }
    inandouthalf41
    {
        type            cyclic;
    }
    inandouthalf42
    {
        type            cyclic;
    }
    top
    {
        type            symmetryPlane;
    }
    walls
    {
        type            zeroGradient;
    }
    frontAndBackPlanes
    {
        type            empty;
    }
}


// ************************************************************************* //
