/*--------------------------------*- C++ -*----------------------------------*\
| =========                 |                                                 |
| \\      /  F ield         | OpenFOAM: The Open Source CFD Toolbox           |
|  \\    /   O peration     | Version:  2.4.x                                 |
|   \\  /    A nd           | Web:      www.OpenFOAM.org                      |
|    \\/     M anipulation  |                                                 |
\*---------------------------------------------------------------------------*/
FoamFile
{
    version     2.0;
    format      ascii;
    class       volVectorField;
    location    "8.7";
    object      Ua;
}
// * * * * * * * * * * * * * * * * * * * * * * * * * * * * * * * * * * * * * //

dimensions      [0 1 -1 0 0 0 0];

internalField   nonuniform List<vector> 
360
(
(1.99862e-32 -9.99726e-32 0)
(1.34527e-08 -4.71172e-08 0)
(2.82901e-08 -8.49901e-08 0)
(4.18835e-08 -1.18985e-07 0)
(5.59487e-08 -1.55429e-07 0)
(7.08016e-08 -1.94049e-07 0)
(8.60709e-08 -2.3347e-07 0)
(1.01567e-07 -2.7332e-07 0)
(1.17274e-07 -3.13639e-07 0)
(1.33207e-07 -3.54474e-07 0)
(1.49372e-07 -3.95846e-07 0)
(1.65763e-07 -4.37736e-07 0)
(1.82366e-07 -4.80099e-07 0)
(1.99162e-07 -5.22892e-07 0)
(2.16135e-07 -5.66071e-07 0)
(2.3327e-07 -6.09602e-07 0)
(2.50554e-07 -6.53448e-07 0)
(2.67968e-07 -6.97568e-07 0)
(2.85495e-07 -7.41911e-07 0)
(3.03115e-07 -7.86433e-07 0)
(3.20808e-07 -8.31082e-07 0)
(3.38554e-07 -8.75808e-07 0)
(3.56337e-07 -9.20568e-07 0)
(3.74137e-07 -9.65316e-07 0)
(3.91935e-07 -1.01001e-06 0)
(4.09716e-07 -1.0546e-06 0)
(4.2746e-07 -1.09904e-06 0)
(4.45155e-07 -1.1433e-06 0)
(4.62785e-07 -1.18735e-06 0)
(4.80336e-07 -1.23116e-06 0)
(4.97797e-07 -1.27468e-06 0)
(5.15156e-07 -1.31789e-06 0)
(5.32404e-07 -1.36078e-06 0)
(5.49532e-07 -1.40331e-06 0)
(5.66534e-07 -1.44549e-06 0)
(5.83403e-07 -1.48728e-06 0)
(6.00134e-07 -1.52867e-06 0)
(6.16724e-07 -1.56967e-06 0)
(6.33172e-07 -1.61027e-06 0)
(6.49475e-07 -1.65045e-06 0)
(6.65633e-07 -1.69023e-06 0)
(6.81648e-07 -1.7296e-06 0)
(6.97518e-07 -1.76857e-06 0)
(7.13247e-07 -1.80714e-06 0)
(7.28839e-07 -1.84532e-06 0)
(7.44296e-07 -1.88312e-06 0)
(7.59621e-07 -1.92055e-06 0)
(7.74816e-07 -1.95761e-06 0)
(7.89883e-07 -1.9943e-06 0)
(8.04832e-07 -2.03066e-06 0)
(8.19666e-07 -2.06669e-06 0)
(8.34387e-07 -2.10239e-06 0)
(8.49e-07 -2.13777e-06 0)
(8.6351e-07 -2.17286e-06 0)
(8.77919e-07 -2.20764e-06 0)
(8.92233e-07 -2.24215e-06 0)
(9.06454e-07 -2.27638e-06 0)
(9.20585e-07 -2.31033e-06 0)
(9.34628e-07 -2.34403e-06 0)
(9.48584e-07 -2.37745e-06 0)
(9.62457e-07 -2.41062e-06 0)
(9.76252e-07 -2.44355e-06 0)
(9.89971e-07 -2.47625e-06 0)
(1.00362e-06 -2.50871e-06 0)
(1.01719e-06 -2.54094e-06 0)
(1.03069e-06 -2.57294e-06 0)
(1.04412e-06 -2.6047e-06 0)
(1.05748e-06 -2.63624e-06 0)
(1.07076e-06 -2.66755e-06 0)
(1.08397e-06 -2.69861e-06 0)
(1.0971e-06 -2.72943e-06 0)
(1.11017e-06 -2.76003e-06 0)
(1.12316e-06 -2.79039e-06 0)
(1.13608e-06 -2.82052e-06 0)
(1.14893e-06 -2.85041e-06 0)
(1.16172e-06 -2.88008e-06 0)
(1.17442e-06 -2.9095e-06 0)
(1.18706e-06 -2.93867e-06 0)
(1.19961e-06 -2.96758e-06 0)
(1.21208e-06 -2.99623e-06 0)
(1.22447e-06 -3.0246e-06 0)
(1.23677e-06 -3.0527e-06 0)
(1.24899e-06 -3.08053e-06 0)
(1.26113e-06 -3.10808e-06 0)
(1.27319e-06 -3.13536e-06 0)
(1.28516e-06 -3.16236e-06 0)
(1.29705e-06 -3.18908e-06 0)
(1.30885e-06 -3.2155e-06 0)
(1.32056e-06 -3.24163e-06 0)
(1.33217e-06 -3.26744e-06 0)
(1.34369e-06 -3.29294e-06 0)
(1.35512e-06 -3.31811e-06 0)
(1.36644e-06 -3.34296e-06 0)
(1.37766e-06 -3.36747e-06 0)
(1.38879e-06 -3.39166e-06 0)
(1.39982e-06 -3.41552e-06 0)
(1.41076e-06 -3.43904e-06 0)
(1.42159e-06 -3.46222e-06 0)
(1.43233e-06 -3.48506e-06 0)
(1.44297e-06 -3.50756e-06 0)
(1.4535e-06 -3.52969e-06 0)
(1.46394e-06 -3.55148e-06 0)
(1.47427e-06 -3.5729e-06 0)
(1.48451e-06 -3.59396e-06 0)
(1.49465e-06 -3.61467e-06 0)
(1.5047e-06 -3.63502e-06 0)
(1.51466e-06 -3.65503e-06 0)
(1.52455e-06 -3.6747e-06 0)
(1.53436e-06 -3.69406e-06 0)
(1.54412e-06 -3.71312e-06 0)
(1.55384e-06 -3.7319e-06 0)
(1.56354e-06 -3.75043e-06 0)
(1.57322e-06 -3.76872e-06 0)
(1.58291e-06 -3.78682e-06 0)
(1.59263e-06 -3.80472e-06 0)
(1.60239e-06 -3.82246e-06 0)
(1.61219e-06 -3.84004e-06 0)
(1.62204e-06 -3.85743e-06 0)
(1.63193e-06 -3.87463e-06 0)
(1.64186e-06 -3.89159e-06 0)
(1.65178e-06 -3.90826e-06 0)
(1.66168e-06 -3.92457e-06 0)
(1.67153e-06 -3.94048e-06 0)
(1.68132e-06 -3.95594e-06 0)
(1.69106e-06 -3.97096e-06 0)
(1.70078e-06 -3.98559e-06 0)
(1.71059e-06 -3.99995e-06 0)
(1.72063e-06 -4.01425e-06 0)
(1.73115e-06 -4.02877e-06 0)
(1.74244e-06 -4.04388e-06 0)
(1.75486e-06 -4.05997e-06 0)
(1.76879e-06 -4.07741e-06 0)
(1.7845e-06 -4.09639e-06 0)
(1.80195e-06 -4.11671e-06 0)
(1.82043e-06 -4.13743e-06 0)
(1.83829e-06 -4.15667e-06 0)
(1.85316e-06 -4.17197e-06 0)
(1.8632e-06 -4.18173e-06 0)
(1.86832e-06 -4.18636e-06 0)
(1.87021e-06 -4.18786e-06 0)
(1.8708e-06 -4.18817e-06 0)
(1.87116e-06 -4.18816e-06 0)
(1.87181e-06 -4.18769e-06 0)
(1.8893e-06 -4.16382e-06 0)
(2.09565e-06 -3.9907e-06 0)
(0.107109 0.00220034 0)
(0.226492 0.00262608 0)
(0.32932 0.00318861 0)
(0.418698 0.00360908 0)
(0.497646 0.0039719 0)
(0.568279 0.00429348 0)
(0.632113 0.0046154 0)
(0.690375 0.00488917 0)
(0.74376 0.00517468 0)
(0.792898 0.00546144 0)
(0.838319 0.00574934 0)
(0.880463 0.00604078 0)
(0.919699 0.0063383 0)
(0.956334 0.00664378 0)
(0.99063 0.00695852 0)
(1.02281 0.00728333 0)
(1.05306 0.00761868 0)
(1.08154 0.00796475 0)
(1.1084 0.00832144 0)
(1.13376 0.0086884 0)
(1.15771 0.00906509 0)
(1.18034 0.00945078 0)
(1.20173 0.00984454 0)
(1.22194 0.0102453 0)
(1.24101 0.0106518 0)
(1.25898 0.0110624 0)
(1.27587 0.0114754 0)
(1.29169 0.0118885 0)
(1.30646 0.0122993 0)
(1.32017 0.0127045 0)
(1.33282 0.0131003 0)
(1.3444 0.0134822 0)
(1.35492 0.0138449 0)
(1.36438 0.0141824 0)
(1.37279 0.0144883 0)
(1.38018 0.0147545 0)
(1.38659 0.0149692 0)
(1.39208 0.0151156 0)
(1.39674 0.0151745 0)
(1.40064 0.0151315 0)
(1.40389 0.0149852 0)
(1.40658 0.0147495 0)
(1.40882 0.0144484 0)
(1.41067 0.0141083 0)
(1.4122 0.0137522 0)
(1.41348 0.013397 0)
(1.41453 0.0130535 0)
(1.4154 0.0127279 0)
(1.41611 0.0124235 0)
(1.41668 0.0121414 0)
(1.41715 0.0118815 0)
(1.41751 0.0116432 0)
(1.41779 0.0114255 0)
(1.418 0.0112274 0)
(1.41815 0.0110476 0)
(1.41825 0.0108849 0)
(1.41831 0.010737 0)
(1.41833 0.0106018 0)
(1.41832 0.0104792 0)
(1.41828 0.010369 0)
(1.41821 0.0102708 0)
(1.41812 0.0101843 0)
(1.41801 0.0101091 0)
(1.41787 0.0100447 0)
(1.41772 0.00999061 0)
(1.41755 0.00994619 0)
(1.41737 0.0099107 0)
(1.41718 0.00988334 0)
(1.41698 0.00986324 0)
(1.41677 0.00984944 0)
(1.41656 0.00984092 0)
(1.41634 0.00983668 0)
(1.41612 0.00983574 0)
(1.4159 0.00983717 0)
(1.41568 0.00984009 0)
(1.41547 0.00984373 0)
(1.41525 0.00984751 0)
(1.41504 0.00985086 0)
(1.41483 0.00985331 0)
(1.41463 0.00985448 0)
(1.41443 0.00985405 0)
(1.41424 0.00985176 0)
(1.41405 0.0098473 0)
(1.41387 0.00984056 0)
(1.4137 0.00983127 0)
(1.41354 0.00981955 0)
(1.4134 0.00980479 0)
(1.41327 0.00978778 0)
(1.41316 0.00976898 0)
(1.41308 0.00974391 0)
(1.41303 0.0097158 0)
(1.41301 0.00968665 0)
(1.41261 0.00855907 0)
(1.41045 0.00895437 0)
(1.40805 0.00874376 0)
(1.40566 0.00857667 0)
(1.40326 0.00847204 0)
(1.40082 0.00766891 0)
(1.39841 0.0097854 0)
(1.39572 0.00312958 0)
(1.3939 0.0155876 0)
(1.3909 -0.00739392 0)
(1.38942 -0.0381945 0)
(1.38687 -0.0396745 0)
(1.38459 -0.0395916 0)
(1.38233 -0.0395963 0)
(1.38015 -0.039596 0)
(1.37805 -0.0395954 0)
(1.37604 -0.0395942 0)
(1.37416 -0.0395926 0)
(1.37241 -0.0395903 0)
(1.37083 -0.0395875 0)
(1.36943 -0.039584 0)
(1.36824 -0.0395799 0)
(1.36729 -0.0395753 0)
(1.36659 -0.03957 0)
(1.36617 -0.0395648 0)
(1.36603 -0.0395597 0)
(1.36612 -0.0395533 0)
(1.36642 -0.0395461 0)
(1.36673 -0.0395368 0)
(1.36681 -0.0395308 0)
(1.36681 -0.0395295 0)
(1.36681 -0.0395294 0)
(1.36681 -0.0395294 0)
(1.36681 -0.0395294 0)
(1.36681 -0.0395294 0)
(1.36681 -0.0395294 0)
(1.36681 -0.0395294 0)
(1.36681 -0.0395294 0)
(1.36681 -0.0395294 0)
(1.36681 -0.0395294 0)
(1.36681 -0.0395294 0)
(1.36681 -0.0395294 0)
(1.36681 -0.0395294 0)
(1.36681 -0.0395294 0)
(1.36681 -0.0395294 0)
(1.36681 -0.0395294 0)
(1.36681 -0.0395294 0)
(1.36681 -0.0395294 0)
(1.36681 -0.0395294 0)
(1.36681 -0.0395294 0)
(1.36681 -0.0395294 0)
(1.36681 -0.0395294 0)
(1.36681 -0.0395294 0)
(1.36681 -0.0395294 0)
(1.36681 -0.0395294 0)
(1.36681 -0.0395294 0)
(1.36681 -0.0395294 0)
(1.36681 -0.0395294 0)
(1.36681 -0.0395294 0)
(1.36681 -0.0395294 0)
(1.36681 -0.0395294 0)
(1.36681 -0.0395294 0)
(1.36681 -0.0395294 0)
(1.36681 -0.0395294 0)
(1.36681 -0.0395294 0)
(1.36681 -0.0395294 0)
(1.36681 -0.0395294 0)
(1.36681 -0.0395294 0)
(1.36681 -0.0395294 0)
(1.36681 -0.0395294 0)
(1.36681 -0.0395294 0)
(1.36681 -0.0395294 0)
(1.36681 -0.0395294 0)
(1.36681 -0.0395294 0)
(1.36681 -0.0395294 0)
(1.36681 -0.0395294 0)
(1.36681 -0.0395294 0)
(1.36681 -0.0395294 0)
(1.36681 -0.0395294 0)
(1.36681 -0.0395294 0)
(1.36681 -0.0395294 0)
(1.36681 -0.0395294 0)
(1.36681 -0.0395294 0)
(1.36681 -0.0395294 0)
(1.36681 -0.0395294 0)
(1.36681 -0.0395294 0)
(1.36681 -0.0395294 0)
(1.36681 -0.0395294 0)
(1.36681 -0.0395294 0)
(1.36681 -0.0395294 0)
(1.36681 -0.0395294 0)
(1.36681 -0.0395294 0)
(1.36681 -0.0395294 0)
(1.36681 -0.0395294 0)
(1.36681 -0.0395294 0)
(1.36681 -0.0395294 0)
(1.36681 -0.0395294 0)
(1.36681 -0.0395294 0)
(1.36681 -0.0395294 0)
(1.36681 -0.0395294 0)
(1.36681 -0.0395294 0)
(1.36681 -0.0395294 0)
(1.36681 -0.0395294 0)
(1.36681 -0.0395294 0)
(1.36681 -0.0395294 0)
(1.36681 -0.0395294 0)
(1.36681 -0.0395294 0)
(1.36681 -0.0395294 0)
(1.36681 -0.0395294 0)
(1.36681 -0.0395294 0)
(1.36681 -0.0395294 0)
(1.36681 -0.0395294 0)
(1.36681 -0.0395294 0)
(1.36681 -0.0395294 0)
(1.36681 -0.0395294 0)
(1.36681 -0.0395294 0)
(1.36681 -0.0395294 0)
(1.36681 -0.0395294 0)
(1.36681 -0.0395294 0)
(1.36681 -0.0395292 0)
(1.36681 -0.0395207 0)
(1.36679 -0.0391756 0)
(1.36636 -0.0224588 0)
)
;

boundaryField
{
    inandouthalf11
    {
        type            cyclic;
    }
    inandouthalf12
    {
        type            cyclic;
    }
    inandouthalf21
    {
        type            cyclic;
    }
    inandouthalf22
    {
        type            cyclic;
    }
    inandouthalf31
    {
        type            cyclic;
    }
    inandouthalf32
    {
        type            cyclic;
    }
    inandouthalf41
    {
        type            cyclic;
    }
    inandouthalf42
    {
        type            cyclic;
    }
    top
    {
        type            symmetryPlane;
    }
    walls
    {
        type            fixedValue;
        value           uniform (0 0 0);
    }
    frontAndBackPlanes
    {
        type            empty;
    }
}


// ************************************************************************* //
