/*--------------------------------*- C++ -*----------------------------------*\
| =========                 |                                                 |
| \\      /  F ield         | OpenFOAM: The Open Source CFD Toolbox           |
|  \\    /   O peration     | Version:  2.4.x                                 |
|   \\  /    A nd           | Web:      www.OpenFOAM.org                      |
|    \\/     M anipulation  |                                                 |
\*---------------------------------------------------------------------------*/
FoamFile
{
    version     2.0;
    format      ascii;
    class       volVectorField;
    location    "8.7";
    object      Ua_0;
}
// * * * * * * * * * * * * * * * * * * * * * * * * * * * * * * * * * * * * * //

dimensions      [0 1 -1 0 0 0 0];

internalField   nonuniform List<vector> 
360
(
(1.99868e-32 -9.99721e-32 0)
(1.34556e-08 -4.71258e-08 0)
(2.82961e-08 -8.50056e-08 0)
(4.18924e-08 -1.19007e-07 0)
(5.59607e-08 -1.55458e-07 0)
(7.08167e-08 -1.94085e-07 0)
(8.60892e-08 -2.33514e-07 0)
(1.01589e-07 -2.73371e-07 0)
(1.17299e-07 -3.13697e-07 0)
(1.33234e-07 -3.5454e-07 0)
(1.49403e-07 -3.95919e-07 0)
(1.65797e-07 -4.37815e-07 0)
(1.82402e-07 -4.80185e-07 0)
(1.99201e-07 -5.22985e-07 0)
(2.16177e-07 -5.6617e-07 0)
(2.33315e-07 -6.09707e-07 0)
(2.50601e-07 -6.5356e-07 0)
(2.68018e-07 -6.97685e-07 0)
(2.85547e-07 -7.42033e-07 0)
(3.03168e-07 -7.86561e-07 0)
(3.20864e-07 -8.31215e-07 0)
(3.38612e-07 -8.75946e-07 0)
(3.56396e-07 -9.2071e-07 0)
(3.74198e-07 -9.65462e-07 0)
(3.91998e-07 -1.01016e-06 0)
(4.0978e-07 -1.05475e-06 0)
(4.27526e-07 -1.0992e-06 0)
(4.45221e-07 -1.14346e-06 0)
(4.62852e-07 -1.18752e-06 0)
(4.80405e-07 -1.23132e-06 0)
(4.97866e-07 -1.27485e-06 0)
(5.15226e-07 -1.31807e-06 0)
(5.32474e-07 -1.36095e-06 0)
(5.49603e-07 -1.40349e-06 0)
(5.66606e-07 -1.44567e-06 0)
(5.83475e-07 -1.48746e-06 0)
(6.00206e-07 -1.52886e-06 0)
(6.16797e-07 -1.56985e-06 0)
(6.33245e-07 -1.61045e-06 0)
(6.49549e-07 -1.65064e-06 0)
(6.65707e-07 -1.69042e-06 0)
(6.81723e-07 -1.7298e-06 0)
(6.97593e-07 -1.76877e-06 0)
(7.13323e-07 -1.80734e-06 0)
(7.28915e-07 -1.84552e-06 0)
(7.44372e-07 -1.88333e-06 0)
(7.59698e-07 -1.92076e-06 0)
(7.74892e-07 -1.95782e-06 0)
(7.8996e-07 -1.99451e-06 0)
(8.0491e-07 -2.03088e-06 0)
(8.19744e-07 -2.06691e-06 0)
(8.34466e-07 -2.10261e-06 0)
(8.49079e-07 -2.138e-06 0)
(8.63589e-07 -2.17308e-06 0)
(8.77999e-07 -2.20787e-06 0)
(8.92314e-07 -2.24238e-06 0)
(9.06535e-07 -2.27661e-06 0)
(9.20667e-07 -2.31057e-06 0)
(9.34711e-07 -2.34427e-06 0)
(9.48667e-07 -2.3777e-06 0)
(9.62541e-07 -2.41087e-06 0)
(9.76336e-07 -2.44381e-06 0)
(9.90056e-07 -2.4765e-06 0)
(1.0037e-06 -2.50897e-06 0)
(1.01728e-06 -2.54121e-06 0)
(1.03078e-06 -2.57321e-06 0)
(1.04421e-06 -2.60498e-06 0)
(1.05756e-06 -2.63652e-06 0)
(1.07085e-06 -2.66783e-06 0)
(1.08406e-06 -2.69889e-06 0)
(1.09719e-06 -2.72972e-06 0)
(1.11026e-06 -2.76032e-06 0)
(1.12325e-06 -2.79069e-06 0)
(1.13617e-06 -2.82082e-06 0)
(1.14903e-06 -2.85072e-06 0)
(1.16181e-06 -2.88039e-06 0)
(1.17452e-06 -2.90982e-06 0)
(1.18715e-06 -2.93899e-06 0)
(1.1997e-06 -2.96791e-06 0)
(1.21218e-06 -2.99656e-06 0)
(1.22456e-06 -3.02494e-06 0)
(1.23687e-06 -3.05304e-06 0)
(1.24909e-06 -3.08087e-06 0)
(1.26123e-06 -3.10843e-06 0)
(1.27328e-06 -3.13571e-06 0)
(1.28526e-06 -3.16272e-06 0)
(1.29714e-06 -3.18944e-06 0)
(1.30894e-06 -3.21587e-06 0)
(1.32065e-06 -3.242e-06 0)
(1.33227e-06 -3.26782e-06 0)
(1.34379e-06 -3.29332e-06 0)
(1.35521e-06 -3.3185e-06 0)
(1.36653e-06 -3.34335e-06 0)
(1.37776e-06 -3.36787e-06 0)
(1.38888e-06 -3.39206e-06 0)
(1.39991e-06 -3.41592e-06 0)
(1.41085e-06 -3.43944e-06 0)
(1.42168e-06 -3.46263e-06 0)
(1.43242e-06 -3.48548e-06 0)
(1.44306e-06 -3.50798e-06 0)
(1.45359e-06 -3.53012e-06 0)
(1.46403e-06 -3.5519e-06 0)
(1.47436e-06 -3.57333e-06 0)
(1.4846e-06 -3.5944e-06 0)
(1.49473e-06 -3.61511e-06 0)
(1.50478e-06 -3.63546e-06 0)
(1.51474e-06 -3.65548e-06 0)
(1.52463e-06 -3.67516e-06 0)
(1.53444e-06 -3.69452e-06 0)
(1.5442e-06 -3.71358e-06 0)
(1.55392e-06 -3.73237e-06 0)
(1.56361e-06 -3.7509e-06 0)
(1.5733e-06 -3.7692e-06 0)
(1.58299e-06 -3.78729e-06 0)
(1.59271e-06 -3.80521e-06 0)
(1.60246e-06 -3.82295e-06 0)
(1.61226e-06 -3.84053e-06 0)
(1.62211e-06 -3.85793e-06 0)
(1.63201e-06 -3.87513e-06 0)
(1.64193e-06 -3.8921e-06 0)
(1.65185e-06 -3.90877e-06 0)
(1.66175e-06 -3.92509e-06 0)
(1.67161e-06 -3.941e-06 0)
(1.6814e-06 -3.95647e-06 0)
(1.69113e-06 -3.97149e-06 0)
(1.70086e-06 -3.98613e-06 0)
(1.71066e-06 -4.0005e-06 0)
(1.72071e-06 -4.0148e-06 0)
(1.73122e-06 -4.02932e-06 0)
(1.7425e-06 -4.04442e-06 0)
(1.75492e-06 -4.06051e-06 0)
(1.76884e-06 -4.07794e-06 0)
(1.78454e-06 -4.09691e-06 0)
(1.80198e-06 -4.11722e-06 0)
(1.82045e-06 -4.13794e-06 0)
(1.83832e-06 -4.15719e-06 0)
(1.85322e-06 -4.17252e-06 0)
(1.86329e-06 -4.18231e-06 0)
(1.86844e-06 -4.18697e-06 0)
(1.87035e-06 -4.18848e-06 0)
(1.87094e-06 -4.18879e-06 0)
(1.87131e-06 -4.18878e-06 0)
(1.87195e-06 -4.18832e-06 0)
(1.88884e-06 -4.16528e-06 0)
(2.08763e-06 -3.99861e-06 0)
(0.107057 0.00220131 0)
(0.22644 0.00262755 0)
(0.329274 0.00319012 0)
(0.418657 0.00361053 0)
(0.497608 0.00397325 0)
(0.568242 0.00429471 0)
(0.632078 0.00461647 0)
(0.690342 0.00489009 0)
(0.743728 0.00517545 0)
(0.792867 0.00546207 0)
(0.838289 0.00574984 0)
(0.880435 0.00604117 0)
(0.919672 0.00633862 0)
(0.956309 0.00664404 0)
(0.990605 0.00695875 0)
(1.02278 0.00728354 0)
(1.05303 0.0076189 0)
(1.08152 0.00796501 0)
(1.10838 0.00832175 0)
(1.13373 0.00868879 0)
(1.15768 0.00906558 0)
(1.18032 0.00945138 0)
(1.20171 0.00984528 0)
(1.22192 0.0102462 0)
(1.24099 0.0106528 0)
(1.25895 0.0110636 0)
(1.27584 0.0114768 0)
(1.29166 0.0118901 0)
(1.30642 0.012301 0)
(1.32013 0.0127063 0)
(1.33278 0.0131022 0)
(1.34436 0.0134841 0)
(1.35487 0.0138467 0)
(1.36433 0.0141842 0)
(1.37273 0.0144899 0)
(1.38011 0.0147558 0)
(1.38652 0.0149701 0)
(1.39201 0.015116 0)
(1.39665 0.0151741 0)
(1.40055 0.0151303 0)
(1.40379 0.0149832 0)
(1.40649 0.0147469 0)
(1.40872 0.0144453 0)
(1.41057 0.0141049 0)
(1.4121 0.0137487 0)
(1.41337 0.0133934 0)
(1.41443 0.01305 0)
(1.41529 0.0127246 0)
(1.416 0.0124203 0)
(1.41657 0.0121383 0)
(1.41703 0.0118785 0)
(1.4174 0.0116403 0)
(1.41768 0.0114228 0)
(1.41789 0.0112247 0)
(1.41804 0.011045 0)
(1.41814 0.0108825 0)
(1.41819 0.0107346 0)
(1.41822 0.0105995 0)
(1.41821 0.0104771 0)
(1.41817 0.0103669 0)
(1.4181 0.0102688 0)
(1.418 0.0101824 0)
(1.41789 0.0101072 0)
(1.41775 0.0100429 0)
(1.4176 0.00998892 0)
(1.41743 0.00994456 0)
(1.41725 0.00990914 0)
(1.41706 0.00988184 0)
(1.41686 0.00986178 0)
(1.41665 0.00984803 0)
(1.41644 0.00983955 0)
(1.41622 0.00983535 0)
(1.416 0.00983444 0)
(1.41578 0.00983589 0)
(1.41556 0.00983884 0)
(1.41534 0.0098425 0)
(1.41513 0.0098463 0)
(1.41492 0.00984967 0)
(1.41471 0.00985213 0)
(1.4145 0.00985331 0)
(1.4143 0.00985289 0)
(1.41411 0.00985061 0)
(1.41392 0.00984616 0)
(1.41375 0.00983942 0)
(1.41358 0.00983014 0)
(1.41342 0.00981842 0)
(1.41327 0.00980368 0)
(1.41314 0.00978667 0)
(1.41304 0.00976787 0)
(1.41295 0.00974281 0)
(1.41291 0.00971472 0)
(1.41289 0.00968562 0)
(1.41248 0.00856019 0)
(1.41032 0.00895522 0)
(1.40791 0.00874548 0)
(1.40553 0.00857914 0)
(1.40313 0.0084736 0)
(1.40068 0.00767661 0)
(1.39828 0.00977956 0)
(1.39559 0.00313674 0)
(1.39376 0.0156003 0)
(1.39077 -0.00743017 0)
(1.38929 -0.0382103 0)
(1.38674 -0.0396734 0)
(1.38445 -0.0395917 0)
(1.3822 -0.0395963 0)
(1.38001 -0.039596 0)
(1.37791 -0.0395953 0)
(1.37591 -0.0395942 0)
(1.37402 -0.0395925 0)
(1.37228 -0.0395903 0)
(1.37069 -0.0395874 0)
(1.3693 -0.039584 0)
(1.36811 -0.0395799 0)
(1.36716 -0.0395753 0)
(1.36646 -0.03957 0)
(1.36604 -0.0395647 0)
(1.3659 -0.0395596 0)
(1.36599 -0.0395533 0)
(1.3663 -0.039546 0)
(1.3666 -0.0395368 0)
(1.36668 -0.0395308 0)
(1.36668 -0.0395294 0)
(1.36668 -0.0395294 0)
(1.36668 -0.0395294 0)
(1.36668 -0.0395294 0)
(1.36668 -0.0395294 0)
(1.36668 -0.0395294 0)
(1.36668 -0.0395294 0)
(1.36668 -0.0395294 0)
(1.36668 -0.0395294 0)
(1.36668 -0.0395294 0)
(1.36668 -0.0395294 0)
(1.36668 -0.0395294 0)
(1.36668 -0.0395294 0)
(1.36668 -0.0395294 0)
(1.36668 -0.0395294 0)
(1.36668 -0.0395294 0)
(1.36668 -0.0395294 0)
(1.36668 -0.0395294 0)
(1.36668 -0.0395294 0)
(1.36668 -0.0395294 0)
(1.36668 -0.0395294 0)
(1.36668 -0.0395294 0)
(1.36668 -0.0395294 0)
(1.36668 -0.0395294 0)
(1.36668 -0.0395294 0)
(1.36668 -0.0395294 0)
(1.36668 -0.0395294 0)
(1.36668 -0.0395294 0)
(1.36668 -0.0395294 0)
(1.36668 -0.0395294 0)
(1.36668 -0.0395294 0)
(1.36668 -0.0395294 0)
(1.36668 -0.0395294 0)
(1.36668 -0.0395294 0)
(1.36668 -0.0395294 0)
(1.36668 -0.0395294 0)
(1.36668 -0.0395294 0)
(1.36668 -0.0395294 0)
(1.36668 -0.0395294 0)
(1.36668 -0.0395294 0)
(1.36668 -0.0395294 0)
(1.36668 -0.0395294 0)
(1.36668 -0.0395294 0)
(1.36668 -0.0395294 0)
(1.36668 -0.0395294 0)
(1.36668 -0.0395294 0)
(1.36668 -0.0395294 0)
(1.36668 -0.0395294 0)
(1.36668 -0.0395294 0)
(1.36668 -0.0395294 0)
(1.36668 -0.0395294 0)
(1.36668 -0.0395294 0)
(1.36668 -0.0395294 0)
(1.36668 -0.0395294 0)
(1.36668 -0.0395294 0)
(1.36668 -0.0395294 0)
(1.36668 -0.0395294 0)
(1.36668 -0.0395294 0)
(1.36668 -0.0395294 0)
(1.36668 -0.0395294 0)
(1.36668 -0.0395294 0)
(1.36668 -0.0395294 0)
(1.36668 -0.0395294 0)
(1.36668 -0.0395294 0)
(1.36668 -0.0395294 0)
(1.36668 -0.0395294 0)
(1.36668 -0.0395294 0)
(1.36668 -0.0395294 0)
(1.36668 -0.0395294 0)
(1.36668 -0.0395294 0)
(1.36668 -0.0395294 0)
(1.36668 -0.0395294 0)
(1.36668 -0.0395294 0)
(1.36668 -0.0395294 0)
(1.36668 -0.0395294 0)
(1.36668 -0.0395294 0)
(1.36668 -0.0395294 0)
(1.36668 -0.0395294 0)
(1.36668 -0.0395294 0)
(1.36668 -0.0395294 0)
(1.36668 -0.0395294 0)
(1.36668 -0.0395294 0)
(1.36668 -0.0395294 0)
(1.36668 -0.0395294 0)
(1.36668 -0.0395294 0)
(1.36668 -0.0395294 0)
(1.36668 -0.0395294 0)
(1.36668 -0.0395294 0)
(1.36668 -0.0395294 0)
(1.36668 -0.0395292 0)
(1.36668 -0.0395207 0)
(1.36666 -0.0391756 0)
(1.36623 -0.0224587 0)
)
;

boundaryField
{
    inandouthalf11
    {
        type            cyclic;
    }
    inandouthalf12
    {
        type            cyclic;
    }
    inandouthalf21
    {
        type            cyclic;
    }
    inandouthalf22
    {
        type            cyclic;
    }
    inandouthalf31
    {
        type            cyclic;
    }
    inandouthalf32
    {
        type            cyclic;
    }
    inandouthalf41
    {
        type            cyclic;
    }
    inandouthalf42
    {
        type            cyclic;
    }
    top
    {
        type            symmetryPlane;
    }
    walls
    {
        type            fixedValue;
        value           uniform (0 0 0);
    }
    frontAndBackPlanes
    {
        type            empty;
    }
}


// ************************************************************************* //
