/*--------------------------------*- C++ -*----------------------------------*\
| =========                 |                                                 |
| \\      /  F ield         | OpenFOAM: The Open Source CFD Toolbox           |
|  \\    /   O peration     | Version:  2.4.x                                 |
|   \\  /    A nd           | Web:      www.OpenFOAM.org                      |
|    \\/     M anipulation  |                                                 |
\*---------------------------------------------------------------------------*/
FoamFile
{
    version     2.0;
    format      ascii;
    class       volVectorField;
    location    "8.7";
    object      Ub;
}
// * * * * * * * * * * * * * * * * * * * * * * * * * * * * * * * * * * * * * //

dimensions      [0 1 -1 0 0 0 0];

internalField   nonuniform List<vector> 
360
(
(0.000136148 1.98079e-08 0)
(0.00013542 7.05554e-08 0)
(0.000135328 1.30592e-07 0)
(0.000135442 1.87888e-07 0)
(0.000135505 2.45816e-07 0)
(0.000135536 3.06033e-07 0)
(0.000135571 3.67853e-07 0)
(0.000135612 4.30588e-07 0)
(0.000135653 4.94065e-07 0)
(0.000135696 5.58319e-07 0)
(0.000135739 6.23392e-07 0)
(0.000135782 6.89255e-07 0)
(0.000135825 7.55849e-07 0)
(0.000135869 8.23106e-07 0)
(0.000135914 8.9096e-07 0)
(0.000135959 9.59351e-07 0)
(0.000136004 1.02822e-06 0)
(0.00013605 1.09751e-06 0)
(0.000136096 1.16712e-06 0)
(0.000136143 1.23701e-06 0)
(0.00013619 1.30708e-06 0)
(0.000136237 1.37725e-06 0)
(0.000136284 1.44746e-06 0)
(0.000136332 1.51764e-06 0)
(0.000136381 1.5877e-06 0)
(0.000136429 1.6576e-06 0)
(0.000136478 1.72724e-06 0)
(0.000136527 1.79659e-06 0)
(0.000136576 1.86559e-06 0)
(0.000136625 1.93417e-06 0)
(0.000136675 2.0023e-06 0)
(0.000136725 2.06994e-06 0)
(0.000136775 2.13703e-06 0)
(0.000136825 2.20357e-06 0)
(0.000136875 2.26951e-06 0)
(0.000136926 2.33483e-06 0)
(0.000136977 2.39952e-06 0)
(0.000137028 2.46356e-06 0)
(0.00013708 2.52696e-06 0)
(0.000137131 2.58968e-06 0)
(0.000137183 2.65176e-06 0)
(0.000137235 2.71318e-06 0)
(0.000137287 2.77394e-06 0)
(0.00013734 2.83406e-06 0)
(0.000137392 2.89356e-06 0)
(0.000137445 2.95243e-06 0)
(0.000137499 3.0107e-06 0)
(0.000137552 3.06837e-06 0)
(0.000137606 3.12545e-06 0)
(0.000137661 3.18198e-06 0)
(0.000137715 3.23796e-06 0)
(0.00013777 3.29342e-06 0)
(0.000137825 3.34836e-06 0)
(0.000137881 3.40281e-06 0)
(0.000137937 3.45676e-06 0)
(0.000137994 3.51026e-06 0)
(0.00013805 3.56329e-06 0)
(0.000138108 3.61588e-06 0)
(0.000138166 3.66803e-06 0)
(0.000138224 3.71973e-06 0)
(0.000138283 3.77103e-06 0)
(0.000138342 3.8219e-06 0)
(0.000138402 3.87239e-06 0)
(0.000138463 3.92249e-06 0)
(0.000138524 3.9722e-06 0)
(0.000138585 4.02152e-06 0)
(0.000138647 4.07046e-06 0)
(0.00013871 4.119e-06 0)
(0.000138773 4.16716e-06 0)
(0.000138837 4.2149e-06 0)
(0.000138902 4.26225e-06 0)
(0.000138968 4.30922e-06 0)
(0.000139033 4.35578e-06 0)
(0.0001391 4.40195e-06 0)
(0.000139168 4.44772e-06 0)
(0.000139236 4.49311e-06 0)
(0.000139305 4.53808e-06 0)
(0.000139375 4.58263e-06 0)
(0.000139445 4.62674e-06 0)
(0.000139517 4.6704e-06 0)
(0.000139589 4.71361e-06 0)
(0.000139662 4.75636e-06 0)
(0.000139737 4.79864e-06 0)
(0.000139812 4.84046e-06 0)
(0.000139888 4.88181e-06 0)
(0.000139965 4.92269e-06 0)
(0.000140044 4.96309e-06 0)
(0.000140123 5.003e-06 0)
(0.000140203 5.04239e-06 0)
(0.000140285 5.08127e-06 0)
(0.000140368 5.1196e-06 0)
(0.000140452 5.15739e-06 0)
(0.000140537 5.19462e-06 0)
(0.000140624 5.2313e-06 0)
(0.000140712 5.26742e-06 0)
(0.000140801 5.30297e-06 0)
(0.000140892 5.33796e-06 0)
(0.000140985 5.37237e-06 0)
(0.000141079 5.40619e-06 0)
(0.000141175 5.43942e-06 0)
(0.000141273 5.47204e-06 0)
(0.000141372 5.50406e-06 0)
(0.000141474 5.53546e-06 0)
(0.000141577 5.56624e-06 0)
(0.000141683 5.5964e-06 0)
(0.00014179 5.62596e-06 0)
(0.0001419 5.65492e-06 0)
(0.000142012 5.68329e-06 0)
(0.000142127 5.71111e-06 0)
(0.000142245 5.73838e-06 0)
(0.000142365 5.76515e-06 0)
(0.000142488 5.79145e-06 0)
(0.000142614 5.81731e-06 0)
(0.000142743 5.84277e-06 0)
(0.000142875 5.86786e-06 0)
(0.000143011 5.89258e-06 0)
(0.000143151 5.91695e-06 0)
(0.000143294 5.94094e-06 0)
(0.000143442 5.96451e-06 0)
(0.000143594 5.9876e-06 0)
(0.00014375 6.01012e-06 0)
(0.000143911 6.03198e-06 0)
(0.000144077 6.05309e-06 0)
(0.000144247 6.07341e-06 0)
(0.000144424 6.09292e-06 0)
(0.000144606 6.11171e-06 0)
(0.000144795 6.12996e-06 0)
(0.000144992 6.14798e-06 0)
(0.000145196 6.16617e-06 0)
(0.00014541 6.18508e-06 0)
(0.000145633 6.20526e-06 0)
(0.000145867 6.22721e-06 0)
(0.000146114 6.25108e-06 0)
(0.000146374 6.27641e-06 0)
(0.000146651 6.30166e-06 0)
(0.000146942 6.32409e-06 0)
(0.000147244 6.34044e-06 0)
(0.00014756 6.34852e-06 0)
(0.000147904 6.34863e-06 0)
(0.000148297 6.34435e-06 0)
(0.000148723 6.14715e-06 0)
(0.000149136 8.89026e-06 0)
(0.000149646 -5.25489e-06 0)
(0.000163203 5.1713e-05 0)
(0.00372395 -0.000151906 0)
(0.119699 -0.00115607 0)
(0.238023 -0.00112678 0)
(0.339353 -0.00115261 0)
(0.427721 -0.00115242 0)
(0.505996 -0.00113603 0)
(0.576167 -0.00110731 0)
(0.639667 -0.00107004 0)
(0.697511 -0.00102282 0)
(0.750517 -0.000972434 0)
(0.799333 -0.000919922 0)
(0.844485 -0.000866272 0)
(0.88641 -0.000812389 0)
(0.925471 -0.000758978 0)
(0.961976 -0.000706546 0)
(0.996183 -0.000655455 0)
(1.02832 -0.000605961 0)
(1.05857 -0.000558252 0)
(1.08709 -0.000512459 0)
(1.11405 -0.000468666 0)
(1.13955 -0.000426926 0)
(1.1637 -0.000387277 0)
(1.1866 -0.000349739 0)
(1.20833 -0.000314322 0)
(1.22896 -0.000281031 0)
(1.24855 -0.000249866 0)
(1.26714 -0.000220821 0)
(1.28479 -0.000193887 0)
(1.30153 -0.000169051 0)
(1.31739 -0.00014629 0)
(1.33238 -0.000125575 0)
(1.34653 -0.000106868 0)
(1.35984 -9.01182e-05 0)
(1.37232 -7.52627e-05 0)
(1.38396 -6.22251e-05 0)
(1.39476 -5.09102e-05 0)
(1.40471 -4.11983e-05 0)
(1.4138 -3.29449e-05 0)
(1.42201 -2.59976e-05 0)
(1.42936 -2.02225e-05 0)
(1.43584 -1.55174e-05 0)
(1.44148 -1.17938e-05 0)
(1.44631 -8.94396e-06 0)
(1.4504 -6.82726e-06 0)
(1.4538 -5.28423e-06 0)
(1.45659 -4.16412e-06 0)
(1.45886 -3.34405e-06 0)
(1.46067 -2.73372e-06 0)
(1.4621 -2.27055e-06 0)
(1.46321 -1.91211e-06 0)
(1.46405 -1.62965e-06 0)
(1.46467 -1.40336e-06 0)
(1.46509 -1.2194e-06 0)
(1.46536 -1.06788e-06 0)
(1.46549 -9.41627e-07 0)
(1.4655 -8.35316e-07 0)
(1.46542 -7.44955e-07 0)
(1.46524 -6.6672e-07 0)
(1.46498 -5.97971e-07 0)
(1.46463 -5.37263e-07 0)
(1.46422 -4.83399e-07 0)
(1.46373 -4.35384e-07 0)
(1.46316 -3.92389e-07 0)
(1.46254 -3.53717e-07 0)
(1.46184 -3.18779e-07 0)
(1.46108 -2.87073e-07 0)
(1.46026 -2.58181e-07 0)
(1.45937 -2.31754e-07 0)
(1.45843 -2.07513e-07 0)
(1.45742 -1.85232e-07 0)
(1.45635 -1.64725e-07 0)
(1.45522 -1.45855e-07 0)
(1.45403 -1.2853e-07 0)
(1.45278 -1.12679e-07 0)
(1.45147 -9.82413e-08 0)
(1.4501 -8.51675e-08 0)
(1.44867 -7.34165e-08 0)
(1.44719 -6.29324e-08 0)
(1.44565 -5.36409e-08 0)
(1.44405 -4.54652e-08 0)
(1.4424 -3.8325e-08 0)
(1.44069 -3.21312e-08 0)
(1.43892 -2.67917e-08 0)
(1.43711 -2.22181e-08 0)
(1.43524 -1.83254e-08 0)
(1.43331 -1.50313e-08 0)
(1.43134 -1.22566e-08 0)
(1.42932 -9.93724e-09 0)
(1.42725 -8.0108e-09 0)
(1.42514 -6.38853e-09 0)
(1.42298 -5.05451e-09 0)
(1.42078 -4.03575e-09 0)
(1.41854 -3.14916e-09 0)
(1.41627 -2.31525e-09 0)
(1.41396 -1.66058e-09 0)
(1.41162 -1.17862e-09 0)
(1.40926 -8.21233e-10 0)
(1.40688 -5.55335e-10 0)
(1.40448 -3.63276e-10 0)
(1.40207 -2.17827e-10 0)
(1.39965 -1.19124e-10 0)
(1.39724 -5.51579e-11 0)
(1.39484 -3.66769e-12 0)
(1.39245 9.16472e-12 0)
(1.39009 2.20123e-12 0)
(1.38777 9.08703e-13 0)
(1.3855 1.15332e-12 0)
(1.38329 1.26704e-12 0)
(1.38116 1.21131e-12 0)
(1.37913 1.1421e-12 0)
(1.37721 1.08969e-12 0)
(1.37543 9.83903e-13 0)
(1.3738 7.21053e-13 0)
(1.37236 7.78262e-13 0)
(1.37112 7.07894e-12 0)
(1.37011 -2.20774e-11 0)
(1.36936 5.38573e-11 0)
(1.36888 -9.83921e-11 0)
(1.36867 1.61657e-10 0)
(1.36873 -2.37846e-10 0)
(1.36899 3.29212e-10 0)
(1.36933 -4.28258e-10 0)
(1.36943 5.35063e-10 0)
(1.36944 -6.43715e-10 0)
(1.36944 7.56403e-10 0)
(1.36944 -8.70172e-10 0)
(1.36944 9.87742e-10 0)
(1.36944 -1.10687e-09 0)
(1.36944 1.22979e-09 0)
(1.36944 -1.3547e-09 0)
(1.36944 1.48339e-09 0)
(1.36944 -1.61446e-09 0)
(1.36944 1.74931e-09 0)
(1.36944 -1.88686e-09 0)
(1.36944 2.02819e-09 0)
(1.36944 -2.17252e-09 0)
(1.36944 2.32063e-09 0)
(1.36944 -2.472e-09 0)
(1.36944 2.62712e-09 0)
(1.36944 -2.78576e-09 0)
(1.36944 2.94813e-09 0)
(1.36944 -3.11423e-09 0)
(1.36944 3.28405e-09 0)
(1.36944 -3.45775e-09 0)
(1.36944 3.63519e-09 0)
(1.36944 -3.81663e-09 0)
(1.36944 4.00181e-09 0)
(1.36944 -4.19108e-09 0)
(1.36944 4.38414e-09 0)
(1.36944 -4.58131e-09 0)
(1.36944 4.78233e-09 0)
(1.36944 -4.98745e-09 0)
(1.36944 5.1965e-09 0)
(1.36944 -5.4096e-09 0)
(1.36944 5.62666e-09 0)
(1.36944 -5.84782e-09 0)
(1.36944 6.07286e-09 0)
(1.36944 -6.30203e-09 0)
(1.36944 6.53501e-09 0)
(1.36944 -6.77213e-09 0)
(1.36944 7.01297e-09 0)
(1.36944 -7.25791e-09 0)
(1.36944 7.50645e-09 0)
(1.36944 -7.75906e-09 0)
(1.36944 8.01512e-09 0)
(1.36944 -8.27514e-09 0)
(1.36944 7.49666e-09 0)
(1.36944 -7.59038e-09 0)
(1.36944 7.68277e-09 0)
(1.36944 -7.77447e-09 0)
(1.36944 7.8648e-09 0)
(1.36944 -7.95448e-09 0)
(1.36944 8.04272e-09 0)
(1.36944 -8.13032e-09 0)
(1.36944 8.21644e-09 0)
(1.36944 -8.3019e-09 0)
(1.36944 8.38586e-09 0)
(1.36944 -8.46916e-09 0)
(1.36944 8.55089e-09 0)
(1.36944 -8.63197e-09 0)
(1.36944 8.71144e-09 0)
(1.36944 -8.79024e-09 0)
(1.36944 8.86738e-09 0)
(1.36944 -8.94382e-09 0)
(1.36944 9.01853e-09 0)
(1.36944 -9.09293e-09 0)
(1.36944 9.16455e-09 0)
(1.36944 -9.23716e-09 0)
(1.36944 9.30565e-09 0)
(1.36944 -9.37632e-09 0)
(1.36944 9.4416e-09 0)
(1.36944 -9.51014e-09 0)
(1.36944 9.57224e-09 0)
(1.36944 -9.63853e-09 0)
(1.36944 9.69723e-09 0)
(1.36944 -9.76113e-09 0)
(1.36944 9.81647e-09 0)
(1.36944 -9.87768e-09 0)
(1.36944 9.92957e-09 0)
(1.36944 -9.98779e-09 0)
(1.36944 1.00362e-08 0)
(1.36944 -1.00914e-08 0)
(1.36944 1.01356e-08 0)
(1.36944 -1.01878e-08 0)
(1.36944 1.02276e-08 0)
(1.36944 -1.02765e-08 0)
(1.36944 1.03116e-08 0)
(1.36944 -1.03565e-08 0)
(1.36944 1.03864e-08 0)
(1.36944 -1.04273e-08 0)
(1.36944 1.04507e-08 0)
(1.36944 -1.0487e-08 0)
(1.36944 1.05029e-08 0)
(1.36944 -1.05329e-08 0)
(1.36944 1.05384e-08 0)
(1.36944 -1.05558e-08 0)
)
;

boundaryField
{
    inandouthalf11
    {
        type            cyclic;
    }
    inandouthalf12
    {
        type            cyclic;
    }
    inandouthalf21
    {
        type            cyclic;
    }
    inandouthalf22
    {
        type            cyclic;
    }
    inandouthalf31
    {
        type            cyclic;
    }
    inandouthalf32
    {
        type            cyclic;
    }
    inandouthalf41
    {
        type            cyclic;
    }
    inandouthalf42
    {
        type            cyclic;
    }
    top
    {
        type            symmetryPlane;
    }
    walls
    {
        type            fixedValue;
        value           uniform (0 0 0);
    }
    frontAndBackPlanes
    {
        type            empty;
    }
}


// ************************************************************************* //
