/*--------------------------------*- C++ -*----------------------------------*\
| =========                 |                                                 |
| \\      /  F ield         | OpenFOAM: The Open Source CFD Toolbox           |
|  \\    /   O peration     | Version:  2.4.x                                 |
|   \\  /    A nd           | Web:      www.OpenFOAM.org                      |
|    \\/     M anipulation  |                                                 |
\*---------------------------------------------------------------------------*/
FoamFile
{
    version     2.0;
    format      ascii;
    class       volScalarField;
    location    "6";
    object      alpha_0;
}
// * * * * * * * * * * * * * * * * * * * * * * * * * * * * * * * * * * * * * //

dimensions      [0 0 0 0 0 0 0];

internalField   nonuniform List<scalar> 
360
(
0.610667
0.611411
0.61153
0.611457
0.611408
0.611388
0.611368
0.611345
0.611322
0.611298
0.611273
0.611249
0.611224
0.611199
0.611174
0.611148
0.611123
0.611097
0.611071
0.611044
0.611018
0.610991
0.610964
0.610937
0.610909
0.610881
0.610853
0.610825
0.610797
0.610768
0.610739
0.610709
0.61068
0.61065
0.61062
0.610589
0.610558
0.610526
0.610494
0.610463
0.61043
0.610398
0.610365
0.610333
0.6103
0.610268
0.610235
0.610203
0.61017
0.610136
0.610102
0.610066
0.610028
0.609987
0.609944
0.609896
0.609845
0.609793
0.609744
0.6097
0.609662
0.60963
0.6096
0.609572
0.609543
0.609514
0.609484
0.609453
0.609421
0.609388
0.609353
0.609317
0.609281
0.609242
0.609203
0.609163
0.609122
0.60908
0.609038
0.608994
0.608949
0.608903
0.608856
0.608808
0.608758
0.608707
0.608655
0.608602
0.608548
0.608493
0.608436
0.608379
0.608319
0.608259
0.608197
0.608134
0.608069
0.608003
0.607935
0.607865
0.607794
0.607721
0.607647
0.607571
0.607492
0.607412
0.60733
0.607245
0.607159
0.60707
0.606979
0.606885
0.606789
0.606689
0.606587
0.606482
0.606374
0.606263
0.606148
0.60603
0.605908
0.605782
0.605652
0.605518
0.605379
0.605235
0.605087
0.604932
0.604772
0.604606
0.604432
0.604252
0.604063
0.603865
0.603654
0.603431
0.603197
0.602949
0.602674
0.602358
0.602017
0.601692
0.601303
0.600799
0.600175
0.599042
0.595408
0.590797
0.356572
0.233354
0.179943
0.14183
0.111788
0.08782
0.0689309
0.0542465
0.0429255
0.0342173
0.0275024
0.0222949
0.0182261
0.01502
0.0124714
0.010428
0.0087758
0.00742935
0.00632386
0.00540989
0.00464934
0.00401265
0.00347667
0.00302311
0.00263745
0.00230805
0.00202551
0.00178223
0.00157198
0.00138965
0.00123103
0.0010926
0.000971465
0.000865163
0.000771643
0.000689167
0.000616264
0.000551681
0.000494348
0.000443346
0.000397884
0.00035727
0.000320902
0.000288246
0.000258837
0.000232272
0.000208199
0.000186319
0.000166393
0.000148253
0.000131787
0.00011691
0.000103487
9.12111e-05
7.98925e-05
6.9475e-05
5.98884e-05
5.1183e-05
4.34261e-05
3.65888e-05
3.06533e-05
2.55816e-05
2.12803e-05
1.76718e-05
1.46494e-05
1.21263e-05
1.00468e-05
8.31624e-06
6.87675e-06
5.69214e-06
4.70717e-06
3.88757e-06
3.2045e-06
2.64013e-06
2.17259e-06
1.78004e-06
1.4571e-06
1.18993e-06
9.67348e-07
7.83352e-07
6.31635e-07
5.05606e-07
4.03502e-07
3.1649e-07
2.51566e-07
1.92604e-07
1.53673e-07
1.03011e-07
1.42011e-07
8.97026e-08
3.60018e-08
1.30067e-08
0
2.44771e-26
5.85907e-27
4.35394e-27
3.57976e-27
3.09048e-27
2.60149e-27
2.00449e-27
1.26452e-27
5.38228e-28
2.33565e-28
1.21412e-28
7.23878e-29
4.83024e-29
3.54201e-29
2.61555e-29
1.66508e-29
7.37808e-30
3.34941e-30
1.75778e-30
1.00193e-30
6.11737e-31
3.68623e-31
1.80478e-31
8.65334e-32
4.45267e-32
2.33061e-32
1.19006e-32
5.87609e-33
2.89509e-33
1.40122e-33
6.65597e-34
3.10093e-34
1.41596e-34
6.3325e-35
2.77161e-35
1.18623e-35
4.96037e-36
2.02475e-36
8.05965e-37
3.12536e-37
1.17935e-37
4.32539e-38
1.53991e-38
5.31439e-39
1.77524e-39
5.73068e-40
1.7846e-40
5.35092e-41
1.54157e-41
4.25738e-42
1.12424e-42
2.83063e-43
6.77386e-44
1.53521e-44
3.28183e-45
6.58667e-46
1.23449e-46
2.14712e-47
3.43987e-48
5.03098e-49
6.64369e-50
7.81268e-51
8.03583e-52
7.05641e-53
5.11067e-54
2.89479e-55
1.16842e-56
2.73212e-58
1.37095e-60
2.39666e-64
2.65709e-66
1.46187e-68
4.52613e-79
6.9246e-90
7.36282e-101
5.72092e-112
3.63963e-123
1.83556e-134
7.81118e-146
1.65254e-155
6.2431e-166
5.63648e-174
1.89343e-184
1.93884e-192
7.58049e-203
6.67007e-211
3.20876e-221
2.29657e-229
2.03831e-239
8.00245e-248
1.33014e-257
2.83781e-266
6.5827e-276
1.02336e-284
3.11522e-294
3.74622e-303
1.368e-312
4.4122e-319
2.8055e-319
6.80328e-321
7.09478e-321
6.08689e-321
8.5424e-321
0
0
0
0
0
0
0
0
0
0
0
0
0
0
0
0
)
;

boundaryField
{
    inandouthalf11
    {
        type            cyclic;
    }
    inandouthalf12
    {
        type            cyclic;
    }
    inandouthalf21
    {
        type            cyclic;
    }
    inandouthalf22
    {
        type            cyclic;
    }
    inandouthalf31
    {
        type            cyclic;
    }
    inandouthalf32
    {
        type            cyclic;
    }
    inandouthalf41
    {
        type            cyclic;
    }
    inandouthalf42
    {
        type            cyclic;
    }
    top
    {
        type            symmetryPlane;
    }
    walls
    {
        type            zeroGradient;
    }
    frontAndBackPlanes
    {
        type            empty;
    }
}


// ************************************************************************* //
