/*--------------------------------*- C++ -*----------------------------------*\
| =========                 |                                                 |
| \\      /  F ield         | OpenFOAM: The Open Source CFD Toolbox           |
|  \\    /   O peration     | Version:  2.4.x                                 |
|   \\  /    A nd           | Web:      www.OpenFOAM.org                      |
|    \\/     M anipulation  |                                                 |
\*---------------------------------------------------------------------------*/
FoamFile
{
    version     2.0;
    format      ascii;
    class       volScalarField;
    location    "6";
    object      alpha;
}
// * * * * * * * * * * * * * * * * * * * * * * * * * * * * * * * * * * * * * //

dimensions      [0 0 0 0 0 0 0];

internalField   nonuniform List<scalar> 
360
(
0.610667
0.611411
0.61153
0.611457
0.611408
0.611388
0.611368
0.611345
0.611322
0.611298
0.611273
0.611249
0.611224
0.611199
0.611174
0.611148
0.611123
0.611097
0.611071
0.611044
0.611018
0.610991
0.610964
0.610937
0.610909
0.610881
0.610853
0.610825
0.610797
0.610768
0.610739
0.610709
0.61068
0.61065
0.61062
0.610589
0.610558
0.610526
0.610494
0.610463
0.61043
0.610398
0.610365
0.610333
0.6103
0.610268
0.610235
0.610203
0.61017
0.610136
0.610102
0.610066
0.610028
0.609987
0.609944
0.609896
0.609845
0.609793
0.609744
0.6097
0.609662
0.60963
0.6096
0.609572
0.609543
0.609514
0.609484
0.609453
0.609421
0.609388
0.609353
0.609317
0.609281
0.609242
0.609203
0.609163
0.609122
0.60908
0.609038
0.608994
0.608949
0.608903
0.608856
0.608808
0.608758
0.608707
0.608655
0.608602
0.608548
0.608493
0.608436
0.608379
0.608319
0.608259
0.608197
0.608134
0.608069
0.608003
0.607935
0.607865
0.607794
0.607721
0.607647
0.607571
0.607492
0.607412
0.60733
0.607245
0.607159
0.60707
0.606979
0.606885
0.606789
0.606689
0.606587
0.606482
0.606374
0.606263
0.606148
0.60603
0.605908
0.605782
0.605652
0.605518
0.605379
0.605235
0.605087
0.604932
0.604772
0.604606
0.604432
0.604252
0.604063
0.603865
0.603654
0.603431
0.603197
0.602949
0.602674
0.602358
0.602017
0.601692
0.601303
0.600799
0.600175
0.599042
0.595408
0.590799
0.35659
0.233358
0.179943
0.141828
0.111786
0.087817
0.068928
0.0542439
0.0429231
0.0342153
0.0275007
0.0222935
0.0182249
0.015019
0.0124706
0.0104273
0.00877526
0.00742891
0.0063235
0.00540959
0.0046491
0.00401245
0.00347651
0.00302298
0.00263735
0.00230796
0.00202545
0.00178218
0.00157194
0.00138962
0.00123101
0.00109259
0.000971457
0.00086516
0.000771643
0.000689171
0.00061627
0.000551689
0.000494358
0.000443358
0.000397897
0.000357284
0.000320916
0.000288261
0.000258853
0.000232289
0.000208216
0.000186336
0.00016641
0.000148271
0.000131805
0.000116928
0.000103504
9.12279e-05
7.99086e-05
6.94905e-05
5.9903e-05
5.11966e-05
4.34383e-05
3.65997e-05
3.06628e-05
2.55896e-05
2.12871e-05
1.76774e-05
1.46541e-05
1.21302e-05
1.00499e-05
8.3188e-06
6.87884e-06
5.69383e-06
4.70855e-06
3.8887e-06
3.20542e-06
2.64087e-06
2.1732e-06
1.78053e-06
1.4575e-06
1.19025e-06
9.67607e-07
7.8356e-07
6.31803e-07
5.05741e-07
4.03611e-07
3.16575e-07
2.51633e-07
1.92657e-07
1.53719e-07
1.03041e-07
1.42036e-07
8.97276e-08
3.60101e-08
1.30335e-08
0
2.4392e-26
5.84465e-27
4.34671e-27
3.57584e-27
3.0875e-27
2.59825e-27
2.00058e-27
1.25995e-27
5.3545e-28
2.32607e-28
1.21015e-28
7.21991e-29
4.82064e-29
3.53638e-29
2.61088e-29
1.66016e-29
7.34733e-30
3.33811e-30
1.75264e-30
9.99344e-31
6.10339e-31
3.67682e-31
1.79863e-31
8.62741e-32
4.43987e-32
2.32409e-32
1.18661e-32
5.85905e-33
2.88668e-33
1.39714e-33
6.6365e-34
3.09183e-34
1.41179e-34
6.31379e-35
2.76339e-35
1.1827e-35
4.94558e-36
2.01869e-36
8.03545e-37
3.11595e-37
1.17578e-37
4.31227e-38
1.53522e-38
5.29816e-39
1.7698e-39
5.71306e-40
1.77909e-40
5.33435e-41
1.53678e-41
4.2441e-42
1.12072e-42
2.82174e-43
6.7525e-44
1.53035e-44
3.2714e-45
6.56566e-46
1.23054e-46
2.14022e-47
3.42877e-48
5.01468e-49
6.62207e-50
7.78714e-51
8.00944e-52
7.03313e-53
5.09373e-54
2.88514e-55
1.1645e-56
2.72289e-58
1.36623e-60
2.38783e-64
2.64721e-66
1.4564e-68
4.50939e-79
6.89934e-90
7.33632e-101
5.70061e-112
3.62688e-123
1.82921e-134
7.7845e-146
1.64636e-155
6.21995e-166
5.61535e-174
1.8864e-184
1.93158e-192
7.55228e-203
6.64507e-211
3.1968e-221
2.28796e-229
2.03069e-239
7.97246e-248
1.32517e-257
2.82718e-266
6.55809e-276
1.01953e-284
3.10357e-294
3.73219e-303
1.36289e-312
4.41225e-319
2.8055e-319
6.80328e-321
7.09478e-321
6.08689e-321
8.5424e-321
0
0
0
0
0
0
0
0
0
0
0
0
0
0
0
0
)
;

boundaryField
{
    inandouthalf11
    {
        type            cyclic;
    }
    inandouthalf12
    {
        type            cyclic;
    }
    inandouthalf21
    {
        type            cyclic;
    }
    inandouthalf22
    {
        type            cyclic;
    }
    inandouthalf31
    {
        type            cyclic;
    }
    inandouthalf32
    {
        type            cyclic;
    }
    inandouthalf41
    {
        type            cyclic;
    }
    inandouthalf42
    {
        type            cyclic;
    }
    top
    {
        type            symmetryPlane;
    }
    walls
    {
        type            zeroGradient;
    }
    frontAndBackPlanes
    {
        type            empty;
    }
}


// ************************************************************************* //
