/*--------------------------------*- C++ -*----------------------------------*\
| =========                 |                                                 |
| \\      /  F ield         | OpenFOAM: The Open Source CFD Toolbox           |
|  \\    /   O peration     | Version:  2.4.x                                 |
|   \\  /    A nd           | Web:      www.OpenFOAM.org                      |
|    \\/     M anipulation  |                                                 |
\*---------------------------------------------------------------------------*/
FoamFile
{
    version     2.0;
    format      ascii;
    class       surfaceScalarField;
    location    "6";
    object      ddt0(phia);
}
// * * * * * * * * * * * * * * * * * * * * * * * * * * * * * * * * * * * * * //

dimensions      [0 3 -2 0 0 0 0];

internalField   nonuniform List<scalar> 
359
(
1.53559e-13
4.32806e-13
6.93534e-13
9.33495e-13
1.17339e-12
1.42038e-12
1.67248e-12
1.92639e-12
2.18026e-12
2.43427e-12
2.68923e-12
2.94567e-12
3.20377e-12
3.46338e-12
3.72437e-12
3.98679e-12
4.2507e-12
4.51614e-12
4.783e-12
5.05116e-12
5.32016e-12
5.58976e-12
5.85954e-12
6.12914e-12
6.39835e-12
6.6672e-12
6.93612e-12
7.20626e-12
7.4792e-12
7.7571e-12
8.04251e-12
8.33827e-12
8.64628e-12
8.96793e-12
9.30171e-12
9.6436e-12
9.98539e-12
1.0315e-11
1.06164e-11
1.08713e-11
1.10633e-11
1.11811e-11
1.12244e-11
1.12077e-11
1.11616e-11
1.11334e-11
1.11845e-11
1.13901e-11
1.18406e-11
1.26478e-11
1.39494e-11
1.59145e-11
1.87142e-11
2.24267e-11
2.67909e-11
3.08416e-11
3.27133e-11
3.04102e-11
2.3632e-11
1.48105e-11
7.33387e-12
2.86607e-12
8.99009e-13
2.35336e-13
5.45079e-14
1.1989e-14
2.64216e-15
5.6197e-16
6.13469e-17
-7.42905e-17
-1.15911e-16
-1.29598e-16
-1.33396e-16
-1.32744e-16
-1.29306e-16
-1.23473e-16
-1.15191e-16
-1.043e-16
-9.07193e-17
-7.45516e-17
-5.61195e-17
-3.59304e-17
-1.46176e-17
7.1395e-18
2.86961e-17
4.94988e-17
6.91306e-17
8.73205e-17
1.03945e-16
1.19008e-16
1.32608e-16
1.44906e-16
1.56096e-16
1.66383e-16
1.7596e-16
1.85003e-16
1.93665e-16
2.02071e-16
2.10326e-16
2.18514e-16
2.26699e-16
2.3493e-16
2.43243e-16
2.51665e-16
2.60212e-16
2.68895e-16
2.77717e-16
2.86678e-16
2.95773e-16
3.04998e-16
3.14344e-16
3.23803e-16
3.33369e-16
3.43035e-16
3.52798e-16
3.62659e-16
3.72619e-16
3.82687e-16
3.92875e-16
4.03196e-16
4.13667e-16
4.24303e-16
4.35114e-16
4.46098e-16
4.5724e-16
4.68503e-16
4.79827e-16
4.91125e-16
5.02281e-16
5.13152e-16
5.23579e-16
5.33412e-16
5.42544e-16
5.50939e-16
5.58618e-16
5.65631e-16
5.72036e-16
5.77924e-16
5.83381e-16
5.8835e-16
5.92453e-16
5.9512e-16
5.96505e-16
5.97053e-16
5.97175e-16
5.96945e-16
5.99911e-16
1.67092e-10
-1.94193e-09
-2.99641e-09
-4.29894e-09
-5.15556e-09
-5.91129e-09
-6.59158e-09
-7.21241e-09
-7.78607e-09
-8.32307e-09
-8.82794e-09
-9.30574e-09
-9.75546e-09
-1.01763e-08
-1.05675e-08
-1.09283e-08
-1.1259e-08
-1.15601e-08
-1.18335e-08
-1.20813e-08
-1.23069e-08
-1.2514e-08
-1.27072e-08
-1.28912e-08
-1.30709e-08
-1.32512e-08
-1.34365e-08
-1.36309e-08
-1.38378e-08
-1.40598e-08
-1.42988e-08
-1.45559e-08
-1.48315e-08
-1.51251e-08
-1.54359e-08
-1.57621e-08
-1.61018e-08
-1.64526e-08
-1.68114e-08
-1.7175e-08
-1.75386e-08
-1.7896e-08
-1.82381e-08
-1.85519e-08
-1.88208e-08
-1.90247e-08
-1.91422e-08
-1.91515e-08
-1.9034e-08
-1.8781e-08
-1.83981e-08
-1.79054e-08
-1.73274e-08
-1.6671e-08
-1.59199e-08
-1.50818e-08
-1.4155e-08
-1.31491e-08
-1.21142e-08
-1.10904e-08
-1.01011e-08
-9.18025e-09
-8.34231e-09
-7.5909e-09
-6.92768e-09
-6.33835e-09
-5.82417e-09
-5.38043e-09
-4.98607e-09
-4.64313e-09
-4.34798e-09
-4.08742e-09
-3.85749e-09
-3.65531e-09
-3.48361e-09
-3.33066e-09
-3.19147e-09
-3.07366e-09
-2.96465e-09
-2.8578e-09
-2.75273e-09
-2.63706e-09
-2.50945e-09
-2.34781e-09
-2.15673e-09
-1.92956e-09
-1.65432e-09
-1.15673e-09
7.54295e-11
-1.85248e-08
-2.0599e-07
1.08459e-07
7.49991e-07
3.70183e-07
4.57563e-10
5.19972e-11
9.62288e-11
9.90168e-11
1.0173e-10
1.00943e-10
9.65475e-11
8.77612e-11
7.30501e-11
4.91597e-11
5.50924e-12
-4.6472e-11
-3.26984e-10
-1.84298e-10
3.51243e-12
7.25992e-12
6.53559e-12
6.41955e-12
6.40332e-12
6.42286e-12
6.40292e-12
6.42328e-12
6.40279e-12
6.42362e-12
6.4026e-12
6.42395e-12
6.40236e-12
6.42426e-12
6.40217e-12
6.42441e-12
6.40213e-12
6.42449e-12
6.402e-12
6.42451e-12
6.4019e-12
6.42479e-12
6.40162e-12
6.42506e-12
6.40135e-12
6.42531e-12
6.40112e-12
6.42553e-12
6.40091e-12
6.42571e-12
6.40074e-12
6.42585e-12
6.40061e-12
6.42596e-12
6.40053e-12
6.42601e-12
6.40049e-12
6.426e-12
6.40051e-12
6.42594e-12
6.40059e-12
6.4258e-12
6.40075e-12
6.4256e-12
6.40094e-12
6.42533e-12
6.4012e-12
6.42498e-12
6.40152e-12
6.42455e-12
6.40191e-12
6.42406e-12
6.40231e-12
6.42352e-12
6.40279e-12
6.42286e-12
6.40311e-12
6.42229e-12
6.40344e-12
6.42172e-12
6.40373e-12
6.42116e-12
6.40401e-12
6.4206e-12
6.40428e-12
6.41998e-12
6.40445e-12
6.41934e-12
6.40464e-12
6.41864e-12
6.4047e-12
6.41775e-12
6.40421e-12
6.41533e-12
6.40161e-12
6.41167e-12
6.39898e-12
6.4082e-12
6.39654e-12
6.40557e-12
6.39535e-12
6.40301e-12
6.39329e-12
6.40114e-12
6.39356e-12
6.40098e-12
6.39479e-12
6.40293e-12
6.39878e-12
6.40492e-12
6.40061e-12
6.40754e-12
6.40607e-12
6.41328e-12
6.41329e-12
6.42156e-12
6.42219e-12
6.43454e-12
6.43877e-12
6.44747e-12
6.43193e-12
4.78945e-12
-1.27031e-10
2.08979e-09
)
;

boundaryField
{
    inandouthalf11
    {
        type            cyclic;
        value           nonuniform List<scalar> 
100
(
-1.7051e-39
-1.72349e-14
-3.79944e-14
-5.641e-14
-7.43219e-14
-9.2794e-14
-1.1177e-13
-1.30994e-13
-1.50318e-13
-1.69707e-13
-1.89202e-13
-2.08848e-13
-2.28668e-13
-2.48662e-13
-2.68821e-13
-2.89143e-13
-3.09636e-13
-3.30305e-13
-3.51151e-13
-3.7217e-13
-3.93347e-13
-4.14663e-13
-4.36099e-13
-4.57634e-13
-4.79251e-13
-5.00941e-13
-5.22719e-13
-5.44631e-13
-5.66764e-13
-5.89234e-13
-6.12198e-13
-6.35832e-13
-6.60307e-13
-6.85748e-13
-7.12179e-13
-7.39447e-13
-7.67173e-13
-7.94703e-13
-8.21093e-13
-8.45155e-13
-8.65636e-13
-8.81481e-13
-8.92163e-13
-8.98035e-13
-9.00567e-13
-9.02431e-13
-9.07461e-13
-9.20564e-13
-9.47763e-13
-9.96498e-13
-1.07612e-12
-1.19838e-12
-1.377e-12
-1.62383e-12
-1.93702e-12
-2.27601e-12
-2.53083e-12
-2.53053e-12
-2.15394e-12
-1.48785e-12
-8.08229e-13
-3.41987e-13
-1.14343e-13
-3.13893e-14
-7.52087e-15
-1.70147e-15
-3.96015e-16
-1.03397e-16
-3.32174e-17
-1.43843e-17
-8.64251e-18
-6.70609e-18
-6.06154e-18
-5.95121e-18
-6.1332e-18
-6.53801e-18
-7.16041e-18
-8.01732e-18
-9.12698e-18
-1.0496e-17
-1.2112e-17
-1.39424e-17
-1.59385e-17
-1.80409e-17
-2.01875e-17
-2.23201e-17
-2.43894e-17
-2.63582e-17
-2.82029e-17
-2.9913e-17
-3.14891e-17
-3.29399e-17
-3.428e-17
-3.55268e-17
-3.66981e-17
-3.78115e-17
-3.88829e-17
-3.99262e-17
-4.09533e-17
-4.19741e-17
)
;
    }
    inandouthalf12
    {
        type            cyclic;
        value           nonuniform List<scalar> 
100
(
1.7051e-39
1.72349e-14
3.79944e-14
5.641e-14
7.43219e-14
9.2794e-14
1.1177e-13
1.30994e-13
1.50318e-13
1.69707e-13
1.89202e-13
2.08848e-13
2.28668e-13
2.48662e-13
2.68821e-13
2.89143e-13
3.09636e-13
3.30305e-13
3.51151e-13
3.7217e-13
3.93347e-13
4.14663e-13
4.36099e-13
4.57634e-13
4.79251e-13
5.00941e-13
5.22719e-13
5.44631e-13
5.66764e-13
5.89234e-13
6.12198e-13
6.35832e-13
6.60307e-13
6.85748e-13
7.12179e-13
7.39447e-13
7.67173e-13
7.94703e-13
8.21093e-13
8.45155e-13
8.65636e-13
8.81481e-13
8.92163e-13
8.98035e-13
9.00567e-13
9.02431e-13
9.07461e-13
9.20564e-13
9.47763e-13
9.96498e-13
1.07612e-12
1.19838e-12
1.377e-12
1.62383e-12
1.93702e-12
2.27601e-12
2.53083e-12
2.53053e-12
2.15394e-12
1.48785e-12
8.08229e-13
3.41987e-13
1.14343e-13
3.13893e-14
7.52087e-15
1.70147e-15
3.96015e-16
1.03397e-16
3.32174e-17
1.43843e-17
8.64251e-18
6.70609e-18
6.06154e-18
5.95121e-18
6.1332e-18
6.53801e-18
7.16041e-18
8.01732e-18
9.12698e-18
1.0496e-17
1.2112e-17
1.39424e-17
1.59385e-17
1.80409e-17
2.01875e-17
2.23201e-17
2.43894e-17
2.63582e-17
2.82029e-17
2.9913e-17
3.14891e-17
3.29399e-17
3.428e-17
3.55268e-17
3.66981e-17
3.78115e-17
3.88829e-17
3.99262e-17
4.09533e-17
4.19741e-17
)
;
    }
    inandouthalf21
    {
        type            cyclic;
        value           nonuniform List<scalar> 
100
(
-4.29968e-17
-4.4028e-17
-4.50729e-17
-4.61357e-17
-4.72196e-17
-4.83268e-17
-4.94592e-17
-5.06178e-17
-5.18034e-17
-5.30165e-17
-5.42574e-17
-5.55263e-17
-5.68234e-17
-5.81494e-17
-5.9505e-17
-6.08915e-17
-6.2311e-17
-6.37661e-17
-6.52606e-17
-6.67988e-17
-6.83861e-17
-7.00282e-17
-7.17312e-17
-7.35002e-17
-7.53394e-17
-7.72502e-17
-7.92306e-17
-8.12743e-17
-8.33693e-17
-8.54967e-17
-8.76315e-17
-8.97448e-17
-9.18096e-17
-9.38089e-17
-9.57379e-17
-9.76018e-17
-9.94127e-17
-1.01193e-16
-1.02976e-16
-1.04768e-16
-1.0648e-16
-1.07892e-16
-1.08836e-16
-1.09328e-16
-1.09529e-16
-1.09621e-16
-1.09719e-16
-1.12807e-16
-6.43764e-08
-7.68002e-08
-7.29148e-08
-7.36939e-08
-7.66424e-08
-8.05386e-08
-8.47627e-08
-8.89819e-08
-9.30256e-08
-9.68185e-08
-1.00338e-07
-1.0359e-07
-1.06591e-07
-1.09364e-07
-1.11931e-07
-1.14313e-07
-1.16529e-07
-1.18597e-07
-1.20529e-07
-1.22336e-07
-1.24026e-07
-1.25607e-07
-1.27082e-07
-1.28453e-07
-1.29723e-07
-1.30892e-07
-1.31959e-07
-1.32924e-07
-1.33787e-07
-1.34546e-07
-1.352e-07
-1.35748e-07
-1.36189e-07
-1.36522e-07
-1.36747e-07
-1.36864e-07
-1.36871e-07
-1.3677e-07
-1.36561e-07
-1.36246e-07
-1.35826e-07
-1.35303e-07
-1.3468e-07
-1.33963e-07
-1.33156e-07
-1.32265e-07
-1.313e-07
-1.3027e-07
-1.29186e-07
-1.28061e-07
-1.26908e-07
-1.25739e-07
)
;
    }
    inandouthalf22
    {
        type            cyclic;
        value           nonuniform List<scalar> 
100
(
4.29968e-17
4.4028e-17
4.50729e-17
4.61357e-17
4.72196e-17
4.83268e-17
4.94592e-17
5.06178e-17
5.18034e-17
5.30165e-17
5.42574e-17
5.55263e-17
5.68234e-17
5.81494e-17
5.9505e-17
6.08915e-17
6.2311e-17
6.37661e-17
6.52606e-17
6.67988e-17
6.83861e-17
7.00282e-17
7.17312e-17
7.35002e-17
7.53394e-17
7.72502e-17
7.92306e-17
8.12743e-17
8.33693e-17
8.54967e-17
8.76315e-17
8.97448e-17
9.18096e-17
9.38089e-17
9.57379e-17
9.76018e-17
9.94127e-17
1.01193e-16
1.02976e-16
1.04768e-16
1.0648e-16
1.07892e-16
1.08836e-16
1.09328e-16
1.09529e-16
1.09621e-16
1.09719e-16
1.12807e-16
6.43764e-08
7.68002e-08
7.29148e-08
7.36939e-08
7.66424e-08
8.05386e-08
8.47627e-08
8.89819e-08
9.30256e-08
9.68185e-08
1.00338e-07
1.0359e-07
1.06591e-07
1.09364e-07
1.11931e-07
1.14313e-07
1.16529e-07
1.18597e-07
1.20529e-07
1.22336e-07
1.24026e-07
1.25607e-07
1.27082e-07
1.28453e-07
1.29723e-07
1.30892e-07
1.31959e-07
1.32924e-07
1.33787e-07
1.34546e-07
1.352e-07
1.35748e-07
1.36189e-07
1.36522e-07
1.36747e-07
1.36864e-07
1.36871e-07
1.3677e-07
1.36561e-07
1.36246e-07
1.35826e-07
1.35303e-07
1.3468e-07
1.33963e-07
1.33156e-07
1.32265e-07
1.313e-07
1.3027e-07
1.29186e-07
1.28061e-07
1.26908e-07
1.25739e-07
)
;
    }
    inandouthalf31
    {
        type            cyclic;
        value           nonuniform List<scalar> 
110
(
-1.24566e-07
-1.25895e-07
-1.27224e-07
-1.28571e-07
-1.29954e-07
-1.31393e-07
-1.32905e-07
-1.34504e-07
-1.36202e-07
-1.38005e-07
-1.39917e-07
-1.41937e-07
-1.44066e-07
-1.46299e-07
-1.4863e-07
-1.51054e-07
-1.53568e-07
-1.56161e-07
-1.58829e-07
-1.61569e-07
-1.64375e-07
-1.67239e-07
-1.70156e-07
-1.73127e-07
-1.76142e-07
-1.79197e-07
-1.82295e-07
-1.85436e-07
-1.8862e-07
-1.91853e-07
-1.95146e-07
-1.98505e-07
-2.0193e-07
-2.05442e-07
-2.09152e-07
-2.13114e-07
-2.17047e-07
-1.44722e-07
-1.24874e-07
-1.26849e-07
-1.23084e-07
-1.26714e-07
-1.26392e-07
-1.26524e-07
-1.26835e-07
-1.2737e-07
-1.28151e-07
-1.29214e-07
-1.30614e-07
-1.32436e-07
-1.34817e-07
-1.37995e-07
-1.4246e-07
-1.49382e-07
-1.63757e-07
-1.72703e-07
-1.76636e-07
-1.8023e-07
-1.83889e-07
-1.87621e-07
-1.91429e-07
-1.95315e-07
-1.99279e-07
-2.03324e-07
-2.07451e-07
-2.11662e-07
-2.15958e-07
-2.20341e-07
-2.24814e-07
-2.29377e-07
-2.34033e-07
-2.38783e-07
-2.43629e-07
-2.48575e-07
-2.5362e-07
-2.58768e-07
-2.6402e-07
-2.69379e-07
-2.74847e-07
-2.80425e-07
-2.86117e-07
-2.91925e-07
-2.9785e-07
-3.03895e-07
-3.10064e-07
-3.16357e-07
-3.22778e-07
-3.2933e-07
-3.36014e-07
-3.42835e-07
-3.49793e-07
-3.56893e-07
-3.64137e-07
-3.71528e-07
-3.79069e-07
-3.86763e-07
-3.94613e-07
-4.02623e-07
-4.10795e-07
-4.19133e-07
-4.27641e-07
-4.36321e-07
-4.45177e-07
-4.54213e-07
-4.63432e-07
-4.72838e-07
-4.82436e-07
-4.92228e-07
-5.02219e-07
-5.12412e-07
)
;
    }
    inandouthalf32
    {
        type            cyclic;
        value           nonuniform List<scalar> 
110
(
1.24566e-07
1.25895e-07
1.27224e-07
1.28571e-07
1.29954e-07
1.31393e-07
1.32905e-07
1.34504e-07
1.36202e-07
1.38005e-07
1.39917e-07
1.41937e-07
1.44066e-07
1.46299e-07
1.4863e-07
1.51054e-07
1.53568e-07
1.56161e-07
1.58829e-07
1.61569e-07
1.64375e-07
1.67239e-07
1.70156e-07
1.73127e-07
1.76142e-07
1.79197e-07
1.82295e-07
1.85436e-07
1.8862e-07
1.91853e-07
1.95146e-07
1.98505e-07
2.0193e-07
2.05442e-07
2.09152e-07
2.13114e-07
2.17047e-07
1.44722e-07
1.24874e-07
1.26849e-07
1.23084e-07
1.26714e-07
1.26392e-07
1.26524e-07
1.26835e-07
1.2737e-07
1.28151e-07
1.29214e-07
1.30614e-07
1.32436e-07
1.34817e-07
1.37995e-07
1.4246e-07
1.49382e-07
1.63757e-07
1.72703e-07
1.76636e-07
1.8023e-07
1.83889e-07
1.87621e-07
1.91429e-07
1.95315e-07
1.99279e-07
2.03324e-07
2.07451e-07
2.11662e-07
2.15958e-07
2.20341e-07
2.24814e-07
2.29377e-07
2.34033e-07
2.38783e-07
2.43629e-07
2.48575e-07
2.5362e-07
2.58768e-07
2.6402e-07
2.69379e-07
2.74847e-07
2.80425e-07
2.86117e-07
2.91925e-07
2.9785e-07
3.03895e-07
3.10064e-07
3.16357e-07
3.22778e-07
3.2933e-07
3.36014e-07
3.42835e-07
3.49793e-07
3.56893e-07
3.64137e-07
3.71528e-07
3.79069e-07
3.86763e-07
3.94613e-07
4.02623e-07
4.10795e-07
4.19133e-07
4.27641e-07
4.36321e-07
4.45177e-07
4.54213e-07
4.63432e-07
4.72838e-07
4.82436e-07
4.92228e-07
5.02219e-07
5.12412e-07
)
;
    }
    inandouthalf41
    {
        type            cyclic;
        value           nonuniform List<scalar> 
50
(
-4.58661e-07
-4.58661e-07
-4.58661e-07
-4.58661e-07
-4.58661e-07
-4.58661e-07
-4.58661e-07
-4.58661e-07
-4.58661e-07
-4.58661e-07
-4.58661e-07
-4.58661e-07
-4.58661e-07
-4.58661e-07
-4.58661e-07
-4.58661e-07
-4.58661e-07
-4.58661e-07
-4.58661e-07
-4.58661e-07
-4.58661e-07
-4.58661e-07
-4.58661e-07
-4.58661e-07
-4.58661e-07
-4.58661e-07
-4.58661e-07
-4.58661e-07
-4.58661e-07
-4.58661e-07
-4.58661e-07
-4.58661e-07
-4.58661e-07
-4.58661e-07
-4.58661e-07
-4.58661e-07
-4.58661e-07
-4.58661e-07
-4.58661e-07
-4.58661e-07
-4.58661e-07
-4.58661e-07
-4.58661e-07
-4.58661e-07
-4.58661e-07
-4.58661e-07
-4.58661e-07
-4.58659e-07
-4.58592e-07
-4.57008e-07
)
;
    }
    inandouthalf42
    {
        type            cyclic;
        value           nonuniform List<scalar> 
50
(
4.58661e-07
4.58661e-07
4.58661e-07
4.58661e-07
4.58661e-07
4.58661e-07
4.58661e-07
4.58661e-07
4.58661e-07
4.58661e-07
4.58661e-07
4.58661e-07
4.58661e-07
4.58661e-07
4.58661e-07
4.58661e-07
4.58661e-07
4.58661e-07
4.58661e-07
4.58661e-07
4.58661e-07
4.58661e-07
4.58661e-07
4.58661e-07
4.58661e-07
4.58661e-07
4.58661e-07
4.58661e-07
4.58661e-07
4.58661e-07
4.58661e-07
4.58661e-07
4.58661e-07
4.58661e-07
4.58661e-07
4.58661e-07
4.58661e-07
4.58661e-07
4.58661e-07
4.58661e-07
4.58661e-07
4.58661e-07
4.58661e-07
4.58661e-07
4.58661e-07
4.58661e-07
4.58661e-07
4.58659e-07
4.58592e-07
4.57008e-07
)
;
    }
    top
    {
        type            symmetryPlane;
        value           uniform 0;
    }
    walls
    {
        type            calculated;
        value           uniform 0;
    }
    frontAndBackPlanes
    {
        type            empty;
        value           nonuniform 0();
    }
}


// ************************************************************************* //
