/*--------------------------------*- C++ -*----------------------------------*\
| =========                 |                                                 |
| \\      /  F ield         | OpenFOAM: The Open Source CFD Toolbox           |
|  \\    /   O peration     | Version:  2.4.x                                 |
|   \\  /    A nd           | Web:      www.OpenFOAM.org                      |
|    \\/     M anipulation  |                                                 |
\*---------------------------------------------------------------------------*/
FoamFile
{
    version     2.0;
    format      ascii;
    class       volScalarField;
    location    "6";
    object      ddt0(((1.5*(alpha+1e-08))*rho),Theta);
}
// * * * * * * * * * * * * * * * * * * * * * * * * * * * * * * * * * * * * * //

dimensions      [1 -1 -3 0 0 0 0];

internalField   nonuniform List<scalar> 
360
(
-8.96005e-21
-3.30322e-20
-2.5531e-20
-2.13635e-20
-2.22978e-20
-2.37777e-20
-2.45327e-20
-2.47956e-20
-2.48937e-20
-2.50379e-20
-2.53028e-20
-2.56436e-20
-2.59953e-20
-2.63233e-20
-2.66333e-20
-2.69501e-20
-2.72821e-20
-2.762e-20
-2.79547e-20
-2.82696e-20
-2.85459e-20
-2.87843e-20
-2.89831e-20
-2.91385e-20
-2.92617e-20
-2.93786e-20
-2.95434e-20
-2.98287e-20
-3.02978e-20
-3.10155e-20
-3.20522e-20
-3.3431e-20
-3.51179e-20
-3.70009e-20
-3.88245e-20
-4.02104e-20
-4.06767e-20
-3.96593e-20
-3.65842e-20
-3.1119e-20
-2.34446e-20
-1.43534e-20
-5.31869e-21
1.76343e-21
5.02039e-21
2.9049e-21
-5.7854e-21
-2.23563e-20
-4.92261e-20
-9.1288e-20
-1.57731e-19
-2.64418e-19
-4.3357e-19
-6.79434e-19
-9.5343e-19
-1.03323e-18
-5.18454e-19
6.56793e-19
1.602e-18
1.43845e-18
6.76441e-19
1.78381e-19
2.76552e-20
2.7046e-21
1.8843e-22
1.22281e-23
1.61348e-24
8.20541e-25
7.20047e-25
6.99595e-25
6.93623e-25
6.91788e-25
6.90673e-25
6.89622e-25
6.89007e-25
6.88596e-25
6.88357e-25
6.87799e-25
6.87198e-25
6.86699e-25
6.86006e-25
6.85172e-25
6.84487e-25
6.8381e-25
6.83284e-25
6.82835e-25
6.8251e-25
6.82231e-25
6.81928e-25
6.81587e-25
6.81196e-25
6.80757e-25
6.8018e-25
6.79667e-25
6.79066e-25
6.78461e-25
6.77875e-25
6.7719e-25
6.76565e-25
6.75917e-25
6.75198e-25
6.7443e-25
6.7361e-25
6.72807e-25
6.71801e-25
6.70891e-25
6.6982e-25
6.68734e-25
6.6761e-25
6.66453e-25
6.65204e-25
6.63723e-25
6.62238e-25
6.60711e-25
6.59079e-25
6.57314e-25
6.55536e-25
6.53485e-25
6.515e-25
6.49221e-25
6.46908e-25
6.44406e-25
6.41787e-25
6.38958e-25
6.35993e-25
6.32741e-25
6.29145e-25
6.2512e-25
6.20542e-25
6.1575e-25
6.10252e-25
-8.80727e-23
-1.74595e-17
-8.18296e-17
-3.7108e-16
-1.79029e-15
-1.00061e-14
-6.95813e-14
-6.03318e-13
-6.26052e-12
-7.55803e-11
-1.05704e-09
-1.73159e-08
-3.39329e-07
-1.00339e-05
-0.000848301
-0.0346492
-0.406239
-1.31469
-0.916047
-0.570404
-0.411355
-0.307698
-0.231566
-0.174811
-0.132672
-0.101374
-0.0779704
-0.0603058
-0.0468389
-0.0364791
-0.0284482
-0.0221816
-0.0172647
-0.013389
-0.0103228
-0.0078903
-0.00595592
-0.00441561
-0.00318878
-0.00221214
-0.00143633
-0.000822241
-0.000338737
3.88423e-05
0.000330386
0.000551947
0.000716592
0.000834889
0.000915568
0.000965749
0.00099136
0.000997265
0.000987539
0.000965534
0.00093407
0.000895478
0.000851691
0.000804305
0.000754629
0.00070372
0.000652423
0.000601416
0.000551244
0.000502343
0.000455074
0.000409772
0.000366791
0.000326487
0.000289149
0.000254833
0.000223071
0.000193598
0.000166452
0.00014159
0.000119216
9.95105e-05
8.23871e-05
6.77543e-05
5.54546e-05
4.52028e-05
3.67517e-05
2.98022e-05
2.41096e-05
1.95021e-05
1.57433e-05
1.26804e-05
1.02097e-05
8.20013e-06
6.56624e-06
5.23763e-06
4.16658e-06
3.30233e-06
2.59839e-06
2.03579e-06
1.58491e-06
1.22254e-06
9.34013e-07
7.05549e-07
5.24458e-07
3.84211e-07
2.7246e-07
1.91378e-07
1.25258e-07
8.02221e-08
3.82432e-08
0
0
0
0
0
0
0
0
0
0
0
0
0
0
0
0
0
0
0
0
0
0
0
0
0
0
0
0
0
0
0
0
0
0
0
0
0
0
0
0
0
0
0
0
0
0
0
0
0
0
0
0
0
0
0
0
0
0
0
0
0
0
0
0
0
0
0
0
0
0
0
0
0
0
0
0
0
0
0
0
0
0
0
0
0
0
0
0
0
0
0
0
0
0
0
0
0
0
0
0
0
0
0
0
0
0
0
0
0
0
0
0
0
0
0
0
0
0
0
0
0
0
0
0
)
;

boundaryField
{
    inandouthalf11
    {
        type            cyclic;
    }
    inandouthalf12
    {
        type            cyclic;
    }
    inandouthalf21
    {
        type            cyclic;
    }
    inandouthalf22
    {
        type            cyclic;
    }
    inandouthalf31
    {
        type            cyclic;
    }
    inandouthalf32
    {
        type            cyclic;
    }
    inandouthalf41
    {
        type            cyclic;
    }
    inandouthalf42
    {
        type            cyclic;
    }
    top
    {
        type            symmetryPlane;
    }
    walls
    {
        type            calculated;
        value           uniform -8.96005e-21;
    }
    frontAndBackPlanes
    {
        type            empty;
    }
}


// ************************************************************************* //
