/*--------------------------------*- C++ -*----------------------------------*\
| =========                 |                                                 |
| \\      /  F ield         | OpenFOAM: The Open Source CFD Toolbox           |
|  \\    /   O peration     | Version:  2.4.x                                 |
|   \\  /    A nd           | Web:      www.OpenFOAM.org                      |
|    \\/     M anipulation  |                                                 |
\*---------------------------------------------------------------------------*/
FoamFile
{
    version     2.0;
    format      ascii;
    class       volScalarField;
    location    "6";
    object      ddt0(alpha);
}
// * * * * * * * * * * * * * * * * * * * * * * * * * * * * * * * * * * * * * //

dimensions      [0 0 -1 0 0 0 0];

internalField   nonuniform List<scalar> 
360
(
0.000121482
0.000195777
0.000179157
0.000167766
0.0001704
0.000174833
0.000176993
0.000177841
0.000178422
0.000179335
0.000180568
0.000181874
0.000183166
0.000184349
0.000185485
0.00018664
0.00018783
0.000189032
0.000190225
0.000191458
0.0001926
0.000193777
0.000194922
0.000196031
0.000197098
0.00019811
0.000199063
0.00020006
0.000201057
0.000202109
0.000203272
0.000204703
0.000206253
0.000208265
0.000210401
0.000212807
0.000215211
0.000217502
0.000219381
0.000220221
0.000220075
0.000218412
0.000215167
0.000210835
0.00020563
0.000200475
0.000196382
0.00019443
0.000196307
0.000203635
0.000217992
0.000242035
0.000278122
0.000328405
0.000391123
0.000457313
0.000503381
0.000498323
0.00042242
0.000294365
0.00016426
7.22904e-05
2.50866e-05
6.77322e-06
1.18161e-06
-2.49193e-07
-5.9173e-07
-6.83814e-07
-7.21249e-07
-7.57238e-07
-7.94663e-07
-8.1427e-07
-8.38792e-07
-8.66564e-07
-8.88299e-07
-9.06492e-07
-9.21427e-07
-9.43311e-07
-9.66295e-07
-9.88274e-07
-1.01324e-06
-1.04206e-06
-1.0696e-06
-1.09697e-06
-1.12366e-06
-1.14963e-06
-1.17446e-06
-1.19818e-06
-1.22337e-06
-1.24963e-06
-1.27671e-06
-1.30578e-06
-1.3365e-06
-1.36791e-06
-1.40012e-06
-1.43298e-06
-1.46633e-06
-1.50032e-06
-1.53526e-06
-1.5713e-06
-1.60855e-06
-1.64724e-06
-1.6874e-06
-1.729e-06
-1.77215e-06
-1.81695e-06
-1.86349e-06
-1.91193e-06
-1.9624e-06
-2.01502e-06
-2.06991e-06
-2.1272e-06
-2.18701e-06
-2.24946e-06
-2.31469e-06
-2.38284e-06
-2.45409e-06
-2.52861e-06
-2.6066e-06
-2.68827e-06
-2.77382e-06
-2.8634e-06
-2.95719e-06
-3.0555e-06
-3.15906e-06
-3.26924e-06
-3.38799e-06
-3.51708e-06
-3.65667e-06
-3.80445e-06
-3.95854e-06
-4.12608e-06
-4.32808e-06
-4.57897e-06
-4.85314e-06
-5.11166e-06
-5.39522e-06
-5.85781e-06
-6.61058e-06
-7.34891e-06
-7.45413e-06
-7.98229e-06
-9.98433e-06
-1.26207e-05
-1.96611e-05
-7.6058e-05
-6.95532e-05
0.0113351
0.0953223
0.020245
-0.00100528
-0.0097242
-0.0139718
-0.0155383
-0.0153275
-0.0140891
-0.0123941
-0.0106064
-0.00892331
-0.00742979
-0.00614839
-0.00507016
-0.00417284
-0.00343057
-0.00281833
-0.00231384
-0.00189803
-0.00155505
-0.00127177
-0.00103749
-0.000843484
-0.000682629
-0.000549126
-0.000438239
-0.000346087
-0.000269485
-0.000205808
-0.000152893
-0.000108946
-7.24838e-05
-4.22728e-05
-1.72888e-05
3.32015e-06
2.02632e-05
3.41321e-05
4.54241e-05
5.45653e-05
6.19328e-05
6.78749e-05
7.27256e-05
7.68022e-05
8.03784e-05
8.365e-05
8.67325e-05
8.9666e-05
9.23429e-05
9.44293e-05
9.54525e-05
9.50491e-05
9.33358e-05
9.09845e-05
8.8295e-05
8.50899e-05
8.15077e-05
7.71748e-05
7.13826e-05
6.45366e-05
5.72417e-05
4.96867e-05
4.238e-05
3.56715e-05
2.97085e-05
2.46106e-05
2.01863e-05
1.647e-05
1.3486e-05
1.09732e-05
8.90303e-06
7.26034e-06
5.92193e-06
4.81298e-06
3.89466e-06
3.17234e-06
2.57916e-06
2.07738e-06
1.68256e-06
1.36282e-06
1.09755e-06
8.85038e-07
7.08907e-07
5.71728e-07
4.48971e-07
3.54938e-07
2.7572e-07
2.3817e-07
1.571e-07
1.32125e-07
1.31237e-07
4.41564e-08
1.4093e-07
0
-4.4922e-25
-7.61679e-26
-3.81356e-26
-2.07002e-26
-1.56737e-26
-1.70379e-26
-2.05587e-26
-2.40604e-26
-1.46826e-26
-5.06087e-27
-2.0936e-27
-9.9578e-28
-5.06219e-28
-2.96877e-28
-2.45855e-28
-2.58605e-28
-1.62403e-28
-5.96286e-29
-2.71205e-29
-1.36185e-29
-7.36947e-30
-4.95484e-30
-3.24713e-30
-1.36759e-30
-6.75075e-31
-3.43601e-31
-1.81809e-31
-8.98304e-32
-4.4376e-32
-2.15466e-32
-1.02678e-32
-4.7991e-33
-2.1985e-33
-9.86426e-34
-4.33153e-34
-1.85997e-34
-7.80345e-35
-3.19584e-35
-1.27638e-35
-4.96615e-36
-1.8803e-36
-6.91961e-37
-2.47191e-37
-8.56016e-38
-2.86936e-38
-9.29486e-39
-2.90467e-39
-8.7401e-40
-2.52693e-40
-7.00373e-41
-1.85616e-41
-4.69056e-42
-1.12663e-42
-2.56289e-43
-5.49945e-44
-1.10798e-44
-2.0847e-45
-3.64025e-46
-5.85555e-47
-8.59942e-48
-1.14042e-48
-1.34694e-49
-1.3917e-50
-1.22788e-51
-8.9379e-53
-5.0903e-54
-2.0673e-55
-4.87176e-57
-2.49327e-59
-4.66128e-63
-5.2111e-65
-2.8909e-67
-8.80472e-78
-1.32355e-88
-1.38273e-99
-1.05367e-110
-6.57327e-122
-3.24144e-133
-1.34843e-144
-3.2603e-154
-1.21537e-164
-1.11457e-172
-3.6838e-183
-3.83393e-191
-1.47716e-201
-1.31894e-209
-6.26461e-220
-4.54112e-228
-3.99151e-238
-1.58206e-246
-2.60925e-256
-5.60801e-265
-1.29237e-274
-2.02132e-283
-6.11994e-293
-7.39578e-302
-2.68859e-311
2.0731e-320
0
0
0
0
0
0
0
0
0
0
0
0
0
0
0
0
0
0
0
0
0
)
;

boundaryField
{
    inandouthalf11
    {
        type            cyclic;
    }
    inandouthalf12
    {
        type            cyclic;
    }
    inandouthalf21
    {
        type            cyclic;
    }
    inandouthalf22
    {
        type            cyclic;
    }
    inandouthalf31
    {
        type            cyclic;
    }
    inandouthalf32
    {
        type            cyclic;
    }
    inandouthalf41
    {
        type            cyclic;
    }
    inandouthalf42
    {
        type            cyclic;
    }
    top
    {
        type            symmetryPlane;
    }
    walls
    {
        type            calculated;
        value           uniform 0.000121482;
    }
    frontAndBackPlanes
    {
        type            empty;
    }
}


// ************************************************************************* //
