/*--------------------------------*- C++ -*----------------------------------*\
| =========                 |                                                 |
| \\      /  F ield         | OpenFOAM: The Open Source CFD Toolbox           |
|  \\    /   O peration     | Version:  2.4.x                                 |
|   \\  /    A nd           | Web:      www.OpenFOAM.org                      |
|    \\/     M anipulation  |                                                 |
\*---------------------------------------------------------------------------*/
FoamFile
{
    version     2.0;
    format      ascii;
    class       volVectorField;
    location    "6";
    object      ddt0(Ua);
}
// * * * * * * * * * * * * * * * * * * * * * * * * * * * * * * * * * * * * * //

dimensions      [0 1 -2 0 0 0 0];

internalField   nonuniform List<vector> 
360
(
(1.7051e-33 -6.29405e-33 0)
(1.72349e-08 7.31472e-08 0)
(3.79944e-08 1.44661e-07 0)
(5.641e-08 2.04264e-07 0)
(7.43219e-08 2.628e-07 0)
(9.2794e-08 3.23715e-07 0)
(1.1177e-07 3.8641e-07 0)
(1.30994e-07 4.49832e-07 0)
(1.50318e-07 5.13344e-07 0)
(1.69707e-07 5.76789e-07 0)
(1.89202e-07 6.40358e-07 0)
(2.08848e-07 7.04258e-07 0)
(2.28668e-07 7.68579e-07 0)
(2.48662e-07 8.33304e-07 0)
(2.68821e-07 8.98383e-07 0)
(2.89143e-07 9.63804e-07 0)
(3.09636e-07 1.02959e-06 0)
(3.30305e-07 1.09576e-06 0)
(3.51151e-07 1.16231e-06 0)
(3.7217e-07 1.2292e-06 0)
(3.93347e-07 1.29637e-06 0)
(4.14663e-07 1.36372e-06 0)
(4.36099e-07 1.43116e-06 0)
(4.57634e-07 1.49861e-06 0)
(4.79251e-07 1.56597e-06 0)
(5.00941e-07 1.63321e-06 0)
(5.22719e-07 1.70038e-06 0)
(5.44631e-07 1.76768e-06 0)
(5.66764e-07 1.83545e-06 0)
(5.89234e-07 1.90415e-06 0)
(6.12198e-07 1.97439e-06 0)
(6.35832e-07 2.04688e-06 0)
(6.60307e-07 2.12223e-06 0)
(6.85748e-07 2.20093e-06 0)
(7.12179e-07 2.28302e-06 0)
(7.39447e-07 2.36785e-06 0)
(7.67173e-07 2.45394e-06 0)
(7.94703e-07 2.53876e-06 0)
(8.21093e-07 2.61875e-06 0)
(8.45155e-07 2.68944e-06 0)
(8.65636e-07 2.74624e-06 0)
(8.81481e-07 2.78539e-06 0)
(8.92163e-07 2.80514e-06 0)
(8.98035e-07 2.80706e-06 0)
(9.00567e-07 2.79675e-06 0)
(9.02431e-07 2.78403e-06 0)
(9.07461e-07 2.78262e-06 0)
(9.20564e-07 2.80959e-06 0)
(9.47763e-07 2.8854e-06 0)
(9.96498e-07 3.03488e-06 0)
(1.07612e-06 3.28883e-06 0)
(1.19838e-06 3.68576e-06 0)
(1.377e-06 4.27121e-06 0)
(1.62383e-06 5.08585e-06 0)
(1.93702e-06 6.12759e-06 0)
(2.27601e-06 7.26967e-06 0)
(2.53083e-06 8.15341e-06 0)
(2.53053e-06 8.20401e-06 0)
(2.15394e-06 6.99768e-06 0)
(1.48785e-06 4.81534e-06 0)
(8.08229e-07 2.58956e-06 0)
(3.41987e-07 1.07927e-06 0)
(1.14343e-07 3.54333e-07 0)
(3.13893e-08 9.53338e-08 0)
(7.52087e-09 2.23424e-08 0)
(1.70147e-09 4.91239e-09 0)
(3.96015e-10 1.08142e-09 0)
(1.03397e-10 2.39525e-10 0)
(3.32174e-11 4.14304e-11 0)
(1.43843e-11 -1.07591e-11 0)
(8.64252e-12 -2.63915e-11 0)
(6.70609e-12 -3.15652e-11 0)
(6.06154e-12 -3.32337e-11 0)
(5.95121e-12 -3.34645e-11 0)
(6.1332e-12 -3.29075e-11 0)
(6.53801e-12 -3.17454e-11 0)
(7.16041e-12 -2.99914e-11 0)
(8.01732e-12 -2.76044e-11 0)
(9.12698e-12 -2.45457e-11 0)
(1.0496e-11 -2.08139e-11 0)
(1.2112e-11 -1.64622e-11 0)
(1.39424e-11 -1.15976e-11 0)
(1.59385e-11 -6.36754e-12 0)
(1.80409e-11 -9.41284e-13 0)
(2.01875e-11 4.51117e-12 0)
(2.23201e-11 9.83684e-12 0)
(2.43894e-11 1.49128e-11 0)
(2.63582e-11 1.96525e-11 0)
(2.82029e-11 2.40077e-11 0)
(2.9913e-11 2.7965e-11 0)
(3.14891e-11 3.15392e-11 0)
(3.29399e-11 3.47648e-11 0)
(3.428e-11 3.76881e-11 0)
(3.55268e-11 4.03602e-11 0)
(3.66981e-11 4.28315e-11 0)
(3.78115e-11 4.51487e-11 0)
(3.88829e-11 4.7353e-11 0)
(3.99262e-11 4.94793e-11 0)
(4.09533e-11 5.15562e-11 0)
(4.19741e-11 5.3607e-11 0)
(4.29968e-11 5.56501e-11 0)
(4.4028e-11 5.76993e-11 0)
(4.50729e-11 5.97654e-11 0)
(4.61357e-11 6.1856e-11 0)
(4.72196e-11 6.39764e-11 0)
(4.83268e-11 6.61298e-11 0)
(4.94592e-11 6.83177e-11 0)
(5.06178e-11 7.05407e-11 0)
(5.18034e-11 7.27981e-11 0)
(5.30165e-11 7.50885e-11 0)
(5.42574e-11 7.74103e-11 0)
(5.55263e-11 7.97615e-11 0)
(5.68234e-11 8.214e-11 0)
(5.81494e-11 8.45444e-11 0)
(5.9505e-11 8.69732e-11 0)
(6.08915e-11 8.94261e-11 0)
(6.2311e-11 9.19033e-11 0)
(6.37661e-11 9.44063e-11 0)
(6.52606e-11 9.69374e-11 0)
(6.67988e-11 9.95e-11 0)
(6.83861e-11 1.02098e-10 0)
(7.00282e-11 1.04736e-10 0)
(7.17312e-11 1.07416e-10 0)
(7.35002e-11 1.10141e-10 0)
(7.53394e-11 1.12908e-10 0)
(7.72502e-11 1.15712e-10 0)
(7.92306e-11 1.1854e-10 0)
(8.12743e-11 1.21374e-10 0)
(8.33693e-11 1.24189e-10 0)
(8.54967e-11 1.26952e-10 0)
(8.76315e-11 1.29624e-10 0)
(8.97448e-11 1.32165e-10 0)
(9.18096e-11 1.3454e-10 0)
(9.38089e-11 1.36731e-10 0)
(9.57379e-11 1.38739e-10 0)
(9.76018e-11 1.40572e-10 0)
(9.94127e-11 1.42243e-10 0)
(1.01193e-10 1.43772e-10 0)
(1.02976e-10 1.45188e-10 0)
(1.04768e-10 1.46508e-10 0)
(1.0648e-10 1.47676e-10 0)
(1.07892e-10 1.48535e-10 0)
(1.08836e-10 1.49024e-10 0)
(1.09328e-10 1.49233e-10 0)
(1.09529e-10 1.49289e-10 0)
(1.09621e-10 1.49288e-10 0)
(1.09719e-10 1.49281e-10 0)
(1.12807e-10 1.49906e-10 0)
(0.0643764 2.35864e-05 0)
(0.0768002 -0.000751952 0)
(0.0729148 -0.000926929 0)
(0.0736939 -0.00119041 0)
(0.0766424 -0.00138961 0)
(0.0805386 -0.00156762 0)
(0.0847627 -0.00172927 0)
(0.0889819 -0.00187774 0)
(0.0930256 -0.00201596 0)
(0.0968185 -0.00214587 0)
(0.100338 -0.00226852 0)
(0.10359 -0.0023844 0)
(0.106591 -0.00249323 0)
(0.109364 -0.00259474 0)
(0.111931 -0.00268875 0)
(0.114313 -0.00277516 0)
(0.116529 -0.00285406 0)
(0.118597 -0.00292576 0)
(0.120529 -0.00299075 0)
(0.122336 -0.00304972 0)
(0.124026 -0.00310357 0)
(0.125607 -0.00315333 0)
(0.127082 -0.00320019 0)
(0.128453 -0.00324536 0)
(0.129723 -0.00329007 0)
(0.130892 -0.00333552 0)
(0.131959 -0.00338276 0)
(0.132924 -0.00343273 0)
(0.133787 -0.0034862 0)
(0.134546 -0.00354373 0)
(0.1352 -0.0036057 0)
(0.135748 -0.00367229 0)
(0.136189 -0.00374349 0)
(0.136522 -0.00381913 0)
(0.136747 -0.00389886 0)
(0.136864 -0.00398225 0)
(0.136871 -0.00406872 0)
(0.13677 -0.00415763 0)
(0.136561 -0.0042482 0)
(0.136246 -0.00433947 0)
(0.135826 -0.00443012 0)
(0.135303 -0.00451827 0)
(0.13468 -0.00460119 0)
(0.133963 -0.00467516 0)
(0.133156 -0.00473553 0)
(0.132265 -0.00477702 0)
(0.1313 -0.00479399 0)
(0.13027 -0.0047811 0)
(0.129186 -0.00473471 0)
(0.128061 -0.00465451 0)
(0.126908 -0.00454418 0)
(0.125739 -0.00440958 0)
(0.124566 -0.00425468 0)
(0.12339 -0.00407859 0)
(0.122212 -0.00387962 0)
(0.121049 -0.00365782 0)
(0.119917 -0.00341451 0)
(0.118833 -0.00315742 0)
(0.117809 -0.00289784 0)
(0.116855 -0.00264446 0)
(0.115976 -0.00240465 0)
(0.115174 -0.0021842 0)
(0.114446 -0.00198555 0)
(0.113789 -0.00180899 0)
(0.113198 -0.00165284 0)
(0.112666 -0.00151556 0)
(0.112184 -0.00139626 0)
(0.111746 -0.00129201 0)
(0.111345 -0.00120042 0)
(0.110973 -0.001121 0)
(0.110623 -0.00105192 0)
(0.110293 -0.000990955 0)
(0.109977 -0.000937196 0)
(0.109667 -0.000890671 0)
(0.10936 -0.00085032 0)
(0.109055 -0.000814105 0)
(0.108748 -0.000782163 0)
(0.108433 -0.000754094 0)
(0.108113 -0.000727548 0)
(0.107788 -0.0007014 0)
(0.107458 -0.00067429 0)
(0.107125 -0.000644365 0)
(0.106796 -0.000608708 0)
(0.106473 -0.000564963 0)
(0.106155 -0.00051423 0)
(0.105853 -0.000453301 0)
(0.105621 -0.000358179 0)
(0.105481 -0.000204594 0)
(0.10529 -7.99692e-05 0)
(0.0688088 -0.00873413 0)
(0.0581906 -0.0957625 0)
(0.0579352 0.196855 0)
(0.0550974 0.201712 0)
(0.0555936 0.000223945 0)
(0.0543494 1.96633e-06 0)
(0.0533239 2.36252e-05 0)
(0.0523913 2.39148e-05 0)
(0.051566 2.50525e-05 0)
(0.05085 2.52578e-05 0)
(0.0502518 2.46072e-05 0)
(0.0497857 2.29475e-05 0)
(0.0494759 1.99869e-05 0)
(0.0493633 1.50978e-05 0)
(0.0495218 6.92267e-06 0)
(0.0501072 -7.00862e-06 0)
(0.0514967 -4.93311e-05 0)
(0.0553292 -5.75687e-05 0)
(0.0571909 -2.29233e-05 0)
(0.0573297 -1.98488e-07 0)
(0.0573326 1.623e-06 0)
(0.0573327 1.6005e-06 0)
(0.0573327 1.60367e-06 0)
(0.0573327 1.60286e-06 0)
(0.0573327 1.60362e-06 0)
(0.0573327 1.60287e-06 0)
(0.0573327 1.60368e-06 0)
(0.0573327 1.60286e-06 0)
(0.0573327 1.60374e-06 0)
(0.0573327 1.60284e-06 0)
(0.0573327 1.60379e-06 0)
(0.0573327 1.6028e-06 0)
(0.0573327 1.60384e-06 0)
(0.0573327 1.60281e-06 0)
(0.0573327 1.60377e-06 0)
(0.0573327 1.60291e-06 0)
(0.0573327 1.60378e-06 0)
(0.0573327 1.60277e-06 0)
(0.0573327 1.60389e-06 0)
(0.0573327 1.60272e-06 0)
(0.0573327 1.60394e-06 0)
(0.0573327 1.60267e-06 0)
(0.0573327 1.60399e-06 0)
(0.0573327 1.60262e-06 0)
(0.0573327 1.60405e-06 0)
(0.0573327 1.60256e-06 0)
(0.0573327 1.60411e-06 0)
(0.0573327 1.6025e-06 0)
(0.0573327 1.60417e-06 0)
(0.0573327 1.60243e-06 0)
(0.0573327 1.60423e-06 0)
(0.0573327 1.60237e-06 0)
(0.0573327 1.6043e-06 0)
(0.0573327 1.6023e-06 0)
(0.0573327 1.60437e-06 0)
(0.0573327 1.60222e-06 0)
(0.0573327 1.60444e-06 0)
(0.0573327 1.60214e-06 0)
(0.0573327 1.60452e-06 0)
(0.0573327 1.60206e-06 0)
(0.0573327 1.60459e-06 0)
(0.0573327 1.60198e-06 0)
(0.0573327 1.60467e-06 0)
(0.0573327 1.60189e-06 0)
(0.0573327 1.60476e-06 0)
(0.0573327 1.60179e-06 0)
(0.0573327 1.60484e-06 0)
(0.0573327 1.60169e-06 0)
(0.0573327 1.60492e-06 0)
(0.0573327 1.60158e-06 0)
(0.0573327 1.605e-06 0)
(0.0573327 1.60147e-06 0)
(0.0573327 1.60509e-06 0)
(0.0573327 1.60159e-06 0)
(0.0573327 1.60486e-06 0)
(0.0573327 1.60155e-06 0)
(0.0573327 1.60485e-06 0)
(0.0573327 1.6015e-06 0)
(0.0573327 1.60483e-06 0)
(0.0573327 1.60145e-06 0)
(0.0573327 1.60481e-06 0)
(0.0573327 1.6014e-06 0)
(0.0573327 1.60479e-06 0)
(0.0573327 1.60134e-06 0)
(0.0573327 1.60475e-06 0)
(0.0573327 1.60127e-06 0)
(0.0573327 1.60471e-06 0)
(0.0573327 1.60119e-06 0)
(0.0573327 1.60465e-06 0)
(0.0573327 1.60107e-06 0)
(0.0573327 1.60449e-06 0)
(0.0573327 1.60069e-06 0)
(0.0573327 1.60388e-06 0)
(0.0573327 1.59989e-06 0)
(0.0573327 1.6031e-06 0)
(0.0573327 1.59912e-06 0)
(0.0573327 1.60238e-06 0)
(0.0573327 1.59847e-06 0)
(0.0573327 1.60191e-06 0)
(0.0573327 1.59799e-06 0)
(0.0573327 1.60135e-06 0)
(0.0573327 1.59749e-06 0)
(0.0573327 1.60116e-06 0)
(0.0573327 1.59749e-06 0)
(0.0573327 1.6013e-06 0)
(0.0573327 1.59788e-06 0)
(0.0573327 1.60206e-06 0)
(0.0573327 1.59862e-06 0)
(0.0573327 1.60254e-06 0)
(0.0573327 1.59916e-06 0)
(0.0573327 1.60356e-06 0)
(0.0573327 1.60055e-06 0)
(0.0573327 1.60519e-06 0)
(0.0573327 1.60248e-06 0)
(0.0573327 1.60734e-06 0)
(0.0573327 1.60521e-06 0)
(0.0573327 1.61104e-06 0)
(0.0573327 1.60888e-06 0)
(0.0573327 1.61331e-06 0)
(0.0573327 1.60494e-06 0)
(0.0573323 7.86012e-07 0)
(0.0573241 -6.43031e-05 0)
(0.0571259 -6.82392e-05 0)
)
;

boundaryField
{
    inandouthalf11
    {
        type            cyclic;
    }
    inandouthalf12
    {
        type            cyclic;
    }
    inandouthalf21
    {
        type            cyclic;
    }
    inandouthalf22
    {
        type            cyclic;
    }
    inandouthalf31
    {
        type            cyclic;
    }
    inandouthalf32
    {
        type            cyclic;
    }
    inandouthalf41
    {
        type            cyclic;
    }
    inandouthalf42
    {
        type            cyclic;
    }
    top
    {
        type            symmetryPlane;
    }
    walls
    {
        type            calculated;
        value           uniform (0 0 0);
    }
    frontAndBackPlanes
    {
        type            empty;
    }
}


// ************************************************************************* //
