/*--------------------------------*- C++ -*----------------------------------*\
| =========                 |                                                 |
| \\      /  F ield         | OpenFOAM: The Open Source CFD Toolbox           |
|  \\    /   O peration     | Version:  2.4.x                                 |
|   \\  /    A nd           | Web:      www.OpenFOAM.org                      |
|    \\/     M anipulation  |                                                 |
\*---------------------------------------------------------------------------*/
FoamFile
{
    version     2.0;
    format      ascii;
    class       volVectorField;
    location    "6";
    object      ddt0(Ub);
}
// * * * * * * * * * * * * * * * * * * * * * * * * * * * * * * * * * * * * * //

dimensions      [0 1 -2 0 0 0 0];

internalField   nonuniform List<vector> 
360
(
(6.70722e-05 -2.86394e-08 0)
(6.67771e-05 -1.1358e-07 0)
(6.67326e-05 -2.21158e-07 0)
(6.67931e-05 -3.19509e-07 0)
(6.68381e-05 -4.13683e-07 0)
(6.68677e-05 -5.09195e-07 0)
(6.68974e-05 -6.07105e-07 0)
(6.69294e-05 -7.06366e-07 0)
(6.69618e-05 -8.05954e-07 0)
(6.69946e-05 -9.05531e-07 0)
(6.70279e-05 -1.0053e-06 0)
(6.70613e-05 -1.10551e-06 0)
(6.70949e-05 -1.20632e-06 0)
(6.71288e-05 -1.30772e-06 0)
(6.71629e-05 -1.40966e-06 0)
(6.71974e-05 -1.51213e-06 0)
(6.72322e-05 -1.61514e-06 0)
(6.72673e-05 -1.71872e-06 0)
(6.73027e-05 -1.82286e-06 0)
(6.73385e-05 -1.9275e-06 0)
(6.73744e-05 -2.03254e-06 0)
(6.74107e-05 -2.13783e-06 0)
(6.74473e-05 -2.24324e-06 0)
(6.74841e-05 -2.34862e-06 0)
(6.75211e-05 -2.45386e-06 0)
(6.75583e-05 -2.55892e-06 0)
(6.75957e-05 -2.6639e-06 0)
(6.76335e-05 -2.7691e-06 0)
(6.76717e-05 -2.87505e-06 0)
(6.77102e-05 -2.9825e-06 0)
(6.77494e-05 -3.09234e-06 0)
(6.77895e-05 -3.20567e-06 0)
(6.78303e-05 -3.32335e-06 0)
(6.78727e-05 -3.44608e-06 0)
(6.79159e-05 -3.5738e-06 0)
(6.79603e-05 -3.70546e-06 0)
(6.80052e-05 -3.83862e-06 0)
(6.80503e-05 -3.96934e-06 0)
(6.80946e-05 -4.09213e-06 0)
(6.81364e-05 -4.20026e-06 0)
(6.81754e-05 -4.28699e-06 0)
(6.82097e-05 -4.3469e-06 0)
(6.82389e-05 -4.37773e-06 0)
(6.82638e-05 -4.38229e-06 0)
(6.82851e-05 -4.36936e-06 0)
(6.83059e-05 -4.35419e-06 0)
(6.83297e-05 -4.35801e-06 0)
(6.83612e-05 -4.40743e-06 0)
(6.84069e-05 -4.53477e-06 0)
(6.84742e-05 -4.77944e-06 0)
(6.85717e-05 -5.18997e-06 0)
(6.87121e-05 -5.82619e-06 0)
(6.89086e-05 -6.75427e-06 0)
(6.91737e-05 -8.02289e-06 0)
(6.95053e-05 -9.59639e-06 0)
(6.98645e-05 -1.12358e-05 0)
(7.01423e-05 -1.23884e-05 0)
(7.01705e-05 -1.2303e-05 0)
(6.98283e-05 -1.05311e-05 0)
(6.91997e-05 -7.48682e-06 0)
(6.8556e-05 -4.30838e-06 0)
(6.81187e-05 -1.98209e-06 0)
(6.79137e-05 -7.30763e-07 0)
(6.78492e-05 -2.19859e-07 0)
(6.78423e-05 -5.60633e-08 0)
(6.78531e-05 -1.28066e-08 0)
(6.7869e-05 -2.77437e-09 0)
(6.78864e-05 -5.69396e-10 0)
(6.79046e-05 -7.26483e-11 0)
(6.79234e-05 4.89441e-11 0)
(6.79433e-05 7.94843e-11 0)
(6.79639e-05 8.66146e-11 0)
(6.79848e-05 8.50388e-11 0)
(6.80067e-05 7.91367e-11 0)
(6.80291e-05 7.58145e-11 0)
(6.80521e-05 7.10677e-11 0)
(6.80754e-05 6.55284e-11 0)
(6.80992e-05 6.01461e-11 0)
(6.81236e-05 5.10971e-11 0)
(6.81486e-05 4.45357e-11 0)
(6.81741e-05 3.83053e-11 0)
(6.82004e-05 2.99837e-11 0)
(6.82275e-05 1.98144e-11 0)
(6.82552e-05 8.78579e-12 0)
(6.82837e-05 8.15441e-14 0)
(6.83128e-05 -8.72681e-12 0)
(6.83427e-05 -2.40582e-11 0)
(6.83731e-05 -3.73634e-11 0)
(6.84042e-05 -4.73096e-11 0)
(6.84359e-05 -5.72514e-11 0)
(6.84684e-05 -6.35379e-11 0)
(6.85015e-05 -7.05346e-11 0)
(6.85355e-05 -7.57871e-11 0)
(6.85703e-05 -8.29463e-11 0)
(6.86059e-05 -9.18688e-11 0)
(6.86423e-05 -1.01193e-10 0)
(6.86797e-05 -1.09627e-10 0)
(6.87179e-05 -1.1761e-10 0)
(6.8757e-05 -1.28247e-10 0)
(6.87971e-05 -1.35626e-10 0)
(6.88381e-05 -1.40824e-10 0)
(6.88801e-05 -1.45002e-10 0)
(6.89232e-05 -1.49859e-10 0)
(6.89673e-05 -1.55098e-10 0)
(6.90126e-05 -1.58669e-10 0)
(6.9059e-05 -1.61141e-10 0)
(6.91066e-05 -1.70109e-10 0)
(6.91555e-05 -1.8042e-10 0)
(6.92057e-05 -1.86253e-10 0)
(6.92573e-05 -1.93366e-10 0)
(6.93103e-05 -2.07074e-10 0)
(6.93647e-05 -2.1681e-10 0)
(6.94208e-05 -2.22345e-10 0)
(6.94785e-05 -2.30469e-10 0)
(6.95378e-05 -2.41101e-10 0)
(6.9599e-05 -2.56592e-10 0)
(6.9662e-05 -2.68034e-10 0)
(6.9727e-05 -2.78285e-10 0)
(6.9794e-05 -2.87555e-10 0)
(6.98632e-05 -2.947e-10 0)
(6.99346e-05 -3.07222e-10 0)
(7.00083e-05 -3.16524e-10 0)
(7.00846e-05 -3.21819e-10 0)
(7.01634e-05 -3.33756e-10 0)
(7.0245e-05 -3.48169e-10 0)
(7.03294e-05 -3.61946e-10 0)
(7.04169e-05 -3.7558e-10 0)
(7.05078e-05 -3.89024e-10 0)
(7.06023e-05 -4.05573e-10 0)
(7.07008e-05 -4.27712e-10 0)
(7.08034e-05 -4.49077e-10 0)
(7.09103e-05 -4.67929e-10 0)
(7.1022e-05 -4.88319e-10 0)
(7.11399e-05 -5.07082e-10 0)
(7.12654e-05 -5.25279e-10 0)
(7.13982e-05 -5.45721e-10 0)
(7.15379e-05 -5.73533e-10 0)
(7.16864e-05 -6.16323e-10 0)
(7.18514e-05 -6.57508e-10 0)
(7.20409e-05 -6.78081e-10 0)
(7.22463e-05 -7.41444e-10 0)
(7.24425e-05 -8.33598e-10 0)
(7.26777e-05 -9.28935e-10 0)
(7.29839e-05 -1.35081e-09 0)
(7.33653e-05 -4.24174e-09 0)
(7.40687e-05 -4.78821e-09 0)
(7.69244e-05 2.21275e-06 0)
(0.000552915 -1.5307e-05 0)
(0.0713265 9.1123e-06 0)
(0.0756883 0.000302384 0)
(0.0729547 0.000177306 0)
(0.0744422 0.000190143 0)
(0.0777154 0.000168651 0)
(0.081758 0.00014132 0)
(0.0860387 0.000117178 0)
(0.0902735 9.71166e-05 0)
(0.094319 8.07721e-05 0)
(0.0981128 6.76097e-05 0)
(0.101638 5.70318e-05 0)
(0.104901 4.84895e-05 0)
(0.107921 4.15191e-05 0)
(0.110719 3.577e-05 0)
(0.11332 3.09792e-05 0)
(0.115744 2.69496e-05 0)
(0.118013 2.3533e-05 0)
(0.120143 2.06164e-05 0)
(0.122149 1.81129e-05 0)
(0.124046 1.59539e-05 0)
(0.125845 1.40853e-05 0)
(0.127554 1.24633e-05 0)
(0.129183 1.10519e-05 0)
(0.130737 9.82126e-06 0)
(0.132224 8.74584e-06 0)
(0.133648 7.8041e-06 0)
(0.135013 6.97792e-06 0)
(0.136323 6.25131e-06 0)
(0.137579 5.61052e-06 0)
(0.138785 5.04369e-06 0)
(0.139943 4.54065e-06 0)
(0.141053 4.09259e-06 0)
(0.142117 3.692e-06 0)
(0.143135 3.33242e-06 0)
(0.144108 3.00836e-06 0)
(0.145036 2.71517e-06 0)
(0.145919 2.44888e-06 0)
(0.146756 2.20614e-06 0)
(0.147546 1.98407e-06 0)
(0.14829 1.78008e-06 0)
(0.148986 1.59179e-06 0)
(0.149633 1.41681e-06 0)
(0.15023 1.25276e-06 0)
(0.150774 1.09736e-06 0)
(0.151265 9.48557e-07 0)
(0.1517 8.04802e-07 0)
(0.152078 6.65221e-07 0)
(0.152395 5.30091e-07 0)
(0.15265 4.01349e-07 0)
(0.152839 2.82373e-07 0)
(0.15296 1.76505e-07 0)
(0.153009 8.49772e-08 0)
(0.152983 6.4665e-09 0)
(0.152878 -6.14643e-08 0)
(0.152684 -1.1969e-07 0)
(0.152393 -1.6747e-07 0)
(0.151994 -2.02604e-07 0)
(0.151475 -2.2251e-07 0)
(0.150824 -2.2749e-07 0)
(0.150028 -2.20462e-07 0)
(0.149072 -2.04694e-07 0)
(0.14794 -1.83609e-07 0)
(0.146616 -1.60476e-07 0)
(0.145083 -1.37653e-07 0)
(0.143323 -1.16417e-07 0)
(0.14132 -9.72326e-08 0)
(0.139057 -8.04761e-08 0)
(0.13652 -6.63392e-08 0)
(0.133699 -5.44424e-08 0)
(0.130589 -4.44809e-08 0)
(0.127194 -3.63436e-08 0)
(0.123527 -2.97018e-08 0)
(0.119615 -2.41811e-08 0)
(0.115496 -1.96142e-08 0)
(0.111226 -1.59196e-08 0)
(0.10687 -1.29062e-08 0)
(0.102502 -1.04118e-08 0)
(0.0981968 -8.38879e-09 0)
(0.0940246 -6.76331e-09 0)
(0.0900425 -5.44324e-09 0)
(0.0862913 -4.36959e-09 0)
(0.0827937 -3.5012e-09 0)
(0.0795559 -2.79478e-09 0)
(0.0765714 -2.20925e-09 0)
(0.0738256 -1.73959e-09 0)
(0.0713 -1.39634e-09 0)
(0.0689752 -1.07518e-09 0)
(0.0668335 -8.7569e-10 0)
(0.0648594 -5.61821e-10 0)
(0.0630399 1.49353e-09 0)
(0.0613641 3.33608e-11 0)
(0.0598229 -1.79835e-09 0)
(0.0584085 -6.41917e-11 0)
(0.0571141 -8.28745e-11 0)
(0.0559339 6.98471e-12 0)
(0.0548637 -3.69813e-11 0)
(0.0539007 -4.44332e-11 0)
(0.0530444 -4.81705e-11 0)
(0.0522976 -6.18336e-12 0)
(0.0516668 -1.12281e-10 0)
(0.0511648 3.59935e-11 0)
(0.0508129 -7.47157e-11 0)
(0.0506472 -1.0893e-10 0)
(0.0507338 1.73545e-10 0)
(0.0511993 -4.34674e-10 0)
(0.0521697 5.40473e-10 0)
(0.0558478 -8.00543e-10 0)
(0.0583789 8.89191e-10 0)
(0.0585802 -1.11703e-09 0)
(0.0585845 1.17747e-09 0)
(0.0585845 -1.37369e-09 0)
(0.0585845 1.40535e-09 0)
(0.0585845 -1.56949e-09 0)
(0.0585845 1.58237e-09 0)
(0.0585845 -1.73522e-09 0)
(0.0585845 1.74253e-09 0)
(0.0585845 -1.89338e-09 0)
(0.0585845 1.90824e-09 0)
(0.0585845 -2.0589e-09 0)
(0.0585845 2.08243e-09 0)
(0.0585845 -2.2373e-09 0)
(0.0585845 2.26974e-09 0)
(0.0585845 -2.42553e-09 0)
(0.0585845 2.46766e-09 0)
(0.0585845 -2.62672e-09 0)
(0.0585845 2.67753e-09 0)
(0.0585845 -2.83939e-09 0)
(0.0585845 2.89762e-09 0)
(0.0585845 -3.06706e-09 0)
(0.0585845 3.12812e-09 0)
(0.0585845 -3.30465e-09 0)
(0.0585845 3.36962e-09 0)
(0.0585845 -3.55658e-09 0)
(0.0585845 3.624e-09 0)
(0.0585845 -3.81833e-09 0)
(0.0585845 3.89052e-09 0)
(0.0585845 -4.09281e-09 0)
(0.0585845 4.16831e-09 0)
(0.0585845 -4.38003e-09 0)
(0.0585845 4.45729e-09 0)
(0.0585845 -4.67988e-09 0)
(0.0585845 4.76118e-09 0)
(0.0585845 -4.99225e-09 0)
(0.0585845 5.07226e-09 0)
(0.0585845 -5.32198e-09 0)
(0.0585845 5.39767e-09 0)
(0.0585845 -5.66338e-09 0)
(0.0585845 5.73548e-09 0)
(0.0585845 -6.02628e-09 0)
(0.0585845 6.08676e-09 0)
(0.0585845 -6.38946e-09 0)
(0.0585845 6.44652e-09 0)
(0.0585845 -6.78248e-09 0)
(0.0585845 6.81549e-09 0)
(0.0585845 -7.19345e-09 0)
(0.0585845 7.1898e-09 0)
(0.0585845 -7.62188e-09 0)
(0.0585845 7.57635e-09 0)
(0.0585845 -8.0638e-09 0)
(0.0585845 7.95637e-09 0)
(0.0585845 -8.53309e-09 0)
(0.0585845 8.32515e-09 0)
(0.0585845 -7.95161e-09 0)
(0.0585845 7.43625e-09 0)
(0.0585845 -8.10553e-09 0)
(0.0585845 7.43437e-09 0)
(0.0585845 -8.26528e-09 0)
(0.0585845 7.42607e-09 0)
(0.0585845 -8.43295e-09 0)
(0.0585845 7.41291e-09 0)
(0.0585845 -8.6032e-09 0)
(0.0585845 7.39419e-09 0)
(0.0585845 -8.79477e-09 0)
(0.0585845 7.3247e-09 0)
(0.0585845 -9.02474e-09 0)
(0.0585845 7.24844e-09 0)
(0.0585845 -9.26133e-09 0)
(0.0585845 7.11006e-09 0)
(0.0585845 -9.60336e-09 0)
(0.0585845 6.72807e-09 0)
(0.0585845 -1.06235e-08 0)
(0.0585845 5.14608e-09 0)
(0.0585845 -1.27457e-08 0)
(0.0585845 3.14266e-09 0)
(0.0585845 -1.48097e-08 0)
(0.0585845 1.26739e-09 0)
(0.0585845 -1.65256e-08 0)
(0.0585845 8.50331e-11 0)
(0.0585845 -1.78016e-08 0)
(0.0585845 -1.36641e-09 0)
(0.0585845 -1.9135e-08 0)
(0.0585845 -1.82092e-09 0)
(0.0585845 -1.91288e-08 0)
(0.0585845 -1.39873e-09 0)
(0.0585845 -1.81112e-08 0)
(0.0585845 6.31408e-10 0)
(0.0585845 -1.6158e-08 0)
(0.0585845 1.96548e-09 0)
(0.0585845 -1.47024e-08 0)
(0.0585845 4.6962e-09 0)
(0.0585845 -1.10315e-08 0)
(0.0585845 9.02013e-09 0)
(0.0585845 -5.94857e-09 0)
(0.0585845 1.47088e-08 0)
(0.0585845 1.21963e-09 0)
(0.0585845 2.44847e-08 0)
(0.0585845 1.08588e-08 0)
(0.0585845 3.02554e-08 0)
(0.0585845 1.58222e-08 0)
(0.0585845 3.32729e-08 0)
(0.0585845 7.79072e-10 0)
(0.0585845 9.12492e-09 0)
)
;

boundaryField
{
    inandouthalf11
    {
        type            cyclic;
    }
    inandouthalf12
    {
        type            cyclic;
    }
    inandouthalf21
    {
        type            cyclic;
    }
    inandouthalf22
    {
        type            cyclic;
    }
    inandouthalf31
    {
        type            cyclic;
    }
    inandouthalf32
    {
        type            cyclic;
    }
    inandouthalf41
    {
        type            cyclic;
    }
    inandouthalf42
    {
        type            cyclic;
    }
    top
    {
        type            symmetryPlane;
    }
    walls
    {
        type            calculated;
        value           uniform (0 0 0);
    }
    frontAndBackPlanes
    {
        type            empty;
    }
}


// ************************************************************************* //
