/*--------------------------------*- C++ -*----------------------------------*\
| =========                 |                                                 |
| \\      /  F ield         | OpenFOAM: The Open Source CFD Toolbox           |
|  \\    /   O peration     | Version:  2.4.x                                 |
|   \\  /    A nd           | Web:      www.OpenFOAM.org                      |
|    \\/     M anipulation  |                                                 |
\*---------------------------------------------------------------------------*/
FoamFile
{
    version     2.0;
    format      ascii;
    class       surfaceScalarField;
    location    "6";
    object      ddt0(phib);
}
// * * * * * * * * * * * * * * * * * * * * * * * * * * * * * * * * * * * * * //

dimensions      [0 3 -2 0 0 0 0];

internalField   nonuniform List<scalar> 
359
(
-2.4081e-13
-6.79846e-13
-1.08969e-12
-1.46645e-12
-1.84296e-12
-2.23063e-12
-2.62628e-12
-3.02472e-12
-3.423e-12
-3.82134e-12
-4.22111e-12
-4.62306e-12
-5.02755e-12
-5.43429e-12
-5.8431e-12
-6.25401e-12
-6.66718e-12
-7.08269e-12
-7.50028e-12
-7.91983e-12
-8.34059e-12
-8.76217e-12
-9.18385e-12
-9.60519e-12
-1.00258e-11
-1.04457e-11
-1.08656e-11
-1.12873e-11
-1.17133e-11
-1.21468e-11
-1.25921e-11
-1.30534e-11
-1.35337e-11
-1.40352e-11
-1.45555e-11
-1.50883e-11
-1.56208e-11
-1.6134e-11
-1.6603e-11
-1.6999e-11
-1.72966e-11
-1.74782e-11
-1.75434e-11
-1.75146e-11
-1.74402e-11
-1.73936e-11
-1.74711e-11
-1.77896e-11
-1.84905e-11
-1.97478e-11
-2.17764e-11
-2.48394e-11
-2.92031e-11
-3.49885e-11
-4.17869e-11
-4.80922e-11
-5.09966e-11
-4.73926e-11
-3.68184e-11
-2.30678e-11
-1.14191e-11
-4.46096e-12
-1.39868e-12
-3.65877e-13
-8.45846e-14
-1.84376e-14
-3.90267e-15
-6.86065e-16
1.00512e-16
2.90523e-16
3.39882e-16
3.54391e-16
3.26782e-16
3.04498e-16
3.00921e-16
2.66637e-16
2.59568e-16
2.21864e-16
1.86556e-16
1.70543e-16
1.36946e-16
1.02472e-16
5.59194e-17
1.40887e-17
-1.3718e-17
-5.65016e-17
-1.36355e-16
-1.6219e-16
-2.16042e-16
-2.41801e-16
-2.66002e-16
-2.97875e-16
-3.08304e-16
-3.55123e-16
-3.79724e-16
-4.29766e-16
-4.4716e-16
-4.93538e-16
-5.32217e-16
-5.52541e-16
-5.73743e-16
-5.85957e-16
-6.12611e-16
-6.27845e-16
-6.41161e-16
-6.47595e-16
-7.12872e-16
-7.30044e-16
-7.59515e-16
-7.86919e-16
-8.6915e-16
-8.64782e-16
-9.13411e-16
-9.29733e-16
-9.98446e-16
-1.05362e-15
-1.08994e-15
-1.13558e-15
-1.16406e-15
-1.1927e-15
-1.26422e-15
-1.26707e-15
-1.30652e-15
-1.36238e-15
-1.42146e-15
-1.47206e-15
-1.53007e-15
-1.57962e-15
-1.66317e-15
-1.75731e-15
-1.83209e-15
-1.90223e-15
-1.9913e-15
-2.05983e-15
-2.14801e-15
-2.2118e-15
-2.32725e-15
-2.52389e-15
-2.7442e-15
-2.8618e-15
-2.95107e-15
-3.31143e-15
-3.96263e-15
-5.30613e-15
-1.41707e-14
-2.08786e-14
1.52191e-12
-1.24947e-10
9.09699e-10
8.01231e-10
8.11065e-10
7.16981e-10
6.13234e-10
5.14201e-10
4.27451e-10
3.55134e-10
2.96401e-10
2.49074e-10
2.10947e-10
1.7997e-10
1.54554e-10
1.33487e-10
1.15851e-10
1.00962e-10
8.82959e-11
7.74562e-11
6.81309e-11
6.00759e-11
5.30948e-11
4.70282e-11
4.17441e-11
3.7132e-11
3.30985e-11
2.95635e-11
2.64583e-11
2.37237e-11
2.13086e-11
1.9169e-11
1.72669e-11
1.55696e-11
1.40493e-11
1.2682e-11
1.14474e-11
1.03285e-11
9.31036e-12
8.38064e-12
7.52845e-12
6.74384e-12
6.0173e-12
5.33935e-12
4.70061e-12
4.09229e-12
3.50737e-12
2.94107e-12
2.39184e-12
1.86356e-12
1.36682e-12
9.15997e-13
5.21915e-13
1.8358e-13
-1.07935e-13
-3.60546e-13
-5.72262e-13
-7.40457e-13
-8.52108e-13
-9.00137e-13
-8.95618e-13
-8.50443e-13
-7.76208e-13
-6.87743e-13
-5.95909e-13
-5.08218e-13
-4.27777e-13
-3.55343e-13
-2.9376e-13
-2.42106e-13
-1.97991e-13
-1.61734e-13
-1.32366e-13
-1.08034e-13
-8.76741e-14
-7.11142e-14
-5.78365e-14
-4.67275e-14
-3.76264e-14
-3.03779e-14
-2.44694e-14
-1.96663e-14
-1.57638e-14
-1.26251e-14
-1.00468e-14
-7.89783e-15
-6.19162e-15
-5.04553e-15
-3.93677e-15
-2.85241e-15
7.04308e-16
1.17026e-14
-5.16749e-15
-3.73978e-15
-1.76378e-16
-1.84684e-16
-1.78158e-16
-1.76281e-16
-1.77783e-16
-1.75052e-16
-1.59171e-16
-1.67805e-16
-1.66407e-16
-1.66565e-16
-1.65942e-16
-1.66908e-16
-1.66912e-16
-1.57918e-16
-1.50782e-16
-1.56038e-16
-1.50365e-16
-1.53244e-16
-1.46106e-16
-1.41844e-16
-1.41146e-16
-1.45581e-16
-1.4795e-16
-1.39319e-16
-1.36362e-16
-1.28033e-16
-1.29348e-16
-1.30436e-16
-1.21748e-16
-1.16588e-16
-1.16302e-16
-1.12677e-16
-1.0828e-16
-1.05836e-16
-1.04757e-16
-1.08685e-16
-1.18782e-16
-1.06101e-16
-1.17768e-16
-1.2483e-16
-1.22022e-16
-1.24943e-16
-1.25779e-16
-1.27695e-16
-1.33259e-16
-1.31885e-16
-1.41035e-16
-1.47404e-16
-1.42878e-16
-1.45083e-16
-1.60264e-16
-1.75405e-16
-1.80561e-16
-1.88795e-16
-2.02558e-16
-2.31449e-16
-2.18235e-16
-2.35197e-16
-2.5388e-16
-2.97263e-16
-3.12624e-16
-3.61471e-16
-4.00767e-16
-4.73662e-16
-4.90143e-16
-5.56783e-16
-6.18798e-16
-7.3515e-16
-8.27876e-16
-9.69063e-16
-1.09831e-15
-1.26342e-15
-1.41347e-15
-1.58644e-15
-1.75293e-15
-1.93212e-15
-2.12066e-15
-2.29678e-15
-2.49372e-15
-2.67586e-15
-3.02297e-15
-3.32362e-15
-3.64308e-15
-3.87337e-15
-4.38055e-15
-4.7945e-15
-5.53864e-15
-6.97071e-15
-1.08598e-14
-1.50599e-14
-1.95471e-14
-2.29684e-14
-2.76546e-14
-3.05035e-14
-3.346e-14
-3.43554e-14
-3.9142e-14
-4.10657e-14
-4.30062e-14
-4.11289e-14
-4.23148e-14
-3.90498e-14
-3.59791e-14
-2.90427e-14
-2.9604e-14
-2.55503e-14
-2.15793e-14
-1.1963e-14
-5.26657e-15
5.99869e-15
1.78641e-14
2.7712e-14
5.34131e-14
7.09391e-14
8.86164e-14
8.09503e-14
1.18424e-13
7.77698e-14
4.47829e-16
)
;

boundaryField
{
    inandouthalf11
    {
        type            cyclic;
        value           nonuniform List<scalar> 
100
(
-6.70722e-11
-6.67771e-11
-6.67326e-11
-6.67931e-11
-6.68381e-11
-6.68677e-11
-6.68974e-11
-6.69294e-11
-6.69618e-11
-6.69946e-11
-6.70279e-11
-6.70613e-11
-6.70949e-11
-6.71288e-11
-6.71629e-11
-6.71974e-11
-6.72322e-11
-6.72673e-11
-6.73027e-11
-6.73385e-11
-6.73744e-11
-6.74107e-11
-6.74473e-11
-6.74841e-11
-6.75211e-11
-6.75583e-11
-6.75957e-11
-6.76335e-11
-6.76717e-11
-6.77102e-11
-6.77494e-11
-6.77895e-11
-6.78303e-11
-6.78727e-11
-6.79159e-11
-6.79603e-11
-6.80052e-11
-6.80503e-11
-6.80946e-11
-6.81364e-11
-6.81754e-11
-6.82097e-11
-6.82389e-11
-6.82638e-11
-6.82851e-11
-6.83059e-11
-6.83297e-11
-6.83612e-11
-6.84069e-11
-6.84742e-11
-6.85717e-11
-6.87121e-11
-6.89086e-11
-6.91737e-11
-6.95053e-11
-6.98645e-11
-7.01423e-11
-7.01705e-11
-6.98283e-11
-6.91997e-11
-6.8556e-11
-6.81187e-11
-6.79137e-11
-6.78492e-11
-6.78423e-11
-6.78531e-11
-6.7869e-11
-6.78864e-11
-6.79046e-11
-6.79234e-11
-6.79433e-11
-6.79639e-11
-6.79848e-11
-6.80067e-11
-6.80291e-11
-6.80521e-11
-6.80754e-11
-6.80992e-11
-6.81236e-11
-6.81486e-11
-6.81741e-11
-6.82004e-11
-6.82275e-11
-6.82552e-11
-6.82837e-11
-6.83128e-11
-6.83427e-11
-6.83731e-11
-6.84042e-11
-6.84359e-11
-6.84684e-11
-6.85015e-11
-6.85355e-11
-6.85703e-11
-6.86059e-11
-6.86423e-11
-6.86797e-11
-6.87179e-11
-6.8757e-11
-6.87971e-11
)
;
    }
    inandouthalf12
    {
        type            cyclic;
        value           nonuniform List<scalar> 
100
(
6.70722e-11
6.67771e-11
6.67326e-11
6.67931e-11
6.68381e-11
6.68677e-11
6.68974e-11
6.69294e-11
6.69618e-11
6.69946e-11
6.70279e-11
6.70613e-11
6.70949e-11
6.71288e-11
6.71629e-11
6.71974e-11
6.72322e-11
6.72673e-11
6.73027e-11
6.73385e-11
6.73744e-11
6.74107e-11
6.74473e-11
6.74841e-11
6.75211e-11
6.75583e-11
6.75957e-11
6.76335e-11
6.76717e-11
6.77102e-11
6.77494e-11
6.77895e-11
6.78303e-11
6.78727e-11
6.79159e-11
6.79603e-11
6.80052e-11
6.80503e-11
6.80946e-11
6.81364e-11
6.81754e-11
6.82097e-11
6.82389e-11
6.82638e-11
6.82851e-11
6.83059e-11
6.83297e-11
6.83612e-11
6.84069e-11
6.84742e-11
6.85717e-11
6.87121e-11
6.89086e-11
6.91737e-11
6.95053e-11
6.98645e-11
7.01423e-11
7.01705e-11
6.98283e-11
6.91997e-11
6.8556e-11
6.81187e-11
6.79137e-11
6.78492e-11
6.78423e-11
6.78531e-11
6.7869e-11
6.78864e-11
6.79046e-11
6.79234e-11
6.79433e-11
6.79639e-11
6.79848e-11
6.80067e-11
6.80291e-11
6.80521e-11
6.80754e-11
6.80992e-11
6.81236e-11
6.81486e-11
6.81741e-11
6.82004e-11
6.82275e-11
6.82552e-11
6.82837e-11
6.83128e-11
6.83427e-11
6.83731e-11
6.84042e-11
6.84359e-11
6.84684e-11
6.85015e-11
6.85355e-11
6.85703e-11
6.86059e-11
6.86423e-11
6.86797e-11
6.87179e-11
6.8757e-11
6.87971e-11
)
;
    }
    inandouthalf21
    {
        type            cyclic;
        value           nonuniform List<scalar> 
100
(
-6.88381e-11
-6.88801e-11
-6.89232e-11
-6.89673e-11
-6.90126e-11
-6.9059e-11
-6.91066e-11
-6.91555e-11
-6.92057e-11
-6.92573e-11
-6.93103e-11
-6.93647e-11
-6.94208e-11
-6.94785e-11
-6.95378e-11
-6.9599e-11
-6.9662e-11
-6.9727e-11
-6.9794e-11
-6.98632e-11
-6.99346e-11
-7.00083e-11
-7.00846e-11
-7.01634e-11
-7.0245e-11
-7.03294e-11
-7.04169e-11
-7.05078e-11
-7.06023e-11
-7.07008e-11
-7.08034e-11
-7.09103e-11
-7.1022e-11
-7.11399e-11
-7.12654e-11
-7.13982e-11
-7.15379e-11
-7.16864e-11
-7.18514e-11
-7.20409e-11
-7.22463e-11
-7.24425e-11
-7.26777e-11
-7.29839e-11
-7.33653e-11
-7.40687e-11
-7.69244e-11
-5.52915e-10
-7.13265e-08
-7.56883e-08
-7.29547e-08
-7.44422e-08
-7.77154e-08
-8.1758e-08
-8.60387e-08
-9.02735e-08
-9.4319e-08
-9.81128e-08
-1.01638e-07
-1.04901e-07
-1.07921e-07
-1.10719e-07
-1.1332e-07
-1.15744e-07
-1.18013e-07
-1.20143e-07
-1.22149e-07
-1.24046e-07
-1.25845e-07
-1.27554e-07
-1.29183e-07
-1.30737e-07
-1.32224e-07
-1.33648e-07
-1.35013e-07
-1.36323e-07
-1.37579e-07
-1.38785e-07
-1.39943e-07
-1.41053e-07
-1.42117e-07
-1.43135e-07
-1.44108e-07
-1.45036e-07
-1.45919e-07
-1.46756e-07
-1.47546e-07
-1.4829e-07
-1.48986e-07
-1.49633e-07
-1.5023e-07
-1.50774e-07
-1.51265e-07
-1.517e-07
-1.52078e-07
-1.52395e-07
-1.5265e-07
-1.52839e-07
-1.5296e-07
-1.53009e-07
)
;
    }
    inandouthalf22
    {
        type            cyclic;
        value           nonuniform List<scalar> 
100
(
6.88381e-11
6.88801e-11
6.89232e-11
6.89673e-11
6.90126e-11
6.9059e-11
6.91066e-11
6.91555e-11
6.92057e-11
6.92573e-11
6.93103e-11
6.93647e-11
6.94208e-11
6.94785e-11
6.95378e-11
6.9599e-11
6.9662e-11
6.9727e-11
6.9794e-11
6.98632e-11
6.99346e-11
7.00083e-11
7.00846e-11
7.01634e-11
7.0245e-11
7.03294e-11
7.04169e-11
7.05078e-11
7.06023e-11
7.07008e-11
7.08034e-11
7.09103e-11
7.1022e-11
7.11399e-11
7.12654e-11
7.13982e-11
7.15379e-11
7.16864e-11
7.18514e-11
7.20409e-11
7.22463e-11
7.24425e-11
7.26777e-11
7.29839e-11
7.33653e-11
7.40687e-11
7.69244e-11
5.52915e-10
7.13265e-08
7.56883e-08
7.29547e-08
7.44422e-08
7.77154e-08
8.1758e-08
8.60387e-08
9.02735e-08
9.4319e-08
9.81128e-08
1.01638e-07
1.04901e-07
1.07921e-07
1.10719e-07
1.1332e-07
1.15744e-07
1.18013e-07
1.20143e-07
1.22149e-07
1.24046e-07
1.25845e-07
1.27554e-07
1.29183e-07
1.30737e-07
1.32224e-07
1.33648e-07
1.35013e-07
1.36323e-07
1.37579e-07
1.38785e-07
1.39943e-07
1.41053e-07
1.42117e-07
1.43135e-07
1.44108e-07
1.45036e-07
1.45919e-07
1.46756e-07
1.47546e-07
1.4829e-07
1.48986e-07
1.49633e-07
1.5023e-07
1.50774e-07
1.51265e-07
1.517e-07
1.52078e-07
1.52395e-07
1.5265e-07
1.52839e-07
1.5296e-07
1.53009e-07
)
;
    }
    inandouthalf31
    {
        type            cyclic;
        value           nonuniform List<scalar> 
110
(
-1.52984e-07
-1.55981e-07
-1.58946e-07
-1.61863e-07
-1.64716e-07
-1.67485e-07
-1.70151e-07
-1.72688e-07
-1.75069e-07
-1.77267e-07
-1.79246e-07
-1.80972e-07
-1.82406e-07
-1.83507e-07
-1.84233e-07
-1.84543e-07
-1.84398e-07
-1.83765e-07
-1.82621e-07
-1.80956e-07
-1.78781e-07
-1.76129e-07
-1.7306e-07
-1.69657e-07
-1.66026e-07
-1.62281e-07
-1.5854e-07
-1.54907e-07
-1.51467e-07
-1.48277e-07
-1.45371e-07
-1.42757e-07
-1.40432e-07
-1.3838e-07
-1.36585e-07
-1.3503e-07
-1.33702e-07
-1.32589e-07
-1.31684e-07
-1.30982e-07
-1.30481e-07
-1.30179e-07
-1.30077e-07
-1.30178e-07
-1.30489e-07
-1.31022e-07
-1.31799e-07
-1.32853e-07
-1.34232e-07
-1.36015e-07
-1.38323e-07
-1.41372e-07
-1.45565e-07
-1.51334e-07
-1.65292e-07
-1.7629e-07
-1.80489e-07
-1.84166e-07
-1.87904e-07
-1.91718e-07
-1.95609e-07
-1.9958e-07
-2.03631e-07
-2.07764e-07
-2.11981e-07
-2.16284e-07
-2.20674e-07
-2.25153e-07
-2.29723e-07
-2.34385e-07
-2.39143e-07
-2.43997e-07
-2.48949e-07
-2.54002e-07
-2.59158e-07
-2.64418e-07
-2.69785e-07
-2.75261e-07
-2.80848e-07
-2.86548e-07
-2.92365e-07
-2.98299e-07
-3.04353e-07
-3.10531e-07
-3.16834e-07
-3.23265e-07
-3.29826e-07
-3.36521e-07
-3.43351e-07
-3.5032e-07
-3.57431e-07
-3.64686e-07
-3.72088e-07
-3.79641e-07
-3.87346e-07
-3.95208e-07
-4.0323e-07
-4.11414e-07
-4.19765e-07
-4.28285e-07
-4.36978e-07
-4.45848e-07
-4.54897e-07
-4.6413e-07
-4.73551e-07
-4.83163e-07
-4.9297e-07
-5.02976e-07
-5.13185e-07
-5.23601e-07
)
;
    }
    inandouthalf32
    {
        type            cyclic;
        value           nonuniform List<scalar> 
110
(
1.52984e-07
1.55981e-07
1.58946e-07
1.61863e-07
1.64716e-07
1.67485e-07
1.70151e-07
1.72688e-07
1.75069e-07
1.77267e-07
1.79246e-07
1.80972e-07
1.82406e-07
1.83507e-07
1.84233e-07
1.84543e-07
1.84398e-07
1.83765e-07
1.82621e-07
1.80956e-07
1.78781e-07
1.76129e-07
1.7306e-07
1.69657e-07
1.66026e-07
1.62281e-07
1.5854e-07
1.54907e-07
1.51467e-07
1.48277e-07
1.45371e-07
1.42757e-07
1.40432e-07
1.3838e-07
1.36585e-07
1.3503e-07
1.33702e-07
1.32589e-07
1.31684e-07
1.30982e-07
1.30481e-07
1.30179e-07
1.30077e-07
1.30178e-07
1.30489e-07
1.31022e-07
1.31799e-07
1.32853e-07
1.34232e-07
1.36015e-07
1.38323e-07
1.41372e-07
1.45565e-07
1.51334e-07
1.65292e-07
1.7629e-07
1.80489e-07
1.84166e-07
1.87904e-07
1.91718e-07
1.95609e-07
1.9958e-07
2.03631e-07
2.07764e-07
2.11981e-07
2.16284e-07
2.20674e-07
2.25153e-07
2.29723e-07
2.34385e-07
2.39143e-07
2.43997e-07
2.48949e-07
2.54002e-07
2.59158e-07
2.64418e-07
2.69785e-07
2.75261e-07
2.80848e-07
2.86548e-07
2.92365e-07
2.98299e-07
3.04353e-07
3.10531e-07
3.16834e-07
3.23265e-07
3.29826e-07
3.36521e-07
3.43351e-07
3.5032e-07
3.57431e-07
3.64686e-07
3.72088e-07
3.79641e-07
3.87346e-07
3.95208e-07
4.0323e-07
4.11414e-07
4.19765e-07
4.28285e-07
4.36978e-07
4.45848e-07
4.54897e-07
4.6413e-07
4.73551e-07
4.83163e-07
4.9297e-07
5.02976e-07
5.13185e-07
5.23601e-07
)
;
    }
    inandouthalf41
    {
        type            cyclic;
        value           nonuniform List<scalar> 
50
(
-4.68676e-07
-4.68676e-07
-4.68676e-07
-4.68676e-07
-4.68676e-07
-4.68676e-07
-4.68676e-07
-4.68676e-07
-4.68676e-07
-4.68676e-07
-4.68676e-07
-4.68676e-07
-4.68676e-07
-4.68676e-07
-4.68676e-07
-4.68676e-07
-4.68676e-07
-4.68676e-07
-4.68676e-07
-4.68676e-07
-4.68676e-07
-4.68676e-07
-4.68676e-07
-4.68676e-07
-4.68676e-07
-4.68676e-07
-4.68676e-07
-4.68676e-07
-4.68676e-07
-4.68676e-07
-4.68676e-07
-4.68676e-07
-4.68676e-07
-4.68676e-07
-4.68676e-07
-4.68676e-07
-4.68676e-07
-4.68676e-07
-4.68676e-07
-4.68676e-07
-4.68676e-07
-4.68676e-07
-4.68676e-07
-4.68676e-07
-4.68676e-07
-4.68676e-07
-4.68676e-07
-4.68676e-07
-4.68676e-07
-4.68676e-07
)
;
    }
    inandouthalf42
    {
        type            cyclic;
        value           nonuniform List<scalar> 
50
(
4.68676e-07
4.68676e-07
4.68676e-07
4.68676e-07
4.68676e-07
4.68676e-07
4.68676e-07
4.68676e-07
4.68676e-07
4.68676e-07
4.68676e-07
4.68676e-07
4.68676e-07
4.68676e-07
4.68676e-07
4.68676e-07
4.68676e-07
4.68676e-07
4.68676e-07
4.68676e-07
4.68676e-07
4.68676e-07
4.68676e-07
4.68676e-07
4.68676e-07
4.68676e-07
4.68676e-07
4.68676e-07
4.68676e-07
4.68676e-07
4.68676e-07
4.68676e-07
4.68676e-07
4.68676e-07
4.68676e-07
4.68676e-07
4.68676e-07
4.68676e-07
4.68676e-07
4.68676e-07
4.68676e-07
4.68676e-07
4.68676e-07
4.68676e-07
4.68676e-07
4.68676e-07
4.68676e-07
4.68676e-07
4.68676e-07
4.68676e-07
)
;
    }
    top
    {
        type            symmetryPlane;
        value           uniform 0;
    }
    walls
    {
        type            calculated;
        value           uniform 0;
    }
    frontAndBackPlanes
    {
        type            empty;
        value           nonuniform 0();
    }
}


// ************************************************************************* //
