/*--------------------------------*- C++ -*----------------------------------*\
| =========                 |                                                 |
| \\      /  F ield         | OpenFOAM: The Open Source CFD Toolbox           |
|  \\    /   O peration     | Version:  2.4.x                                 |
|   \\  /    A nd           | Web:      www.OpenFOAM.org                      |
|    \\/     M anipulation  |                                                 |
\*---------------------------------------------------------------------------*/
FoamFile
{
    version     2.0;
    format      ascii;
    class       volScalarField;
    location    "6";
    object      epsilon;
}
// * * * * * * * * * * * * * * * * * * * * * * * * * * * * * * * * * * * * * //

dimensions      [0 2 -3 0 0 0 0];

internalField   nonuniform List<scalar> 
360
(
1e-20
1e-20
1e-20
1e-20
1e-20
1e-20
1e-20
1e-20
1e-20
1e-20
1e-20
1e-20
1e-20
1e-20
1e-20
1e-20
1e-20
1e-20
1e-20
1e-20
1e-20
1e-20
1e-20
1e-20
1e-20
1e-20
1e-20
1e-20
1e-20
1e-20
1e-20
1e-20
1e-20
1e-20
1e-20
1e-20
1e-20
1e-20
1e-20
1e-20
1e-20
1e-20
1e-20
1e-20
1e-20
1e-20
1e-20
1e-20
1e-20
1e-20
1e-20
1e-20
1e-20
1e-20
1e-20
1e-20
1e-20
1e-20
1e-20
1e-20
1e-20
1e-20
1e-20
1e-20
1e-20
1e-20
1e-20
1e-20
1e-20
1e-20
1e-20
1e-20
1e-20
1e-20
1e-20
1e-20
1e-20
1e-20
1e-20
1e-20
1e-20
1e-20
1e-20
1e-20
1e-20
1e-20
1e-20
1e-20
1e-20
1e-20
1e-20
1e-20
1e-20
1e-20
1e-20
1e-20
1e-20
1e-20
1e-20
1e-20
1e-20
1e-20
1e-20
1e-20
1e-20
1e-20
1e-20
1e-20
1e-20
1e-20
1e-20
1e-20
1e-20
1e-20
1e-20
1e-20
1e-20
1e-20
1e-20
1e-20
1e-20
1e-20
1e-20
1e-20
1e-20
1e-20
1e-20
1e-20
1e-20
1e-20
1e-20
1e-20
2.05457e-20
1.00087e-19
5.71232e-19
3.61269e-18
2.55159e-17
2.03364e-16
1.8492e-15
1.94117e-14
2.38184e-13
3.46195e-12
6.04517e-11
1.28362e-09
3.34632e-08
1.07976e-06
4.31605e-05
0.00192591
0.0438251
0.139422
0.152061
0.145678
0.134636
0.122983
0.112059
0.102259
0.0936212
0.0860531
0.079422
0.0735943
0.0684489
0.0638818
0.0598053
0.0561463
0.0528443
0.0498489
0.0471183
0.0446175
0.0423172
0.0401927
0.038223
0.0363904
0.0346795
0.0330773
0.0315725
0.0301553
0.0288171
0.0275506
0.0263492
0.0252072
0.0241194
0.0230816
0.0220896
0.0211401
0.0202298
0.019356
0.0185162
0.0177081
0.0169298
0.0161796
0.0154557
0.0147568
0.0140816
0.013429
0.0127979
0.0121875
0.0115969
0.0110254
0.0104724
0.00993742
0.00941986
0.00891428
0.00841598
0.00792549
0.0074434
0.00697035
0.00650708
0.00605437
0.00561309
0.00518419
0.00476866
0.00436758
0.00398207
0.00361327
0.00326235
0.00293045
0.00261867
0.002328
0.00205928
0.00181312
0.00158989
0.00138961
0.00121192
0.00105608
0.000920989
0.000805171
0.000706902
0.000624283
0.00055534
0.000498126
0.000450787
0.000411624
0.000379111
0.000351906
0.000328848
0.000308935
0.000291313
0.000275258
0.000260158
0.000245504
0.000230879
0.000215953
0.000200476
0.000184275
0.000167255
0.000149401
0.000130776
0.000111537
9.19369e-05
7.23483e-05
5.32869e-05
3.54539e-05
1.97969e-05
7.56949e-06
1.16851e-06
4.68012e-08
9.06429e-10
1.5727e-11
2.56532e-13
3.93988e-15
5.70126e-17
7.84891e-19
1.82436e-20
1e-20
1e-20
1e-20
1e-20
1e-20
1e-20
1e-20
1e-20
1e-20
1e-20
1e-20
1e-20
1e-20
1e-20
1e-20
1e-20
1e-20
1e-20
1e-20
1e-20
1e-20
1e-20
1e-20
1e-20
1e-20
1e-20
1e-20
1e-20
1e-20
1e-20
1e-20
1e-20
1e-20
1e-20
1e-20
1e-20
1e-20
1e-20
1e-20
1e-20
1e-20
1e-20
1e-20
1e-20
1e-20
1e-20
1e-20
1e-20
1e-20
1e-20
1e-20
1e-20
1e-20
1e-20
1e-20
1e-20
1e-20
1e-20
1e-20
1e-20
1e-20
1e-20
1e-20
1e-20
1e-20
1e-20
1e-20
1e-20
1e-20
1e-20
1e-20
1e-20
1e-20
1e-20
1e-20
1e-20
1e-20
1e-20
1e-20
1e-20
1e-20
1e-20
1e-20
1e-20
1e-20
1e-20
1e-20
1e-20
1e-20
1e-20
1e-20
1e-20
1e-20
1e-20
1e-20
1e-20
1e-20
)
;

boundaryField
{
    inandouthalf11
    {
        type            cyclic;
    }
    inandouthalf12
    {
        type            cyclic;
    }
    inandouthalf21
    {
        type            cyclic;
    }
    inandouthalf22
    {
        type            cyclic;
    }
    inandouthalf31
    {
        type            cyclic;
    }
    inandouthalf32
    {
        type            cyclic;
    }
    inandouthalf41
    {
        type            cyclic;
    }
    inandouthalf42
    {
        type            cyclic;
    }
    top
    {
        type            symmetryPlane;
    }
    walls
    {
        type            zeroGradient;
    }
    frontAndBackPlanes
    {
        type            empty;
    }
}


// ************************************************************************* //
