/*--------------------------------*- C++ -*----------------------------------*\
| =========                 |                                                 |
| \\      /  F ield         | OpenFOAM: The Open Source CFD Toolbox           |
|  \\    /   O peration     | Version:  2.4.x                                 |
|   \\  /    A nd           | Web:      www.OpenFOAM.org                      |
|    \\/     M anipulation  |                                                 |
\*---------------------------------------------------------------------------*/
FoamFile
{
    version     2.0;
    format      ascii;
    class       volScalarField;
    location    "6";
    object      epsilon_0;
}
// * * * * * * * * * * * * * * * * * * * * * * * * * * * * * * * * * * * * * //

dimensions      [0 2 -3 0 0 0 0];

internalField   nonuniform List<scalar> 
360
(
1.60309e-27
1e-20
1e-20
1e-20
1e-20
1e-20
1e-20
1e-20
1e-20
1e-20
1e-20
1e-20
1e-20
1e-20
1e-20
1e-20
1e-20
1e-20
1e-20
1e-20
1e-20
1e-20
1e-20
1e-20
1e-20
1e-20
1e-20
1e-20
1e-20
1e-20
1e-20
1e-20
1e-20
1e-20
1e-20
1e-20
1e-20
1e-20
1e-20
1e-20
1e-20
1e-20
1e-20
1e-20
1e-20
1e-20
1e-20
1e-20
1e-20
1e-20
1e-20
1e-20
1e-20
1e-20
1e-20
1e-20
1e-20
1e-20
1e-20
1e-20
1e-20
1e-20
1e-20
1e-20
1e-20
1e-20
1e-20
1e-20
1e-20
1e-20
1e-20
1e-20
1e-20
1e-20
1e-20
1e-20
1e-20
1e-20
1e-20
1e-20
1e-20
1e-20
1e-20
1e-20
1e-20
1e-20
1e-20
1e-20
1e-20
1e-20
1e-20
1e-20
1e-20
1e-20
1e-20
1e-20
1e-20
1e-20
1e-20
1e-20
1e-20
1e-20
1e-20
1e-20
1e-20
1e-20
1e-20
1e-20
1e-20
1e-20
1e-20
1e-20
1e-20
1e-20
1e-20
1e-20
1e-20
1e-20
1e-20
1e-20
1e-20
1e-20
1e-20
1e-20
1e-20
1e-20
1e-20
1e-20
1e-20
1e-20
1e-20
1e-20
2.05486e-20
1.00103e-19
5.71312e-19
3.61315e-18
2.55191e-17
2.03391e-16
1.84949e-15
1.94152e-14
2.38235e-13
3.46282e-12
6.04692e-11
1.28404e-09
3.34754e-08
1.08019e-06
4.31794e-05
0.00192675
0.0438385
0.139435
0.15207
0.145686
0.134643
0.12299
0.112065
0.102265
0.0936265
0.0860579
0.0794264
0.0735982
0.0684525
0.0638851
0.0598082
0.056149
0.0528467
0.0498511
0.0471203
0.0446193
0.0423189
0.0401942
0.0382244
0.0363916
0.0346806
0.0330783
0.0315734
0.0301561
0.0288178
0.0275512
0.0263497
0.0252075
0.0241197
0.0230818
0.0220898
0.0211401
0.0202298
0.0193559
0.018516
0.0177079
0.0169296
0.0161792
0.0154553
0.0147563
0.0140811
0.0134284
0.0127973
0.0121868
0.0115962
0.0110247
0.0104717
0.00993662
0.00941903
0.00891342
0.00841509
0.00792458
0.00744247
0.00696941
0.00650612
0.00605341
0.00561213
0.00518323
0.00476771
0.00436664
0.00398115
0.00361237
0.00326148
0.00292963
0.00261789
0.00232727
0.0020586
0.00181251
0.00158934
0.00138912
0.00121149
0.00105572
0.000920685
0.000804922
0.000706702
0.000624126
0.000555222
0.000498039
0.000450727
0.000411585
0.000379089
0.000351898
0.00032885
0.000308944
0.000291328
0.000275276
0.000260177
0.000245523
0.000230898
0.00021597
0.000200491
0.000184286
0.000167263
0.000149405
0.000130777
0.000111534
9.19305e-05
7.23391e-05
5.32755e-05
3.54414e-05
1.9785e-05
7.5602e-06
1.16557e-06
4.66204e-08
9.02664e-10
1.566e-11
2.55414e-13
3.92233e-15
5.67533e-17
7.8128e-19
1.81974e-20
1e-20
1e-20
1e-20
1e-20
1e-20
1e-20
1e-20
1e-20
1e-20
1e-20
1e-20
1e-20
1e-20
1e-20
1e-20
1e-20
1e-20
1e-20
1e-20
1e-20
1e-20
1e-20
1e-20
1e-20
1e-20
1e-20
1e-20
1e-20
1e-20
1e-20
1e-20
1e-20
1e-20
1e-20
1e-20
1e-20
1e-20
1e-20
1e-20
1e-20
1e-20
1e-20
1e-20
1e-20
1e-20
1e-20
1e-20
1e-20
1e-20
1e-20
1e-20
1e-20
1e-20
1e-20
1e-20
1e-20
1e-20
1e-20
1e-20
1e-20
1e-20
1e-20
1e-20
1e-20
1e-20
1e-20
1e-20
1e-20
1e-20
1e-20
1e-20
1e-20
1e-20
1e-20
1e-20
1e-20
1e-20
1e-20
1e-20
1e-20
1e-20
1e-20
1e-20
1e-20
1e-20
1e-20
1e-20
1e-20
1e-20
1e-20
1e-20
1e-20
1e-20
1e-20
1e-20
1e-20
1e-20
)
;

boundaryField
{
    inandouthalf11
    {
        type            cyclic;
    }
    inandouthalf12
    {
        type            cyclic;
    }
    inandouthalf21
    {
        type            cyclic;
    }
    inandouthalf22
    {
        type            cyclic;
    }
    inandouthalf31
    {
        type            cyclic;
    }
    inandouthalf32
    {
        type            cyclic;
    }
    inandouthalf41
    {
        type            cyclic;
    }
    inandouthalf42
    {
        type            cyclic;
    }
    top
    {
        type            symmetryPlane;
    }
    walls
    {
        type            zeroGradient;
    }
    frontAndBackPlanes
    {
        type            empty;
    }
}


// ************************************************************************* //
