/*--------------------------------*- C++ -*----------------------------------*\
| =========                 |                                                 |
| \\      /  F ield         | OpenFOAM: The Open Source CFD Toolbox           |
|  \\    /   O peration     | Version:  2.4.x                                 |
|   \\  /    A nd           | Web:      www.OpenFOAM.org                      |
|    \\/     M anipulation  |                                                 |
\*---------------------------------------------------------------------------*/
FoamFile
{
    version     2.0;
    format      ascii;
    class       volVectorField;
    location    "6";
    object      gradPf;
}
// * * * * * * * * * * * * * * * * * * * * * * * * * * * * * * * * * * * * * //

dimensions      [0 1 -2 0 0 0 0];

internalField   nonuniform List<vector> 
360
(
(0 56.8194 0)
(0 67.101 0)
(0 3.95517 0)
(0 -10.5818 0)
(-3.34577e-14 -5.93666 0)
(-3.34588e-14 -3.40458 0)
(-3.34599e-14 -3.5682 0)
(0 -3.8587 0)
(-3.34624e-14 -3.94307 0)
(0 -4.02704 0)
(-1.67325e-14 -4.0408 0)
(0 -4.0191 0)
(-1.67339e-14 -4.00364 0)
(0 -3.99109 0)
(0 -4.0027 0)
(0 -4.02058 0)
(0 -4.02579 0)
(-3.34747e-14 -4.02225 0)
(0 -4.03826 0)
(0 -4.03284 0)
(0 -4.02902 0)
(-3.34805e-14 -4.04693 0)
(0 -4.04494 0)
(0 -4.04836 0)
(0 -4.05078 0)
(-3.34865e-14 -4.0417 0)
(0 -4.05005 0)
(0 -4.05974 0)
(0 -4.04918 0)
(0 -4.04512 0)
(0 -4.06519 0)
(0 -4.05137 0)
(0 -4.06959 0)
(0 -4.09003 0)
(0 -4.08354 0)
(3.35026e-14 -4.09878 0)
(0 -4.10938 0)
(0 -4.14648 0)
(0 -4.11528 0)
(0 -4.11452 0)
(0 -4.12893 0)
(0 -4.05564 0)
(3.35149e-14 -4.03875 0)
(0 -4.00909 0)
(0 -3.94498 0)
(0 -3.92317 0)
(0 -3.86259 0)
(0 -3.84675 0)
(0 -3.92424 0)
(0 -3.9567 0)
(1.67647e-14 -4.03841 0)
(0 -4.20697 0)
(0 -4.42185 0)
(0 -4.68541 0)
(0 -5.02 0)
(0 -5.31508 0)
(0 -5.45453 0)
(0 -5.33634 0)
(0 -4.82727 0)
(0 -4.17987 0)
(0 -3.53835 0)
(0 -3.0818 0)
(0 -2.87496 0)
(0 -2.79448 0)
(0 -2.80201 0)
(0 -2.84955 0)
(0 -2.9253 0)
(0 -2.9944 0)
(0 -3.05731 0)
(0 -3.16078 0)
(0 -3.2786 0)
(0 -3.32311 0)
(0 -3.3857 0)
(0 -3.4594 0)
(0 -3.50594 0)
(0 -3.53676 0)
(0 -3.55285 0)
(0 -3.59394 0)
(0 -3.63674 0)
(0 -3.67331 0)
(0 -3.71819 0)
(0 -3.77416 0)
(0 -3.82214 0)
(0 -3.86622 0)
(0 -3.9047 0)
(0 -3.93754 0)
(0 -3.96356 0)
(0 -3.98301 0)
(0 -4.00456 0)
(0 -4.0267 0)
(0 -4.04844 0)
(0 -4.07324 0)
(0 -4.0998 0)
(0 -4.12493 0)
(0 -4.1488 0)
(0 -4.1709 0)
(0 -4.1907 0)
(0 -4.20855 0)
(0 -4.22524 0)
(0 -4.24103 0)
(0 -4.25605 0)
(0 -4.27068 0)
(0 -4.28478 0)
(0 -4.29808 0)
(0 -4.3106 0)
(0 -4.32232 0)
(0 -4.33326 0)
(0 -4.34346 0)
(0 -4.35296 0)
(0 -4.3617 0)
(0 -4.36962 0)
(0 -4.37663 0)
(0 -4.38263 0)
(0 -4.38751 0)
(0 -4.39114 0)
(0 -4.3934 0)
(0 -4.39419 0)
(0 -4.39341 0)
(0 -4.39095 0)
(0 -4.38671 0)
(0 -4.38051 0)
(0 -4.37212 0)
(0 -4.36129 0)
(0 -4.348 0)
(0 -4.33269 0)
(0 -4.31651 0)
(0 -4.30101 0)
(0 -4.28716 0)
(0 -4.27368 0)
(0 -4.25665 0)
(0 -4.23317 0)
(0 -4.20976 0)
(0 -4.20447 0)
(0 -4.22493 0)
(0 -4.24179 0)
(0 -4.22042 0)
(0 -4.19459 0)
(0 -4.26907 0)
(0 -4.48642 0)
(0 -4.61554 0)
(0 -4.32014 0)
(0 -4.22359 0)
(0 -4.7692 0)
(0 -5.32629 0)
(0 -6.81849 0)
(0 -11.5866 0)
(0 -11.2234 0)
(0 -5.38392 0)
(0 -2.82175 0)
(0 0 0)
(0 0 0)
(0 0 0)
(0 0 0)
(0 0 0)
(0 0 0)
(0 0 0)
(0 0 0)
(0 0 0)
(0 0 0)
(0 0 0)
(0 0 0)
(0 0 0)
(0 0 0)
(0 0 0)
(0 0 0)
(0 0 0)
(0 0 0)
(0 0 0)
(0 0 0)
(0 0 0)
(0 0 0)
(0 0 0)
(0 0 0)
(0 0 0)
(0 0 0)
(0 0 0)
(0 0 0)
(0 0 0)
(0 0 0)
(0 0 0)
(0 0 0)
(0 0 0)
(0 0 0)
(0 0 0)
(0 0 0)
(0 0 0)
(0 0 0)
(0 0 0)
(0 0 0)
(0 0 0)
(0 0 0)
(0 0 0)
(0 0 0)
(0 0 0)
(0 0 0)
(0 0 0)
(0 0 0)
(0 0 0)
(0 0 0)
(0 0 0)
(0 0 0)
(0 0 0)
(0 0 0)
(0 0 0)
(0 0 0)
(0 0 0)
(0 0 0)
(0 0 0)
(0 0 0)
(0 0 0)
(0 0 0)
(0 0 0)
(0 0 0)
(0 0 0)
(0 0 0)
(0 0 0)
(0 0 0)
(0 0 0)
(0 0 0)
(0 0 0)
(0 0 0)
(0 0 0)
(0 0 0)
(0 0 0)
(0 0 0)
(0 0 0)
(0 0 0)
(0 0 0)
(0 0 0)
(0 0 0)
(0 0 0)
(0 0 0)
(0 0 0)
(0 0 0)
(0 0 0)
(0 0 0)
(0 0 0)
(0 0 0)
(0 0 0)
(0 0 0)
(0 0 0)
(0 0 0)
(0 0 0)
(0 0 0)
(0 0 0)
(0 0 0)
(0 0 0)
(0 0 0)
(0 0 0)
(0 0 0)
(0 0 0)
(0 0 0)
(0 0 0)
(0 0 0)
(0 0 0)
(0 0 0)
(0 0 0)
(0 0 0)
(0 0 0)
(0 0 0)
(0 0 0)
(0 0 0)
(0 0 0)
(0 0 0)
(0 0 0)
(0 0 0)
(0 0 0)
(0 0 0)
(0 0 0)
(0 0 0)
(0 0 0)
(0 0 0)
(0 0 0)
(0 0 0)
(0 0 0)
(0 0 0)
(0 0 0)
(0 0 0)
(0 0 0)
(0 0 0)
(0 0 0)
(0 0 0)
(0 0 0)
(0 0 0)
(0 0 0)
(0 0 0)
(0 0 0)
(0 0 0)
(0 0 0)
(0 0 0)
(0 0 0)
(0 0 0)
(0 0 0)
(0 0 0)
(0 0 0)
(0 0 0)
(0 0 0)
(0 0 0)
(0 0 0)
(0 0 0)
(0 0 0)
(0 0 0)
(0 0 0)
(0 0 0)
(0 0 0)
(0 0 0)
(0 0 0)
(0 0 0)
(0 0 0)
(0 0 0)
(0 0 0)
(0 0 0)
(0 0 0)
(0 0 0)
(0 0 0)
(0 0 0)
(0 0 0)
(0 0 0)
(0 0 0)
(0 0 0)
(0 0 0)
(0 0 0)
(0 0 0)
(0 0 0)
(0 0 0)
(0 0 0)
(0 0 0)
(0 0 0)
(0 0 0)
(0 0 0)
(0 0 0)
(0 0 0)
(0 0 0)
(0 0 0)
(0 0 0)
(0 0 0)
(0 0 0)
(0 0 0)
(0 0 0)
(0 0 0)
(0 0 0)
(0 0 0)
(0 0 0)
(0 0 0)
(0 0 0)
(0 0 0)
(0 0 0)
(0 0 0)
(0 0 0)
(0 0 0)
(0 0 0)
(0 0 0)
(0 0 0)
(0 0 0)
(0 0 0)
(0 0 0)
(0 0 0)
(0 0 0)
(0 0 0)
(0 0 0)
)
;

boundaryField
{
    inandouthalf11
    {
        type            cyclic;
    }
    inandouthalf12
    {
        type            cyclic;
    }
    inandouthalf21
    {
        type            cyclic;
    }
    inandouthalf22
    {
        type            cyclic;
    }
    inandouthalf31
    {
        type            cyclic;
    }
    inandouthalf32
    {
        type            cyclic;
    }
    inandouthalf41
    {
        type            cyclic;
    }
    inandouthalf42
    {
        type            cyclic;
    }
    top
    {
        type            symmetryPlane;
    }
    walls
    {
        type            calculated;
        value           uniform (0 0 0);
    }
    frontAndBackPlanes
    {
        type            empty;
    }
}


// ************************************************************************* //
