/*--------------------------------*- C++ -*----------------------------------*\
| =========                 |                                                 |
| \\      /  F ield         | OpenFOAM: The Open Source CFD Toolbox           |
|  \\    /   O peration     | Version:  2.4.x                                 |
|   \\  /    A nd           | Web:      www.OpenFOAM.org                      |
|    \\/     M anipulation  |                                                 |
\*---------------------------------------------------------------------------*/
FoamFile
{
    version     2.0;
    format      ascii;
    class       volVectorField;
    location    "6";
    object      gradPs;
}
// * * * * * * * * * * * * * * * * * * * * * * * * * * * * * * * * * * * * * //

dimensions      [0 1 -2 0 0 0 0];

internalField   nonuniform List<vector> 
360
(
(0 1.63757e-18 0)
(0 1.72942e-18 0)
(0 -8.05484e-20 0)
(0 -2.44049e-19 0)
(-1.451e-32 -8.8805e-20 0)
(-2.90209e-32 -4.74637e-20 0)
(-1.45109e-32 -6.664e-20 0)
(0 -7.79122e-20 0)
(-1.4512e-32 -7.95746e-20 0)
(0 -7.99087e-20 0)
(-1.45132e-32 -7.93286e-20 0)
(0 -7.91917e-20 0)
(-2.90287e-32 -7.99215e-20 0)
(0 -8.07585e-20 0)
(0 -8.17605e-20 0)
(0 -8.26114e-20 0)
(0 -8.31954e-20 0)
(-1.45174e-32 -8.36727e-20 0)
(0 -8.46898e-20 0)
(0 -8.53713e-20 0)
(0 -8.61301e-20 0)
(-2.90397e-32 -8.73413e-20 0)
(0 -8.81926e-20 0)
(0 -8.93322e-20 0)
(0 -9.05548e-20 0)
(-2.9045e-32 -9.14577e-20 0)
(0 -9.25336e-20 0)
(0 -9.34426e-20 0)
(0 -9.37088e-20 0)
(0 -9.36732e-20 0)
(0 -9.36684e-20 0)
(0 -9.23129e-20 0)
(0 -9.13072e-20 0)
(0 -9.02737e-20 0)
(0 -8.90662e-20 0)
(2.90589e-32 -8.92136e-20 0)
(0 -9.05372e-20 0)
(0 -9.50388e-20 0)
(0 -1.01047e-19 0)
(0 -1.10931e-19 0)
(0 -1.23797e-19 0)
(0 -1.35631e-19 0)
(1.45348e-32 -1.47662e-19 0)
(0 -1.55565e-19 0)
(0 -1.5694e-19 0)
(0 -1.52305e-19 0)
(0 -1.38055e-19 0)
(0 -1.14844e-19 0)
(0 -8.17802e-20 0)
(0 -3.02677e-20 0)
(1.4541e-32 4.75481e-20 0)
(0 1.68706e-19 0)
(0 3.55735e-19 0)
(0 6.12451e-19 0)
(0 8.58384e-19 0)
(0 8.39189e-19 0)
(0 2.11868e-19 0)
(0 -9.42271e-19 0)
(0 -1.79287e-18 0)
(0 -1.66282e-18 0)
(0 -9.38747e-19 0)
(0 -3.72811e-19 0)
(0 -1.54688e-19 0)
(0 -1.0671e-19 0)
(0 -1.0176e-19 0)
(0 -1.0381e-19 0)
(0 -1.07438e-19 0)
(0 -1.10939e-19 0)
(0 -1.14293e-19 0)
(0 -1.19277e-19 0)
(0 -1.2493e-19 0)
(0 -1.27902e-19 0)
(0 -1.31679e-19 0)
(0 -1.35978e-19 0)
(0 -1.39332e-19 0)
(0 -1.42131e-19 0)
(0 -1.44419e-19 0)
(0 -1.47796e-19 0)
(0 -1.51344e-19 0)
(0 -1.54732e-19 0)
(0 -1.58584e-19 0)
(0 -1.63035e-19 0)
(0 -1.6728e-19 0)
(0 -1.71492e-19 0)
(0 -1.7559e-19 0)
(0 -1.79568e-19 0)
(0 -1.8336e-19 0)
(0 -1.8697e-19 0)
(0 -1.908e-19 0)
(0 -1.94789e-19 0)
(0 -1.98896e-19 0)
(0 -2.03303e-19 0)
(0 -2.07958e-19 0)
(0 -2.12712e-19 0)
(0 -2.1758e-19 0)
(0 -2.22539e-19 0)
(0 -2.27565e-19 0)
(0 -2.32679e-19 0)
(0 -2.37932e-19 0)
(0 -2.43343e-19 0)
(0 -2.48931e-19 0)
(0 -2.54729e-19 0)
(0 -2.6074e-19 0)
(0 -2.66962e-19 0)
(0 -2.73407e-19 0)
(0 -2.80091e-19 0)
(0 -2.87028e-19 0)
(0 -2.94238e-19 0)
(0 -3.01742e-19 0)
(0 -3.09557e-19 0)
(0 -3.17699e-19 0)
(0 -3.26186e-19 0)
(0 -3.35033e-19 0)
(0 -3.4426e-19 0)
(0 -3.53883e-19 0)
(0 -3.63923e-19 0)
(0 -3.74402e-19 0)
(0 -3.85345e-19 0)
(0 -3.9678e-19 0)
(0 -4.08734e-19 0)
(0 -4.21233e-19 0)
(0 -4.34297e-19 0)
(0 -4.47948e-19 0)
(0 -4.62229e-19 0)
(0 -4.77243e-19 0)
(0 -4.9319e-19 0)
(0 -5.10356e-19 0)
(0 -5.28997e-19 0)
(0 -5.49126e-19 0)
(0 -5.7038e-19 0)
(0 -5.91996e-19 0)
(0 9.21933e-17 0)
(0 9.29361e-16 0)
(0 5.22868e-15 0)
(0 2.89744e-14 0)
(0 1.76256e-13 0)
(0 1.19475e-12 0)
(0 9.12857e-12 0)
(0 7.95875e-11 0)
(0 8.01749e-10 0)
(0 9.4585e-09 0)
(0 1.32734e-07 0)
(0 2.25439e-06 0)
(0 5.12209e-05 0)
(0 0.00286774 0)
(0 0.137672 0)
(0 2.11568 0)
(0 2.50511 0)
(0 0.387808 0)
(0 -1.96325 0)
(0 -3.07102 0)
(0 -3.22652 0)
(0 -3.14451 0)
(0 -3.00664 0)
(0 -2.85903 0)
(0 -2.71776 0)
(0 -2.58778 0)
(0 -2.46979 0)
(0 -2.36298 0)
(0 -2.26609 0)
(0 -2.17791 0)
(0 -2.09731 0)
(0 -2.0233 0)
(0 -1.95505 0)
(0 -1.89184 0)
(0 -1.83307 0)
(0 -1.77821 0)
(0 -1.72681 0)
(0 -1.67847 0)
(0 -1.63287 0)
(0 -1.58971 0)
(0 -1.54872 0)
(0 -1.5097 0)
(0 -1.47245 0)
(0 -1.43679 0)
(0 -1.40259 0)
(0 -1.36973 0)
(0 -1.33809 0)
(0 -1.30759 0)
(0 -1.27816 0)
(0 -1.24973 0)
(0 -1.22225 0)
(0 -1.19568 0)
(0 -1.16998 0)
(0 -1.14514 0)
(0 -1.12113 0)
(0 -1.09798 0)
(0 -1.07576 0)
(0 -1.0546 0)
(0 -1.03477 0)
(0 -1.01661 0)
(0 -1.00051 0)
(0 -0.986812 0)
(0 -0.97582 0)
(0 -0.967795 0)
(0 -0.962538 0)
(0 -0.95894 0)
(0 -0.955097 0)
(0 -0.949096 0)
(0 -0.941212 0)
(0 -0.934664 0)
(0 -0.930862 0)
(-2.08439e-16 -0.928608 0)
(0 -0.928851 0)
(0 -0.927859 0)
(2.88318e-16 -0.91688 0)
(0 -0.89512 0)
(-1.81858e-16 -0.864157 0)
(0 -0.821417 0)
(2.28738e-16 -0.769391 0)
(0 -0.711167 0)
(0 -0.648862 0)
(0 -0.58628 0)
(1.69723e-16 -0.521844 0)
(0 -0.45875 0)
(0 -0.401456 0)
(0 -0.346582 0)
(0 -0.295901 0)
(0 -0.251725 0)
(-5.99298e-17 -0.212498 0)
(0 -0.177464 0)
(-3.1626e-17 -0.146542 0)
(0 -0.120828 0)
(-3.25989e-17 -0.09881 0)
(0 -0.0796348 0)
(0 -0.0640727 0)
(0 -0.0512274 0)
(0 -0.0405021 0)
(8.16709e-18 -0.0318366 0)
(4.05033e-18 -0.02472 0)
(0 -0.0191261 0)
(0 -0.0144133 0)
(0 -0.0107849 0)
(0 -0.00797019 0)
(0 -0.00605907 0)
(0 -0.00533755 0)
(0 -0.00243384 0)
(0 0 0)
(0 0 0)
(0 0 0)
(0 0 0)
(0 0 0)
(0 0 0)
(0 0 0)
(0 0 0)
(0 0 0)
(0 0 0)
(0 0 0)
(0 0 0)
(0 0 0)
(0 0 0)
(0 0 0)
(0 0 0)
(0 0 0)
(0 0 0)
(0 0 0)
(0 0 0)
(0 0 0)
(0 0 0)
(0 0 0)
(0 0 0)
(0 0 0)
(0 0 0)
(0 0 0)
(0 0 0)
(0 0 0)
(0 0 0)
(0 0 0)
(0 0 0)
(0 0 0)
(0 0 0)
(0 0 0)
(0 0 0)
(0 0 0)
(0 0 0)
(0 0 0)
(0 0 0)
(0 0 0)
(0 0 0)
(0 0 0)
(0 0 0)
(0 0 0)
(0 0 0)
(0 0 0)
(0 0 0)
(0 0 0)
(0 0 0)
(0 0 0)
(0 0 0)
(0 0 0)
(0 0 0)
(0 0 0)
(0 0 0)
(0 0 0)
(0 0 0)
(0 0 0)
(0 0 0)
(0 0 0)
(0 0 0)
(0 0 0)
(0 0 0)
(0 0 0)
(0 0 0)
(0 0 0)
(0 0 0)
(0 0 0)
(0 0 0)
(0 0 0)
(0 0 0)
(0 0 0)
(0 0 0)
(0 0 0)
(0 0 0)
(0 0 0)
(0 0 0)
(0 0 0)
(0 0 0)
(0 0 0)
(0 0 0)
(0 0 0)
(0 0 0)
(0 0 0)
(0 0 0)
(0 0 0)
(0 0 0)
(0 0 0)
(0 0 0)
(0 0 0)
(0 0 0)
(0 0 0)
(0 0 0)
(0 0 0)
(0 0 0)
(0 0 0)
(0 0 0)
(0 0 0)
(0 0 0)
(0 0 0)
(0 0 0)
(0 0 0)
(0 0 0)
(0 0 0)
(0 0 0)
(0 0 0)
(0 0 0)
(0 0 0)
(0 0 0)
(0 0 0)
(0 0 0)
(0 0 0)
(0 0 0)
(0 0 0)
(0 0 0)
(0 0 0)
(0 0 0)
(0 0 0)
(0 0 0)
(0 0 0)
(0 0 0)
(0 0 0)
)
;

boundaryField
{
    inandouthalf11
    {
        type            cyclic;
    }
    inandouthalf12
    {
        type            cyclic;
    }
    inandouthalf21
    {
        type            cyclic;
    }
    inandouthalf22
    {
        type            cyclic;
    }
    inandouthalf31
    {
        type            cyclic;
    }
    inandouthalf32
    {
        type            cyclic;
    }
    inandouthalf41
    {
        type            cyclic;
    }
    inandouthalf42
    {
        type            cyclic;
    }
    top
    {
        type            symmetryPlane;
    }
    walls
    {
        type            calculated;
        value           uniform (0 0 0);
    }
    frontAndBackPlanes
    {
        type            empty;
    }
}


// ************************************************************************* //
