/*--------------------------------*- C++ -*----------------------------------*\
| =========                 |                                                 |
| \\      /  F ield         | OpenFOAM: The Open Source CFD Toolbox           |
|  \\    /   O peration     | Version:  2.4.x                                 |
|   \\  /    A nd           | Web:      www.OpenFOAM.org                      |
|    \\/     M anipulation  |                                                 |
\*---------------------------------------------------------------------------*/
FoamFile
{
    version     2.0;
    format      ascii;
    class       volScalarField;
    location    "6";
    object      k;
}
// * * * * * * * * * * * * * * * * * * * * * * * * * * * * * * * * * * * * * //

dimensions      [0 2 -2 0 0 0 0];

internalField   nonuniform List<scalar> 
360
(
1e-20
1e-20
1e-20
1e-20
1e-20
1e-20
1e-20
1e-20
1e-20
1e-20
1e-20
1e-20
1e-20
1e-20
1e-20
1e-20
1e-20
1e-20
1e-20
1e-20
1e-20
1e-20
1e-20
1e-20
1e-20
1e-20
1e-20
1e-20
1e-20
1e-20
1e-20
1e-20
1e-20
1e-20
1e-20
1e-20
1e-20
1e-20
1e-20
1e-20
1e-20
1e-20
1e-20
1e-20
1e-20
1e-20
1e-20
1e-20
1e-20
1e-20
1e-20
1e-20
1e-20
1e-20
1e-20
1e-20
1e-20
1e-20
1e-20
1e-20
1e-20
1e-20
1e-20
1e-20
1e-20
1e-20
1e-20
1e-20
1e-20
1e-20
1e-20
1e-20
1e-20
1e-20
1e-20
1e-20
1e-20
1e-20
1e-20
1e-20
1e-20
1e-20
1e-20
1e-20
1e-20
1e-20
1e-20
1e-20
1e-20
1e-20
1e-20
1e-20
1e-20
1e-20
1e-20
1e-20
1e-20
1e-20
1e-20
1e-20
1e-20
1e-20
1e-20
1e-20
1e-20
1e-20
1e-20
1e-20
1e-20
1e-20
1e-20
1e-20
1e-20
1e-20
1e-20
1e-20
1e-20
1e-20
1e-20
1e-20
1e-20
1e-20
1e-20
1e-20
1e-20
1e-20
1e-20
1e-20
1e-20
1e-20
1e-20
1e-20
1.54766e-20
6.49725e-20
3.25199e-19
1.78478e-18
1.08101e-17
7.30252e-17
5.56591e-16
4.8464e-15
4.8809e-14
5.76006e-13
8.09399e-12
1.37384e-10
2.84642e-09
7.27008e-08
2.29852e-06
7.87045e-05
0.00141804
0.00440715
0.0058001
0.00657108
0.00705747
0.00738966
0.00762913
0.00780699
0.00794013
0.00803855
0.00810875
0.00815538
0.00818196
0.00819131
0.0081857
0.00816703
0.00813686
0.00809655
0.00804721
0.00798982
0.0079252
0.00785406
0.00777703
0.00769465
0.00760738
0.00751565
0.00741982
0.00732022
0.00721715
0.00711088
0.00700164
0.00688966
0.00677514
0.00665826
0.00653921
0.00641814
0.00629521
0.00617056
0.00604435
0.00591669
0.00578773
0.00565759
0.0055264
0.00539429
0.00526137
0.00512778
0.00499363
0.00485906
0.0047242
0.00458917
0.00445411
0.00431915
0.00418443
0.00404874
0.00391086
0.00377094
0.00362916
0.00348572
0.00334088
0.0031949
0.00304812
0.0029009
0.00275367
0.00260689
0.00246109
0.00231685
0.00217482
0.00203569
0.00190019
0.0017691
0.00164318
0.00152322
0.00140992
0.00130394
0.00120579
0.00111582
0.00103419
0.000960849
0.000895542
0.000837814
0.00078706
0.00074256
0.00070353
0.000669163
0.000638659
0.00061125
0.000586212
0.000562877
0.00054063
0.000518913
0.000497226
0.000475124
0.000452217
0.000428171
0.000402708
0.000375613
0.00034673
0.00031597
0.000283322
0.000248862
0.000212772
0.000175376
0.000137193
9.90296e-05
6.21605e-05
2.86786e-05
5.61843e-06
2.58603e-07
5.04679e-09
8.70175e-11
1.41059e-12
2.1536e-14
3.09844e-16
4.20956e-18
6.16813e-20
1.00581e-20
1e-20
1e-20
1e-20
1e-20
1e-20
1e-20
1e-20
1e-20
1e-20
1e-20
1e-20
1e-20
1e-20
1e-20
1e-20
1e-20
1e-20
1e-20
1e-20
1e-20
1e-20
1e-20
1e-20
1e-20
1e-20
1e-20
1e-20
1e-20
1e-20
1e-20
1e-20
1e-20
1e-20
1e-20
1e-20
1e-20
1e-20
1e-20
1e-20
1e-20
1e-20
1e-20
1e-20
1e-20
1e-20
1e-20
1e-20
1e-20
1e-20
1e-20
1e-20
1e-20
1e-20
1e-20
1e-20
1e-20
1e-20
1e-20
1e-20
1e-20
1e-20
1e-20
1e-20
1e-20
1e-20
1e-20
1e-20
1e-20
1e-20
1e-20
1e-20
1e-20
1e-20
1e-20
1e-20
1e-20
1e-20
1e-20
1e-20
1e-20
1e-20
1e-20
1e-20
1e-20
1e-20
1e-20
1e-20
1e-20
1e-20
1e-20
1e-20
1e-20
1e-20
1e-20
1e-20
1e-20
)
;

boundaryField
{
    inandouthalf11
    {
        type            cyclic;
    }
    inandouthalf12
    {
        type            cyclic;
    }
    inandouthalf21
    {
        type            cyclic;
    }
    inandouthalf22
    {
        type            cyclic;
    }
    inandouthalf31
    {
        type            cyclic;
    }
    inandouthalf32
    {
        type            cyclic;
    }
    inandouthalf41
    {
        type            cyclic;
    }
    inandouthalf42
    {
        type            cyclic;
    }
    top
    {
        type            symmetryPlane;
    }
    walls
    {
        type            zeroGradient;
    }
    frontAndBackPlanes
    {
        type            empty;
    }
}


// ************************************************************************* //
