/*--------------------------------*- C++ -*----------------------------------*\
| =========                 |                                                 |
| \\      /  F ield         | OpenFOAM: The Open Source CFD Toolbox           |
|  \\    /   O peration     | Version:  2.4.x                                 |
|   \\  /    A nd           | Web:      www.OpenFOAM.org                      |
|    \\/     M anipulation  |                                                 |
\*---------------------------------------------------------------------------*/
FoamFile
{
    version     2.0;
    format      ascii;
    class       volScalarField;
    location    "6";
    object      k_0;
}
// * * * * * * * * * * * * * * * * * * * * * * * * * * * * * * * * * * * * * //

dimensions      [0 2 -2 0 0 0 0];

internalField   nonuniform List<scalar> 
360
(
1e-20
1e-20
1e-20
1e-20
1e-20
1e-20
1e-20
1e-20
1e-20
1e-20
1e-20
1e-20
1e-20
1e-20
1e-20
1e-20
1e-20
1e-20
1e-20
1e-20
1e-20
1e-20
1e-20
1e-20
1e-20
1e-20
1e-20
1e-20
1e-20
1e-20
1e-20
1e-20
1e-20
1e-20
1e-20
1e-20
1e-20
1e-20
1e-20
1e-20
1e-20
1e-20
1e-20
1e-20
1e-20
1e-20
1e-20
1e-20
1e-20
1e-20
1e-20
1e-20
1e-20
1e-20
1e-20
1e-20
1e-20
1e-20
1e-20
1e-20
1e-20
1e-20
1e-20
1e-20
1e-20
1e-20
1e-20
1e-20
1e-20
1e-20
1e-20
1e-20
1e-20
1e-20
1e-20
1e-20
1e-20
1e-20
1e-20
1e-20
1e-20
1e-20
1e-20
1e-20
1e-20
1e-20
1e-20
1e-20
1e-20
1e-20
1e-20
1e-20
1e-20
1e-20
1e-20
1e-20
1e-20
1e-20
1e-20
1e-20
1e-20
1e-20
1e-20
1e-20
1e-20
1e-20
1e-20
1e-20
1e-20
1e-20
1e-20
1e-20
1e-20
1e-20
1e-20
1e-20
1e-20
1e-20
1e-20
1e-20
1e-20
1e-20
1e-20
1e-20
1e-20
1e-20
1e-20
1e-20
1e-20
1e-20
1e-20
1e-20
1.54787e-20
6.49823e-20
3.25243e-19
1.785e-18
1.08113e-17
7.30335e-17
5.56663e-16
4.84715e-15
4.8818e-14
5.76132e-13
8.09606e-12
1.37425e-10
2.84737e-09
7.27277e-08
2.29945e-06
7.87358e-05
0.00141841
0.00440756
0.00580043
0.00657139
0.00705777
0.00738995
0.0076294
0.00780725
0.00794037
0.00803877
0.00810896
0.00815557
0.00818215
0.00819148
0.00818586
0.00816716
0.00813699
0.00809666
0.00804731
0.0079899
0.00792526
0.00785411
0.00777707
0.00769467
0.00760739
0.00751564
0.0074198
0.00732019
0.0072171
0.00711081
0.00700156
0.00688956
0.00677503
0.00665814
0.00653907
0.00641798
0.00629503
0.00617037
0.00604414
0.00591647
0.0057875
0.00565734
0.00552614
0.00539401
0.00526108
0.00512747
0.00499331
0.00485873
0.00472385
0.00458881
0.00445374
0.00431877
0.00418405
0.00404834
0.00391045
0.00377052
0.00362873
0.00348529
0.00334044
0.00319446
0.00304767
0.00290045
0.00275322
0.00260644
0.00246064
0.00231641
0.00217439
0.00203527
0.00189979
0.00176871
0.00164282
0.00152288
0.00140961
0.00130366
0.00120553
0.00111559
0.00103399
0.000960684
0.000895405
0.000837704
0.000786974
0.000742496
0.000703486
0.000669135
0.000638644
0.000611245
0.000586215
0.000562886
0.000540643
0.000518929
0.000497243
0.000475141
0.000452232
0.000428183
0.000402718
0.000375619
0.000346731
0.000315967
0.000283314
0.000248848
0.000212753
0.000175352
0.000137165
9.89989e-05
6.21287e-05
2.86487e-05
5.60523e-06
2.57603e-07
5.02553e-09
8.66418e-11
1.40436e-12
2.14389e-14
3.08417e-16
4.1898e-18
6.14249e-20
1.00568e-20
1e-20
1e-20
1e-20
1e-20
1e-20
1e-20
1e-20
1e-20
1e-20
1e-20
1e-20
1e-20
1e-20
1e-20
1e-20
1e-20
1e-20
1e-20
1e-20
1e-20
1e-20
1e-20
1e-20
1e-20
1e-20
1e-20
1e-20
1e-20
1e-20
1e-20
1e-20
1e-20
1e-20
1e-20
1e-20
1e-20
1e-20
1e-20
1e-20
1e-20
1e-20
1e-20
1e-20
1e-20
1e-20
1e-20
1e-20
1e-20
1e-20
1e-20
1e-20
1e-20
1e-20
1e-20
1e-20
1e-20
1e-20
1e-20
1e-20
1e-20
1e-20
1e-20
1e-20
1e-20
1e-20
1e-20
1e-20
1e-20
1e-20
1e-20
1e-20
1e-20
1e-20
1e-20
1e-20
1e-20
1e-20
1e-20
1e-20
1e-20
1e-20
1e-20
1e-20
1e-20
1e-20
1e-20
1e-20
1e-20
1e-20
1e-20
1e-20
1e-20
1e-20
1e-20
1e-20
1e-20
)
;

boundaryField
{
    inandouthalf11
    {
        type            cyclic;
    }
    inandouthalf12
    {
        type            cyclic;
    }
    inandouthalf21
    {
        type            cyclic;
    }
    inandouthalf22
    {
        type            cyclic;
    }
    inandouthalf31
    {
        type            cyclic;
    }
    inandouthalf32
    {
        type            cyclic;
    }
    inandouthalf41
    {
        type            cyclic;
    }
    inandouthalf42
    {
        type            cyclic;
    }
    top
    {
        type            symmetryPlane;
    }
    walls
    {
        type            zeroGradient;
    }
    frontAndBackPlanes
    {
        type            empty;
    }
}


// ************************************************************************* //
