/*--------------------------------*- C++ -*----------------------------------*\
| =========                 |                                                 |
| \\      /  F ield         | OpenFOAM: The Open Source CFD Toolbox           |
|  \\    /   O peration     | Version:  2.4.x                                 |
|   \\  /    A nd           | Web:      www.OpenFOAM.org                      |
|    \\/     M anipulation  |                                                 |
\*---------------------------------------------------------------------------*/
FoamFile
{
    version     2.0;
    format      ascii;
    class       volScalarField;
    location    "6";
    object      mua;
}
// * * * * * * * * * * * * * * * * * * * * * * * * * * * * * * * * * * * * * //

dimensions      [1 -1 -1 0 0 0 0];

internalField   nonuniform List<scalar> 
360
(
857909
571590
694651
732514
699575
674782
663469
656335
649485
641562
632599
623421
614523
606077
597901
589754
581591
573495
565476
557540
549838
542224
534736
527434
520334
513466
506768
500078
493417
486715
479761
472403
464646
456240
447499
438536
429660
421193
413793
408215
404699
403897
405984
410450
416729
423331
428087
428160
419943
400956
370710
330537
284513
238273
197544
166772
149316
148666
172854
244518
432271
966494
2.71418e+06
9.33423e+06
3.75404e+07
1.65235e+08
7.34335e+08
3.03807e+09
1.09194e+10
3.24025e+10
7.69182e+10
1.44554e+11
2.16897e+11
2.66106e+11
2.77314e+11
2.56565e+11
2.19962e+11
1.8096e+11
1.46584e+11
1.18975e+11
9.77916e+10
8.18432e+10
6.99169e+10
6.10129e+10
5.43673e+10
4.94223e+10
4.5772e+10
4.31213e+10
4.12427e+10
3.99565e+10
3.91204e+10
3.86169e+10
3.83479e+10
3.82362e+10
3.82226e+10
3.82628e+10
3.83252e+10
3.83879e+10
3.84352e+10
3.84555e+10
3.84404e+10
3.83837e+10
3.82814e+10
3.8132e+10
3.7936e+10
3.7695e+10
3.74117e+10
3.70886e+10
3.67277e+10
3.63304e+10
3.58968e+10
3.54258e+10
3.49148e+10
3.43597e+10
3.37548e+10
3.30932e+10
3.23673e+10
3.157e+10
3.06962e+10
2.97447e+10
2.87205e+10
2.76364e+10
2.65141e+10
2.53827e+10
2.4277e+10
2.32339e+10
2.22901e+10
2.14826e+10
2.08505e+10
2.0436e+10
2.02768e+10
2.03849e+10
2.07174e+10
2.11694e+10
2.16191e+10
2.1975e+10
2.21229e+10
2.1852e+10
2.10827e+10
2.04593e+10
2.16693e+10
2.73417e+10
4.20394e+10
8.00483e+10
1.77201e+11
2.30432e+11
8.72273e+09
0.0548639
0.0119249
0.00814864
0.00687383
0.00615374
0.00574509
0.00553059
0.00543427
0.00540538
0.00541186
0.00543473
0.0054633
0.0054919
0.00551767
0.00553932
0.00555641
0.00556893
0.00557706
0.0055811
0.00558134
0.00557811
0.00557168
0.00556231
0.00555025
0.00553572
0.0055189
0.00549997
0.0054791
0.00545644
0.00543212
0.00540627
0.00537902
0.00535049
0.00532078
0.00529
0.00525826
0.00522566
0.00519229
0.00515824
0.00512362
0.00508849
0.00505296
0.0050171
0.00498098
0.00494469
0.00490828
0.00487182
0.00483536
0.00479896
0.00476265
0.00472646
0.00469043
0.00465456
0.00461886
0.00458298
0.00454654
0.00450952
0.00447189
0.0044336
0.00439459
0.00435478
0.00431409
0.0042724
0.00422962
0.00418562
0.00414027
0.00409343
0.00404493
0.0039946
0.00394227
0.00388771
0.00383069
0.00377096
0.0037082
0.00364209
0.00357221
0.0034981
0.00341919
0.00333481
0.00324411
0.00314605
0.00303926
0.00292194
0.0027916
0.00264466
0.00247558
0.00227512
0.00202547
0.00168287
0
0
0
0
0
0
0
0
0
0
0
0
0
0
0
0
0
0
0
0
0
0
0
0
0
0
0
0
0
0
0
0
0
0
0
0
0
0
0
0
0
0
0
0
0
0
0
0
0
0
0
0
0
0
0
0
0
0
0
0
0
0
0
0
0
0
0
0
0
0
0
0
0
0
0
0
0
0
0
0
0
0
0
0
0
0
0
0
0
0
0
0
0
0
0
0
0
0
0
0
0
0
0
0
0
0
0
0
0
0
0
0
0
0
0
0
0
0
0
0
0
0
0
0
)
;

boundaryField
{
    inandouthalf11
    {
        type            cyclic;
    }
    inandouthalf12
    {
        type            cyclic;
    }
    inandouthalf21
    {
        type            cyclic;
    }
    inandouthalf22
    {
        type            cyclic;
    }
    inandouthalf31
    {
        type            cyclic;
    }
    inandouthalf32
    {
        type            cyclic;
    }
    inandouthalf41
    {
        type            cyclic;
    }
    inandouthalf42
    {
        type            cyclic;
    }
    top
    {
        type            symmetryPlane;
    }
    walls
    {
        type            calculated;
        value           uniform 1e+30;
    }
    frontAndBackPlanes
    {
        type            empty;
    }
}


// ************************************************************************* //
