/*--------------------------------*- C++ -*----------------------------------*\
| =========                 |                                                 |
| \\      /  F ield         | OpenFOAM: The Open Source CFD Toolbox           |
|  \\    /   O peration     | Version:  2.4.x                                 |
|   \\  /    A nd           | Web:      www.OpenFOAM.org                      |
|    \\/     M anipulation  |                                                 |
\*---------------------------------------------------------------------------*/
FoamFile
{
    version     2.0;
    format      ascii;
    class       volScalarField;
    location    "6";
    object      nutb;
}
// * * * * * * * * * * * * * * * * * * * * * * * * * * * * * * * * * * * * * //

dimensions      [0 2 -1 0 0 0 0];

internalField   nonuniform List<scalar> 
360
(
9e-22
9e-22
9e-22
9e-22
9e-22
9e-22
9e-22
9e-22
9e-22
9e-22
9e-22
9e-22
9e-22
9e-22
9e-22
9e-22
9e-22
9e-22
9e-22
9e-22
9e-22
9e-22
9e-22
9e-22
9e-22
9e-22
9e-22
9e-22
9e-22
9e-22
9e-22
9e-22
9e-22
9e-22
9e-22
9e-22
9e-22
9e-22
9e-22
9e-22
9e-22
9e-22
9e-22
9e-22
9e-22
9e-22
9e-22
9e-22
9e-22
9e-22
9e-22
9e-22
9e-22
9e-22
9e-22
9e-22
9e-22
9e-22
9e-22
9e-22
9e-22
9e-22
9e-22
9e-22
9e-22
9e-22
9e-22
9e-22
9e-22
9e-22
9e-22
9e-22
9e-22
9e-22
9e-22
9e-22
9e-22
9e-22
9e-22
9e-22
9e-22
9e-22
9e-22
9e-22
9e-22
9e-22
9e-22
9e-22
9e-22
9e-22
9e-22
9e-22
9e-22
9e-22
9e-22
9e-22
9e-22
9e-22
9e-22
9e-22
9e-22
9e-22
9e-22
9e-22
9e-22
9e-22
9e-22
9e-22
9e-22
9e-22
9e-22
9e-22
9e-22
9e-22
9e-22
9e-22
9e-22
9e-22
9e-22
9e-22
9e-22
9e-22
9e-22
9e-22
9e-22
9e-22
9e-22
9e-22
9e-22
9e-22
9e-22
9e-22
1.04924e-21
3.79597e-21
1.6662e-20
7.93566e-20
4.12182e-19
2.36002e-18
1.50775e-17
1.08898e-16
9.00181e-16
8.62532e-15
9.75346e-14
1.32337e-12
2.17908e-11
4.40549e-10
1.10167e-08
2.89472e-07
4.12948e-06
1.2538e-05
1.99112e-05
2.66761e-05
3.32951e-05
3.99619e-05
4.67461e-05
5.36425e-05
6.06071e-05
6.7582e-05
7.45091e-05
8.13367e-05
8.8022e-05
9.45306e-05
0.000100836
0.000106918
0.000112761
0.000118355
0.000123693
0.000128769
0.000133581
0.000138129
0.000142412
0.000146431
0.00015019
0.00015369
0.000156935
0.000159929
0.000162676
0.00016518
0.000167446
0.000169478
0.000171282
0.000172862
0.000174223
0.000175369
0.000176308
0.000177042
0.000177578
0.000177921
0.000178076
0.000178049
0.000177844
0.000177467
0.000176924
0.000176221
0.000175362
0.000174355
0.000173204
0.000171916
0.000170497
0.000168953
0.000167291
0.0001655
0.000163562
0.000161479
0.000159251
0.000156882
0.000154375
0.000151736
0.000148972
0.000146093
0.00014311
0.000140038
0.000136895
0.000133702
0.000130485
0.000127272
0.000124096
0.000120994
0.000118005
0.00011517
0.00011253
0.000110121
0.000107973
0.000106104
0.000104517
0.000103197
0.000102107
0.000101194
0.000100392
9.96245e-05
9.8818e-05
9.79052e-05
9.68311e-05
9.55548e-05
9.40497e-05
9.23003e-05
9.02989e-05
8.80424e-05
8.55292e-05
8.27559e-05
7.97171e-05
7.6404e-05
7.2805e-05
6.89061e-05
6.46911e-05
6.01426e-05
5.52427e-05
4.99735e-05
4.4318e-05
3.82609e-05
3.17895e-05
2.48948e-05
1.7566e-05
9.77892e-06
2.4313e-06
1.28603e-07
2.52894e-09
4.33322e-11
6.98074e-13
1.05948e-14
1.51551e-16
2.03192e-18
1.8769e-20
9.1048e-22
9e-22
9e-22
9e-22
9e-22
9e-22
9e-22
9e-22
9e-22
9e-22
9e-22
9e-22
9e-22
9e-22
9e-22
9e-22
9e-22
9e-22
9e-22
9e-22
9e-22
9e-22
9e-22
9e-22
9e-22
9e-22
9e-22
9e-22
9e-22
9e-22
9e-22
9e-22
9e-22
9e-22
9e-22
9e-22
9e-22
9e-22
9e-22
9e-22
9e-22
9e-22
9e-22
9e-22
9e-22
9e-22
9e-22
9e-22
9e-22
9e-22
9e-22
9e-22
9e-22
9e-22
9e-22
9e-22
9e-22
9e-22
9e-22
9e-22
9e-22
9e-22
9e-22
9e-22
9e-22
9e-22
9e-22
9e-22
9e-22
9e-22
9e-22
9e-22
9e-22
9e-22
9e-22
9e-22
9e-22
9e-22
9e-22
9e-22
9e-22
9e-22
9e-22
9e-22
9e-22
9e-22
9e-22
9e-22
9e-22
9e-22
9e-22
9e-22
9e-22
9e-22
9e-22
9e-22
9e-22
)
;

boundaryField
{
    inandouthalf11
    {
        type            cyclic;
    }
    inandouthalf12
    {
        type            cyclic;
    }
    inandouthalf21
    {
        type            cyclic;
    }
    inandouthalf22
    {
        type            cyclic;
    }
    inandouthalf31
    {
        type            cyclic;
    }
    inandouthalf32
    {
        type            cyclic;
    }
    inandouthalf41
    {
        type            cyclic;
    }
    inandouthalf42
    {
        type            cyclic;
    }
    top
    {
        type            symmetryPlane;
    }
    walls
    {
        type            calculated;
        value           uniform 0;
    }
    frontAndBackPlanes
    {
        type            empty;
    }
}


// ************************************************************************* //
