/*--------------------------------*- C++ -*----------------------------------*\
| =========                 |                                                 |
| \\      /  F ield         | OpenFOAM: The Open Source CFD Toolbox           |
|  \\    /   O peration     | Version:  2.4.x                                 |
|   \\  /    A nd           | Web:      www.OpenFOAM.org                      |
|    \\/     M anipulation  |                                                 |
\*---------------------------------------------------------------------------*/
FoamFile
{
    version     2.0;
    format      ascii;
    class       volScalarField;
    location    "6";
    object      p;
}
// * * * * * * * * * * * * * * * * * * * * * * * * * * * * * * * * * * * * * //

dimensions      [1 -1 -2 0 0 0 0];

internalField   nonuniform List<scalar> 
360
(
4898.23
4893.32
4888.41
4883.51
4878.6
4873.69
4868.78
4863.87
4858.96
4854.04
4849.13
4844.22
4839.3
4834.38
4829.47
4824.55
4819.63
4814.71
4809.79
4804.87
4799.94
4795.02
4790.1
4785.17
4780.24
4775.32
4770.39
4765.46
4760.53
4755.6
4750.66
4745.73
4740.79
4735.86
4730.92
4725.98
4721.05
4716.11
4711.17
4706.22
4701.28
4696.34
4691.39
4686.45
4681.5
4676.55
4671.6
4666.65
4661.7
4656.75
4651.8
4646.84
4641.89
4636.93
4631.97
4627.01
4622.05
4617.08
4612.12
4607.15
4602.18
4597.21
4592.24
4587.26
4582.29
4577.32
4572.35
4567.38
4562.4
4557.43
4552.46
4547.49
4542.52
4537.55
4532.57
4527.6
4522.63
4517.66
4512.69
4507.72
4502.75
4497.77
4492.8
4487.83
4482.86
4477.89
4472.92
4467.95
4462.98
4458
4453.03
4448.06
4443.09
4438.12
4433.15
4428.18
4423.21
4418.24
4413.27
4408.3
4403.33
4398.36
4393.38
4388.41
4383.44
4378.47
4373.5
4368.53
4363.56
4358.59
4353.62
4348.65
4343.68
4338.71
4333.74
4328.77
4323.8
4318.84
4313.87
4308.9
4303.93
4298.96
4293.99
4289.02
4284.05
4279.08
4274.11
4269.14
4264.18
4259.21
4254.24
4249.27
4244.3
4239.34
4234.37
4229.4
4224.43
4219.47
4214.5
4209.53
4204.57
4199.6
4194.63
4189.67
4184.7
4179.74
4174.77
4169.75
4162.57
4154.18
4147.49
4141.4
4135.59
4129.98
4124.51
4119.15
4113.88
4108.68
4103.55
4098.46
4093.41
4088.4
4083.41
4078.45
4073.5
4068.57
4063.65
4058.75
4053.85
4048.97
4044.09
4039.21
4034.35
4029.49
4024.63
4019.78
4014.93
4010.09
4005.25
4000.41
3995.57
3990.74
3985.91
3981.08
3976.25
3971.43
3966.6
3961.78
3956.96
3952.13
3947.31
3942.5
3937.68
3932.86
3928.04
3923.23
3918.41
3913.59
3908.78
3903.96
3899.14
3894.28
3889.32
3884.25
3879.08
3873.81
3868.42
3862.93
3857.33
3851.6
3845.77
3839.81
3833.72
3827.51
3821.17
3814.7
3808.09
3801.35
3794.46
3787.42
3780.24
3772.91
3765.42
3757.77
3749.96
3741.98
3733.83
3725.52
3717.03
3708.36
3699.51
3690.48
3681.27
3671.86
3662.26
3652.46
3642.47
3632.27
3621.86
3611.24
3600.41
3589.36
3578.08
3566.58
3554.84
3542.86
3530.65
3518.18
3505.47
3492.49
3479.26
3465.75
3451.97
3437.9
3423.55
3408.88
3393.92
3378.66
3363.08
3347.19
3330.97
3314.43
3297.55
3280.33
3262.76
3244.83
3226.54
3207.87
3188.83
3169.4
3149.58
3129.35
3108.72
3087.66
3066.18
3044.26
3021.9
2999.08
2975.8
2952.05
2927.81
2903.09
2877.86
2852.12
2825.86
2799.06
2771.72
2743.82
2715.36
2686.32
2656.7
2626.47
2595.62
2564.15
2532.05
2499.29
2465.86
2431.76
2396.96
2361.46
2325.24
2288.28
2250.57
2212.1
2172.85
2132.8
2091.93
2050.24
2007.7
1964.3
1922.76
1883.52
1844.28
1805.04
1765.8
1726.56
1687.32
1648.08
1608.84
1569.6
1530.36
1491.12
1451.88
1412.64
1373.4
1334.16
1294.92
1255.68
1216.44
1177.2
1137.96
1098.72
1059.48
1020.24
981
941.76
902.52
863.28
824.04
784.8
745.56
706.32
667.08
627.84
588.6
549.36
510.12
470.88
431.64
392.4
353.16
313.92
274.68
235.44
196.2
156.96
117.72
78.48
39.24
1.62234e-07
)
;

boundaryField
{
    inandouthalf11
    {
        type            cyclic;
    }
    inandouthalf12
    {
        type            cyclic;
    }
    inandouthalf21
    {
        type            cyclic;
    }
    inandouthalf22
    {
        type            cyclic;
    }
    inandouthalf31
    {
        type            cyclic;
    }
    inandouthalf32
    {
        type            cyclic;
    }
    inandouthalf41
    {
        type            cyclic;
    }
    inandouthalf42
    {
        type            cyclic;
    }
    top
    {
        type            symmetryPlane;
    }
    walls
    {
        type            slip;
    }
    frontAndBackPlanes
    {
        type            empty;
    }
}


// ************************************************************************* //
