/*--------------------------------*- C++ -*----------------------------------*\
| =========                 |                                                 |
| \\      /  F ield         | OpenFOAM: The Open Source CFD Toolbox           |
|  \\    /   O peration     | Version:  2.4.x                                 |
|   \\  /    A nd           | Web:      www.OpenFOAM.org                      |
|    \\/     M anipulation  |                                                 |
\*---------------------------------------------------------------------------*/
FoamFile
{
    version     2.0;
    format      ascii;
    class       volScalarField;
    location    "6";
    object      pa;
}
// * * * * * * * * * * * * * * * * * * * * * * * * * * * * * * * * * * * * * //

dimensions      [1 -1 -2 0 0 0 0];

internalField   nonuniform List<scalar> 
360
(
2.89938e-16
2.92588e-16
2.9274e-16
2.92457e-16
2.92344e-16
2.92313e-16
2.92268e-16
2.92205e-16
2.92141e-16
2.92077e-16
2.92012e-16
2.91948e-16
2.91884e-16
2.91819e-16
2.91753e-16
2.91686e-16
2.91619e-16
2.91551e-16
2.91483e-16
2.91414e-16
2.91345e-16
2.91275e-16
2.91204e-16
2.91132e-16
2.91059e-16
2.90985e-16
2.90911e-16
2.90836e-16
2.9076e-16
2.90684e-16
2.90608e-16
2.90532e-16
2.90459e-16
2.90385e-16
2.90313e-16
2.9024e-16
2.90168e-16
2.90094e-16
2.90015e-16
2.8993e-16
2.89835e-16
2.8973e-16
2.89616e-16
2.89491e-16
2.89364e-16
2.89238e-16
2.89118e-16
2.89014e-16
2.88932e-16
2.88882e-16
2.88883e-16
2.88959e-16
2.89156e-16
2.89534e-16
2.90146e-16
2.90921e-16
2.91502e-16
2.91264e-16
2.8998e-16
2.88367e-16
2.87293e-16
2.8685e-16
2.86691e-16
2.866e-16
2.86518e-16
2.86436e-16
2.86351e-16
2.86262e-16
2.86171e-16
2.86078e-16
2.85979e-16
2.85876e-16
2.85772e-16
2.85663e-16
2.85553e-16
2.85439e-16
2.85323e-16
2.85205e-16
2.85085e-16
2.84961e-16
2.84835e-16
2.84705e-16
2.84572e-16
2.84435e-16
2.84295e-16
2.84152e-16
2.84006e-16
2.83856e-16
2.83704e-16
2.83549e-16
2.8339e-16
2.83228e-16
2.83062e-16
2.82893e-16
2.82719e-16
2.82542e-16
2.82361e-16
2.82175e-16
2.81986e-16
2.81792e-16
2.81594e-16
2.81391e-16
2.81184e-16
2.80971e-16
2.80754e-16
2.80531e-16
2.80303e-16
2.80069e-16
2.79829e-16
2.79584e-16
2.79331e-16
2.79073e-16
2.78807e-16
2.78534e-16
2.78253e-16
2.77965e-16
2.77668e-16
2.77363e-16
2.77049e-16
2.76726e-16
2.76393e-16
2.7605e-16
2.75696e-16
2.75331e-16
2.74954e-16
2.74565e-16
2.74163e-16
2.73747e-16
2.73315e-16
2.72867e-16
2.72401e-16
2.71918e-16
4.20029e-16
1.75963e-15
8.78733e-15
4.81102e-14
2.90642e-13
1.95792e-12
1.48766e-11
1.29068e-10
1.29469e-09
1.52189e-08
2.1294e-07
3.60755e-06
8.17641e-05
0.00456472
0.218634
3.3428
4.14074
3.70927
2.92661
2.24478
1.71386
1.31319
1.01409
0.790886
0.623352
0.496466
0.399349
0.324198
0.265413
0.218955
0.181884
0.152037
0.127809
0.107993
0.0916736
0.0781482
0.0668734
0.0574247
0.0494678
0.042737
0.0370201
0.0321458
0.0279754
0.0243958
0.0213141
0.0186537
0.0163511
0.0143535
0.0126165
0.0111031
0.00978189
0.00862641
0.00761414
0.00672592
0.00594536
0.00525841
0.00465294
0.00411846
0.0036458
0.00322696
0.002855
0.0025239
0.00222846
0.00196425
0.00172766
0.00151595
0.00132707
0.0011593
0.00101049
0.000876822
0.00075584
0.000646618
0.000548127
0.000460462
0.000383831
0.000317564
0.000261097
0.000213705
0.000174229
0.000141689
0.000114924
9.2989e-05
7.52264e-05
6.07287e-05
4.89092e-05
3.93708e-05
3.16099e-05
2.52981e-05
2.01647e-05
1.60261e-05
1.26868e-05
9.96759e-06
7.79529e-06
6.05558e-06
4.65873e-06
3.54797e-06
2.6699e-06
1.97537e-06
1.43895e-06
1.01296e-06
7.05502e-07
4.56214e-07
2.88504e-07
1.33501e-07
0
0
0
0
0
0
0
0
0
0
0
0
0
0
0
0
0
0
0
0
0
0
0
0
0
0
0
0
0
0
0
0
0
0
0
0
0
0
0
0
0
0
0
0
0
0
0
0
0
0
0
0
0
0
0
0
0
0
0
0
0
0
0
0
0
0
0
0
0
0
0
0
0
0
0
0
0
0
0
0
0
0
0
0
0
0
0
0
0
0
0
0
0
0
0
0
0
0
0
0
0
0
0
0
0
0
0
0
0
0
0
0
0
0
0
0
0
0
0
0
0
0
0
0
)
;

boundaryField
{
    inandouthalf11
    {
        type            cyclic;
    }
    inandouthalf12
    {
        type            cyclic;
    }
    inandouthalf21
    {
        type            cyclic;
    }
    inandouthalf22
    {
        type            cyclic;
    }
    inandouthalf31
    {
        type            cyclic;
    }
    inandouthalf32
    {
        type            cyclic;
    }
    inandouthalf41
    {
        type            cyclic;
    }
    inandouthalf42
    {
        type            cyclic;
    }
    top
    {
        type            symmetryPlane;
    }
    walls
    {
        type            calculated;
        value           uniform 2.89938e-16;
    }
    frontAndBackPlanes
    {
        type            empty;
    }
}


// ************************************************************************* //
