/*--------------------------------*- C++ -*----------------------------------*\
| =========                 |                                                 |
| \\      /  F ield         | OpenFOAM: The Open Source CFD Toolbox           |
|  \\    /   O peration     | Version:  2.4.x                                 |
|   \\  /    A nd           | Web:      www.OpenFOAM.org                      |
|    \\/     M anipulation  |                                                 |
\*---------------------------------------------------------------------------*/
FoamFile
{
    version     2.0;
    format      ascii;
    class       surfaceScalarField;
    location    "6";
    object      phia_0;
}
// * * * * * * * * * * * * * * * * * * * * * * * * * * * * * * * * * * * * * //

dimensions      [0 3 -1 0 0 0 0];

internalField   nonuniform List<scalar> 
359
(
-3.97049e-13
-1.03751e-12
-1.62364e-12
-2.17238e-12
-2.72985e-12
-3.30182e-12
-3.88091e-12
-4.46282e-12
-5.04668e-12
-5.63358e-12
-6.22457e-12
-6.81987e-12
-7.41945e-12
-8.02296e-12
-8.63023e-12
-9.24134e-12
-9.8564e-12
-1.04754e-11
-1.10985e-11
-1.17256e-11
-1.23564e-11
-1.29913e-11
-1.36299e-11
-1.42722e-11
-1.49181e-11
-1.55673e-11
-1.62197e-11
-1.68755e-11
-1.75346e-11
-1.81972e-11
-1.88637e-11
-1.9535e-11
-2.02114e-11
-2.08944e-11
-2.15846e-11
-2.22827e-11
-2.29887e-11
-2.37024e-11
-2.44223e-11
-2.5145e-11
-2.58674e-11
-2.65844e-11
-2.72909e-11
-2.79832e-11
-2.86586e-11
-2.93172e-11
-2.99623e-11
-3.06012e-11
-3.12462e-11
-3.19154e-11
-3.26316e-11
-3.34267e-11
-3.43402e-11
-3.54186e-11
-3.6703e-11
-3.82049e-11
-3.98587e-11
-4.14969e-11
-4.2887e-11
-4.38572e-11
-4.44e-11
-4.46403e-11
-4.47251e-11
-4.47495e-11
-4.47555e-11
-4.47569e-11
-4.47572e-11
-4.47572e-11
-4.47573e-11
-4.47573e-11
-4.47573e-11
-4.47573e-11
-4.47573e-11
-4.47573e-11
-4.47573e-11
-4.47573e-11
-4.47573e-11
-4.47573e-11
-4.47573e-11
-4.47573e-11
-4.47573e-11
-4.47573e-11
-4.47573e-11
-4.47573e-11
-4.47573e-11
-4.47573e-11
-4.47573e-11
-4.47573e-11
-4.47573e-11
-4.47573e-11
-4.47573e-11
-4.47573e-11
-4.47573e-11
-4.47573e-11
-4.47573e-11
-4.47573e-11
-4.47573e-11
-4.47573e-11
-4.47573e-11
-4.47574e-11
-4.47574e-11
-4.47574e-11
-4.47574e-11
-4.47574e-11
-4.47574e-11
-4.47574e-11
-4.47574e-11
-4.47574e-11
-4.47574e-11
-4.47574e-11
-4.47574e-11
-4.47574e-11
-4.47574e-11
-4.47574e-11
-4.47574e-11
-4.47574e-11
-4.47574e-11
-4.47574e-11
-4.47574e-11
-4.47574e-11
-4.47574e-11
-4.47574e-11
-4.47574e-11
-4.47574e-11
-4.47574e-11
-4.47574e-11
-4.47574e-11
-4.47574e-11
-4.47574e-11
-4.47574e-11
-4.47574e-11
-4.47574e-11
-4.47575e-11
-4.47575e-11
-4.47575e-11
-4.47575e-11
-4.47575e-11
-4.47575e-11
-4.47575e-11
-4.47575e-11
-4.47575e-11
-4.47575e-11
-4.47575e-11
-4.47575e-11
-4.47575e-11
-4.47575e-11
-4.47575e-11
-1.32116e-10
-8.36797e-10
-1.35722e-09
-1.73086e-09
-2.04257e-09
-2.31513e-09
-2.55143e-09
-2.74889e-09
-2.90433e-09
-3.01547e-09
-3.08131e-09
-3.10195e-09
-3.07831e-09
-3.01185e-09
-2.90427e-09
-2.75743e-09
-2.57317e-09
-2.35332e-09
-2.09957e-09
-1.81355e-09
-1.49675e-09
-1.15056e-09
-7.76258e-10
-3.7502e-10
5.20857e-11
5.04084e-10
9.80093e-10
1.47931e-09
2.00101e-09
2.54453e-09
3.10924e-09
3.69456e-09
4.29993e-09
4.92478e-09
5.56854e-09
6.23063e-09
6.91043e-09
7.6073e-09
8.32053e-09
9.04936e-09
9.79287e-09
1.05499e-08
1.13188e-08
1.20974e-08
1.28825e-08
1.36698e-08
1.44541e-08
1.5229e-08
1.59873e-08
1.67215e-08
1.74249e-08
1.80927e-08
1.87225e-08
1.93128e-08
1.98713e-08
2.03923e-08
2.08703e-08
2.12974e-08
2.16688e-08
2.19842e-08
2.22441e-08
2.24512e-08
2.26113e-08
2.27289e-08
2.28102e-08
2.28599e-08
2.28814e-08
2.28804e-08
2.28596e-08
2.28207e-08
2.27675e-08
2.2701e-08
2.26228e-08
2.25329e-08
2.24328e-08
2.23236e-08
2.22035e-08
2.20737e-08
2.1934e-08
2.17828e-08
2.16185e-08
2.14394e-08
2.12394e-08
2.10191e-08
2.07556e-08
2.04678e-08
2.0085e-08
1.97377e-08
1.84779e-08
9.5641e-09
1.27405e-08
2.50876e-08
-1.92239e-08
-1.31142e-07
-1.58341e-07
-1.58314e-07
-1.58322e-07
-1.58327e-07
-1.58332e-07
-1.58337e-07
-1.5834e-07
-1.58342e-07
-1.58342e-07
-1.58338e-07
-1.5833e-07
-1.58313e-07
-1.58272e-07
-1.58212e-07
-1.58199e-07
-1.582e-07
-1.582e-07
-1.582e-07
-1.582e-07
-1.582e-07
-1.582e-07
-1.582e-07
-1.582e-07
-1.582e-07
-1.582e-07
-1.582e-07
-1.582e-07
-1.582e-07
-1.582e-07
-1.582e-07
-1.582e-07
-1.582e-07
-1.582e-07
-1.582e-07
-1.582e-07
-1.582e-07
-1.582e-07
-1.582e-07
-1.582e-07
-1.582e-07
-1.582e-07
-1.582e-07
-1.582e-07
-1.582e-07
-1.582e-07
-1.582e-07
-1.582e-07
-1.582e-07
-1.582e-07
-1.582e-07
-1.582e-07
-1.582e-07
-1.582e-07
-1.582e-07
-1.582e-07
-1.582e-07
-1.582e-07
-1.582e-07
-1.582e-07
-1.582e-07
-1.582e-07
-1.582e-07
-1.582e-07
-1.582e-07
-1.582e-07
-1.582e-07
-1.582e-07
-1.582e-07
-1.582e-07
-1.582e-07
-1.582e-07
-1.582e-07
-1.582e-07
-1.582e-07
-1.582e-07
-1.582e-07
-1.582e-07
-1.582e-07
-1.582e-07
-1.582e-07
-1.582e-07
-1.582e-07
-1.582e-07
-1.582e-07
-1.582e-07
-1.582e-07
-1.582e-07
-1.582e-07
-1.582e-07
-1.582e-07
-1.582e-07
-1.582e-07
-1.582e-07
-1.582e-07
-1.582e-07
-1.582e-07
-1.582e-07
-1.582e-07
-1.582e-07
-1.582e-07
-1.582e-07
-1.582e-07
-1.582e-07
-1.582e-07
-1.582e-07
-1.582e-07
-1.582e-07
-1.582e-07
-1.582e-07
-1.582e-07
-1.582e-07
-1.582e-07
-1.582e-07
-1.582e-07
-1.58199e-07
-1.58182e-07
-1.57476e-07
-1.32412e-07
)
;

boundaryField
{
    inandouthalf11
    {
        type            cyclic;
        value           nonuniform List<scalar> 
100
(
9.91661e-39
2.77671e-14
5.91399e-14
8.69917e-14
1.14763e-13
1.43714e-13
1.73458e-13
2.03629e-13
2.34133e-13
2.64992e-13
2.96267e-13
3.27997e-13
3.60193e-13
3.92848e-13
4.25952e-13
4.59509e-13
4.93528e-13
5.2802e-13
5.62992e-13
5.98452e-13
6.34401e-13
6.70841e-13
7.07777e-13
7.45211e-13
7.8314e-13
8.21562e-13
8.60472e-13
8.99876e-13
9.39783e-13
9.80207e-13
1.02117e-12
1.06272e-12
1.10491e-12
1.1478e-12
1.19147e-12
1.23597e-12
1.28134e-12
1.3276e-12
1.37469e-12
1.42247e-12
1.47074e-12
1.51921e-12
1.56755e-12
1.61546e-12
1.66268e-12
1.70912e-12
1.75489e-12
1.80035e-12
1.84618e-12
1.89347e-12
1.94372e-12
1.99894e-12
2.06182e-12
2.13571e-12
2.22423e-12
2.32999e-12
2.45172e-12
2.58067e-12
2.69999e-12
2.79175e-12
2.84824e-12
2.87553e-12
2.88588e-12
2.88903e-12
2.88984e-12
2.89003e-12
2.89007e-12
2.89008e-12
2.89008e-12
2.89008e-12
2.89008e-12
2.89008e-12
2.89008e-12
2.89008e-12
2.89008e-12
2.89008e-12
2.89008e-12
2.89008e-12
2.89008e-12
2.89008e-12
2.89008e-12
2.89008e-12
2.89008e-12
2.89008e-12
2.89009e-12
2.89009e-12
2.89009e-12
2.89009e-12
2.89009e-12
2.89009e-12
2.89009e-12
2.89009e-12
2.89009e-12
2.89009e-12
2.89009e-12
2.89009e-12
2.89009e-12
2.89009e-12
2.89009e-12
2.89009e-12
)
;
    }
    inandouthalf12
    {
        type            cyclic;
        value           nonuniform List<scalar> 
100
(
-9.91661e-39
-2.77671e-14
-5.91399e-14
-8.69917e-14
-1.14763e-13
-1.43714e-13
-1.73458e-13
-2.03629e-13
-2.34133e-13
-2.64992e-13
-2.96267e-13
-3.27997e-13
-3.60193e-13
-3.92848e-13
-4.25952e-13
-4.59509e-13
-4.93528e-13
-5.2802e-13
-5.62992e-13
-5.98452e-13
-6.34401e-13
-6.70841e-13
-7.07777e-13
-7.45211e-13
-7.8314e-13
-8.21562e-13
-8.60472e-13
-8.99876e-13
-9.39783e-13
-9.80207e-13
-1.02117e-12
-1.06272e-12
-1.10491e-12
-1.1478e-12
-1.19147e-12
-1.23597e-12
-1.28134e-12
-1.3276e-12
-1.37469e-12
-1.42247e-12
-1.47074e-12
-1.51921e-12
-1.56755e-12
-1.61546e-12
-1.66268e-12
-1.70912e-12
-1.75489e-12
-1.80035e-12
-1.84618e-12
-1.89347e-12
-1.94372e-12
-1.99894e-12
-2.06182e-12
-2.13571e-12
-2.22423e-12
-2.32999e-12
-2.45172e-12
-2.58067e-12
-2.69999e-12
-2.79175e-12
-2.84824e-12
-2.87553e-12
-2.88588e-12
-2.88903e-12
-2.88984e-12
-2.89003e-12
-2.89007e-12
-2.89008e-12
-2.89008e-12
-2.89008e-12
-2.89008e-12
-2.89008e-12
-2.89008e-12
-2.89008e-12
-2.89008e-12
-2.89008e-12
-2.89008e-12
-2.89008e-12
-2.89008e-12
-2.89008e-12
-2.89008e-12
-2.89008e-12
-2.89008e-12
-2.89008e-12
-2.89009e-12
-2.89009e-12
-2.89009e-12
-2.89009e-12
-2.89009e-12
-2.89009e-12
-2.89009e-12
-2.89009e-12
-2.89009e-12
-2.89009e-12
-2.89009e-12
-2.89009e-12
-2.89009e-12
-2.89009e-12
-2.89009e-12
-2.89009e-12
)
;
    }
    inandouthalf21
    {
        type            cyclic;
        value           nonuniform List<scalar> 
100
(
2.89009e-12
2.89009e-12
2.89009e-12
2.89009e-12
2.89009e-12
2.89009e-12
2.89009e-12
2.89009e-12
2.89009e-12
2.89009e-12
2.8901e-12
2.8901e-12
2.8901e-12
2.8901e-12
2.8901e-12
2.8901e-12
2.8901e-12
2.8901e-12
2.8901e-12
2.8901e-12
2.8901e-12
2.8901e-12
2.8901e-12
2.8901e-12
2.8901e-12
2.8901e-12
2.8901e-12
2.8901e-12
2.8901e-12
2.8901e-12
2.8901e-12
2.8901e-12
2.8901e-12
2.89011e-12
2.89011e-12
2.89011e-12
2.89011e-12
2.89011e-12
2.89011e-12
2.89011e-12
2.89011e-12
2.89011e-12
2.89011e-12
2.89011e-12
2.89011e-12
2.89011e-12
2.89011e-12
2.89011e-12
4.60915e-08
1.43782e-07
2.20737e-07
2.80992e-07
3.29582e-07
3.69732e-07
4.03577e-07
4.32606e-07
4.5789e-07
4.80211e-07
5.00154e-07
5.18155e-07
5.34549e-07
5.49593e-07
5.63489e-07
5.76398e-07
5.88447e-07
5.99741e-07
6.10365e-07
6.2039e-07
6.29874e-07
6.38867e-07
6.4741e-07
6.55539e-07
6.63284e-07
6.70672e-07
6.77723e-07
6.84459e-07
6.90896e-07
6.97049e-07
7.02931e-07
7.08554e-07
7.13927e-07
7.19061e-07
7.23963e-07
7.2864e-07
7.33101e-07
7.3735e-07
7.41393e-07
7.45237e-07
7.48885e-07
7.52343e-07
7.55616e-07
7.58707e-07
7.61622e-07
7.64365e-07
7.66941e-07
7.69354e-07
7.7161e-07
7.73715e-07
7.75675e-07
7.77495e-07
)
;
    }
    inandouthalf22
    {
        type            cyclic;
        value           nonuniform List<scalar> 
100
(
-2.89009e-12
-2.89009e-12
-2.89009e-12
-2.89009e-12
-2.89009e-12
-2.89009e-12
-2.89009e-12
-2.89009e-12
-2.89009e-12
-2.89009e-12
-2.8901e-12
-2.8901e-12
-2.8901e-12
-2.8901e-12
-2.8901e-12
-2.8901e-12
-2.8901e-12
-2.8901e-12
-2.8901e-12
-2.8901e-12
-2.8901e-12
-2.8901e-12
-2.8901e-12
-2.8901e-12
-2.8901e-12
-2.8901e-12
-2.8901e-12
-2.8901e-12
-2.8901e-12
-2.8901e-12
-2.8901e-12
-2.8901e-12
-2.8901e-12
-2.89011e-12
-2.89011e-12
-2.89011e-12
-2.89011e-12
-2.89011e-12
-2.89011e-12
-2.89011e-12
-2.89011e-12
-2.89011e-12
-2.89011e-12
-2.89011e-12
-2.89011e-12
-2.89011e-12
-2.89011e-12
-2.89011e-12
-4.60915e-08
-1.43782e-07
-2.20737e-07
-2.80992e-07
-3.29582e-07
-3.69732e-07
-4.03577e-07
-4.32606e-07
-4.5789e-07
-4.80211e-07
-5.00154e-07
-5.18155e-07
-5.34549e-07
-5.49593e-07
-5.63489e-07
-5.76398e-07
-5.88447e-07
-5.99741e-07
-6.10365e-07
-6.2039e-07
-6.29874e-07
-6.38867e-07
-6.4741e-07
-6.55539e-07
-6.63284e-07
-6.70672e-07
-6.77723e-07
-6.84459e-07
-6.90896e-07
-6.97049e-07
-7.02931e-07
-7.08554e-07
-7.13927e-07
-7.19061e-07
-7.23963e-07
-7.2864e-07
-7.33101e-07
-7.3735e-07
-7.41393e-07
-7.45237e-07
-7.48885e-07
-7.52343e-07
-7.55616e-07
-7.58707e-07
-7.61622e-07
-7.64365e-07
-7.66941e-07
-7.69354e-07
-7.7161e-07
-7.73715e-07
-7.75675e-07
-7.77495e-07
)
;
    }
    inandouthalf31
    {
        type            cyclic;
        value           nonuniform List<scalar> 
110
(
7.79185e-07
7.9661e-07
8.14324e-07
8.32333e-07
8.50641e-07
8.69257e-07
8.88189e-07
9.07449e-07
9.27046e-07
9.46994e-07
9.67307e-07
9.87996e-07
1.00908e-06
1.03056e-06
1.05247e-06
1.07481e-06
1.0976e-06
1.12085e-06
1.14457e-06
1.16879e-06
1.1935e-06
1.21874e-06
1.2445e-06
1.27081e-06
1.29768e-06
1.32511e-06
1.35313e-06
1.38174e-06
1.41096e-06
1.44079e-06
1.47126e-06
1.50236e-06
1.53409e-06
1.56647e-06
1.59947e-06
1.63314e-06
1.66788e-06
1.89301e-06
1.93325e-06
1.96951e-06
2.00541e-06
2.04296e-06
2.08036e-06
2.11873e-06
2.15763e-06
2.19714e-06
2.23729e-06
2.27813e-06
2.31971e-06
2.36211e-06
2.40539e-06
2.4497e-06
2.49519e-06
2.54209e-06
2.59159e-06
2.64375e-06
2.69739e-06
2.75214e-06
2.808e-06
2.86499e-06
2.92315e-06
2.98248e-06
3.04301e-06
3.10478e-06
3.1678e-06
3.23209e-06
3.2977e-06
3.36463e-06
3.43292e-06
3.5026e-06
3.5737e-06
3.64623e-06
3.72024e-06
3.79575e-06
3.8728e-06
3.9514e-06
4.03161e-06
4.11344e-06
4.19693e-06
4.28212e-06
4.36903e-06
4.45771e-06
4.54819e-06
4.64051e-06
4.7347e-06
4.8308e-06
4.92885e-06
5.02889e-06
5.13097e-06
5.23511e-06
5.34137e-06
5.44979e-06
5.5604e-06
5.67326e-06
5.78842e-06
5.90591e-06
6.02578e-06
6.14809e-06
6.27288e-06
6.4002e-06
6.53011e-06
6.66265e-06
6.79789e-06
6.93586e-06
7.07664e-06
7.22028e-06
7.36683e-06
7.51636e-06
7.66892e-06
7.82458e-06
)
;
    }
    inandouthalf32
    {
        type            cyclic;
        value           nonuniform List<scalar> 
110
(
-7.79185e-07
-7.9661e-07
-8.14324e-07
-8.32333e-07
-8.50641e-07
-8.69257e-07
-8.88189e-07
-9.07449e-07
-9.27046e-07
-9.46994e-07
-9.67307e-07
-9.87996e-07
-1.00908e-06
-1.03056e-06
-1.05247e-06
-1.07481e-06
-1.0976e-06
-1.12085e-06
-1.14457e-06
-1.16879e-06
-1.1935e-06
-1.21874e-06
-1.2445e-06
-1.27081e-06
-1.29768e-06
-1.32511e-06
-1.35313e-06
-1.38174e-06
-1.41096e-06
-1.44079e-06
-1.47126e-06
-1.50236e-06
-1.53409e-06
-1.56647e-06
-1.59947e-06
-1.63314e-06
-1.66788e-06
-1.89301e-06
-1.93325e-06
-1.96951e-06
-2.00541e-06
-2.04296e-06
-2.08036e-06
-2.11873e-06
-2.15763e-06
-2.19714e-06
-2.23729e-06
-2.27813e-06
-2.31971e-06
-2.36211e-06
-2.40539e-06
-2.4497e-06
-2.49519e-06
-2.54209e-06
-2.59159e-06
-2.64375e-06
-2.69739e-06
-2.75214e-06
-2.808e-06
-2.86499e-06
-2.92315e-06
-2.98248e-06
-3.04301e-06
-3.10478e-06
-3.1678e-06
-3.23209e-06
-3.2977e-06
-3.36463e-06
-3.43292e-06
-3.5026e-06
-3.5737e-06
-3.64623e-06
-3.72024e-06
-3.79575e-06
-3.8728e-06
-3.9514e-06
-4.03161e-06
-4.11344e-06
-4.19693e-06
-4.28212e-06
-4.36903e-06
-4.45771e-06
-4.54819e-06
-4.64051e-06
-4.7347e-06
-4.8308e-06
-4.92885e-06
-5.02889e-06
-5.13097e-06
-5.23511e-06
-5.34137e-06
-5.44979e-06
-5.5604e-06
-5.67326e-06
-5.78842e-06
-5.90591e-06
-6.02578e-06
-6.14809e-06
-6.27288e-06
-6.4002e-06
-6.53011e-06
-6.66265e-06
-6.79789e-06
-6.93586e-06
-7.07664e-06
-7.22028e-06
-7.36683e-06
-7.51636e-06
-7.66892e-06
-7.82458e-06
)
;
    }
    inandouthalf41
    {
        type            cyclic;
        value           nonuniform List<scalar> 
50
(
7.0038e-06
7.0038e-06
7.0038e-06
7.0038e-06
7.0038e-06
7.0038e-06
7.0038e-06
7.0038e-06
7.0038e-06
7.0038e-06
7.0038e-06
7.0038e-06
7.0038e-06
7.0038e-06
7.0038e-06
7.0038e-06
7.0038e-06
7.0038e-06
7.0038e-06
7.0038e-06
7.0038e-06
7.0038e-06
7.0038e-06
7.0038e-06
7.0038e-06
7.0038e-06
7.0038e-06
7.0038e-06
7.0038e-06
7.0038e-06
7.0038e-06
7.0038e-06
7.0038e-06
7.0038e-06
7.0038e-06
7.0038e-06
7.0038e-06
7.0038e-06
7.0038e-06
7.0038e-06
7.0038e-06
7.0038e-06
7.0038e-06
7.0038e-06
7.0038e-06
7.0038e-06
7.0038e-06
7.0038e-06
7.00381e-06
7.00409e-06
)
;
    }
    inandouthalf42
    {
        type            cyclic;
        value           nonuniform List<scalar> 
50
(
-7.0038e-06
-7.0038e-06
-7.0038e-06
-7.0038e-06
-7.0038e-06
-7.0038e-06
-7.0038e-06
-7.0038e-06
-7.0038e-06
-7.0038e-06
-7.0038e-06
-7.0038e-06
-7.0038e-06
-7.0038e-06
-7.0038e-06
-7.0038e-06
-7.0038e-06
-7.0038e-06
-7.0038e-06
-7.0038e-06
-7.0038e-06
-7.0038e-06
-7.0038e-06
-7.0038e-06
-7.0038e-06
-7.0038e-06
-7.0038e-06
-7.0038e-06
-7.0038e-06
-7.0038e-06
-7.0038e-06
-7.0038e-06
-7.0038e-06
-7.0038e-06
-7.0038e-06
-7.0038e-06
-7.0038e-06
-7.0038e-06
-7.0038e-06
-7.0038e-06
-7.0038e-06
-7.0038e-06
-7.0038e-06
-7.0038e-06
-7.0038e-06
-7.0038e-06
-7.0038e-06
-7.0038e-06
-7.00381e-06
-7.00409e-06
)
;
    }
    top
    {
        type            symmetryPlane;
        value           uniform 0;
    }
    walls
    {
        type            fixedValue;
        value           uniform 0;
    }
    frontAndBackPlanes
    {
        type            empty;
        value           nonuniform 0();
    }
}


// ************************************************************************* //
