/*--------------------------------*- C++ -*----------------------------------*\
| =========                 |                                                 |
| \\      /  F ield         | OpenFOAM: The Open Source CFD Toolbox           |
|  \\    /   O peration     | Version:  2.4.x                                 |
|   \\  /    A nd           | Web:      www.OpenFOAM.org                      |
|    \\/     M anipulation  |                                                 |
\*---------------------------------------------------------------------------*/
FoamFile
{
    version     2.0;
    format      ascii;
    class       surfaceScalarField;
    location    "6";
    object      phia;
}
// * * * * * * * * * * * * * * * * * * * * * * * * * * * * * * * * * * * * * //

dimensions      [0 3 -1 0 0 0 0];

internalField   nonuniform List<scalar> 
359
(
-3.9702e-13
-1.03743e-12
-1.62351e-12
-2.1722e-12
-2.72963e-12
-3.30155e-12
-3.88059e-12
-4.46245e-12
-5.04627e-12
-5.63312e-12
-6.22406e-12
-6.81931e-12
-7.41885e-12
-8.0223e-12
-8.62953e-12
-9.24059e-12
-9.85559e-12
-1.04746e-11
-1.10975e-11
-1.17246e-11
-1.23554e-11
-1.29902e-11
-1.36288e-11
-1.4271e-11
-1.49169e-11
-1.5566e-11
-1.62184e-11
-1.68741e-11
-1.75332e-11
-1.81957e-11
-1.88622e-11
-1.95334e-11
-2.02097e-11
-2.08927e-11
-2.15828e-11
-2.22808e-11
-2.29868e-11
-2.37004e-11
-2.44203e-11
-2.5143e-11
-2.58653e-11
-2.65823e-11
-2.72887e-11
-2.79811e-11
-2.86565e-11
-2.9315e-11
-2.99602e-11
-3.0599e-11
-3.1244e-11
-3.1913e-11
-3.26289e-11
-3.34237e-11
-3.43366e-11
-3.54144e-11
-3.66979e-11
-3.81991e-11
-3.98525e-11
-4.14911e-11
-4.28825e-11
-4.38544e-11
-4.43986e-11
-4.46397e-11
-4.47249e-11
-4.47494e-11
-4.47555e-11
-4.47569e-11
-4.47572e-11
-4.47572e-11
-4.47573e-11
-4.47573e-11
-4.47573e-11
-4.47573e-11
-4.47573e-11
-4.47573e-11
-4.47573e-11
-4.47573e-11
-4.47573e-11
-4.47573e-11
-4.47573e-11
-4.47573e-11
-4.47573e-11
-4.47573e-11
-4.47573e-11
-4.47573e-11
-4.47573e-11
-4.47573e-11
-4.47573e-11
-4.47573e-11
-4.47573e-11
-4.47573e-11
-4.47573e-11
-4.47573e-11
-4.47573e-11
-4.47573e-11
-4.47573e-11
-4.47573e-11
-4.47573e-11
-4.47573e-11
-4.47573e-11
-4.47574e-11
-4.47574e-11
-4.47574e-11
-4.47574e-11
-4.47574e-11
-4.47574e-11
-4.47574e-11
-4.47574e-11
-4.47574e-11
-4.47574e-11
-4.47574e-11
-4.47574e-11
-4.47574e-11
-4.47574e-11
-4.47574e-11
-4.47574e-11
-4.47574e-11
-4.47574e-11
-4.47574e-11
-4.47574e-11
-4.47574e-11
-4.47574e-11
-4.47574e-11
-4.47574e-11
-4.47574e-11
-4.47574e-11
-4.47574e-11
-4.47574e-11
-4.47574e-11
-4.47574e-11
-4.47574e-11
-4.47574e-11
-4.47574e-11
-4.47575e-11
-4.47575e-11
-4.47575e-11
-4.47575e-11
-4.47575e-11
-4.47575e-11
-4.47575e-11
-4.47575e-11
-4.47575e-11
-4.47575e-11
-4.47575e-11
-4.47575e-11
-4.47575e-11
-4.47575e-11
-4.47575e-11
-1.32085e-10
-8.37166e-10
-1.35779e-09
-1.73168e-09
-2.04355e-09
-2.31626e-09
-2.55268e-09
-2.75026e-09
-2.90581e-09
-3.01705e-09
-3.08299e-09
-3.10372e-09
-3.08017e-09
-3.01378e-09
-2.90628e-09
-2.7595e-09
-2.57531e-09
-2.35551e-09
-2.10182e-09
-1.81584e-09
-1.49908e-09
-1.15293e-09
-7.7867e-10
-3.77467e-10
4.96046e-11
5.01569e-10
9.77543e-10
1.47672e-09
1.99839e-09
2.54186e-09
3.10653e-09
3.6918e-09
4.29712e-09
4.92191e-09
5.56561e-09
6.22764e-09
6.90737e-09
7.60418e-09
8.31734e-09
9.04611e-09
9.78955e-09
1.05465e-08
1.13154e-08
1.20939e-08
1.28789e-08
1.36662e-08
1.44504e-08
1.52254e-08
1.59837e-08
1.67179e-08
1.74214e-08
1.80893e-08
1.87192e-08
1.93097e-08
1.98682e-08
2.03894e-08
2.08676e-08
2.1295e-08
2.16665e-08
2.19821e-08
2.22421e-08
2.24495e-08
2.26098e-08
2.27275e-08
2.28089e-08
2.28587e-08
2.28802e-08
2.28794e-08
2.28586e-08
2.28198e-08
2.27666e-08
2.27003e-08
2.2622e-08
2.25322e-08
2.24321e-08
2.2323e-08
2.22028e-08
2.20731e-08
2.19335e-08
2.17822e-08
2.16179e-08
2.14389e-08
2.12389e-08
2.10187e-08
2.07552e-08
2.04674e-08
2.00847e-08
1.97375e-08
1.84779e-08
9.56041e-09
1.27005e-08
2.51072e-08
-1.90818e-08
-1.31071e-07
-1.5834e-07
-1.58314e-07
-1.58322e-07
-1.58327e-07
-1.58332e-07
-1.58337e-07
-1.5834e-07
-1.58342e-07
-1.58342e-07
-1.58338e-07
-1.5833e-07
-1.58313e-07
-1.58272e-07
-1.58212e-07
-1.58199e-07
-1.582e-07
-1.582e-07
-1.582e-07
-1.582e-07
-1.582e-07
-1.582e-07
-1.582e-07
-1.582e-07
-1.582e-07
-1.582e-07
-1.582e-07
-1.582e-07
-1.582e-07
-1.582e-07
-1.582e-07
-1.582e-07
-1.582e-07
-1.582e-07
-1.582e-07
-1.582e-07
-1.582e-07
-1.582e-07
-1.582e-07
-1.582e-07
-1.582e-07
-1.582e-07
-1.582e-07
-1.582e-07
-1.582e-07
-1.582e-07
-1.582e-07
-1.582e-07
-1.582e-07
-1.582e-07
-1.582e-07
-1.582e-07
-1.582e-07
-1.582e-07
-1.582e-07
-1.582e-07
-1.582e-07
-1.582e-07
-1.582e-07
-1.582e-07
-1.582e-07
-1.582e-07
-1.582e-07
-1.582e-07
-1.582e-07
-1.582e-07
-1.582e-07
-1.582e-07
-1.582e-07
-1.582e-07
-1.582e-07
-1.582e-07
-1.582e-07
-1.582e-07
-1.582e-07
-1.582e-07
-1.582e-07
-1.582e-07
-1.582e-07
-1.582e-07
-1.582e-07
-1.582e-07
-1.582e-07
-1.582e-07
-1.582e-07
-1.582e-07
-1.582e-07
-1.582e-07
-1.582e-07
-1.582e-07
-1.582e-07
-1.582e-07
-1.582e-07
-1.582e-07
-1.582e-07
-1.582e-07
-1.582e-07
-1.582e-07
-1.582e-07
-1.582e-07
-1.582e-07
-1.582e-07
-1.582e-07
-1.582e-07
-1.582e-07
-1.582e-07
-1.582e-07
-1.582e-07
-1.582e-07
-1.582e-07
-1.582e-07
-1.582e-07
-1.582e-07
-1.582e-07
-1.582e-07
-1.58199e-07
-1.58182e-07
-1.57476e-07
-1.32412e-07
)
;

boundaryField
{
    inandouthalf11
    {
        type            cyclic;
        value           nonuniform List<scalar> 
100
(
9.91628e-39
2.77638e-14
5.91326e-14
8.6981e-14
1.14748e-13
1.43696e-13
1.73437e-13
2.03604e-13
2.34104e-13
2.6496e-13
2.96231e-13
3.27958e-13
3.6015e-13
3.92801e-13
4.25901e-13
4.59454e-13
4.93469e-13
5.27957e-13
5.62926e-13
5.98381e-13
6.34326e-13
6.70762e-13
7.07694e-13
7.45124e-13
7.83049e-13
8.21467e-13
8.60373e-13
8.99772e-13
9.39676e-13
9.80095e-13
1.02106e-12
1.0626e-12
1.10478e-12
1.14767e-12
1.19133e-12
1.23583e-12
1.2812e-12
1.32745e-12
1.37453e-12
1.42231e-12
1.47057e-12
1.51904e-12
1.56738e-12
1.61528e-12
1.66251e-12
1.70895e-12
1.75472e-12
1.80017e-12
1.846e-12
1.89328e-12
1.94351e-12
1.99871e-12
2.06156e-12
2.1354e-12
2.22386e-12
2.32956e-12
2.45124e-12
2.58018e-12
2.69958e-12
2.79147e-12
2.84809e-12
2.87546e-12
2.88585e-12
2.88902e-12
2.88984e-12
2.89003e-12
2.89007e-12
2.89008e-12
2.89008e-12
2.89008e-12
2.89008e-12
2.89008e-12
2.89008e-12
2.89008e-12
2.89008e-12
2.89008e-12
2.89008e-12
2.89008e-12
2.89008e-12
2.89008e-12
2.89008e-12
2.89008e-12
2.89008e-12
2.89008e-12
2.89009e-12
2.89009e-12
2.89009e-12
2.89009e-12
2.89009e-12
2.89009e-12
2.89009e-12
2.89009e-12
2.89009e-12
2.89009e-12
2.89009e-12
2.89009e-12
2.89009e-12
2.89009e-12
2.89009e-12
2.89009e-12
)
;
    }
    inandouthalf12
    {
        type            cyclic;
        value           nonuniform List<scalar> 
100
(
-9.91628e-39
-2.77638e-14
-5.91326e-14
-8.6981e-14
-1.14748e-13
-1.43696e-13
-1.73437e-13
-2.03604e-13
-2.34104e-13
-2.6496e-13
-2.96231e-13
-3.27958e-13
-3.6015e-13
-3.92801e-13
-4.25901e-13
-4.59454e-13
-4.93469e-13
-5.27957e-13
-5.62926e-13
-5.98381e-13
-6.34326e-13
-6.70762e-13
-7.07694e-13
-7.45124e-13
-7.83049e-13
-8.21467e-13
-8.60373e-13
-8.99772e-13
-9.39676e-13
-9.80095e-13
-1.02106e-12
-1.0626e-12
-1.10478e-12
-1.14767e-12
-1.19133e-12
-1.23583e-12
-1.2812e-12
-1.32745e-12
-1.37453e-12
-1.42231e-12
-1.47057e-12
-1.51904e-12
-1.56738e-12
-1.61528e-12
-1.66251e-12
-1.70895e-12
-1.75472e-12
-1.80017e-12
-1.846e-12
-1.89328e-12
-1.94351e-12
-1.99871e-12
-2.06156e-12
-2.1354e-12
-2.22386e-12
-2.32956e-12
-2.45124e-12
-2.58018e-12
-2.69958e-12
-2.79147e-12
-2.84809e-12
-2.87546e-12
-2.88585e-12
-2.88902e-12
-2.88984e-12
-2.89003e-12
-2.89007e-12
-2.89008e-12
-2.89008e-12
-2.89008e-12
-2.89008e-12
-2.89008e-12
-2.89008e-12
-2.89008e-12
-2.89008e-12
-2.89008e-12
-2.89008e-12
-2.89008e-12
-2.89008e-12
-2.89008e-12
-2.89008e-12
-2.89008e-12
-2.89008e-12
-2.89008e-12
-2.89009e-12
-2.89009e-12
-2.89009e-12
-2.89009e-12
-2.89009e-12
-2.89009e-12
-2.89009e-12
-2.89009e-12
-2.89009e-12
-2.89009e-12
-2.89009e-12
-2.89009e-12
-2.89009e-12
-2.89009e-12
-2.89009e-12
-2.89009e-12
)
;
    }
    inandouthalf21
    {
        type            cyclic;
        value           nonuniform List<scalar> 
100
(
2.89009e-12
2.89009e-12
2.89009e-12
2.89009e-12
2.89009e-12
2.89009e-12
2.89009e-12
2.89009e-12
2.89009e-12
2.89009e-12
2.8901e-12
2.8901e-12
2.8901e-12
2.8901e-12
2.8901e-12
2.8901e-12
2.8901e-12
2.8901e-12
2.8901e-12
2.8901e-12
2.8901e-12
2.8901e-12
2.8901e-12
2.8901e-12
2.8901e-12
2.8901e-12
2.8901e-12
2.8901e-12
2.8901e-12
2.8901e-12
2.8901e-12
2.8901e-12
2.8901e-12
2.89011e-12
2.89011e-12
2.89011e-12
2.89011e-12
2.89011e-12
2.89011e-12
2.89011e-12
2.89011e-12
2.89011e-12
2.89011e-12
2.89011e-12
2.89011e-12
2.89011e-12
2.89011e-12
2.89011e-12
4.60793e-08
1.43767e-07
2.20723e-07
2.80978e-07
3.29567e-07
3.69717e-07
4.03561e-07
4.32589e-07
4.57872e-07
4.80193e-07
5.00135e-07
5.18135e-07
5.34529e-07
5.49572e-07
5.63468e-07
5.76376e-07
5.88425e-07
5.99718e-07
6.10342e-07
6.20367e-07
6.2985e-07
6.38843e-07
6.47386e-07
6.55515e-07
6.6326e-07
6.70647e-07
6.77698e-07
6.84434e-07
6.90871e-07
6.97023e-07
7.02905e-07
7.08528e-07
7.13901e-07
7.19035e-07
7.23937e-07
7.28614e-07
7.33075e-07
7.37324e-07
7.41367e-07
7.45211e-07
7.48859e-07
7.52317e-07
7.5559e-07
7.58682e-07
7.61597e-07
7.6434e-07
7.66916e-07
7.69329e-07
7.71586e-07
7.73691e-07
7.75651e-07
7.77471e-07
)
;
    }
    inandouthalf22
    {
        type            cyclic;
        value           nonuniform List<scalar> 
100
(
-2.89009e-12
-2.89009e-12
-2.89009e-12
-2.89009e-12
-2.89009e-12
-2.89009e-12
-2.89009e-12
-2.89009e-12
-2.89009e-12
-2.89009e-12
-2.8901e-12
-2.8901e-12
-2.8901e-12
-2.8901e-12
-2.8901e-12
-2.8901e-12
-2.8901e-12
-2.8901e-12
-2.8901e-12
-2.8901e-12
-2.8901e-12
-2.8901e-12
-2.8901e-12
-2.8901e-12
-2.8901e-12
-2.8901e-12
-2.8901e-12
-2.8901e-12
-2.8901e-12
-2.8901e-12
-2.8901e-12
-2.8901e-12
-2.8901e-12
-2.89011e-12
-2.89011e-12
-2.89011e-12
-2.89011e-12
-2.89011e-12
-2.89011e-12
-2.89011e-12
-2.89011e-12
-2.89011e-12
-2.89011e-12
-2.89011e-12
-2.89011e-12
-2.89011e-12
-2.89011e-12
-2.89011e-12
-4.60793e-08
-1.43767e-07
-2.20723e-07
-2.80978e-07
-3.29567e-07
-3.69717e-07
-4.03561e-07
-4.32589e-07
-4.57872e-07
-4.80193e-07
-5.00135e-07
-5.18135e-07
-5.34529e-07
-5.49572e-07
-5.63468e-07
-5.76376e-07
-5.88425e-07
-5.99718e-07
-6.10342e-07
-6.20367e-07
-6.2985e-07
-6.38843e-07
-6.47386e-07
-6.55515e-07
-6.6326e-07
-6.70647e-07
-6.77698e-07
-6.84434e-07
-6.90871e-07
-6.97023e-07
-7.02905e-07
-7.08528e-07
-7.13901e-07
-7.19035e-07
-7.23937e-07
-7.28614e-07
-7.33075e-07
-7.37324e-07
-7.41367e-07
-7.45211e-07
-7.48859e-07
-7.52317e-07
-7.5559e-07
-7.58682e-07
-7.61597e-07
-7.6434e-07
-7.66916e-07
-7.69329e-07
-7.71586e-07
-7.73691e-07
-7.75651e-07
-7.77471e-07
)
;
    }
    inandouthalf31
    {
        type            cyclic;
        value           nonuniform List<scalar> 
110
(
7.79162e-07
7.96586e-07
8.143e-07
8.32308e-07
8.50617e-07
8.69232e-07
8.88164e-07
9.07423e-07
9.2702e-07
9.46968e-07
9.6728e-07
9.87969e-07
1.00905e-06
1.03054e-06
1.05244e-06
1.07478e-06
1.09757e-06
1.12082e-06
1.14454e-06
1.16875e-06
1.19347e-06
1.21871e-06
1.24447e-06
1.27078e-06
1.29764e-06
1.32508e-06
1.35309e-06
1.38171e-06
1.41092e-06
1.44076e-06
1.47122e-06
1.50232e-06
1.53406e-06
1.56643e-06
1.59943e-06
1.6331e-06
1.66784e-06
1.89298e-06
1.93323e-06
1.96948e-06
2.00539e-06
2.04294e-06
2.08034e-06
2.11871e-06
2.1576e-06
2.19711e-06
2.23727e-06
2.27811e-06
2.31969e-06
2.36208e-06
2.40537e-06
2.44967e-06
2.49516e-06
2.54206e-06
2.59156e-06
2.64372e-06
2.69736e-06
2.7521e-06
2.80796e-06
2.86496e-06
2.92311e-06
2.98244e-06
3.04298e-06
3.10474e-06
3.16776e-06
3.23205e-06
3.29766e-06
3.36459e-06
3.43288e-06
3.50256e-06
3.57365e-06
3.64619e-06
3.7202e-06
3.79571e-06
3.87275e-06
3.95136e-06
4.03156e-06
4.11339e-06
4.19688e-06
4.28206e-06
4.36898e-06
4.45766e-06
4.54814e-06
4.64045e-06
4.73464e-06
4.83074e-06
4.92879e-06
5.02883e-06
5.1309e-06
5.23505e-06
5.34131e-06
5.44972e-06
5.56033e-06
5.67319e-06
5.78834e-06
5.90583e-06
6.02571e-06
6.14801e-06
6.2728e-06
6.40012e-06
6.53003e-06
6.66257e-06
6.7978e-06
6.93578e-06
7.07656e-06
7.22019e-06
7.36674e-06
7.51627e-06
7.66883e-06
7.82448e-06
)
;
    }
    inandouthalf32
    {
        type            cyclic;
        value           nonuniform List<scalar> 
110
(
-7.79162e-07
-7.96586e-07
-8.143e-07
-8.32308e-07
-8.50617e-07
-8.69232e-07
-8.88164e-07
-9.07423e-07
-9.2702e-07
-9.46968e-07
-9.6728e-07
-9.87969e-07
-1.00905e-06
-1.03054e-06
-1.05244e-06
-1.07478e-06
-1.09757e-06
-1.12082e-06
-1.14454e-06
-1.16875e-06
-1.19347e-06
-1.21871e-06
-1.24447e-06
-1.27078e-06
-1.29764e-06
-1.32508e-06
-1.35309e-06
-1.38171e-06
-1.41092e-06
-1.44076e-06
-1.47122e-06
-1.50232e-06
-1.53406e-06
-1.56643e-06
-1.59943e-06
-1.6331e-06
-1.66784e-06
-1.89298e-06
-1.93323e-06
-1.96948e-06
-2.00539e-06
-2.04294e-06
-2.08034e-06
-2.11871e-06
-2.1576e-06
-2.19711e-06
-2.23727e-06
-2.27811e-06
-2.31969e-06
-2.36208e-06
-2.40537e-06
-2.44967e-06
-2.49516e-06
-2.54206e-06
-2.59156e-06
-2.64372e-06
-2.69736e-06
-2.7521e-06
-2.80796e-06
-2.86496e-06
-2.92311e-06
-2.98244e-06
-3.04298e-06
-3.10474e-06
-3.16776e-06
-3.23205e-06
-3.29766e-06
-3.36459e-06
-3.43288e-06
-3.50256e-06
-3.57365e-06
-3.64619e-06
-3.7202e-06
-3.79571e-06
-3.87275e-06
-3.95136e-06
-4.03156e-06
-4.11339e-06
-4.19688e-06
-4.28206e-06
-4.36898e-06
-4.45766e-06
-4.54814e-06
-4.64045e-06
-4.73464e-06
-4.83074e-06
-4.92879e-06
-5.02883e-06
-5.1309e-06
-5.23505e-06
-5.34131e-06
-5.44972e-06
-5.56033e-06
-5.67319e-06
-5.78834e-06
-5.90583e-06
-6.02571e-06
-6.14801e-06
-6.2728e-06
-6.40012e-06
-6.53003e-06
-6.66257e-06
-6.7978e-06
-6.93578e-06
-7.07656e-06
-7.22019e-06
-7.36674e-06
-7.51627e-06
-7.66883e-06
-7.82448e-06
)
;
    }
    inandouthalf41
    {
        type            cyclic;
        value           nonuniform List<scalar> 
50
(
7.00371e-06
7.00371e-06
7.00371e-06
7.00371e-06
7.00371e-06
7.00371e-06
7.00371e-06
7.00371e-06
7.00371e-06
7.00371e-06
7.00371e-06
7.00371e-06
7.00371e-06
7.00371e-06
7.00371e-06
7.00371e-06
7.00371e-06
7.00371e-06
7.00371e-06
7.00371e-06
7.00371e-06
7.00371e-06
7.00371e-06
7.00371e-06
7.00371e-06
7.00371e-06
7.00371e-06
7.00371e-06
7.00371e-06
7.00371e-06
7.00371e-06
7.00371e-06
7.00371e-06
7.00371e-06
7.00371e-06
7.00371e-06
7.00371e-06
7.00371e-06
7.00371e-06
7.00371e-06
7.00371e-06
7.00371e-06
7.00371e-06
7.00371e-06
7.00371e-06
7.00371e-06
7.00371e-06
7.00371e-06
7.00372e-06
7.00401e-06
)
;
    }
    inandouthalf42
    {
        type            cyclic;
        value           nonuniform List<scalar> 
50
(
-7.00371e-06
-7.00371e-06
-7.00371e-06
-7.00371e-06
-7.00371e-06
-7.00371e-06
-7.00371e-06
-7.00371e-06
-7.00371e-06
-7.00371e-06
-7.00371e-06
-7.00371e-06
-7.00371e-06
-7.00371e-06
-7.00371e-06
-7.00371e-06
-7.00371e-06
-7.00371e-06
-7.00371e-06
-7.00371e-06
-7.00371e-06
-7.00371e-06
-7.00371e-06
-7.00371e-06
-7.00371e-06
-7.00371e-06
-7.00371e-06
-7.00371e-06
-7.00371e-06
-7.00371e-06
-7.00371e-06
-7.00371e-06
-7.00371e-06
-7.00371e-06
-7.00371e-06
-7.00371e-06
-7.00371e-06
-7.00371e-06
-7.00371e-06
-7.00371e-06
-7.00371e-06
-7.00371e-06
-7.00371e-06
-7.00371e-06
-7.00371e-06
-7.00371e-06
-7.00371e-06
-7.00371e-06
-7.00372e-06
-7.00401e-06
)
;
    }
    top
    {
        type            symmetryPlane;
        value           uniform 0;
    }
    walls
    {
        type            fixedValue;
        value           uniform 0;
    }
    frontAndBackPlanes
    {
        type            empty;
        value           nonuniform 0();
    }
}


// ************************************************************************* //
