/*--------------------------------*- C++ -*----------------------------------*\
| =========                 |                                                 |
| \\      /  F ield         | OpenFOAM: The Open Source CFD Toolbox           |
|  \\    /   O peration     | Version:  2.4.x                                 |
|   \\  /    A nd           | Web:      www.OpenFOAM.org                      |
|    \\/     M anipulation  |                                                 |
\*---------------------------------------------------------------------------*/
FoamFile
{
    version     2.0;
    format      ascii;
    class       surfaceScalarField;
    location    "6";
    object      phib;
}
// * * * * * * * * * * * * * * * * * * * * * * * * * * * * * * * * * * * * * //

dimensions      [0 3 -1 0 0 0 0];

internalField   nonuniform List<scalar> 
359
(
6.23701e-13
1.63271e-12
2.55534e-12
3.41809e-12
4.29461e-12
5.194e-12
6.10439e-12
7.01901e-12
7.9365e-12
8.85856e-12
9.78684e-12
1.07217e-11
1.16631e-11
1.26105e-11
1.35636e-11
1.45224e-11
1.54873e-11
1.64582e-11
1.74351e-11
1.84182e-11
1.9407e-11
2.04017e-11
2.14022e-11
2.24082e-11
2.34195e-11
2.44359e-11
2.5457e-11
2.64831e-11
2.75141e-11
2.85504e-11
2.95924e-11
3.06416e-11
3.16986e-11
3.27657e-11
3.38436e-11
3.49337e-11
3.60358e-11
3.71496e-11
3.82728e-11
3.94001e-11
4.05265e-11
4.16442e-11
4.27451e-11
4.38236e-11
4.48753e-11
4.59003e-11
4.69041e-11
4.78976e-11
4.89004e-11
4.99402e-11
5.10531e-11
5.22884e-11
5.37078e-11
5.53837e-11
5.738e-11
5.97148e-11
6.22861e-11
6.48333e-11
6.69943e-11
6.85008e-11
6.93407e-11
6.97083e-11
6.98328e-11
6.98628e-11
6.98638e-11
6.98573e-11
6.98488e-11
6.98396e-11
6.98301e-11
6.98202e-11
6.98098e-11
6.97991e-11
6.97881e-11
6.97767e-11
6.97651e-11
6.97532e-11
6.97412e-11
6.97288e-11
6.97162e-11
6.97032e-11
6.969e-11
6.96764e-11
6.96624e-11
6.9648e-11
6.96333e-11
6.96183e-11
6.9603e-11
6.95873e-11
6.95713e-11
6.9555e-11
6.95384e-11
6.95213e-11
6.95039e-11
6.9486e-11
6.94678e-11
6.94491e-11
6.943e-11
6.94105e-11
6.93905e-11
6.937e-11
6.93491e-11
6.93277e-11
6.93058e-11
6.92833e-11
6.92603e-11
6.92367e-11
6.92125e-11
6.91877e-11
6.91623e-11
6.91362e-11
6.91094e-11
6.90818e-11
6.90535e-11
6.90245e-11
6.89945e-11
6.89638e-11
6.89321e-11
6.88994e-11
6.88658e-11
6.88312e-11
6.87955e-11
6.87586e-11
6.87206e-11
6.86813e-11
6.86407e-11
6.85987e-11
6.85553e-11
6.85102e-11
6.84634e-11
6.84147e-11
6.83641e-11
6.83114e-11
6.82562e-11
6.81978e-11
6.8136e-11
6.8071e-11
6.80025e-11
6.79282e-11
6.78444e-11
6.77515e-11
6.76573e-11
6.75567e-11
6.74311e-11
6.72727e-11
6.70269e-11
6.63653e-11
6.52397e-11
1.18882e-10
3.5026e-10
3.53676e-10
3.32018e-10
2.96768e-10
2.56794e-10
2.17073e-10
1.80493e-10
1.48384e-10
1.21033e-10
9.81639e-11
7.92466e-11
6.36922e-11
5.09418e-11
4.0503e-11
3.19594e-11
2.49661e-11
1.92405e-11
1.45526e-11
1.07156e-11
7.57753e-12
5.01482e-12
2.92668e-12
1.23067e-12
-1.40787e-13
-1.24328e-12
-2.12265e-12
-2.81677e-12
-3.35705e-12
-3.76953e-12
-4.07587e-12
-4.29412e-12
-4.43931e-12
-4.52398e-12
-4.55864e-12
-4.55204e-12
-4.51153e-12
-4.44328e-12
-4.35245e-12
-4.24333e-12
-4.11949e-12
-3.98377e-12
-3.83835e-12
-3.68479e-12
-3.52408e-12
-3.35685e-12
-3.18345e-12
-3.0042e-12
-2.8196e-12
-2.63083e-12
-2.44001e-12
-2.24999e-12
-2.06339e-12
-1.88149e-12
-1.70137e-12
-1.52427e-12
-1.35117e-12
-1.18393e-12
-1.0261e-12
-8.80498e-13
-7.48725e-13
-6.32015e-13
-5.30442e-13
-4.43209e-13
-3.69082e-13
-3.06427e-13
-2.53991e-13
-2.1034e-13
-1.73872e-13
-1.43596e-13
-1.18534e-13
-9.76805e-14
-8.03264e-14
-6.59357e-14
-5.40544e-14
-4.41804e-14
-3.59896e-14
-2.92585e-14
-2.36961e-14
-1.90992e-14
-1.5322e-14
-1.22143e-14
-9.67453e-15
-7.58465e-15
-5.91016e-15
-4.55949e-15
-3.48901e-15
-2.54551e-15
-2.26717e-15
-1.11684e-15
-8.08279e-16
-6.24866e-16
1.19383e-16
-6.11023e-18
-6.0178e-18
-5.89773e-18
-5.79456e-18
-5.66434e-18
-5.54654e-18
-5.40084e-18
-5.26945e-18
-5.11131e-18
-4.96727e-18
-4.79247e-18
-4.6341e-18
-4.45174e-18
-4.27899e-18
-4.08502e-18
-3.90056e-18
-3.70032e-18
-3.50941e-18
-3.30429e-18
-3.10896e-18
-2.90697e-18
-2.71699e-18
-2.52721e-18
-2.3587e-18
-2.20551e-18
-2.07378e-18
-1.94683e-18
-1.83501e-18
-1.7318e-18
-1.63481e-18
-1.54044e-18
-1.45097e-18
-1.37225e-18
-1.29737e-18
-1.2242e-18
-1.15028e-18
-1.07895e-18
-1.00665e-18
-9.3441e-19
-8.64003e-19
-7.9896e-19
-7.37032e-19
-6.77061e-19
-6.1816e-19
-5.60306e-19
-5.05359e-19
-3.91803e-19
-3.42362e-19
-2.87128e-19
-2.37065e-19
-1.88101e-19
-1.46126e-19
-1.00727e-19
-6.28227e-20
-2.59214e-20
5.30719e-21
9.22248e-20
1.16788e-19
1.40708e-19
2.05643e-19
2.27758e-19
2.42848e-19
2.57903e-19
2.66853e-19
2.85467e-19
2.96872e-19
3.07951e-19
3.10902e-19
3.20655e-19
3.21756e-19
3.23031e-19
3.19463e-19
3.28091e-19
3.32886e-19
3.37484e-19
3.37827e-19
3.41893e-19
3.41308e-19
3.40967e-19
3.36751e-19
3.43301e-19
3.45569e-19
3.48222e-19
3.46518e-19
3.54151e-19
3.58459e-19
3.73749e-19
4.11798e-19
5.29116e-19
6.58346e-19
7.97129e-19
9.02301e-19
1.0475e-18
1.13472e-18
1.2257e-18
1.25149e-18
1.3997e-18
1.45801e-18
1.51775e-18
1.45757e-18
1.49272e-18
1.3896e-18
1.29217e-18
1.0741e-18
1.08943e-18
9.61581e-19
8.36076e-19
5.35833e-19
3.25233e-19
-2.64541e-20
-3.96177e-19
-6.9892e-19
-1.50655e-18
-2.05269e-18
-2.60423e-18
-2.35154e-18
-3.52828e-18
-2.23055e-18
2.33736e-19
)
;

boundaryField
{
    inandouthalf11
    {
        type            cyclic;
        value           nonuniform List<scalar> 
100
(
-1.24233e-11
-1.23392e-11
-1.22954e-11
-1.22751e-11
-1.22524e-11
-1.22256e-11
-1.21979e-11
-1.21701e-11
-1.2142e-11
-1.21137e-11
-1.2085e-11
-1.20558e-11
-1.20262e-11
-1.19961e-11
-1.19656e-11
-1.19347e-11
-1.19034e-11
-1.18715e-11
-1.18393e-11
-1.18066e-11
-1.17734e-11
-1.17397e-11
-1.17056e-11
-1.1671e-11
-1.1636e-11
-1.16004e-11
-1.15644e-11
-1.1528e-11
-1.1491e-11
-1.14536e-11
-1.14157e-11
-1.13772e-11
-1.1338e-11
-1.12983e-11
-1.12578e-11
-1.12165e-11
-1.11743e-11
-1.11314e-11
-1.10876e-11
-1.10432e-11
-1.09983e-11
-1.09532e-11
-1.09082e-11
-1.08638e-11
-1.08199e-11
-1.07769e-11
-1.07345e-11
-1.06924e-11
-1.065e-11
-1.06063e-11
-1.05596e-11
-1.05081e-11
-1.04492e-11
-1.03796e-11
-1.02956e-11
-1.01949e-11
-1.00784e-11
-9.95493e-12
-9.84084e-12
-9.75371e-12
-9.70126e-12
-9.67735e-12
-9.67013e-12
-9.66996e-12
-9.67216e-12
-9.67502e-12
-9.67815e-12
-9.68141e-12
-9.68479e-12
-9.68827e-12
-9.69195e-12
-9.69578e-12
-9.69964e-12
-9.7037e-12
-9.70783e-12
-9.71209e-12
-9.7164e-12
-9.7208e-12
-9.72532e-12
-9.72995e-12
-9.73468e-12
-9.73954e-12
-9.74455e-12
-9.74968e-12
-9.75495e-12
-9.76034e-12
-9.76586e-12
-9.77149e-12
-9.77724e-12
-9.78312e-12
-9.78912e-12
-9.79526e-12
-9.80154e-12
-9.80798e-12
-9.81457e-12
-9.82132e-12
-9.82823e-12
-9.8353e-12
-9.84254e-12
-9.84995e-12
)
;
    }
    inandouthalf12
    {
        type            cyclic;
        value           nonuniform List<scalar> 
100
(
1.24233e-11
1.23392e-11
1.22954e-11
1.22751e-11
1.22524e-11
1.22256e-11
1.21979e-11
1.21701e-11
1.2142e-11
1.21137e-11
1.2085e-11
1.20558e-11
1.20262e-11
1.19961e-11
1.19656e-11
1.19347e-11
1.19034e-11
1.18715e-11
1.18393e-11
1.18066e-11
1.17734e-11
1.17397e-11
1.17056e-11
1.1671e-11
1.1636e-11
1.16004e-11
1.15644e-11
1.1528e-11
1.1491e-11
1.14536e-11
1.14157e-11
1.13772e-11
1.1338e-11
1.12983e-11
1.12578e-11
1.12165e-11
1.11743e-11
1.11314e-11
1.10876e-11
1.10432e-11
1.09983e-11
1.09532e-11
1.09082e-11
1.08638e-11
1.08199e-11
1.07769e-11
1.07345e-11
1.06924e-11
1.065e-11
1.06063e-11
1.05596e-11
1.05081e-11
1.04492e-11
1.03796e-11
1.02956e-11
1.01949e-11
1.00784e-11
9.95493e-12
9.84084e-12
9.75371e-12
9.70126e-12
9.67735e-12
9.67013e-12
9.66996e-12
9.67216e-12
9.67502e-12
9.67815e-12
9.68141e-12
9.68479e-12
9.68827e-12
9.69195e-12
9.69578e-12
9.69964e-12
9.7037e-12
9.70783e-12
9.71209e-12
9.7164e-12
9.7208e-12
9.72532e-12
9.72995e-12
9.73468e-12
9.73954e-12
9.74455e-12
9.74968e-12
9.75495e-12
9.76034e-12
9.76586e-12
9.77149e-12
9.77724e-12
9.78312e-12
9.78912e-12
9.79526e-12
9.80154e-12
9.80798e-12
9.81457e-12
9.82132e-12
9.82823e-12
9.8353e-12
9.84254e-12
9.84995e-12
)
;
    }
    inandouthalf21
    {
        type            cyclic;
        value           nonuniform List<scalar> 
100
(
-9.85754e-12
-9.86532e-12
-9.87328e-12
-9.88145e-12
-9.88983e-12
-9.89842e-12
-9.90723e-12
-9.91628e-12
-9.92557e-12
-9.93511e-12
-9.94492e-12
-9.955e-12
-9.96537e-12
-9.97605e-12
-9.98703e-12
-9.99835e-12
-1.001e-11
-1.0022e-11
-1.00344e-11
-1.00472e-11
-1.00605e-11
-1.00741e-11
-1.00882e-11
-1.01028e-11
-1.01179e-11
-1.01335e-11
-1.01497e-11
-1.01665e-11
-1.0184e-11
-1.02022e-11
-1.02212e-11
-1.0241e-11
-1.02617e-11
-1.02835e-11
-1.03067e-11
-1.03313e-11
-1.03571e-11
-1.03846e-11
-1.04151e-11
-1.04502e-11
-1.04882e-11
-1.05245e-11
-1.0568e-11
-1.06246e-11
-1.0695e-11
-1.08237e-11
-1.1017e-11
1.9189e-10
5.20028e-08
1.53464e-07
2.28634e-07
2.87283e-07
3.34818e-07
3.74305e-07
4.07761e-07
4.36596e-07
4.61821e-07
4.84183e-07
5.04236e-07
5.22402e-07
5.39004e-07
5.54293e-07
5.68468e-07
5.81688e-07
5.94081e-07
6.05751e-07
6.16785e-07
6.27255e-07
6.37221e-07
6.46735e-07
6.55841e-07
6.64576e-07
6.72972e-07
6.81059e-07
6.8886e-07
6.96398e-07
7.0369e-07
7.10755e-07
7.17608e-07
7.2426e-07
7.30725e-07
7.37013e-07
7.43134e-07
7.49096e-07
7.54906e-07
7.60573e-07
7.66101e-07
7.71497e-07
7.76766e-07
7.81912e-07
7.8694e-07
7.91852e-07
7.96653e-07
8.01344e-07
8.05929e-07
8.1041e-07
8.14789e-07
8.19067e-07
8.23246e-07
8.27327e-07
)
;
    }
    inandouthalf22
    {
        type            cyclic;
        value           nonuniform List<scalar> 
100
(
9.85754e-12
9.86532e-12
9.87328e-12
9.88145e-12
9.88983e-12
9.89842e-12
9.90723e-12
9.91628e-12
9.92557e-12
9.93511e-12
9.94492e-12
9.955e-12
9.96537e-12
9.97605e-12
9.98703e-12
9.99835e-12
1.001e-11
1.0022e-11
1.00344e-11
1.00472e-11
1.00605e-11
1.00741e-11
1.00882e-11
1.01028e-11
1.01179e-11
1.01335e-11
1.01497e-11
1.01665e-11
1.0184e-11
1.02022e-11
1.02212e-11
1.0241e-11
1.02617e-11
1.02835e-11
1.03067e-11
1.03313e-11
1.03571e-11
1.03846e-11
1.04151e-11
1.04502e-11
1.04882e-11
1.05245e-11
1.0568e-11
1.06246e-11
1.0695e-11
1.08237e-11
1.1017e-11
-1.9189e-10
-5.20028e-08
-1.53464e-07
-2.28634e-07
-2.87283e-07
-3.34818e-07
-3.74305e-07
-4.07761e-07
-4.36596e-07
-4.61821e-07
-4.84183e-07
-5.04236e-07
-5.22402e-07
-5.39004e-07
-5.54293e-07
-5.68468e-07
-5.81688e-07
-5.94081e-07
-6.05751e-07
-6.16785e-07
-6.27255e-07
-6.37221e-07
-6.46735e-07
-6.55841e-07
-6.64576e-07
-6.72972e-07
-6.81059e-07
-6.8886e-07
-6.96398e-07
-7.0369e-07
-7.10755e-07
-7.17608e-07
-7.2426e-07
-7.30725e-07
-7.37013e-07
-7.43134e-07
-7.49096e-07
-7.54906e-07
-7.60573e-07
-7.66101e-07
-7.71497e-07
-7.76766e-07
-7.81912e-07
-7.8694e-07
-7.91852e-07
-7.96653e-07
-8.01344e-07
-8.05929e-07
-8.1041e-07
-8.14789e-07
-8.19067e-07
-8.23246e-07
-8.27327e-07
)
;
    }
    inandouthalf31
    {
        type            cyclic;
        value           nonuniform List<scalar> 
110
(
8.31313e-07
8.52192e-07
8.73554e-07
8.95404e-07
9.17748e-07
9.4059e-07
9.63934e-07
9.87782e-07
1.01213e-06
1.03699e-06
1.06235e-06
1.08821e-06
1.11456e-06
1.1414e-06
1.16871e-06
1.19649e-06
1.22471e-06
1.25336e-06
1.28242e-06
1.31186e-06
1.34168e-06
1.37184e-06
1.40232e-06
1.43311e-06
1.46419e-06
1.49555e-06
1.52719e-06
1.55912e-06
1.59134e-06
1.62385e-06
1.65668e-06
1.68984e-06
1.72334e-06
1.7572e-06
1.79144e-06
1.82606e-06
1.86109e-06
1.89654e-06
1.93243e-06
1.96877e-06
2.00559e-06
2.04289e-06
2.08072e-06
2.11908e-06
2.15801e-06
2.19754e-06
2.2377e-06
2.27855e-06
2.32012e-06
2.36249e-06
2.40574e-06
2.44997e-06
2.49536e-06
2.54213e-06
2.59107e-06
2.64304e-06
2.69665e-06
2.75139e-06
2.80723e-06
2.86421e-06
2.92235e-06
2.98166e-06
3.04218e-06
3.10393e-06
3.16693e-06
3.23121e-06
3.2968e-06
3.36371e-06
3.43199e-06
3.50165e-06
3.57272e-06
3.64524e-06
3.71923e-06
3.79472e-06
3.87174e-06
3.95033e-06
4.03051e-06
4.11231e-06
4.19578e-06
4.28095e-06
4.36784e-06
4.45649e-06
4.54695e-06
4.63924e-06
4.7334e-06
4.82948e-06
4.92751e-06
5.02752e-06
5.12957e-06
5.23368e-06
5.33991e-06
5.4483e-06
5.55888e-06
5.67171e-06
5.78684e-06
5.90429e-06
6.02413e-06
6.14641e-06
6.27116e-06
6.39845e-06
6.52832e-06
6.66083e-06
6.79603e-06
6.93397e-06
7.07471e-06
7.21831e-06
7.36482e-06
7.51431e-06
7.66683e-06
7.82244e-06
)
;
    }
    inandouthalf32
    {
        type            cyclic;
        value           nonuniform List<scalar> 
110
(
-8.31313e-07
-8.52192e-07
-8.73554e-07
-8.95404e-07
-9.17748e-07
-9.4059e-07
-9.63934e-07
-9.87782e-07
-1.01213e-06
-1.03699e-06
-1.06235e-06
-1.08821e-06
-1.11456e-06
-1.1414e-06
-1.16871e-06
-1.19649e-06
-1.22471e-06
-1.25336e-06
-1.28242e-06
-1.31186e-06
-1.34168e-06
-1.37184e-06
-1.40232e-06
-1.43311e-06
-1.46419e-06
-1.49555e-06
-1.52719e-06
-1.55912e-06
-1.59134e-06
-1.62385e-06
-1.65668e-06
-1.68984e-06
-1.72334e-06
-1.7572e-06
-1.79144e-06
-1.82606e-06
-1.86109e-06
-1.89654e-06
-1.93243e-06
-1.96877e-06
-2.00559e-06
-2.04289e-06
-2.08072e-06
-2.11908e-06
-2.15801e-06
-2.19754e-06
-2.2377e-06
-2.27855e-06
-2.32012e-06
-2.36249e-06
-2.40574e-06
-2.44997e-06
-2.49536e-06
-2.54213e-06
-2.59107e-06
-2.64304e-06
-2.69665e-06
-2.75139e-06
-2.80723e-06
-2.86421e-06
-2.92235e-06
-2.98166e-06
-3.04218e-06
-3.10393e-06
-3.16693e-06
-3.23121e-06
-3.2968e-06
-3.36371e-06
-3.43199e-06
-3.50165e-06
-3.57272e-06
-3.64524e-06
-3.71923e-06
-3.79472e-06
-3.87174e-06
-3.95033e-06
-4.03051e-06
-4.11231e-06
-4.19578e-06
-4.28095e-06
-4.36784e-06
-4.45649e-06
-4.54695e-06
-4.63924e-06
-4.7334e-06
-4.82948e-06
-4.92751e-06
-5.02752e-06
-5.12957e-06
-5.23368e-06
-5.33991e-06
-5.4483e-06
-5.55888e-06
-5.67171e-06
-5.78684e-06
-5.90429e-06
-6.02413e-06
-6.14641e-06
-6.27116e-06
-6.39845e-06
-6.52832e-06
-6.66083e-06
-6.79603e-06
-6.93397e-06
-7.07471e-06
-7.21831e-06
-7.36482e-06
-7.51431e-06
-7.66683e-06
-7.82244e-06
)
;
    }
    inandouthalf41
    {
        type            cyclic;
        value           nonuniform List<scalar> 
50
(
7.00188e-06
7.00188e-06
7.00188e-06
7.00188e-06
7.00188e-06
7.00188e-06
7.00188e-06
7.00188e-06
7.00188e-06
7.00188e-06
7.00188e-06
7.00188e-06
7.00188e-06
7.00188e-06
7.00188e-06
7.00188e-06
7.00188e-06
7.00188e-06
7.00188e-06
7.00188e-06
7.00188e-06
7.00188e-06
7.00188e-06
7.00188e-06
7.00188e-06
7.00188e-06
7.00188e-06
7.00188e-06
7.00188e-06
7.00188e-06
7.00188e-06
7.00188e-06
7.00188e-06
7.00188e-06
7.00188e-06
7.00188e-06
7.00188e-06
7.00188e-06
7.00188e-06
7.00188e-06
7.00188e-06
7.00188e-06
7.00188e-06
7.00188e-06
7.00188e-06
7.00188e-06
7.00188e-06
7.00188e-06
7.00188e-06
7.00188e-06
)
;
    }
    inandouthalf42
    {
        type            cyclic;
        value           nonuniform List<scalar> 
50
(
-7.00188e-06
-7.00188e-06
-7.00188e-06
-7.00188e-06
-7.00188e-06
-7.00188e-06
-7.00188e-06
-7.00188e-06
-7.00188e-06
-7.00188e-06
-7.00188e-06
-7.00188e-06
-7.00188e-06
-7.00188e-06
-7.00188e-06
-7.00188e-06
-7.00188e-06
-7.00188e-06
-7.00188e-06
-7.00188e-06
-7.00188e-06
-7.00188e-06
-7.00188e-06
-7.00188e-06
-7.00188e-06
-7.00188e-06
-7.00188e-06
-7.00188e-06
-7.00188e-06
-7.00188e-06
-7.00188e-06
-7.00188e-06
-7.00188e-06
-7.00188e-06
-7.00188e-06
-7.00188e-06
-7.00188e-06
-7.00188e-06
-7.00188e-06
-7.00188e-06
-7.00188e-06
-7.00188e-06
-7.00188e-06
-7.00188e-06
-7.00188e-06
-7.00188e-06
-7.00188e-06
-7.00188e-06
-7.00188e-06
-7.00188e-06
)
;
    }
    top
    {
        type            symmetryPlane;
        value           uniform 0;
    }
    walls
    {
        type            fixedValue;
        value           uniform 0;
    }
    frontAndBackPlanes
    {
        type            empty;
        value           nonuniform 0();
    }
}


// ************************************************************************* //
