/*--------------------------------*- C++ -*----------------------------------*\
| =========                 |                                                 |
| \\      /  F ield         | OpenFOAM: The Open Source CFD Toolbox           |
|  \\    /   O peration     | Version:  2.4.x                                 |
|   \\  /    A nd           | Web:      www.OpenFOAM.org                      |
|    \\/     M anipulation  |                                                 |
\*---------------------------------------------------------------------------*/
FoamFile
{
    version     2.0;
    format      ascii;
    class       surfaceScalarField;
    location    "6";
    object      phib_0;
}
// * * * * * * * * * * * * * * * * * * * * * * * * * * * * * * * * * * * * * //

dimensions      [0 3 -1 0 0 0 0];

internalField   nonuniform List<scalar> 
359
(
6.23747e-13
1.63284e-12
2.55555e-12
3.41837e-12
4.29496e-12
5.19442e-12
6.10489e-12
7.01959e-12
7.93715e-12
8.85929e-12
9.78764e-12
1.07226e-11
1.16641e-11
1.26115e-11
1.35647e-11
1.45236e-11
1.54886e-11
1.64595e-11
1.74365e-11
1.84197e-11
1.94086e-11
2.04034e-11
2.14039e-11
2.241e-11
2.34214e-11
2.44379e-11
2.54591e-11
2.64852e-11
2.75163e-11
2.85527e-11
2.95948e-11
3.06441e-11
3.17012e-11
3.27684e-11
3.38464e-11
3.49365e-11
3.60388e-11
3.71526e-11
3.82759e-11
3.94033e-11
4.05297e-11
4.16475e-11
4.27484e-11
4.38269e-11
4.48786e-11
4.59036e-11
4.69074e-11
4.7901e-11
4.89039e-11
4.9944e-11
5.10572e-11
5.22931e-11
5.37133e-11
5.53904e-11
5.73879e-11
5.97239e-11
6.22958e-11
6.48423e-11
6.70013e-11
6.85052e-11
6.93429e-11
6.97091e-11
6.9833e-11
6.98628e-11
6.98638e-11
6.98573e-11
6.98488e-11
6.98396e-11
6.98301e-11
6.98202e-11
6.98098e-11
6.97991e-11
6.97881e-11
6.97767e-11
6.97651e-11
6.97532e-11
6.97412e-11
6.97288e-11
6.97162e-11
6.97032e-11
6.969e-11
6.96764e-11
6.96624e-11
6.9648e-11
6.96333e-11
6.96183e-11
6.9603e-11
6.95873e-11
6.95713e-11
6.9555e-11
6.95384e-11
6.95213e-11
6.95039e-11
6.9486e-11
6.94678e-11
6.94491e-11
6.943e-11
6.94105e-11
6.93905e-11
6.93701e-11
6.93491e-11
6.93277e-11
6.93058e-11
6.92833e-11
6.92603e-11
6.92367e-11
6.92125e-11
6.91877e-11
6.91623e-11
6.91362e-11
6.91094e-11
6.90818e-11
6.90535e-11
6.90245e-11
6.89945e-11
6.89638e-11
6.89321e-11
6.88994e-11
6.88658e-11
6.88312e-11
6.87955e-11
6.87586e-11
6.87206e-11
6.86813e-11
6.86407e-11
6.85987e-11
6.85553e-11
6.85102e-11
6.84634e-11
6.84147e-11
6.83641e-11
6.83114e-11
6.82562e-11
6.81978e-11
6.8136e-11
6.8071e-11
6.80025e-11
6.79282e-11
6.78444e-11
6.77515e-11
6.76573e-11
6.75567e-11
6.74311e-11
6.72728e-11
6.70269e-11
6.63653e-11
6.52394e-11
1.18905e-10
3.50087e-10
3.53523e-10
3.31864e-10
2.96631e-10
2.56678e-10
2.16975e-10
1.80412e-10
1.48316e-10
1.20977e-10
9.81166e-11
7.92065e-11
6.3658e-11
5.09124e-11
4.04776e-11
3.19374e-11
2.49469e-11
1.92237e-11
1.45379e-11
1.07027e-11
7.56612e-12
5.00474e-12
2.91775e-12
1.22275e-12
-1.47834e-13
-1.24956e-12
-2.12826e-12
-2.82179e-12
-3.36155e-12
-3.77357e-12
-4.07951e-12
-4.2974e-12
-4.44226e-12
-4.52665e-12
-4.56104e-12
-4.55421e-12
-4.51349e-12
-4.44505e-12
-4.35404e-12
-4.24476e-12
-4.12077e-12
-3.98491e-12
-3.83936e-12
-3.68568e-12
-3.52486e-12
-3.35751e-12
-3.18401e-12
-3.00465e-12
-2.81995e-12
-2.63109e-12
-2.44018e-12
-2.25009e-12
-2.06343e-12
-1.88147e-12
-1.7013e-12
-1.52416e-12
-1.35103e-12
-1.18377e-12
-1.02593e-12
-8.80328e-13
-7.48563e-13
-6.31868e-13
-5.30312e-13
-4.43096e-13
-3.68985e-13
-3.06346e-13
-2.53924e-13
-2.10284e-13
-1.73826e-13
-1.43559e-13
-1.18503e-13
-9.76554e-14
-8.03059e-14
-6.59191e-14
-5.4041e-14
-4.41694e-14
-3.59808e-14
-2.92514e-14
-2.36903e-14
-1.90946e-14
-1.53183e-14
-1.22113e-14
-9.67218e-15
-7.58279e-15
-5.90871e-15
-4.55836e-15
-3.4881e-15
-2.54481e-15
-2.26667e-15
-1.11705e-15
-8.1061e-16
-6.23966e-16
1.2004e-16
-6.12816e-18
-6.0371e-18
-5.91662e-18
-5.81184e-18
-5.68031e-18
-5.56121e-18
-5.41402e-18
-5.28313e-18
-5.12519e-18
-4.98056e-18
-4.80655e-18
-4.64802e-18
-4.46556e-18
-4.29235e-18
-4.09686e-18
-3.91268e-18
-3.71218e-18
-3.52106e-18
-3.3153e-18
-3.11899e-18
-2.91718e-18
-2.72681e-18
-2.53749e-18
-2.3681e-18
-2.21529e-18
-2.08296e-18
-1.95585e-18
-1.84396e-18
-1.74031e-18
-1.64333e-18
-1.54961e-18
-1.46027e-18
-1.38142e-18
-1.30576e-18
-1.23233e-18
-1.15806e-18
-1.08757e-18
-1.01488e-18
-9.43727e-19
-8.72398e-19
-8.07801e-19
-7.45772e-19
-6.85801e-19
-6.27861e-19
-5.7004e-19
-5.15866e-19
-4.02833e-19
-3.5285e-19
-2.97426e-19
-2.47145e-19
-1.98253e-19
-1.57163e-19
-1.10768e-19
-7.22493e-20
-3.5381e-20
-6.08226e-21
8.16038e-20
1.05419e-19
1.28396e-19
1.91851e-19
2.12269e-19
2.23963e-19
2.36523e-19
2.40382e-19
2.5733e-19
2.64465e-19
2.72382e-19
2.67456e-19
2.72095e-19
2.63349e-19
2.56062e-19
2.42652e-19
2.42003e-19
2.36385e-19
2.3062e-19
2.19388e-19
2.11688e-19
2.00589e-19
1.88344e-19
1.73372e-19
1.57996e-19
1.41433e-19
1.24874e-19
1.08165e-19
8.47008e-20
6.29054e-20
3.13832e-20
-1.96695e-20
-1.447e-19
-2.77395e-19
-4.18141e-19
-5.25284e-19
-6.71995e-19
-7.61314e-19
-8.53916e-19
-8.82e-19
-1.03144e-18
-1.09114e-18
-1.15173e-18
-1.09263e-18
-1.12916e-18
-1.02669e-18
-9.30031e-19
-7.11972e-19
-7.28471e-19
-6.00408e-19
-4.75096e-19
-1.73617e-19
3.73497e-20
3.90273e-19
7.62103e-19
1.06749e-18
1.87692e-18
2.42572e-18
2.97906e-18
2.72899e-18
3.90899e-18
2.61385e-18
1.53626e-19
)
;

boundaryField
{
    inandouthalf11
    {
        type            cyclic;
        value           nonuniform List<scalar> 
100
(
-1.24106e-11
-1.23265e-11
-1.22827e-11
-1.22624e-11
-1.22397e-11
-1.22129e-11
-1.21852e-11
-1.21574e-11
-1.21293e-11
-1.21009e-11
-1.20722e-11
-1.20431e-11
-1.20134e-11
-1.19834e-11
-1.19529e-11
-1.19219e-11
-1.18906e-11
-1.18588e-11
-1.18265e-11
-1.17938e-11
-1.17606e-11
-1.17269e-11
-1.16928e-11
-1.16582e-11
-1.16231e-11
-1.15876e-11
-1.15516e-11
-1.15151e-11
-1.14782e-11
-1.14407e-11
-1.14028e-11
-1.13643e-11
-1.13252e-11
-1.12854e-11
-1.12449e-11
-1.12036e-11
-1.11614e-11
-1.11184e-11
-1.10747e-11
-1.10302e-11
-1.09853e-11
-1.09403e-11
-1.08953e-11
-1.08508e-11
-1.08069e-11
-1.07639e-11
-1.07215e-11
-1.06794e-11
-1.0637e-11
-1.05933e-11
-1.05466e-11
-1.04951e-11
-1.04361e-11
-1.03664e-11
-1.02824e-11
-1.01816e-11
-1.00651e-11
-9.94159e-12
-9.82757e-12
-9.74056e-12
-9.68823e-12
-9.6644e-12
-9.65722e-12
-9.65706e-12
-9.65927e-12
-9.66213e-12
-9.66525e-12
-9.66851e-12
-9.67188e-12
-9.67536e-12
-9.67904e-12
-9.68286e-12
-9.68672e-12
-9.69077e-12
-9.6949e-12
-9.69916e-12
-9.70346e-12
-9.70786e-12
-9.71237e-12
-9.71699e-12
-9.72172e-12
-9.72658e-12
-9.73158e-12
-9.73671e-12
-9.74197e-12
-9.74736e-12
-9.75287e-12
-9.7585e-12
-9.76424e-12
-9.77011e-12
-9.77611e-12
-9.78224e-12
-9.78852e-12
-9.79495e-12
-9.80153e-12
-9.80827e-12
-9.81517e-12
-9.82224e-12
-9.82947e-12
-9.83687e-12
)
;
    }
    inandouthalf12
    {
        type            cyclic;
        value           nonuniform List<scalar> 
100
(
1.24106e-11
1.23265e-11
1.22827e-11
1.22624e-11
1.22397e-11
1.22129e-11
1.21852e-11
1.21574e-11
1.21293e-11
1.21009e-11
1.20722e-11
1.20431e-11
1.20134e-11
1.19834e-11
1.19529e-11
1.19219e-11
1.18906e-11
1.18588e-11
1.18265e-11
1.17938e-11
1.17606e-11
1.17269e-11
1.16928e-11
1.16582e-11
1.16231e-11
1.15876e-11
1.15516e-11
1.15151e-11
1.14782e-11
1.14407e-11
1.14028e-11
1.13643e-11
1.13252e-11
1.12854e-11
1.12449e-11
1.12036e-11
1.11614e-11
1.11184e-11
1.10747e-11
1.10302e-11
1.09853e-11
1.09403e-11
1.08953e-11
1.08508e-11
1.08069e-11
1.07639e-11
1.07215e-11
1.06794e-11
1.0637e-11
1.05933e-11
1.05466e-11
1.04951e-11
1.04361e-11
1.03664e-11
1.02824e-11
1.01816e-11
1.00651e-11
9.94159e-12
9.82757e-12
9.74056e-12
9.68823e-12
9.6644e-12
9.65722e-12
9.65706e-12
9.65927e-12
9.66213e-12
9.66525e-12
9.66851e-12
9.67188e-12
9.67536e-12
9.67904e-12
9.68286e-12
9.68672e-12
9.69077e-12
9.6949e-12
9.69916e-12
9.70346e-12
9.70786e-12
9.71237e-12
9.71699e-12
9.72172e-12
9.72658e-12
9.73158e-12
9.73671e-12
9.74197e-12
9.74736e-12
9.75287e-12
9.7585e-12
9.76424e-12
9.77011e-12
9.77611e-12
9.78224e-12
9.78852e-12
9.79495e-12
9.80153e-12
9.80827e-12
9.81517e-12
9.82224e-12
9.82947e-12
9.83687e-12
)
;
    }
    inandouthalf21
    {
        type            cyclic;
        value           nonuniform List<scalar> 
100
(
-9.84446e-12
-9.85222e-12
-9.86018e-12
-9.86834e-12
-9.87671e-12
-9.88529e-12
-9.8941e-12
-9.90313e-12
-9.91241e-12
-9.92195e-12
-9.93174e-12
-9.94182e-12
-9.95218e-12
-9.96284e-12
-9.97382e-12
-9.98512e-12
-9.99677e-12
-1.00088e-11
-1.00212e-11
-1.0034e-11
-1.00472e-11
-1.00608e-11
-1.00749e-11
-1.00895e-11
-1.01045e-11
-1.01201e-11
-1.01363e-11
-1.01531e-11
-1.01706e-11
-1.01888e-11
-1.02078e-11
-1.02275e-11
-1.02482e-11
-1.027e-11
-1.02932e-11
-1.03177e-11
-1.03435e-11
-1.0371e-11
-1.04015e-11
-1.04365e-11
-1.04745e-11
-1.05107e-11
-1.05542e-11
-1.06107e-11
-1.06811e-11
-1.08097e-11
-1.10024e-11
1.91995e-10
5.20164e-08
1.53478e-07
2.28648e-07
2.87297e-07
3.34832e-07
3.7432e-07
4.07778e-07
4.36613e-07
4.61839e-07
4.84201e-07
5.04255e-07
5.22422e-07
5.39024e-07
5.54314e-07
5.6849e-07
5.8171e-07
5.94103e-07
6.05774e-07
6.16808e-07
6.27278e-07
6.37245e-07
6.46759e-07
6.55865e-07
6.64601e-07
6.72998e-07
6.81084e-07
6.88886e-07
6.96424e-07
7.03717e-07
7.10782e-07
7.17634e-07
7.24287e-07
7.30752e-07
7.3704e-07
7.43161e-07
7.49123e-07
7.54934e-07
7.60601e-07
7.66129e-07
7.71526e-07
7.76795e-07
7.81941e-07
7.86968e-07
7.91881e-07
7.96681e-07
8.01373e-07
8.05958e-07
8.10439e-07
8.14818e-07
8.19096e-07
8.23275e-07
8.27356e-07
)
;
    }
    inandouthalf22
    {
        type            cyclic;
        value           nonuniform List<scalar> 
100
(
9.84446e-12
9.85222e-12
9.86018e-12
9.86834e-12
9.87671e-12
9.88529e-12
9.8941e-12
9.90313e-12
9.91241e-12
9.92195e-12
9.93174e-12
9.94182e-12
9.95218e-12
9.96284e-12
9.97382e-12
9.98512e-12
9.99677e-12
1.00088e-11
1.00212e-11
1.0034e-11
1.00472e-11
1.00608e-11
1.00749e-11
1.00895e-11
1.01045e-11
1.01201e-11
1.01363e-11
1.01531e-11
1.01706e-11
1.01888e-11
1.02078e-11
1.02275e-11
1.02482e-11
1.027e-11
1.02932e-11
1.03177e-11
1.03435e-11
1.0371e-11
1.04015e-11
1.04365e-11
1.04745e-11
1.05107e-11
1.05542e-11
1.06107e-11
1.06811e-11
1.08097e-11
1.10024e-11
-1.91995e-10
-5.20164e-08
-1.53478e-07
-2.28648e-07
-2.87297e-07
-3.34832e-07
-3.7432e-07
-4.07778e-07
-4.36613e-07
-4.61839e-07
-4.84201e-07
-5.04255e-07
-5.22422e-07
-5.39024e-07
-5.54314e-07
-5.6849e-07
-5.8171e-07
-5.94103e-07
-6.05774e-07
-6.16808e-07
-6.27278e-07
-6.37245e-07
-6.46759e-07
-6.55865e-07
-6.64601e-07
-6.72998e-07
-6.81084e-07
-6.88886e-07
-6.96424e-07
-7.03717e-07
-7.10782e-07
-7.17634e-07
-7.24287e-07
-7.30752e-07
-7.3704e-07
-7.43161e-07
-7.49123e-07
-7.54934e-07
-7.60601e-07
-7.66129e-07
-7.71526e-07
-7.76795e-07
-7.81941e-07
-7.86968e-07
-7.91881e-07
-7.96681e-07
-8.01373e-07
-8.05958e-07
-8.10439e-07
-8.14818e-07
-8.19096e-07
-8.23275e-07
-8.27356e-07
)
;
    }
    inandouthalf31
    {
        type            cyclic;
        value           nonuniform List<scalar> 
110
(
8.31342e-07
8.52222e-07
8.73584e-07
8.95435e-07
9.1778e-07
9.40622e-07
9.63966e-07
9.87815e-07
1.01217e-06
1.03703e-06
1.06239e-06
1.08824e-06
1.1146e-06
1.14143e-06
1.16875e-06
1.19652e-06
1.22474e-06
1.25339e-06
1.28245e-06
1.3119e-06
1.34171e-06
1.37187e-06
1.40235e-06
1.43314e-06
1.46422e-06
1.49558e-06
1.52722e-06
1.55915e-06
1.59137e-06
1.62388e-06
1.65671e-06
1.68987e-06
1.72337e-06
1.75723e-06
1.79146e-06
1.82609e-06
1.86112e-06
1.89657e-06
1.93245e-06
1.9688e-06
2.00561e-06
2.04292e-06
2.08074e-06
2.1191e-06
2.15803e-06
2.19756e-06
2.23773e-06
2.27857e-06
2.32015e-06
2.36252e-06
2.40576e-06
2.45e-06
2.49538e-06
2.54216e-06
2.59111e-06
2.64307e-06
2.69669e-06
2.75142e-06
2.80727e-06
2.86425e-06
2.92238e-06
2.9817e-06
3.04222e-06
3.10397e-06
3.16697e-06
3.23125e-06
3.29684e-06
3.36375e-06
3.43203e-06
3.50169e-06
3.57277e-06
3.64528e-06
3.71927e-06
3.79476e-06
3.87179e-06
3.95038e-06
4.03056e-06
4.11237e-06
4.19584e-06
4.281e-06
4.36789e-06
4.45655e-06
4.54701e-06
4.6393e-06
4.73346e-06
4.82954e-06
4.92757e-06
5.02758e-06
5.12963e-06
5.23375e-06
5.33998e-06
5.44837e-06
5.55896e-06
5.67179e-06
5.78691e-06
5.90437e-06
6.02421e-06
6.14649e-06
6.27124e-06
6.39853e-06
6.52841e-06
6.66092e-06
6.79611e-06
6.93406e-06
7.0748e-06
7.2184e-06
7.36491e-06
7.5144e-06
7.66692e-06
7.82254e-06
)
;
    }
    inandouthalf32
    {
        type            cyclic;
        value           nonuniform List<scalar> 
110
(
-8.31342e-07
-8.52222e-07
-8.73584e-07
-8.95435e-07
-9.1778e-07
-9.40622e-07
-9.63966e-07
-9.87815e-07
-1.01217e-06
-1.03703e-06
-1.06239e-06
-1.08824e-06
-1.1146e-06
-1.14143e-06
-1.16875e-06
-1.19652e-06
-1.22474e-06
-1.25339e-06
-1.28245e-06
-1.3119e-06
-1.34171e-06
-1.37187e-06
-1.40235e-06
-1.43314e-06
-1.46422e-06
-1.49558e-06
-1.52722e-06
-1.55915e-06
-1.59137e-06
-1.62388e-06
-1.65671e-06
-1.68987e-06
-1.72337e-06
-1.75723e-06
-1.79146e-06
-1.82609e-06
-1.86112e-06
-1.89657e-06
-1.93245e-06
-1.9688e-06
-2.00561e-06
-2.04292e-06
-2.08074e-06
-2.1191e-06
-2.15803e-06
-2.19756e-06
-2.23773e-06
-2.27857e-06
-2.32015e-06
-2.36252e-06
-2.40576e-06
-2.45e-06
-2.49538e-06
-2.54216e-06
-2.59111e-06
-2.64307e-06
-2.69669e-06
-2.75142e-06
-2.80727e-06
-2.86425e-06
-2.92238e-06
-2.9817e-06
-3.04222e-06
-3.10397e-06
-3.16697e-06
-3.23125e-06
-3.29684e-06
-3.36375e-06
-3.43203e-06
-3.50169e-06
-3.57277e-06
-3.64528e-06
-3.71927e-06
-3.79476e-06
-3.87179e-06
-3.95038e-06
-4.03056e-06
-4.11237e-06
-4.19584e-06
-4.281e-06
-4.36789e-06
-4.45655e-06
-4.54701e-06
-4.6393e-06
-4.73346e-06
-4.82954e-06
-4.92757e-06
-5.02758e-06
-5.12963e-06
-5.23375e-06
-5.33998e-06
-5.44837e-06
-5.55896e-06
-5.67179e-06
-5.78691e-06
-5.90437e-06
-6.02421e-06
-6.14649e-06
-6.27124e-06
-6.39853e-06
-6.52841e-06
-6.66092e-06
-6.79611e-06
-6.93406e-06
-7.0748e-06
-7.2184e-06
-7.36491e-06
-7.5144e-06
-7.66692e-06
-7.82254e-06
)
;
    }
    inandouthalf41
    {
        type            cyclic;
        value           nonuniform List<scalar> 
50
(
7.00197e-06
7.00197e-06
7.00197e-06
7.00197e-06
7.00197e-06
7.00197e-06
7.00197e-06
7.00197e-06
7.00197e-06
7.00197e-06
7.00197e-06
7.00197e-06
7.00197e-06
7.00197e-06
7.00197e-06
7.00197e-06
7.00197e-06
7.00197e-06
7.00197e-06
7.00197e-06
7.00197e-06
7.00197e-06
7.00197e-06
7.00197e-06
7.00197e-06
7.00197e-06
7.00197e-06
7.00197e-06
7.00197e-06
7.00197e-06
7.00197e-06
7.00197e-06
7.00197e-06
7.00197e-06
7.00197e-06
7.00197e-06
7.00197e-06
7.00197e-06
7.00197e-06
7.00197e-06
7.00197e-06
7.00197e-06
7.00197e-06
7.00197e-06
7.00197e-06
7.00197e-06
7.00197e-06
7.00197e-06
7.00197e-06
7.00197e-06
)
;
    }
    inandouthalf42
    {
        type            cyclic;
        value           nonuniform List<scalar> 
50
(
-7.00197e-06
-7.00197e-06
-7.00197e-06
-7.00197e-06
-7.00197e-06
-7.00197e-06
-7.00197e-06
-7.00197e-06
-7.00197e-06
-7.00197e-06
-7.00197e-06
-7.00197e-06
-7.00197e-06
-7.00197e-06
-7.00197e-06
-7.00197e-06
-7.00197e-06
-7.00197e-06
-7.00197e-06
-7.00197e-06
-7.00197e-06
-7.00197e-06
-7.00197e-06
-7.00197e-06
-7.00197e-06
-7.00197e-06
-7.00197e-06
-7.00197e-06
-7.00197e-06
-7.00197e-06
-7.00197e-06
-7.00197e-06
-7.00197e-06
-7.00197e-06
-7.00197e-06
-7.00197e-06
-7.00197e-06
-7.00197e-06
-7.00197e-06
-7.00197e-06
-7.00197e-06
-7.00197e-06
-7.00197e-06
-7.00197e-06
-7.00197e-06
-7.00197e-06
-7.00197e-06
-7.00197e-06
-7.00197e-06
-7.00197e-06
)
;
    }
    top
    {
        type            symmetryPlane;
        value           uniform 0;
    }
    walls
    {
        type            fixedValue;
        value           uniform 0;
    }
    frontAndBackPlanes
    {
        type            empty;
        value           nonuniform 0();
    }
}


// ************************************************************************* //
