/*--------------------------------*- C++ -*----------------------------------*\
| =========                 |                                                 |
| \\      /  F ield         | OpenFOAM: The Open Source CFD Toolbox           |
|  \\    /   O peration     | Version:  2.4.x                                 |
|   \\  /    A nd           | Web:      www.OpenFOAM.org                      |
|    \\/     M anipulation  |                                                 |
\*---------------------------------------------------------------------------*/
FoamFile
{
    version     2.0;
    format      ascii;
    class       volVectorField;
    location    "6";
    object      susb;
}
// * * * * * * * * * * * * * * * * * * * * * * * * * * * * * * * * * * * * * //

dimensions      [0 1 -2 0 0 0 0];

internalField   nonuniform List<vector> 
360
(
(0 5.16126e-18 0)
(0 6.01751e-18 0)
(0 3.2117e-19 0)
(0 -8.49379e-19 0)
(-3.69108e-31 -4.83314e-19 0)
(-3.69057e-31 -2.80078e-19 0)
(-3.69008e-31 -2.95466e-19 0)
(0 -3.21588e-19 0)
(-7.37785e-31 -3.30947e-19 0)
(0 -3.40445e-19 0)
(-3.68771e-31 -3.44119e-19 0)
(0 -3.44826e-19 0)
(-3.68647e-31 -3.4606e-19 0)
(0 -3.47562e-19 0)
(0 -3.51205e-19 0)
(0 -3.55461e-19 0)
(0 -3.58657e-19 0)
(-3.68331e-31 -3.61121e-19 0)
(0 -3.654e-19 0)
(0 -3.67772e-19 0)
(0 -3.70356e-19 0)
(-7.36135e-31 -3.74973e-19 0)
(0 -3.77818e-19 0)
(0 -3.81221e-19 0)
(0 -3.84579e-19 0)
(-3.67795e-31 -3.86887e-19 0)
(0 -3.90926e-19 0)
(0 -3.95149e-19 0)
(0 -3.97464e-19 0)
(0 -4.00455e-19 0)
(0 -4.05917e-19 0)
(0 -4.08029e-19 0)
(0 -4.13497e-19 0)
(0 -4.19224e-19 0)
(0 -4.22339e-19 0)
(3.67069e-31 -4.27736e-19 0)
(0 -4.32784e-19 0)
(0 -4.40748e-19 0)
(0 -4.41498e-19 0)
(0 -4.45627e-19 0)
(0 -4.51401e-19 0)
(0 -4.47611e-19 0)
(3.66515e-31 -4.50023e-19 0)
(0 -4.50936e-19 0)
(0 -4.4797e-19 0)
(0 -4.49721e-19 0)
(0 -4.46949e-19 0)
(0 -4.49377e-19 0)
(0 -4.62849e-19 0)
(0 -4.7124e-19 0)
(3.65865e-31 -4.85891e-19 0)
(0 -5.11477e-19 0)
(0 -5.43621e-19 0)
(0 -5.82841e-19 0)
(0 -6.32521e-19 0)
(0 -6.78816e-19 0)
(0 -7.06736e-19 0)
(0 -7.01409e-19 0)
(0 -6.43279e-19 0)
(0 -5.64058e-19 0)
(0 -4.82689e-19 0)
(0 -4.24513e-19 0)
(0 -3.99447e-19 0)
(0 -3.91509e-19 0)
(0 -3.95782e-19 0)
(0 -4.05873e-19 0)
(0 -4.20234e-19 0)
(0 -4.33976e-19 0)
(0 -4.47143e-19 0)
(0 -4.66693e-19 0)
(0 -4.88862e-19 0)
(0 -5.00544e-19 0)
(0 -5.1539e-19 0)
(0 -5.32275e-19 0)
(0 -5.45471e-19 0)
(0 -5.56498e-19 0)
(0 -5.65531e-19 0)
(0 -5.7883e-19 0)
(0 -5.92802e-19 0)
(0 -6.06155e-19 0)
(0 -6.21335e-19 0)
(0 -6.38864e-19 0)
(0 -6.55593e-19 0)
(0 -6.72203e-19 0)
(0 -6.88371e-19 0)
(0 -7.04078e-19 0)
(0 -7.19059e-19 0)
(0 -7.33339e-19 0)
(0 -7.48488e-19 0)
(0 -7.64265e-19 0)
(0 -7.80517e-19 0)
(0 -7.97952e-19 0)
(0 -8.16374e-19 0)
(0 -8.35195e-19 0)
(0 -8.54471e-19 0)
(0 -8.74118e-19 0)
(0 -8.94038e-19 0)
(0 -9.14319e-19 0)
(0 -9.35153e-19 0)
(0 -9.56628e-19 0)
(0 -9.78812e-19 0)
(0 -1.00183e-18 0)
(0 -1.02571e-18 0)
(0 -1.05043e-18 0)
(0 -1.07606e-18 0)
(0 -1.10263e-18 0)
(0 -1.13023e-18 0)
(0 -1.15892e-18 0)
(0 -1.1888e-18 0)
(0 -1.21992e-18 0)
(0 -1.25236e-18 0)
(0 -1.28619e-18 0)
(0 -1.32147e-18 0)
(0 -1.35827e-18 0)
(0 -1.39668e-18 0)
(0 -1.43677e-18 0)
(0 -1.47863e-18 0)
(0 -1.52237e-18 0)
(0 -1.56809e-18 0)
(0 -1.61592e-18 0)
(0 -1.66596e-18 0)
(0 -1.71829e-18 0)
(0 -1.77301e-18 0)
(0 -1.83028e-18 0)
(0 -1.89054e-18 0)
(0 -1.95457e-18 0)
(0 -2.02352e-18 0)
(0 -2.09842e-18 0)
(0 -2.17933e-18 0)
(0 -2.26484e-18 0)
(0 -2.35378e-18 0)
(0 -2.45039e-18 0)
(0 -2.99272e-18 0)
(0 -1.14393e-17 0)
(0 -5.31421e-17 0)
(0 -2.66181e-16 0)
(0 -1.45695e-15 0)
(0 -9.04207e-15 0)
(0 -6.50702e-14 0)
(0 -5.21353e-13 0)
(0 -4.36136e-12 0)
(0 -4.46528e-11 0)
(0 -6.29927e-10 0)
(0 -1.07674e-08 0)
(0 -2.75057e-07 0)
(0 -1.49759e-05 0)
(0 -0.000632026 0)
(0 -0.466875 0)
(0 -2.51754 0)
(0 -1.85771 0)
(0 -1.0585 0)
(0 -0.875489 0)
(0 -0.751594 0)
(0 -0.642623 0)
(0 -0.54303 0)
(0 -0.454638 0)
(0 -0.378777 0)
(0 -0.315239 0)
(0 -0.262799 0)
(0 -0.219829 0)
(0 -0.18469 0)
(0 -0.155919 0)
(0 -0.132287 0)
(0 -0.112789 0)
(0 -0.0966235 0)
(0 -0.08315 0)
(0 -0.0718618 0)
(0 -0.062356 0)
(0 -0.0543117 0)
(0 -0.047472 0)
(0 -0.0416305 0)
(0 -0.0366203 0)
(0 -0.0323058 0)
(0 -0.0285764 0)
(0 -0.0253411 0)
(0 -0.022525 0)
(0 -0.0200659 0)
(0 -0.0179122 0)
(0 -0.0160205 0)
(0 -0.0143546 0)
(0 -0.0128836 0)
(0 -0.0115817 0)
(0 -0.0104268 0)
(0 -0.00939999 0)
(0 -0.00848522 0)
(0 -0.0076687 0)
(0 -0.0069387 0)
(0 -0.00628532 0)
(0 -0.00570032 0)
(0 -0.00517687 0)
(0 -0.00470919 0)
(0 -0.00429193 0)
(0 -0.00391982 0)
(0 -0.00358787 0)
(0 -0.00329122 0)
(0 -0.00302382 0)
(0 -0.00277786 0)
(0 -0.00254546 0)
(0 -0.00232156 0)
(0 -0.00210881 0)
(0 -0.00191533 0)
(0 -0.00173947 0)
(-4.68145e-19 -0.00157535 0)
(0 -0.00142377 0)
(0 -0.00127714 0)
(4.41766e-19 -0.00112618 0)
(0 -0.000976896 0)
(-2.11146e-19 -0.000835431 0)
(0 -0.00070248 0)
(0 -0.000582764 0)
(0 -0.000478377 0)
(0 -0.000389469 0)
(0 -0.000315843 0)
(8.89841e-20 -0.000253837 0)
(0 -0.000203161 0)
(0 -0.000163228 0)
(0 -0.00013035 0)
(0 -0.000103873 0)
(0 -8.32315e-05 0)
(-1.79218e-20 -6.6758e-05 0)
(0 -5.33967e-05 0)
(-1.66464e-20 -4.25826e-05 0)
(0 -3.42484e-05 0)
(-7.76116e-21 -2.75321e-05 0)
(0 -2.19722e-05 0)
(0 -1.76695e-05 0)
(0 -1.42309e-05 0)
(0 -1.14082e-05 0)
(3.32763e-21 -9.16411e-06 0)
(1.61468e-21 -7.30573e-06 0)
(0 -5.86868e-06 0)
(0 -4.56443e-06 0)
(0 -3.5883e-06 0)
(0 -2.73281e-06 0)
(0 -2.39135e-06 0)
(0 -3.21426e-07 0)
(0 -3.01334e-07 0)
(0 -1.11033e-06 0)
(0 -8.4627e-07 0)
(0 -3.99027e-07 0)
(0 -1.62206e-07 0)
(0 8.61294e-26 0)
(0 -2.59084e-25 0)
(-1.62683e-41 -2.70585e-26 0)
(7.48473e-42 -1.38055e-26 0)
(0 -9.74413e-27 0)
(0 -9.74367e-27 0)
(-2.7219e-42 -1.06363e-26 0)
(0 -1.01331e-26 0)
(0 -6.03625e-27 0)
(-2.03773e-43 -1.98395e-27 0)
(0 -5.88964e-28 0)
(0 -1.8478e-28 0)
(0 -5.0984e-29 0)
(0 -7.44195e-30 0)
(0 -3.26977e-31 0)
(0 -6.30336e-33 0)
(0 -7.51229e-35 0)
(0 -5.00516e-37 0)
(0 -3.10997e-39 0)
(0 -2.12876e-41 0)
(0 -1.54552e-43 0)
(0 -9.5256e-46 0)
(0 -2.96678e-47 0)
(0 -1.38428e-47 0)
(0 -6.30972e-48 0)
(0 -3.19089e-48 0)
(0 -1.67108e-48 0)
(0 -8.46354e-49 0)
(0 -4.12165e-49 0)
(0 -2.01281e-49 0)
(0 -9.65554e-50 0)
(0 -4.54505e-50 0)
(0 -2.09798e-50 0)
(0 -9.49006e-51 0)
(0 -4.20362e-51 0)
(0 -1.82193e-51 0)
(0 -7.7204e-52 0)
(0 -3.19576e-52 0)
(0 -1.29103e-52 0)
(0 -5.08513e-53 0)
(0 -1.95083e-53 0)
(0 -7.28123e-54 0)
(0 -2.64083e-54 0)
(0 -9.29542e-55 0)
(0 -3.17097e-55 0)
(0 -1.0468e-55 0)
(0 -3.3387e-56 0)
(0 -1.02701e-56 0)
(0 -3.04105e-57 0)
(0 -8.64987e-58 0)
(0 -2.35792e-58 0)
(0 -6.14432e-59 0)
(0 -1.52619e-59 0)
(0 -3.60207e-60 0)
(0 -8.04914e-61 0)
(1.588e-77 -1.69605e-61 0)
(0 -3.35425e-62 0)
(0 -6.19285e-63 0)
(0 -1.0607e-63 0)
(0 -1.67288e-64 0)
(0 -2.40774e-65 0)
(0 -3.12785e-66 0)
(0 -3.61704e-67 0)
(0 -3.65704e-68 0)
(0 -3.15537e-69 0)
(0 -2.24453e-70 0)
(0 -1.24808e-71 0)
(0 -4.94296e-73 0)
(0 -1.13371e-74 0)
(0 -5.94233e-77 0)
(0 -1.09935e-80 0)
(0 -1.21884e-82 0)
(0 -6.70562e-85 0)
(0 -2.07624e-95 0)
(0 -3.17664e-106 0)
(0 -3.37783e-117 0)
(0 -2.62471e-128 0)
(0 -1.66991e-139 0)
(0 -8.42216e-151 0)
(0 -3.58419e-162 0)
(0 -7.58026e-172 0)
(0 -2.86383e-182 0)
(0 -2.58545e-190 0)
(0 -8.68547e-201 0)
(0 -8.89348e-209 0)
(0 -3.47727e-219 0)
(0 -3.05956e-227 0)
(0 -1.47189e-237 0)
(0 -1.05344e-245 0)
(0 -9.34984e-256 0)
(0 -3.67073e-264 0)
(0 -6.10141e-274 0)
(0 -1.30171e-282 0)
(0 -3.01952e-292 0)
(0 -4.69417e-301 0)
(0 -1.42896e-310 0)
(0 -1.71841e-319 0)
(0 -0 0)
(0 0 0)
(0 0 0)
(0 0 0)
(0 0 0)
(0 0 0)
(0 0 0)
(0 0 0)
(0 0 0)
(0 0 0)
(0 0 0)
(0 0 0)
(0 0 0)
(0 0 0)
(0 0 0)
(0 0 0)
(0 0 0)
(0 0 0)
(0 0 0)
(0 0 0)
(0 0 0)
(0 0 0)
)
;

boundaryField
{
    inandouthalf11
    {
        type            cyclic;
    }
    inandouthalf12
    {
        type            cyclic;
    }
    inandouthalf21
    {
        type            cyclic;
    }
    inandouthalf22
    {
        type            cyclic;
    }
    inandouthalf31
    {
        type            cyclic;
    }
    inandouthalf32
    {
        type            cyclic;
    }
    inandouthalf41
    {
        type            cyclic;
    }
    inandouthalf42
    {
        type            cyclic;
    }
    top
    {
        type            symmetryPlane;
    }
    walls
    {
        type            zeroGradient;
    }
    frontAndBackPlanes
    {
        type            empty;
    }
}


// ************************************************************************* //
