/*--------------------------------*- C++ -*----------------------------------*\
| =========                 |                                                 |
| \\      /  F ield         | OpenFOAM: The Open Source CFD Toolbox           |
|  \\    /   O peration     | Version:  2.4.x                                 |
|   \\  /    A nd           | Web:      www.OpenFOAM.org                      |
|    \\/     M anipulation  |                                                 |
\*---------------------------------------------------------------------------*/
FoamFile
{
    version     2.0;
    format      ascii;
    class       volTensorField;
    location    "6";
    object      Tauf;
}
// * * * * * * * * * * * * * * * * * * * * * * * * * * * * * * * * * * * * * //

dimensions      [0 2 -2 0 0 0 0];

internalField   nonuniform List<tensor> 
360
(
(0 2.47625e-08 0 2.47625e-08 7.10748e-10 0 0 0 0)
(0 -1.27912e-10 0 -1.27912e-10 8.95269e-10 0 0 0 0)
(0 -6.40504e-11 0 -6.40504e-11 9.34198e-10 0 0 0 0)
(0 -4.29928e-11 0 -4.29928e-11 8.81401e-10 0 0 0 0)
(-1.61559e-24 -4.95179e-11 0 -4.95179e-11 8.78735e-10 0 0 0 0)
(-1.61559e-24 -5.45193e-11 0 -5.45193e-11 8.96309e-10 0 0 0 0)
(-1.61559e-24 -5.55121e-11 0 -5.55121e-11 9.0869e-10 0 0 0 0)
(0 -5.58809e-11 0 -5.58809e-11 9.14293e-10 0 0 0 0)
(-3.23117e-24 -5.64287e-11 0 -5.64287e-11 9.17913e-10 0 0 0 0)
(0 -5.7057e-11 0 -5.7057e-11 9.22476e-10 0 0 0 0)
(-3.23117e-24 -5.78714e-11 0 -5.78714e-11 9.28376e-10 0 0 0 0)
(0 -5.8781e-11 0 -5.8781e-11 9.34857e-10 0 0 0 0)
(-1.61559e-24 -5.96854e-11 0 -5.96854e-11 9.41259e-10 0 0 0 0)
(0 -6.05697e-11 0 -6.05697e-11 9.47295e-10 0 0 0 0)
(0 -6.14161e-11 0 -6.14161e-11 9.53095e-10 0 0 0 0)
(0 -6.22663e-11 0 -6.22663e-11 9.58923e-10 0 0 0 0)
(0 -6.31527e-11 0 -6.31527e-11 9.64876e-10 0 0 0 0)
(-3.23117e-24 -6.40672e-11 0 -6.40672e-11 9.70884e-10 0 0 0 0)
(0 -6.49691e-11 0 -6.49691e-11 9.7695e-10 0 0 0 0)
(0 -6.59087e-11 0 -6.59087e-11 9.82974e-10 0 0 0 0)
(0 -6.68487e-11 0 -6.68487e-11 9.88857e-10 0 0 0 0)
(-3.23117e-24 -6.77649e-11 0 -6.77649e-11 9.94684e-10 0 0 0 0)
(0 -6.87141e-11 0 -6.87141e-11 1.00041e-09 0 0 0 0)
(0 -6.96548e-11 0 -6.96548e-11 1.00595e-09 0 0 0 0)
(0 -7.05907e-11 0 -7.05907e-11 1.01126e-09 0 0 0 0)
(-3.23117e-24 -7.1535e-11 0 -7.1535e-11 1.01629e-09 0 0 0 0)
(0 -7.24545e-11 0 -7.24545e-11 1.02116e-09 0 0 0 0)
(0 -7.33861e-11 0 -7.33861e-11 1.02607e-09 0 0 0 0)
(0 -7.43693e-11 0 -7.43693e-11 1.03109e-09 0 0 0 0)
(0 -7.53803e-11 0 -7.53803e-11 1.03638e-09 0 0 0 0)
(0 -7.64221e-11 0 -7.64221e-11 1.0424e-09 0 0 0 0)
(0 -7.76093e-11 0 -7.76093e-11 1.04935e-09 0 0 0 0)
(0 -7.88667e-11 0 -7.88667e-11 1.05758e-09 0 0 0 0)
(0 -8.02598e-11 0 -8.02598e-11 1.06729e-09 0 0 0 0)
(0 -8.18199e-11 0 -8.18199e-11 1.07822e-09 0 0 0 0)
(3.23117e-24 -8.3442e-11 0 -8.3442e-11 1.09004e-09 0 0 0 0)
(0 -8.51171e-11 0 -8.51171e-11 1.10201e-09 0 0 0 0)
(0 -8.67082e-11 0 -8.67082e-11 1.11324e-09 0 0 0 0)
(0 -8.82221e-11 0 -8.82221e-11 1.12184e-09 0 0 0 0)
(0 -8.93364e-11 0 -8.93364e-11 1.12605e-09 0 0 0 0)
(0 -8.99363e-11 0 -8.99363e-11 1.12451e-09 0 0 0 0)
(0 -9.00657e-11 0 -9.00657e-11 1.11565e-09 0 0 0 0)
(3.23117e-24 -8.94534e-11 0 -8.94534e-11 1.09953e-09 0 0 0 0)
(0 -8.83167e-11 0 -8.83167e-11 1.07743e-09 0 0 0 0)
(0 -8.69015e-11 0 -8.69015e-11 1.05169e-09 0 0 0 0)
(0 -8.54172e-11 0 -8.54172e-11 1.02641e-09 0 0 0 0)
(0 -8.4467e-11 0 -8.4467e-11 1.0065e-09 0 0 0 0)
(0 -8.4493e-11 0 -8.4493e-11 9.98305e-10 0 0 0 0)
(0 -8.61263e-11 0 -8.61263e-11 1.00972e-09 0 0 0 0)
(0 -9.04127e-11 0 -9.04127e-11 1.04874e-09 0 0 0 0)
(3.23117e-24 -9.81231e-11 0 -9.81231e-11 1.12509e-09 0 0 0 0)
(0 -1.10376e-10 0 -1.10376e-10 1.25058e-09 0 0 0 0)
(0 -1.28561e-10 0 -1.28561e-10 1.43732e-09 0 0 0 0)
(0 -1.5361e-10 0 -1.5361e-10 1.69166e-09 0 0 0 0)
(0 -1.84726e-10 0 -1.84726e-10 2.00078e-09 0 0 0 0)
(0 -2.17215e-10 0 -2.17215e-10 2.30949e-09 0 0 0 0)
(0 -2.39935e-10 0 -2.39935e-10 2.50666e-09 0 0 0 0)
(0 -2.3755e-10 0 -2.3755e-10 2.45761e-09 0 0 0 0)
(0 -2.01215e-10 0 -2.01215e-10 2.09462e-09 0 0 0 0)
(0 -1.39585e-10 0 -1.39585e-10 1.50369e-09 0 0 0 0)
(0 -7.63604e-11 0 -7.63604e-11 8.88048e-10 0 0 0 0)
(0 -3.1125e-11 0 -3.1125e-11 4.24277e-10 0 0 0 0)
(0 -7.3894e-12 0 -7.3894e-12 1.61314e-10 0 0 0 0)
(0 2.02798e-12 0 2.02798e-12 4.61953e-11 0 0 0 0)
(0 5.06439e-12 0 5.06439e-12 6.29523e-12 0 0 0 0)
(0 5.98923e-12 0 5.98923e-12 -5.1827e-12 0 0 0 0)
(0 6.38885e-12 0 6.38885e-12 -8.15495e-12 0 0 0 0)
(0 6.64177e-12 0 6.64177e-12 -9.06192e-12 0 0 0 0)
(0 6.85603e-12 0 6.85603e-12 -9.59033e-12 0 0 0 0)
(0 7.16163e-12 0 7.16163e-12 -9.98002e-12 0 0 0 0)
(0 7.50611e-12 0 7.50611e-12 -1.02528e-11 0 0 0 0)
(0 7.68985e-12 0 7.68985e-12 -1.07233e-11 0 0 0 0)
(0 7.92218e-12 0 7.92218e-12 -1.10237e-11 0 0 0 0)
(0 8.18613e-12 0 8.18613e-12 -1.12934e-11 0 0 0 0)
(0 8.39379e-12 0 8.39379e-12 -1.16e-11 0 0 0 0)
(0 8.56835e-12 0 8.56835e-12 -1.18388e-11 0 0 0 0)
(0 8.71256e-12 0 8.71256e-12 -1.21321e-11 0 0 0 0)
(0 8.92265e-12 0 8.92265e-12 -1.2359e-11 0 0 0 0)
(0 9.14353e-12 0 9.14353e-12 -1.2637e-11 0 0 0 0)
(0 9.35528e-12 0 9.35528e-12 -1.29615e-11 0 0 0 0)
(0 9.59561e-12 0 9.59561e-12 -1.32942e-11 0 0 0 0)
(0 9.87267e-12 0 9.87267e-12 -1.36185e-11 0 0 0 0)
(0 1.0138e-11 0 1.0138e-11 -1.39869e-11 0 0 0 0)
(0 1.04019e-11 0 1.04019e-11 -1.4337e-11 0 0 0 0)
(0 1.06596e-11 0 1.06596e-11 -1.46825e-11 0 0 0 0)
(0 1.09106e-11 0 1.09106e-11 -1.50144e-11 0 0 0 0)
(0 1.1151e-11 0 1.1151e-11 -1.53356e-11 0 0 0 0)
(0 1.1381e-11 0 1.1381e-11 -1.56667e-11 0 0 0 0)
(0 1.16251e-11 0 1.16251e-11 -1.59876e-11 0 0 0 0)
(0 1.18794e-11 0 1.18794e-11 -1.63234e-11 0 0 0 0)
(0 1.21418e-11 0 1.21418e-11 -1.66833e-11 0 0 0 0)
(0 1.24232e-11 0 1.24232e-11 -1.70542e-11 0 0 0 0)
(0 1.27207e-11 0 1.27207e-11 -1.74401e-11 0 0 0 0)
(0 1.30252e-11 0 1.30252e-11 -1.78449e-11 0 0 0 0)
(0 1.33376e-11 0 1.33376e-11 -1.82573e-11 0 0 0 0)
(0 1.36566e-11 0 1.36566e-11 -1.86777e-11 0 0 0 0)
(0 1.39807e-11 0 1.39807e-11 -1.91069e-11 0 0 0 0)
(0 1.43114e-11 0 1.43114e-11 -1.95457e-11 0 0 0 0)
(0 1.46516e-11 0 1.46516e-11 -1.99947e-11 0 0 0 0)
(0 1.50029e-11 0 1.50029e-11 -2.04573e-11 0 0 0 0)
(0 1.53664e-11 0 1.53664e-11 -2.09362e-11 0 0 0 0)
(0 1.57441e-11 0 1.57441e-11 -2.14314e-11 0 0 0 0)
(0 1.61365e-11 0 1.61365e-11 -2.19446e-11 0 0 0 0)
(0 1.65434e-11 0 1.65434e-11 -2.24771e-11 0 0 0 0)
(0 1.69658e-11 0 1.69658e-11 -2.30291e-11 0 0 0 0)
(0 1.74047e-11 0 1.74047e-11 -2.36018e-11 0 0 0 0)
(0 1.78611e-11 0 1.78611e-11 -2.41969e-11 0 0 0 0)
(0 1.83366e-11 0 1.83366e-11 -2.48156e-11 0 0 0 0)
(0 1.88324e-11 0 1.88324e-11 -2.54598e-11 0 0 0 0)
(0 1.93499e-11 0 1.93499e-11 -2.61309e-11 0 0 0 0)
(0 1.98902e-11 0 1.98902e-11 -2.68305e-11 0 0 0 0)
(0 2.04547e-11 0 2.04547e-11 -2.75601e-11 0 0 0 0)
(0 2.10446e-11 0 2.10446e-11 -2.83212e-11 0 0 0 0)
(0 2.16612e-11 0 2.16612e-11 -2.91155e-11 0 0 0 0)
(0 2.23061e-11 0 2.23061e-11 -2.99445e-11 0 0 0 0)
(0 2.29806e-11 0 2.29806e-11 -3.08101e-11 0 0 0 0)
(0 2.36865e-11 0 2.36865e-11 -3.17144e-11 0 0 0 0)
(0 2.44257e-11 0 2.44257e-11 -3.26596e-11 0 0 0 0)
(0 2.52004e-11 0 2.52004e-11 -3.36479e-11 0 0 0 0)
(0 2.60128e-11 0 2.60128e-11 -3.46817e-11 0 0 0 0)
(0 2.68648e-11 0 2.68648e-11 -3.57632e-11 0 0 0 0)
(0 2.77582e-11 0 2.77582e-11 -3.68947e-11 0 0 0 0)
(0 2.86951e-11 0 2.86951e-11 -3.80794e-11 0 0 0 0)
(0 2.96786e-11 0 2.96786e-11 -3.93237e-11 0 0 0 0)
(0 3.07162e-11 0 3.07162e-11 -4.06389e-11 0 0 0 0)
(0 3.18214e-11 0 3.18214e-11 -4.20416e-11 0 0 0 0)
(0 3.30135e-11 0 3.30135e-11 -4.35493e-11 0 0 0 0)
(0 3.43106e-11 0 3.43106e-11 -4.51703e-11 0 0 0 0)
(0 3.57147e-11 0 3.57147e-11 -4.6898e-11 0 0 0 0)
(0 3.72038e-11 0 3.72038e-11 -4.87301e-11 0 0 0 0)
(0 3.87602e-11 0 3.87602e-11 -5.07243e-11 0 0 0 0)
(0 4.04548e-11 0 4.04548e-11 -5.30166e-11 0 0 0 0)
(0 4.24948e-11 0 4.24948e-11 -5.56781e-11 0 0 0 0)
(0 4.50241e-11 0 4.50241e-11 -5.85727e-11 0 0 0 0)
(0 4.7794e-11 0 4.7794e-11 -6.1628e-11 0 0 0 0)
(0 5.04233e-11 0 5.04233e-11 -6.52318e-11 0 0 0 0)
(0 5.33149e-11 0 5.33149e-11 -7.02137e-11 0 0 0 0)
(0 5.79966e-11 0 5.79966e-11 -7.70327e-11 0 0 0 0)
(0 6.55838e-11 0 6.55838e-11 -8.35581e-11 0 0 0 0)
(0 7.30707e-11 0 7.30707e-11 -8.69251e-11 0 0 0 0)
(0 7.43038e-11 0 7.43038e-11 -9.80845e-11 0 0 0 0)
(0 7.97943e-11 0 7.97943e-11 -1.14395e-10 0 0 0 0)
(0 1.00105e-10 0 1.00105e-10 -1.31242e-10 0 0 0 0)
(0 1.27052e-10 0 1.27052e-10 -1.98012e-10 0 0 0 0)
(0 1.99133e-10 0 1.99133e-10 -4.87448e-10 0 0 0 0)
(0 3.22079e-10 0 3.22079e-10 -3.00359e-10 0 0 0 0)
(0 -2.04947e-07 0 -2.04947e-07 -9.24023e-09 0 0 0 0)
(0 -6.70703e-05 0 -6.70703e-05 9.94085e-08 0 0 0 0)
(0 -0.000786206 0 -0.000786206 9.4346e-07 0 0 0 0)
(0 -0.00239122 0 -0.00239122 8.44484e-07 0 0 0 0)
(0 -0.00279831 0 -0.00279831 -1.01806e-06 0 0 0 0)
(0 -0.00293876 0 -0.00293876 -9.14466e-07 0 0 0 0)
(0 -0.00298442 0 -0.00298442 -1.38623e-06 0 0 0 0)
(0 -0.00298791 0 -0.00298791 -1.65559e-06 0 0 0 0)
(0 -0.00297416 0 -0.00297416 -1.76791e-06 0 0 0 0)
(0 -0.00295396 0 -0.00295396 -1.76823e-06 0 0 0 0)
(0 -0.00293169 0 -0.00293169 -1.69389e-06 0 0 0 0)
(0 -0.00290888 0 -0.00290888 -1.57434e-06 0 0 0 0)
(0 -0.00288589 0 -0.00288589 -1.4322e-06 0 0 0 0)
(0 -0.00286266 0 -0.00286266 -1.28304e-06 0 0 0 0)
(0 -0.00283901 0 -0.00283901 -1.13652e-06 0 0 0 0)
(0 -0.00281477 0 -0.00281477 -9.98105e-07 0 0 0 0)
(0 -0.00278981 0 -0.00278981 -8.70581e-07 0 0 0 0)
(0 -0.00276404 0 -0.00276404 -7.55031e-07 0 0 0 0)
(0 -0.00273739 0 -0.00273739 -6.51545e-07 0 0 0 0)
(0 -0.00270983 0 -0.00270983 -5.59635e-07 0 0 0 0)
(0 -0.00268137 0 -0.00268137 -4.78514e-07 0 0 0 0)
(0 -0.00265199 0 -0.00265199 -4.07259e-07 0 0 0 0)
(0 -0.00262172 0 -0.00262172 -3.4491e-07 0 0 0 0)
(0 -0.00259057 0 -0.00259057 -2.90527e-07 0 0 0 0)
(0 -0.00255857 0 -0.00255857 -2.43226e-07 0 0 0 0)
(0 -0.00252573 0 -0.00252573 -2.02191e-07 0 0 0 0)
(0 -0.00249209 0 -0.00249209 -1.6668e-07 0 0 0 0)
(0 -0.00245767 0 -0.00245767 -1.36023e-07 0 0 0 0)
(0 -0.0024225 0 -0.0024225 -1.0962e-07 0 0 0 0)
(0 -0.00238661 0 -0.00238661 -8.69394e-08 0 0 0 0)
(0 -0.00235001 0 -0.00235001 -6.75066e-08 0 0 0 0)
(0 -0.00231274 0 -0.00231274 -5.09026e-08 0 0 0 0)
(0 -0.00227482 0 -0.00227482 -3.67575e-08 0 0 0 0)
(0 -0.00223628 0 -0.00223628 -2.47462e-08 0 0 0 0)
(0 -0.00219713 0 -0.00219713 -1.45837e-08 0 0 0 0)
(0 -0.0021574 0 -0.0021574 -6.02067e-09 0 0 0 0)
(0 -0.00211712 0 -0.00211712 1.15984e-09 0 0 0 0)
(0 -0.0020763 0 -0.0020763 7.14652e-09 0 0 0 0)
(0 -0.00203498 0 -0.00203498 1.21033e-08 0 0 0 0)
(0 -0.00199317 0 -0.00199317 1.61738e-08 0 0 0 0)
(0 -0.0019509 0 -0.0019509 1.9486e-08 0 0 0 0)
(0 -0.00190819 0 -0.00190819 2.21583e-08 0 0 0 0)
(0 -0.00186506 0 -0.00186506 2.4305e-08 0 0 0 0)
(0 -0.00182154 0 -0.00182154 2.60386e-08 0 0 0 0)
(0 -0.00177766 0 -0.00177766 2.74672e-08 0 0 0 0)
(0 -0.00173343 0 -0.00173343 2.86844e-08 0 0 0 0)
(0 -0.00168888 0 -0.00168888 2.97602e-08 0 0 0 0)
(0 -0.00164405 0 -0.00164405 3.07379e-08 0 0 0 0)
(0 -0.00159895 0 -0.00159895 3.16266e-08 0 0 0 0)
(0 -0.00155361 0 -0.00155361 3.23786e-08 0 0 0 0)
(0 -0.00150807 0 -0.00150807 3.28762e-08 0 0 0 0)
(0 -0.00146234 0 -0.00146234 3.29673e-08 0 0 0 0)
(0 -0.00141647 0 -0.00141647 3.25628e-08 0 0 0 0)
(0 -0.00137049 0 -0.00137049 3.17273e-08 0 0 0 0)
(0 -0.00132442 0 -0.00132442 3.06329e-08 0 0 0 0)
(0 -0.00127786 0 -0.00127786 2.93906e-08 0 0 0 0)
(1.67373e-17 -0.00123036 0 -0.00123036 2.80174e-08 0 0 0 0)
(0 -0.00118194 0 -0.00118194 2.64855e-08 0 0 0 0)
(0 -0.00113264 0 -0.00113264 2.46863e-08 0 0 0 0)
(-3.02369e-17 -0.00108251 0 -0.00108251 2.25236e-08 0 0 0 0)
(0 -0.0010316 0 -0.0010316 2.0067e-08 0 0 0 0)
(2.80991e-17 -0.000979978 0 -0.000979978 1.74813e-08 0 0 0 0)
(0 -0.000927733 0 -0.000927733 1.49095e-08 0 0 0 0)
(-2.5995e-17 -0.000874965 0 -0.000874965 1.24782e-08 0 0 0 0)
(0 -0.000821793 0 -0.000821793 1.02883e-08 0 0 0 0)
(0 -0.000768353 0 -0.000768353 8.38968e-09 0 0 0 0)
(0 -0.000714801 0 -0.000714801 6.78297e-09 0 0 0 0)
(-2.19668e-17 -0.000661315 0 -0.000661315 5.43991e-09 0 0 0 0)
(0 -0.000608093 0 -0.000608093 4.33906e-09 0 0 0 0)
(0 -0.000555353 0 -0.000555353 3.45499e-09 0 0 0 0)
(0 -0.000503336 0 -0.000503336 2.7444e-09 0 0 0 0)
(0 -0.000452299 0 -0.000452299 2.17533e-09 0 0 0 0)
(0 -0.000402516 0 -0.000402516 1.72741e-09 0 0 0 0)
(1.67928e-17 -0.000354267 0 -0.000354267 1.37436e-09 0 0 0 0)
(0 -0.000307831 0 -0.000307831 1.09205e-09 0 0 0 0)
(1.54302e-17 -0.000263475 0 -0.000263475 8.67189e-10 0 0 0 0)
(0 -0.000221444 0 -0.000221444 6.9083e-10 0 0 0 0)
(1.42866e-17 -0.00018194 0 -0.00018194 5.51274e-10 0 0 0 0)
(0 -0.000145119 0 -0.000145119 4.39251e-10 0 0 0 0)
(0 -0.000111083 0 -0.000111083 3.50582e-10 0 0 0 0)
(0 -7.98718e-05 0 -7.98718e-05 2.80608e-10 0 0 0 0)
(0 -5.14749e-05 0 -5.14749e-05 2.24481e-10 0 0 0 0)
(-1.22319e-17 -2.58364e-05 0 -2.58364e-05 1.79293e-10 0 0 0 0)
(-1.18978e-17 -2.86828e-06 0 -2.86828e-06 1.43e-10 0 0 0 0)
(0 1.75377e-05 0 1.75377e-05 1.13493e-10 0 0 0 0)
(0 3.54992e-05 0 3.54992e-05 8.91125e-11 0 0 0 0)
(0 5.11347e-05 0 5.11347e-05 6.97373e-11 0 0 0 0)
(0 6.45586e-05 0 6.45586e-05 5.56059e-11 0 0 0 0)
(0 7.58785e-05 0 7.58785e-05 3.58727e-11 0 0 0 0)
(0 8.51944e-05 0 8.51944e-05 2.83635e-11 0 0 0 0)
(0 9.25973e-05 0 9.25973e-05 3.62063e-11 0 0 0 0)
(0 9.81765e-05 0 9.81765e-05 1.89456e-11 0 0 0 0)
(0 0.000102015 0 0.000102015 1.24592e-11 0 0 0 0)
(0 0.000104188 0 0.000104188 1.93033e-11 0 0 0 0)
(0 0.00010477 0 0.00010477 2.35453e-12 0 0 0 0)
(0 0.000103836 0 0.000103836 -3.65022e-12 0 0 0 0)
(0 0.000101458 0 0.000101458 1.0181e-12 0 0 0 0)
(1.24777e-17 9.77087e-05 0 9.77087e-05 -1.09013e-14 0 0 0 0)
(-1.14921e-17 9.26643e-05 0 9.26643e-05 -1.7273e-13 0 0 0 0)
(0 8.64032e-05 0 8.64032e-05 8.49979e-13 0 0 0 0)
(0 7.90122e-05 0 7.90122e-05 -1.97208e-12 0 0 0 0)
(8.39568e-18 7.05903e-05 0 7.05903e-05 3.17462e-12 0 0 0 0)
(0 6.12561e-05 0 6.12561e-05 -4.20391e-12 0 0 0 0)
(0 5.1158e-05 0 5.1158e-05 4.89346e-12 0 0 0 0)
(5.08471e-18 4.04922e-05 0 4.04922e-05 -5.08883e-12 0 0 0 0)
(0 2.95362e-05 0 2.95362e-05 4.7315e-12 0 0 0 0)
(0 1.87128e-05 0 1.87128e-05 -3.79817e-12 0 0 0 0)
(0 8.31343e-06 0 8.31343e-06 2.36532e-12 0 0 0 0)
(0 1.28958e-06 0 1.28958e-06 -7.76531e-13 0 0 0 0)
(0 8.22139e-08 0 8.22139e-08 2.5654e-13 0 0 0 0)
(0 3.45639e-09 0 3.45639e-09 -2.25416e-13 0 0 0 0)
(0 1.91797e-10 0 1.91797e-10 2.21717e-13 0 0 0 0)
(0 1.0086e-10 0 1.0086e-10 -2.18284e-13 0 0 0 0)
(0 7.6907e-11 0 7.6907e-11 2.15232e-13 0 0 0 0)
(0 5.89713e-11 0 5.89713e-11 -2.1206e-13 0 0 0 0)
(0 4.50067e-11 0 4.50067e-11 2.09239e-13 0 0 0 0)
(0 3.41703e-11 0 3.41703e-11 -2.06297e-13 0 0 0 0)
(0 2.58016e-11 0 2.58016e-11 2.03659e-13 0 0 0 0)
(0 1.93728e-11 0 1.93728e-11 -2.00908e-13 0 0 0 0)
(0 1.44614e-11 0 1.44614e-11 1.98393e-13 0 0 0 0)
(-1.12435e-19 1.07315e-11 0 1.07315e-11 -1.95784e-13 0 0 0 0)
(0 7.91576e-12 0 7.91576e-12 1.9335e-13 0 0 0 0)
(0 5.80257e-12 0 5.80257e-12 -1.90831e-13 0 0 0 0)
(0 4.22687e-12 0 4.22687e-12 1.88441e-13 0 0 0 0)
(0 3.05942e-12 0 3.05942e-12 -1.85971e-13 0 0 0 0)
(0 2.19992e-12 0 2.19992e-12 1.83601e-13 0 0 0 0)
(0 1.57114e-12 0 1.57114e-12 -1.81152e-13 0 0 0 0)
(0 1.11458e-12 0 1.11458e-12 1.78778e-13 0 0 0 0)
(0 7.85499e-13 0 7.85499e-13 -1.7633e-13 0 0 0 0)
(0 5.49315e-13 0 5.49315e-13 1.73941e-13 0 0 0 0)
(0 3.81245e-13 0 3.81245e-13 -1.71476e-13 0 0 0 0)
(0 2.62795e-13 0 2.62795e-13 1.69061e-13 0 0 0 0)
(0 1.79885e-13 0 1.79885e-13 -1.66569e-13 0 0 0 0)
(0 1.22202e-13 0 1.22202e-13 1.64122e-13 0 0 0 0)
(0 8.23174e-14 0 8.23174e-14 -1.616e-13 0 0 0 0)
(0 5.48847e-14 0 5.48847e-14 1.59113e-13 0 0 0 0)
(0 3.64753e-14 0 3.64753e-14 -1.56559e-13 0 0 0 0)
(0 2.39405e-14 0 2.39405e-14 1.54034e-13 0 0 0 0)
(0 1.55814e-14 0 1.55814e-14 -1.51445e-13 0 0 0 0)
(0 1.01615e-14 0 1.01615e-14 1.4888e-13 0 0 0 0)
(-1.50452e-19 6.43506e-15 0 6.43506e-15 -1.46244e-13 0 0 0 0)
(0 4.07138e-15 0 4.07138e-15 1.43649e-13 0 0 0 0)
(0 2.52949e-15 0 2.52949e-15 -1.40993e-13 0 0 0 0)
(0 1.51885e-15 0 1.51885e-15 1.38354e-13 0 0 0 0)
(0 1.00726e-15 0 1.00726e-15 -1.35666e-13 0 0 0 0)
(0 6.69433e-16 0 6.69433e-16 1.32993e-13 0 0 0 0)
(0 3.75585e-16 0 3.75585e-16 -1.30276e-13 0 0 0 0)
(0 1.82766e-16 0 1.82766e-16 1.27571e-13 0 0 0 0)
(0 1.42299e-16 0 1.42299e-16 -1.24828e-13 0 0 0 0)
(0 1.21858e-16 0 1.21858e-16 1.22093e-13 0 0 0 0)
(-1.23064e-19 -3.16889e-17 0 -3.16889e-17 -1.1932e-13 0 0 0 0)
(0 -4.16727e-17 0 -4.16727e-17 1.16569e-13 0 0 0 0)
(0 1.33584e-17 0 1.33584e-17 -1.13782e-13 0 0 0 0)
(1.15864e-19 4.75334e-17 0 4.75334e-17 1.11002e-13 0 0 0 0)
(0 6.62052e-17 0 6.62052e-17 -1.08185e-13 0 0 0 0)
(0 2.12584e-17 0 2.12584e-17 1.05372e-13 0 0 0 0)
(0 -4.45072e-17 0 -4.45072e-17 -1.02537e-13 0 0 0 0)
(0 -3.27965e-17 0 -3.27965e-17 9.96968e-14 0 0 0 0)
(0 8.51412e-18 0 8.51412e-18 -9.68377e-14 0 0 0 0)
(0 6.23674e-17 0 6.23674e-17 9.3973e-14 0 0 0 0)
(0 -1.11483e-17 0 -1.11483e-17 -9.10883e-14 0 0 0 0)
(0 -1.6624e-17 0 -1.6624e-17 8.8194e-14 0 0 0 0)
(0 3.11845e-17 0 3.11845e-17 -8.5282e-14 0 0 0 0)
(0 -8.24759e-17 0 -8.24759e-17 8.24041e-14 0 0 0 0)
(0 -8.31945e-17 0 -8.31945e-17 -9.0877e-14 0 0 0 0)
(0 -2.03023e-17 0 -2.03023e-17 8.98736e-14 0 0 0 0)
(0 3.20814e-17 0 3.20814e-17 -8.89063e-14 0 0 0 0)
(0 1.6623e-17 0 1.6623e-17 8.7933e-14 0 0 0 0)
(0 -2.96462e-18 0 -2.96462e-18 -8.69477e-14 0 0 0 0)
(0 3.04138e-17 0 3.04138e-17 8.59545e-14 0 0 0 0)
(0 -2.1917e-17 0 -2.1917e-17 -8.495e-14 0 0 0 0)
(0 -1.30496e-17 0 -1.30496e-17 8.39358e-14 0 0 0 0)
(0 4.04723e-17 0 4.04723e-17 -8.29099e-14 0 0 0 0)
(0 -4.58457e-17 0 -4.58457e-17 8.18717e-14 0 0 0 0)
(0 -3.21608e-17 0 -3.21608e-17 -8.08215e-14 0 0 0 0)
(0 2.83756e-17 0 2.83756e-17 7.97598e-14 0 0 0 0)
(0 3.57342e-17 0 3.57342e-17 -7.86834e-14 0 0 0 0)
(0 6.59098e-18 0 6.59098e-18 7.75943e-14 0 0 0 0)
(0 -8.60268e-18 0 -8.60268e-18 -7.64896e-14 0 0 0 0)
(0 -4.04988e-18 0 -4.04988e-18 7.53726e-14 0 0 0 0)
(0 -1.95082e-17 0 -1.95082e-17 -7.42347e-14 0 0 0 0)
(0 2.55433e-17 0 2.55433e-17 7.30936e-14 0 0 0 0)
(0 2.64698e-19 0 2.64698e-19 -7.19098e-14 0 0 0 0)
(0 -5.92923e-18 0 -5.92923e-18 7.07571e-14 0 0 0 0)
(0 -1.32349e-18 0 -1.32349e-18 -6.95256e-14 0 0 0 0)
(0 -2.00641e-17 0 -2.00641e-17 6.8337e-14 0 0 0 0)
(0 2.59404e-18 0 2.59404e-18 -6.70656e-14 0 0 0 0)
(0 2.49345e-17 0 2.49345e-17 6.58298e-14 0 0 0 0)
(0 5.37337e-18 0 5.37337e-18 -6.45196e-14 0 0 0 0)
(0 3.1499e-18 0 3.1499e-18 6.32245e-14 0 0 0 0)
(0 -1.97465e-17 0 -1.97465e-17 -6.18641e-14 0 0 0 0)
(0 -1.41084e-17 0 -1.41084e-17 6.05182e-14 0 0 0 0)
(0 -6.69685e-18 0 -6.69685e-18 -5.91056e-14 0 0 0 0)
(0 -8.92561e-17 0 -8.92561e-17 5.76756e-14 0 0 0 0)
(0 -2.87647e-16 0 -2.87647e-16 -5.6211e-14 0 0 0 0)
(0 -5.29396e-20 0 -5.29396e-20 5.46929e-14 0 0 0 0)
(0 2.87356e-16 0 2.87356e-16 -5.3168e-14 0 0 0 0)
(0 8.07328e-17 0 8.07328e-17 5.15414e-14 0 0 0 0)
(0 -5.82335e-19 0 -5.82335e-19 -4.99251e-14 0 0 0 0)
(0 9.79382e-18 0 9.79382e-18 4.82079e-14 0 0 0 0)
(0 5.35748e-17 0 5.35748e-17 -4.64844e-14 0 0 0 0)
(0 2.10964e-17 0 2.10964e-17 4.46089e-14 0 0 0 0)
(0 -2.57551e-17 0 -2.57551e-17 -4.27701e-14 0 0 0 0)
(0 -8.1474e-17 0 -8.1474e-17 4.07117e-14 0 0 0 0)
(0 7.49095e-18 0 7.49095e-18 -3.87158e-14 0 0 0 0)
(0 1.18161e-16 0 1.18161e-16 3.64204e-14 0 0 0 0)
(0 5.9107e-17 0 5.9107e-17 -3.4219e-14 0 0 0 0)
(0 -3.29019e-17 0 -3.29019e-17 3.15611e-14 0 0 0 0)
(0 -4.40722e-17 0 -4.40722e-17 -2.895e-14 0 0 0 0)
(0 -3.89635e-17 0 -3.89635e-17 2.58349e-14 0 0 0 0)
(0 -2.94609e-17 0 -2.94609e-17 -2.24456e-14 0 0 0 0)
(0 2.51728e-17 0 2.51728e-17 1.84286e-14 0 0 0 0)
(0 -3.91753e-17 0 -3.91753e-17 -1.30631e-14 0 0 0 0)
(0 -6.12775e-17 0 -6.12775e-17 5.28399e-15 0 0 0 0)
)
;

boundaryField
{
    inandouthalf11
    {
        type            cyclic;
    }
    inandouthalf12
    {
        type            cyclic;
    }
    inandouthalf21
    {
        type            cyclic;
    }
    inandouthalf22
    {
        type            cyclic;
    }
    inandouthalf31
    {
        type            cyclic;
    }
    inandouthalf32
    {
        type            cyclic;
    }
    inandouthalf41
    {
        type            cyclic;
    }
    inandouthalf42
    {
        type            cyclic;
    }
    top
    {
        type            symmetryPlane;
    }
    walls
    {
        type            zeroGradient;
    }
    frontAndBackPlanes
    {
        type            empty;
    }
}


// ************************************************************************* //
