/*--------------------------------*- C++ -*----------------------------------*\
| =========                 |                                                 |
| \\      /  F ield         | OpenFOAM: The Open Source CFD Toolbox           |
|  \\    /   O peration     | Version:  2.4.x                                 |
|   \\  /    A nd           | Web:      www.OpenFOAM.org                      |
|    \\/     M anipulation  |                                                 |
\*---------------------------------------------------------------------------*/
FoamFile
{
    version     2.0;
    format      ascii;
    class       volTensorField;
    location    "6";
    object      Taus;
}
// * * * * * * * * * * * * * * * * * * * * * * * * * * * * * * * * * * * * * //

dimensions      [0 2 -2 0 0 0 0];

internalField   nonuniform List<tensor> 
360
(
(0 -0.0147185 0 -0.0147185 -0.196423 0 0 0 0)
(0 -0.0208605 0 -0.0208605 -0.24128 0 0 0 0)
(0 -0.025383 0 -0.025383 -0.248476 0 0 0 0)
(0 -0.0251417 0 -0.0251417 -0.243301 0 0 0 0)
(1.08993e-17 -0.0244877 0 -0.0244877 -0.240065 0 0 0 0)
(1.05134e-17 -0.0244426 0 -0.0244426 -0.238643 0 0 0 0)
(1.03375e-17 -0.0245331 0 -0.0245331 -0.237255 0 0 0 0)
(0 -0.0245776 0 -0.0245776 -0.23567 0 0 0 0)
(2.02408e-17 -0.0245981 0 -0.0245981 -0.234065 0 0 0 0)
(0 -0.0246044 0 -0.0246044 -0.232422 0 0 0 0)
(1.97161e-17 -0.0246016 0 -0.0246016 -0.230754 0 0 0 0)
(0 -0.0246003 0 -0.0246003 -0.229102 0 0 0 0)
(3.83085e-17 -0.0246007 0 -0.0246007 -0.22745 0 0 0 0)
(0 -0.0246033 0 -0.0246033 -0.225808 0 0 0 0)
(0 -0.0246055 0 -0.0246055 -0.224165 0 0 0 0)
(0 -0.0246044 0 -0.0246044 -0.222514 0 0 0 0)
(0 -0.0246009 0 -0.0246009 -0.220857 0 0 0 0)
(3.57583e-17 -0.0245969 0 -0.0245969 -0.219202 0 0 0 0)
(0 -0.0245918 0 -0.0245918 -0.217548 0 0 0 0)
(0 -0.0245839 0 -0.0245839 -0.21588 0 0 0 0)
(0 -0.0245783 0 -0.0245783 -0.21423 0 0 0 0)
(6.76287e-17 -0.0245695 0 -0.0245695 -0.212565 0 0 0 0)
(0 -0.0245594 0 -0.0245594 -0.210901 0 0 0 0)
(0 -0.0245488 0 -0.0245488 -0.209237 0 0 0 0)
(0 -0.024537 0 -0.024537 -0.207569 0 0 0 0)
(6.40534e-17 -0.0245253 0 -0.0245253 -0.205903 0 0 0 0)
(0 -0.0245139 0 -0.0245139 -0.204242 0 0 0 0)
(0 -0.0244994 0 -0.0244994 -0.202568 0 0 0 0)
(0 -0.0244852 0 -0.0244852 -0.200899 0 0 0 0)
(0 -0.0244718 0 -0.0244718 -0.199233 0 0 0 0)
(0 -0.024457 0 -0.024457 -0.197566 0 0 0 0)
(0 -0.0244394 0 -0.0244394 -0.195884 0 0 0 0)
(0 -0.0244245 0 -0.0244245 -0.194227 0 0 0 0)
(0 -0.0244013 0 -0.0244013 -0.19253 0 0 0 0)
(0 -0.02438 0 -0.02438 -0.190858 0 0 0 0)
(-5.47323e-17 -0.0243551 0 -0.0243551 -0.189167 0 0 0 0)
(0 -0.0243291 0 -0.0243291 -0.187483 0 0 0 0)
(0 -0.0242972 0 -0.0242972 -0.185786 0 0 0 0)
(0 -0.0242626 0 -0.0242626 -0.184075 0 0 0 0)
(0 -0.0242348 0 -0.0242348 -0.182402 0 0 0 0)
(0 -0.0242005 0 -0.0242005 -0.180693 0 0 0 0)
(0 -0.0241733 0 -0.0241733 -0.179008 0 0 0 0)
(-5.06881e-17 -0.0241563 0 -0.0241563 -0.177351 0 0 0 0)
(0 -0.0241397 0 -0.0241397 -0.175674 0 0 0 0)
(0 -0.0241351 0 -0.0241351 -0.174033 0 0 0 0)
(0 -0.0241378 0 -0.0241378 -0.172396 0 0 0 0)
(0 -0.0241476 0 -0.0241476 -0.17076 0 0 0 0)
(0 -0.0241688 0 -0.0241688 -0.169156 0 0 0 0)
(0 -0.0241817 0 -0.0241817 -0.167521 0 0 0 0)
(0 -0.0241813 0 -0.0241813 -0.165851 0 0 0 0)
(-1.85216e-16 -0.0241733 0 -0.0241733 -0.16419 0 0 0 0)
(0 -0.0241347 0 -0.0241347 -0.162462 0 0 0 0)
(0 -0.0240564 0 -0.0240564 -0.160691 0 0 0 0)
(0 -0.0239234 0 -0.0239234 -0.158835 0 0 0 0)
(0 -0.0237286 0 -0.0237286 -0.156917 0 0 0 0)
(0 -0.0234618 0 -0.0234618 -0.154877 0 0 0 0)
(0 -0.023156 0 -0.023156 -0.152809 0 0 0 0)
(0 -0.0228463 0 -0.0228463 -0.150726 0 0 0 0)
(0 -0.022602 0 -0.022602 -0.148784 0 0 0 0)
(0 -0.0224753 0 -0.0224753 -0.147089 0 0 0 0)
(0 -0.0224727 0 -0.0224727 -0.145608 0 0 0 0)
(0 -0.0225922 0 -0.0225922 -0.144348 0 0 0 0)
(0 -0.0227885 0 -0.0227885 -0.143147 0 0 0 0)
(0 -0.0230294 0 -0.0230294 -0.141969 0 0 0 0)
(0 -0.0232886 0 -0.0232886 -0.140744 0 0 0 0)
(0 -0.023552 0 -0.023552 -0.139463 0 0 0 0)
(0 -0.0238066 0 -0.0238066 -0.138095 0 0 0 0)
(0 -0.024046 0 -0.024046 -0.136652 0 0 0 0)
(0 -0.0242635 0 -0.0242635 -0.135146 0 0 0 0)
(0 -0.024438 0 -0.024438 -0.133606 0 0 0 0)
(0 -0.0245149 0 -0.0245149 -0.132037 0 0 0 0)
(0 -0.0244482 0 -0.0244482 -0.130505 0 0 0 0)
(0 -0.0242212 0 -0.0242212 -0.12907 0 0 0 0)
(0 -0.0238432 0 -0.0238432 -0.127688 0 0 0 0)
(0 -0.023392 0 -0.023392 -0.126365 0 0 0 0)
(0 -0.0229444 0 -0.0229444 -0.12504 0 0 0 0)
(0 -0.0225567 0 -0.0225567 -0.123713 0 0 0 0)
(0 -0.0222403 0 -0.0222403 -0.122352 0 0 0 0)
(0 -0.0219882 0 -0.0219882 -0.120955 0 0 0 0)
(0 -0.0217882 0 -0.0217882 -0.119523 0 0 0 0)
(0 -0.0216272 0 -0.0216272 -0.118063 0 0 0 0)
(0 -0.0214894 0 -0.0214894 -0.116569 0 0 0 0)
(0 -0.0213659 0 -0.0213659 -0.115045 0 0 0 0)
(0 -0.0212511 0 -0.0212511 -0.113498 0 0 0 0)
(0 -0.0211404 0 -0.0211404 -0.111928 0 0 0 0)
(0 -0.0210317 0 -0.0210317 -0.110341 0 0 0 0)
(0 -0.0209229 0 -0.0209229 -0.108737 0 0 0 0)
(0 -0.020814 0 -0.020814 -0.107122 0 0 0 0)
(0 -0.0207035 0 -0.0207035 -0.105496 0 0 0 0)
(0 -0.0205894 0 -0.0205894 -0.10386 0 0 0 0)
(0 -0.0204709 0 -0.0204709 -0.102214 0 0 0 0)
(0 -0.0203467 0 -0.0203467 -0.100559 0 0 0 0)
(0 -0.0202153 0 -0.0202153 -0.0988945 0 0 0 0)
(0 -0.0200764 0 -0.0200764 -0.097221 0 0 0 0)
(0 -0.01993 0 -0.01993 -0.0955394 0 0 0 0)
(0 -0.0197763 0 -0.0197763 -0.0938503 0 0 0 0)
(0 -0.0196157 0 -0.0196157 -0.0921546 0 0 0 0)
(0 -0.0194488 0 -0.0194488 -0.0904531 0 0 0 0)
(0 -0.0192761 0 -0.0192761 -0.0887465 0 0 0 0)
(0 -0.0190978 0 -0.0190978 -0.0870349 0 0 0 0)
(0 -0.0189143 0 -0.0189143 -0.0853187 0 0 0 0)
(0 -0.0187257 0 -0.0187257 -0.0835982 0 0 0 0)
(0 -0.0185323 0 -0.0185323 -0.0818733 0 0 0 0)
(0 -0.0183343 0 -0.0183343 -0.0801442 0 0 0 0)
(0 -0.018132 0 -0.018132 -0.0784113 0 0 0 0)
(0 -0.0179258 0 -0.0179258 -0.0766745 0 0 0 0)
(0 -0.0177159 0 -0.0177159 -0.0749342 0 0 0 0)
(0 -0.0175025 0 -0.0175025 -0.0731904 0 0 0 0)
(0 -0.017286 0 -0.017286 -0.0714431 0 0 0 0)
(0 -0.0170666 0 -0.0170666 -0.0696926 0 0 0 0)
(0 -0.0168446 0 -0.0168446 -0.0679389 0 0 0 0)
(0 -0.0166202 0 -0.0166202 -0.0661821 0 0 0 0)
(0 -0.0163937 0 -0.0163937 -0.0644223 0 0 0 0)
(0 -0.0161655 0 -0.0161655 -0.0626596 0 0 0 0)
(0 -0.015936 0 -0.015936 -0.0608941 0 0 0 0)
(0 -0.0157056 0 -0.0157056 -0.0591259 0 0 0 0)
(0 -0.0154748 0 -0.0154748 -0.0573551 0 0 0 0)
(0 -0.015244 0 -0.015244 -0.0555817 0 0 0 0)
(0 -0.0150138 0 -0.0150138 -0.0538058 0 0 0 0)
(0 -0.0147845 0 -0.0147845 -0.0520273 0 0 0 0)
(0 -0.0145569 0 -0.0145569 -0.0502465 0 0 0 0)
(0 -0.0143312 0 -0.0143312 -0.0484632 0 0 0 0)
(0 -0.0141082 0 -0.0141082 -0.0466774 0 0 0 0)
(0 -0.0138884 0 -0.0138884 -0.0448893 0 0 0 0)
(0 -0.0136721 0 -0.0136721 -0.0430988 0 0 0 0)
(0 -0.0134596 0 -0.0134596 -0.0413055 0 0 0 0)
(0 -0.0132502 0 -0.0132502 -0.039509 0 0 0 0)
(0 -0.013043 0 -0.013043 -0.0377084 0 0 0 0)
(0 -0.0128369 0 -0.0128369 -0.0359027 0 0 0 0)
(0 -0.012632 0 -0.012632 -0.0340907 0 0 0 0)
(0 -0.0124298 0 -0.0124298 -0.0322714 0 0 0 0)
(0 -0.0122324 0 -0.0122324 -0.0304436 0 0 0 0)
(0 -0.0120364 0 -0.0120364 -0.0286044 0 0 0 0)
(0 -0.0118317 0 -0.0118317 -0.0267488 0 0 0 0)
(0 -0.0116104 0 -0.0116104 -0.0248726 0 0 0 0)
(0 -0.011381 0 -0.011381 -0.0229753 0 0 0 0)
(0 -0.0111552 0 -0.0111552 -0.0210577 0 0 0 0)
(0 -0.0109108 0 -0.0109108 -0.0191259 0 0 0 0)
(0 -0.0105782 0 -0.0105782 -0.0172044 0 0 0 0)
(0 -0.0101187 0 -0.0101187 -0.015303 0 0 0 0)
(0 -0.00964882 0 -0.00964882 -0.0133805 0 0 0 0)
(0 -0.00930953 0 -0.00930953 -0.0114579 0 0 0 0)
(0 -0.00886582 0 -0.00886582 -0.00939252 0 0 0 0)
(0 -0.00823576 0 -0.00823576 -0.00709648 0 0 0 0)
(0 -0.00760255 0 -0.00760255 -0.00378935 0 0 0 0)
(0 -0.00601072 0 -0.00601072 -0.000593186 0 0 0 0)
(0 -0.00240967 0 -0.00240967 -0.00118314 0 0 0 0)
(0 -0.00161463 0 -0.00161463 -3.97109e-06 0 0 0 0)
(0 -0.00181418 0 -0.00181418 -7.23738e-06 0 0 0 0)
(0 -0.00230118 0 -0.00230118 -8.6701e-06 0 0 0 0)
(0 -0.0019778 0 -0.0019778 -5.11699e-06 0 0 0 0)
(0 -0.001782 0 -0.001782 -4.91901e-06 0 0 0 0)
(0 -0.00172083 0 -0.00172083 -5.25169e-06 0 0 0 0)
(0 -0.00175829 0 -0.00175829 -5.61931e-06 0 0 0 0)
(0 -0.00187025 0 -0.00187025 -5.87205e-06 0 0 0 0)
(0 -0.00204191 0 -0.00204191 -5.83744e-06 0 0 0 0)
(0 -0.00226438 0 -0.00226438 -5.28387e-06 0 0 0 0)
(0 -0.00253247 0 -0.00253247 -3.9499e-06 0 0 0 0)
(0 -0.00284337 0 -0.00284337 -1.55926e-06 0 0 0 0)
(0 -0.00319581 0 -0.00319581 2.17734e-06 0 0 0 0)
(0 -0.00358955 0 -0.00358955 7.56617e-06 0 0 0 0)
(0 -0.00402501 0 -0.00402501 1.49358e-05 0 0 0 0)
(0 -0.00450307 0 -0.00450307 2.46411e-05 0 0 0 0)
(0 -0.00502489 0 -0.00502489 3.70678e-05 0 0 0 0)
(0 -0.0055918 0 -0.0055918 5.2637e-05 0 0 0 0)
(0 -0.00620519 0 -0.00620519 7.18082e-05 0 0 0 0)
(0 -0.00686647 0 -0.00686647 9.50836e-05 0 0 0 0)
(0 -0.00757697 0 -0.00757697 0.000123012 0 0 0 0)
(0 -0.00833791 0 -0.00833791 0.000156193 0 0 0 0)
(0 -0.00915035 0 -0.00915035 0.000195284 0 0 0 0)
(0 -0.0100152 0 -0.0100152 0.000241001 0 0 0 0)
(0 -0.0109329 0 -0.0109329 0.000294132 0 0 0 0)
(0 -0.0119039 0 -0.0119039 0.000355539 0 0 0 0)
(0 -0.012928 0 -0.012928 0.000426169 0 0 0 0)
(0 -0.014005 0 -0.014005 0.000507056 0 0 0 0)
(0 -0.0151338 0 -0.0151338 0.00059933 0 0 0 0)
(0 -0.0163134 0 -0.0163134 0.000704221 0 0 0 0)
(0 -0.0175418 0 -0.0175418 0.00082306 0 0 0 0)
(0 -0.0188168 0 -0.0188168 0.000957286 0 0 0 0)
(0 -0.0201356 0 -0.0201356 0.00110844 0 0 0 0)
(0 -0.0214948 0 -0.0214948 0.00127819 0 0 0 0)
(0 -0.0228905 0 -0.0228905 0.00146828 0 0 0 0)
(0 -0.0243182 0 -0.0243182 0.0016806 0 0 0 0)
(0 -0.0257726 0 -0.0257726 0.00191714 0 0 0 0)
(0 -0.027248 0 -0.027248 0.00218003 0 0 0 0)
(0 -0.0287378 0 -0.0287378 0.00247149 0 0 0 0)
(0 -0.0302351 0 -0.0302351 0.00279376 0 0 0 0)
(0 -0.0317323 0 -0.0317323 0.00314896 0 0 0 0)
(0 -0.0332217 0 -0.0332217 0.00353872 0 0 0 0)
(0 -0.0346961 0 -0.0346961 0.00396357 0 0 0 0)
(0 -0.0361495 0 -0.0361495 0.00442229 0 0 0 0)
(0 -0.0375779 0 -0.0375779 0.00491118 0 0 0 0)
(0 -0.0389803 0 -0.0389803 0.00542382 0 0 0 0)
(0 -0.0403588 0 -0.0403588 0.00595068 0 0 0 0)
(0 -0.04172 0 -0.04172 0.00647882 0 0 0 0)
(0 -0.043075 0 -0.043075 0.00699282 0 0 0 0)
(0 -0.0444357 0 -0.0444357 0.00747823 0 0 0 0)
(0 -0.0458077 0 -0.0458077 0.00792662 0 0 0 0)
(0 -0.0471845 0 -0.0471845 0.00833924 0 0 0 0)
(0 -0.0485484 0 -0.0485484 0.00872113 0 0 0 0)
(0 -0.0498978 0 -0.0498978 0.00906539 0 0 0 0)
(0 -0.0512885 0 -0.0512885 0.00935348 0 0 0 0)
(3.88167e-15 -0.0527725 0 -0.0527725 0.00955562 0 0 0 0)
(0 -0.0544095 0 -0.0544095 0.00962508 0 0 0 0)
(0 -0.056299 0 -0.056299 0.0095125 0 0 0 0)
(-5.23587e-15 -0.0584665 0 -0.0584665 0.00919559 0 0 0 0)
(0 -0.0608797 0 -0.0608797 0.00867784 0 0 0 0)
(3.24384e-15 -0.0635544 0 -0.0635544 0.00796658 0 0 0 0)
(0 -0.0664479 0 -0.0664479 0.00708054 0 0 0 0)
(-8.00573e-15 -0.0694734 0 -0.0694734 0.00605476 0 0 0 0)
(0 -0.0725872 0 -0.0725872 0.00492546 0 0 0 0)
(0 -0.0756914 0 -0.0756914 0.00372338 0 0 0 0)
(0 -0.0787624 0 -0.0787624 0.00246591 0 0 0 0)
(-1.13828e-14 -0.0817369 0 -0.0817369 0.00118706 0 0 0 0)
(0 -0.0844425 0 -0.0844425 -6.08098e-05 0 0 0 0)
(0 -0.0869274 0 -0.0869274 -0.00127897 0 0 0 0)
(0 -0.0891442 0 -0.0891442 -0.00245613 0 0 0 0)
(0 -0.0909415 0 -0.0909415 -0.00354174 0 0 0 0)
(0 -0.0923656 0 -0.0923656 -0.0045422 0 0 0 0)
(0 -0.0934276 0 -0.0934276 -0.00548332 0 0 0 0)
(0 -0.0941041 0 -0.0941041 -0.00635657 0 0 0 0)
(0 -0.0942864 0 -0.0942864 -0.00712258 0 0 0 0)
(0 -0.0940024 0 -0.0940024 -0.00780519 0 0 0 0)
(0 -0.0933295 0 -0.0933295 -0.00845147 0 0 0 0)
(0 -0.0921213 0 -0.0921213 -0.00901837 0 0 0 0)
(0 -0.0903755 0 -0.0903755 -0.00951572 0 0 0 0)
(0 -0.088152 0 -0.088152 -0.0100073 0 0 0 0)
(0 -0.0854003 0 -0.0854003 -0.010502 0 0 0 0)
(-1.30138e-14 -0.0821 0 -0.0821 -0.0110382 0 0 0 0)
(-1.24097e-14 -0.0782012 0 -0.0782012 -0.0116342 0 0 0 0)
(0 -0.073708 0 -0.073708 -0.0124151 0 0 0 0)
(0 -0.0684007 0 -0.0684007 -0.0133035 0 0 0 0)
(0 -0.0619883 0 -0.0619883 -0.0143567 0 0 0 0)
(0 -0.0542152 0 -0.0542152 -0.0153355 0 0 0 0)
(0 -0.045736 0 -0.045736 -0.0180041 0 0 0 0)
(0 -0.0424229 0 -0.0424229 -0.0217312 0 0 0 0)
(0 -0 0 -0 -0 0 0 0 0)
(0 -0 0 -0 0 0 0 0 0)
(0 0 0 0 0 0 0 0 0)
(0 0 0 0 -0 0 0 0 0)
(0 0 0 0 -0 0 0 0 0)
(0 0 0 0 -0 0 0 0 0)
(0 0 0 0 0 0 0 0 0)
(0 0 0 0 -0 0 0 0 0)
(0 0 0 0 -0 0 0 0 0)
(0 0 0 0 -0 0 0 0 0)
(0 0 0 0 -0 0 0 0 0)
(0 0 0 0 -0 0 0 0 0)
(0 0 0 0 -0 0 0 0 0)
(0 0 0 0 0 0 0 0 0)
(0 0 0 0 0 0 0 0 0)
(0 0 0 0 0 0 0 0 0)
(0 0 0 0 0 0 0 0 0)
(0 0 0 0 0 0 0 0 0)
(0 0 0 0 0 0 0 0 0)
(0 0 0 0 0 0 0 0 0)
(0 0 0 0 0 0 0 0 0)
(0 0 0 0 0 0 0 0 0)
(0 0 0 0 -0 0 0 0 0)
(0 0 0 0 0 0 0 0 0)
(0 0 0 0 -0 0 0 0 0)
(0 0 0 0 0 0 0 0 0)
(0 0 0 0 -0 0 0 0 0)
(0 0 0 0 0 0 0 0 0)
(0 0 0 0 -0 0 0 0 0)
(0 0 0 0 0 0 0 0 0)
(-0 0 0 0 -0 0 0 0 0)
(0 0 0 0 0 0 0 0 0)
(0 0 0 0 -0 0 0 0 0)
(0 0 0 0 0 0 0 0 0)
(0 0 0 0 -0 0 0 0 0)
(0 0 0 0 -0 0 0 0 0)
(0 0 0 0 0 0 0 0 0)
(0 0 0 0 0 0 0 0 0)
(0 0 0 0 -0 0 0 0 0)
(0 0 0 0 0 0 0 0 0)
(0 0 0 0 -0 0 0 0 0)
(0 0 0 0 0 0 0 0 0)
(0 0 0 0 -0 0 0 0 0)
(0 0 0 0 0 0 0 0 0)
(0 0 0 0 -0 0 0 0 0)
(0 0 0 0 0 0 0 0 0)
(0 0 0 0 -0 0 0 0 0)
(0 0 0 0 0 0 0 0 0)
(0 0 0 0 -0 0 0 0 0)
(0 0 0 0 0 0 0 0 0)
(-0 0 0 0 -0 0 0 0 0)
(0 0 0 0 0 0 0 0 0)
(0 0 0 0 -0 0 0 0 0)
(0 0 0 0 0 0 0 0 0)
(0 0 0 0 -0 0 0 0 0)
(0 0 0 0 0 0 0 0 0)
(0 0 0 0 -0 0 0 0 0)
(0 0 0 0 0 0 0 0 0)
(0 0 0 0 -0 0 0 0 0)
(0 0 0 0 0 0 0 0 0)
(-0 -0 0 -0 -0 0 0 0 0)
(0 0 0 0 0 0 0 0 0)
(0 -0 0 -0 -0 0 0 0 0)
(0 0 0 0 0 0 0 0 0)
(0 -0 0 -0 -0 0 0 0 0)
(0 0 0 0 0 0 0 0 0)
(0 -0 0 -0 -0 0 0 0 0)
(0 0 0 0 0 0 0 0 0)
(0 -0 0 -0 -0 0 0 0 0)
(0 0 0 0 0 0 0 0 0)
(0 -0 0 -0 -0 0 0 0 0)
(0 0 0 0 0 0 0 0 0)
(0 -0 0 -0 -0 0 0 0 0)
(0 -0 0 -0 0 0 0 0 0)
(0 -0 0 -0 -0 0 0 0 0)
(0 0 0 0 0 0 0 0 0)
(0 -0 0 -0 -0 0 0 0 0)
(0 0 0 0 0 0 0 0 0)
(0 -0 0 -0 -0 0 0 0 0)
(0 0 0 0 0 0 0 0 0)
(0 -0 0 -0 -0 0 0 0 0)
(0 0 0 0 0 0 0 0 0)
(0 -0 0 -0 -0 0 0 0 0)
(0 0 0 0 0 0 0 0 0)
(0 -0 0 -0 -0 0 0 0 0)
(0 0 0 0 0 0 0 0 0)
(0 -0 0 -0 -0 0 0 0 0)
(0 0 0 0 0 0 0 0 0)
(0 -0 0 -0 -0 0 0 0 0)
(0 0 0 0 0 0 0 0 0)
(0 -0 0 -0 -0 0 0 0 0)
(0 0 0 0 0 0 0 0 0)
(0 -0 0 -0 -0 0 0 0 0)
(0 0 0 0 0 0 0 0 0)
(0 -0 0 -0 -0 0 0 0 0)
(0 0 0 0 0 0 0 0 0)
(0 -0 0 -0 -0 0 0 0 0)
(0 0 0 0 0 0 0 0 0)
(0 -0 0 -0 -0 0 0 0 0)
(0 0 0 0 0 0 0 0 0)
(0 -0 0 -0 -0 0 0 0 0)
(0 0 0 0 0 0 0 0 0)
(0 -0 0 -0 -0 0 0 0 0)
(0 -0 0 -0 0 0 0 0 0)
(0 -0 0 -0 -0 0 0 0 0)
(0 0 0 0 0 0 0 0 0)
(0 0 0 0 -0 0 0 0 0)
(0 0 0 0 0 0 0 0 0)
(0 -0 0 -0 -0 0 0 0 0)
(0 0 0 0 0 0 0 0 0)
(0 0 0 0 -0 0 0 0 0)
(0 0 0 0 0 0 0 0 0)
(0 -0 0 -0 -0 0 0 0 0)
(0 -0 0 -0 0 0 0 0 0)
(0 -0 0 -0 -0 0 0 0 0)
(0 0 0 0 0 0 0 0 0)
(0 -0 0 -0 -0 0 0 0 0)
(0 -0 0 -0 0 0 0 0 0)
(0 -0 0 -0 0 0 0 0 0)
(0 -0 0 -0 0 0 0 0 0)
(0 -0 0 -0 0 0 0 0 0)
(0 -0 0 -0 0 0 0 0 0)
(0 -0 0 -0 0 0 0 0 0)
(0 -0 0 -0 0 0 0 0 0)
)
;

boundaryField
{
    inandouthalf11
    {
        type            cyclic;
    }
    inandouthalf12
    {
        type            cyclic;
    }
    inandouthalf21
    {
        type            cyclic;
    }
    inandouthalf22
    {
        type            cyclic;
    }
    inandouthalf31
    {
        type            cyclic;
    }
    inandouthalf32
    {
        type            cyclic;
    }
    inandouthalf41
    {
        type            cyclic;
    }
    inandouthalf42
    {
        type            cyclic;
    }
    top
    {
        type            symmetryPlane;
    }
    walls
    {
        type            zeroGradient;
    }
    frontAndBackPlanes
    {
        type            empty;
    }
}


// ************************************************************************* //
