/*--------------------------------*- C++ -*----------------------------------*\
| =========                 |                                                 |
| \\      /  F ield         | OpenFOAM: The Open Source CFD Toolbox           |
|  \\    /   O peration     | Version:  2.4.x                                 |
|   \\  /    A nd           | Web:      www.OpenFOAM.org                      |
|    \\/     M anipulation  |                                                 |
\*---------------------------------------------------------------------------*/
FoamFile
{
    version     2.0;
    format      ascii;
    class       volScalarField;
    location    "6";
    object      Theta_0;
}
// * * * * * * * * * * * * * * * * * * * * * * * * * * * * * * * * * * * * * //

dimensions      [0 2 -2 0 0 0 0];

internalField   nonuniform List<scalar> 
360
(
6.66603e-21
6.67737e-21
6.67293e-21
6.67133e-21
6.67199e-21
6.67265e-21
6.67291e-21
6.673e-21
6.67309e-21
6.67321e-21
6.67338e-21
6.67355e-21
6.67373e-21
6.67389e-21
6.67405e-21
6.67422e-21
6.67438e-21
6.67455e-21
6.67473e-21
6.6749e-21
6.67507e-21
6.67524e-21
6.67541e-21
6.67558e-21
6.67574e-21
6.67589e-21
6.67603e-21
6.67619e-21
6.67634e-21
6.6765e-21
6.67669e-21
6.6769e-21
6.67716e-21
6.67746e-21
6.67781e-21
6.67819e-21
6.67858e-21
6.67896e-21
6.67926e-21
6.67942e-21
6.6794e-21
6.67913e-21
6.67863e-21
6.67794e-21
6.67714e-21
6.67637e-21
6.67577e-21
6.6755e-21
6.67579e-21
6.67689e-21
6.67919e-21
6.68335e-21
6.69043e-21
6.70192e-21
6.71901e-21
6.74019e-21
6.75698e-21
6.75485e-21
6.72831e-21
6.6938e-21
6.67146e-21
6.66333e-21
6.66159e-21
6.66137e-21
6.66135e-21
6.66135e-21
6.66134e-21
6.66134e-21
6.66134e-21
6.66134e-21
6.66134e-21
6.66134e-21
6.66134e-21
6.66134e-21
6.66134e-21
6.66134e-21
6.66134e-21
6.66134e-21
6.66133e-21
6.66133e-21
6.66133e-21
6.66133e-21
6.66133e-21
6.66133e-21
6.66133e-21
6.66133e-21
6.66133e-21
6.66132e-21
6.66132e-21
6.66132e-21
6.66132e-21
6.66132e-21
6.66132e-21
6.66132e-21
6.66132e-21
6.66131e-21
6.66131e-21
6.66131e-21
6.66131e-21
6.66131e-21
6.66131e-21
6.6613e-21
6.6613e-21
6.6613e-21
6.6613e-21
6.6613e-21
6.6613e-21
6.66129e-21
6.66129e-21
6.66129e-21
6.66129e-21
6.66129e-21
6.66128e-21
6.66128e-21
6.66128e-21
6.66128e-21
6.66127e-21
6.66127e-21
6.66127e-21
6.66127e-21
6.66126e-21
6.66126e-21
6.66126e-21
6.66126e-21
6.66125e-21
6.66125e-21
6.66125e-21
6.66124e-21
6.66124e-21
6.66123e-21
6.66123e-21
6.66124e-21
1.031e-20
4.3277e-20
2.16564e-19
1.18826e-18
7.19492e-18
4.85874e-17
3.70181e-16
3.22169e-15
3.24262e-14
3.82396e-13
5.37101e-12
9.14473e-11
2.0855e-09
1.17748e-07
5.84228e-06
9.33868e-05
0.000883577
0.00226631
0.00296658
0.00341195
0.00375162
0.00403587
0.00428117
0.00449305
0.00467414
0.0048269
0.00495398
0.00505822
0.00514236
0.00520892
0.00526017
0.00529805
0.00532425
0.00534018
0.00534706
0.00534593
0.00533765
0.00532298
0.00530258
0.00527702
0.0052468
0.00521237
0.00517414
0.00513248
0.00508771
0.00504017
0.00499013
0.00493787
0.00488366
0.00482773
0.00477032
0.00471165
0.00465192
0.00459135
0.00453011
0.00446839
0.00440635
0.00434416
0.00428196
0.00421988
0.00415806
0.00409659
0.00403558
0.00397511
0.00391524
0.00385602
0.0037975
0.00373968
0.00368258
0.00362561
0.00356822
0.00351038
0.00345206
0.00339322
0.00333379
0.00327368
0.0032128
0.00315102
0.00308825
0.00302434
0.00295916
0.00289258
0.00282445
0.00275461
0.0026829
0.00260916
0.00253319
0.00245481
0.00237379
0.0022899
0.00220287
0.00211241
0.00201819
0.0019198
0.0018168
0.00170862
0.0015946
0.00147387
0.00134531
0.00120741
0.00105796
0.00089356
0.000708215
0.000488895
0
0
0
0
0
0
0
0
0
0
0
0
0
0
0
0
0
0
0
0
0
0
0
0
0
0
0
0
0
0
0
0
0
0
0
0
0
0
0
0
0
0
0
0
0
0
0
0
0
0
0
0
0
0
0
0
0
0
0
0
0
0
0
0
0
0
0
0
0
0
0
0
0
0
0
0
0
0
0
0
0
0
0
0
0
0
0
0
0
0
0
0
0
0
0
0
0
0
0
0
0
0
0
0
0
0
0
0
0
0
0
0
0
0
0
0
0
0
0
0
0
0
0
0
)
;

boundaryField
{
    inandouthalf11
    {
        type            cyclic;
    }
    inandouthalf12
    {
        type            cyclic;
    }
    inandouthalf21
    {
        type            cyclic;
    }
    inandouthalf22
    {
        type            cyclic;
    }
    inandouthalf31
    {
        type            cyclic;
    }
    inandouthalf32
    {
        type            cyclic;
    }
    inandouthalf41
    {
        type            cyclic;
    }
    inandouthalf42
    {
        type            cyclic;
    }
    top
    {
        type            symmetryPlane;
    }
    walls
    {
        type            zeroGradient;
    }
    frontAndBackPlanes
    {
        type            empty;
    }
}


// ************************************************************************* //
