/*--------------------------------*- C++ -*----------------------------------*\
| =========                 |                                                 |
| \\      /  F ield         | OpenFOAM: The Open Source CFD Toolbox           |
|  \\    /   O peration     | Version:  2.4.x                                 |
|   \\  /    A nd           | Web:      www.OpenFOAM.org                      |
|    \\/     M anipulation  |                                                 |
\*---------------------------------------------------------------------------*/
FoamFile
{
    version     2.0;
    format      ascii;
    class       volScalarField;
    location    "6";
    object      Theta;
}
// * * * * * * * * * * * * * * * * * * * * * * * * * * * * * * * * * * * * * //

dimensions      [0 2 -2 0 0 0 0];

internalField   nonuniform List<scalar> 
360
(
6.66603e-21
6.67737e-21
6.67292e-21
6.67133e-21
6.67199e-21
6.67265e-21
6.6729e-21
6.673e-21
6.67309e-21
6.67321e-21
6.67337e-21
6.67355e-21
6.67373e-21
6.67389e-21
6.67405e-21
6.67421e-21
6.67438e-21
6.67455e-21
6.67472e-21
6.6749e-21
6.67507e-21
6.67524e-21
6.67541e-21
6.67557e-21
6.67573e-21
6.67588e-21
6.67603e-21
6.67618e-21
6.67634e-21
6.6765e-21
6.67668e-21
6.6769e-21
6.67715e-21
6.67746e-21
6.67781e-21
6.67818e-21
6.67858e-21
6.67896e-21
6.67926e-21
6.67942e-21
6.67939e-21
6.67913e-21
6.67863e-21
6.67794e-21
6.67714e-21
6.67637e-21
6.67577e-21
6.6755e-21
6.67579e-21
6.67689e-21
6.67918e-21
6.68333e-21
6.6904e-21
6.70186e-21
6.71894e-21
6.74011e-21
6.75694e-21
6.75491e-21
6.72843e-21
6.69392e-21
6.67151e-21
6.66334e-21
6.6616e-21
6.66137e-21
6.66135e-21
6.66135e-21
6.66134e-21
6.66134e-21
6.66134e-21
6.66134e-21
6.66134e-21
6.66134e-21
6.66134e-21
6.66134e-21
6.66134e-21
6.66134e-21
6.66134e-21
6.66134e-21
6.66133e-21
6.66133e-21
6.66133e-21
6.66133e-21
6.66133e-21
6.66133e-21
6.66133e-21
6.66133e-21
6.66133e-21
6.66132e-21
6.66132e-21
6.66132e-21
6.66132e-21
6.66132e-21
6.66132e-21
6.66132e-21
6.66132e-21
6.66131e-21
6.66131e-21
6.66131e-21
6.66131e-21
6.66131e-21
6.66131e-21
6.6613e-21
6.6613e-21
6.6613e-21
6.6613e-21
6.6613e-21
6.6613e-21
6.66129e-21
6.66129e-21
6.66129e-21
6.66129e-21
6.66129e-21
6.66128e-21
6.66128e-21
6.66128e-21
6.66128e-21
6.66127e-21
6.66127e-21
6.66127e-21
6.66127e-21
6.66126e-21
6.66126e-21
6.66126e-21
6.66126e-21
6.66125e-21
6.66125e-21
6.66125e-21
6.66124e-21
6.66124e-21
6.66123e-21
6.66123e-21
6.66124e-21
1.03086e-20
4.32705e-20
2.16534e-19
1.18812e-18
7.19412e-18
4.85819e-17
3.70133e-16
3.22119e-15
3.24202e-14
3.82312e-13
5.36963e-12
9.14203e-11
2.0847e-09
1.1768e-07
5.8395e-06
9.33539e-05
0.000883401
0.00226612
0.00296643
0.00341181
0.00375149
0.00403574
0.00428105
0.00449293
0.00467403
0.00482679
0.00495388
0.00505812
0.00514226
0.00520883
0.00526008
0.00529797
0.00532417
0.00534011
0.005347
0.00534587
0.0053376
0.00532294
0.00530255
0.005277
0.00524679
0.00521237
0.00517414
0.00513248
0.00508773
0.00504019
0.00499016
0.00493791
0.00488371
0.00482778
0.00477038
0.00471172
0.004652
0.00459143
0.0045302
0.00446848
0.00440645
0.00434426
0.00428206
0.00421999
0.00415817
0.0040967
0.00403569
0.00397522
0.00391536
0.00385614
0.00379762
0.0037398
0.0036827
0.00362573
0.00356833
0.00351049
0.00345217
0.00339333
0.0033339
0.00327379
0.0032129
0.00315113
0.00308835
0.00302444
0.00295926
0.00289267
0.00282454
0.0027547
0.00268299
0.00260924
0.00253328
0.00245489
0.00237387
0.00228997
0.00220294
0.00211248
0.00201825
0.00191987
0.00181686
0.00170868
0.00159465
0.00147392
0.00134536
0.00120745
0.001058
0.000893589
0.000708239
0.000488911
0
0
0
0
0
0
0
0
0
0
0
0
0
0
0
0
0
0
0
0
0
0
0
0
0
0
0
0
0
0
0
0
0
0
0
0
0
0
0
0
0
0
0
0
0
0
0
0
0
0
0
0
0
0
0
0
0
0
0
0
0
0
0
0
0
0
0
0
0
0
0
0
0
0
0
0
0
0
0
0
0
0
0
0
0
0
0
0
0
0
0
0
0
0
0
0
0
0
0
0
0
0
0
0
0
0
0
0
0
0
0
0
0
0
0
0
0
0
0
0
0
0
0
0
)
;

boundaryField
{
    inandouthalf11
    {
        type            cyclic;
    }
    inandouthalf12
    {
        type            cyclic;
    }
    inandouthalf21
    {
        type            cyclic;
    }
    inandouthalf22
    {
        type            cyclic;
    }
    inandouthalf31
    {
        type            cyclic;
    }
    inandouthalf32
    {
        type            cyclic;
    }
    inandouthalf41
    {
        type            cyclic;
    }
    inandouthalf42
    {
        type            cyclic;
    }
    top
    {
        type            symmetryPlane;
    }
    walls
    {
        type            zeroGradient;
    }
    frontAndBackPlanes
    {
        type            empty;
    }
}


// ************************************************************************* //
