/*--------------------------------*- C++ -*----------------------------------*\
| =========                 |                                                 |
| \\      /  F ield         | OpenFOAM: The Open Source CFD Toolbox           |
|  \\    /   O peration     | Version:  2.4.x                                 |
|   \\  /    A nd           | Web:      www.OpenFOAM.org                      |
|    \\/     M anipulation  |                                                 |
\*---------------------------------------------------------------------------*/
FoamFile
{
    version     2.0;
    format      ascii;
    class       volVectorField;
    location    "6";
    object      U;
}
// * * * * * * * * * * * * * * * * * * * * * * * * * * * * * * * * * * * * * //

dimensions      [0 1 -1 0 0 0 0];

internalField   nonuniform List<vector> 
360
(
(4.83681e-06 2.95041e-08 0)
(4.77789e-06 -4.62226e-09 0)
(4.74024e-06 -5.79641e-09 0)
(4.71623e-06 -3.80953e-10 0)
(4.69103e-06 1.03008e-09 0)
(4.66317e-06 4.80156e-10 0)
(4.63446e-06 1.03559e-10 0)
(4.60549e-06 5.01782e-11 0)
(4.57622e-06 8.18108e-11 0)
(4.54664e-06 1.26404e-10 0)
(4.51667e-06 1.56662e-10 0)
(4.48625e-06 1.58429e-10 0)
(4.45536e-06 1.47437e-10 0)
(4.42402e-06 1.36253e-10 0)
(4.39225e-06 1.33637e-10 0)
(4.36003e-06 1.37882e-10 0)
(4.32737e-06 1.41546e-10 0)
(4.29425e-06 1.43108e-10 0)
(4.26066e-06 1.41823e-10 0)
(4.2266e-06 1.42013e-10 0)
(4.19205e-06 1.35851e-10 0)
(4.15703e-06 1.36104e-10 0)
(4.12153e-06 1.33409e-10 0)
(4.08554e-06 1.2729e-10 0)
(4.04907e-06 1.20341e-10 0)
(4.01212e-06 1.14438e-10 0)
(3.97469e-06 1.10423e-10 0)
(3.93679e-06 1.14553e-10 0)
(3.8984e-06 1.17542e-10 0)
(3.8595e-06 1.27977e-10 0)
(3.82007e-06 1.45638e-10 0)
(3.78009e-06 1.80927e-10 0)
(3.73946e-06 2.04745e-10 0)
(3.69818e-06 2.53619e-10 0)
(3.65611e-06 2.73342e-10 0)
(3.61324e-06 2.94598e-10 0)
(3.56951e-06 2.89875e-10 0)
(3.52494e-06 2.53401e-10 0)
(3.47955e-06 1.79816e-10 0)
(3.43345e-06 3.40709e-11 0)
(3.38693e-06 -1.17882e-10 0)
(3.34018e-06 -3.08744e-10 0)
(3.29355e-06 -5.01804e-10 0)
(3.24739e-06 -6.17187e-10 0)
(3.20189e-06 -6.8021e-10 0)
(3.15717e-06 -6.24971e-10 0)
(3.11314e-06 -4.19407e-10 0)
(3.06939e-06 -6.86378e-11 0)
(3.02531e-06 4.92576e-10 0)
(2.97984e-06 1.27772e-09 0)
(2.93142e-06 2.27359e-09 0)
(2.87814e-06 3.62562e-09 0)
(2.81729e-06 5.27902e-09 0)
(2.7456e-06 7.1053e-09 0)
(2.65944e-06 8.40331e-09 0)
(2.55627e-06 7.8693e-09 0)
(2.43725e-06 3.52374e-09 0)
(2.3111e-06 -4.88977e-09 0)
(2.1944e-06 -1.38798e-08 0)
(2.10492e-06 -1.76887e-08 0)
(2.0504e-06 -1.44688e-08 0)
(2.02478e-06 -8.29156e-09 0)
(2.016e-06 -3.45059e-09 0)
(2.01436e-06 -1.1144e-09 0)
(2.01508e-06 -2.92911e-10 0)
(2.01645e-06 -8.41082e-11 0)
(2.01802e-06 -3.08172e-11 0)
(2.01968e-06 -1.94686e-11 0)
(2.0214e-06 -1.55281e-11 0)
(2.02317e-06 -3.6391e-11 0)
(2.02505e-06 -2.29798e-11 0)
(2.02699e-06 -3.48589e-12 0)
(2.02897e-06 -3.27785e-11 0)
(2.03103e-06 -9.84614e-12 0)
(2.03314e-06 -2.12577e-11 0)
(2.03531e-06 -3.08207e-12 0)
(2.03751e-06 -1.50423e-11 0)
(2.03976e-06 -1.64171e-11 0)
(2.04206e-06 -1.7166e-11 0)
(2.04442e-06 -1.45015e-11 0)
(2.04684e-06 -2.28952e-11 0)
(2.04932e-06 -2.18739e-11 0)
(2.05187e-06 -2.04308e-11 0)
(2.05449e-06 -2.1535e-11 0)
(2.05718e-06 -1.90897e-11 0)
(2.05993e-06 -2.01383e-11 0)
(2.06275e-06 -1.6868e-11 0)
(2.06563e-06 -1.79922e-11 0)
(2.06856e-06 -1.96416e-11 0)
(2.07156e-06 -2.00142e-11 0)
(2.07463e-06 -2.1181e-11 0)
(2.07777e-06 -2.3775e-11 0)
(2.08098e-06 -2.43304e-11 0)
(2.08427e-06 -2.50835e-11 0)
(2.08763e-06 -2.58196e-11 0)
(2.09108e-06 -2.63015e-11 0)
(2.09461e-06 -2.67423e-11 0)
(2.09823e-06 -2.7494e-11 0)
(2.10193e-06 -2.85425e-11 0)
(2.10572e-06 -2.95667e-11 0)
(2.1096e-06 -3.08358e-11 0)
(2.11358e-06 -3.22635e-11 0)
(2.11766e-06 -3.35925e-11 0)
(2.12184e-06 -3.49813e-11 0)
(2.12612e-06 -3.64865e-11 0)
(2.13052e-06 -3.80569e-11 0)
(2.13503e-06 -3.97494e-11 0)
(2.13967e-06 -4.15843e-11 0)
(2.14443e-06 -4.35293e-11 0)
(2.14931e-06 -4.55829e-11 0)
(2.15434e-06 -4.77466e-11 0)
(2.15951e-06 -5.00137e-11 0)
(2.16482e-06 -5.23919e-11 0)
(2.17029e-06 -5.4889e-11 0)
(2.17593e-06 -5.75072e-11 0)
(2.18173e-06 -6.0258e-11 0)
(2.18772e-06 -6.3163e-11 0)
(2.19389e-06 -6.62421e-11 0)
(2.20025e-06 -6.95038e-11 0)
(2.20682e-06 -7.29426e-11 0)
(2.21361e-06 -7.65352e-11 0)
(2.22062e-06 -8.0251e-11 0)
(2.22787e-06 -8.41286e-11 0)
(2.23537e-06 -8.8406e-11 0)
(2.24313e-06 -9.36032e-11 0)
(2.25116e-06 -1.00414e-10 0)
(2.2595e-06 -1.09234e-10 0)
(2.26815e-06 -1.19332e-10 0)
(2.27716e-06 -1.28338e-10 0)
(2.28654e-06 -1.33941e-10 0)
(2.29632e-06 -1.39267e-10 0)
(2.30651e-06 -1.58283e-10 0)
(2.31717e-06 -2.03125e-10 0)
(2.32842e-06 -2.4899e-10 0)
(2.3404e-06 -2.45035e-10 0)
(2.35309e-06 -2.17067e-10 0)
(2.36643e-06 -2.89667e-10 0)
(2.38063e-06 -5.5111e-10 0)
(2.39641e-06 -8.30457e-10 0)
(2.41456e-06 -5.15237e-10 0)
(2.43423e-06 3.67261e-10 0)
(2.45304e-06 -1.30374e-09 0)
(2.47559e-06 -2.37929e-09 0)
(2.50497e-06 -2.43552e-09 0)
(2.54157e-06 -1.03161e-08 0)
(2.60856e-06 -5.09157e-08 0)
(2.73659e-06 6.22605e-08 0)
(-8.02289e-05 -1.69187e-06 0)
(-0.0498905 1.12999e-05 0)
(-0.151201 1.01898e-05 0)
(-0.22721 -5.93422e-07 0)
(-0.286389 9.15197e-07 0)
(-0.334231 8.73268e-07 0)
(-0.373902 5.694e-07 0)
(-0.407472 3.46948e-07 0)
(-0.436378 2.09779e-07 0)
(-0.461652 1.21171e-07 0)
(-0.484046 6.32503e-08 0)
(-0.504123 2.657e-08 0)
(-0.522307 4.35437e-09 0)
(-0.538922 -8.48153e-09 0)
(-0.554222 -1.54394e-08 0)
(-0.568406 -1.87884e-08 0)
(-0.581633 -1.99661e-08 0)
(-0.594031 -1.98692e-08 0)
(-0.605706 -1.90566e-08 0)
(-0.616744 -1.78702e-08 0)
(-0.627217 -1.65184e-08 0)
(-0.637187 -1.51256e-08 0)
(-0.646703 -1.37643e-08 0)
(-0.655811 -1.24741e-08 0)
(-0.664548 -1.12743e-08 0)
(-0.672947 -1.01745e-08 0)
(-0.681035 -9.17496e-09 0)
(-0.688838 -8.27031e-09 0)
(-0.696376 -7.45507e-09 0)
(-0.70367 -6.72239e-09 0)
(-0.710736 -6.06486e-09 0)
(-0.717589 -5.47519e-09 0)
(-0.724243 -4.9464e-09 0)
(-0.730709 -4.47208e-09 0)
(-0.736998 -4.0463e-09 0)
(-0.743119 -3.66382e-09 0)
(-0.749082 -3.3199e-09 0)
(-0.754893 -3.01038e-09 0)
(-0.76056 -2.7315e-09 0)
(-0.766089 -2.47986e-09 0)
(-0.771486 -2.25223e-09 0)
(-0.776755 -2.04509e-09 0)
(-0.781902 -1.85462e-09 0)
(-0.78693 -1.6782e-09 0)
(-0.791842 -1.51589e-09 0)
(-0.796643 -1.36684e-09 0)
(-0.801336 -1.22407e-09 0)
(-0.805921 -1.08252e-09 0)
(-0.810403 -9.49781e-10 0)
(-0.814782 -8.39037e-10 0)
(-0.819061 -7.59638e-10 0)
(-0.82324 -7.07347e-10 0)
(-0.827321 -6.08325e-10 0)
(-0.831305 -4.63206e-10 0)
(-0.835231 -4.137e-10 0)
(-0.839136 -3.50113e-10 0)
(-0.843015 -2.30079e-10 0)
(-0.846863 -2.47018e-10 0)
(-0.850675 -2.74297e-10 0)
(-0.854445 -1.77777e-10 0)
(-0.858165 -1.40277e-10 0)
(-0.86183 -1.19758e-10 0)
(-0.86543 -5.51473e-11 0)
(-0.868957 -4.13898e-11 0)
(-0.872402 1.94016e-12 0)
(-0.875752 1.41931e-11 0)
(-0.878998 -1.29158e-11 0)
(-0.882126 2.88183e-11 0)
(-0.885124 2.54721e-11 0)
(-0.887978 1.53481e-12 0)
(-0.890672 1.95863e-11 0)
(-0.893193 1.6194e-11 0)
(-0.895527 1.34936e-11 0)
(-0.897659 3.84604e-12 0)
(-0.899577 6.59557e-12 0)
(-0.901273 1.33298e-11 0)
(-0.902737 1.63937e-13 0)
(-0.903967 3.42523e-12 0)
(-0.904962 5.39056e-12 0)
(-0.905727 1.7473e-12 0)
(-0.906266 1.06446e-12 0)
(-0.906591 2.34819e-12 0)
(-0.906712 -1.32082e-12 0)
(-0.90664 5.21037e-12 0)
(-0.906389 -8.44254e-12 0)
(-0.905969 8.90657e-12 0)
(-0.905393 -7.38536e-12 0)
(-0.90467 3.53122e-11 0)
(-0.903811 -1.14232e-10 0)
(-0.902824 2.35288e-10 0)
(-0.901719 -2.04978e-10 0)
(-0.900504 -4.07012e-12 0)
(-0.899188 6.3888e-11 0)
(-0.897779 5.12102e-11 0)
(-0.896287 -1.6651e-11 0)
(-0.894721 -1.70105e-12 0)
(-0.89309 -7.51723e-13 0)
(-0.891404 -1.9072e-12 0)
(-0.889674 -3.94337e-12 0)
(-0.887913 1.54771e-11 0)
(-0.886134 -4.89694e-11 0)
(-0.884352 9.76689e-11 0)
(-0.882588 -1.74866e-10 0)
(-0.880865 2.7171e-10 0)
(-0.879216 -3.98011e-10 0)
(-0.877688 5.42466e-10 0)
(-0.876352 -7.10867e-10 0)
(-0.875455 8.89411e-10 0)
(-0.875247 -1.08165e-09 0)
(-0.875237 1.27611e-09 0)
(-0.875236 -1.4794e-09 0)
(-0.875236 1.68405e-09 0)
(-0.875236 -1.89723e-09 0)
(-0.875236 2.11249e-09 0)
(-0.875236 -2.33623e-09 0)
(-0.875236 2.56281e-09 0)
(-0.875236 -2.79784e-09 0)
(-0.875236 3.03641e-09 0)
(-0.875236 -3.28343e-09 0)
(-0.875236 3.53462e-09 0)
(-0.875236 -3.79429e-09 0)
(-0.875236 4.05869e-09 0)
(-0.875236 -4.33163e-09 0)
(-0.875236 4.60978e-09 0)
(-0.875236 -4.89653e-09 0)
(-0.875236 5.18895e-09 0)
(-0.875236 -5.49004e-09 0)
(-0.875236 5.79719e-09 0)
(-0.875236 -6.11311e-09 0)
(-0.875236 6.43546e-09 0)
(-0.875236 -6.76665e-09 0)
(-0.875236 7.10463e-09 0)
(-0.875236 -7.45151e-09 0)
(-0.875236 7.80553e-09 0)
(-0.875236 -8.16851e-09 0)
(-0.875236 8.53895e-09 0)
(-0.875236 -8.91843e-09 0)
(-0.875236 9.30567e-09 0)
(-0.875236 -9.702e-09 0)
(-0.875236 1.01064e-08 0)
(-0.875236 -1.05199e-08 0)
(-0.875236 1.09418e-08 0)
(-0.875236 -1.13729e-08 0)
(-0.875236 1.18126e-08 0)
(-0.875236 -1.22615e-08 0)
(-0.875236 1.27194e-08 0)
(-0.875236 -1.31865e-08 0)
(-0.875236 1.36627e-08 0)
(-0.875236 -1.41483e-08 0)
(-0.875236 1.46432e-08 0)
(-0.875236 -1.51475e-08 0)
(-0.875236 1.56614e-08 0)
(-0.875236 -1.61846e-08 0)
(-0.875236 1.67176e-08 0)
(-0.875236 -1.726e-08 0)
(-0.875236 1.78123e-08 0)
(-0.875236 -1.8374e-08 0)
(-0.875236 1.89457e-08 0)
(-0.875236 -1.95269e-08 0)
(-0.875236 2.0118e-08 0)
(-0.875236 -2.07187e-08 0)
(-0.875236 2.13294e-08 0)
(-0.875236 -2.19494e-08 0)
(-0.875236 1.98204e-08 0)
(-0.875236 -2.00009e-08 0)
(-0.875236 2.01799e-08 0)
(-0.875236 -2.03565e-08 0)
(-0.875236 2.05316e-08 0)
(-0.875236 -2.07043e-08 0)
(-0.875236 2.08754e-08 0)
(-0.875236 -2.10441e-08 0)
(-0.875236 2.12111e-08 0)
(-0.875236 -2.13758e-08 0)
(-0.875236 2.15386e-08 0)
(-0.875236 -2.1699e-08 0)
(-0.875236 2.18577e-08 0)
(-0.875236 -2.20138e-08 0)
(-0.875236 2.2168e-08 0)
(-0.875236 -2.23197e-08 0)
(-0.875236 2.24695e-08 0)
(-0.875236 -2.26167e-08 0)
(-0.875236 2.27619e-08 0)
(-0.875236 -2.29043e-08 0)
(-0.875236 2.30449e-08 0)
(-0.875236 -2.31824e-08 0)
(-0.875236 2.33183e-08 0)
(-0.875236 -2.34507e-08 0)
(-0.875236 2.35816e-08 0)
(-0.875236 -2.37088e-08 0)
(-0.875236 2.38345e-08 0)
(-0.875236 -2.39562e-08 0)
(-0.875236 2.40766e-08 0)
(-0.875236 -2.41926e-08 0)
(-0.875236 2.43073e-08 0)
(-0.875236 -2.44175e-08 0)
(-0.875236 2.45261e-08 0)
(-0.875236 -2.46302e-08 0)
(-0.875236 2.47322e-08 0)
(-0.875236 -2.48299e-08 0)
(-0.875236 2.4925e-08 0)
(-0.875236 -2.50158e-08 0)
(-0.875236 2.51035e-08 0)
(-0.875236 -2.51869e-08 0)
(-0.875236 2.52663e-08 0)
(-0.875236 -2.53417e-08 0)
(-0.875236 2.5412e-08 0)
(-0.875236 -2.54786e-08 0)
(-0.875236 2.55383e-08 0)
(-0.875236 -2.55944e-08 0)
(-0.875236 2.56416e-08 0)
(-0.875236 -2.56842e-08 0)
(-0.875236 2.57153e-08 0)
(-0.875236 -2.57364e-08 0)
)
;

boundaryField
{
    inandouthalf11
    {
        type            cyclic;
    }
    inandouthalf12
    {
        type            cyclic;
    }
    inandouthalf21
    {
        type            cyclic;
    }
    inandouthalf22
    {
        type            cyclic;
    }
    inandouthalf31
    {
        type            cyclic;
    }
    inandouthalf32
    {
        type            cyclic;
    }
    inandouthalf41
    {
        type            cyclic;
    }
    inandouthalf42
    {
        type            cyclic;
    }
    top
    {
        type            symmetryPlane;
    }
    walls
    {
        type            calculated;
        value           uniform (0 0 0);
    }
    frontAndBackPlanes
    {
        type            empty;
    }
}


// ************************************************************************* //
