/*--------------------------------*- C++ -*----------------------------------*\
| =========                 |                                                 |
| \\      /  F ield         | OpenFOAM: The Open Source CFD Toolbox           |
|  \\    /   O peration     | Version:  2.4.x                                 |
|   \\  /    A nd           | Web:      www.OpenFOAM.org                      |
|    \\/     M anipulation  |                                                 |
\*---------------------------------------------------------------------------*/
FoamFile
{
    version     2.0;
    format      ascii;
    class       volVectorField;
    location    "6";
    object      Ua;
}
// * * * * * * * * * * * * * * * * * * * * * * * * * * * * * * * * * * * * * //

dimensions      [0 1 -1 0 0 0 0];

internalField   nonuniform List<vector> 
360
(
(-9.91628e-33 -9.30867e-32 0)
(-2.77638e-08 -1.85258e-07 0)
(-5.91326e-08 -3.41974e-07 0)
(-8.6981e-08 -4.75099e-07 0)
(-1.14748e-07 -6.11077e-07 0)
(-1.43696e-07 -7.53101e-07 0)
(-1.73437e-07 -8.97576e-07 0)
(-2.03604e-07 -1.04278e-06 0)
(-2.34104e-07 -1.18844e-06 0)
(-2.6496e-07 -1.3347e-06 0)
(-2.96231e-07 -1.48188e-06 0)
(-3.27958e-07 -1.63015e-06 0)
(-3.6015e-07 -1.77951e-06 0)
(-3.92801e-07 -1.9299e-06 0)
(-4.25901e-07 -2.08124e-06 0)
(-4.59454e-07 -2.23352e-06 0)
(-4.93469e-07 -2.38677e-06 0)
(-5.27957e-07 -2.54102e-06 0)
(-5.62926e-07 -2.69627e-06 0)
(-5.98381e-07 -2.85252e-06 0)
(-6.34326e-07 -3.00976e-06 0)
(-6.70762e-07 -3.16796e-06 0)
(-7.07694e-07 -3.32714e-06 0)
(-7.45124e-07 -3.48725e-06 0)
(-7.83049e-07 -3.64827e-06 0)
(-8.21467e-07 -3.81016e-06 0)
(-8.60373e-07 -3.97286e-06 0)
(-8.99772e-07 -4.13637e-06 0)
(-9.39676e-07 -4.30071e-06 0)
(-9.80095e-07 -4.46589e-06 0)
(-1.02106e-06 -4.63198e-06 0)
(-1.0626e-06 -4.79914e-06 0)
(-1.10478e-06 -4.96752e-06 0)
(-1.14767e-06 -5.13737e-06 0)
(-1.19133e-06 -5.30896e-06 0)
(-1.23583e-06 -5.48245e-06 0)
(-1.2812e-06 -5.65795e-06 0)
(-1.32745e-06 -5.83546e-06 0)
(-1.37453e-06 -6.01478e-06 0)
(-1.42231e-06 -6.19531e-06 0)
(-1.47057e-06 -6.37621e-06 0)
(-1.51904e-06 -6.55644e-06 0)
(-1.56738e-06 -6.73467e-06 0)
(-1.61528e-06 -6.90974e-06 0)
(-1.66251e-06 -7.08079e-06 0)
(-1.70895e-06 -7.24745e-06 0)
(-1.75472e-06 -7.41009e-06 0)
(-1.80017e-06 -7.56998e-06 0)
(-1.846e-06 -7.72952e-06 0)
(-1.89328e-06 -7.8925e-06 0)
(-1.94351e-06 -8.06393e-06 0)
(-1.99871e-06 -8.25054e-06 0)
(-2.06156e-06 -8.46124e-06 0)
(-2.1354e-06 -8.70706e-06 0)
(-2.22386e-06 -9.00003e-06 0)
(-2.32956e-06 -9.34904e-06 0)
(-2.45124e-06 -9.75051e-06 0)
(-2.58018e-06 -1.0176e-05 0)
(-2.69958e-06 -1.05697e-05 0)
(-2.79147e-06 -1.08714e-05 0)
(-2.84809e-06 -1.10557e-05 0)
(-2.87546e-06 -1.11435e-05 0)
(-2.88585e-06 -1.11763e-05 0)
(-2.88902e-06 -1.11861e-05 0)
(-2.88984e-06 -1.11886e-05 0)
(-2.89003e-06 -1.11892e-05 0)
(-2.89007e-06 -1.11893e-05 0)
(-2.89008e-06 -1.11893e-05 0)
(-2.89008e-06 -1.11893e-05 0)
(-2.89008e-06 -1.11893e-05 0)
(-2.89008e-06 -1.11893e-05 0)
(-2.89008e-06 -1.11893e-05 0)
(-2.89008e-06 -1.11893e-05 0)
(-2.89008e-06 -1.11893e-05 0)
(-2.89008e-06 -1.11893e-05 0)
(-2.89008e-06 -1.11893e-05 0)
(-2.89008e-06 -1.11893e-05 0)
(-2.89008e-06 -1.11893e-05 0)
(-2.89008e-06 -1.11893e-05 0)
(-2.89008e-06 -1.11893e-05 0)
(-2.89008e-06 -1.11893e-05 0)
(-2.89008e-06 -1.11893e-05 0)
(-2.89008e-06 -1.11893e-05 0)
(-2.89008e-06 -1.11893e-05 0)
(-2.89009e-06 -1.11893e-05 0)
(-2.89009e-06 -1.11893e-05 0)
(-2.89009e-06 -1.11893e-05 0)
(-2.89009e-06 -1.11893e-05 0)
(-2.89009e-06 -1.11893e-05 0)
(-2.89009e-06 -1.11893e-05 0)
(-2.89009e-06 -1.11893e-05 0)
(-2.89009e-06 -1.11893e-05 0)
(-2.89009e-06 -1.11893e-05 0)
(-2.89009e-06 -1.11893e-05 0)
(-2.89009e-06 -1.11893e-05 0)
(-2.89009e-06 -1.11893e-05 0)
(-2.89009e-06 -1.11893e-05 0)
(-2.89009e-06 -1.11893e-05 0)
(-2.89009e-06 -1.11893e-05 0)
(-2.89009e-06 -1.11893e-05 0)
(-2.89009e-06 -1.11893e-05 0)
(-2.89009e-06 -1.11893e-05 0)
(-2.89009e-06 -1.11893e-05 0)
(-2.89009e-06 -1.11893e-05 0)
(-2.89009e-06 -1.11893e-05 0)
(-2.89009e-06 -1.11893e-05 0)
(-2.89009e-06 -1.11893e-05 0)
(-2.89009e-06 -1.11893e-05 0)
(-2.89009e-06 -1.11893e-05 0)
(-2.89009e-06 -1.11893e-05 0)
(-2.8901e-06 -1.11893e-05 0)
(-2.8901e-06 -1.11893e-05 0)
(-2.8901e-06 -1.11893e-05 0)
(-2.8901e-06 -1.11893e-05 0)
(-2.8901e-06 -1.11893e-05 0)
(-2.8901e-06 -1.11894e-05 0)
(-2.8901e-06 -1.11894e-05 0)
(-2.8901e-06 -1.11894e-05 0)
(-2.8901e-06 -1.11894e-05 0)
(-2.8901e-06 -1.11894e-05 0)
(-2.8901e-06 -1.11894e-05 0)
(-2.8901e-06 -1.11894e-05 0)
(-2.8901e-06 -1.11894e-05 0)
(-2.8901e-06 -1.11894e-05 0)
(-2.8901e-06 -1.11894e-05 0)
(-2.8901e-06 -1.11894e-05 0)
(-2.8901e-06 -1.11894e-05 0)
(-2.8901e-06 -1.11894e-05 0)
(-2.8901e-06 -1.11894e-05 0)
(-2.8901e-06 -1.11894e-05 0)
(-2.8901e-06 -1.11894e-05 0)
(-2.8901e-06 -1.11894e-05 0)
(-2.8901e-06 -1.11894e-05 0)
(-2.89011e-06 -1.11894e-05 0)
(-2.89011e-06 -1.11894e-05 0)
(-2.89011e-06 -1.11894e-05 0)
(-2.89011e-06 -1.11894e-05 0)
(-2.89011e-06 -1.11894e-05 0)
(-2.89011e-06 -1.11894e-05 0)
(-2.89011e-06 -1.11894e-05 0)
(-2.89011e-06 -1.11894e-05 0)
(-2.89011e-06 -1.11894e-05 0)
(-2.89011e-06 -1.11894e-05 0)
(-2.89011e-06 -1.11894e-05 0)
(-2.89011e-06 -1.11894e-05 0)
(-2.89011e-06 -1.11894e-05 0)
(-2.89011e-06 -1.11894e-05 0)
(-2.89011e-06 -1.11894e-05 0)
(-0.0460793 -6.78506e-05 0)
(-0.143767 -0.000297952 0)
(-0.220723 -0.000396851 0)
(-0.280978 -0.000475448 0)
(-0.329567 -0.000547077 0)
(-0.369717 -0.000610856 0)
(-0.403561 -0.000665315 0)
(-0.432589 -0.000709558 0)
(-0.457872 -0.000742947 0)
(-0.480193 -0.000765099 0)
(-0.500135 -0.000775906 0)
(-0.518135 -0.000775502 0)
(-0.534529 -0.00076419 0)
(-0.549572 -0.000742371 0)
(-0.563468 -0.000710497 0)
(-0.576376 -0.000669035 0)
(-0.588425 -0.000618445 0)
(-0.599718 -0.000559171 0)
(-0.610342 -0.000491628 0)
(-0.620367 -0.000416207 0)
(-0.62985 -0.000333269 0)
(-0.638843 -0.000243148 0)
(-0.647386 -0.00014615 0)
(-0.655515 -4.25564e-05 0)
(-0.66326 6.73773e-05 0)
(-0.670647 0.000183419 0)
(-0.677698 0.000305359 0)
(-0.684434 0.000433007 0)
(-0.690871 0.000566187 0)
(-0.697023 0.000704742 0)
(-0.702905 0.00084852 0)
(-0.708528 0.000997378 0)
(-0.713901 0.00115118 0)
(-0.719035 0.00130977 0)
(-0.723937 0.00147303 0)
(-0.728614 0.00164079 0)
(-0.733075 0.0018129 0)
(-0.737324 0.00198919 0)
(-0.741367 0.00216949 0)
(-0.745211 0.00235358 0)
(-0.748859 0.00254122 0)
(-0.752317 0.00273208 0)
(-0.75559 0.00292569 0)
(-0.758682 0.00312137 0)
(-0.761597 0.0033182 0)
(-0.76434 0.00351501 0)
(-0.766916 0.00371033 0)
(-0.769329 0.00390242 0)
(-0.771586 0.0040894 0)
(-0.773691 0.00426944 0)
(-0.775651 0.0044411 0)
(-0.777471 0.0046035 0)
(-0.779159 0.00475621 0)
(-0.780737 0.00490012 0)
(-0.782221 0.00503542 0)
(-0.783615 0.00516067 0)
(-0.78492 0.00527408 0)
(-0.786141 0.00537404 0)
(-0.787284 0.00545989 0)
(-0.788354 0.00553164 0)
(-0.789357 0.00558977 0)
(-0.790302 0.00563536 0)
(-0.791194 0.00566973 0)
(-0.792041 0.00569428 0)
(-0.792849 0.00571034 0)
(-0.793623 0.00571897 0)
(-0.794369 0.00572132 0)
(-0.795092 0.00571839 0)
(-0.795797 0.00571076 0)
(-0.796487 0.00569913 0)
(-0.797166 0.00568407 0)
(-0.797836 0.00566592 0)
(-0.798501 0.00564484 0)
(-0.799163 0.00562106 0)
(-0.799824 0.00559487 0)
(-0.800484 0.0055662 0)
(-0.801146 0.00553497 0)
(-0.801809 0.00550132 0)
(-0.802474 0.00546503 0)
(-0.803141 0.0054257 0)
(-0.803809 0.00538294 0)
(-0.804477 0.00533585 0)
(-0.805143 0.00528363 0)
(-0.805807 0.00522376 0)
(-0.806461 0.00515534 0)
(-0.807101 0.00507378 0)
(-0.80771 0.00497853 0)
(-0.808304 0.0048365 0)
(-0.809076 0.00462861 0)
(-0.900027 -1.57957e-05 0)
(-0.900877 0.00545634 0)
(-0.899513 0.00855081 0)
(-0.897693 -0.0208397 0)
(-0.896308 -0.039593 0)
(-0.894558 -0.0395772 0)
(-0.892934 -0.03958 0)
(-0.891237 -0.0395811 0)
(-0.889503 -0.0395824 0)
(-0.88774 -0.0395836 0)
(-0.885962 -0.0395846 0)
(-0.884187 -0.0395852 0)
(-0.882434 -0.0395854 0)
(-0.880729 -0.0395849 0)
(-0.879107 -0.0395834 0)
(-0.877618 -0.0395802 0)
(-0.876328 -0.0395724 0)
(-0.87562 -0.0395604 0)
(-0.875472 -0.0395519 0)
(-0.875465 -0.03955 0)
(-0.875465 -0.0395499 0)
(-0.875464 -0.0395499 0)
(-0.875464 -0.0395499 0)
(-0.875464 -0.0395499 0)
(-0.875464 -0.0395499 0)
(-0.875464 -0.0395499 0)
(-0.875464 -0.0395499 0)
(-0.875464 -0.0395499 0)
(-0.875464 -0.0395499 0)
(-0.875464 -0.0395499 0)
(-0.875464 -0.0395499 0)
(-0.875464 -0.0395499 0)
(-0.875464 -0.0395499 0)
(-0.875464 -0.0395499 0)
(-0.875464 -0.0395499 0)
(-0.875464 -0.0395499 0)
(-0.875464 -0.0395499 0)
(-0.875464 -0.0395499 0)
(-0.875464 -0.0395499 0)
(-0.875464 -0.0395499 0)
(-0.875464 -0.0395499 0)
(-0.875464 -0.0395499 0)
(-0.875464 -0.0395499 0)
(-0.875464 -0.0395499 0)
(-0.875464 -0.0395499 0)
(-0.875464 -0.0395499 0)
(-0.875464 -0.0395499 0)
(-0.875464 -0.0395499 0)
(-0.875464 -0.0395499 0)
(-0.875464 -0.0395499 0)
(-0.875464 -0.0395499 0)
(-0.875464 -0.0395499 0)
(-0.875464 -0.0395499 0)
(-0.875464 -0.0395499 0)
(-0.875464 -0.0395499 0)
(-0.875464 -0.0395499 0)
(-0.875464 -0.0395499 0)
(-0.875464 -0.0395499 0)
(-0.875464 -0.0395499 0)
(-0.875464 -0.0395499 0)
(-0.875464 -0.0395499 0)
(-0.875464 -0.0395499 0)
(-0.875464 -0.0395499 0)
(-0.875464 -0.0395499 0)
(-0.875464 -0.0395499 0)
(-0.875464 -0.0395499 0)
(-0.875464 -0.0395499 0)
(-0.875464 -0.0395499 0)
(-0.875464 -0.0395499 0)
(-0.875464 -0.0395499 0)
(-0.875464 -0.0395499 0)
(-0.875464 -0.0395499 0)
(-0.875464 -0.0395499 0)
(-0.875464 -0.0395499 0)
(-0.875464 -0.0395499 0)
(-0.875464 -0.0395499 0)
(-0.875464 -0.0395499 0)
(-0.875464 -0.0395499 0)
(-0.875464 -0.0395499 0)
(-0.875464 -0.0395499 0)
(-0.875464 -0.0395499 0)
(-0.875464 -0.0395499 0)
(-0.875464 -0.0395499 0)
(-0.875464 -0.0395499 0)
(-0.875464 -0.0395499 0)
(-0.875464 -0.0395499 0)
(-0.875464 -0.0395499 0)
(-0.875464 -0.0395499 0)
(-0.875464 -0.0395499 0)
(-0.875464 -0.0395499 0)
(-0.875464 -0.0395499 0)
(-0.875464 -0.0395499 0)
(-0.875464 -0.0395499 0)
(-0.875464 -0.0395499 0)
(-0.875464 -0.0395499 0)
(-0.875464 -0.0395499 0)
(-0.875464 -0.0395499 0)
(-0.875464 -0.0395499 0)
(-0.875464 -0.0395499 0)
(-0.875464 -0.0395499 0)
(-0.875464 -0.0395499 0)
(-0.875464 -0.0395499 0)
(-0.875464 -0.0395499 0)
(-0.875464 -0.0395499 0)
(-0.875464 -0.0395499 0)
(-0.875464 -0.0395499 0)
(-0.875464 -0.0395499 0)
(-0.875464 -0.0395499 0)
(-0.875464 -0.0395499 0)
(-0.875464 -0.0395499 0)
(-0.875464 -0.0395499 0)
(-0.875464 -0.0395499 0)
(-0.875464 -0.0395499 0)
(-0.875464 -0.0395499 0)
(-0.875464 -0.0395499 0)
(-0.875464 -0.0395499 0)
(-0.875464 -0.0395499 0)
(-0.875464 -0.0395499 0)
(-0.875464 -0.0395499 0)
(-0.875464 -0.0395497 0)
(-0.875464 -0.0395413 0)
(-0.875465 -0.0391969 0)
(-0.875501 -0.0225002 0)
)
;

boundaryField
{
    inandouthalf11
    {
        type            cyclic;
    }
    inandouthalf12
    {
        type            cyclic;
    }
    inandouthalf21
    {
        type            cyclic;
    }
    inandouthalf22
    {
        type            cyclic;
    }
    inandouthalf31
    {
        type            cyclic;
    }
    inandouthalf32
    {
        type            cyclic;
    }
    inandouthalf41
    {
        type            cyclic;
    }
    inandouthalf42
    {
        type            cyclic;
    }
    top
    {
        type            symmetryPlane;
    }
    walls
    {
        type            fixedValue;
        value           uniform (0 0 0);
    }
    frontAndBackPlanes
    {
        type            empty;
    }
}


// ************************************************************************* //
