/*--------------------------------*- C++ -*----------------------------------*\
| =========                 |                                                 |
| \\      /  F ield         | OpenFOAM: The Open Source CFD Toolbox           |
|  \\    /   O peration     | Version:  2.4.x                                 |
|   \\  /    A nd           | Web:      www.OpenFOAM.org                      |
|    \\/     M anipulation  |                                                 |
\*---------------------------------------------------------------------------*/
FoamFile
{
    version     2.0;
    format      ascii;
    class       volVectorField;
    location    "6";
    object      Ua_0;
}
// * * * * * * * * * * * * * * * * * * * * * * * * * * * * * * * * * * * * * //

dimensions      [0 1 -1 0 0 0 0];

internalField   nonuniform List<vector> 
360
(
(-9.91661e-33 -9.30855e-32 0)
(-2.77671e-08 -1.85272e-07 0)
(-5.91399e-08 -3.42002e-07 0)
(-8.69917e-08 -4.75138e-07 0)
(-1.14763e-07 -6.11126e-07 0)
(-1.43714e-07 -7.53163e-07 0)
(-1.73458e-07 -8.9765e-07 0)
(-2.03629e-07 -1.04287e-06 0)
(-2.34133e-07 -1.18854e-06 0)
(-2.64992e-07 -1.33481e-06 0)
(-2.96267e-07 -1.482e-06 0)
(-3.27997e-07 -1.63028e-06 0)
(-3.60193e-07 -1.77966e-06 0)
(-3.92848e-07 -1.93006e-06 0)
(-4.25952e-07 -2.08141e-06 0)
(-4.59509e-07 -2.2337e-06 0)
(-4.93528e-07 -2.38697e-06 0)
(-5.2802e-07 -2.54123e-06 0)
(-5.62992e-07 -2.69649e-06 0)
(-5.98452e-07 -2.85275e-06 0)
(-6.34401e-07 -3.01001e-06 0)
(-6.70841e-07 -3.16822e-06 0)
(-7.07777e-07 -3.32741e-06 0)
(-7.45211e-07 -3.48753e-06 0)
(-7.8314e-07 -3.64857e-06 0)
(-8.21562e-07 -3.81047e-06 0)
(-8.60472e-07 -3.97318e-06 0)
(-8.99876e-07 -4.1367e-06 0)
(-9.39783e-07 -4.30106e-06 0)
(-9.80207e-07 -4.46625e-06 0)
(-1.02117e-06 -4.63235e-06 0)
(-1.06272e-06 -4.79952e-06 0)
(-1.10491e-06 -4.96792e-06 0)
(-1.1478e-06 -5.13779e-06 0)
(-1.19147e-06 -5.3094e-06 0)
(-1.23597e-06 -5.4829e-06 0)
(-1.28134e-06 -5.65842e-06 0)
(-1.3276e-06 -5.83594e-06 0)
(-1.37469e-06 -6.01528e-06 0)
(-1.42247e-06 -6.19582e-06 0)
(-1.47074e-06 -6.37673e-06 0)
(-1.51921e-06 -6.55697e-06 0)
(-1.56755e-06 -6.7352e-06 0)
(-1.61546e-06 -6.91027e-06 0)
(-1.66268e-06 -7.08133e-06 0)
(-1.70912e-06 -7.24798e-06 0)
(-1.75489e-06 -7.41062e-06 0)
(-1.80035e-06 -7.57051e-06 0)
(-1.84618e-06 -7.73007e-06 0)
(-1.89347e-06 -7.89307e-06 0)
(-1.94372e-06 -8.06455e-06 0)
(-1.99894e-06 -8.25124e-06 0)
(-2.06182e-06 -8.46205e-06 0)
(-2.13571e-06 -8.70803e-06 0)
(-2.22423e-06 -9.00119e-06 0)
(-2.32999e-06 -9.35042e-06 0)
(-2.45172e-06 -9.75206e-06 0)
(-2.58067e-06 -1.01776e-05 0)
(-2.69999e-06 -1.0571e-05 0)
(-2.79175e-06 -1.08723e-05 0)
(-2.84824e-06 -1.10562e-05 0)
(-2.87553e-06 -1.11437e-05 0)
(-2.88588e-06 -1.11764e-05 0)
(-2.88903e-06 -1.11861e-05 0)
(-2.88984e-06 -1.11886e-05 0)
(-2.89003e-06 -1.11892e-05 0)
(-2.89007e-06 -1.11893e-05 0)
(-2.89008e-06 -1.11893e-05 0)
(-2.89008e-06 -1.11893e-05 0)
(-2.89008e-06 -1.11893e-05 0)
(-2.89008e-06 -1.11893e-05 0)
(-2.89008e-06 -1.11893e-05 0)
(-2.89008e-06 -1.11893e-05 0)
(-2.89008e-06 -1.11893e-05 0)
(-2.89008e-06 -1.11893e-05 0)
(-2.89008e-06 -1.11893e-05 0)
(-2.89008e-06 -1.11893e-05 0)
(-2.89008e-06 -1.11893e-05 0)
(-2.89008e-06 -1.11893e-05 0)
(-2.89008e-06 -1.11893e-05 0)
(-2.89008e-06 -1.11893e-05 0)
(-2.89008e-06 -1.11893e-05 0)
(-2.89008e-06 -1.11893e-05 0)
(-2.89008e-06 -1.11893e-05 0)
(-2.89009e-06 -1.11893e-05 0)
(-2.89009e-06 -1.11893e-05 0)
(-2.89009e-06 -1.11893e-05 0)
(-2.89009e-06 -1.11893e-05 0)
(-2.89009e-06 -1.11893e-05 0)
(-2.89009e-06 -1.11893e-05 0)
(-2.89009e-06 -1.11893e-05 0)
(-2.89009e-06 -1.11893e-05 0)
(-2.89009e-06 -1.11893e-05 0)
(-2.89009e-06 -1.11893e-05 0)
(-2.89009e-06 -1.11893e-05 0)
(-2.89009e-06 -1.11893e-05 0)
(-2.89009e-06 -1.11893e-05 0)
(-2.89009e-06 -1.11893e-05 0)
(-2.89009e-06 -1.11893e-05 0)
(-2.89009e-06 -1.11893e-05 0)
(-2.89009e-06 -1.11893e-05 0)
(-2.89009e-06 -1.11893e-05 0)
(-2.89009e-06 -1.11893e-05 0)
(-2.89009e-06 -1.11893e-05 0)
(-2.89009e-06 -1.11893e-05 0)
(-2.89009e-06 -1.11893e-05 0)
(-2.89009e-06 -1.11893e-05 0)
(-2.89009e-06 -1.11893e-05 0)
(-2.89009e-06 -1.11893e-05 0)
(-2.89009e-06 -1.11893e-05 0)
(-2.8901e-06 -1.11893e-05 0)
(-2.8901e-06 -1.11893e-05 0)
(-2.8901e-06 -1.11893e-05 0)
(-2.8901e-06 -1.11893e-05 0)
(-2.8901e-06 -1.11893e-05 0)
(-2.8901e-06 -1.11894e-05 0)
(-2.8901e-06 -1.11894e-05 0)
(-2.8901e-06 -1.11894e-05 0)
(-2.8901e-06 -1.11894e-05 0)
(-2.8901e-06 -1.11894e-05 0)
(-2.8901e-06 -1.11894e-05 0)
(-2.8901e-06 -1.11894e-05 0)
(-2.8901e-06 -1.11894e-05 0)
(-2.8901e-06 -1.11894e-05 0)
(-2.8901e-06 -1.11894e-05 0)
(-2.8901e-06 -1.11894e-05 0)
(-2.8901e-06 -1.11894e-05 0)
(-2.8901e-06 -1.11894e-05 0)
(-2.8901e-06 -1.11894e-05 0)
(-2.8901e-06 -1.11894e-05 0)
(-2.8901e-06 -1.11894e-05 0)
(-2.8901e-06 -1.11894e-05 0)
(-2.8901e-06 -1.11894e-05 0)
(-2.89011e-06 -1.11894e-05 0)
(-2.89011e-06 -1.11894e-05 0)
(-2.89011e-06 -1.11894e-05 0)
(-2.89011e-06 -1.11894e-05 0)
(-2.89011e-06 -1.11894e-05 0)
(-2.89011e-06 -1.11894e-05 0)
(-2.89011e-06 -1.11894e-05 0)
(-2.89011e-06 -1.11894e-05 0)
(-2.89011e-06 -1.11894e-05 0)
(-2.89011e-06 -1.11894e-05 0)
(-2.89011e-06 -1.11894e-05 0)
(-2.89011e-06 -1.11894e-05 0)
(-2.89011e-06 -1.11894e-05 0)
(-2.89011e-06 -1.11894e-05 0)
(-2.89011e-06 -1.11894e-05 0)
(-0.0460915 -6.78549e-05 0)
(-0.143782 -0.000297809 0)
(-0.220737 -0.000396675 0)
(-0.280992 -0.000475222 0)
(-0.329582 -0.000546813 0)
(-0.369732 -0.000610558 0)
(-0.403577 -0.000664986 0)
(-0.432606 -0.000709201 0)
(-0.45789 -0.000742564 0)
(-0.480211 -0.000764691 0)
(-0.500154 -0.000775475 0)
(-0.518155 -0.000775049 0)
(-0.534549 -0.000763716 0)
(-0.549593 -0.000741878 0)
(-0.563489 -0.000709986 0)
(-0.576398 -0.000668507 0)
(-0.588447 -0.000617903 0)
(-0.599741 -0.000558615 0)
(-0.610365 -0.00049106 0)
(-0.62039 -0.000415628 0)
(-0.629874 -0.000332679 0)
(-0.638867 -0.000242549 0)
(-0.64741 -0.000145542 0)
(-0.655539 -4.19404e-05 0)
(-0.663284 6.80018e-05 0)
(-0.670672 0.000184052 0)
(-0.677723 0.000306001 0)
(-0.684459 0.000433658 0)
(-0.690896 0.000566849 0)
(-0.697049 0.000705414 0)
(-0.702931 0.000849204 0)
(-0.708554 0.000998075 0)
(-0.713927 0.00115189 0)
(-0.719061 0.0013105 0)
(-0.723963 0.00147377 0)
(-0.72864 0.00164154 0)
(-0.733101 0.00181367 0)
(-0.73735 0.00198998 0)
(-0.741393 0.00217029 0)
(-0.745237 0.00235441 0)
(-0.748885 0.00254207 0)
(-0.752343 0.00273294 0)
(-0.755616 0.00292656 0)
(-0.758707 0.00312225 0)
(-0.761622 0.0033191 0)
(-0.764365 0.00351592 0)
(-0.766941 0.00371124 0)
(-0.769354 0.00390333 0)
(-0.77161 0.0040903 0)
(-0.773715 0.00427033 0)
(-0.775675 0.00444196 0)
(-0.777495 0.00460434 0)
(-0.779183 0.00475702 0)
(-0.78076 0.0049009 0)
(-0.782244 0.00503616 0)
(-0.783638 0.00516136 0)
(-0.784943 0.00527473 0)
(-0.786164 0.00537464 0)
(-0.787306 0.00546044 0)
(-0.788376 0.00553214 0)
(-0.789379 0.00559022 0)
(-0.790324 0.00563577 0)
(-0.791216 0.00567011 0)
(-0.792063 0.00569462 0)
(-0.79287 0.00571065 0)
(-0.793644 0.00571926 0)
(-0.79439 0.00572158 0)
(-0.795113 0.00571863 0)
(-0.795818 0.00571099 0)
(-0.796508 0.00569934 0)
(-0.797187 0.00568427 0)
(-0.797857 0.00566611 0)
(-0.798522 0.00564502 0)
(-0.799184 0.00562123 0)
(-0.799845 0.00559503 0)
(-0.800505 0.00556636 0)
(-0.801167 0.00553512 0)
(-0.80183 0.00550146 0)
(-0.802495 0.00546517 0)
(-0.803161 0.00542584 0)
(-0.803829 0.00538307 0)
(-0.804497 0.00533598 0)
(-0.805163 0.00528374 0)
(-0.805827 0.00522386 0)
(-0.806481 0.00515544 0)
(-0.807121 0.00507386 0)
(-0.80773 0.00497859 0)
(-0.808324 0.00483654 0)
(-0.809096 0.00462863 0)
(-0.90004 -1.40505e-05 0)
(-0.900888 0.00547486 0)
(-0.899524 0.00851362 0)
(-0.897703 -0.0208781 0)
(-0.896319 -0.0395931 0)
(-0.894568 -0.0395772 0)
(-0.892944 -0.03958 0)
(-0.891247 -0.0395811 0)
(-0.889512 -0.0395824 0)
(-0.887749 -0.0395836 0)
(-0.885972 -0.0395846 0)
(-0.884197 -0.0395852 0)
(-0.882444 -0.0395854 0)
(-0.880739 -0.0395849 0)
(-0.879117 -0.0395834 0)
(-0.877628 -0.0395802 0)
(-0.876338 -0.0395724 0)
(-0.875631 -0.0395604 0)
(-0.875483 -0.0395519 0)
(-0.875476 -0.03955 0)
(-0.875475 -0.0395499 0)
(-0.875475 -0.0395499 0)
(-0.875475 -0.0395499 0)
(-0.875475 -0.0395499 0)
(-0.875475 -0.0395499 0)
(-0.875475 -0.0395499 0)
(-0.875475 -0.0395499 0)
(-0.875475 -0.0395499 0)
(-0.875475 -0.0395499 0)
(-0.875475 -0.0395499 0)
(-0.875475 -0.0395499 0)
(-0.875475 -0.0395499 0)
(-0.875475 -0.0395499 0)
(-0.875475 -0.0395499 0)
(-0.875475 -0.0395499 0)
(-0.875475 -0.0395499 0)
(-0.875475 -0.0395499 0)
(-0.875475 -0.0395499 0)
(-0.875475 -0.0395499 0)
(-0.875475 -0.0395499 0)
(-0.875475 -0.0395499 0)
(-0.875475 -0.0395499 0)
(-0.875475 -0.0395499 0)
(-0.875475 -0.0395499 0)
(-0.875475 -0.0395499 0)
(-0.875475 -0.0395499 0)
(-0.875475 -0.0395499 0)
(-0.875475 -0.0395499 0)
(-0.875475 -0.0395499 0)
(-0.875475 -0.0395499 0)
(-0.875475 -0.0395499 0)
(-0.875475 -0.0395499 0)
(-0.875475 -0.0395499 0)
(-0.875475 -0.0395499 0)
(-0.875475 -0.0395499 0)
(-0.875475 -0.0395499 0)
(-0.875475 -0.0395499 0)
(-0.875475 -0.0395499 0)
(-0.875475 -0.0395499 0)
(-0.875475 -0.0395499 0)
(-0.875475 -0.0395499 0)
(-0.875475 -0.0395499 0)
(-0.875475 -0.0395499 0)
(-0.875475 -0.0395499 0)
(-0.875475 -0.0395499 0)
(-0.875475 -0.0395499 0)
(-0.875475 -0.0395499 0)
(-0.875475 -0.0395499 0)
(-0.875475 -0.0395499 0)
(-0.875475 -0.0395499 0)
(-0.875475 -0.0395499 0)
(-0.875475 -0.0395499 0)
(-0.875475 -0.0395499 0)
(-0.875475 -0.0395499 0)
(-0.875475 -0.0395499 0)
(-0.875475 -0.0395499 0)
(-0.875475 -0.0395499 0)
(-0.875475 -0.0395499 0)
(-0.875475 -0.0395499 0)
(-0.875475 -0.0395499 0)
(-0.875475 -0.0395499 0)
(-0.875475 -0.0395499 0)
(-0.875475 -0.0395499 0)
(-0.875475 -0.0395499 0)
(-0.875475 -0.0395499 0)
(-0.875475 -0.0395499 0)
(-0.875475 -0.0395499 0)
(-0.875475 -0.0395499 0)
(-0.875475 -0.0395499 0)
(-0.875475 -0.0395499 0)
(-0.875475 -0.0395499 0)
(-0.875475 -0.0395499 0)
(-0.875475 -0.0395499 0)
(-0.875475 -0.0395499 0)
(-0.875475 -0.0395499 0)
(-0.875475 -0.0395499 0)
(-0.875475 -0.0395499 0)
(-0.875475 -0.0395499 0)
(-0.875475 -0.0395499 0)
(-0.875475 -0.0395499 0)
(-0.875475 -0.0395499 0)
(-0.875475 -0.0395499 0)
(-0.875475 -0.0395499 0)
(-0.875475 -0.0395499 0)
(-0.875475 -0.0395499 0)
(-0.875475 -0.0395499 0)
(-0.875475 -0.0395499 0)
(-0.875475 -0.0395499 0)
(-0.875475 -0.0395499 0)
(-0.875475 -0.0395499 0)
(-0.875475 -0.0395499 0)
(-0.875475 -0.0395499 0)
(-0.875475 -0.0395499 0)
(-0.875475 -0.0395499 0)
(-0.875475 -0.0395499 0)
(-0.875475 -0.0395499 0)
(-0.875475 -0.0395499 0)
(-0.875475 -0.0395499 0)
(-0.875475 -0.0395499 0)
(-0.875475 -0.0395497 0)
(-0.875475 -0.0395413 0)
(-0.875476 -0.0391969 0)
(-0.875512 -0.0225002 0)
)
;

boundaryField
{
    inandouthalf11
    {
        type            cyclic;
    }
    inandouthalf12
    {
        type            cyclic;
    }
    inandouthalf21
    {
        type            cyclic;
    }
    inandouthalf22
    {
        type            cyclic;
    }
    inandouthalf31
    {
        type            cyclic;
    }
    inandouthalf32
    {
        type            cyclic;
    }
    inandouthalf41
    {
        type            cyclic;
    }
    inandouthalf42
    {
        type            cyclic;
    }
    top
    {
        type            symmetryPlane;
    }
    walls
    {
        type            fixedValue;
        value           uniform (0 0 0);
    }
    frontAndBackPlanes
    {
        type            empty;
    }
}


// ************************************************************************* //
