/*--------------------------------*- C++ -*----------------------------------*\
| =========                 |                                                 |
| \\      /  F ield         | OpenFOAM: The Open Source CFD Toolbox           |
|  \\    /   O peration     | Version:  2.4.x                                 |
|   \\  /    A nd           | Web:      www.OpenFOAM.org                      |
|    \\/     M anipulation  |                                                 |
\*---------------------------------------------------------------------------*/
FoamFile
{
    version     2.0;
    format      ascii;
    class       volVectorField;
    location    "6";
    object      Ub;
}
// * * * * * * * * * * * * * * * * * * * * * * * * * * * * * * * * * * * * * //

dimensions      [0 1 -1 0 0 0 0];

internalField   nonuniform List<vector> 
360
(
(1.24233e-05 7.57811e-08 0)
(1.23392e-05 2.79593e-07 0)
(1.22954e-05 5.23416e-07 0)
(1.22751e-05 7.46692e-07 0)
(1.22524e-05 9.64116e-07 0)
(1.22256e-05 1.18606e-06 0)
(1.21979e-05 1.41227e-06 0)
(1.21701e-05 1.6404e-06 0)
(1.2142e-05 1.86942e-06 0)
(1.21137e-05 2.09936e-06 0)
(1.2085e-05 2.33066e-06 0)
(1.20558e-05 2.56355e-06 0)
(1.20262e-05 2.79808e-06 0)
(1.19961e-05 3.03418e-06 0)
(1.19656e-05 3.27173e-06 0)
(1.19347e-05 3.51073e-06 0)
(1.19034e-05 3.75119e-06 0)
(1.18715e-05 3.99316e-06 0)
(1.18393e-05 4.23664e-06 0)
(1.18066e-05 4.48164e-06 0)
(1.17734e-05 4.72812e-06 0)
(1.17397e-05 4.97607e-06 0)
(1.17056e-05 5.22546e-06 0)
(1.1671e-05 5.47627e-06 0)
(1.1636e-05 5.72844e-06 0)
(1.16004e-05 5.9819e-06 0)
(1.15644e-05 6.23658e-06 0)
(1.1528e-05 6.49248e-06 0)
(1.1491e-05 6.74962e-06 0)
(1.14536e-05 7.00803e-06 0)
(1.14157e-05 7.26781e-06 0)
(1.13772e-05 7.52923e-06 0)
(1.1338e-05 7.79248e-06 0)
(1.12983e-05 8.05802e-06 0)
(1.12578e-05 8.32613e-06 0)
(1.12165e-05 8.59713e-06 0)
(1.11743e-05 8.87115e-06 0)
(1.11314e-05 9.14813e-06 0)
(1.10876e-05 9.42777e-06 0)
(1.10432e-05 9.70905e-06 0)
(1.09983e-05 9.99079e-06 0)
(1.09532e-05 1.02713e-05 0)
(1.09082e-05 1.05486e-05 0)
(1.08638e-05 1.08211e-05 0)
(1.08199e-05 1.10873e-05 0)
(1.07769e-05 1.13469e-05 0)
(1.07345e-05 1.16005e-05 0)
(1.06924e-05 1.18502e-05 0)
(1.065e-05 1.20997e-05 0)
(1.06063e-05 1.2355e-05 0)
(1.05596e-05 1.26241e-05 0)
(1.05081e-05 1.29176e-05 0)
(1.04492e-05 1.32493e-05 0)
(1.03796e-05 1.36362e-05 0)
(1.02956e-05 1.40952e-05 0)
(1.01949e-05 1.46366e-05 0)
(1.00784e-05 1.52499e-05 0)
(9.95493e-06 1.589e-05 0)
(9.84084e-06 1.64787e-05 0)
(9.75371e-06 1.69373e-05 0)
(9.70126e-06 1.72306e-05 0)
(9.67735e-06 1.73813e-05 0)
(9.67013e-06 1.74427e-05 0)
(9.66996e-06 1.74619e-05 0)
(9.67216e-06 1.74658e-05 0)
(9.67502e-06 1.74651e-05 0)
(9.67815e-06 1.74632e-05 0)
(9.68141e-06 1.7461e-05 0)
(9.68479e-06 1.74587e-05 0)
(9.68827e-06 1.74562e-05 0)
(9.69195e-06 1.74537e-05 0)
(9.69578e-06 1.74511e-05 0)
(9.69964e-06 1.74483e-05 0)
(9.7037e-06 1.74456e-05 0)
(9.70783e-06 1.74427e-05 0)
(9.71209e-06 1.74398e-05 0)
(9.7164e-06 1.74368e-05 0)
(9.7208e-06 1.74337e-05 0)
(9.72532e-06 1.74306e-05 0)
(9.72995e-06 1.74274e-05 0)
(9.73468e-06 1.74241e-05 0)
(9.73954e-06 1.74207e-05 0)
(9.74455e-06 1.74173e-05 0)
(9.74968e-06 1.74138e-05 0)
(9.75495e-06 1.74101e-05 0)
(9.76034e-06 1.74064e-05 0)
(9.76586e-06 1.74026e-05 0)
(9.77149e-06 1.73987e-05 0)
(9.77724e-06 1.73948e-05 0)
(9.78312e-06 1.73908e-05 0)
(9.78912e-06 1.73866e-05 0)
(9.79526e-06 1.73824e-05 0)
(9.80154e-06 1.73781e-05 0)
(9.80798e-06 1.73737e-05 0)
(9.81457e-06 1.73692e-05 0)
(9.82132e-06 1.73646e-05 0)
(9.82823e-06 1.73598e-05 0)
(9.8353e-06 1.7355e-05 0)
(9.84254e-06 1.73501e-05 0)
(9.84995e-06 1.7345e-05 0)
(9.85754e-06 1.73398e-05 0)
(9.86532e-06 1.73345e-05 0)
(9.87328e-06 1.73291e-05 0)
(9.88145e-06 1.73236e-05 0)
(9.88983e-06 1.73179e-05 0)
(9.89842e-06 1.73121e-05 0)
(9.90723e-06 1.73061e-05 0)
(9.91628e-06 1.73e-05 0)
(9.92557e-06 1.72937e-05 0)
(9.93511e-06 1.72872e-05 0)
(9.94492e-06 1.72806e-05 0)
(9.955e-06 1.72738e-05 0)
(9.96537e-06 1.72668e-05 0)
(9.97605e-06 1.72597e-05 0)
(9.98703e-06 1.72523e-05 0)
(9.99835e-06 1.72447e-05 0)
(1.001e-05 1.72369e-05 0)
(1.0022e-05 1.72288e-05 0)
(1.00344e-05 1.72205e-05 0)
(1.00472e-05 1.7212e-05 0)
(1.00605e-05 1.72032e-05 0)
(1.00741e-05 1.71941e-05 0)
(1.00882e-05 1.71847e-05 0)
(1.01028e-05 1.71751e-05 0)
(1.01179e-05 1.71651e-05 0)
(1.01335e-05 1.71548e-05 0)
(1.01497e-05 1.71441e-05 0)
(1.01665e-05 1.7133e-05 0)
(1.0184e-05 1.71215e-05 0)
(1.02022e-05 1.71095e-05 0)
(1.02212e-05 1.70971e-05 0)
(1.0241e-05 1.70842e-05 0)
(1.02617e-05 1.70706e-05 0)
(1.02835e-05 1.70563e-05 0)
(1.03067e-05 1.70413e-05 0)
(1.03313e-05 1.70255e-05 0)
(1.03571e-05 1.70087e-05 0)
(1.03846e-05 1.69904e-05 0)
(1.04151e-05 1.69702e-05 0)
(1.04502e-05 1.69486e-05 0)
(1.04882e-05 1.69267e-05 0)
(1.05245e-05 1.68996e-05 0)
(1.0568e-05 1.68695e-05 0)
(1.06246e-05 1.6834e-05 0)
(1.0695e-05 1.67705e-05 0)
(1.08237e-05 1.65903e-05 0)
(1.1017e-05 1.66204e-05 0)
(-0.00019189 1.20205e-05 0)
(-0.0520028 5.51666e-05 0)
(-0.153464 0.000103985 0)
(-0.228634 8.63561e-05 0)
(-0.287283 7.96425e-05 0)
(-0.334818 6.98353e-05 0)
(-0.374305 5.94321e-05 0)
(-0.407761 4.96264e-05 0)
(-0.436596 4.09185e-05 0)
(-0.461821 3.34464e-05 0)
(-0.484183 2.7171e-05 0)
(-0.504236 2.19686e-05 0)
(-0.522402 1.76874e-05 0)
(-0.539004 1.41772e-05 0)
(-0.554293 1.1304e-05 0)
(-0.568468 8.9532e-06 0)
(-0.581688 7.02958e-06 0)
(-0.594081 5.45502e-06 0)
(-0.605751 4.16592e-06 0)
(-0.616785 3.11061e-06 0)
(-0.627255 2.24715e-06 0)
(-0.637221 1.54144e-06 0)
(-0.646735 9.65729e-07 0)
(-0.655841 4.97346e-07 0)
(-0.664576 1.17729e-07 0)
(-0.672972 -1.88369e-07 0)
(-0.681059 -4.335e-07 0)
(-0.68886 -6.28031e-07 0)
(-0.696398 -7.80542e-07 0)
(-0.70369 -8.98148e-07 0)
(-0.710755 -9.86762e-07 0)
(-0.717608 -1.0513e-06 0)
(-0.72426 -1.09587e-06 0)
(-0.730725 -1.12388e-06 0)
(-0.737013 -1.1382e-06 0)
(-0.743134 -1.1412e-06 0)
(-0.749096 -1.13489e-06 0)
(-0.754906 -1.12094e-06 0)
(-0.760573 -1.10075e-06 0)
(-0.766101 -1.07552e-06 0)
(-0.771497 -1.0462e-06 0)
(-0.776766 -1.01359e-06 0)
(-0.781912 -9.78334e-07 0)
(-0.78694 -9.4088e-07 0)
(-0.791852 -9.01543e-07 0)
(-0.796653 -8.60517e-07 0)
(-0.801344 -8.17912e-07 0)
(-0.805929 -7.73795e-07 0)
(-0.81041 -7.28248e-07 0)
(-0.814789 -6.81472e-07 0)
(-0.819067 -6.33887e-07 0)
(-0.823246 -5.86144e-07 0)
(-0.827327 -5.3895e-07 0)
(-0.83131 -4.92802e-07 0)
(-0.835236 -4.47482e-07 0)
(-0.839141 -4.02756e-07 0)
(-0.843019 -3.58872e-07 0)
(-0.846867 -3.16199e-07 0)
(-0.850678 -2.75421e-07 0)
(-0.854447 -2.37357e-07 0)
(-0.858168 -2.02604e-07 0)
(-0.861832 -1.71523e-07 0)
(-0.865432 -1.44266e-07 0)
(-0.868959 -1.20736e-07 0)
(-0.872403 -1.0066e-07 0)
(-0.875753 -8.36668e-08 0)
(-0.878999 -6.93858e-08 0)
(-0.882127 -5.74704e-08 0)
(-0.885125 -4.7545e-08 0)
(-0.887978 -3.92822e-08 0)
(-0.890673 -3.24305e-08 0)
(-0.893194 -2.67477e-08 0)
(-0.895527 -2.20196e-08 0)
(-0.897659 -1.80903e-08 0)
(-0.899578 -1.48379e-08 0)
(-0.901273 -1.21454e-08 0)
(-0.902737 -9.91062e-09 0)
(-0.903967 -8.0638e-09 0)
(-0.904963 -6.54255e-09 0)
(-0.905727 -5.28626e-09 0)
(-0.906266 -4.2503e-09 0)
(-0.906591 -3.39861e-09 0)
(-0.906712 -2.69988e-09 0)
(-0.90664 -2.12732e-09 0)
(-0.906389 -1.66216e-09 0)
(-0.905969 -1.28835e-09 0)
(-0.905393 -9.84884e-10 0)
(-0.90467 -7.2998e-10 0)
(-0.903811 -6.1259e-10 0)
(-0.902824 -4.22142e-10 0)
(-0.901719 -2.03561e-10 0)
(-0.900504 -2.00554e-10 0)
(-0.899188 -4.75591e-11 0)
(-0.897779 5.12102e-11 0)
(-0.896287 -1.6651e-11 0)
(-0.894721 -1.70105e-12 0)
(-0.89309 -7.51723e-13 0)
(-0.891404 -1.9072e-12 0)
(-0.889674 -3.94337e-12 0)
(-0.887913 1.54771e-11 0)
(-0.886134 -4.89694e-11 0)
(-0.884352 9.76689e-11 0)
(-0.882588 -1.74866e-10 0)
(-0.880865 2.7171e-10 0)
(-0.879216 -3.98011e-10 0)
(-0.877688 5.42466e-10 0)
(-0.876352 -7.10867e-10 0)
(-0.875455 8.89411e-10 0)
(-0.875247 -1.08165e-09 0)
(-0.875237 1.27611e-09 0)
(-0.875236 -1.4794e-09 0)
(-0.875236 1.68405e-09 0)
(-0.875236 -1.89723e-09 0)
(-0.875236 2.11249e-09 0)
(-0.875236 -2.33623e-09 0)
(-0.875236 2.56281e-09 0)
(-0.875236 -2.79784e-09 0)
(-0.875236 3.03641e-09 0)
(-0.875236 -3.28343e-09 0)
(-0.875236 3.53462e-09 0)
(-0.875236 -3.79429e-09 0)
(-0.875236 4.05869e-09 0)
(-0.875236 -4.33163e-09 0)
(-0.875236 4.60978e-09 0)
(-0.875236 -4.89653e-09 0)
(-0.875236 5.18895e-09 0)
(-0.875236 -5.49004e-09 0)
(-0.875236 5.79719e-09 0)
(-0.875236 -6.11311e-09 0)
(-0.875236 6.43546e-09 0)
(-0.875236 -6.76665e-09 0)
(-0.875236 7.10463e-09 0)
(-0.875236 -7.45151e-09 0)
(-0.875236 7.80553e-09 0)
(-0.875236 -8.16851e-09 0)
(-0.875236 8.53895e-09 0)
(-0.875236 -8.91843e-09 0)
(-0.875236 9.30567e-09 0)
(-0.875236 -9.702e-09 0)
(-0.875236 1.01064e-08 0)
(-0.875236 -1.05199e-08 0)
(-0.875236 1.09418e-08 0)
(-0.875236 -1.13729e-08 0)
(-0.875236 1.18126e-08 0)
(-0.875236 -1.22615e-08 0)
(-0.875236 1.27194e-08 0)
(-0.875236 -1.31865e-08 0)
(-0.875236 1.36627e-08 0)
(-0.875236 -1.41483e-08 0)
(-0.875236 1.46432e-08 0)
(-0.875236 -1.51475e-08 0)
(-0.875236 1.56614e-08 0)
(-0.875236 -1.61846e-08 0)
(-0.875236 1.67176e-08 0)
(-0.875236 -1.726e-08 0)
(-0.875236 1.78123e-08 0)
(-0.875236 -1.8374e-08 0)
(-0.875236 1.89457e-08 0)
(-0.875236 -1.95269e-08 0)
(-0.875236 2.0118e-08 0)
(-0.875236 -2.07187e-08 0)
(-0.875236 2.13294e-08 0)
(-0.875236 -2.19494e-08 0)
(-0.875236 1.98204e-08 0)
(-0.875236 -2.00009e-08 0)
(-0.875236 2.01799e-08 0)
(-0.875236 -2.03565e-08 0)
(-0.875236 2.05316e-08 0)
(-0.875236 -2.07043e-08 0)
(-0.875236 2.08754e-08 0)
(-0.875236 -2.10441e-08 0)
(-0.875236 2.12111e-08 0)
(-0.875236 -2.13758e-08 0)
(-0.875236 2.15386e-08 0)
(-0.875236 -2.1699e-08 0)
(-0.875236 2.18577e-08 0)
(-0.875236 -2.20138e-08 0)
(-0.875236 2.2168e-08 0)
(-0.875236 -2.23197e-08 0)
(-0.875236 2.24695e-08 0)
(-0.875236 -2.26167e-08 0)
(-0.875236 2.27619e-08 0)
(-0.875236 -2.29043e-08 0)
(-0.875236 2.30449e-08 0)
(-0.875236 -2.31824e-08 0)
(-0.875236 2.33183e-08 0)
(-0.875236 -2.34507e-08 0)
(-0.875236 2.35816e-08 0)
(-0.875236 -2.37088e-08 0)
(-0.875236 2.38345e-08 0)
(-0.875236 -2.39562e-08 0)
(-0.875236 2.40766e-08 0)
(-0.875236 -2.41926e-08 0)
(-0.875236 2.43073e-08 0)
(-0.875236 -2.44175e-08 0)
(-0.875236 2.45261e-08 0)
(-0.875236 -2.46302e-08 0)
(-0.875236 2.47322e-08 0)
(-0.875236 -2.48299e-08 0)
(-0.875236 2.4925e-08 0)
(-0.875236 -2.50158e-08 0)
(-0.875236 2.51035e-08 0)
(-0.875236 -2.51869e-08 0)
(-0.875236 2.52663e-08 0)
(-0.875236 -2.53417e-08 0)
(-0.875236 2.5412e-08 0)
(-0.875236 -2.54786e-08 0)
(-0.875236 2.55383e-08 0)
(-0.875236 -2.55944e-08 0)
(-0.875236 2.56416e-08 0)
(-0.875236 -2.56842e-08 0)
(-0.875236 2.57153e-08 0)
(-0.875236 -2.57364e-08 0)
)
;

boundaryField
{
    inandouthalf11
    {
        type            cyclic;
    }
    inandouthalf12
    {
        type            cyclic;
    }
    inandouthalf21
    {
        type            cyclic;
    }
    inandouthalf22
    {
        type            cyclic;
    }
    inandouthalf31
    {
        type            cyclic;
    }
    inandouthalf32
    {
        type            cyclic;
    }
    inandouthalf41
    {
        type            cyclic;
    }
    inandouthalf42
    {
        type            cyclic;
    }
    top
    {
        type            symmetryPlane;
    }
    walls
    {
        type            fixedValue;
        value           uniform (0 0 0);
    }
    frontAndBackPlanes
    {
        type            empty;
    }
}


// ************************************************************************* //
