/*--------------------------------*- C++ -*----------------------------------*\
| =========                 |                                                 |
| \\      /  F ield         | OpenFOAM: The Open Source CFD Toolbox           |
|  \\    /   O peration     | Version:  2.4.x                                 |
|   \\  /    A nd           | Web:      www.OpenFOAM.org                      |
|    \\/     M anipulation  |                                                 |
\*---------------------------------------------------------------------------*/
FoamFile
{
    version     2.0;
    format      ascii;
    class       volVectorField;
    location    "6";
    object      Ub_0;
}
// * * * * * * * * * * * * * * * * * * * * * * * * * * * * * * * * * * * * * //

dimensions      [0 1 -1 0 0 0 0];

internalField   nonuniform List<vector> 
360
(
(1.24106e-05 7.57866e-08 0)
(1.23265e-05 2.79614e-07 0)
(1.22827e-05 5.23458e-07 0)
(1.22624e-05 7.46752e-07 0)
(1.22397e-05 9.64195e-07 0)
(1.22129e-05 1.18616e-06 0)
(1.21852e-05 1.41239e-06 0)
(1.21574e-05 1.64054e-06 0)
(1.21293e-05 1.86957e-06 0)
(1.21009e-05 2.09953e-06 0)
(1.20722e-05 2.33085e-06 0)
(1.20431e-05 2.56376e-06 0)
(1.20134e-05 2.79831e-06 0)
(1.19834e-05 3.03443e-06 0)
(1.19529e-05 3.272e-06 0)
(1.19219e-05 3.51101e-06 0)
(1.18906e-05 3.7515e-06 0)
(1.18588e-05 3.99349e-06 0)
(1.18265e-05 4.23698e-06 0)
(1.17938e-05 4.482e-06 0)
(1.17606e-05 4.72851e-06 0)
(1.17269e-05 4.97647e-06 0)
(1.16928e-05 5.22589e-06 0)
(1.16582e-05 5.47672e-06 0)
(1.16231e-05 5.7289e-06 0)
(1.15876e-05 5.98239e-06 0)
(1.15516e-05 6.23709e-06 0)
(1.15151e-05 6.49301e-06 0)
(1.14782e-05 6.75016e-06 0)
(1.14407e-05 7.00859e-06 0)
(1.14028e-05 7.2684e-06 0)
(1.13643e-05 7.52984e-06 0)
(1.13252e-05 7.79312e-06 0)
(1.12854e-05 8.05867e-06 0)
(1.12449e-05 8.32681e-06 0)
(1.12036e-05 8.59783e-06 0)
(1.11614e-05 8.87188e-06 0)
(1.11184e-05 9.14889e-06 0)
(1.10747e-05 9.42855e-06 0)
(1.10302e-05 9.70985e-06 0)
(1.09853e-05 9.99161e-06 0)
(1.09403e-05 1.02721e-05 0)
(1.08953e-05 1.05494e-05 0)
(1.08508e-05 1.08219e-05 0)
(1.08069e-05 1.10882e-05 0)
(1.07639e-05 1.13477e-05 0)
(1.07215e-05 1.16014e-05 0)
(1.06794e-05 1.1851e-05 0)
(1.0637e-05 1.21006e-05 0)
(1.05933e-05 1.23559e-05 0)
(1.05466e-05 1.2625e-05 0)
(1.04951e-05 1.29187e-05 0)
(1.04361e-05 1.32506e-05 0)
(1.03664e-05 1.36378e-05 0)
(1.02824e-05 1.4097e-05 0)
(1.01816e-05 1.46388e-05 0)
(1.00651e-05 1.52523e-05 0)
(9.94159e-06 1.58923e-05 0)
(9.82757e-06 1.64807e-05 0)
(9.74056e-06 1.69387e-05 0)
(9.68823e-06 1.72314e-05 0)
(9.6644e-06 1.73817e-05 0)
(9.65722e-06 1.74428e-05 0)
(9.65706e-06 1.7462e-05 0)
(9.65927e-06 1.74658e-05 0)
(9.66213e-06 1.74651e-05 0)
(9.66525e-06 1.74632e-05 0)
(9.66851e-06 1.7461e-05 0)
(9.67188e-06 1.74587e-05 0)
(9.67536e-06 1.74562e-05 0)
(9.67904e-06 1.74537e-05 0)
(9.68286e-06 1.74511e-05 0)
(9.68672e-06 1.74483e-05 0)
(9.69077e-06 1.74456e-05 0)
(9.6949e-06 1.74427e-05 0)
(9.69916e-06 1.74398e-05 0)
(9.70346e-06 1.74368e-05 0)
(9.70786e-06 1.74337e-05 0)
(9.71237e-06 1.74306e-05 0)
(9.71699e-06 1.74274e-05 0)
(9.72172e-06 1.74241e-05 0)
(9.72658e-06 1.74207e-05 0)
(9.73158e-06 1.74173e-05 0)
(9.73671e-06 1.74138e-05 0)
(9.74197e-06 1.74101e-05 0)
(9.74736e-06 1.74064e-05 0)
(9.75287e-06 1.74026e-05 0)
(9.7585e-06 1.73987e-05 0)
(9.76424e-06 1.73948e-05 0)
(9.77011e-06 1.73908e-05 0)
(9.77611e-06 1.73866e-05 0)
(9.78224e-06 1.73824e-05 0)
(9.78852e-06 1.73781e-05 0)
(9.79495e-06 1.73737e-05 0)
(9.80153e-06 1.73692e-05 0)
(9.80827e-06 1.73646e-05 0)
(9.81517e-06 1.73598e-05 0)
(9.82224e-06 1.7355e-05 0)
(9.82947e-06 1.73501e-05 0)
(9.83687e-06 1.7345e-05 0)
(9.84446e-06 1.73398e-05 0)
(9.85222e-06 1.73345e-05 0)
(9.86018e-06 1.73291e-05 0)
(9.86834e-06 1.73236e-05 0)
(9.87671e-06 1.73179e-05 0)
(9.88529e-06 1.73121e-05 0)
(9.8941e-06 1.73061e-05 0)
(9.90313e-06 1.73e-05 0)
(9.91241e-06 1.72937e-05 0)
(9.92195e-06 1.72872e-05 0)
(9.93174e-06 1.72806e-05 0)
(9.94182e-06 1.72738e-05 0)
(9.95218e-06 1.72668e-05 0)
(9.96284e-06 1.72597e-05 0)
(9.97382e-06 1.72523e-05 0)
(9.98512e-06 1.72447e-05 0)
(9.99677e-06 1.72369e-05 0)
(1.00088e-05 1.72288e-05 0)
(1.00212e-05 1.72205e-05 0)
(1.0034e-05 1.7212e-05 0)
(1.00472e-05 1.72032e-05 0)
(1.00608e-05 1.71941e-05 0)
(1.00749e-05 1.71847e-05 0)
(1.00895e-05 1.71751e-05 0)
(1.01045e-05 1.71651e-05 0)
(1.01201e-05 1.71548e-05 0)
(1.01363e-05 1.71441e-05 0)
(1.01531e-05 1.7133e-05 0)
(1.01706e-05 1.71215e-05 0)
(1.01888e-05 1.71095e-05 0)
(1.02078e-05 1.70971e-05 0)
(1.02275e-05 1.70842e-05 0)
(1.02482e-05 1.70706e-05 0)
(1.027e-05 1.70563e-05 0)
(1.02932e-05 1.70413e-05 0)
(1.03177e-05 1.70255e-05 0)
(1.03435e-05 1.70087e-05 0)
(1.0371e-05 1.69904e-05 0)
(1.04015e-05 1.69702e-05 0)
(1.04365e-05 1.69486e-05 0)
(1.04745e-05 1.69267e-05 0)
(1.05107e-05 1.68996e-05 0)
(1.05542e-05 1.68695e-05 0)
(1.06107e-05 1.6834e-05 0)
(1.06811e-05 1.67705e-05 0)
(1.08097e-05 1.65903e-05 0)
(1.10024e-05 1.662e-05 0)
(-0.000191995 1.20234e-05 0)
(-0.0520164 5.51648e-05 0)
(-0.153478 0.000103927 0)
(-0.228648 8.63225e-05 0)
(-0.287297 7.96064e-05 0)
(-0.334832 6.98033e-05 0)
(-0.37432 5.94053e-05 0)
(-0.407778 4.96041e-05 0)
(-0.436613 4.09e-05 0)
(-0.461839 3.34311e-05 0)
(-0.484201 2.71581e-05 0)
(-0.504255 2.19578e-05 0)
(-0.522422 1.76781e-05 0)
(-0.539024 1.41693e-05 0)
(-0.554314 1.12972e-05 0)
(-0.56849 8.94732e-06 0)
(-0.58171 7.02446e-06 0)
(-0.594103 5.45055e-06 0)
(-0.605774 4.162e-06 0)
(-0.616808 3.10717e-06 0)
(-0.627278 2.24412e-06 0)
(-0.637245 1.53877e-06 0)
(-0.646759 9.63363e-07 0)
(-0.655865 4.95248e-07 0)
(-0.664601 1.15865e-07 0)
(-0.672998 -1.90028e-07 0)
(-0.681084 -4.34981e-07 0)
(-0.688886 -6.29356e-07 0)
(-0.696424 -7.81728e-07 0)
(-0.703717 -8.99213e-07 0)
(-0.710782 -9.87719e-07 0)
(-0.717634 -1.05216e-06 0)
(-0.724287 -1.09665e-06 0)
(-0.730752 -1.12458e-06 0)
(-0.73704 -1.13883e-06 0)
(-0.743161 -1.14177e-06 0)
(-0.749123 -1.1354e-06 0)
(-0.754934 -1.1214e-06 0)
(-0.760601 -1.10117e-06 0)
(-0.766129 -1.07589e-06 0)
(-0.771526 -1.04653e-06 0)
(-0.776795 -1.0139e-06 0)
(-0.781941 -9.78603e-07 0)
(-0.786968 -9.41118e-07 0)
(-0.791881 -9.01751e-07 0)
(-0.796681 -8.60697e-07 0)
(-0.801373 -8.18064e-07 0)
(-0.805958 -7.73921e-07 0)
(-0.810439 -7.28349e-07 0)
(-0.814818 -6.81548e-07 0)
(-0.819096 -6.3394e-07 0)
(-0.823275 -5.86177e-07 0)
(-0.827356 -5.38966e-07 0)
(-0.831339 -4.92803e-07 0)
(-0.835265 -4.4747e-07 0)
(-0.83917 -4.02733e-07 0)
(-0.843048 -3.58841e-07 0)
(-0.846896 -3.16161e-07 0)
(-0.850707 -2.75379e-07 0)
(-0.854476 -2.37313e-07 0)
(-0.858196 -2.02562e-07 0)
(-0.86186 -1.71484e-07 0)
(-0.86546 -1.44231e-07 0)
(-0.868987 -1.20705e-07 0)
(-0.872431 -1.00634e-07 0)
(-0.875781 -8.36447e-08 0)
(-0.879026 -6.93674e-08 0)
(-0.882154 -5.74551e-08 0)
(-0.885151 -4.75324e-08 0)
(-0.888004 -3.92718e-08 0)
(-0.890698 -3.2422e-08 0)
(-0.893218 -2.67408e-08 0)
(-0.895551 -2.2014e-08 0)
(-0.897682 -1.80857e-08 0)
(-0.8996 -1.48342e-08 0)
(-0.901294 -1.21424e-08 0)
(-0.902758 -9.90818e-09 0)
(-0.903987 -8.06184e-09 0)
(-0.904981 -6.54097e-09 0)
(-0.905745 -5.28499e-09 0)
(-0.906284 -4.24928e-09 0)
(-0.906607 -3.39779e-09 0)
(-0.906727 -2.69923e-09 0)
(-0.906655 -2.1268e-09 0)
(-0.906403 -1.66175e-09 0)
(-0.905983 -1.28803e-09 0)
(-0.905407 -9.8463e-10 0)
(-0.904683 -7.29788e-10 0)
(-0.903824 -6.12436e-10 0)
(-0.902836 -4.22051e-10 0)
(-0.901731 -2.03865e-10 0)
(-0.900516 -2.00583e-10 0)
(-0.899199 -4.72331e-11 0)
(-0.89779 5.12109e-11 0)
(-0.896298 -1.66495e-11 0)
(-0.894732 -1.71558e-12 0)
(-0.8931 -7.57636e-13 0)
(-0.891414 -1.91131e-12 0)
(-0.889685 -3.94638e-12 0)
(-0.887923 1.54669e-11 0)
(-0.886144 -4.89596e-11 0)
(-0.884362 9.76516e-11 0)
(-0.882597 -1.74865e-10 0)
(-0.880874 2.71721e-10 0)
(-0.879226 -3.98057e-10 0)
(-0.877697 5.42538e-10 0)
(-0.876362 -7.10982e-10 0)
(-0.875465 8.89553e-10 0)
(-0.875258 -1.08183e-09 0)
(-0.875248 1.27631e-09 0)
(-0.875247 -1.47964e-09 0)
(-0.875247 1.6843e-09 0)
(-0.875247 -1.8975e-09 0)
(-0.875247 2.11278e-09 0)
(-0.875247 -2.33654e-09 0)
(-0.875247 2.56313e-09 0)
(-0.875247 -2.79818e-09 0)
(-0.875247 3.03676e-09 0)
(-0.875247 -3.2838e-09 0)
(-0.875247 3.535e-09 0)
(-0.875247 -3.7947e-09 0)
(-0.875247 4.05911e-09 0)
(-0.875247 -4.33207e-09 0)
(-0.875247 4.61023e-09 0)
(-0.875247 -4.89701e-09 0)
(-0.875247 5.18944e-09 0)
(-0.875247 -5.49056e-09 0)
(-0.875247 5.79773e-09 0)
(-0.875247 -6.11367e-09 0)
(-0.875247 6.43604e-09 0)
(-0.875247 -6.76725e-09 0)
(-0.875247 7.10525e-09 0)
(-0.875247 -7.45216e-09 0)
(-0.875247 7.8062e-09 0)
(-0.875247 -8.16921e-09 0)
(-0.875247 8.53967e-09 0)
(-0.875247 -8.91917e-09 0)
(-0.875247 9.30644e-09 0)
(-0.875247 -9.7028e-09 0)
(-0.875247 1.01072e-08 0)
(-0.875247 -1.05208e-08 0)
(-0.875247 1.09427e-08 0)
(-0.875247 -1.13738e-08 0)
(-0.875247 1.18135e-08 0)
(-0.875247 -1.22625e-08 0)
(-0.875247 1.27204e-08 0)
(-0.875247 -1.31875e-08 0)
(-0.875247 1.36638e-08 0)
(-0.875247 -1.41494e-08 0)
(-0.875247 1.46444e-08 0)
(-0.875247 -1.51487e-08 0)
(-0.875247 1.56626e-08 0)
(-0.875247 -1.61859e-08 0)
(-0.875247 1.67189e-08 0)
(-0.875247 -1.72613e-08 0)
(-0.875247 1.78136e-08 0)
(-0.875247 -1.83754e-08 0)
(-0.875247 1.89471e-08 0)
(-0.875247 -1.95283e-08 0)
(-0.875247 2.01195e-08 0)
(-0.875247 -2.07202e-08 0)
(-0.875247 2.13309e-08 0)
(-0.875247 -2.19511e-08 0)
(-0.875247 1.98218e-08 0)
(-0.875247 -2.00024e-08 0)
(-0.875247 2.01813e-08 0)
(-0.875247 -2.0358e-08 0)
(-0.875247 2.0533e-08 0)
(-0.875247 -2.07058e-08 0)
(-0.875247 2.08769e-08 0)
(-0.875247 -2.10457e-08 0)
(-0.875247 2.12126e-08 0)
(-0.875247 -2.13773e-08 0)
(-0.875247 2.15401e-08 0)
(-0.875247 -2.17006e-08 0)
(-0.875247 2.18592e-08 0)
(-0.875247 -2.20154e-08 0)
(-0.875247 2.21695e-08 0)
(-0.875247 -2.23214e-08 0)
(-0.875247 2.2471e-08 0)
(-0.875247 -2.26184e-08 0)
(-0.875247 2.27634e-08 0)
(-0.875247 -2.29061e-08 0)
(-0.875247 2.30463e-08 0)
(-0.875247 -2.31844e-08 0)
(-0.875247 2.33195e-08 0)
(-0.875247 -2.34528e-08 0)
(-0.875247 2.35827e-08 0)
(-0.875247 -2.37109e-08 0)
(-0.875247 2.38356e-08 0)
(-0.875247 -2.39585e-08 0)
(-0.875247 2.40776e-08 0)
(-0.875247 -2.41949e-08 0)
(-0.875247 2.43083e-08 0)
(-0.875247 -2.44198e-08 0)
(-0.875247 2.45271e-08 0)
(-0.875247 -2.46323e-08 0)
(-0.875247 2.47334e-08 0)
(-0.875247 -2.4832e-08 0)
(-0.875247 2.49264e-08 0)
(-0.875247 -2.50177e-08 0)
(-0.875247 2.5105e-08 0)
(-0.875247 -2.51885e-08 0)
(-0.875247 2.52682e-08 0)
(-0.875247 -2.53431e-08 0)
(-0.875247 2.54144e-08 0)
(-0.875247 -2.54793e-08 0)
(-0.875247 2.55412e-08 0)
(-0.875247 -2.55948e-08 0)
(-0.875247 2.56449e-08 0)
(-0.875247 -2.56844e-08 0)
(-0.875247 2.57176e-08 0)
(-0.875247 -2.57382e-08 0)
)
;

boundaryField
{
    inandouthalf11
    {
        type            cyclic;
    }
    inandouthalf12
    {
        type            cyclic;
    }
    inandouthalf21
    {
        type            cyclic;
    }
    inandouthalf22
    {
        type            cyclic;
    }
    inandouthalf31
    {
        type            cyclic;
    }
    inandouthalf32
    {
        type            cyclic;
    }
    inandouthalf41
    {
        type            cyclic;
    }
    inandouthalf42
    {
        type            cyclic;
    }
    top
    {
        type            symmetryPlane;
    }
    walls
    {
        type            fixedValue;
        value           uniform (0 0 0);
    }
    frontAndBackPlanes
    {
        type            empty;
    }
}


// ************************************************************************* //
