/*--------------------------------*- C++ -*----------------------------------*\
| =========                 |                                                 |
| \\      /  F ield         | OpenFOAM: The Open Source CFD Toolbox           |
|  \\    /   O peration     | Version:  2.4.x                                 |
|   \\  /    A nd           | Web:      www.OpenFOAM.org                      |
|    \\/     M anipulation  |                                                 |
\*---------------------------------------------------------------------------*/
FoamFile
{
    version     2.0;
    format      ascii;
    class       volVectorField;
    location    "6";
    object      Ur;
}
// * * * * * * * * * * * * * * * * * * * * * * * * * * * * * * * * * * * * * //

dimensions      [0 1 -1 0 0 0 0];

internalField   nonuniform List<vector> 
360
(
(1.24233e-05 7.57811e-08 0)
(1.23669e-05 4.64851e-07 0)
(1.23546e-05 8.6539e-07 0)
(1.23621e-05 1.22179e-06 0)
(1.23672e-05 1.57519e-06 0)
(1.23693e-05 1.93916e-06 0)
(1.23713e-05 2.30985e-06 0)
(1.23737e-05 2.68319e-06 0)
(1.23761e-05 3.05786e-06 0)
(1.23786e-05 3.43406e-06 0)
(1.23812e-05 3.81253e-06 0)
(1.23838e-05 4.1937e-06 0)
(1.23863e-05 4.5776e-06 0)
(1.23889e-05 4.96408e-06 0)
(1.23915e-05 5.35297e-06 0)
(1.23942e-05 5.74425e-06 0)
(1.23968e-05 6.13797e-06 0)
(1.23995e-05 6.53418e-06 0)
(1.24022e-05 6.9329e-06 0)
(1.2405e-05 7.33416e-06 0)
(1.24077e-05 7.73788e-06 0)
(1.24105e-05 8.14403e-06 0)
(1.24133e-05 8.5526e-06 0)
(1.24161e-05 8.96352e-06 0)
(1.2419e-05 9.37671e-06 0)
(1.24219e-05 9.79206e-06 0)
(1.24248e-05 1.02094e-05 0)
(1.24277e-05 1.06288e-05 0)
(1.24307e-05 1.10503e-05 0)
(1.24337e-05 1.14739e-05 0)
(1.24367e-05 1.18998e-05 0)
(1.24398e-05 1.23284e-05 0)
(1.24428e-05 1.276e-05 0)
(1.2446e-05 1.31954e-05 0)
(1.24491e-05 1.36351e-05 0)
(1.24523e-05 1.40796e-05 0)
(1.24555e-05 1.45291e-05 0)
(1.24588e-05 1.49836e-05 0)
(1.24622e-05 1.54425e-05 0)
(1.24655e-05 1.59044e-05 0)
(1.24689e-05 1.6367e-05 0)
(1.24723e-05 1.68277e-05 0)
(1.24756e-05 1.72833e-05 0)
(1.2479e-05 1.77308e-05 0)
(1.24824e-05 1.81681e-05 0)
(1.24858e-05 1.85944e-05 0)
(1.24892e-05 1.90106e-05 0)
(1.24926e-05 1.94201e-05 0)
(1.2496e-05 1.98292e-05 0)
(1.24996e-05 2.02475e-05 0)
(1.25031e-05 2.0688e-05 0)
(1.25069e-05 2.11681e-05 0)
(1.25108e-05 2.17106e-05 0)
(1.2515e-05 2.23433e-05 0)
(1.25195e-05 2.30952e-05 0)
(1.25244e-05 2.39857e-05 0)
(1.25296e-05 2.50004e-05 0)
(1.25351e-05 2.6066e-05 0)
(1.25404e-05 2.70484e-05 0)
(1.25452e-05 2.78087e-05 0)
(1.25493e-05 2.82862e-05 0)
(1.25528e-05 2.85248e-05 0)
(1.2556e-05 2.8619e-05 0)
(1.2559e-05 2.86481e-05 0)
(1.2562e-05 2.86544e-05 0)
(1.25651e-05 2.86542e-05 0)
(1.25682e-05 2.86525e-05 0)
(1.25715e-05 2.86503e-05 0)
(1.25749e-05 2.8648e-05 0)
(1.25784e-05 2.86455e-05 0)
(1.2582e-05 2.8643e-05 0)
(1.25859e-05 2.86404e-05 0)
(1.25897e-05 2.86377e-05 0)
(1.25938e-05 2.86349e-05 0)
(1.25979e-05 2.8632e-05 0)
(1.26022e-05 2.86291e-05 0)
(1.26065e-05 2.86261e-05 0)
(1.26109e-05 2.8623e-05 0)
(1.26154e-05 2.86199e-05 0)
(1.262e-05 2.86167e-05 0)
(1.26248e-05 2.86134e-05 0)
(1.26296e-05 2.86101e-05 0)
(1.26346e-05 2.86066e-05 0)
(1.26398e-05 2.86031e-05 0)
(1.2645e-05 2.85995e-05 0)
(1.26504e-05 2.85957e-05 0)
(1.26559e-05 2.85919e-05 0)
(1.26616e-05 2.85881e-05 0)
(1.26673e-05 2.85841e-05 0)
(1.26732e-05 2.85801e-05 0)
(1.26792e-05 2.8576e-05 0)
(1.26853e-05 2.85717e-05 0)
(1.26916e-05 2.85674e-05 0)
(1.26981e-05 2.8563e-05 0)
(1.27047e-05 2.85585e-05 0)
(1.27114e-05 2.85539e-05 0)
(1.27183e-05 2.85492e-05 0)
(1.27254e-05 2.85443e-05 0)
(1.27326e-05 2.85394e-05 0)
(1.274e-05 2.85343e-05 0)
(1.27476e-05 2.85292e-05 0)
(1.27554e-05 2.85239e-05 0)
(1.27634e-05 2.85185e-05 0)
(1.27715e-05 2.85129e-05 0)
(1.27799e-05 2.85072e-05 0)
(1.27885e-05 2.85014e-05 0)
(1.27973e-05 2.84954e-05 0)
(1.28064e-05 2.84893e-05 0)
(1.28157e-05 2.8483e-05 0)
(1.28252e-05 2.84766e-05 0)
(1.2835e-05 2.847e-05 0)
(1.28451e-05 2.84632e-05 0)
(1.28555e-05 2.84562e-05 0)
(1.28661e-05 2.8449e-05 0)
(1.28771e-05 2.84416e-05 0)
(1.28884e-05 2.8434e-05 0)
(1.29001e-05 2.84262e-05 0)
(1.29121e-05 2.84182e-05 0)
(1.29245e-05 2.84099e-05 0)
(1.29373e-05 2.84014e-05 0)
(1.29506e-05 2.83926e-05 0)
(1.29642e-05 2.83835e-05 0)
(1.29783e-05 2.83741e-05 0)
(1.29929e-05 2.83644e-05 0)
(1.3008e-05 2.83544e-05 0)
(1.30236e-05 2.83441e-05 0)
(1.30398e-05 2.83334e-05 0)
(1.30566e-05 2.83223e-05 0)
(1.30741e-05 2.83108e-05 0)
(1.30923e-05 2.82989e-05 0)
(1.31113e-05 2.82865e-05 0)
(1.31311e-05 2.82735e-05 0)
(1.31518e-05 2.826e-05 0)
(1.31736e-05 2.82457e-05 0)
(1.31968e-05 2.82307e-05 0)
(1.32214e-05 2.82149e-05 0)
(1.32472e-05 2.81981e-05 0)
(1.32747e-05 2.81798e-05 0)
(1.33052e-05 2.81596e-05 0)
(1.33403e-05 2.8138e-05 0)
(1.33783e-05 2.81161e-05 0)
(1.34146e-05 2.8089e-05 0)
(1.34581e-05 2.80589e-05 0)
(1.35147e-05 2.80233e-05 0)
(1.35852e-05 2.79599e-05 0)
(1.37138e-05 2.77796e-05 0)
(1.39071e-05 2.78098e-05 0)
(-0.000189 2.32098e-05 0)
(-0.00592353 0.000123017 0)
(-0.00969688 0.000401937 0)
(-0.00791066 0.000483207 0)
(-0.00630508 0.000555091 0)
(-0.00525021 0.000616912 0)
(-0.00458814 0.000670288 0)
(-0.00420044 0.000714941 0)
(-0.00400641 0.000750476 0)
(-0.00394926 0.000776394 0)
(-0.00398958 0.00079227 0)
(-0.00410094 0.000797875 0)
(-0.00426628 0.00079319 0)
(-0.00447502 0.000778367 0)
(-0.00472089 0.000753675 0)
(-0.00500047 0.00071945 0)
(-0.00531229 0.000676064 0)
(-0.00565607 0.0006239 0)
(-0.00603244 0.000563337 0)
(-0.00644254 0.000494738 0)
(-0.00688794 0.000418454 0)
(-0.00737044 0.00033481 0)
(-0.00789203 0.000244113 0)
(-0.00845483 0.000146647 0)
(-0.00906102 4.26741e-05 0)
(-0.00971281 -6.75657e-05 0)
(-0.0104124 -0.000183853 0)
(-0.011162 -0.000305987 0)
(-0.0119637 -0.000433787 0)
(-0.0128197 -0.000567086 0)
(-0.0137319 -0.000705729 0)
(-0.0147022 -0.000849571 0)
(-0.0157323 -0.000998474 0)
(-0.0168239 -0.0011523 0)
(-0.0179785 -0.00131091 0)
(-0.0191973 -0.00147417 0)
(-0.0204814 -0.00164192 0)
(-0.0218318 -0.00181402 0)
(-0.0232492 -0.00199029 0)
(-0.0247341 -0.00217056 0)
(-0.0262867 -0.00235463 0)
(-0.027907 -0.00254224 0)
(-0.0295948 -0.00273306 0)
(-0.0313495 -0.00292663 0)
(-0.0331702 -0.00312227 0)
(-0.0350557 -0.00331906 0)
(-0.0370042 -0.00351583 0)
(-0.0390135 -0.0037111 0)
(-0.041081 -0.00390315 0)
(-0.0432033 -0.00409008 0)
(-0.0453763 -0.00427008 0)
(-0.0475954 -0.00444168 0)
(-0.0498554 -0.00460404 0)
(-0.052151 -0.0047567 0)
(-0.0544995 -0.00490057 0)
(-0.0569194 -0.00503583 0)
(-0.0594044 -0.00516103 0)
(-0.0619469 -0.0052744 0)
(-0.0645371 -0.00537432 0)
(-0.0671638 -0.00546013 0)
(-0.0698143 -0.00553184 0)
(-0.0724747 -0.00558994 0)
(-0.07513 -0.0056355 0)
(-0.0777645 -0.00566985 0)
(-0.0803618 -0.00569438 0)
(-0.0829049 -0.00571042 0)
(-0.0853764 -0.00571904 0)
(-0.0877585 -0.00572137 0)
(-0.0900331 -0.00571843 0)
(-0.0921817 -0.0057108 0)
(-0.0941861 -0.00569916 0)
(-0.0960284 -0.0056841 0)
(-0.0976912 -0.00566594 0)
(-0.0991579 -0.00564486 0)
(-0.100414 -0.00562108 0)
(-0.101449 -0.00559488 0)
(-0.102253 -0.00556621 0)
(-0.102821 -0.00553498 0)
(-0.103153 -0.00550133 0)
(-0.103253 -0.00546503 0)
(-0.103126 -0.00542571 0)
(-0.102782 -0.00538294 0)
(-0.102235 -0.00533586 0)
(-0.101497 -0.00528363 0)
(-0.100582 -0.00522376 0)
(-0.0995081 -0.00515534 0)
(-0.0982922 -0.00507378 0)
(-0.0969601 -0.00497853 0)
(-0.0955071 -0.0048365 0)
(-0.0937485 -0.00462861 0)
(-0.00169181 1.57955e-05 0)
(0.00037273 -0.00545634 0)
(0.000325128 -0.00855081 0)
(-8.6847e-05 0.0208397 0)
(2.07107e-05 0.039593 0)
(-0.00016297 0.0395772 0)
(-0.000156183 0.03958 0)
(-0.000166807 0.0395811 0)
(-0.000171857 0.0395824 0)
(-0.00017364 0.0395836 0)
(-0.000171583 0.0395846 0)
(-0.000165203 0.0395852 0)
(-0.000153653 0.0395854 0)
(-0.00013553 0.0395849 0)
(-0.00010847 0.0395834 0)
(-6.91269e-05 0.0395802 0)
(-2.37937e-05 0.0395724 0)
(0.000165469 0.0395604 0)
(0.000225086 0.0395519 0)
(0.000228213 0.03955 0)
(0.000228282 0.0395499 0)
(0.000228297 0.0395499 0)
(0.000228302 0.0395499 0)
(0.000228307 0.0395499 0)
(0.00022831 0.0395499 0)
(0.000228313 0.0395499 0)
(0.000228315 0.0395499 0)
(0.000228316 0.0395499 0)
(0.000228318 0.0395499 0)
(0.000228318 0.0395499 0)
(0.000228319 0.0395499 0)
(0.00022832 0.0395499 0)
(0.00022832 0.0395499 0)
(0.00022832 0.0395499 0)
(0.00022832 0.0395499 0)
(0.000228321 0.0395499 0)
(0.000228321 0.0395499 0)
(0.000228321 0.0395499 0)
(0.000228321 0.0395499 0)
(0.000228321 0.0395499 0)
(0.000228321 0.0395499 0)
(0.000228321 0.0395499 0)
(0.000228321 0.0395499 0)
(0.000228321 0.0395499 0)
(0.000228321 0.0395499 0)
(0.000228321 0.0395499 0)
(0.000228321 0.0395499 0)
(0.000228321 0.0395499 0)
(0.000228321 0.0395499 0)
(0.000228321 0.0395499 0)
(0.000228321 0.0395499 0)
(0.000228321 0.0395499 0)
(0.000228321 0.0395499 0)
(0.000228321 0.0395499 0)
(0.000228321 0.0395499 0)
(0.000228321 0.0395499 0)
(0.000228321 0.0395499 0)
(0.000228321 0.0395499 0)
(0.000228321 0.0395499 0)
(0.000228321 0.0395499 0)
(0.000228321 0.0395499 0)
(0.000228321 0.0395499 0)
(0.000228321 0.0395499 0)
(0.000228321 0.0395499 0)
(0.000228321 0.0395499 0)
(0.000228321 0.0395499 0)
(0.000228321 0.0395499 0)
(0.000228321 0.0395499 0)
(0.000228321 0.0395499 0)
(0.000228321 0.0395499 0)
(0.000228321 0.0395499 0)
(0.000228321 0.03955 0)
(0.000228321 0.0395499 0)
(0.000228321 0.0395499 0)
(0.000228321 0.0395499 0)
(0.000228321 0.0395499 0)
(0.000228321 0.0395499 0)
(0.000228321 0.0395499 0)
(0.000228321 0.0395499 0)
(0.000228321 0.03955 0)
(0.000228321 0.0395499 0)
(0.000228321 0.03955 0)
(0.000228321 0.0395499 0)
(0.000228321 0.03955 0)
(0.000228321 0.0395499 0)
(0.000228321 0.03955 0)
(0.000228321 0.0395499 0)
(0.000228321 0.03955 0)
(0.000228321 0.0395499 0)
(0.000228321 0.03955 0)
(0.000228321 0.0395499 0)
(0.000228321 0.03955 0)
(0.000228321 0.0395499 0)
(0.000228321 0.03955 0)
(0.000228321 0.0395499 0)
(0.000228321 0.03955 0)
(0.000228321 0.0395499 0)
(0.000228321 0.03955 0)
(0.000228321 0.0395499 0)
(0.000228321 0.03955 0)
(0.000228321 0.0395499 0)
(0.000228321 0.03955 0)
(0.000228321 0.0395499 0)
(0.000228321 0.03955 0)
(0.000228321 0.0395499 0)
(0.000228321 0.03955 0)
(0.000228321 0.0395499 0)
(0.000228321 0.03955 0)
(0.000228321 0.0395499 0)
(0.000228321 0.03955 0)
(0.000228321 0.0395499 0)
(0.000228321 0.03955 0)
(0.000228321 0.0395499 0)
(0.000228321 0.03955 0)
(0.000228321 0.0395499 0)
(0.000228321 0.03955 0)
(0.000228321 0.0395499 0)
(0.000228321 0.03955 0)
(0.000228321 0.0395499 0)
(0.000228323 0.0395497 0)
(0.000228384 0.0395413 0)
(0.000229883 0.0391969 0)
(0.000265353 0.0225002 0)
)
;

boundaryField
{
    inandouthalf11
    {
        type            cyclic;
    }
    inandouthalf12
    {
        type            cyclic;
    }
    inandouthalf21
    {
        type            cyclic;
    }
    inandouthalf22
    {
        type            cyclic;
    }
    inandouthalf31
    {
        type            cyclic;
    }
    inandouthalf32
    {
        type            cyclic;
    }
    inandouthalf41
    {
        type            cyclic;
    }
    inandouthalf42
    {
        type            cyclic;
    }
    top
    {
        type            symmetryPlane;
    }
    walls
    {
        type            calculated;
        value           uniform (0 0 0);
    }
    frontAndBackPlanes
    {
        type            empty;
    }
}


// ************************************************************************* //
