/*--------------------------------*- C++ -*----------------------------------*\
| =========                 |                                                 |
| \\      /  F ield         | OpenFOAM: The Open Source CFD Toolbox           |
|  \\    /   O peration     | Version:  2.4.x                                 |
|   \\  /    A nd           | Web:      www.OpenFOAM.org                      |
|    \\/     M anipulation  |                                                 |
\*---------------------------------------------------------------------------*/
FoamFile
{
    version     2.0;
    format      ascii;
    class       volScalarField;
    location    "2.1";
    object      alpha_0;
}
// * * * * * * * * * * * * * * * * * * * * * * * * * * * * * * * * * * * * * //

dimensions      [0 0 0 0 0 0 0];

internalField   nonuniform List<scalar> 
360
(
0.609996
0.609996
0.609995
0.609995
0.609995
0.609994
0.609994
0.609993
0.609993
0.609992
0.609991
0.609991
0.60999
0.609989
0.609988
0.609987
0.609986
0.609985
0.609984
0.609982
0.609981
0.609979
0.609977
0.609975
0.609973
0.609971
0.609969
0.609966
0.609963
0.60996
0.609957
0.609953
0.60995
0.609945
0.609941
0.609936
0.609931
0.609925
0.609918
0.609912
0.609904
0.609896
0.609888
0.609878
0.609868
0.609857
0.609845
0.609833
0.609819
0.609803
0.609787
0.609769
0.60975
0.609729
0.609707
0.609682
0.609656
0.609627
0.609596
0.609563
0.609526
0.609487
0.609444
0.609398
0.609348
0.609294
0.609236
0.609178
0.609133
0.609115
0.609115
0.609116
0.609106
0.609079
0.609041
0.608994
0.608943
0.608889
0.608834
0.608779
0.608726
0.608674
0.608624
0.608574
0.608522
0.60847
0.608415
0.608359
0.608301
0.608242
0.608181
0.60812
0.608058
0.607994
0.60793
0.607864
0.607796
0.607728
0.607658
0.607586
0.607513
0.607439
0.607363
0.607285
0.607206
0.607125
0.607043
0.606959
0.606872
0.606784
0.606694
0.606601
0.606507
0.606409
0.606309
0.606207
0.606101
0.605992
0.60588
0.605765
0.605646
0.605523
0.605395
0.605264
0.605127
0.604986
0.604839
0.604686
0.604527
0.604361
0.604189
0.60401
0.603824
0.603628
0.603418
0.603198
0.602969
0.602729
0.602464
0.602164
0.601854
0.601587
0.601262
0.600814
0.600246
0.599524
0.598614
0.597396
0.595092
0.579094
0.181976
0.0550492
0.0317829
0.0226872
0.0178476
0.0148078
0.0124012
0.0100341
0.00760435
0.00521319
0.00311292
0.00157789
0.000720174
0.000351708
0.000213345
0.000150378
0.000113178
9.14116e-05
7.29094e-05
6.18539e-05
5.09608e-05
4.45633e-05
3.71545e-05
3.31528e-05
2.82402e-05
2.53559e-05
2.16426e-05
1.98061e-05
1.71555e-05
1.53282e-05
1.38415e-05
1.20932e-05
1.11413e-05
9.71759e-06
9.01623e-06
7.85899e-06
7.27073e-06
6.41362e-06
5.99532e-06
5.24399e-06
4.77412e-06
4.39941e-06
3.91752e-06
3.6598e-06
3.19351e-06
2.95728e-06
2.64378e-06
2.49572e-06
2.23806e-06
2.05904e-06
1.78153e-06
1.6509e-06
1.50188e-06
1.42664e-06
1.27749e-06
1.10194e-06
9.8568e-07
9.11319e-07
8.54838e-07
7.44511e-07
6.40727e-07
5.90976e-07
5.48714e-07
4.67722e-07
4.00078e-07
3.71452e-07
3.43192e-07
2.91652e-07
2.42235e-07
2.19897e-07
2.01152e-07
1.68926e-07
1.44044e-07
1.31564e-07
1.10545e-07
9.17366e-08
8.35876e-08
7.22848e-08
5.73989e-08
5.06318e-08
4.48692e-08
3.54518e-08
2.9795e-08
2.5965e-08
2.05671e-08
1.7861e-08
1.40748e-08
1.25555e-08
1.15465e-08
1.11825e-08
1.09627e-08
1.04249e-08
6.70446e-09
1.26306e-10
5.37369e-11
4.59211e-11
3.5768e-11
3.17317e-11
2.63025e-11
1.91265e-11
1.56733e-11
1.188e-11
1.01228e-11
8.50972e-12
6.01755e-12
4.76799e-12
3.60495e-12
3.07831e-12
2.44917e-12
1.61107e-12
1.28371e-12
1.09838e-12
8.10153e-13
5.19343e-13
4.07415e-13
3.40172e-13
2.37026e-13
1.52588e-13
1.1994e-13
9.53124e-14
5.93121e-14
4.1467e-14
3.27751e-14
2.22042e-14
1.46966e-14
1.09727e-14
7.0264e-15
5.31602e-15
3.24629e-15
2.29735e-15
1.38677e-15
1.02954e-15
6.23076e-16
3.81277e-16
2.61739e-16
1.53235e-16
1.06124e-16
6.11503e-17
4.14604e-17
2.29591e-17
1.4282e-17
5.64996e-18
2.50159e-18
1.00187e-18
3.7575e-19
1.41851e-19
5.17513e-20
1.80343e-20
5.90562e-21
1.8025e-21
5.08508e-22
1.31278e-22
3.0647e-23
6.37562e-24
1.15992e-24
1.79932e-25
2.29472e-26
2.27015e-27
1.56177e-28
5.51914e-30
8.9443e-32
2.73017e-33
4.11771e-35
5.02359e-46
3.04726e-57
1.30036e-68
4.16268e-80
1.11575e-91
3.76814e-103
2.32556e-114
4.60685e-122
7.9525e-133
1.58447e-140
2.71005e-151
5.45022e-159
1.13652e-169
1.87417e-177
5.09903e-188
6.44813e-196
3.48508e-206
2.2297e-214
2.32884e-224
7.77201e-233
1.19517e-242
2.73153e-251
5.68737e-261
9.69871e-270
2.52083e-279
3.47551e-288
1.07895e-297
1.25878e-306
4.46494e-316
3.60668e-321
8.5424e-321
0
0
0
0
0
0
0
0
0
0
0
0
0
0
0
0
)
;

boundaryField
{
    inandouthalf11
    {
        type            cyclic;
    }
    inandouthalf12
    {
        type            cyclic;
    }
    inandouthalf21
    {
        type            cyclic;
    }
    inandouthalf22
    {
        type            cyclic;
    }
    inandouthalf31
    {
        type            cyclic;
    }
    inandouthalf32
    {
        type            cyclic;
    }
    inandouthalf41
    {
        type            cyclic;
    }
    inandouthalf42
    {
        type            cyclic;
    }
    top
    {
        type            symmetryPlane;
    }
    walls
    {
        type            zeroGradient;
    }
    frontAndBackPlanes
    {
        type            empty;
    }
}


// ************************************************************************* //
