/*--------------------------------*- C++ -*----------------------------------*\
| =========                 |                                                 |
| \\      /  F ield         | OpenFOAM: The Open Source CFD Toolbox           |
|  \\    /   O peration     | Version:  2.4.x                                 |
|   \\  /    A nd           | Web:      www.OpenFOAM.org                      |
|    \\/     M anipulation  |                                                 |
\*---------------------------------------------------------------------------*/
FoamFile
{
    version     2.0;
    format      ascii;
    class       volVectorField;
    location    "2.1";
    object      ddt0(Ua);
}
// * * * * * * * * * * * * * * * * * * * * * * * * * * * * * * * * * * * * * //

dimensions      [0 1 -2 0 0 0 0];

internalField   nonuniform List<vector> 
360
(
(-1.65416e-36 -2.26243e-35 0)
(-1.65485e-36 -2.26311e-35 0)
(-1.65652e-36 -2.26438e-35 0)
(-1.66073e-36 -2.2678e-35 0)
(-1.66774e-36 -2.27348e-35 0)
(-1.67808e-36 -2.28193e-35 0)
(-1.69234e-36 -2.29368e-35 0)
(-1.71108e-36 -2.30926e-35 0)
(-1.73483e-36 -2.32913e-35 0)
(-1.76403e-36 -2.35369e-35 0)
(-1.79901e-36 -2.38323e-35 0)
(-1.83999e-36 -2.41791e-35 0)
(-1.88705e-36 -2.45777e-35 0)
(-1.94021e-36 -2.50281e-35 0)
(-1.99942e-36 -2.55291e-35 0)
(-2.06452e-36 -2.60789e-35 0)
(-2.13536e-36 -2.66755e-35 0)
(-2.21178e-36 -2.73169e-35 0)
(-2.29368e-36 -2.80018e-35 0)
(-2.3811e-36 -2.87301e-35 0)
(-2.47409e-36 -2.95021e-35 0)
(-2.57282e-36 -3.03186e-35 0)
(-2.67754e-36 -3.1182e-35 0)
(-2.78857e-36 -3.20948e-35 0)
(-2.9063e-36 -3.306e-35 0)
(-3.03121e-36 -3.40816e-35 0)
(-3.16398e-36 -3.51652e-35 0)
(-3.30554e-36 -3.6319e-35 0)
(-3.45695e-36 -3.75524e-35 0)
(-3.61935e-36 -3.88748e-35 0)
(-3.79401e-36 -4.02967e-35 0)
(-3.98246e-36 -4.18314e-35 0)
(-4.18649e-36 -4.34937e-35 0)
(-4.40826e-36 -4.53019e-35 0)
(-4.65031e-36 -4.72778e-35 0)
(-4.91554e-36 -4.94452e-35 0)
(-5.20754e-36 -5.18346e-35 0)
(-5.5308e-36 -5.44841e-35 0)
(-5.89083e-36 -5.74416e-35 0)
(-6.29421e-36 -6.07624e-35 0)
(-6.74935e-36 -6.45189e-35 0)
(-7.26766e-36 -6.88118e-35 0)
(-7.86434e-36 -7.37723e-35 0)
(-8.56152e-36 -7.95982e-35 0)
(-9.39092e-36 -8.65734e-35 0)
(-1.04002e-35 -9.51271e-35 0)
(-1.16606e-35 -1.05905e-34 0)
(-1.32885e-35 -1.19968e-34 0)
(-1.54714e-35 -1.39024e-34 0)
(-1.85461e-35 -1.66206e-34 0)
(-2.30998e-35 -2.06933e-34 0)
(-3.03044e-35 -2.72219e-34 0)
(-4.24884e-35 -3.83861e-34 0)
(-6.51393e-35 -5.94267e-34 0)
(-1.11505e-34 -1.02969e-33 0)
(-2.20871e-34 -2.07361e-33 0)
(-5.13848e-34 -4.90536e-33 0)
(-1.46623e-33 -1.42695e-32 0)
(-5.29219e-33 -5.24804e-32 0)
(-2.66246e-32 -2.71051e-31 0)
(-1.75064e-31 -1.82322e-30 0)
(-1.69534e-30 -1.81043e-29 0)
(-3.25255e-29 -3.5803e-28 0)
(-3.00318e-25 -3.50767e-24 0)
(-6.05926e-21 -7.32203e-20 0)
(-1.83323e-15 -2.29942e-14 0)
(-1.52377e-08 -1.98975e-07 0)
(-2.21169e-07 -2.62709e-06 0)
(-9.79719e-07 -1.06132e-05 0)
(-2.16479e-06 -1.98061e-05 0)
(-3.13446e-06 -2.16328e-05 0)
(-3.6825e-06 -1.74839e-05 0)
(-4.01121e-06 -1.30292e-05 0)
(-4.26471e-06 -1.02243e-05 0)
(-4.48442e-06 -8.68932e-06 0)
(-4.68323e-06 -7.80748e-06 0)
(-4.87094e-06 -7.19513e-06 0)
(-5.05674e-06 -6.64116e-06 0)
(-5.24835e-06 -6.02071e-06 0)
(-5.45124e-06 -5.25808e-06 0)
(-5.66823e-06 -4.32373e-06 0)
(-5.89944e-06 -3.23981e-06 0)
(-6.14289e-06 -2.0712e-06 0)
(-6.3954e-06 -8.97605e-07 0)
(-6.65364e-06 2.18459e-07 0)
(-6.91503e-06 1.24839e-06 0)
(-7.17817e-06 2.195e-06 0)
(-7.44277e-06 3.07953e-06 0)
(-7.7093e-06 3.92815e-06 0)
(-7.97859e-06 4.76231e-06 0)
(-8.25151e-06 5.59365e-06 0)
(-8.52876e-06 6.42303e-06 0)
(-8.81083e-06 7.2428e-06 0)
(-9.09805e-06 8.04082e-06 0)
(-9.39064e-06 8.80455e-06 0)
(-9.68883e-06 9.52416e-06 0)
(-9.99291e-06 1.01941e-05 0)
(-1.03032e-05 1.08135e-05 0)
(-1.06201e-05 1.13851e-05 0)
(-1.09441e-05 1.19151e-05 0)
(-1.12755e-05 1.24118e-05 0)
(-1.16151e-05 1.28852e-05 0)
(-1.19633e-05 1.33469e-05 0)
(-1.2321e-05 1.38094e-05 0)
(-1.26889e-05 1.42867e-05 0)
(-1.30679e-05 1.47935e-05 0)
(-1.34592e-05 1.5345e-05 0)
(-1.38639e-05 1.59562e-05 0)
(-1.42832e-05 1.66414e-05 0)
(-1.47184e-05 1.74129e-05 0)
(-1.5171e-05 1.82809e-05 0)
(-1.56422e-05 1.92525e-05 0)
(-1.61333e-05 2.03309e-05 0)
(-1.66454e-05 2.15163e-05 0)
(-1.71797e-05 2.28048e-05 0)
(-1.77369e-05 2.41899e-05 0)
(-1.83176e-05 2.56623e-05 0)
(-1.89223e-05 2.72107e-05 0)
(-1.95511e-05 2.88229e-05 0)
(-2.02041e-05 3.04858e-05 0)
(-2.08811e-05 3.21863e-05 0)
(-2.15817e-05 3.39123e-05 0)
(-2.23057e-05 3.56533e-05 0)
(-2.30534e-05 3.7401e-05 0)
(-2.38252e-05 3.91501e-05 0)
(-2.46225e-05 4.08977e-05 0)
(-2.54471e-05 4.2642e-05 0)
(-2.63005e-05 4.43796e-05 0)
(-2.71828e-05 4.61021e-05 0)
(-2.80915e-05 4.77941e-05 0)
(-2.9021e-05 4.94351e-05 0)
(-2.99654e-05 5.10074e-05 0)
(-3.09226e-05 5.2507e-05 0)
(-3.18989e-05 5.39495e-05 0)
(-3.29071e-05 5.53623e-05 0)
(-3.39593e-05 5.6765e-05 0)
(-3.50569e-05 5.81507e-05 0)
(-3.61891e-05 5.94888e-05 0)
(-3.73326e-05 6.07375e-05 0)
(-3.84337e-05 6.18351e-05 0)
(-3.93825e-05 6.26792e-05 0)
(-4.00733e-05 6.31976e-05 0)
(-4.05187e-05 6.34707e-05 0)
(-4.08042e-05 6.362e-05 0)
(-4.09907e-05 6.37113e-05 0)
(-4.11142e-05 6.37732e-05 0)
(-4.11891e-05 6.38174e-05 0)
(-4.12383e-05 6.38464e-05 0)
(-4.12809e-05 6.38901e-05 0)
(-4.09467e-05 6.42275e-05 0)
(0.246435 0.086218 0)
(-0.257459 0.214336 0)
(-0.725319 0.217274 0)
(-1.12056 0.166788 0)
(-1.465 0.111 0)
(-1.6351 0.0667309 0)
(-1.59973 0.046088 0)
(-1.5143 0.0368748 0)
(-1.4118 0.0311973 0)
(-1.2891 0.0294162 0)
(-1.16251 0.0320659 0)
(-1.06361 0.0372562 0)
(-1.00783 0.0408734 0)
(-0.982165 0.0420337 0)
(-0.9696 0.04178 0)
(-0.961972 0.040946 0)
(-0.95659 0.0399987 0)
(-0.952411 0.0390526 0)
(-0.948982 0.0381433 0)
(-0.946036 0.0372741 0)
(-0.943402 0.0364444 0)
(-0.940988 0.0356537 0)
(-0.938728 0.0348996 0)
(-0.936576 0.0341786 0)
(-0.934492 0.0334895 0)
(-0.932479 0.0328314 0)
(-0.930509 0.0322007 0)
(-0.928574 0.0315964 0)
(-0.926673 0.031019 0)
(-0.924803 0.0304636 0)
(-0.922955 0.0299326 0)
(-0.921132 0.029422 0)
(-0.919336 0.0289329 0)
(-0.917561 0.0284632 0)
(-0.915815 0.0280134 0)
(-0.914088 0.0275812 0)
(-0.912387 0.027166 0)
(-0.910715 0.0267681 0)
(-0.90908 0.0263886 0)
(-0.907449 0.0260237 0)
(-0.905848 0.0256709 0)
(-0.904301 0.0253375 0)
(-0.902777 0.0250175 0)
(-0.901288 0.0247136 0)
(-0.899799 0.0244205 0)
(-0.898339 0.0241389 0)
(-0.896955 0.0238732 0)
(-0.895646 0.023625 0)
(-0.894366 0.0233912 0)
(-0.893063 0.0231665 0)
(-0.891756 0.0229487 0)
(-0.89053 0.0227427 0)
(-0.889416 0.022552 0)
(-0.888377 0.0223761 0)
(-0.887273 0.0222049 0)
(-0.886048 0.0220282 0)
(-0.884886 0.0218588 0)
(-0.883907 0.0217087 0)
(-0.882993 0.0215721 0)
(-0.881928 0.0214303 0)
(-0.880815 0.0212859 0)
(-0.879906 0.0211619 0)
(-0.879071 0.0210514 0)
(-0.878012 0.0209273 0)
(-0.87696 0.0208036 0)
(-0.876204 0.0207093 0)
(-0.875499 0.0206253 0)
(-0.874528 0.0205229 0)
(-0.873479 0.0204136 0)
(-0.872706 0.0203324 0)
(-0.872031 0.0202644 0)
(-0.871154 0.0201802 0)
(-0.870277 0.0200969 0)
(-0.869571 0.0200349 0)
(-0.868684 0.0199573 0)
(-0.86778 0.0198765 0)
(-0.867158 0.0198298 0)
(-0.866383 0.0197687 0)
(-0.865405 0.0196846 0)
(-0.864659 0.0196287 0)
(-0.863984 0.019583 0)
(-0.863015 0.0195033 0)
(-0.862065 0.019426 0)
(-0.86125 0.019367 0)
(-0.860336 0.0192952 0)
(-0.859355 0.0192142 0)
(-0.858499 0.0191467 0)
(-0.85796 0.0191181 0)
(-0.857814 0.019136 0)
(-0.858028 0.0191963 0)
(-0.858486 0.0192833 0)
(-0.859034 0.0193791 0)
(-0.859407 0.0194098 0)
(-0.791963 0.000100217 0)
(-0.791963 0.000100136 0)
(-0.791963 0.000100192 0)
(-0.791963 0.00010013 0)
(-0.791963 0.000100189 0)
(-0.791963 0.000100125 0)
(-0.791963 0.000100187 0)
(-0.791963 0.000100121 0)
(-0.791962 0.000100186 0)
(-0.791962 0.000100119 0)
(-0.791962 0.000100185 0)
(-0.791962 0.000100118 0)
(-0.791962 0.000100184 0)
(-0.791962 0.000100118 0)
(-0.791962 0.000100183 0)
(-0.791962 0.000100119 0)
(-0.791962 0.000100177 0)
(-0.791962 0.000100128 0)
(-0.791962 0.00010017 0)
(-0.791962 0.000100129 0)
(-0.791962 0.000100173 0)
(-0.791962 0.000100127 0)
(-0.791962 0.000100172 0)
(-0.791962 0.000100129 0)
(-0.791962 0.000100171 0)
(-0.791962 0.00010013 0)
(-0.791962 0.000100169 0)
(-0.791962 0.000100132 0)
(-0.791962 0.000100168 0)
(-0.791962 0.000100133 0)
(-0.791962 0.000100166 0)
(-0.791962 0.000100135 0)
(-0.791962 0.000100165 0)
(-0.791962 0.000100137 0)
(-0.791962 0.000100163 0)
(-0.791962 0.000100139 0)
(-0.791962 0.000100162 0)
(-0.791962 0.00010014 0)
(-0.791962 0.00010016 0)
(-0.791962 0.000100142 0)
(-0.791962 0.000100158 0)
(-0.791962 0.000100144 0)
(-0.791962 0.000100157 0)
(-0.791962 0.000100145 0)
(-0.791962 0.000100155 0)
(-0.791962 0.000100147 0)
(-0.791962 0.000100154 0)
(-0.791962 0.000100148 0)
(-0.791962 0.000100153 0)
(-0.791962 0.00010015 0)
(-0.791962 0.000100151 0)
(-0.791962 0.000100151 0)
(-0.791962 0.00010015 0)
(-0.791962 0.000100152 0)
(-0.791962 0.000100149 0)
(-0.791962 0.000100153 0)
(-0.791962 0.000100148 0)
(-0.791962 0.000100154 0)
(-0.791962 0.000100147 0)
(-0.791962 0.000100155 0)
(-0.791962 0.000100146 0)
(-0.791962 0.000100156 0)
(-0.791962 0.000100145 0)
(-0.791962 0.000100157 0)
(-0.791962 0.000100144 0)
(-0.791962 0.000100158 0)
(-0.791962 0.000100143 0)
(-0.791962 0.000100158 0)
(-0.791962 0.000100143 0)
(-0.791962 0.000100158 0)
(-0.791962 0.000100142 0)
(-0.791962 0.000100159 0)
(-0.791962 0.000100142 0)
(-0.791962 0.000100159 0)
(-0.791962 0.000100141 0)
(-0.791962 0.000100159 0)
(-0.791962 0.000100141 0)
(-0.791962 0.00010016 0)
(-0.791962 0.00010014 0)
(-0.791962 0.00010016 0)
(-0.791962 0.00010014 0)
(-0.791962 0.00010016 0)
(-0.791962 0.000100139 0)
(-0.791962 0.00010016 0)
(-0.791962 0.000100138 0)
(-0.791962 0.000100159 0)
(-0.791962 0.000100135 0)
(-0.791962 0.000100156 0)
(-0.791962 0.000100131 0)
(-0.791962 0.000100153 0)
(-0.791962 0.000100127 0)
(-0.791962 0.000100149 0)
(-0.791962 0.000100123 0)
(-0.791962 0.000100146 0)
(-0.791962 0.000100119 0)
(-0.791962 0.000100142 0)
(-0.791962 0.000100114 0)
(-0.791962 0.000100137 0)
(-0.791962 0.000100109 0)
(-0.791962 0.000100133 0)
(-0.791962 0.000100104 0)
(-0.791962 0.000100127 0)
(-0.791962 0.000100097 0)
(-0.791962 0.000100121 0)
(-0.791962 0.00010009 0)
(-0.791962 0.000100115 0)
(-0.791962 0.000100085 0)
(-0.791962 0.00010011 0)
(-0.791962 0.000100081 0)
(-0.791962 0.000100106 0)
(-0.791962 0.000100079 0)
(-0.791962 0.000100106 0)
(-0.791962 0.000100081 0)
(-0.791962 0.000100118 0)
(-0.791961 0.0001002 0)
(-0.791924 0.00010253 0)
(-0.791073 0.000196198 0)
)
;

boundaryField
{
    inandouthalf11
    {
        type            cyclic;
    }
    inandouthalf12
    {
        type            cyclic;
    }
    inandouthalf21
    {
        type            cyclic;
    }
    inandouthalf22
    {
        type            cyclic;
    }
    inandouthalf31
    {
        type            cyclic;
    }
    inandouthalf32
    {
        type            cyclic;
    }
    inandouthalf41
    {
        type            cyclic;
    }
    inandouthalf42
    {
        type            cyclic;
    }
    top
    {
        type            symmetryPlane;
    }
    walls
    {
        type            calculated;
        value           uniform (0 0 0);
    }
    frontAndBackPlanes
    {
        type            empty;
    }
}


// ************************************************************************* //
