/*--------------------------------*- C++ -*----------------------------------*\
| =========                 |                                                 |
| \\      /  F ield         | OpenFOAM: The Open Source CFD Toolbox           |
|  \\    /   O peration     | Version:  2.4.x                                 |
|   \\  /    A nd           | Web:      www.OpenFOAM.org                      |
|    \\/     M anipulation  |                                                 |
\*---------------------------------------------------------------------------*/
FoamFile
{
    version     2.0;
    format      ascii;
    class       surfaceScalarField;
    location    "2.1";
    object      ddt0(phia);
}
// * * * * * * * * * * * * * * * * * * * * * * * * * * * * * * * * * * * * * //

dimensions      [0 3 -2 0 0 0 0];

internalField   nonuniform List<scalar> 
359
(
-9.05103e-41
-9.05499e-41
-9.06436e-41
-9.08256e-41
-9.1108e-41
-9.15122e-41
-9.20587e-41
-9.27679e-41
-9.36563e-41
-9.47382e-41
-9.6023e-41
-9.75135e-41
-9.92117e-41
-1.01114e-40
-1.03216e-40
-1.05509e-40
-1.07985e-40
-1.10638e-40
-1.13463e-40
-1.16465e-40
-1.19641e-40
-1.23001e-40
-1.26554e-40
-1.3031e-40
-1.34283e-40
-1.38494e-40
-1.42968e-40
-1.47743e-40
-1.52854e-40
-1.58344e-40
-1.64255e-40
-1.70652e-40
-1.7759e-40
-1.85161e-40
-1.93445e-40
-2.02561e-40
-2.12638e-40
-2.2385e-40
-2.36411e-40
-2.5056e-40
-2.66661e-40
-2.85172e-40
-3.06738e-40
-3.32346e-40
-3.63401e-40
-4.02061e-40
-4.51755e-40
-5.17987e-40
-6.10446e-40
-7.46311e-40
-9.58297e-40
-1.31222e-39
-1.95625e-39
-3.24841e-39
-6.20645e-39
-1.39615e-38
-3.83544e-38
-1.33528e-37
-6.4748e-37
-4.18957e-36
-3.98898e-35
-7.5278e-34
-7.02323e-30
-1.4659e-25
-4.6035e-20
-3.97744e-13
-5.62674e-12
-2.64275e-11
-6.10279e-11
-8.29623e-11
-7.80724e-11
-6.0951e-11
-4.65165e-11
-3.7842e-11
-3.30022e-11
-3.00088e-11
-2.76747e-11
-2.53254e-11
-2.25593e-11
-1.91648e-11
-1.51277e-11
-1.06217e-11
-5.93658e-12
-1.35734e-12
2.93442e-12
6.88698e-12
1.05491e-11
1.40152e-11
1.73807e-11
2.07117e-11
2.40333e-11
2.73317e-11
3.05673e-11
3.36908e-11
3.66575e-11
3.94366e-11
4.20152e-11
4.43971e-11
4.66004e-11
4.86539e-11
5.05941e-11
5.24641e-11
5.43125e-11
5.61922e-11
5.81605e-11
6.02771e-11
6.26025e-11
6.51951e-11
6.81085e-11
7.13876e-11
7.50668e-11
7.91668e-11
8.36944e-11
8.86422e-11
9.39895e-11
9.97043e-11
1.05746e-10
1.12067e-10
1.18617e-10
1.25344e-10
1.32197e-10
1.39131e-10
1.46109e-10
1.53102e-10
1.60096e-10
1.6708e-10
1.74043e-10
1.80963e-10
1.87792e-10
1.94458e-10
2.00886e-10
2.0703e-10
2.12914e-10
2.18622e-10
2.24252e-10
2.29832e-10
2.35284e-10
2.40454e-10
2.45134e-10
2.49018e-10
2.51778e-10
2.53339e-10
2.54175e-10
2.54661e-10
2.54968e-10
2.55181e-10
2.55332e-10
2.55439e-10
2.56133e-10
1.62319e-07
6.58576e-07
8.80253e-07
7.70415e-07
5.76699e-07
3.51328e-07
2.23951e-07
1.72123e-07
1.3756e-07
1.21433e-07
1.21808e-07
1.36367e-07
1.57158e-07
1.67283e-07
1.67665e-07
1.65209e-07
1.61823e-07
1.58071e-07
1.54385e-07
1.50831e-07
1.47436e-07
1.44193e-07
1.41108e-07
1.38156e-07
1.35336e-07
1.3264e-07
1.30066e-07
1.27593e-07
1.25231e-07
1.22966e-07
1.20791e-07
1.1871e-07
1.16709e-07
1.14793e-07
1.12952e-07
1.1119e-07
1.09493e-07
1.07869e-07
1.06312e-07
1.04826e-07
1.03388e-07
1.02017e-07
1.0071e-07
9.94618e-08
9.82694e-08
9.71181e-08
9.60243e-08
9.49959e-08
9.4033e-08
9.31157e-08
9.22307e-08
9.1386e-08
9.05933e-08
8.98587e-08
8.91675e-08
8.84699e-08
8.77762e-08
8.71369e-08
8.65647e-08
8.60106e-08
8.54334e-08
8.48961e-08
8.443e-08
8.39643e-08
8.34601e-08
8.30266e-08
8.26719e-08
8.23026e-08
8.18719e-08
8.14915e-08
8.11969e-08
8.08939e-08
8.05523e-08
8.0264e-08
7.9992e-08
7.96642e-08
7.94122e-08
7.92038e-08
7.89061e-08
7.86242e-08
7.84274e-08
7.81766e-08
7.78557e-08
7.75893e-08
7.73258e-08
7.70216e-08
7.67217e-08
7.65304e-08
7.65067e-08
7.66638e-08
7.69564e-08
7.73248e-08
7.75765e-08
3.94102e-08
4.00765e-10
4.0062e-10
4.00658e-10
4.00646e-10
4.006e-10
4.00672e-10
4.00551e-10
4.00699e-10
4.00509e-10
4.00725e-10
4.00474e-10
4.00749e-10
4.00445e-10
4.00772e-10
4.00424e-10
4.00775e-10
4.00429e-10
4.00772e-10
4.00419e-10
4.00792e-10
4.00408e-10
4.00796e-10
4.00402e-10
4.00801e-10
4.00399e-10
4.00803e-10
4.004e-10
4.00802e-10
4.00402e-10
4.00798e-10
4.00408e-10
4.00792e-10
4.00415e-10
4.00785e-10
4.00424e-10
4.00775e-10
4.00434e-10
4.00765e-10
4.00445e-10
4.00754e-10
4.00457e-10
4.00743e-10
4.00469e-10
4.00731e-10
4.00481e-10
4.0072e-10
4.00492e-10
4.00709e-10
4.00503e-10
4.00699e-10
4.00513e-10
4.00689e-10
4.00522e-10
4.0068e-10
4.00531e-10
4.00672e-10
4.00538e-10
4.00665e-10
4.00544e-10
4.00659e-10
4.0055e-10
4.00653e-10
4.00555e-10
4.00648e-10
4.00559e-10
4.00644e-10
4.00562e-10
4.0064e-10
4.00565e-10
4.00637e-10
4.00567e-10
4.00635e-10
4.00568e-10
4.00633e-10
4.0057e-10
4.00631e-10
4.00571e-10
4.0063e-10
4.00571e-10
4.00628e-10
4.00571e-10
4.00626e-10
4.0057e-10
4.00622e-10
4.00567e-10
4.00613e-10
4.00557e-10
4.006e-10
4.00545e-10
4.00584e-10
4.00531e-10
4.00567e-10
4.00518e-10
4.00549e-10
4.00501e-10
4.0053e-10
4.00485e-10
4.00511e-10
4.00467e-10
4.0049e-10
4.00445e-10
4.00466e-10
4.00417e-10
4.00441e-10
4.0039e-10
4.0042e-10
4.00372e-10
4.00399e-10
4.00355e-10
4.00385e-10
4.00357e-10
4.00383e-10
4.00389e-10
4.0064e-10
4.0545e-10
6.22913e-10
)
;

boundaryField
{
    inandouthalf11
    {
        type            cyclic;
        value           nonuniform List<scalar> 
100
(
1.65416e-42
1.65485e-42
1.65652e-42
1.66073e-42
1.66774e-42
1.67808e-42
1.69234e-42
1.71108e-42
1.73483e-42
1.76403e-42
1.79901e-42
1.83999e-42
1.88705e-42
1.94021e-42
1.99942e-42
2.06452e-42
2.13536e-42
2.21178e-42
2.29368e-42
2.3811e-42
2.47409e-42
2.57282e-42
2.67754e-42
2.78857e-42
2.9063e-42
3.03121e-42
3.16398e-42
3.30554e-42
3.45695e-42
3.61935e-42
3.79401e-42
3.98246e-42
4.18649e-42
4.40826e-42
4.65031e-42
4.91554e-42
5.20754e-42
5.5308e-42
5.89083e-42
6.29421e-42
6.74935e-42
7.26766e-42
7.86434e-42
8.56152e-42
9.39092e-42
1.04002e-41
1.16606e-41
1.32885e-41
1.54714e-41
1.85461e-41
2.30998e-41
3.03044e-41
4.24884e-41
6.51393e-41
1.11505e-40
2.20871e-40
5.13848e-40
1.46623e-39
5.29219e-39
2.66246e-38
1.75064e-37
1.69534e-36
3.25255e-35
3.00318e-31
6.05926e-27
1.83323e-21
1.52377e-14
2.21169e-13
9.79719e-13
2.16479e-12
3.13446e-12
3.6825e-12
4.01121e-12
4.26471e-12
4.48442e-12
4.68323e-12
4.87094e-12
5.05674e-12
5.24835e-12
5.45124e-12
5.66823e-12
5.89944e-12
6.14289e-12
6.3954e-12
6.65364e-12
6.91503e-12
7.17817e-12
7.44277e-12
7.7093e-12
7.97859e-12
8.25151e-12
8.52876e-12
8.81083e-12
9.09805e-12
9.39064e-12
9.68883e-12
9.99291e-12
1.03032e-11
1.06201e-11
1.09441e-11
)
;
    }
    inandouthalf12
    {
        type            cyclic;
        value           nonuniform List<scalar> 
100
(
-1.65416e-42
-1.65485e-42
-1.65652e-42
-1.66073e-42
-1.66774e-42
-1.67808e-42
-1.69234e-42
-1.71108e-42
-1.73483e-42
-1.76403e-42
-1.79901e-42
-1.83999e-42
-1.88705e-42
-1.94021e-42
-1.99942e-42
-2.06452e-42
-2.13536e-42
-2.21178e-42
-2.29368e-42
-2.3811e-42
-2.47409e-42
-2.57282e-42
-2.67754e-42
-2.78857e-42
-2.9063e-42
-3.03121e-42
-3.16398e-42
-3.30554e-42
-3.45695e-42
-3.61935e-42
-3.79401e-42
-3.98246e-42
-4.18649e-42
-4.40826e-42
-4.65031e-42
-4.91554e-42
-5.20754e-42
-5.5308e-42
-5.89083e-42
-6.29421e-42
-6.74935e-42
-7.26766e-42
-7.86434e-42
-8.56152e-42
-9.39092e-42
-1.04002e-41
-1.16606e-41
-1.32885e-41
-1.54714e-41
-1.85461e-41
-2.30998e-41
-3.03044e-41
-4.24884e-41
-6.51393e-41
-1.11505e-40
-2.20871e-40
-5.13848e-40
-1.46623e-39
-5.29219e-39
-2.66246e-38
-1.75064e-37
-1.69534e-36
-3.25255e-35
-3.00318e-31
-6.05926e-27
-1.83323e-21
-1.52377e-14
-2.21169e-13
-9.79719e-13
-2.16479e-12
-3.13446e-12
-3.6825e-12
-4.01121e-12
-4.26471e-12
-4.48442e-12
-4.68323e-12
-4.87094e-12
-5.05674e-12
-5.24835e-12
-5.45124e-12
-5.66823e-12
-5.89944e-12
-6.14289e-12
-6.3954e-12
-6.65364e-12
-6.91503e-12
-7.17817e-12
-7.44277e-12
-7.7093e-12
-7.97859e-12
-8.25151e-12
-8.52876e-12
-8.81083e-12
-9.09805e-12
-9.39064e-12
-9.68883e-12
-9.99291e-12
-1.03032e-11
-1.06201e-11
-1.09441e-11
)
;
    }
    inandouthalf21
    {
        type            cyclic;
        value           nonuniform List<scalar> 
100
(
1.12755e-11
1.16151e-11
1.19633e-11
1.2321e-11
1.26889e-11
1.30679e-11
1.34592e-11
1.38639e-11
1.42832e-11
1.47184e-11
1.5171e-11
1.56422e-11
1.61333e-11
1.66454e-11
1.71797e-11
1.77369e-11
1.83176e-11
1.89223e-11
1.95511e-11
2.02041e-11
2.08811e-11
2.15817e-11
2.23057e-11
2.30534e-11
2.38252e-11
2.46225e-11
2.54471e-11
2.63005e-11
2.71828e-11
2.80915e-11
2.9021e-11
2.99654e-11
3.09226e-11
3.18989e-11
3.29071e-11
3.39593e-11
3.50569e-11
3.61891e-11
3.73326e-11
3.84337e-11
3.93825e-11
4.00733e-11
4.05187e-11
4.08042e-11
4.09907e-11
4.11142e-11
4.11891e-11
4.12383e-11
4.12809e-11
4.09467e-11
-2.46435e-07
2.57459e-07
7.25319e-07
1.12056e-06
1.465e-06
1.6351e-06
1.59973e-06
1.5143e-06
1.4118e-06
1.2891e-06
1.16251e-06
1.06361e-06
1.00783e-06
9.82165e-07
9.696e-07
9.61972e-07
9.5659e-07
9.52411e-07
9.48982e-07
9.46036e-07
9.43402e-07
9.40988e-07
9.38728e-07
9.36576e-07
9.34492e-07
9.32479e-07
9.30509e-07
9.28574e-07
9.26673e-07
9.24803e-07
9.22955e-07
9.21132e-07
9.19336e-07
9.17561e-07
9.15815e-07
9.14088e-07
9.12387e-07
9.10715e-07
9.0908e-07
9.07449e-07
9.05848e-07
9.04301e-07
9.02777e-07
9.01288e-07
8.99799e-07
8.98339e-07
8.96955e-07
8.95646e-07
8.94366e-07
8.93063e-07
)
;
    }
    inandouthalf22
    {
        type            cyclic;
        value           nonuniform List<scalar> 
100
(
-1.12755e-11
-1.16151e-11
-1.19633e-11
-1.2321e-11
-1.26889e-11
-1.30679e-11
-1.34592e-11
-1.38639e-11
-1.42832e-11
-1.47184e-11
-1.5171e-11
-1.56422e-11
-1.61333e-11
-1.66454e-11
-1.71797e-11
-1.77369e-11
-1.83176e-11
-1.89223e-11
-1.95511e-11
-2.02041e-11
-2.08811e-11
-2.15817e-11
-2.23057e-11
-2.30534e-11
-2.38252e-11
-2.46225e-11
-2.54471e-11
-2.63005e-11
-2.71828e-11
-2.80915e-11
-2.9021e-11
-2.99654e-11
-3.09226e-11
-3.18989e-11
-3.29071e-11
-3.39593e-11
-3.50569e-11
-3.61891e-11
-3.73326e-11
-3.84337e-11
-3.93825e-11
-4.00733e-11
-4.05187e-11
-4.08042e-11
-4.09907e-11
-4.11142e-11
-4.11891e-11
-4.12383e-11
-4.12809e-11
-4.09467e-11
2.46435e-07
-2.57459e-07
-7.25319e-07
-1.12056e-06
-1.465e-06
-1.6351e-06
-1.59973e-06
-1.5143e-06
-1.4118e-06
-1.2891e-06
-1.16251e-06
-1.06361e-06
-1.00783e-06
-9.82165e-07
-9.696e-07
-9.61972e-07
-9.5659e-07
-9.52411e-07
-9.48982e-07
-9.46036e-07
-9.43402e-07
-9.40988e-07
-9.38728e-07
-9.36576e-07
-9.34492e-07
-9.32479e-07
-9.30509e-07
-9.28574e-07
-9.26673e-07
-9.24803e-07
-9.22955e-07
-9.21132e-07
-9.19336e-07
-9.17561e-07
-9.15815e-07
-9.14088e-07
-9.12387e-07
-9.10715e-07
-9.0908e-07
-9.07449e-07
-9.05848e-07
-9.04301e-07
-9.02777e-07
-9.01288e-07
-8.99799e-07
-8.98339e-07
-8.96955e-07
-8.95646e-07
-8.94366e-07
-8.93063e-07
)
;
    }
    inandouthalf31
    {
        type            cyclic;
        value           nonuniform List<scalar> 
110
(
8.91759e-07
9.08608e-07
9.25892e-07
9.43581e-07
9.61536e-07
9.79698e-07
9.98273e-07
1.01741e-06
1.03699e-06
1.05676e-06
1.07685e-06
1.09757e-06
1.11878e-06
1.14012e-06
1.16187e-06
1.18443e-06
1.20749e-06
1.23064e-06
1.25411e-06
1.27843e-06
1.30337e-06
1.32849e-06
1.35409e-06
1.38045e-06
1.40704e-06
1.4341e-06
1.46216e-06
1.49051e-06
1.51904e-06
1.54854e-06
1.57874e-06
1.60898e-06
1.63982e-06
1.67153e-06
1.70365e-06
1.73624e-06
1.76972e-06
1.80451e-06
1.84082e-06
1.87865e-06
1.91781e-06
1.95798e-06
1.99859e-06
1.87913e-06
1.91727e-06
1.95619e-06
1.99589e-06
2.0364e-06
2.07774e-06
2.11991e-06
2.16294e-06
2.20684e-06
2.25163e-06
2.29733e-06
2.34396e-06
2.39154e-06
2.44008e-06
2.48961e-06
2.54014e-06
2.5917e-06
2.6443e-06
2.69798e-06
2.75274e-06
2.80861e-06
2.86562e-06
2.92378e-06
2.98313e-06
3.04368e-06
3.10545e-06
3.16849e-06
3.2328e-06
3.29842e-06
3.36537e-06
3.43367e-06
3.50337e-06
3.57448e-06
3.64703e-06
3.72105e-06
3.79658e-06
3.87364e-06
3.95227e-06
4.03249e-06
4.11434e-06
4.19785e-06
4.28305e-06
4.36999e-06
4.45868e-06
4.54918e-06
4.64152e-06
4.73573e-06
4.83185e-06
4.92993e-06
5.02999e-06
5.13209e-06
5.23625e-06
5.34254e-06
5.45098e-06
5.56162e-06
5.6745e-06
5.78968e-06
5.90719e-06
6.0271e-06
6.14943e-06
6.27425e-06
6.4016e-06
6.53153e-06
6.6641e-06
6.79937e-06
6.93738e-06
7.07819e-06
)
;
    }
    inandouthalf32
    {
        type            cyclic;
        value           nonuniform List<scalar> 
110
(
-8.91759e-07
-9.08608e-07
-9.25892e-07
-9.43581e-07
-9.61536e-07
-9.79698e-07
-9.98273e-07
-1.01741e-06
-1.03699e-06
-1.05676e-06
-1.07685e-06
-1.09757e-06
-1.11878e-06
-1.14012e-06
-1.16187e-06
-1.18443e-06
-1.20749e-06
-1.23064e-06
-1.25411e-06
-1.27843e-06
-1.30337e-06
-1.32849e-06
-1.35409e-06
-1.38045e-06
-1.40704e-06
-1.4341e-06
-1.46216e-06
-1.49051e-06
-1.51904e-06
-1.54854e-06
-1.57874e-06
-1.60898e-06
-1.63982e-06
-1.67153e-06
-1.70365e-06
-1.73624e-06
-1.76972e-06
-1.80451e-06
-1.84082e-06
-1.87865e-06
-1.91781e-06
-1.95798e-06
-1.99859e-06
-1.87913e-06
-1.91727e-06
-1.95619e-06
-1.99589e-06
-2.0364e-06
-2.07774e-06
-2.11991e-06
-2.16294e-06
-2.20684e-06
-2.25163e-06
-2.29733e-06
-2.34396e-06
-2.39154e-06
-2.44008e-06
-2.48961e-06
-2.54014e-06
-2.5917e-06
-2.6443e-06
-2.69798e-06
-2.75274e-06
-2.80861e-06
-2.86562e-06
-2.92378e-06
-2.98313e-06
-3.04368e-06
-3.10545e-06
-3.16849e-06
-3.2328e-06
-3.29842e-06
-3.36537e-06
-3.43367e-06
-3.50337e-06
-3.57448e-06
-3.64703e-06
-3.72105e-06
-3.79658e-06
-3.87364e-06
-3.95227e-06
-4.03249e-06
-4.11434e-06
-4.19785e-06
-4.28305e-06
-4.36999e-06
-4.45868e-06
-4.54918e-06
-4.64152e-06
-4.73573e-06
-4.83185e-06
-4.92993e-06
-5.02999e-06
-5.13209e-06
-5.23625e-06
-5.34254e-06
-5.45098e-06
-5.56162e-06
-5.6745e-06
-5.78968e-06
-5.90719e-06
-6.0271e-06
-6.14943e-06
-6.27425e-06
-6.4016e-06
-6.53153e-06
-6.6641e-06
-6.79937e-06
-6.93738e-06
-7.07819e-06
)
;
    }
    inandouthalf41
    {
        type            cyclic;
        value           nonuniform List<scalar> 
50
(
6.3357e-06
6.3357e-06
6.3357e-06
6.3357e-06
6.3357e-06
6.3357e-06
6.3357e-06
6.3357e-06
6.3357e-06
6.3357e-06
6.3357e-06
6.3357e-06
6.3357e-06
6.3357e-06
6.3357e-06
6.3357e-06
6.3357e-06
6.3357e-06
6.3357e-06
6.3357e-06
6.3357e-06
6.3357e-06
6.3357e-06
6.3357e-06
6.3357e-06
6.3357e-06
6.3357e-06
6.3357e-06
6.3357e-06
6.3357e-06
6.3357e-06
6.3357e-06
6.3357e-06
6.3357e-06
6.3357e-06
6.3357e-06
6.3357e-06
6.3357e-06
6.3357e-06
6.3357e-06
6.3357e-06
6.3357e-06
6.3357e-06
6.3357e-06
6.3357e-06
6.3357e-06
6.3357e-06
6.33569e-06
6.33539e-06
6.32859e-06
)
;
    }
    inandouthalf42
    {
        type            cyclic;
        value           nonuniform List<scalar> 
50
(
-6.3357e-06
-6.3357e-06
-6.3357e-06
-6.3357e-06
-6.3357e-06
-6.3357e-06
-6.3357e-06
-6.3357e-06
-6.3357e-06
-6.3357e-06
-6.3357e-06
-6.3357e-06
-6.3357e-06
-6.3357e-06
-6.3357e-06
-6.3357e-06
-6.3357e-06
-6.3357e-06
-6.3357e-06
-6.3357e-06
-6.3357e-06
-6.3357e-06
-6.3357e-06
-6.3357e-06
-6.3357e-06
-6.3357e-06
-6.3357e-06
-6.3357e-06
-6.3357e-06
-6.3357e-06
-6.3357e-06
-6.3357e-06
-6.3357e-06
-6.3357e-06
-6.3357e-06
-6.3357e-06
-6.3357e-06
-6.3357e-06
-6.3357e-06
-6.3357e-06
-6.3357e-06
-6.3357e-06
-6.3357e-06
-6.3357e-06
-6.3357e-06
-6.3357e-06
-6.3357e-06
-6.33569e-06
-6.33539e-06
-6.32859e-06
)
;
    }
    top
    {
        type            symmetryPlane;
        value           uniform 0;
    }
    walls
    {
        type            calculated;
        value           uniform 0;
    }
    frontAndBackPlanes
    {
        type            empty;
        value           nonuniform 0();
    }
}


// ************************************************************************* //
