/*--------------------------------*- C++ -*----------------------------------*\
| =========                 |                                                 |
| \\      /  F ield         | OpenFOAM: The Open Source CFD Toolbox           |
|  \\    /   O peration     | Version:  2.4.x                                 |
|   \\  /    A nd           | Web:      www.OpenFOAM.org                      |
|    \\/     M anipulation  |                                                 |
\*---------------------------------------------------------------------------*/
FoamFile
{
    version     2.0;
    format      ascii;
    class       volVectorField;
    location    "2.1";
    object      ddt0(Ub);
}
// * * * * * * * * * * * * * * * * * * * * * * * * * * * * * * * * * * * * * //

dimensions      [0 1 -2 0 0 0 0];

internalField   nonuniform List<vector> 
360
(
(-0.000285294 -1.42208e-10 0)
(-0.00028578 -4.25463e-10 0)
(-0.000285783 -7.10741e-10 0)
(-0.000285783 -9.97675e-10 0)
(-0.000285783 -1.28372e-09 0)
(-0.000285785 -1.56945e-09 0)
(-0.000285785 -1.85591e-09 0)
(-0.000285788 -2.14214e-09 0)
(-0.000285788 -2.42768e-09 0)
(-0.00028579 -2.71254e-09 0)
(-0.000285793 -2.99472e-09 0)
(-0.000285793 -3.27825e-09 0)
(-0.000285795 -3.56405e-09 0)
(-0.000285797 -3.84876e-09 0)
(-0.0002858 -4.13522e-09 0)
(-0.000285802 -4.41963e-09 0)
(-0.000285805 -4.70325e-09 0)
(-0.000285807 -4.98821e-09 0)
(-0.000285809 -5.26946e-09 0)
(-0.000285814 -5.54839e-09 0)
(-0.000285817 -5.82578e-09 0)
(-0.000285821 -6.10766e-09 0)
(-0.000285826 -6.39075e-09 0)
(-0.000285831 -6.66982e-09 0)
(-0.000285836 -6.94879e-09 0)
(-0.000285841 -7.22654e-09 0)
(-0.000285845 -7.50367e-09 0)
(-0.000285853 -7.77549e-09 0)
(-0.00028586 -8.05002e-09 0)
(-0.000285867 -8.32473e-09 0)
(-0.000285874 -8.59543e-09 0)
(-0.000285884 -8.86889e-09 0)
(-0.000285891 -9.13949e-09 0)
(-0.000285903 -9.40944e-09 0)
(-0.000285913 -9.68146e-09 0)
(-0.000285925 -9.95197e-09 0)
(-0.000285937 -1.02181e-08 0)
(-0.000285951 -1.04818e-08 0)
(-0.000285968 -1.07458e-08 0)
(-0.000285982 -1.10093e-08 0)
(-0.000286001 -1.12742e-08 0)
(-0.000286021 -1.15384e-08 0)
(-0.00028604 -1.17984e-08 0)
(-0.000286064 -1.20556e-08 0)
(-0.000286088 -1.23079e-08 0)
(-0.000286114 -1.25584e-08 0)
(-0.000286143 -1.28113e-08 0)
(-0.000286172 -1.30623e-08 0)
(-0.000286206 -1.33123e-08 0)
(-0.000286244 -1.35596e-08 0)
(-0.000286283 -1.38055e-08 0)
(-0.000286326 -1.40554e-08 0)
(-0.000286372 -1.43089e-08 0)
(-0.000286422 -1.45557e-08 0)
(-0.000286475 -1.47958e-08 0)
(-0.000286535 -1.50375e-08 0)
(-0.000286598 -1.52765e-08 0)
(-0.000286668 -1.55155e-08 0)
(-0.000286742 -1.57539e-08 0)
(-0.000286822 -1.59885e-08 0)
(-0.000286911 -1.62205e-08 0)
(-0.000287005 -1.64468e-08 0)
(-0.000287108 -1.667e-08 0)
(-0.000287219 -1.6955e-08 0)
(-0.00028734 -1.17024e-08 0)
(-0.00028747 -5.13899e-08 0)
(-0.000287572 6.53487e-07 0)
(-0.000287571 5.95073e-06 0)
(-0.000287578 1.7519e-05 0)
(-0.000287865 2.85042e-05 0)
(-0.00028854 3.14715e-05 0)
(-0.000289472 2.71084e-05 0)
(-0.000290403 2.09279e-05 0)
(-0.000291164 1.64272e-05 0)
(-0.000291741 1.37977e-05 0)
(-0.000292187 1.22706e-05 0)
(-0.00029255 1.12308e-05 0)
(-0.000292866 1.03176e-05 0)
(-0.000293157 9.32194e-06 0)
(-0.000293442 8.12415e-06 0)
(-0.000293737 6.67996e-06 0)
(-0.000294054 5.02018e-06 0)
(-0.0002944 3.23479e-06 0)
(-0.000294773 1.4354e-06 0)
(-0.000295167 -2.87299e-07 0)
(-0.000295572 -1.88783e-06 0)
(-0.000295983 -3.36544e-06 0)
(-0.000296395 -4.74784e-06 0)
(-0.000296809 -6.07183e-06 0)
(-0.000297225 -7.36876e-06 0)
(-0.000297645 -8.65634e-06 0)
(-0.00029807 -9.93678e-06 0)
(-0.000298502 -1.11998e-05 0)
(-0.000298942 -1.24281e-05 0)
(-0.000299389 -1.36036e-05 0)
(-0.000299844 -1.47114e-05 0)
(-0.000300307 -1.57433e-05 0)
(-0.000300778 -1.66974e-05 0)
(-0.000301257 -1.7578e-05 0)
(-0.000301745 -1.83942e-05 0)
(-0.000302242 -1.91587e-05 0)
(-0.000302749 -1.98869e-05 0)
(-0.000303268 -2.05965e-05 0)
(-0.000303798 -2.13072e-05 0)
(-0.000304342 -2.20403e-05 0)
(-0.000304901 -2.28183e-05 0)
(-0.000305477 -2.36644e-05 0)
(-0.000306071 -2.46016e-05 0)
(-0.000306685 -2.56512e-05 0)
(-0.000307321 -2.68323e-05 0)
(-0.000307982 -2.816e-05 0)
(-0.000308669 -2.96448e-05 0)
(-0.000309384 -3.12917e-05 0)
(-0.000310129 -3.31003e-05 0)
(-0.000310905 -3.50651e-05 0)
(-0.000311714 -3.71757e-05 0)
(-0.000312555 -3.94177e-05 0)
(-0.000313431 -4.17741e-05 0)
(-0.000314342 -4.42256e-05 0)
(-0.000315288 -4.67523e-05 0)
(-0.000316269 -4.93343e-05 0)
(-0.000317285 -5.19528e-05 0)
(-0.000318337 -5.45918e-05 0)
(-0.000319425 -5.72386e-05 0)
(-0.000320549 -5.98844e-05 0)
(-0.000321713 -6.2524e-05 0)
(-0.000322917 -6.51533e-05 0)
(-0.000324166 -6.77658e-05 0)
(-0.000325462 -7.03478e-05 0)
(-0.000326806 -7.28767e-05 0)
(-0.000328193 -7.53242e-05 0)
(-0.000329617 -7.76669e-05 0)
(-0.000331076 -7.98998e-05 0)
(-0.000332578 -8.20427e-05 0)
(-0.00033414 -8.41306e-05 0)
(-0.000335776 -8.61876e-05 0)
(-0.000337489 -8.82029e-05 0)
(-0.000339277 -9.01313e-05 0)
(-0.000341155 -9.1905e-05 0)
(-0.000343107 -9.3433e-05 0)
(-0.000344981 -9.46036e-05 0)
(-0.000346525 -9.53022e-05 0)
(-0.000347934 -9.56256e-05 0)
(-0.000349452 -9.57131e-05 0)
(-0.000351162 -9.56367e-05 0)
(-0.000353202 -9.5452e-05 0)
(-0.0003557 -9.51501e-05 0)
(-0.000359044 -0.000105875 0)
(-0.000359498 0.000326011 0)
(0.00689588 -0.00211854 0)
(0.573654 -0.0395326 0)
(-0.0182239 -0.0134483 0)
(-0.693341 -0.00639936 0)
(-1.40417 -0.00338058 0)
(-2.28324 -0.00309474 0)
(-2.3048 0.000540858 0)
(-1.58191 -0.00183562 0)
(-1.34972 0.000904227 0)
(-1.29607 -0.00107607 0)
(-1.23461 0.000426455 0)
(-1.13879 -0.00066155 0)
(-1.02039 0.000276522 0)
(-0.920539 -0.000405731 0)
(-0.864011 0.000283627 0)
(-0.838426 -0.000300158 0)
(-0.82653 0.000262354 0)
(-0.819585 -0.000262608 0)
(-0.814951 0.0002429 0)
(-0.811583 -0.00022463 0)
(-0.809053 0.000194152 0)
(-0.807113 -0.000174869 0)
(-0.805604 0.000148871 0)
(-0.804398 -0.000131277 0)
(-0.803432 0.000109918 0)
(-0.802632 -9.50998e-05 0)
(-0.801968 7.80991e-05 0)
(-0.801408 -6.62503e-05 0)
(-0.800938 5.31118e-05 0)
(-0.800522 -4.40566e-05 0)
(-0.800172 3.42057e-05 0)
(-0.799864 -2.75816e-05 0)
(-0.799595 2.0431e-05 0)
(-0.799362 -1.58182e-05 0)
(-0.799155 1.08114e-05 0)
(-0.798974 -7.78132e-06 0)
(-0.798808 4.41203e-06 0)
(-0.798666 -2.56433e-06 0)
(-0.798541 4.0062e-07 0)
(-0.798427 5.99506e-07 0)
(-0.798319 -1.91174e-06 0)
(-0.798231 2.34156e-06 0)
(-0.79815 -3.07104e-06 0)
(-0.798077 3.13038e-06 0)
(-0.798011 -3.48181e-06 0)
(-0.797947 3.32266e-06 0)
(-0.797894 -3.43732e-06 0)
(-0.797849 3.16496e-06 0)
(-0.797808 -3.14596e-06 0)
(-0.797768 2.82393e-06 0)
(-0.797729 -2.73702e-06 0)
(-0.797694 2.4117e-06 0)
(-0.797666 -2.34076e-06 0)
(-0.797643 2.07932e-06 0)
(-0.797621 -1.99788e-06 0)
(-0.797595 1.75563e-06 0)
(-0.79757 -1.6741e-06 0)
(-0.797551 1.46155e-06 0)
(-0.797537 -1.38454e-06 0)
(-0.797522 1.19812e-06 0)
(-0.797505 -1.13265e-06 0)
(-0.797491 9.7262e-07 0)
(-0.797481 -9.15822e-07 0)
(-0.797471 7.79101e-07 0)
(-0.797459 -7.33807e-07 0)
(-0.79745 6.18158e-07 0)
(-0.797443 -5.80825e-07 0)
(-0.797437 4.82494e-07 0)
(-0.797429 -4.54528e-07 0)
(-0.797422 3.71169e-07 0)
(-0.797418 -3.49088e-07 0)
(-0.797414 2.78243e-07 0)
(-0.797409 -2.62551e-07 0)
(-0.797405 2.0188e-07 0)
(-0.797403 -1.90688e-07 0)
(-0.797399 1.38214e-07 0)
(-0.797397 -1.30945e-07 0)
(-0.797395 8.55914e-08 0)
(-0.797393 -8.15501e-08 0)
(-0.797391 4.16089e-08 0)
(-0.79739 -3.99228e-08 0)
(-0.797389 4.67882e-09 0)
(-0.797387 -5.18686e-09 0)
(-0.797386 -2.62082e-08 0)
(-0.797386 2.41226e-08 0)
(-0.797385 -5.2284e-08 0)
(-0.797384 4.88164e-08 0)
(-0.797384 -7.41737e-08 0)
(-0.797383 6.96315e-08 0)
(-0.797383 -9.25116e-08 0)
(-0.797383 8.69803e-08 0)
(-0.797383 -1.07755e-07 0)
(-0.797383 1.01224e-07 0)
(-0.797382 -1.20374e-07 0)
(-0.797382 1.12379e-07 0)
(-0.797382 -1.2909e-07 0)
(-0.797382 1.21539e-07 0)
(-0.797382 -1.36459e-07 0)
(-0.797382 1.2835e-07 0)
(-0.797381 -1.41597e-07 0)
(-0.797381 1.33013e-07 0)
(-0.797381 -1.44637e-07 0)
(-0.797381 1.35681e-07 0)
(-0.797381 -1.45735e-07 0)
(-0.797381 1.36483e-07 0)
(-0.797381 -1.45044e-07 0)
(-0.797381 1.35561e-07 0)
(-0.797381 -1.4271e-07 0)
(-0.797381 1.33077e-07 0)
(-0.797381 -1.389e-07 0)
(-0.797381 1.29178e-07 0)
(-0.797381 -1.33795e-07 0)
(-0.797381 1.24036e-07 0)
(-0.797381 -1.27572e-07 0)
(-0.797381 1.17827e-07 0)
(-0.797381 -1.20388e-07 0)
(-0.797381 1.10789e-07 0)
(-0.797381 -1.12397e-07 0)
(-0.797381 1.03057e-07 0)
(-0.797381 -1.03836e-07 0)
(-0.797381 9.47948e-08 0)
(-0.797381 -9.4879e-08 0)
(-0.797381 8.61404e-08 0)
(-0.797381 -8.56894e-08 0)
(-0.797381 7.73104e-08 0)
(-0.797381 -7.63736e-08 0)
(-0.797381 6.83948e-08 0)
(-0.797381 -6.71259e-08 0)
(-0.797381 5.95268e-08 0)
(-0.797381 -5.80351e-08 0)
(-0.797381 5.07848e-08 0)
(-0.797381 -4.91862e-08 0)
(-0.797381 4.23823e-08 0)
(-0.797381 -4.05626e-08 0)
(-0.797381 3.42932e-08 0)
(-0.797381 -3.23462e-08 0)
(-0.797381 2.65625e-08 0)
(-0.797381 -2.45433e-08 0)
(-0.797381 1.91839e-08 0)
(-0.797381 -1.71948e-08 0)
(-0.797381 1.22568e-08 0)
(-0.797381 -1.02319e-08 0)
(-0.797381 5.70768e-09 0)
(-0.797381 -3.74708e-09 0)
(-0.797381 -4.75827e-10 0)
(-0.797381 2.29443e-09 0)
(-0.797381 -6.40654e-09 0)
(-0.797381 7.89306e-09 0)
(-0.797381 -1.18489e-08 0)
(-0.797381 1.33022e-08 0)
(-0.797381 -1.70546e-08 0)
(-0.797381 1.8299e-08 0)
(-0.797381 -2.20432e-08 0)
(-0.797381 2.3009e-08 0)
(-0.797381 -2.68567e-08 0)
(-0.797381 2.7465e-08 0)
(-0.797381 -3.14948e-08 0)
(-0.797381 3.17517e-08 0)
(-0.797381 -3.60041e-08 0)
(-0.797381 3.58825e-08 0)
(-0.797381 -4.04216e-08 0)
(-0.797381 3.49238e-08 0)
(-0.797381 -3.89277e-08 0)
(-0.797381 3.71593e-08 0)
(-0.797381 -4.14626e-08 0)
(-0.797381 3.91965e-08 0)
(-0.797381 -4.38465e-08 0)
(-0.797381 4.11045e-08 0)
(-0.797381 -4.61177e-08 0)
(-0.797381 4.28843e-08 0)
(-0.797381 -4.82891e-08 0)
(-0.797381 4.45281e-08 0)
(-0.797381 -5.04834e-08 0)
(-0.797381 4.59311e-08 0)
(-0.797381 -5.27781e-08 0)
(-0.797381 4.69824e-08 0)
(-0.797381 -5.54771e-08 0)
(-0.797381 4.71823e-08 0)
(-0.797381 -5.94522e-08 0)
(-0.797381 4.484e-08 0)
(-0.797381 -6.69652e-08 0)
(-0.797381 3.88149e-08 0)
(-0.797381 -7.68652e-08 0)
(-0.797381 3.12218e-08 0)
(-0.797381 -8.79526e-08 0)
(-0.797381 2.2691e-08 0)
(-0.797381 -9.90781e-08 0)
(-0.797381 1.37698e-08 0)
(-0.797381 -1.11556e-07 0)
(-0.797381 3.47567e-09 0)
(-0.797381 -1.23969e-07 0)
(-0.797381 -6.72077e-09 0)
(-0.797381 -1.37207e-07 0)
(-0.797381 -1.80763e-08 0)
(-0.797381 -1.51873e-07 0)
(-0.797381 -3.19997e-08 0)
(-0.797381 -1.69858e-07 0)
(-0.797381 -4.79438e-08 0)
(-0.797381 -1.86623e-07 0)
(-0.797381 -6.27191e-08 0)
(-0.797381 -1.99262e-07 0)
(-0.797381 -7.51157e-08 0)
(-0.797381 -2.11541e-07 0)
(-0.797381 -8.48189e-08 0)
(-0.797381 -2.14954e-07 0)
(-0.797381 -8.39395e-08 0)
(-0.797381 -2.08585e-07 0)
(-0.797381 -6.76634e-08 0)
(-0.797381 -1.80214e-07 0)
(-0.797381 -2.0904e-08 0)
(-0.797381 -9.9762e-08 0)
)
;

boundaryField
{
    inandouthalf11
    {
        type            cyclic;
    }
    inandouthalf12
    {
        type            cyclic;
    }
    inandouthalf21
    {
        type            cyclic;
    }
    inandouthalf22
    {
        type            cyclic;
    }
    inandouthalf31
    {
        type            cyclic;
    }
    inandouthalf32
    {
        type            cyclic;
    }
    inandouthalf41
    {
        type            cyclic;
    }
    inandouthalf42
    {
        type            cyclic;
    }
    top
    {
        type            symmetryPlane;
    }
    walls
    {
        type            calculated;
        value           uniform (0 0 0);
    }
    frontAndBackPlanes
    {
        type            empty;
    }
}


// ************************************************************************* //
