/*--------------------------------*- C++ -*----------------------------------*\
| =========                 |                                                 |
| \\      /  F ield         | OpenFOAM: The Open Source CFD Toolbox           |
|  \\    /   O peration     | Version:  2.4.x                                 |
|   \\  /    A nd           | Web:      www.OpenFOAM.org                      |
|    \\/     M anipulation  |                                                 |
\*---------------------------------------------------------------------------*/
FoamFile
{
    version     2.0;
    format      ascii;
    class       volScalarField;
    location    "2.1";
    object      ddt0(alpha);
}
// * * * * * * * * * * * * * * * * * * * * * * * * * * * * * * * * * * * * * //

dimensions      [0 0 -1 0 0 0 0];

internalField   nonuniform List<scalar> 
360
(
8.52939e-13
3.14973e-13
7.58521e-13
1.7002e-14
-9.23619e-14
-6.89389e-15
-1.24219e-12
-1.19994e-13
1.27667e-12
6.53549e-13
-1.40752e-15
-8.61056e-13
2.59037e-13
4.20516e-13
-4.0824e-16
-3.56149e-13
1.74147e-15
-4.37824e-13
-2.07305e-17
1.53076e-15
-3.39777e-13
-1.7411e-15
2.51193e-17
-1.63779e-15
-3.3674e-13
1.11148e-13
7.84885e-14
1.71455e-15
-7.66439e-17
-2.39668e-17
-3.06605e-13
-1.58972e-18
-2.07305e-17
7.6244e-17
2.11344e-14
-3.60777e-13
-4.4419e-13
7.83865e-14
1.0049e-16
-1.84679e-13
-4.44292e-13
-4.41246e-13
-1.26067e-12
6.29997e-13
1.0176e-13
1.25429e-12
3.92034e-13
4.18081e-13
1.27388e-12
-4.11452e-13
1.05527e-12
-2.1229e-13
7.76231e-13
-3.77177e-13
-4.1875e-13
2.45197e-14
7.83852e-14
-7.87931e-14
-1.76268e-13
-1.72256e-16
1.01985e-16
-6.53171e-15
-3.12009e-13
-4.16836e-13
-3.13463e-13
2.10909e-07
3.66915e-05
0.000274727
0.000865725
0.00151962
0.00172848
0.00146451
0.00106649
0.000759371
0.000574558
0.000479918
0.000442588
0.000442337
0.000465379
0.000500151
0.000535473
0.000562548
0.000576616
0.000578012
0.000570813
0.000560006
0.000549719
0.000542068
0.000537654
0.000535998
0.000536117
0.000537096
0.000538433
0.000539988
0.000541945
0.00054463
0.000548353
0.000553308
0.000559565
0.000567096
0.000575809
0.000585586
0.000596298
0.000607782
0.000619835
0.000632208
0.000644611
0.00065673
0.00066825
0.000678876
0.00068835
0.000696464
0.00070307
0.000708082
0.000711471
0.000713261
0.000713512
0.000712298
0.000709698
0.000705781
0.000700616
0.000694302
0.000687007
0.000679003
0.000670666
0.000662369
0.000654274
0.000646031
0.000636578
0.000624334
0.000608047
0.000588036
0.00056675
0.000547395
0.00053083
0.000513563
0.000490792
0.000460913
0.0004221
0.00036442
0.00027684
0.000166306
8.18053e-05
2.81864e-05
-1.02056e-05
-4.25742e-05
-7.434e-05
-0.000136864
-0.00135151
-0.613362
0.119917
0.369657
0.0993644
0.0201585
-0.0147436
-0.0325854
-0.0265127
-0.0143358
-0.0011598
0.00980579
0.0144793
0.0120988
0.00653629
0.00262571
0.00101245
0.000488413
0.000277262
0.000177343
0.000121759
8.42601e-05
6.17032e-05
4.52564e-05
3.44785e-05
2.52922e-05
1.99761e-05
1.5322e-05
1.19303e-05
9.03965e-06
7.44247e-06
5.54794e-06
4.42474e-06
3.43608e-06
2.63181e-06
2.04516e-06
1.53002e-06
1.12675e-06
8.28055e-07
6.22054e-07
3.80505e-07
1.02325e-07
1.79315e-07
-1.2732e-08
-5.38526e-08
-1.8476e-07
-2.82254e-07
-2.34373e-07
-1.63245e-07
-1.92723e-07
-3.09091e-07
-4.43057e-07
-3.63449e-07
-2.28065e-07
-1.63378e-07
-1.97129e-07
-4.07912e-07
-3.77854e-07
-2.14375e-07
-1.21216e-07
-2.08396e-07
-3.3215e-07
-2.03533e-07
-1.04896e-07
-1.80363e-07
-2.69855e-07
-1.21671e-07
-7.01859e-08
-1.26965e-07
-1.93474e-07
-1.11172e-07
-6.0435e-08
-8.74944e-08
-1.0752e-07
-6.4171e-08
-5.94119e-08
-8.48784e-08
-4.34558e-08
-3.43706e-08
-5.73969e-08
-4.04159e-08
-2.31786e-08
-3.15096e-08
-3.29779e-08
-1.96458e-08
-2.03179e-08
-1.79385e-08
-1.69173e-08
-9.94242e-09
-5.77937e-09
-1.20847e-09
-1.24489e-10
-9.83057e-10
-1.11965e-08
-4.51385e-08
-1.79113e-09
-3.78302e-10
-3.23422e-10
-1.87907e-10
-1.45268e-10
-1.95692e-10
-1.51537e-10
-1.09848e-10
-7.40761e-11
-4.68696e-11
-5.63294e-11
-4.9622e-11
-3.33168e-11
-2.00597e-11
-1.45175e-11
-2.04865e-11
-1.17521e-11
-6.08529e-12
-5.48176e-12
-7.40213e-12
-3.70582e-12
-1.96186e-12
-1.82017e-12
-2.18691e-12
-9.96907e-13
-5.78077e-13
-6.07029e-13
-5.22169e-13
-2.44692e-13
-1.78976e-13
-1.67016e-13
-9.87786e-14
-7.24012e-14
-4.35851e-14
-3.35407e-14
-2.32391e-14
-1.67472e-14
-8.39934e-15
-5.9238e-15
-5.00251e-15
-2.64608e-15
-1.7866e-15
-1.00203e-15
-6.91764e-16
-4.0235e-16
-2.67791e-16
-1.70306e-16
-1.28208e-16
-6.07117e-17
-2.94303e-17
-1.23753e-17
-4.49767e-18
-1.70969e-18
-6.3263e-19
-2.25942e-19
-7.59432e-20
-2.38039e-20
-6.89937e-21
-1.83035e-21
-4.39117e-22
-9.3876e-23
-1.75504e-23
-2.79791e-24
-3.6686e-25
-3.73578e-26
-2.65366e-27
-9.79375e-29
-1.68711e-30
-5.27315e-32
-8.13718e-34
-9.37548e-45
-5.3273e-56
-2.12421e-67
-6.26088e-79
-1.54718e-90
-5.63145e-102
-3.95635e-113
-9.10463e-121
-1.48096e-131
-3.13108e-139
-5.01541e-150
-1.07702e-157
-2.09984e-168
-3.70342e-176
-9.38634e-187
-1.27409e-194
-6.46315e-205
-4.40319e-213
-4.33882e-223
-1.53244e-231
-2.22351e-241
-5.37245e-250
-1.05534e-259
-1.90003e-268
-4.66455e-278
-6.77573e-287
-1.98973e-296
-2.43809e-305
-8.04945e-315
9.8072e-321
0
0
0
0
0
0
0
0
0
0
0
0
0
0
0
0
0
)
;

boundaryField
{
    inandouthalf11
    {
        type            cyclic;
    }
    inandouthalf12
    {
        type            cyclic;
    }
    inandouthalf21
    {
        type            cyclic;
    }
    inandouthalf22
    {
        type            cyclic;
    }
    inandouthalf31
    {
        type            cyclic;
    }
    inandouthalf32
    {
        type            cyclic;
    }
    inandouthalf41
    {
        type            cyclic;
    }
    inandouthalf42
    {
        type            cyclic;
    }
    top
    {
        type            symmetryPlane;
    }
    walls
    {
        type            calculated;
        value           uniform 8.52939e-13;
    }
    frontAndBackPlanes
    {
        type            empty;
    }
}


// ************************************************************************* //
