/*--------------------------------*- C++ -*----------------------------------*\
| =========                 |                                                 |
| \\      /  F ield         | OpenFOAM: The Open Source CFD Toolbox           |
|  \\    /   O peration     | Version:  2.4.x                                 |
|   \\  /    A nd           | Web:      www.OpenFOAM.org                      |
|    \\/     M anipulation  |                                                 |
\*---------------------------------------------------------------------------*/
FoamFile
{
    version     2.0;
    format      ascii;
    class       volVectorField;
    location    "2.1";
    object      gradPs;
}
// * * * * * * * * * * * * * * * * * * * * * * * * * * * * * * * * * * * * * //

dimensions      [0 1 -2 0 0 0 0];

internalField   nonuniform List<vector> 
360
(
(0 8.57142e-26 0)
(0 -1.76834e-21 0)
(0 -1.76843e-21 0)
(0 8.74942e-29 0)
(-1.45436e-32 -1.76841e-21 0)
(-1.45436e-32 -1.76841e-21 0)
(-1.45436e-32 -1.76839e-21 0)
(0 -1.76839e-21 0)
(-2.90873e-32 -1.76837e-21 0)
(0 -3.53673e-21 0)
(-2.90873e-32 -1.76836e-21 0)
(0 -1.76834e-21 0)
(-1.45437e-32 -3.53666e-21 0)
(0 -3.53663e-21 0)
(0 -3.53659e-21 0)
(0 -3.53656e-21 0)
(0 -3.53652e-21 0)
(-1.45438e-32 -3.53649e-21 0)
(0 -5.30465e-21 0)
(0 -5.3046e-21 0)
(0 -5.30449e-21 0)
(-1.4544e-32 -7.07256e-21 0)
(0 -7.07242e-21 0)
(0 -7.07228e-21 0)
(0 -7.07214e-21 0)
(-2.90883e-32 -7.072e-21 0)
(0 -8.83977e-21 0)
(0 -1.06075e-20 0)
(0 -1.06072e-20 0)
(0 -1.06068e-20 0)
(0 -1.23742e-20 0)
(0 -1.23739e-20 0)
(0 -1.41409e-20 0)
(0 -1.5908e-20 0)
(0 -1.59072e-20 0)
(1.4545e-32 -1.76739e-20 0)
(0 -1.94402e-20 0)
(0 -2.29734e-20 0)
(0 -2.29721e-20 0)
(0 -2.47373e-20 0)
(0 -2.82692e-20 0)
(0 -2.8267e-20 0)
(1.45461e-32 -3.17975e-20 0)
(0 -3.53275e-20 0)
(0 -3.709e-20 0)
(0 -4.06179e-20 0)
(0 -4.23791e-20 0)
(0 -4.59048e-20 0)
(0 -5.29597e-20 0)
(0 -5.64821e-20 0)
(1.45485e-32 -6.0002e-20 0)
(0 -6.52851e-20 0)
(0 -7.05648e-20 0)
(0 -7.58418e-20 0)
(0 -8.28779e-20 0)
(0 -8.99102e-20 0)
(0 -9.69359e-20 0)
(0 -1.05719e-19 0)
(0 -1.12732e-19 0)
(0 -1.23259e-19 0)
(0 -1.33777e-19 0)
(0 -1.44281e-19 0)
(0 -1.56532e-19 0)
(0 -1.68766e-19 0)
(0 -1.82738e-19 0)
(0 -1.84325e-19 0)
(0 5.24144e-19 0)
(0 7.10835e-18 0)
(0 2.25627e-17 0)
(0 2.36469e-17 0)
(0 -1.62094e-18 0)
(0 -1.97668e-17 0)
(0 -1.62461e-17 0)
(0 -8.15687e-18 0)
(0 -3.52891e-18 0)
(0 -1.47288e-18 0)
(0 -5.19338e-19 0)
(0 6.98875e-21 0)
(0 3.31482e-19 0)
(0 4.87062e-19 0)
(0 4.56286e-19 0)
(0 2.61917e-19 0)
(0 -7.37942e-21 0)
(0 -2.43746e-19 0)
(0 -3.81472e-19 0)
(0 -4.17567e-19 0)
(0 -3.86459e-19 0)
(0 -3.27517e-19 0)
(0 -2.69178e-19 0)
(0 -2.26187e-19 0)
(0 -2.02145e-19 0)
(0 -1.92776e-19 0)
(0 -1.90313e-19 0)
(0 -1.87519e-19 0)
(0 -1.79784e-19 0)
(0 -1.65553e-19 0)
(0 -1.45816e-19 0)
(0 -1.22719e-19 0)
(0 -1.01243e-19 0)
(0 -1.77653e-16 0)
(0 -1.77629e-16 0)
(0 0 0)
(0 0 0)
(0 0 0)
(0 0 0)
(0 0 0)
(0 0 0)
(0 0 0)
(0 0 0)
(0 0 0)
(0 0 0)
(0 0 0)
(0 0 0)
(0 0 0)
(0 1.77408e-16 0)
(0 1.77263e-16 0)
(0 -3.76026e-19 0)
(0 -4.24775e-19 0)
(0 -4.71709e-19 0)
(0 -5.16751e-19 0)
(0 -5.59387e-19 0)
(0 -5.98233e-19 0)
(0 -6.31011e-19 0)
(0 -6.55297e-19 0)
(0 -6.70304e-19 0)
(0 -6.79424e-19 0)
(0 -6.92337e-19 0)
(0 -7.242e-19 0)
(0 -7.88735e-19 0)
(0 -8.84704e-19 0)
(0 -9.84759e-19 0)
(0 -1.04532e-18 0)
(0 -1.04398e-18 0)
(0 -1.01275e-18 0)
(0 -1.01904e-18 0)
(0 -1.09681e-18 0)
(0 -1.21637e-18 0)
(0 -1.37451e-18 0)
(0 -1.67514e-18 0)
(0 -2.29602e-18 0)
(0 6.11136e-16 0)
(0 3.44987e-14 0)
(0 1.73843e-12 0)
(0 9.57218e-11 0)
(0 5.87647e-09 0)
(0 1.65739e-06 0)
(0 0.00119153 0)
(0 0.109093 0)
(0 2.05938 0)
(0 0.923873 0)
(0 -4.24549 0)
(0 -4.56244 0)
(0 -5.55311 0)
(0 -5.72667 0)
(0 -6.00406 0)
(0 -6.12099 0)
(0 -6.31682 0)
(0 -6.6733 0)
(0 -7.09867 0)
(0 -7.73233 0)
(0 -8.76618 0)
(0 -10.1205 0)
(0 -10.6076 0)
(0 -8.60008 0)
(0 -5.46191 0)
(0 -3.75133 0)
(0 -2.85662 0)
(0 -2.34996 0)
(0 -2.09557 0)
(0 -1.78385 0)
(0 -1.64754 0)
(0 -1.46001 0)
(0 -1.38926 0)
(0 -1.18091 0)
(0 -1.15769 0)
(0 -1.05169 0)
(0 -0.984382 0)
(0 -0.841154 0)
(0 -0.910451 0)
(0 -0.723982 0)
(0 -0.742339 0)
(0 -0.667738 0)
(0 -0.610292 0)
(0 -0.583248 0)
(0 -0.525995 0)
(0 -0.522718 0)
(0 -0.446584 0)
(0 -0.413636 0)
(0 -0.3859 0)
(0 -0.417089 0)
(0 -0.300824 0)
(0 -0.30857 0)
(0 -0.27531 0)
(0 -0.270939 0)
(0 -0.269742 0)
(0 -0.215375 0)
(0 -0.185753 0)
(0 -0.164504 0)
(0 -0.177613 0)
(0 -0.184946 0)
(0 -0.16796 0)
(0 -0.116157 0)
(-5.09169e-17 -0.0938875 0)
(0 -0.0907127 0)
(0 -0.124664 0)
(4.96654e-17 -0.111 0)
(0 -0.0732987 0)
(-2.42711e-17 -0.0510492 0)
(0 -0.0608474 0)
(4.73542e-17 -0.0744913 0)
(0 -0.0535953 0)
(0 -0.0328931 0)
(0 -0.0406902 0)
(1.12131e-17 -0.0467763 0)
(0 -0.0306211 0)
(0 -0.0186547 0)
(0 -0.0237538 0)
(0 -0.0281818 0)
(0 -0.0199747 0)
(-5.09025e-18 -0.0117938 0)
(0 -0.0133919 0)
(-4.91425e-18 -0.0141451 0)
(0 -0.00935012 0)
(-2.36904e-18 -0.00799504 0)
(0 -0.00878432 0)
(0 -0.00598085 0)
(0 -0.00427757 0)
(0 -0.0050921 0)
(0 -0.00409079 0)
(0 -0.00245272 0)
(0 -0.00261106 0)
(0 -0.00241309 0)
(0 -0.0015396 0)
(0 -0.0013587 0)
(0 -0.00113234 0)
(0 -0.000851066 0)
(0 -0.00067549 0)
(0 -0.000397972 0)
(0 -0.000300364 0)
(0 -0.000253523 0)
(0 -0.000273163 0)
(0 -0.000423541 0)
(0 -0.000276144 0)
(0 0 0)
(0 0 0)
(0 0 0)
(0 0 0)
(0 0 0)
(0 0 0)
(0 0 0)
(0 0 0)
(0 0 0)
(0 0 0)
(0 0 0)
(0 0 0)
(0 0 0)
(0 0 0)
(0 0 0)
(0 0 0)
(0 0 0)
(0 0 0)
(0 0 0)
(0 0 0)
(0 0 0)
(0 0 0)
(0 0 0)
(0 0 0)
(0 0 0)
(0 0 0)
(0 0 0)
(0 0 0)
(0 0 0)
(0 0 0)
(0 0 0)
(0 0 0)
(0 0 0)
(0 0 0)
(0 0 0)
(0 0 0)
(0 0 0)
(0 0 0)
(0 0 0)
(0 0 0)
(0 0 0)
(0 0 0)
(0 0 0)
(0 0 0)
(0 0 0)
(0 0 0)
(0 0 0)
(0 0 0)
(0 0 0)
(0 0 0)
(0 0 0)
(0 0 0)
(0 0 0)
(0 0 0)
(0 0 0)
(0 0 0)
(0 0 0)
(0 0 0)
(0 0 0)
(0 0 0)
(0 0 0)
(0 0 0)
(0 0 0)
(0 0 0)
(0 0 0)
(0 0 0)
(0 0 0)
(0 0 0)
(0 0 0)
(0 0 0)
(0 0 0)
(0 0 0)
(0 0 0)
(0 0 0)
(0 0 0)
(0 0 0)
(0 0 0)
(0 0 0)
(0 0 0)
(0 0 0)
(0 0 0)
(0 0 0)
(0 0 0)
(0 0 0)
(0 0 0)
(0 0 0)
(0 0 0)
(0 0 0)
(0 0 0)
(0 0 0)
(0 0 0)
(0 0 0)
(0 0 0)
(0 0 0)
(0 0 0)
(0 0 0)
(0 0 0)
(0 0 0)
(0 0 0)
(0 0 0)
(0 0 0)
(0 0 0)
(0 0 0)
(0 0 0)
(0 0 0)
(0 0 0)
(0 0 0)
(0 0 0)
(0 0 0)
(0 0 0)
(0 0 0)
(0 0 0)
(0 0 0)
(0 0 0)
(0 0 0)
(0 0 0)
(0 0 0)
)
;

boundaryField
{
    inandouthalf11
    {
        type            cyclic;
    }
    inandouthalf12
    {
        type            cyclic;
    }
    inandouthalf21
    {
        type            cyclic;
    }
    inandouthalf22
    {
        type            cyclic;
    }
    inandouthalf31
    {
        type            cyclic;
    }
    inandouthalf32
    {
        type            cyclic;
    }
    inandouthalf41
    {
        type            cyclic;
    }
    inandouthalf42
    {
        type            cyclic;
    }
    top
    {
        type            symmetryPlane;
    }
    walls
    {
        type            calculated;
        value           uniform (0 0 0);
    }
    frontAndBackPlanes
    {
        type            empty;
    }
}


// ************************************************************************* //
