/*--------------------------------*- C++ -*----------------------------------*\
| =========                 |                                                 |
| \\      /  F ield         | OpenFOAM: The Open Source CFD Toolbox           |
|  \\    /   O peration     | Version:  2.4.x                                 |
|   \\  /    A nd           | Web:      www.OpenFOAM.org                      |
|    \\/     M anipulation  |                                                 |
\*---------------------------------------------------------------------------*/
FoamFile
{
    version     2.0;
    format      ascii;
    class       surfaceScalarField;
    location    "2.1";
    object      phia_0;
}
// * * * * * * * * * * * * * * * * * * * * * * * * * * * * * * * * * * * * * //

dimensions      [0 3 -1 0 0 0 0];

internalField   nonuniform List<scalar> 
359
(
-4.52457e-41
-4.52442e-41
-4.52546e-41
-4.5273e-41
-4.53007e-41
-4.5339e-41
-4.53888e-41
-4.54513e-41
-4.55273e-41
-4.56177e-41
-4.57231e-41
-4.58437e-41
-4.59799e-41
-4.61317e-41
-4.62991e-41
-4.64819e-41
-4.66795e-41
-4.68919e-41
-4.71185e-41
-4.73594e-41
-4.76141e-41
-4.78828e-41
-4.81654e-41
-4.84619e-41
-4.87723e-41
-4.90968e-41
-4.94359e-41
-4.97907e-41
-5.01621e-41
-5.0551e-41
-5.09584e-41
-5.13863e-41
-5.18356e-41
-5.23096e-41
-5.28101e-41
-5.33406e-41
-5.39046e-41
-5.45072e-41
-5.51541e-41
-5.58507e-41
-5.6606e-41
-5.74295e-41
-5.83339e-41
-5.93382e-41
-6.04659e-41
-6.17513e-41
-6.3246e-41
-6.50272e-41
-6.72283e-41
-7.00716e-41
-7.39609e-41
-7.96611e-41
-8.88245e-41
-1.05177e-40
-1.38888e-40
-2.19202e-40
-4.51951e-40
-1.28657e-39
-5.50379e-39
-3.26894e-38
-2.88468e-37
-4.71058e-36
-1.85591e-32
-3.44918e-28
-9.59621e-23
-7.69023e-16
-1.22254e-13
-1.02838e-12
-3.87789e-12
-8.87186e-12
-1.45463e-11
-1.93519e-11
-2.28514e-11
-2.53444e-11
-2.7232e-11
-2.88097e-11
-3.02654e-11
-3.17207e-11
-3.32518e-11
-3.48973e-11
-3.66589e-11
-3.85096e-11
-4.04067e-11
-4.23088e-11
-4.41877e-11
-4.60316e-11
-4.78422e-11
-4.96282e-11
-5.14001e-11
-5.3167e-11
-5.49348e-11
-5.67062e-11
-5.84825e-11
-6.02644e-11
-6.20533e-11
-6.38516e-11
-6.56628e-11
-6.74908e-11
-6.93401e-11
-7.12147e-11
-7.31187e-11
-7.50556e-11
-7.70284e-11
-7.90397e-11
-8.10914e-11
-8.31847e-11
-8.53196e-11
-8.74952e-11
-8.97097e-11
-9.196e-11
-9.42425e-11
-9.65527e-11
-9.88857e-11
-1.01236e-10
-1.03599e-10
-1.05969e-10
-1.08341e-10
-1.10711e-10
-1.13073e-10
-1.15424e-10
-1.1776e-10
-1.20076e-10
-1.22371e-10
-1.2464e-10
-1.26884e-10
-1.29103e-10
-1.31297e-10
-1.33467e-10
-1.35608e-10
-1.37711e-10
-1.39763e-10
-1.41751e-10
-1.43672e-10
-1.45534e-10
-1.47344e-10
-1.49101e-10
-1.50786e-10
-1.52378e-10
-1.5385e-10
-1.55138e-10
-1.56132e-10
-1.56762e-10
-1.57135e-10
-1.57361e-10
-1.57497e-10
-1.57569e-10
-1.57601e-10
-1.57607e-10
-1.57612e-10
1.83906e-09
7.3576e-09
3.76465e-09
-1.40601e-09
-3.96939e-09
-3.19363e-09
9.18361e-10
5.82097e-09
1.06389e-08
1.49888e-08
1.83506e-08
2.02092e-08
2.01666e-08
1.88122e-08
1.70704e-08
1.53662e-08
1.37805e-08
1.23214e-08
1.10155e-08
9.81007e-09
8.72459e-09
7.71408e-09
6.79667e-09
5.933e-09
5.14204e-09
4.39476e-09
3.70344e-09
3.04403e-09
2.43175e-09
1.84662e-09
1.29243e-09
7.67786e-10
2.62324e-10
-2.15754e-10
-6.79592e-10
-1.11993e-09
-1.54992e-09
-1.96127e-09
-2.3626e-09
-2.74638e-09
-3.12485e-09
-3.49289e-09
-3.84887e-09
-4.19833e-09
-4.53635e-09
-4.87338e-09
-5.20267e-09
-5.52707e-09
-5.83974e-09
-6.14755e-09
-6.45098e-09
-6.75874e-09
-7.06779e-09
-7.37614e-09
-7.67792e-09
-7.98401e-09
-8.30422e-09
-8.6323e-09
-8.95799e-09
-9.27883e-09
-9.61059e-09
-9.95749e-09
-1.03042e-08
-1.06482e-08
-1.10093e-08
-1.13883e-08
-1.17651e-08
-1.21381e-08
-1.25304e-08
-1.295e-08
-1.33751e-08
-1.38008e-08
-1.42489e-08
-1.47177e-08
-1.51925e-08
-1.56921e-08
-1.62214e-08
-1.67569e-08
-1.73113e-08
-1.79083e-08
-1.85228e-08
-1.91499e-08
-1.9819e-08
-2.05189e-08
-2.12367e-08
-2.19834e-08
-2.27475e-08
-2.35258e-08
-2.42838e-08
-2.49828e-08
-2.55941e-08
-2.60864e-08
-2.65659e-08
-9.18328e-08
-1.58084e-07
-1.58084e-07
-1.58084e-07
-1.58084e-07
-1.58084e-07
-1.58084e-07
-1.58084e-07
-1.58084e-07
-1.58084e-07
-1.58084e-07
-1.58084e-07
-1.58084e-07
-1.58084e-07
-1.58084e-07
-1.58084e-07
-1.58084e-07
-1.58084e-07
-1.58084e-07
-1.58084e-07
-1.58084e-07
-1.58084e-07
-1.58084e-07
-1.58084e-07
-1.58084e-07
-1.58084e-07
-1.58084e-07
-1.58084e-07
-1.58084e-07
-1.58084e-07
-1.58084e-07
-1.58084e-07
-1.58084e-07
-1.58084e-07
-1.58084e-07
-1.58084e-07
-1.58084e-07
-1.58084e-07
-1.58084e-07
-1.58084e-07
-1.58084e-07
-1.58084e-07
-1.58084e-07
-1.58084e-07
-1.58084e-07
-1.58084e-07
-1.58084e-07
-1.58084e-07
-1.58084e-07
-1.58084e-07
-1.58084e-07
-1.58084e-07
-1.58084e-07
-1.58084e-07
-1.58084e-07
-1.58084e-07
-1.58084e-07
-1.58084e-07
-1.58084e-07
-1.58084e-07
-1.58084e-07
-1.58084e-07
-1.58084e-07
-1.58084e-07
-1.58084e-07
-1.58084e-07
-1.58084e-07
-1.58084e-07
-1.58084e-07
-1.58084e-07
-1.58084e-07
-1.58084e-07
-1.58084e-07
-1.58084e-07
-1.58084e-07
-1.58084e-07
-1.58084e-07
-1.58084e-07
-1.58084e-07
-1.58084e-07
-1.58084e-07
-1.58084e-07
-1.58084e-07
-1.58084e-07
-1.58084e-07
-1.58084e-07
-1.58084e-07
-1.58084e-07
-1.58084e-07
-1.58084e-07
-1.58084e-07
-1.58084e-07
-1.58084e-07
-1.58084e-07
-1.58084e-07
-1.58084e-07
-1.58084e-07
-1.58084e-07
-1.58084e-07
-1.58084e-07
-1.58084e-07
-1.58084e-07
-1.58084e-07
-1.58084e-07
-1.58084e-07
-1.58084e-07
-1.58084e-07
-1.58084e-07
-1.58084e-07
-1.58084e-07
-1.58084e-07
-1.58084e-07
-1.58084e-07
-1.58084e-07
-1.58067e-07
-1.57359e-07
-1.32426e-07
)
;

boundaryField
{
    inandouthalf11
    {
        type            cyclic;
        value           nonuniform List<scalar> 
100
(
-1.13648e-42
-1.13646e-42
-1.13633e-42
-1.13601e-42
-1.1355e-42
-1.13475e-42
-1.13374e-42
-1.13246e-42
-1.13087e-42
-1.12895e-42
-1.1267e-42
-1.1241e-42
-1.12115e-42
-1.11783e-42
-1.11415e-42
-1.11012e-42
-1.10573e-42
-1.101e-42
-1.09593e-42
-1.09053e-42
-1.08479e-42
-1.07873e-42
-1.07233e-42
-1.06559e-42
-1.05852e-42
-1.05109e-42
-1.04332e-42
-1.03515e-42
-1.02659e-42
-1.01758e-42
-1.00812e-42
-9.98149e-43
-9.87636e-43
-9.76522e-43
-9.6474e-43
-9.52218e-43
-9.38865e-43
-9.24567e-43
-9.09187e-43
-8.92576e-43
-8.74551e-43
-8.54877e-43
-8.33267e-43
-8.09324e-43
-7.82525e-43
-7.52136e-43
-7.1714e-43
-6.7594e-43
-6.26103e-43
-5.63344e-43
-4.8073e-43
-3.64726e-43
-1.90358e-43
9.9786e-44
6.34172e-43
1.78279e-42
4.60434e-42
1.31273e-41
4.47891e-41
2.11059e-40
1.29712e-39
1.1715e-38
1.95632e-37
7.81401e-34
1.40616e-29
3.7739e-24
2.91078e-17
4.42324e-15
3.19289e-14
1.01869e-13
1.99886e-13
2.91406e-13
3.59222e-13
4.05769e-13
4.38719e-13
4.64121e-13
4.85756e-13
5.05888e-13
5.25852e-13
5.4632e-13
5.67409e-13
5.88798e-13
6.09923e-13
6.30211e-13
6.49259e-13
6.66882e-13
6.83074e-13
6.97923e-13
7.11534e-13
7.23992e-13
7.3534e-13
7.45587e-13
7.54715e-13
7.627e-13
7.69509e-13
7.75108e-13
7.79459e-13
7.82512e-13
7.84203e-13
7.84453e-13
)
;
    }
    inandouthalf12
    {
        type            cyclic;
        value           nonuniform List<scalar> 
100
(
1.13648e-42
1.13646e-42
1.13633e-42
1.13601e-42
1.1355e-42
1.13475e-42
1.13374e-42
1.13246e-42
1.13087e-42
1.12895e-42
1.1267e-42
1.1241e-42
1.12115e-42
1.11783e-42
1.11415e-42
1.11012e-42
1.10573e-42
1.101e-42
1.09593e-42
1.09053e-42
1.08479e-42
1.07873e-42
1.07233e-42
1.06559e-42
1.05852e-42
1.05109e-42
1.04332e-42
1.03515e-42
1.02659e-42
1.01758e-42
1.00812e-42
9.98149e-43
9.87636e-43
9.76522e-43
9.6474e-43
9.52218e-43
9.38865e-43
9.24567e-43
9.09187e-43
8.92576e-43
8.74551e-43
8.54877e-43
8.33267e-43
8.09324e-43
7.82525e-43
7.52136e-43
7.1714e-43
6.7594e-43
6.26103e-43
5.63344e-43
4.8073e-43
3.64726e-43
1.90358e-43
-9.9786e-44
-6.34172e-43
-1.78279e-42
-4.60434e-42
-1.31273e-41
-4.47891e-41
-2.11059e-40
-1.29712e-39
-1.1715e-38
-1.95632e-37
-7.81401e-34
-1.40616e-29
-3.7739e-24
-2.91078e-17
-4.42324e-15
-3.19289e-14
-1.01869e-13
-1.99886e-13
-2.91406e-13
-3.59222e-13
-4.05769e-13
-4.38719e-13
-4.64121e-13
-4.85756e-13
-5.05888e-13
-5.25852e-13
-5.4632e-13
-5.67409e-13
-5.88798e-13
-6.09923e-13
-6.30211e-13
-6.49259e-13
-6.66882e-13
-6.83074e-13
-6.97923e-13
-7.11534e-13
-7.23992e-13
-7.3534e-13
-7.45587e-13
-7.54715e-13
-7.627e-13
-7.69509e-13
-7.75108e-13
-7.79459e-13
-7.82512e-13
-7.84203e-13
-7.84453e-13
)
;
    }
    inandouthalf21
    {
        type            cyclic;
        value           nonuniform List<scalar> 
100
(
7.83161e-13
7.80212e-13
7.75469e-13
7.68779e-13
7.59971e-13
7.4886e-13
7.35247e-13
7.18926e-13
6.99688e-13
6.77324e-13
6.51629e-13
6.22406e-13
5.8947e-13
5.52645e-13
5.11767e-13
4.66683e-13
4.17243e-13
3.63307e-13
3.04735e-13
2.41388e-13
1.7313e-13
9.98217e-14
2.13105e-14
-6.2582e-14
-1.52086e-13
-2.47511e-13
-3.49247e-13
-4.57732e-13
-5.73344e-13
-6.96235e-13
-8.26226e-13
-9.62925e-13
-1.10617e-12
-1.25653e-12
-1.41531e-12
-1.58365e-12
-1.76147e-12
-1.94765e-12
-2.14032e-12
-2.33337e-12
-2.50962e-12
-2.647e-12
-2.74195e-12
-2.80659e-12
-2.85102e-12
-2.87962e-12
-2.89542e-12
-2.90448e-12
-2.91522e-12
-3.01222e-12
-8.09449e-08
-2.28658e-07
-3.48556e-07
-4.55897e-07
-5.57165e-07
-6.53376e-07
-7.40618e-07
-8.15439e-07
-8.76575e-07
-9.23375e-07
-9.56353e-07
-9.78155e-07
-9.92893e-07
-1.00397e-06
-1.01312e-06
-1.02105e-06
-1.02808e-06
-1.03441e-06
-1.04015e-06
-1.04541e-06
-1.05027e-06
-1.05476e-06
-1.05896e-06
-1.06289e-06
-1.06657e-06
-1.07005e-06
-1.07334e-06
-1.07646e-06
-1.07943e-06
-1.08227e-06
-1.08497e-06
-1.08757e-06
-1.09006e-06
-1.09246e-06
-1.09477e-06
-1.09701e-06
-1.09917e-06
-1.10126e-06
-1.10329e-06
-1.10525e-06
-1.10718e-06
-1.10904e-06
-1.11085e-06
-1.11261e-06
-1.11433e-06
-1.11602e-06
-1.11767e-06
-1.11926e-06
-1.1208e-06
-1.1223e-06
)
;
    }
    inandouthalf22
    {
        type            cyclic;
        value           nonuniform List<scalar> 
100
(
-7.83161e-13
-7.80212e-13
-7.75469e-13
-7.68779e-13
-7.59971e-13
-7.4886e-13
-7.35247e-13
-7.18926e-13
-6.99688e-13
-6.77324e-13
-6.51629e-13
-6.22406e-13
-5.8947e-13
-5.52645e-13
-5.11767e-13
-4.66683e-13
-4.17243e-13
-3.63307e-13
-3.04735e-13
-2.41388e-13
-1.7313e-13
-9.98217e-14
-2.13105e-14
6.2582e-14
1.52086e-13
2.47511e-13
3.49247e-13
4.57732e-13
5.73344e-13
6.96235e-13
8.26226e-13
9.62925e-13
1.10617e-12
1.25653e-12
1.41531e-12
1.58365e-12
1.76147e-12
1.94765e-12
2.14032e-12
2.33337e-12
2.50962e-12
2.647e-12
2.74195e-12
2.80659e-12
2.85102e-12
2.87962e-12
2.89542e-12
2.90448e-12
2.91522e-12
3.01222e-12
8.09449e-08
2.28658e-07
3.48556e-07
4.55897e-07
5.57165e-07
6.53376e-07
7.40618e-07
8.15439e-07
8.76575e-07
9.23375e-07
9.56353e-07
9.78155e-07
9.92893e-07
1.00397e-06
1.01312e-06
1.02105e-06
1.02808e-06
1.03441e-06
1.04015e-06
1.04541e-06
1.05027e-06
1.05476e-06
1.05896e-06
1.06289e-06
1.06657e-06
1.07005e-06
1.07334e-06
1.07646e-06
1.07943e-06
1.08227e-06
1.08497e-06
1.08757e-06
1.09006e-06
1.09246e-06
1.09477e-06
1.09701e-06
1.09917e-06
1.10126e-06
1.10329e-06
1.10525e-06
1.10718e-06
1.10904e-06
1.11085e-06
1.11261e-06
1.11433e-06
1.11602e-06
1.11767e-06
1.11926e-06
1.1208e-06
1.1223e-06
)
;
    }
    inandouthalf31
    {
        type            cyclic;
        value           nonuniform List<scalar> 
110
(
-1.12378e-06
-1.1481e-06
-1.17292e-06
-1.19824e-06
-1.22406e-06
-1.25047e-06
-1.27748e-06
-1.30506e-06
-1.33318e-06
-1.36188e-06
-1.39126e-06
-1.42127e-06
-1.45187e-06
-1.48313e-06
-1.51514e-06
-1.54783e-06
-1.58116e-06
-1.61519e-06
-1.65006e-06
-1.68571e-06
-1.72208e-06
-1.75923e-06
-1.79727e-06
-1.83613e-06
-1.87582e-06
-1.91647e-06
-1.95803e-06
-2.00043e-06
-2.04386e-06
-2.08833e-06
-2.1337e-06
-2.18012e-06
-2.22767e-06
-2.27623e-06
-2.32589e-06
-2.37663e-06
-2.42846e-06
-2.48133e-06
-2.53505e-06
-2.5895e-06
-2.64455e-06
-2.70013e-06
-2.75707e-06
-3.06902e-06
-3.13132e-06
-3.19489e-06
-3.25974e-06
-3.32591e-06
-3.39342e-06
-3.4623e-06
-3.53258e-06
-3.60428e-06
-3.67744e-06
-3.75208e-06
-3.82824e-06
-3.90595e-06
-3.98523e-06
-4.06612e-06
-4.14865e-06
-4.23286e-06
-4.31877e-06
-4.40643e-06
-4.49587e-06
-4.58713e-06
-4.68023e-06
-4.77523e-06
-4.87215e-06
-4.97105e-06
-5.07194e-06
-5.17489e-06
-5.27993e-06
-5.3871e-06
-5.49644e-06
-5.608e-06
-5.72183e-06
-5.83797e-06
-5.95646e-06
-6.07736e-06
-6.20072e-06
-6.32658e-06
-6.45499e-06
-6.58601e-06
-6.71969e-06
-6.85608e-06
-6.99524e-06
-7.13722e-06
-7.28209e-06
-7.4299e-06
-7.5807e-06
-7.73457e-06
-7.89156e-06
-8.05174e-06
-8.21517e-06
-8.38192e-06
-8.55205e-06
-8.72563e-06
-8.90274e-06
-9.08344e-06
-9.26781e-06
-9.45592e-06
-9.64785e-06
-9.84368e-06
-1.00435e-05
-1.02473e-05
-1.04553e-05
-1.06675e-05
-1.08841e-05
-1.1105e-05
-1.13304e-05
-1.15604e-05
)
;
    }
    inandouthalf32
    {
        type            cyclic;
        value           nonuniform List<scalar> 
110
(
1.12378e-06
1.1481e-06
1.17292e-06
1.19824e-06
1.22406e-06
1.25047e-06
1.27748e-06
1.30506e-06
1.33318e-06
1.36188e-06
1.39126e-06
1.42127e-06
1.45187e-06
1.48313e-06
1.51514e-06
1.54783e-06
1.58116e-06
1.61519e-06
1.65006e-06
1.68571e-06
1.72208e-06
1.75923e-06
1.79727e-06
1.83613e-06
1.87582e-06
1.91647e-06
1.95803e-06
2.00043e-06
2.04386e-06
2.08833e-06
2.1337e-06
2.18012e-06
2.22767e-06
2.27623e-06
2.32589e-06
2.37663e-06
2.42846e-06
2.48133e-06
2.53505e-06
2.5895e-06
2.64455e-06
2.70013e-06
2.75707e-06
3.06902e-06
3.13132e-06
3.19489e-06
3.25974e-06
3.32591e-06
3.39342e-06
3.4623e-06
3.53258e-06
3.60428e-06
3.67744e-06
3.75208e-06
3.82824e-06
3.90595e-06
3.98523e-06
4.06612e-06
4.14865e-06
4.23286e-06
4.31877e-06
4.40643e-06
4.49587e-06
4.58713e-06
4.68023e-06
4.77523e-06
4.87215e-06
4.97105e-06
5.07194e-06
5.17489e-06
5.27993e-06
5.3871e-06
5.49644e-06
5.608e-06
5.72183e-06
5.83797e-06
5.95646e-06
6.07736e-06
6.20072e-06
6.32658e-06
6.45499e-06
6.58601e-06
6.71969e-06
6.85608e-06
6.99524e-06
7.13722e-06
7.28209e-06
7.4299e-06
7.5807e-06
7.73457e-06
7.89156e-06
8.05174e-06
8.21517e-06
8.38192e-06
8.55205e-06
8.72563e-06
8.90274e-06
9.08344e-06
9.26781e-06
9.45592e-06
9.64785e-06
9.84368e-06
1.00435e-05
1.02473e-05
1.04553e-05
1.06675e-05
1.08841e-05
1.1105e-05
1.13304e-05
1.15604e-05
)
;
    }
    inandouthalf41
    {
        type            cyclic;
        value           nonuniform List<scalar> 
50
(
-1.03477e-05
-1.03477e-05
-1.03477e-05
-1.03477e-05
-1.03477e-05
-1.03477e-05
-1.03477e-05
-1.03477e-05
-1.03477e-05
-1.03477e-05
-1.03477e-05
-1.03477e-05
-1.03477e-05
-1.03477e-05
-1.03477e-05
-1.03477e-05
-1.03477e-05
-1.03477e-05
-1.03477e-05
-1.03477e-05
-1.03477e-05
-1.03477e-05
-1.03477e-05
-1.03477e-05
-1.03477e-05
-1.03477e-05
-1.03477e-05
-1.03477e-05
-1.03477e-05
-1.03477e-05
-1.03477e-05
-1.03477e-05
-1.03477e-05
-1.03477e-05
-1.03477e-05
-1.03477e-05
-1.03477e-05
-1.03477e-05
-1.03477e-05
-1.03477e-05
-1.03477e-05
-1.03477e-05
-1.03477e-05
-1.03477e-05
-1.03477e-05
-1.03477e-05
-1.03477e-05
-1.03477e-05
-1.03479e-05
-1.03519e-05
)
;
    }
    inandouthalf42
    {
        type            cyclic;
        value           nonuniform List<scalar> 
50
(
1.03477e-05
1.03477e-05
1.03477e-05
1.03477e-05
1.03477e-05
1.03477e-05
1.03477e-05
1.03477e-05
1.03477e-05
1.03477e-05
1.03477e-05
1.03477e-05
1.03477e-05
1.03477e-05
1.03477e-05
1.03477e-05
1.03477e-05
1.03477e-05
1.03477e-05
1.03477e-05
1.03477e-05
1.03477e-05
1.03477e-05
1.03477e-05
1.03477e-05
1.03477e-05
1.03477e-05
1.03477e-05
1.03477e-05
1.03477e-05
1.03477e-05
1.03477e-05
1.03477e-05
1.03477e-05
1.03477e-05
1.03477e-05
1.03477e-05
1.03477e-05
1.03477e-05
1.03477e-05
1.03477e-05
1.03477e-05
1.03477e-05
1.03477e-05
1.03477e-05
1.03477e-05
1.03477e-05
1.03477e-05
1.03479e-05
1.03519e-05
)
;
    }
    top
    {
        type            symmetryPlane;
        value           uniform 0;
    }
    walls
    {
        type            fixedValue;
        value           uniform 0;
    }
    frontAndBackPlanes
    {
        type            empty;
        value           nonuniform 0();
    }
}


// ************************************************************************* //
