/*--------------------------------*- C++ -*----------------------------------*\
| =========                 |                                                 |
| \\      /  F ield         | OpenFOAM: The Open Source CFD Toolbox           |
|  \\    /   O peration     | Version:  2.4.x                                 |
|   \\  /    A nd           | Web:      www.OpenFOAM.org                      |
|    \\/     M anipulation  |                                                 |
\*---------------------------------------------------------------------------*/
FoamFile
{
    version     2.0;
    format      ascii;
    class       surfaceScalarField;
    location    "2.1";
    object      phia;
}
// * * * * * * * * * * * * * * * * * * * * * * * * * * * * * * * * * * * * * //

dimensions      [0 3 -1 0 0 0 0];

internalField   nonuniform List<scalar> 
359
(
-4.52638e-41
-4.52623e-41
-4.52726e-41
-4.52911e-41
-4.53189e-41
-4.53572e-41
-4.54072e-41
-4.54698e-41
-4.5546e-41
-4.56366e-41
-4.57422e-41
-4.58631e-41
-4.59996e-41
-4.61519e-41
-4.63197e-41
-4.65029e-41
-4.67011e-41
-4.69139e-41
-4.71411e-41
-4.73826e-41
-4.7638e-41
-4.79074e-41
-4.81907e-41
-4.84879e-41
-4.87991e-41
-4.91244e-41
-4.94644e-41
-4.98202e-41
-5.01926e-41
-5.05826e-41
-5.09912e-41
-5.14203e-41
-5.1871e-41
-5.23466e-41
-5.28487e-41
-5.3381e-41
-5.39471e-41
-5.45519e-41
-5.52013e-41
-5.59007e-41
-5.66592e-41
-5.74865e-41
-5.83952e-41
-5.94046e-41
-6.05386e-41
-6.18317e-41
-6.33364e-41
-6.51308e-41
-6.73506e-41
-7.02212e-41
-7.41532e-41
-7.99246e-41
-8.92178e-41
-1.05831e-40
-1.40138e-40
-2.22018e-40
-4.59696e-40
-1.31357e-39
-5.63487e-39
-3.35388e-38
-2.96573e-37
-4.86482e-36
-2.00295e-32
-3.75859e-28
-1.0576e-22
-8.53797e-16
-1.23409e-13
-1.03373e-12
-3.89015e-12
-8.88844e-12
-1.45618e-11
-1.9364e-11
-2.28607e-11
-2.53519e-11
-2.72385e-11
-2.88157e-11
-3.02709e-11
-3.17257e-11
-3.32563e-11
-3.49011e-11
-3.66619e-11
-3.85117e-11
-4.04079e-11
-4.23091e-11
-4.41871e-11
-4.60302e-11
-4.78401e-11
-4.96254e-11
-5.13966e-11
-5.31629e-11
-5.493e-11
-5.67008e-11
-5.84764e-11
-6.02577e-11
-6.2046e-11
-6.38438e-11
-6.56544e-11
-6.7482e-11
-6.93308e-11
-7.1205e-11
-7.31086e-11
-7.50451e-11
-7.70176e-11
-7.90285e-11
-8.10799e-11
-8.31727e-11
-8.53071e-11
-8.74822e-11
-8.96961e-11
-9.19458e-11
-9.42275e-11
-9.65369e-11
-9.8869e-11
-1.01219e-10
-1.03581e-10
-1.05949e-10
-1.0832e-10
-1.10689e-10
-1.1305e-10
-1.15399e-10
-1.17734e-10
-1.20049e-10
-1.22342e-10
-1.2461e-10
-1.26852e-10
-1.2907e-10
-1.31263e-10
-1.33431e-10
-1.35571e-10
-1.37672e-10
-1.39723e-10
-1.4171e-10
-1.4363e-10
-1.4549e-10
-1.47299e-10
-1.49055e-10
-1.50739e-10
-1.5233e-10
-1.53801e-10
-1.55088e-10
-1.56082e-10
-1.56711e-10
-1.57084e-10
-1.57311e-10
-1.57446e-10
-1.57518e-10
-1.5755e-10
-1.57556e-10
-1.57561e-10
1.8716e-09
7.48919e-09
3.94156e-09
-1.25089e-09
-3.85367e-09
-3.12308e-09
9.6324e-10
5.85536e-09
1.06665e-08
1.50131e-08
1.83749e-08
2.02365e-08
2.01979e-08
1.88456e-08
1.71037e-08
1.53988e-08
1.38123e-08
1.23524e-08
1.10458e-08
9.83983e-09
8.75388e-09
7.74292e-09
6.82508e-09
5.96091e-09
5.16942e-09
4.42157e-09
3.72969e-09
3.06971e-09
2.45691e-09
1.8713e-09
1.31667e-09
7.91648e-10
2.8582e-10
-1.92574e-10
-6.56742e-10
-1.09738e-09
-1.52768e-09
-1.93933e-09
-2.34097e-09
-2.72503e-09
-3.1038e-09
-3.47213e-09
-3.82837e-09
-4.17809e-09
-4.51633e-09
-4.8536e-09
-5.18309e-09
-5.50769e-09
-5.82052e-09
-6.12849e-09
-6.43206e-09
-6.73998e-09
-7.04914e-09
-7.35762e-09
-7.65947e-09
-7.96566e-09
-8.28597e-09
-8.61417e-09
-8.93993e-09
-9.26083e-09
-9.59267e-09
-9.93966e-09
-1.02864e-08
-1.06305e-08
-1.09915e-08
-1.13707e-08
-1.17475e-08
-1.21204e-08
-1.25127e-08
-1.29324e-08
-1.33574e-08
-1.37831e-08
-1.42311e-08
-1.46999e-08
-1.51745e-08
-1.56741e-08
-1.62034e-08
-1.67387e-08
-1.72931e-08
-1.789e-08
-1.85044e-08
-1.91314e-08
-1.98006e-08
-2.05004e-08
-2.12181e-08
-2.19647e-08
-2.27287e-08
-2.35069e-08
-2.42647e-08
-2.49633e-08
-2.55737e-08
-2.60645e-08
-2.65407e-08
-9.1819e-08
-1.58084e-07
-1.58084e-07
-1.58084e-07
-1.58084e-07
-1.58084e-07
-1.58084e-07
-1.58084e-07
-1.58084e-07
-1.58084e-07
-1.58084e-07
-1.58084e-07
-1.58084e-07
-1.58084e-07
-1.58084e-07
-1.58084e-07
-1.58084e-07
-1.58084e-07
-1.58084e-07
-1.58084e-07
-1.58084e-07
-1.58084e-07
-1.58084e-07
-1.58084e-07
-1.58084e-07
-1.58084e-07
-1.58084e-07
-1.58084e-07
-1.58084e-07
-1.58084e-07
-1.58084e-07
-1.58084e-07
-1.58084e-07
-1.58084e-07
-1.58084e-07
-1.58084e-07
-1.58084e-07
-1.58084e-07
-1.58084e-07
-1.58084e-07
-1.58084e-07
-1.58084e-07
-1.58084e-07
-1.58084e-07
-1.58084e-07
-1.58084e-07
-1.58084e-07
-1.58084e-07
-1.58084e-07
-1.58084e-07
-1.58084e-07
-1.58084e-07
-1.58084e-07
-1.58084e-07
-1.58084e-07
-1.58084e-07
-1.58084e-07
-1.58084e-07
-1.58084e-07
-1.58084e-07
-1.58084e-07
-1.58084e-07
-1.58084e-07
-1.58084e-07
-1.58084e-07
-1.58084e-07
-1.58084e-07
-1.58084e-07
-1.58084e-07
-1.58084e-07
-1.58084e-07
-1.58084e-07
-1.58084e-07
-1.58084e-07
-1.58084e-07
-1.58084e-07
-1.58084e-07
-1.58084e-07
-1.58084e-07
-1.58084e-07
-1.58084e-07
-1.58084e-07
-1.58084e-07
-1.58084e-07
-1.58084e-07
-1.58084e-07
-1.58084e-07
-1.58084e-07
-1.58084e-07
-1.58084e-07
-1.58084e-07
-1.58084e-07
-1.58084e-07
-1.58084e-07
-1.58084e-07
-1.58084e-07
-1.58084e-07
-1.58084e-07
-1.58084e-07
-1.58084e-07
-1.58084e-07
-1.58084e-07
-1.58084e-07
-1.58084e-07
-1.58084e-07
-1.58084e-07
-1.58084e-07
-1.58084e-07
-1.58084e-07
-1.58084e-07
-1.58084e-07
-1.58084e-07
-1.58084e-07
-1.58084e-07
-1.58066e-07
-1.57359e-07
-1.32426e-07
)
;

boundaryField
{
    inandouthalf11
    {
        type            cyclic;
        value           nonuniform List<scalar> 
100
(
-1.13615e-42
-1.13613e-42
-1.136e-42
-1.13568e-42
-1.13516e-42
-1.13441e-42
-1.1334e-42
-1.13211e-42
-1.13052e-42
-1.1286e-42
-1.12635e-42
-1.12374e-42
-1.12077e-42
-1.11744e-42
-1.11375e-42
-1.10971e-42
-1.10531e-42
-1.10056e-42
-1.09548e-42
-1.09006e-42
-1.0843e-42
-1.07821e-42
-1.07179e-42
-1.06503e-42
-1.05794e-42
-1.05049e-42
-1.04268e-42
-1.03449e-42
-1.0259e-42
-1.01686e-42
-1.00736e-42
-9.97354e-43
-9.868e-43
-9.75641e-43
-9.63811e-43
-9.51237e-43
-9.37825e-43
-9.23462e-43
-9.08011e-43
-8.91319e-43
-8.73203e-43
-8.53425e-43
-8.31695e-43
-8.07613e-43
-7.80648e-43
-7.50056e-43
-7.14808e-43
-6.73281e-43
-6.23005e-43
-5.59627e-43
-4.76097e-43
-3.58642e-43
-1.81819e-43
1.12893e-43
6.56635e-43
1.82734e-42
4.70809e-42
1.34236e-41
4.58603e-41
2.16453e-40
1.33264e-39
1.20597e-38
2.02302e-37
8.4433e-34
1.53417e-29
4.16441e-24
3.23586e-17
4.46841e-15
3.21264e-14
1.02302e-13
2.00511e-13
2.9214e-13
3.6002e-13
4.06618e-13
4.39612e-13
4.65054e-13
4.86727e-13
5.06895e-13
5.26897e-13
5.47406e-13
5.68539e-13
5.89974e-13
6.11147e-13
6.31485e-13
6.50584e-13
6.68259e-13
6.84504e-13
6.99405e-13
7.1307e-13
7.25581e-13
7.36983e-13
7.47285e-13
7.5647e-13
7.64512e-13
7.71379e-13
7.77037e-13
7.81449e-13
7.84564e-13
7.86318e-13
7.86632e-13
)
;
    }
    inandouthalf12
    {
        type            cyclic;
        value           nonuniform List<scalar> 
100
(
1.13615e-42
1.13613e-42
1.136e-42
1.13568e-42
1.13516e-42
1.13441e-42
1.1334e-42
1.13211e-42
1.13052e-42
1.1286e-42
1.12635e-42
1.12374e-42
1.12077e-42
1.11744e-42
1.11375e-42
1.10971e-42
1.10531e-42
1.10056e-42
1.09548e-42
1.09006e-42
1.0843e-42
1.07821e-42
1.07179e-42
1.06503e-42
1.05794e-42
1.05049e-42
1.04268e-42
1.03449e-42
1.0259e-42
1.01686e-42
1.00736e-42
9.97354e-43
9.868e-43
9.75641e-43
9.63811e-43
9.51237e-43
9.37825e-43
9.23462e-43
9.08011e-43
8.91319e-43
8.73203e-43
8.53425e-43
8.31695e-43
8.07613e-43
7.80648e-43
7.50056e-43
7.14808e-43
6.73281e-43
6.23005e-43
5.59627e-43
4.76097e-43
3.58642e-43
1.81819e-43
-1.12893e-43
-6.56635e-43
-1.82734e-42
-4.70809e-42
-1.34236e-41
-4.58603e-41
-2.16453e-40
-1.33264e-39
-1.20597e-38
-2.02302e-37
-8.4433e-34
-1.53417e-29
-4.16441e-24
-3.23586e-17
-4.46841e-15
-3.21264e-14
-1.02302e-13
-2.00511e-13
-2.9214e-13
-3.6002e-13
-4.06618e-13
-4.39612e-13
-4.65054e-13
-4.86727e-13
-5.06895e-13
-5.26897e-13
-5.47406e-13
-5.68539e-13
-5.89974e-13
-6.11147e-13
-6.31485e-13
-6.50584e-13
-6.68259e-13
-6.84504e-13
-6.99405e-13
-7.1307e-13
-7.25581e-13
-7.36983e-13
-7.47285e-13
-7.5647e-13
-7.64512e-13
-7.71379e-13
-7.77037e-13
-7.81449e-13
-7.84564e-13
-7.86318e-13
-7.86632e-13
)
;
    }
    inandouthalf21
    {
        type            cyclic;
        value           nonuniform List<scalar> 
100
(
7.85407e-13
7.82525e-13
7.77851e-13
7.71233e-13
7.62498e-13
7.51462e-13
7.37927e-13
7.21687e-13
7.02532e-13
6.80255e-13
6.54649e-13
6.2552e-13
5.92682e-13
5.55959e-13
5.15188e-13
4.70214e-13
4.20891e-13
3.67075e-13
3.08627e-13
2.45411e-13
1.77288e-13
1.04118e-13
2.57513e-14
-5.79924e-14
-1.47343e-13
-2.42609e-13
-3.44181e-13
-4.52497e-13
-5.67933e-13
-6.90643e-13
-8.20449e-13
-9.5696e-13
-1.10001e-12
-1.25018e-12
-1.40876e-12
-1.57689e-12
-1.75449e-12
-1.94045e-12
-2.13289e-12
-2.32572e-12
-2.50179e-12
-2.63903e-12
-2.73388e-12
-2.79847e-12
-2.84286e-12
-2.87143e-12
-2.88722e-12
-2.89627e-12
-2.90701e-12
-3.00408e-12
-8.09941e-08
-2.28607e-07
-3.48411e-07
-4.55674e-07
-5.56873e-07
-6.5305e-07
-7.40299e-07
-8.15137e-07
-8.76294e-07
-9.23119e-07
-9.56122e-07
-9.77943e-07
-9.92693e-07
-1.00377e-06
-1.01293e-06
-1.02086e-06
-1.02789e-06
-1.03422e-06
-1.03996e-06
-1.04523e-06
-1.05008e-06
-1.05458e-06
-1.05877e-06
-1.0627e-06
-1.06639e-06
-1.06986e-06
-1.07316e-06
-1.07628e-06
-1.07924e-06
-1.08208e-06
-1.08479e-06
-1.08739e-06
-1.08988e-06
-1.09228e-06
-1.09459e-06
-1.09682e-06
-1.09899e-06
-1.10108e-06
-1.10311e-06
-1.10507e-06
-1.107e-06
-1.10886e-06
-1.11067e-06
-1.11243e-06
-1.11415e-06
-1.11584e-06
-1.11749e-06
-1.11908e-06
-1.12062e-06
-1.12212e-06
)
;
    }
    inandouthalf22
    {
        type            cyclic;
        value           nonuniform List<scalar> 
100
(
-7.85407e-13
-7.82525e-13
-7.77851e-13
-7.71233e-13
-7.62498e-13
-7.51462e-13
-7.37927e-13
-7.21687e-13
-7.02532e-13
-6.80255e-13
-6.54649e-13
-6.2552e-13
-5.92682e-13
-5.55959e-13
-5.15188e-13
-4.70214e-13
-4.20891e-13
-3.67075e-13
-3.08627e-13
-2.45411e-13
-1.77288e-13
-1.04118e-13
-2.57513e-14
5.79924e-14
1.47343e-13
2.42609e-13
3.44181e-13
4.52497e-13
5.67933e-13
6.90643e-13
8.20449e-13
9.5696e-13
1.10001e-12
1.25018e-12
1.40876e-12
1.57689e-12
1.75449e-12
1.94045e-12
2.13289e-12
2.32572e-12
2.50179e-12
2.63903e-12
2.73388e-12
2.79847e-12
2.84286e-12
2.87143e-12
2.88722e-12
2.89627e-12
2.90701e-12
3.00408e-12
8.09941e-08
2.28607e-07
3.48411e-07
4.55674e-07
5.56873e-07
6.5305e-07
7.40299e-07
8.15137e-07
8.76294e-07
9.23119e-07
9.56122e-07
9.77943e-07
9.92693e-07
1.00377e-06
1.01293e-06
1.02086e-06
1.02789e-06
1.03422e-06
1.03996e-06
1.04523e-06
1.05008e-06
1.05458e-06
1.05877e-06
1.0627e-06
1.06639e-06
1.06986e-06
1.07316e-06
1.07628e-06
1.07924e-06
1.08208e-06
1.08479e-06
1.08739e-06
1.08988e-06
1.09228e-06
1.09459e-06
1.09682e-06
1.09899e-06
1.10108e-06
1.10311e-06
1.10507e-06
1.107e-06
1.10886e-06
1.11067e-06
1.11243e-06
1.11415e-06
1.11584e-06
1.11749e-06
1.11908e-06
1.12062e-06
1.12212e-06
)
;
    }
    inandouthalf31
    {
        type            cyclic;
        value           nonuniform List<scalar> 
110
(
-1.1236e-06
-1.14792e-06
-1.17274e-06
-1.19805e-06
-1.22387e-06
-1.25027e-06
-1.27728e-06
-1.30486e-06
-1.33297e-06
-1.36167e-06
-1.39104e-06
-1.42105e-06
-1.45165e-06
-1.4829e-06
-1.5149e-06
-1.5476e-06
-1.58091e-06
-1.61494e-06
-1.6498e-06
-1.68546e-06
-1.72182e-06
-1.75897e-06
-1.797e-06
-1.83585e-06
-1.87553e-06
-1.91618e-06
-1.95773e-06
-2.00013e-06
-2.04356e-06
-2.08801e-06
-2.13338e-06
-2.17979e-06
-2.22733e-06
-2.27589e-06
-2.32554e-06
-2.37628e-06
-2.4281e-06
-2.48096e-06
-2.53467e-06
-2.58911e-06
-2.64415e-06
-2.69972e-06
-2.75664e-06
-3.06865e-06
-3.13094e-06
-3.1945e-06
-3.25934e-06
-3.3255e-06
-3.39301e-06
-3.46188e-06
-3.53215e-06
-3.60384e-06
-3.67699e-06
-3.75163e-06
-3.82778e-06
-3.90547e-06
-3.98474e-06
-4.06562e-06
-4.14814e-06
-4.23234e-06
-4.31825e-06
-4.4059e-06
-4.49532e-06
-4.58657e-06
-4.67966e-06
-4.77465e-06
-4.87156e-06
-4.97044e-06
-5.07133e-06
-5.17426e-06
-5.27928e-06
-5.38644e-06
-5.49577e-06
-5.60732e-06
-5.72113e-06
-5.83726e-06
-5.95574e-06
-6.07662e-06
-6.19996e-06
-6.3258e-06
-6.4542e-06
-6.5852e-06
-6.71887e-06
-6.85524e-06
-6.99439e-06
-7.13635e-06
-7.2812e-06
-7.42899e-06
-7.57978e-06
-7.73363e-06
-7.8906e-06
-8.05076e-06
-8.21417e-06
-8.38089e-06
-8.551e-06
-8.72457e-06
-8.90165e-06
-9.08233e-06
-9.26668e-06
-9.45477e-06
-9.64667e-06
-9.84248e-06
-1.00423e-05
-1.02461e-05
-1.04541e-05
-1.06662e-05
-1.08827e-05
-1.11036e-05
-1.1329e-05
-1.15589e-05
)
;
    }
    inandouthalf32
    {
        type            cyclic;
        value           nonuniform List<scalar> 
110
(
1.1236e-06
1.14792e-06
1.17274e-06
1.19805e-06
1.22387e-06
1.25027e-06
1.27728e-06
1.30486e-06
1.33297e-06
1.36167e-06
1.39104e-06
1.42105e-06
1.45165e-06
1.4829e-06
1.5149e-06
1.5476e-06
1.58091e-06
1.61494e-06
1.6498e-06
1.68546e-06
1.72182e-06
1.75897e-06
1.797e-06
1.83585e-06
1.87553e-06
1.91618e-06
1.95773e-06
2.00013e-06
2.04356e-06
2.08801e-06
2.13338e-06
2.17979e-06
2.22733e-06
2.27589e-06
2.32554e-06
2.37628e-06
2.4281e-06
2.48096e-06
2.53467e-06
2.58911e-06
2.64415e-06
2.69972e-06
2.75664e-06
3.06865e-06
3.13094e-06
3.1945e-06
3.25934e-06
3.3255e-06
3.39301e-06
3.46188e-06
3.53215e-06
3.60384e-06
3.67699e-06
3.75163e-06
3.82778e-06
3.90547e-06
3.98474e-06
4.06562e-06
4.14814e-06
4.23234e-06
4.31825e-06
4.4059e-06
4.49532e-06
4.58657e-06
4.67966e-06
4.77465e-06
4.87156e-06
4.97044e-06
5.07133e-06
5.17426e-06
5.27928e-06
5.38644e-06
5.49577e-06
5.60732e-06
5.72113e-06
5.83726e-06
5.95574e-06
6.07662e-06
6.19996e-06
6.3258e-06
6.4542e-06
6.5852e-06
6.71887e-06
6.85524e-06
6.99439e-06
7.13635e-06
7.2812e-06
7.42899e-06
7.57978e-06
7.73363e-06
7.8906e-06
8.05076e-06
8.21417e-06
8.38089e-06
8.551e-06
8.72457e-06
8.90165e-06
9.08233e-06
9.26668e-06
9.45477e-06
9.64667e-06
9.84248e-06
1.00423e-05
1.02461e-05
1.04541e-05
1.06662e-05
1.08827e-05
1.11036e-05
1.1329e-05
1.15589e-05
)
;
    }
    inandouthalf41
    {
        type            cyclic;
        value           nonuniform List<scalar> 
50
(
-1.03464e-05
-1.03464e-05
-1.03464e-05
-1.03464e-05
-1.03464e-05
-1.03464e-05
-1.03464e-05
-1.03464e-05
-1.03464e-05
-1.03464e-05
-1.03464e-05
-1.03464e-05
-1.03464e-05
-1.03464e-05
-1.03464e-05
-1.03464e-05
-1.03464e-05
-1.03464e-05
-1.03464e-05
-1.03464e-05
-1.03464e-05
-1.03464e-05
-1.03464e-05
-1.03464e-05
-1.03464e-05
-1.03464e-05
-1.03464e-05
-1.03464e-05
-1.03464e-05
-1.03464e-05
-1.03464e-05
-1.03464e-05
-1.03464e-05
-1.03464e-05
-1.03464e-05
-1.03464e-05
-1.03464e-05
-1.03464e-05
-1.03464e-05
-1.03464e-05
-1.03464e-05
-1.03464e-05
-1.03464e-05
-1.03464e-05
-1.03464e-05
-1.03464e-05
-1.03464e-05
-1.03464e-05
-1.03466e-05
-1.03506e-05
)
;
    }
    inandouthalf42
    {
        type            cyclic;
        value           nonuniform List<scalar> 
50
(
1.03464e-05
1.03464e-05
1.03464e-05
1.03464e-05
1.03464e-05
1.03464e-05
1.03464e-05
1.03464e-05
1.03464e-05
1.03464e-05
1.03464e-05
1.03464e-05
1.03464e-05
1.03464e-05
1.03464e-05
1.03464e-05
1.03464e-05
1.03464e-05
1.03464e-05
1.03464e-05
1.03464e-05
1.03464e-05
1.03464e-05
1.03464e-05
1.03464e-05
1.03464e-05
1.03464e-05
1.03464e-05
1.03464e-05
1.03464e-05
1.03464e-05
1.03464e-05
1.03464e-05
1.03464e-05
1.03464e-05
1.03464e-05
1.03464e-05
1.03464e-05
1.03464e-05
1.03464e-05
1.03464e-05
1.03464e-05
1.03464e-05
1.03464e-05
1.03464e-05
1.03464e-05
1.03464e-05
1.03464e-05
1.03466e-05
1.03506e-05
)
;
    }
    top
    {
        type            symmetryPlane;
        value           uniform 0;
    }
    walls
    {
        type            fixedValue;
        value           uniform 0;
    }
    frontAndBackPlanes
    {
        type            empty;
        value           nonuniform 0();
    }
}


// ************************************************************************* //
