/*--------------------------------*- C++ -*----------------------------------*\
| =========                 |                                                 |
| \\      /  F ield         | OpenFOAM: The Open Source CFD Toolbox           |
|  \\    /   O peration     | Version:  2.4.x                                 |
|   \\  /    A nd           | Web:      www.OpenFOAM.org                      |
|    \\/     M anipulation  |                                                 |
\*---------------------------------------------------------------------------*/
FoamFile
{
    version     2.0;
    format      ascii;
    class       volTensorField;
    location    "2.1";
    object      Taus;
}
// * * * * * * * * * * * * * * * * * * * * * * * * * * * * * * * * * * * * * //

dimensions      [0 2 -2 0 0 0 0];

internalField   nonuniform List<tensor> 
360
(
(0 0.00823159 0 0.00823159 -0.163971 0 0 0 0)
(0 -0.000721757 0 -0.000721757 0.00374836 0 0 0 0)
(0 -0.0016141 0 -0.0016141 -0.0378609 0 0 0 0)
(0 -0.00258494 0 -0.00258494 -0.0571696 0 0 0 0)
(-4.19647e-16 -0.00334661 0 -0.00334661 -0.0732753 0 0 0 0)
(-7.18068e-16 -0.00396496 0 -0.00396496 -0.0864003 0 0 0 0)
(-3.09693e-16 -0.00446795 0 -0.00446795 -0.0971244 0 0 0 0)
(0 -0.00487582 0 -0.00487582 -0.105859 0 0 0 0)
(-4.72626e-16 -0.00520967 0 -0.00520967 -0.113035 0 0 0 0)
(0 -0.00548072 0 -0.00548072 -0.118909 0 0 0 0)
(-3.73413e-16 -0.00570295 0 -0.00570295 -0.123735 0 0 0 0)
(0 -0.00588851 0 -0.00588851 -0.12774 0 0 0 0)
(-3.0582e-16 -0.00604069 0 -0.00604069 -0.131041 0 0 0 0)
(0 -0.00616751 0 -0.00616751 -0.1338 0 0 0 0)
(0 -0.00627475 0 -0.00627475 -0.136108 0 0 0 0)
(0 -0.00636644 0 -0.00636644 -0.138047 0 0 0 0)
(0 -0.00644605 0 -0.00644605 -0.139689 0 0 0 0)
(-1.05615e-16 -0.00651667 0 -0.00651667 -0.141093 0 0 0 0)
(0 -0.00657968 0 -0.00657968 -0.142315 0 0 0 0)
(0 -0.00663516 0 -0.00663516 -0.143351 0 0 0 0)
(0 -0.00668925 0 -0.00668925 -0.144302 0 0 0 0)
(-8.58264e-17 -0.00673831 0 -0.00673831 -0.145119 0 0 0 0)
(0 -0.0067851 0 -0.0067851 -0.145858 0 0 0 0)
(0 -0.00683132 0 -0.00683132 -0.146526 0 0 0 0)
(0 -0.00687761 0 -0.00687761 -0.147134 0 0 0 0)
(-1.4466e-16 -0.00692481 0 -0.00692481 -0.147699 0 0 0 0)
(0 -0.00697257 0 -0.00697257 -0.14824 0 0 0 0)
(0 -0.00701824 0 -0.00701824 -0.14873 0 0 0 0)
(0 -0.007065 0 -0.007065 -0.149204 0 0 0 0)
(0 -0.00711404 0 -0.00711404 -0.149661 0 0 0 0)
(0 -0.00716427 0 -0.00716427 -0.150106 0 0 0 0)
(0 -0.00721405 0 -0.00721405 -0.150505 0 0 0 0)
(0 -0.00726746 0 -0.00726746 -0.150942 0 0 0 0)
(0 -0.00731735 0 -0.00731735 -0.1513 0 0 0 0)
(0 -0.00737098 0 -0.00737098 -0.151699 0 0 0 0)
(4.55156e-17 -0.00742431 0 -0.00742431 -0.152057 0 0 0 0)
(0 -0.00747817 0 -0.00747817 -0.152422 0 0 0 0)
(0 -0.00752902 0 -0.00752902 -0.152754 0 0 0 0)
(0 -0.00757793 0 -0.00757793 -0.153047 0 0 0 0)
(0 -0.00763013 0 -0.00763013 -0.153378 0 0 0 0)
(0 -0.00767639 0 -0.00767639 -0.15363 0 0 0 0)
(0 -0.00772256 0 -0.00772256 -0.153883 0 0 0 0)
(5.40274e-17 -0.00776822 0 -0.00776822 -0.154143 0 0 0 0)
(0 -0.00780679 0 -0.00780679 -0.154331 0 0 0 0)
(0 -0.00784326 0 -0.00784326 -0.154533 0 0 0 0)
(0 -0.00787622 0 -0.00787622 -0.154709 0 0 0 0)
(0 -0.00790404 0 -0.00790404 -0.154865 0 0 0 0)
(0 -0.00793096 0 -0.00793096 -0.155043 0 0 0 0)
(0 -0.00794313 0 -0.00794313 -0.155164 0 0 0 0)
(0 -0.00794572 0 -0.00794572 -0.155209 0 0 0 0)
(3.14433e-18 -0.00793382 0 -0.00793382 -0.155246 0 0 0 0)
(0 -0.00791284 0 -0.00791284 -0.155158 0 0 0 0)
(0 -0.00786218 0 -0.00786218 -0.15497 0 0 0 0)
(0 -0.00780631 0 -0.00780631 -0.154618 0 0 0 0)
(0 -0.00770115 0 -0.00770115 -0.154144 0 0 0 0)
(0 -0.00759739 0 -0.00759739 -0.153472 0 0 0 0)
(0 -0.0074505 0 -0.0074505 -0.152703 0 0 0 0)
(0 -0.00731849 0 -0.00731849 -0.151818 0 0 0 0)
(0 -0.00709096 0 -0.00709096 -0.150813 0 0 0 0)
(0 -0.00690653 0 -0.00690653 -0.149745 0 0 0 0)
(0 -0.00669503 0 -0.00669503 -0.148556 0 0 0 0)
(0 -0.00650144 0 -0.00650144 -0.147687 0 0 0 0)
(0 -0.0064384 0 -0.0064384 -0.152544 0 0 0 0)
(0 -0.0062167 0 -0.0062167 -0.152148 0 0 0 0)
(0 -0.00598521 0 -0.00598521 -0.151845 0 0 0 0)
(0 -0.00571223 0 -0.00571223 -0.150784 0 0 0 0)
(0 -0.00490136 0 -0.00490136 -0.134898 0 0 0 0)
(0 -0.00464675 0 -0.00464675 -0.132279 0 0 0 0)
(0 -0.0044699 0 -0.0044699 -0.130439 0 0 0 0)
(0 -0.00437374 0 -0.00437374 -0.129607 0 0 0 0)
(0 -0.00433172 0 -0.00433172 -0.129497 0 0 0 0)
(0 -0.00429624 0 -0.00429624 -0.129466 0 0 0 0)
(0 -0.00422373 0 -0.00422373 -0.129081 0 0 0 0)
(0 -0.00409722 0 -0.00409722 -0.128187 0 0 0 0)
(0 -0.00393164 0 -0.00393164 -0.126921 0 0 0 0)
(0 -0.00374654 0 -0.00374654 -0.125378 0 0 0 0)
(0 -0.00355655 0 -0.00355655 -0.123695 0 0 0 0)
(0 -0.00336696 0 -0.00336696 -0.121932 0 0 0 0)
(0 -0.00318016 0 -0.00318016 -0.120155 0 0 0 0)
(0 -0.00299826 0 -0.00299826 -0.118416 0 0 0 0)
(0 -0.00282271 0 -0.00282271 -0.116757 0 0 0 0)
(0 -0.00265292 0 -0.00265292 -0.11517 0 0 0 0)
(0 -0.00248786 0 -0.00248786 -0.113641 0 0 0 0)
(0 -0.00232616 0 -0.00232616 -0.112144 0 0 0 0)
(0 -0.00216646 0 -0.00216646 -0.110644 0 0 0 0)
(0 -0.00200815 0 -0.00200815 -0.109122 0 0 0 0)
(0 -0.00185113 0 -0.00185113 -0.107567 0 0 0 0)
(0 -0.00169584 0 -0.00169584 -0.105985 0 0 0 0)
(0 -0.00154256 0 -0.00154256 -0.104382 0 0 0 0)
(0 -0.0013914 0 -0.0013914 -0.102768 0 0 0 0)
(0 -0.00124239 0 -0.00124239 -0.101151 0 0 0 0)
(0 -0.00109537 0 -0.00109537 -0.0995368 0 0 0 0)
(0 -0.00095002 0 -0.00095002 -0.097924 0 0 0 0)
(0 -0.000806081 0 -0.000806081 -0.0963118 0 0 0 0)
(0 -0.000663291 0 -0.000663291 -0.0946983 0 0 0 0)
(0 -0.000521401 0 -0.000521401 -0.0930815 0 0 0 0)
(0 -0.000380172 0 -0.000380172 -0.0914607 0 0 0 0)
(0 -0.000239354 0 -0.000239354 -0.0898366 0 0 0 0)
(0 -9.86854e-05 0 -9.86854e-05 -0.0882101 0 0 0 0)
(0 4.21073e-05 0 4.21073e-05 -0.086582 0 0 0 0)
(0 0.000183286 0 0.000183286 -0.0849534 0 0 0 0)
(0 0.000325088 0 0.000325088 -0.0833247 0 0 0 0)
(0 0.00046771 0 0.00046771 -0.0816959 0 0 0 0)
(0 0.000611306 0 0.000611306 -0.0800672 0 0 0 0)
(0 0.000755984 0 0.000755984 -0.0784387 0 0 0 0)
(0 0.000901807 0 0.000901807 -0.0768105 0 0 0 0)
(0 0.0010488 0 0.0010488 -0.0751827 0 0 0 0)
(0 0.00119693 0 0.00119693 -0.0735553 0 0 0 0)
(0 0.00134614 0 0.00134614 -0.0719283 0 0 0 0)
(0 0.00149632 0 0.00149632 -0.0703015 0 0 0 0)
(0 0.00164735 0 0.00164735 -0.0686746 0 0 0 0)
(0 0.00179907 0 0.00179907 -0.0670473 0 0 0 0)
(0 0.00195131 0 0.00195131 -0.0654192 0 0 0 0)
(0 0.00210388 0 0.00210388 -0.06379 0 0 0 0)
(0 0.00225661 0 0.00225661 -0.0621593 0 0 0 0)
(0 0.00240932 0 0.00240932 -0.0605267 0 0 0 0)
(0 0.00256184 0 0.00256184 -0.0588918 0 0 0 0)
(0 0.00271401 0 0.00271401 -0.0572544 0 0 0 0)
(0 0.00286569 0 0.00286569 -0.055614 0 0 0 0)
(0 0.00301678 0 0.00301678 -0.0539706 0 0 0 0)
(0 0.00316722 0 0.00316722 -0.0523241 0 0 0 0)
(0 0.003317 0 0.003317 -0.0506745 0 0 0 0)
(0 0.00346613 0 0.00346613 -0.0490219 0 0 0 0)
(0 0.00361466 0 0.00361466 -0.0473661 0 0 0 0)
(0 0.00376253 0 0.00376253 -0.0457064 0 0 0 0)
(0 0.00390952 0 0.00390952 -0.0440419 0 0 0 0)
(0 0.00405526 0 0.00405526 -0.0423711 0 0 0 0)
(0 0.00419935 0 0.00419935 -0.0406931 0 0 0 0)
(0 0.00434188 0 0.00434188 -0.0390084 0 0 0 0)
(0 0.00448405 0 0.00448405 -0.0373197 0 0 0 0)
(0 0.00462816 0 0.00462816 -0.0356316 0 0 0 0)
(0 0.00477598 0 0.00477598 -0.0339457 0 0 0 0)
(0 0.00492535 0 0.00492535 -0.0322553 0 0 0 0)
(0 0.00506883 0 0.00506883 -0.0305453 0 0 0 0)
(0 0.0052012 0 0.0052012 -0.0288071 0 0 0 0)
(0 0.00533009 0 0.00533009 -0.0270561 0 0 0 0)
(0 0.00546742 0 0.00546742 -0.0253114 0 0 0 0)
(0 0.00560069 0 0.00560069 -0.0235582 0 0 0 0)
(0 0.00568348 0 0.00568348 -0.0217539 0 0 0 0)
(0 0.00569602 0 0.00569602 -0.0198816 0 0 0 0)
(0 0.00574177 0 0.00574177 -0.0180203 0 0 0 0)
(0 0.00595603 0 0.00595603 -0.0162977 0 0 0 0)
(0 0.00609864 0 0.00609864 -0.0143562 0 0 0 0)
(0 0.00592482 0 0.00592482 -0.0122621 0 0 0 0)
(0 0.00549866 0 0.00549866 -0.0101775 0 0 0 0)
(0 0.00493505 0 0.00493505 -0.00800477 0 0 0 0)
(0 0.00441128 0 0.00441128 -0.00548337 0 0 0 0)
(0 0.00386032 0 0.00386032 -0.00212058 0 0 0 0)
(0 0.0023201 0 0.0023201 -0.000233475 0 0 0 0)
(0 0.00138345 0 0.00138345 4.12564e-05 0 0 0 0)
(0 0.0024025 0 0.0024025 3.94333e-05 0 0 0 0)
(0 0.0120972 0 0.0120972 -8.15133e-05 0 0 0 0)
(0 0.0207426 0 0.0207426 -0.000483175 0 0 0 0)
(0 0.0283667 0 0.0283667 -0.000351904 0 0 0 0)
(0 0.0343728 0 0.0343728 0.000154138 0 0 0 0)
(0 0.0373763 0 0.0373763 0.0007497 0 0 0 0)
(0 0.0375081 0 0.0375081 0.00113253 0 0 0 0)
(0 0.0366246 0 0.0366246 0.00132413 0 0 0 0)
(0 0.0360705 0 0.0360705 0.00146646 0 0 0 0)
(0 0.0368217 0 0.0368217 0.00153802 0 0 0 0)
(0 0.0406453 0 0.0406453 0.001257 0 0 0 0)
(0 0.0520342 0 0.0520342 -8.65014e-05 0 0 0 0)
(0 0.0788202 0 0.0788202 -0.00376918 0 0 0 0)
(0 0.123616 0 0.123616 -0.0103331 0 0 0 0)
(0 0.168028 0 0.168028 -0.0169632 0 0 0 0)
(0 0.20385 0 0.20385 -0.0218168 0 0 0 0)
(0 0.235822 0 0.235822 -0.0256827 0 0 0 0)
(0 0.257701 0 0.257701 -0.0281167 0 0 0 0)
(0 0.286317 0 0.286317 -0.0311438 0 0 0 0)
(0 0.302431 0 0.302431 -0.0327082 0 0 0 0)
(0 0.328321 0 0.328321 -0.0352346 0 0 0 0)
(0 0.339784 0 0.339784 -0.0361665 0 0 0 0)
(0 0.366012 0 0.366012 -0.0386441 0 0 0 0)
(0 0.373726 0 0.373726 -0.0391237 0 0 0 0)
(0 0.39544 0 0.39544 -0.0410173 0 0 0 0)
(0 0.402807 0 0.402807 -0.0414512 0 0 0 0)
(0 0.425164 0 0.425164 -0.043425 0 0 0 0)
(0 0.426975 0 0.426975 -0.0432456 0 0 0 0)
(0 0.445424 0 0.445424 -0.0447993 0 0 0 0)
(0 0.454732 0 0.454732 -0.0454727 0 0 0 0)
(0 0.460876 0 0.460876 -0.0457686 0 0 0 0)
(0 0.475959 0 0.475959 -0.0470433 0 0 0 0)
(0 0.476504 0 0.476504 -0.0468562 0 0 0 0)
(0 0.490405 0 0.490405 -0.0480215 0 0 0 0)
(0 0.488929 0 0.488929 -0.0476997 0 0 0 0)
(0 0.502036 0 0.502036 -0.0488599 0 0 0 0)
(0 0.501103 0 0.501103 -0.0486982 0 0 0 0)
(0 0.508311 0 0.508311 -0.0493018 0 0 0 0)
(0 0.503506 0 0.503506 -0.0487491 0 0 0 0)
(0 0.513804 0 0.513804 -0.0498355 0 0 0 0)
(0 0.514134 0 0.514134 -0.0499729 0 0 0 0)
(0 0.509909 0 0.509909 -0.0495801 0 0 0 0)
(0 0.510929 0 0.510929 -0.0498084 0 0 0 0)
(0 0.505272 0 0.505272 -0.0494014 0 0 0 0)
(0 0.510996 0 0.510996 -0.0502819 0 0 0 0)
(0 0.507276 0 0.507276 -0.0502837 0 0 0 0)
(0 0.502901 0 0.502901 -0.0501551 0 0 0 0)
(0 0.489686 0 0.489686 -0.0491286 0 0 0 0)
(0 0.482821 0 0.482821 -0.0488115 0 0 0 0)
(0 0.479179 0 0.479179 -0.0490414 0 0 0 0)
(0 0.482799 0 0.482799 -0.0502317 0 0 0 0)
(0 0.4749 0 0.4749 -0.0501574 0 0 0 0)
(-3.38509e-14 0.460154 0 0.460154 -0.0491424 0 0 0 0)
(0 0.440786 0 0.440786 -0.0475125 0 0 0 0)
(0 0.434704 0 0.434704 -0.047547 0 0 0 0)
(3.2539e-14 0.439421 0 0.439421 -0.0491417 0 0 0 0)
(0 0.435762 0 0.435762 -0.0496708 0 0 0 0)
(-3.14592e-14 0.418942 0 0.418942 -0.0483297 0 0 0 0)
(0 0.401681 0 0.401681 -0.0468422 0 0 0 0)
(3.03274e-14 0.399488 0 0.399488 -0.0475372 0 0 0 0)
(0 0.39987 0 0.39987 -0.0487396 0 0 0 0)
(0 0.385955 0 0.385955 -0.0477446 0 0 0 0)
(0 0.371205 0 0.371205 -0.0464897 0 0 0 0)
(2.79554e-14 0.371521 0 0.371521 -0.0476512 0 0 0 0)
(0 0.371258 0 0.371258 -0.0488627 0 0 0 0)
(0 0.355375 0 0.355375 -0.0474815 0 0 0 0)
(0 0.33923 0 0.33923 -0.0459161 0 0 0 0)
(0 0.33905 0 0.33905 -0.0470594 0 0 0 0)
(0 0.342264 0 0.342264 -0.0489288 0 0 0 0)
(-2.40837e-14 0.331658 0 0.331658 -0.048337 0 0 0 0)
(0 0.318495 0 0.318495 -0.0471729 0 0 0 0)
(-2.27474e-14 0.31608 0 0.31608 -0.0480861 0 0 0 0)
(0 0.312124 0 0.312124 -0.0487521 0 0 0 0)
(-2.13931e-14 0.302117 0 0.302117 -0.0481015 0 0 0 0)
(0 0.299226 0 0.299226 -0.048907 0 0 0 0)
(0 0.296878 0 0.296878 -0.0499732 0 0 0 0)
(0 0.285291 0 0.285291 -0.049005 0 0 0 0)
(0 0.278534 0 0.278534 -0.048989 0 0 0 0)
(3.59768e-14 0.278258 0 0.278258 -0.0505594 0 0 0 0)
(3.45769e-14 0.269284 0 0.269284 -0.0501624 0 0 0 0)
(0 0.258522 0 0.258522 -0.0492239 0 0 0 0)
(0 0.254895 0 0.254895 -0.0500793 0 0 0 0)
(0 0.247604 0 0.247604 -0.0500519 0 0 0 0)
(0 0.236207 0 0.236207 -0.0489514 0 0 0 0)
(0 0.225414 0 0.225414 -0.0480682 0 0 0 0)
(0 0.212358 0 0.212358 -0.0465692 0 0 0 0)
(0 0.196159 0 0.196159 -0.0442921 0 0 0 0)
(0 0.172898 0 0.172898 -0.0401445 0 0 0 0)
(0 0.14241 0 0.14241 -0.0339308 0 0 0 0)
(0 0.108742 0 0.108742 -0.0267164 0 0 0 0)
(0 0.074445 0 0.074445 -0.0187041 0 0 0 0)
(0 0.0542486 0 0.0542486 -0.0151743 0 0 0 0)
(0 0 0 0 -0 0 0 0 0)
(-0 0 0 0 -0 0 0 0 0)
(0 0 0 0 0 0 0 0 0)
(0 0 0 0 -0 0 0 0 0)
(0 0 0 0 -0 0 0 0 0)
(-0 0 0 0 -0 0 0 0 0)
(0 0 0 0 -0 0 0 0 0)
(0 0 0 0 -0 0 0 0 0)
(-0 0 0 0 0 0 0 0 0)
(0 0 0 0 -0 0 0 0 0)
(0 0 0 0 0 0 0 0 0)
(0 0 0 0 -0 0 0 0 0)
(0 0 0 0 0 0 0 0 0)
(0 0 0 0 -0 0 0 0 0)
(0 0 0 0 0 0 0 0 0)
(0 0 0 0 -0 0 0 0 0)
(0 0 0 0 0 0 0 0 0)
(0 0 0 0 -0 0 0 0 0)
(0 0 0 0 0 0 0 0 0)
(0 0 0 0 -0 0 0 0 0)
(0 0 0 0 0 0 0 0 0)
(0 0 0 0 -0 0 0 0 0)
(0 0 0 0 0 0 0 0 0)
(0 0 0 0 -0 0 0 0 0)
(0 0 0 0 0 0 0 0 0)
(0 0 0 0 -0 0 0 0 0)
(0 0 0 0 0 0 0 0 0)
(0 0 0 0 -0 0 0 0 0)
(0 0 0 0 0 0 0 0 0)
(0 0 0 0 -0 0 0 0 0)
(0 0 0 0 0 0 0 0 0)
(0 0 0 0 -0 0 0 0 0)
(0 0 0 0 0 0 0 0 0)
(0 0 0 0 -0 0 0 0 0)
(0 0 0 0 0 0 0 0 0)
(0 0 0 0 -0 0 0 0 0)
(0 0 0 0 0 0 0 0 0)
(0 0 0 0 -0 0 0 0 0)
(0 0 0 0 0 0 0 0 0)
(0 0 0 0 -0 0 0 0 0)
(0 0 0 0 0 0 0 0 0)
(0 0 0 0 -0 0 0 0 0)
(0 0 0 0 0 0 0 0 0)
(0 0 0 0 -0 0 0 0 0)
(0 -0 0 -0 0 0 0 0 0)
(0 0 0 0 -0 0 0 0 0)
(0 -0 0 -0 0 0 0 0 0)
(0 0 0 0 -0 0 0 0 0)
(0 -0 0 -0 0 0 0 0 0)
(0 0 0 0 -0 0 0 0 0)
(0 -0 0 -0 0 0 0 0 0)
(0 0 0 0 -0 0 0 0 0)
(0 -0 0 -0 0 0 0 0 0)
(0 0 0 0 -0 0 0 0 0)
(0 -0 0 -0 0 0 0 0 0)
(0 0 0 0 -0 0 0 0 0)
(0 -0 0 -0 0 0 0 0 0)
(-0 0 0 0 -0 0 0 0 0)
(0 -0 0 -0 0 0 0 0 0)
(0 0 0 0 -0 0 0 0 0)
(0 -0 0 -0 0 0 0 0 0)
(0 0 0 0 -0 0 0 0 0)
(0 -0 0 -0 0 0 0 0 0)
(0 0 0 0 -0 0 0 0 0)
(0 -0 0 -0 0 0 0 0 0)
(0 0 0 0 -0 0 0 0 0)
(0 -0 0 -0 0 0 0 0 0)
(0 0 0 0 -0 0 0 0 0)
(0 -0 0 -0 0 0 0 0 0)
(0 0 0 0 -0 0 0 0 0)
(0 -0 0 -0 0 0 0 0 0)
(0 0 0 0 -0 0 0 0 0)
(0 -0 0 -0 0 0 0 0 0)
(0 0 0 0 -0 0 0 0 0)
(0 -0 0 -0 0 0 0 0 0)
(0 0 0 0 -0 0 0 0 0)
(0 -0 0 -0 0 0 0 0 0)
(0 0 0 0 -0 0 0 0 0)
(0 -0 0 -0 0 0 0 0 0)
(0 0 0 0 -0 0 0 0 0)
(0 -0 0 -0 0 0 0 0 0)
(0 0 0 0 -0 0 0 0 0)
(0 -0 0 -0 0 0 0 0 0)
(0 0 0 0 -0 0 0 0 0)
(0 -0 0 -0 0 0 0 0 0)
(0 0 0 0 -0 0 0 0 0)
(0 -0 0 -0 0 0 0 0 0)
(0 0 0 0 -0 0 0 0 0)
(0 -0 0 -0 0 0 0 0 0)
(0 0 0 0 -0 0 0 0 0)
(0 -0 0 -0 0 0 0 0 0)
(0 0 0 0 -0 0 0 0 0)
(0 -0 0 -0 0 0 0 0 0)
(0 0 0 0 -0 0 0 0 0)
(0 -0 0 -0 0 0 0 0 0)
(0 0 0 0 -0 0 0 0 0)
(0 -0 0 -0 0 0 0 0 0)
(0 0 0 0 -0 0 0 0 0)
(0 -0 0 -0 0 0 0 0 0)
(0 0 0 0 -0 0 0 0 0)
(0 -0 0 -0 0 0 0 0 0)
(0 0 0 0 -0 0 0 0 0)
(0 -0 0 -0 0 0 0 0 0)
(0 0 0 0 -0 0 0 0 0)
(0 -0 0 -0 0 0 0 0 0)
(0 0 0 0 -0 0 0 0 0)
(0 -0 0 -0 0 0 0 0 0)
(0 0 0 0 -0 0 0 0 0)
(0 -0 0 -0 0 0 0 0 0)
(0 0 0 0 -0 0 0 0 0)
(0 -0 0 -0 0 0 0 0 0)
(0 0 0 0 0 0 0 0 0)
(0 0 0 0 0 0 0 0 0)
(0 0 0 0 0 0 0 0 0)
(0 0 0 0 0 0 0 0 0)
(0 0 0 0 0 0 0 0 0)
(0 0 0 0 0 0 0 0 0)
(0 0 0 0 0 0 0 0 0)
)
;

boundaryField
{
    inandouthalf11
    {
        type            cyclic;
    }
    inandouthalf12
    {
        type            cyclic;
    }
    inandouthalf21
    {
        type            cyclic;
    }
    inandouthalf22
    {
        type            cyclic;
    }
    inandouthalf31
    {
        type            cyclic;
    }
    inandouthalf32
    {
        type            cyclic;
    }
    inandouthalf41
    {
        type            cyclic;
    }
    inandouthalf42
    {
        type            cyclic;
    }
    top
    {
        type            symmetryPlane;
    }
    walls
    {
        type            zeroGradient;
    }
    frontAndBackPlanes
    {
        type            empty;
    }
}


// ************************************************************************* //
