/*--------------------------------*- C++ -*----------------------------------*\
| =========                 |                                                 |
| \\      /  F ield         | OpenFOAM: The Open Source CFD Toolbox           |
|  \\    /   O peration     | Version:  2.4.x                                 |
|   \\  /    A nd           | Web:      www.OpenFOAM.org                      |
|    \\/     M anipulation  |                                                 |
\*---------------------------------------------------------------------------*/
FoamFile
{
    version     2.0;
    format      ascii;
    class       volScalarField;
    location    "2.1";
    object      Theta;
}
// * * * * * * * * * * * * * * * * * * * * * * * * * * * * * * * * * * * * * //

dimensions      [0 2 -2 0 0 0 0];

internalField   nonuniform List<scalar> 
360
(
6.66136e-21
6.66136e-21
6.66136e-21
6.66136e-21
6.66136e-21
6.66136e-21
6.66136e-21
6.66136e-21
6.66136e-21
6.66136e-21
6.66136e-21
6.66136e-21
6.66136e-21
6.66136e-21
6.66136e-21
6.66136e-21
6.66136e-21
6.66136e-21
6.66136e-21
6.66136e-21
6.66136e-21
6.66136e-21
6.66136e-21
6.66136e-21
6.66136e-21
6.66136e-21
6.66136e-21
6.66136e-21
6.66136e-21
6.66136e-21
6.66136e-21
6.66136e-21
6.66136e-21
6.66136e-21
6.66136e-21
6.66136e-21
6.66136e-21
6.66136e-21
6.66136e-21
6.66136e-21
6.66136e-21
6.66136e-21
6.66135e-21
6.66135e-21
6.66135e-21
6.66135e-21
6.66135e-21
6.66135e-21
6.66135e-21
6.66135e-21
6.66135e-21
6.66135e-21
6.66135e-21
6.66135e-21
6.66135e-21
6.66135e-21
6.66135e-21
6.66135e-21
6.66135e-21
6.66135e-21
6.66135e-21
6.66135e-21
6.66135e-21
6.66134e-21
6.66134e-21
6.66134e-21
6.66183e-21
6.68877e-21
6.93647e-21
7.5433e-21
7.82889e-21
7.48209e-21
7.08461e-21
6.87238e-21
6.78153e-21
6.74501e-21
6.73251e-21
6.73244e-21
6.74007e-21
6.75231e-21
6.7657e-21
6.77659e-21
6.78247e-21
6.78308e-21
6.78006e-21
6.7756e-21
6.77143e-21
6.76839e-21
6.76667e-21
6.76603e-21
6.7661e-21
6.76651e-21
6.76705e-21
6.76769e-21
6.7685e-21
6.76959e-21
6.77112e-21
6.77315e-21
6.77574e-21
6.77878e-21
0
0
0
0
0
0
0
0
0
0
0
0
0
0
0
6.84967e-21
6.85003e-21
6.84963e-21
6.84852e-21
6.84675e-21
6.84435e-21
6.84141e-21
6.83801e-21
6.83433e-21
6.83056e-21
6.82691e-21
6.82346e-21
6.82003e-21
6.81612e-21
6.81097e-21
6.8041e-21
6.7958e-21
6.78739e-21
6.78026e-21
6.77451e-21
6.76861e-21
6.76098e-21
6.75154e-21
6.73987e-21
6.72217e-21
6.68837e-21
3.12713e-20
1.39418e-18
7.02166e-17
3.88458e-15
2.39925e-13
6.81736e-11
4.95187e-08
4.62707e-06
0.000101619
0.00157899
0.00669585
0.00974897
0.01123
0.0114752
0.0108623
0.00986164
0.00877693
0.00778684
0.00701003
0.00649367
0.0061991
0.00603724
0.00593508
0.00585765
0.00579303
0.00573669
0.00568612
0.00564001
0.00559683
0.00555579
0.00551601
0.00547732
0.00543943
0.00540255
0.00536669
0.005332
0.0052983
0.00526557
0.0052335
0.00520181
0.00517026
0.0051386
0.0051067
0.00507445
0.00504185
0.00500889
0.00497564
0.00494214
0.00490848
0.00487463
0.00484061
0.00480641
0.00477198
0.00473729
0.00470223
0.00466675
0.0046308
0.00459435
0.00455738
0.00451985
0.00448135
0.00444146
0.00440016
0.00435746
0.00431332
0.00426769
0.00422053
0.00417183
0.00412158
0.00406972
0.00401615
0.00396081
0.00390364
0.0038445
0.00378326
0.0037198
0.00365402
0.00358574
0.00351478
0.00344097
0.00336419
0.00328423
0.00320091
0.00311404
0.00302341
0.00292876
0.00282987
0.00272645
0.00261814
0.00250456
0.00238529
0.00225974
0.00212724
0.00198697
0.00183787
0.00167854
0.00150711
0.0013209
0.00111575
0.000884305
0.000610423
0
0
0
0
0
0
0
0
0
0
0
0
0
0
0
0
0
0
0
0
0
0
0
0
0
0
0
0
0
0
0
0
0
0
0
0
0
0
0
0
0
0
0
0
0
0
0
0
0
0
0
0
0
0
0
0
0
0
0
0
0
0
0
0
0
0
0
0
0
0
0
0
0
0
0
0
0
0
0
0
0
0
0
0
0
0
0
0
0
0
0
0
0
0
0
0
0
0
0
0
0
0
0
0
0
0
0
0
0
0
0
0
0
0
0
0
0
0
)
;

boundaryField
{
    inandouthalf11
    {
        type            cyclic;
    }
    inandouthalf12
    {
        type            cyclic;
    }
    inandouthalf21
    {
        type            cyclic;
    }
    inandouthalf22
    {
        type            cyclic;
    }
    inandouthalf31
    {
        type            cyclic;
    }
    inandouthalf32
    {
        type            cyclic;
    }
    inandouthalf41
    {
        type            cyclic;
    }
    inandouthalf42
    {
        type            cyclic;
    }
    top
    {
        type            symmetryPlane;
    }
    walls
    {
        type            zeroGradient;
    }
    frontAndBackPlanes
    {
        type            empty;
    }
}


// ************************************************************************* //
