/*--------------------------------*- C++ -*----------------------------------*\
| =========                 |                                                 |
| \\      /  F ield         | OpenFOAM: The Open Source CFD Toolbox           |
|  \\    /   O peration     | Version:  2.4.x                                 |
|   \\  /    A nd           | Web:      www.OpenFOAM.org                      |
|    \\/     M anipulation  |                                                 |
\*---------------------------------------------------------------------------*/
FoamFile
{
    version     2.0;
    format      ascii;
    class       volScalarField;
    location    "2.1";
    object      Theta_0;
}
// * * * * * * * * * * * * * * * * * * * * * * * * * * * * * * * * * * * * * //

dimensions      [0 2 -2 0 0 0 0];

internalField   nonuniform List<scalar> 
360
(
6.66136e-21
6.66136e-21
6.66136e-21
6.66136e-21
6.66136e-21
6.66136e-21
6.66136e-21
6.66136e-21
6.66136e-21
6.66136e-21
6.66136e-21
6.66136e-21
6.66136e-21
6.66136e-21
6.66136e-21
6.66136e-21
6.66136e-21
6.66136e-21
6.66136e-21
6.66136e-21
6.66136e-21
6.66136e-21
6.66136e-21
6.66136e-21
6.66136e-21
6.66136e-21
6.66136e-21
6.66136e-21
6.66136e-21
6.66136e-21
6.66136e-21
6.66136e-21
6.66136e-21
6.66136e-21
6.66136e-21
6.66136e-21
6.66136e-21
6.66136e-21
6.66136e-21
6.66136e-21
6.66136e-21
6.66136e-21
6.66135e-21
6.66135e-21
6.66135e-21
6.66135e-21
6.66135e-21
6.66135e-21
6.66135e-21
6.66135e-21
6.66135e-21
6.66135e-21
6.66135e-21
6.66135e-21
6.66135e-21
6.66135e-21
6.66135e-21
6.66135e-21
6.66135e-21
6.66135e-21
6.66135e-21
6.66135e-21
6.66135e-21
6.66134e-21
6.66134e-21
6.66134e-21
6.66182e-21
6.68854e-21
6.9352e-21
7.54172e-21
7.82921e-21
7.48322e-21
7.08528e-21
6.87266e-21
6.78165e-21
6.74507e-21
6.73255e-21
6.73248e-21
6.74013e-21
6.75238e-21
6.76579e-21
6.77669e-21
6.78258e-21
6.78319e-21
6.78016e-21
6.77569e-21
6.77151e-21
6.76847e-21
6.76674e-21
6.76611e-21
6.76617e-21
6.76658e-21
6.76713e-21
6.76776e-21
6.76856e-21
6.76966e-21
6.77117e-21
6.7732e-21
6.77579e-21
6.77883e-21
0
0
0
0
0
0
0
0
0
0
0
0
0
0
0
6.84985e-21
6.85022e-21
6.84983e-21
6.84872e-21
6.84695e-21
6.84456e-21
6.84161e-21
6.83822e-21
6.83453e-21
6.83077e-21
6.82711e-21
6.82366e-21
6.82023e-21
6.81631e-21
6.81116e-21
6.80427e-21
6.79597e-21
6.78755e-21
6.7804e-21
6.77465e-21
6.76875e-21
6.76111e-21
6.75166e-21
6.73998e-21
6.72224e-21
6.68853e-21
3.08349e-20
1.37299e-18
6.91114e-17
3.82191e-15
2.36023e-13
6.76457e-11
4.93469e-08
4.61718e-06
0.000101428
0.00157869
0.00670113
0.00975273
0.0112294
0.01147
0.0108548
0.00985387
0.00876935
0.00777998
0.00700391
0.00648807
0.00619361
0.00603126
0.00592811
0.00584927
0.00578273
0.00572381
0.00567006
0.00562042
0.00557373
0.00552959
0.00548735
0.00544683
0.00540755
0.00536943
0.00533217
0.00529569
0.00525976
0.00522434
0.00518928
0.00515448
0.00511989
0.0050854
0.00505098
0.00501654
0.00498207
0.00494748
0.00491276
0.00487785
0.00484275
0.0048074
0.00477178
0.00473588
0.00469967
0.00466315
0.00462628
0.00458905
0.00455145
0.0045135
0.00447519
0.00443651
0.00439703
0.00435633
0.00431438
0.00427115
0.00422661
0.00418065
0.00413322
0.00408429
0.0040338
0.0039817
0.00392787
0.00387227
0.00381485
0.00375548
0.00369407
0.00363054
0.00356482
0.00349678
0.00342626
0.00335315
0.00327732
0.0031986
0.00311681
0.00303178
0.00294327
0.00285103
0.00275482
0.00265433
0.00254917
0.00243896
0.00232323
0.0022014
0.00207278
0.00193655
0.00179164
0.00163668
0.00146983
0.00128846
0.00108851
0.000862822
0.000595639
0
0
0
0
0
0
0
0
0
0
0
0
0
0
0
0
0
0
0
0
0
0
0
0
0
0
0
0
0
0
0
0
0
0
0
0
0
0
0
0
0
0
0
0
0
0
0
0
0
0
0
0
0
0
0
0
0
0
0
0
0
0
0
0
0
0
0
0
0
0
0
0
0
0
0
0
0
0
0
0
0
0
0
0
0
0
0
0
0
0
0
0
0
0
0
0
0
0
0
0
0
0
0
0
0
0
0
0
0
0
0
0
0
0
0
0
0
0
)
;

boundaryField
{
    inandouthalf11
    {
        type            cyclic;
    }
    inandouthalf12
    {
        type            cyclic;
    }
    inandouthalf21
    {
        type            cyclic;
    }
    inandouthalf22
    {
        type            cyclic;
    }
    inandouthalf31
    {
        type            cyclic;
    }
    inandouthalf32
    {
        type            cyclic;
    }
    inandouthalf41
    {
        type            cyclic;
    }
    inandouthalf42
    {
        type            cyclic;
    }
    top
    {
        type            symmetryPlane;
    }
    walls
    {
        type            zeroGradient;
    }
    frontAndBackPlanes
    {
        type            empty;
    }
}


// ************************************************************************* //
