/*--------------------------------*- C++ -*----------------------------------*\
| =========                 |                                                 |
| \\      /  F ield         | OpenFOAM: The Open Source CFD Toolbox           |
|  \\    /   O peration     | Version:  2.4.x                                 |
|   \\  /    A nd           | Web:      www.OpenFOAM.org                      |
|    \\/     M anipulation  |                                                 |
\*---------------------------------------------------------------------------*/
FoamFile
{
    version     2.0;
    format      ascii;
    class       volVectorField;
    location    "2.1";
    object      Ua;
}
// * * * * * * * * * * * * * * * * * * * * * * * * * * * * * * * * * * * * * //

dimensions      [0 1 -1 0 0 0 0];

internalField   nonuniform List<vector> 
360
(
(1.13615e-36 -1.13168e-35 0)
(1.13613e-36 -1.13147e-35 0)
(1.136e-36 -1.13164e-35 0)
(1.13568e-36 -1.13199e-35 0)
(1.13516e-36 -1.13256e-35 0)
(1.13441e-36 -1.13338e-35 0)
(1.1334e-36 -1.13448e-35 0)
(1.13211e-36 -1.13588e-35 0)
(1.13052e-36 -1.13761e-35 0)
(1.1286e-36 -1.13969e-35 0)
(1.12635e-36 -1.14214e-35 0)
(1.12374e-36 -1.14497e-35 0)
(1.12077e-36 -1.14819e-35 0)
(1.11744e-36 -1.1518e-35 0)
(1.11375e-36 -1.1558e-35 0)
(1.10971e-36 -1.16019e-35 0)
(1.10531e-36 -1.16496e-35 0)
(1.10056e-36 -1.1701e-35 0)
(1.09548e-36 -1.1756e-35 0)
(1.09006e-36 -1.18146e-35 0)
(1.0843e-36 -1.18767e-35 0)
(1.07821e-36 -1.19423e-35 0)
(1.07179e-36 -1.20114e-35 0)
(1.06503e-36 -1.2084e-35 0)
(1.05794e-36 -1.216e-35 0)
(1.05049e-36 -1.22395e-35 0)
(1.04268e-36 -1.23227e-35 0)
(1.03449e-36 -1.24096e-35 0)
(1.0259e-36 -1.25005e-35 0)
(1.01686e-36 -1.25958e-35 0)
(1.00736e-36 -1.26955e-35 0)
(9.97354e-37 -1.28001e-35 0)
(9.868e-37 -1.291e-35 0)
(9.75641e-37 -1.30256e-35 0)
(9.63811e-37 -1.31476e-35 0)
(9.51237e-37 -1.32767e-35 0)
(9.37825e-37 -1.34138e-35 0)
(9.23462e-37 -1.35598e-35 0)
(9.08011e-37 -1.37162e-35 0)
(8.91319e-37 -1.38844e-35 0)
(8.73203e-37 -1.40661e-35 0)
(8.53425e-37 -1.42636e-35 0)
(8.31695e-37 -1.44796e-35 0)
(8.07613e-37 -1.47181e-35 0)
(7.80648e-37 -1.49842e-35 0)
(7.50056e-37 -1.52851e-35 0)
(7.14808e-37 -1.56308e-35 0)
(6.73281e-37 -1.60372e-35 0)
(6.23005e-37 -1.65281e-35 0)
(5.59627e-37 -1.71473e-35 0)
(4.76097e-37 -1.7963e-35 0)
(3.58642e-37 -1.91137e-35 0)
(1.81819e-37 -2.08481e-35 0)
(-1.12893e-37 -2.37609e-35 0)
(-6.56635e-37 -2.91517e-35 0)
(-1.82734e-36 -4.09188e-35 0)
(-4.70809e-36 -7.00726e-35 0)
(-1.34236e-35 -1.59755e-34 0)
(-4.58603e-35 -4.96911e-34 0)
(-2.16453e-34 -2.31881e-33 0)
(-1.33264e-33 -1.44467e-32 0)
(-1.20597e-32 -1.33714e-31 0)
(-2.02302e-31 -2.29706e-30 0)
(-8.4433e-28 -1.00023e-26 0)
(-1.53417e-23 -1.87737e-22 0)
(-4.16441e-18 -5.28255e-17 0)
(-3.23586e-11 -4.2708e-10 0)
(-4.46841e-09 -6.1491e-08 0)
(-3.21264e-08 -4.57238e-07 0)
(-1.02302e-07 -1.48897e-06 0)
(-2.00511e-07 -2.95211e-06 0)
(-2.9214e-07 -4.32658e-06 0)
(-3.6002e-07 -5.35549e-06 0)
(-4.06618e-07 -6.07585e-06 0)
(-4.39612e-07 -6.60055e-06 0)
(-4.65054e-07 -7.01906e-06 0)
(-4.86727e-07 -7.3889e-06 0)
(-5.06895e-07 -7.74667e-06 0)
(-5.26897e-07 -8.11628e-06 0)
(-5.47406e-07 -8.51196e-06 0)
(-5.68539e-07 -8.93859e-06 0)
(-5.89974e-07 -9.39234e-06 0)
(-6.11147e-07 -9.86345e-06 0)
(-6.31485e-07 -1.03404e-05 0)
(-6.50584e-07 -1.08141e-05 0)
(-6.68259e-07 -1.12795e-05 0)
(-6.84504e-07 -1.17357e-05 0)
(-6.99405e-07 -1.21844e-05 0)
(-7.1307e-07 -1.26283e-05 0)
(-7.25581e-07 -1.307e-05 0)
(-7.36983e-07 -1.35114e-05 0)
(-7.47285e-07 -1.39536e-05 0)
(-7.5647e-07 -1.43968e-05 0)
(-7.64512e-07 -1.48414e-05 0)
(-7.71379e-07 -1.52875e-05 0)
(-7.77037e-07 -1.57355e-05 0)
(-7.81449e-07 -1.61863e-05 0)
(-7.84564e-07 -1.66409e-05 0)
(-7.86318e-07 -1.71001e-05 0)
(-7.86632e-07 -1.75653e-05 0)
(-7.85407e-07 -1.80373e-05 0)
(-7.82525e-07 -1.85171e-05 0)
(-7.77851e-07 -1.90055e-05 0)
(-7.71233e-07 -1.95033e-05 0)
(-7.62498e-07 -2.0011e-05 0)
(-7.51462e-07 -2.0529e-05 0)
(-7.37927e-07 -2.10574e-05 0)
(-7.21687e-07 -2.15962e-05 0)
(-7.02532e-07 -2.21449e-05 0)
(-6.80255e-07 -2.27031e-05 0)
(-6.54649e-07 -2.32698e-05 0)
(-6.2552e-07 -2.3844e-05 0)
(-5.92682e-07 -2.44245e-05 0)
(-5.55959e-07 -2.501e-05 0)
(-5.15188e-07 -2.55993e-05 0)
(-4.70214e-07 -2.6191e-05 0)
(-4.20891e-07 -2.67838e-05 0)
(-3.67075e-07 -2.73765e-05 0)
(-3.08627e-07 -2.79679e-05 0)
(-2.45411e-07 -2.8557e-05 0)
(-1.77288e-07 -2.91427e-05 0)
(-1.04118e-07 -2.97241e-05 0)
(-2.57513e-08 -3.03003e-05 0)
(5.79924e-08 -3.08705e-05 0)
(1.47343e-07 -3.14344e-05 0)
(2.42609e-07 -3.19918e-05 0)
(3.44181e-07 -3.25431e-05 0)
(4.52497e-07 -3.30883e-05 0)
(5.67933e-07 -3.36272e-05 0)
(6.90643e-07 -3.41581e-05 0)
(8.20449e-07 -3.4678e-05 0)
(9.5696e-07 -3.51833e-05 0)
(1.10001e-06 -3.56715e-05 0)
(1.25018e-06 -3.61434e-05 0)
(1.40876e-06 -3.66018e-05 0)
(1.57689e-06 -3.70481e-05 0)
(1.75449e-06 -3.74793e-05 0)
(1.94045e-06 -3.78897e-05 0)
(2.13289e-06 -3.82751e-05 0)
(2.32572e-06 -3.8627e-05 0)
(2.50179e-06 -3.89189e-05 0)
(2.63903e-06 -3.91187e-05 0)
(2.73388e-06 -3.92365e-05 0)
(2.79847e-06 -3.93063e-05 0)
(2.84286e-06 -3.93492e-05 0)
(2.87143e-06 -3.93739e-05 0)
(2.88722e-06 -3.93852e-05 0)
(2.89627e-06 -3.93893e-05 0)
(2.90701e-06 -3.93907e-05 0)
(3.00408e-06 -3.93947e-05 0)
(0.0809941 0.00116824 0)
(0.228607 0.0018367 0)
(0.348411 0.000267286 0)
(0.455674 -0.000807942 0)
(0.556873 -0.00102576 0)
(0.65305 -0.000365397 0)
(0.740299 0.000813834 0)
(0.815137 0.00208165 0)
(0.876294 0.00327223 0)
(0.923119 0.00427668 0)
(0.956122 0.00493941 0)
(0.977943 0.00512443 0)
(0.992693 0.00490901 0)
(1.00377 0.00450686 0)
(1.01293 0.00406329 0)
(1.02086 0.00364435 0)
(1.02789 0.00326253 0)
(1.03422 0.00291691 0)
(1.03996 0.00260402 0)
(1.04523 0.00231818 0)
(1.05008 0.00205699 0)
(1.05458 0.0018164 0)
(1.05877 0.00159436 0)
(1.0627 0.00138769 0)
(1.06639 0.00119579 0)
(1.06986 0.00101615 0)
(1.07316 0.000847486 0)
(1.07628 0.000688527 0)
(1.07924 0.00053918 0)
(1.08208 0.000396645 0)
(1.08479 0.000262003 0)
(1.08739 0.000133243 0)
(1.08988 1.03554e-05 0)
(1.09228 -0.000107341 0)
(1.09459 -0.000220323 0)
(1.09682 -0.000329024 0)
(1.09899 -0.000434267 0)
(1.10108 -0.000535913 0)
(1.10311 -0.000633989 0)
(1.10507 -0.000729013 0)
(1.107 -0.000822764 0)
(1.10886 -0.00091311 0)
(1.11067 -0.00100141 0)
(1.11243 -0.00108718 0)
(1.11415 -0.00117147 0)
(1.11584 -0.00125498 0)
(1.11749 -0.00133688 0)
(1.11908 -0.00141659 0)
(1.12062 -0.00149394 0)
(1.12212 -0.00157002 0)
(1.1236 -0.00164644 0)
(1.12508 -0.00172405 0)
(1.12654 -0.0018015 0)
(1.12796 -0.00187774 0)
(1.12934 -0.00195283 0)
(1.13076 -0.00203102 0)
(1.1322 -0.00211277 0)
(1.13364 -0.00219508 0)
(1.13502 -0.00227541 0)
(1.1364 -0.00235603 0)
(1.13781 -0.00244142 0)
(1.13924 -0.00252908 0)
(1.14061 -0.00261467 0)
(1.14199 -0.00270175 0)
(1.14343 -0.00279521 0)
(1.14487 -0.00289081 0)
(1.14625 -0.00298359 0)
(1.14763 -0.00307779 0)
(1.14908 -0.00317996 0)
(1.15056 -0.00328703 0)
(1.15199 -0.00339244 0)
(1.15344 -0.00350051 0)
(1.15494 -0.00361634 0)
(1.15643 -0.00373429 0)
(1.15793 -0.00385443 0)
(1.15949 -0.00398425 0)
(1.16106 -0.00411835 0)
(1.16261 -0.00425228 0)
(1.16422 -0.00439626 0)
(1.16589 -0.00454997 0)
(1.16752 -0.00470347 0)
(1.16919 -0.00486434 0)
(1.17092 -0.00503758 0)
(1.17265 -0.0052141 0)
(1.17439 -0.00539719 0)
(1.17614 -0.00558668 0)
(1.17788 -0.00578 0)
(1.17958 -0.00597522 0)
(1.18115 -0.006159 0)
(1.18251 -0.00632422 0)
(1.18363 -0.00646395 0)
(1.18446 -0.00656876 0)
(1.18537 -0.00670827 0)
(1.29329 -0.0395211 0)
(1.29329 -0.039521 0)
(1.29329 -0.0395211 0)
(1.2933 -0.039521 0)
(1.2933 -0.0395211 0)
(1.2933 -0.039521 0)
(1.2933 -0.0395211 0)
(1.2933 -0.039521 0)
(1.2933 -0.0395211 0)
(1.2933 -0.039521 0)
(1.2933 -0.0395211 0)
(1.2933 -0.039521 0)
(1.2933 -0.0395211 0)
(1.2933 -0.039521 0)
(1.2933 -0.0395211 0)
(1.2933 -0.039521 0)
(1.2933 -0.0395211 0)
(1.2933 -0.039521 0)
(1.2933 -0.0395211 0)
(1.2933 -0.039521 0)
(1.2933 -0.0395211 0)
(1.2933 -0.039521 0)
(1.2933 -0.0395211 0)
(1.2933 -0.039521 0)
(1.2933 -0.0395211 0)
(1.2933 -0.039521 0)
(1.2933 -0.0395211 0)
(1.2933 -0.039521 0)
(1.2933 -0.0395211 0)
(1.2933 -0.039521 0)
(1.2933 -0.0395211 0)
(1.2933 -0.039521 0)
(1.2933 -0.0395211 0)
(1.2933 -0.039521 0)
(1.2933 -0.0395211 0)
(1.2933 -0.039521 0)
(1.2933 -0.0395211 0)
(1.2933 -0.039521 0)
(1.2933 -0.0395211 0)
(1.2933 -0.039521 0)
(1.2933 -0.0395211 0)
(1.2933 -0.039521 0)
(1.2933 -0.0395211 0)
(1.2933 -0.039521 0)
(1.2933 -0.0395211 0)
(1.2933 -0.039521 0)
(1.2933 -0.0395211 0)
(1.2933 -0.039521 0)
(1.2933 -0.0395211 0)
(1.2933 -0.039521 0)
(1.2933 -0.0395211 0)
(1.2933 -0.039521 0)
(1.2933 -0.0395211 0)
(1.2933 -0.039521 0)
(1.2933 -0.0395211 0)
(1.2933 -0.039521 0)
(1.2933 -0.0395211 0)
(1.2933 -0.039521 0)
(1.2933 -0.0395211 0)
(1.2933 -0.039521 0)
(1.2933 -0.0395211 0)
(1.2933 -0.039521 0)
(1.2933 -0.0395211 0)
(1.2933 -0.039521 0)
(1.2933 -0.0395211 0)
(1.2933 -0.039521 0)
(1.2933 -0.0395211 0)
(1.2933 -0.039521 0)
(1.2933 -0.0395211 0)
(1.2933 -0.039521 0)
(1.2933 -0.0395211 0)
(1.2933 -0.039521 0)
(1.2933 -0.0395211 0)
(1.2933 -0.039521 0)
(1.2933 -0.0395211 0)
(1.2933 -0.039521 0)
(1.2933 -0.0395211 0)
(1.2933 -0.039521 0)
(1.2933 -0.0395211 0)
(1.2933 -0.039521 0)
(1.2933 -0.0395211 0)
(1.2933 -0.039521 0)
(1.2933 -0.0395211 0)
(1.2933 -0.039521 0)
(1.2933 -0.0395211 0)
(1.2933 -0.039521 0)
(1.2933 -0.0395211 0)
(1.2933 -0.039521 0)
(1.2933 -0.0395211 0)
(1.2933 -0.039521 0)
(1.2933 -0.0395211 0)
(1.2933 -0.039521 0)
(1.2933 -0.0395211 0)
(1.2933 -0.039521 0)
(1.2933 -0.0395211 0)
(1.2933 -0.039521 0)
(1.2933 -0.0395211 0)
(1.2933 -0.039521 0)
(1.2933 -0.0395211 0)
(1.2933 -0.039521 0)
(1.2933 -0.0395211 0)
(1.2933 -0.039521 0)
(1.2933 -0.0395211 0)
(1.2933 -0.039521 0)
(1.2933 -0.0395211 0)
(1.2933 -0.039521 0)
(1.2933 -0.0395211 0)
(1.2933 -0.039521 0)
(1.2933 -0.0395211 0)
(1.2933 -0.039521 0)
(1.2933 -0.0395211 0)
(1.2933 -0.039521 0)
(1.2933 -0.0395211 0)
(1.2933 -0.0395208 0)
(1.29331 -0.0395124 0)
(1.29333 -0.0391671 0)
(1.29383 -0.0224432 0)
)
;

boundaryField
{
    inandouthalf11
    {
        type            cyclic;
    }
    inandouthalf12
    {
        type            cyclic;
    }
    inandouthalf21
    {
        type            cyclic;
    }
    inandouthalf22
    {
        type            cyclic;
    }
    inandouthalf31
    {
        type            cyclic;
    }
    inandouthalf32
    {
        type            cyclic;
    }
    inandouthalf41
    {
        type            cyclic;
    }
    inandouthalf42
    {
        type            cyclic;
    }
    top
    {
        type            symmetryPlane;
    }
    walls
    {
        type            fixedValue;
        value           uniform (0 0 0);
    }
    frontAndBackPlanes
    {
        type            empty;
    }
}


// ************************************************************************* //
