/*--------------------------------*- C++ -*----------------------------------*\
| =========                 |                                                 |
| \\      /  F ield         | OpenFOAM: The Open Source CFD Toolbox           |
|  \\    /   O peration     | Version:  2.4.x                                 |
|   \\  /    A nd           | Web:      www.OpenFOAM.org                      |
|    \\/     M anipulation  |                                                 |
\*---------------------------------------------------------------------------*/
FoamFile
{
    version     2.0;
    format      ascii;
    class       volVectorField;
    location    "2.1";
    object      Ua_0;
}
// * * * * * * * * * * * * * * * * * * * * * * * * * * * * * * * * * * * * * //

dimensions      [0 1 -1 0 0 0 0];

internalField   nonuniform List<vector> 
360
(
(1.13648e-36 -1.13123e-35 0)
(1.13646e-36 -1.13102e-35 0)
(1.13633e-36 -1.13119e-35 0)
(1.13601e-36 -1.13154e-35 0)
(1.1355e-36 -1.13211e-35 0)
(1.13475e-36 -1.13293e-35 0)
(1.13374e-36 -1.13402e-35 0)
(1.13246e-36 -1.13542e-35 0)
(1.13087e-36 -1.13715e-35 0)
(1.12895e-36 -1.13922e-35 0)
(1.1267e-36 -1.14166e-35 0)
(1.1241e-36 -1.14449e-35 0)
(1.12115e-36 -1.1477e-35 0)
(1.11783e-36 -1.1513e-35 0)
(1.11415e-36 -1.15529e-35 0)
(1.11012e-36 -1.15967e-35 0)
(1.10573e-36 -1.16443e-35 0)
(1.101e-36 -1.16955e-35 0)
(1.09593e-36 -1.17504e-35 0)
(1.09053e-36 -1.18088e-35 0)
(1.08479e-36 -1.18708e-35 0)
(1.07873e-36 -1.19362e-35 0)
(1.07233e-36 -1.20052e-35 0)
(1.06559e-36 -1.20776e-35 0)
(1.05852e-36 -1.21534e-35 0)
(1.05109e-36 -1.22327e-35 0)
(1.04332e-36 -1.23156e-35 0)
(1.03515e-36 -1.24023e-35 0)
(1.02659e-36 -1.2493e-35 0)
(1.01758e-36 -1.2588e-35 0)
(1.00812e-36 -1.26875e-35 0)
(9.98149e-37 -1.27918e-35 0)
(9.87636e-37 -1.29013e-35 0)
(9.76522e-37 -1.30166e-35 0)
(9.6474e-37 -1.31382e-35 0)
(9.52218e-37 -1.32669e-35 0)
(9.38865e-37 -1.34034e-35 0)
(9.24567e-37 -1.35489e-35 0)
(9.09187e-37 -1.37047e-35 0)
(8.92576e-37 -1.38722e-35 0)
(8.74551e-37 -1.40532e-35 0)
(8.54877e-37 -1.42498e-35 0)
(8.33267e-37 -1.44649e-35 0)
(8.09324e-37 -1.47022e-35 0)
(7.82525e-37 -1.49669e-35 0)
(7.52136e-37 -1.52661e-35 0)
(7.1714e-37 -1.56096e-35 0)
(6.7594e-37 -1.60132e-35 0)
(6.26103e-37 -1.65003e-35 0)
(5.63344e-37 -1.7114e-35 0)
(4.8073e-37 -1.79215e-35 0)
(3.64726e-37 -1.90591e-35 0)
(1.90358e-37 -2.0771e-35 0)
(-9.9786e-38 -2.36414e-35 0)
(-6.34172e-37 -2.89443e-35 0)
(-1.78279e-36 -4.05008e-35 0)
(-4.60434e-36 -6.90827e-35 0)
(-1.31273e-35 -1.56873e-34 0)
(-4.47891e-35 -4.86294e-34 0)
(-2.11059e-34 -2.26393e-33 0)
(-1.29712e-33 -1.4077e-32 0)
(-1.1715e-32 -1.30035e-31 0)
(-1.95632e-31 -2.22366e-30 0)
(-7.81401e-28 -9.26789e-27 0)
(-1.40616e-23 -1.72282e-22 0)
(-3.7739e-18 -4.79314e-17 0)
(-2.91078e-11 -3.84671e-10 0)
(-4.42324e-09 -6.09533e-08 0)
(-3.19289e-08 -4.55096e-07 0)
(-1.01869e-07 -1.485e-06 0)
(-1.99886e-07 -2.94779e-06 0)
(-2.91406e-07 -4.3231e-06 0)
(-3.59222e-07 -5.35291e-06 0)
(-4.05769e-07 -6.07383e-06 0)
(-4.38719e-07 -6.59883e-06 0)
(-4.64121e-07 -7.01751e-06 0)
(-4.85756e-07 -7.38748e-06 0)
(-5.05888e-07 -7.74535e-06 0)
(-5.25852e-07 -8.11508e-06 0)
(-5.4632e-07 -8.51091e-06 0)
(-5.67409e-07 -8.93773e-06 0)
(-5.88798e-07 -9.39169e-06 0)
(-6.09923e-07 -9.86304e-06 0)
(-6.30211e-07 -1.03403e-05 0)
(-6.49259e-07 -1.08141e-05 0)
(-6.66882e-07 -1.12797e-05 0)
(-6.83074e-07 -1.17361e-05 0)
(-6.97923e-07 -1.2185e-05 0)
(-7.11534e-07 -1.26291e-05 0)
(-7.23992e-07 -1.3071e-05 0)
(-7.3534e-07 -1.35125e-05 0)
(-7.45587e-07 -1.39548e-05 0)
(-7.54715e-07 -1.43983e-05 0)
(-7.627e-07 -1.4843e-05 0)
(-7.69509e-07 -1.52892e-05 0)
(-7.75108e-07 -1.57374e-05 0)
(-7.79459e-07 -1.61884e-05 0)
(-7.82512e-07 -1.6643e-05 0)
(-7.84203e-07 -1.71024e-05 0)
(-7.84453e-07 -1.75676e-05 0)
(-7.83161e-07 -1.80397e-05 0)
(-7.80212e-07 -1.85196e-05 0)
(-7.75469e-07 -1.90082e-05 0)
(-7.68779e-07 -1.9506e-05 0)
(-7.59971e-07 -2.00138e-05 0)
(-7.4886e-07 -2.05319e-05 0)
(-7.35247e-07 -2.10604e-05 0)
(-7.18926e-07 -2.15994e-05 0)
(-6.99688e-07 -2.21483e-05 0)
(-6.77324e-07 -2.27066e-05 0)
(-6.51629e-07 -2.32734e-05 0)
(-6.22406e-07 -2.38478e-05 0)
(-5.8947e-07 -2.44285e-05 0)
(-5.52645e-07 -2.50143e-05 0)
(-5.11767e-07 -2.56038e-05 0)
(-4.66683e-07 -2.61958e-05 0)
(-4.17243e-07 -2.67889e-05 0)
(-3.63307e-07 -2.73819e-05 0)
(-3.04735e-07 -2.79736e-05 0)
(-2.41388e-07 -2.85631e-05 0)
(-1.7313e-07 -2.91491e-05 0)
(-9.98217e-08 -2.97309e-05 0)
(-2.13105e-08 -3.03074e-05 0)
(6.2582e-08 -3.08779e-05 0)
(1.52086e-07 -3.14422e-05 0)
(2.47511e-07 -3.2e-05 0)
(3.49247e-07 -3.25516e-05 0)
(4.57732e-07 -3.30972e-05 0)
(5.73344e-07 -3.36364e-05 0)
(6.96235e-07 -3.41676e-05 0)
(8.26226e-07 -3.46879e-05 0)
(9.62925e-07 -3.51934e-05 0)
(1.10617e-06 -3.5682e-05 0)
(1.25653e-06 -3.61541e-05 0)
(1.41531e-06 -3.66128e-05 0)
(1.58365e-06 -3.70594e-05 0)
(1.76147e-06 -3.74909e-05 0)
(1.94765e-06 -3.79015e-05 0)
(2.14032e-06 -3.82872e-05 0)
(2.33337e-06 -3.86393e-05 0)
(2.50962e-06 -3.89314e-05 0)
(2.647e-06 -3.91313e-05 0)
(2.74195e-06 -3.92491e-05 0)
(2.80659e-06 -3.9319e-05 0)
(2.85102e-06 -3.93619e-05 0)
(2.87962e-06 -3.93866e-05 0)
(2.89542e-06 -3.93979e-05 0)
(2.90448e-06 -3.9402e-05 0)
(2.91522e-06 -3.94034e-05 0)
(3.01222e-06 -3.94075e-05 0)
(0.0809449 0.00115097 0)
(0.228658 0.0017938 0)
(0.348556 0.000223712 0)
(0.455897 -0.000841408 0)
(0.557165 -0.00104803 0)
(0.653376 -0.000378787 0)
(0.740618 0.000804606 0)
(0.815439 0.00207427 0)
(0.876575 0.00326597 0)
(0.923375 0.0042708 0)
(0.956353 0.004933 0)
(0.978155 0.00511698 0)
(0.992893 0.00490085 0)
(1.00397 0.0044985 0)
(1.01312 0.00405502 0)
(1.02105 0.00363629 0)
(1.02808 0.00325468 0)
(1.03441 0.00290925 0)
(1.04015 0.00259651 0)
(1.04541 0.0023108 0)
(1.05027 0.00204973 0)
(1.05476 0.00180924 0)
(1.05896 0.00158731 0)
(1.06289 0.00138078 0)
(1.06657 0.00118902 0)
(1.07005 0.00100952 0)
(1.07334 0.000840998 0)
(1.07646 0.000682175 0)
(1.07943 0.000532953 0)
(1.08227 0.000390533 0)
(1.08497 0.000255992 0)
(1.08757 0.000127325 0)
(1.09006 4.52199e-06 0)
(1.09246 -0.000113094 0)
(1.09477 -0.000225999 0)
(1.09701 -0.000334623 0)
(1.09917 -0.000439789 0)
(1.10126 -0.000541359 0)
(1.10329 -0.000639361 0)
(1.10525 -0.000734311 0)
(1.10718 -0.000827988 0)
(1.10904 -0.000918267 0)
(1.11085 -0.0010065 0)
(1.11261 -0.00109222 0)
(1.11433 -0.00117644 0)
(1.11602 -0.0012599 0)
(1.11767 -0.00134175 0)
(1.11926 -0.00142141 0)
(1.1208 -0.00149872 0)
(1.1223 -0.00157476 0)
(1.12378 -0.00165115 0)
(1.12526 -0.00172872 0)
(1.12671 -0.00180615 0)
(1.12813 -0.00188236 0)
(1.12952 -0.00195743 0)
(1.13094 -0.0020356 0)
(1.13238 -0.00211731 0)
(1.13381 -0.0021996 0)
(1.1352 -0.00227992 0)
(1.13657 -0.00236052 0)
(1.13799 -0.00244589 0)
(1.13941 -0.00253354 0)
(1.14079 -0.00261911 0)
(1.14217 -0.00270618 0)
(1.14361 -0.00279962 0)
(1.14504 -0.00289522 0)
(1.14642 -0.00298801 0)
(1.1478 -0.00308221 0)
(1.14925 -0.00318437 0)
(1.15073 -0.00329144 0)
(1.15217 -0.00339688 0)
(1.15361 -0.00350496 0)
(1.15511 -0.0036208 0)
(1.15661 -0.00373876 0)
(1.1581 -0.00385892 0)
(1.15967 -0.00398875 0)
(1.16124 -0.00412287 0)
(1.16279 -0.00425683 0)
(1.1644 -0.00440082 0)
(1.16606 -0.00455455 0)
(1.1677 -0.00470807 0)
(1.16936 -0.00486896 0)
(1.1711 -0.00504221 0)
(1.17282 -0.00521875 0)
(1.17457 -0.00540186 0)
(1.17632 -0.00559136 0)
(1.17806 -0.0057847 0)
(1.17976 -0.00597996 0)
(1.18132 -0.00616381 0)
(1.18269 -0.00632918 0)
(1.18381 -0.00646919 0)
(1.18464 -0.0065745 0)
(1.18556 -0.00671511 0)
(1.29345 -0.0395212 0)
(1.29345 -0.039521 0)
(1.29345 -0.0395211 0)
(1.29345 -0.039521 0)
(1.29346 -0.0395211 0)
(1.29346 -0.039521 0)
(1.29346 -0.0395211 0)
(1.29346 -0.039521 0)
(1.29346 -0.0395211 0)
(1.29346 -0.039521 0)
(1.29346 -0.0395211 0)
(1.29346 -0.039521 0)
(1.29346 -0.0395211 0)
(1.29346 -0.039521 0)
(1.29346 -0.0395211 0)
(1.29346 -0.039521 0)
(1.29346 -0.0395211 0)
(1.29346 -0.039521 0)
(1.29346 -0.0395211 0)
(1.29346 -0.0395211 0)
(1.29346 -0.0395211 0)
(1.29346 -0.0395211 0)
(1.29346 -0.0395211 0)
(1.29346 -0.0395211 0)
(1.29346 -0.0395211 0)
(1.29346 -0.0395211 0)
(1.29346 -0.0395211 0)
(1.29346 -0.0395211 0)
(1.29346 -0.0395211 0)
(1.29346 -0.0395211 0)
(1.29346 -0.0395211 0)
(1.29346 -0.0395211 0)
(1.29346 -0.0395211 0)
(1.29346 -0.0395211 0)
(1.29346 -0.0395211 0)
(1.29346 -0.0395211 0)
(1.29346 -0.0395211 0)
(1.29346 -0.0395211 0)
(1.29346 -0.0395211 0)
(1.29346 -0.0395211 0)
(1.29346 -0.0395211 0)
(1.29346 -0.0395211 0)
(1.29346 -0.0395211 0)
(1.29346 -0.0395211 0)
(1.29346 -0.0395211 0)
(1.29346 -0.0395211 0)
(1.29346 -0.0395211 0)
(1.29346 -0.0395211 0)
(1.29346 -0.0395211 0)
(1.29346 -0.0395211 0)
(1.29346 -0.0395211 0)
(1.29346 -0.0395211 0)
(1.29346 -0.0395211 0)
(1.29346 -0.0395211 0)
(1.29346 -0.0395211 0)
(1.29346 -0.0395211 0)
(1.29346 -0.0395211 0)
(1.29346 -0.0395211 0)
(1.29346 -0.0395211 0)
(1.29346 -0.0395211 0)
(1.29346 -0.0395211 0)
(1.29346 -0.0395211 0)
(1.29346 -0.0395211 0)
(1.29346 -0.0395211 0)
(1.29346 -0.0395211 0)
(1.29346 -0.0395211 0)
(1.29346 -0.0395211 0)
(1.29346 -0.0395211 0)
(1.29346 -0.0395211 0)
(1.29346 -0.0395211 0)
(1.29346 -0.0395211 0)
(1.29346 -0.0395211 0)
(1.29346 -0.0395211 0)
(1.29346 -0.0395211 0)
(1.29346 -0.0395211 0)
(1.29346 -0.0395211 0)
(1.29346 -0.0395211 0)
(1.29346 -0.0395211 0)
(1.29346 -0.0395211 0)
(1.29346 -0.0395211 0)
(1.29346 -0.0395211 0)
(1.29346 -0.0395211 0)
(1.29346 -0.0395211 0)
(1.29346 -0.0395211 0)
(1.29346 -0.0395211 0)
(1.29346 -0.0395211 0)
(1.29346 -0.0395211 0)
(1.29346 -0.0395211 0)
(1.29346 -0.0395211 0)
(1.29346 -0.0395211 0)
(1.29346 -0.0395211 0)
(1.29346 -0.0395211 0)
(1.29346 -0.0395211 0)
(1.29346 -0.0395211 0)
(1.29346 -0.0395211 0)
(1.29346 -0.0395211 0)
(1.29346 -0.0395211 0)
(1.29346 -0.0395211 0)
(1.29346 -0.0395211 0)
(1.29346 -0.0395211 0)
(1.29346 -0.0395211 0)
(1.29346 -0.0395211 0)
(1.29346 -0.0395211 0)
(1.29346 -0.0395211 0)
(1.29346 -0.0395211 0)
(1.29346 -0.0395211 0)
(1.29346 -0.0395211 0)
(1.29346 -0.0395211 0)
(1.29346 -0.0395211 0)
(1.29346 -0.0395211 0)
(1.29346 -0.0395211 0)
(1.29346 -0.0395211 0)
(1.29346 -0.0395211 0)
(1.29346 -0.0395209 0)
(1.29346 -0.0395124 0)
(1.29348 -0.0391671 0)
(1.29399 -0.0224433 0)
)
;

boundaryField
{
    inandouthalf11
    {
        type            cyclic;
    }
    inandouthalf12
    {
        type            cyclic;
    }
    inandouthalf21
    {
        type            cyclic;
    }
    inandouthalf22
    {
        type            cyclic;
    }
    inandouthalf31
    {
        type            cyclic;
    }
    inandouthalf32
    {
        type            cyclic;
    }
    inandouthalf41
    {
        type            cyclic;
    }
    inandouthalf42
    {
        type            cyclic;
    }
    top
    {
        type            symmetryPlane;
    }
    walls
    {
        type            fixedValue;
        value           uniform (0 0 0);
    }
    frontAndBackPlanes
    {
        type            empty;
    }
}


// ************************************************************************* //
