/*--------------------------------*- C++ -*----------------------------------*\
| =========                 |                                                 |
| \\      /  F ield         | OpenFOAM: The Open Source CFD Toolbox           |
|  \\    /   O peration     | Version:  2.4.x                                 |
|   \\  /    A nd           | Web:      www.OpenFOAM.org                      |
|    \\/     M anipulation  |                                                 |
\*---------------------------------------------------------------------------*/
FoamFile
{
    version     2.0;
    format      ascii;
    class       volVectorField;
    location    "2.1";
    object      Ur;
}
// * * * * * * * * * * * * * * * * * * * * * * * * * * * * * * * * * * * * * //

dimensions      [0 1 -1 0 0 0 0];

internalField   nonuniform List<vector> 
360
(
(-0.000170008 4.82683e-14 0)
(-0.000170298 1.45015e-13 0)
(-0.0001703 2.42075e-13 0)
(-0.0001703 3.39367e-13 0)
(-0.0001703 4.36701e-13 0)
(-0.000170301 5.34267e-13 0)
(-0.000170301 6.31917e-13 0)
(-0.000170303 7.29334e-13 0)
(-0.000170303 8.2673e-13 0)
(-0.000170304 9.24065e-13 0)
(-0.000170305 1.02103e-12 0)
(-0.000170305 1.11802e-12 0)
(-0.000170307 1.21474e-12 0)
(-0.000170308 1.31128e-12 0)
(-0.00017031 1.40807e-12 0)
(-0.000170311 1.50482e-12 0)
(-0.000170313 1.60111e-12 0)
(-0.000170314 1.69676e-12 0)
(-0.000170315 1.7923e-12 0)
(-0.000170318 1.8878e-12 0)
(-0.00017032 1.98289e-12 0)
(-0.000170323 2.07761e-12 0)
(-0.000170325 2.17174e-12 0)
(-0.000170328 2.26574e-12 0)
(-0.000170331 2.35972e-12 0)
(-0.000170334 2.45347e-12 0)
(-0.000170337 2.54645e-12 0)
(-0.000170341 2.63893e-12 0)
(-0.000170345 2.73106e-12 0)
(-0.00017035 2.82265e-12 0)
(-0.000170354 2.91398e-12 0)
(-0.00017036 3.00499e-12 0)
(-0.000170364 3.09546e-12 0)
(-0.000170371 3.18566e-12 0)
(-0.000170377 3.27538e-12 0)
(-0.000170384 3.36455e-12 0)
(-0.000170391 3.45341e-12 0)
(-0.0001704 3.54187e-12 0)
(-0.00017041 3.62997e-12 0)
(-0.000170418 3.71753e-12 0)
(-0.00017043 3.80422e-12 0)
(-0.000170441 3.89069e-12 0)
(-0.000170453 3.9764e-12 0)
(-0.000170467 4.06148e-12 0)
(-0.000170481 4.14628e-12 0)
(-0.000170497 4.23047e-12 0)
(-0.000170514 4.31415e-12 0)
(-0.000170532 4.39734e-12 0)
(-0.000170552 4.48017e-12 0)
(-0.000170575 4.56276e-12 0)
(-0.000170597 4.64438e-12 0)
(-0.000170623 4.72526e-12 0)
(-0.00017065 4.80577e-12 0)
(-0.000170681 4.8858e-12 0)
(-0.000170712 4.96508e-12 0)
(-0.000170748 5.0438e-12 0)
(-0.000170785 5.12205e-12 0)
(-0.000170827 5.19965e-12 0)
(-0.000170871 5.2763e-12 0)
(-0.000170919 5.35226e-12 0)
(-0.000170972 5.42784e-12 0)
(-0.000171028 5.50241e-12 0)
(-0.000171089 5.57716e-12 0)
(-0.000171156 5.59772e-12 0)
(-0.000171227 1.60695e-11 0)
(-0.000171305 -1.47536e-10 0)
(-0.000171389 2.23985e-09 0)
(-0.000171472 2.28578e-07 0)
(-0.000171536 1.36376e-06 0)
(-0.000171562 3.96095e-06 0)
(-0.000171561 7.52011e-06 0)
(-0.000171559 1.09374e-05 0)
(-0.000171575 1.35822e-05 0)
(-0.000171613 1.54664e-05 0)
(-0.000171668 1.68413e-05 0)
(-0.000171735 1.7932e-05 0)
(-0.000171808 1.88897e-05 0)
(-0.000171886 1.98112e-05 0)
(-0.000171966 2.07589e-05 0)
(-0.000172045 2.17693e-05 0)
(-0.000172121 2.28553e-05 0)
(-0.000172196 2.4008e-05 0)
(-0.000172269 2.52042e-05 0)
(-0.000172341 2.64159e-05 0)
(-0.000172415 2.76203e-05 0)
(-0.000172491 2.88049e-05 0)
(-0.00017257 2.99665e-05 0)
(-0.000172651 3.1109e-05 0)
(-0.000172735 3.22387e-05 0)
(-0.000172821 3.33621e-05 0)
(-0.000172908 3.44839e-05 0)
(-0.000172997 3.56069e-05 0)
(-0.000173087 3.67323e-05 0)
(-0.000173179 3.78605e-05 0)
(-0.000173273 3.89922e-05 0)
(-0.000173368 4.01285e-05 0)
(-0.000173466 4.12714e-05 0)
(-0.000173566 4.24232e-05 0)
(-0.000173668 4.35867e-05 0)
(-0.000173772 4.47644e-05 0)
(-0.000173878 4.5959e-05 0)
(-0.000173986 4.71728e-05 0)
(-0.000174096 4.8408e-05 0)
(-0.000174209 4.96662e-05 0)
(-0.000174324 5.09488e-05 0)
(-0.000174442 5.22568e-05 0)
(-0.000174563 5.35905e-05 0)
(-0.000174686 5.49497e-05 0)
(-0.000174812 5.63333e-05 0)
(-0.000174941 5.77397e-05 0)
(-0.000175073 5.91669e-05 0)
(-0.000175208 6.0612e-05 0)
(-0.000175347 6.20722e-05 0)
(-0.000175489 6.3544e-05 0)
(-0.000175636 6.50241e-05 0)
(-0.000175787 6.65091e-05 0)
(-0.000175942 6.79957e-05 0)
(-0.000176101 6.94807e-05 0)
(-0.000176266 7.09612e-05 0)
(-0.000176436 7.24343e-05 0)
(-0.000176612 7.38972e-05 0)
(-0.000176794 7.53476e-05 0)
(-0.000176981 7.6783e-05 0)
(-0.000177176 7.82018e-05 0)
(-0.000177378 7.96027e-05 0)
(-0.000177587 8.09854e-05 0)
(-0.000177805 8.23503e-05 0)
(-0.000178032 8.36975e-05 0)
(-0.000178268 8.50257e-05 0)
(-0.000178515 8.63308e-05 0)
(-0.000178772 8.76054e-05 0)
(-0.000179038 8.88408e-05 0)
(-0.000179317 9.00312e-05 0)
(-0.000179611 9.11776e-05 0)
(-0.000179924 9.2286e-05 0)
(-0.000180255 9.3359e-05 0)
(-0.000180599 9.43887e-05 0)
(-0.000180962 9.53608e-05 0)
(-0.000181362 9.62609e-05 0)
(-0.000181815 9.70667e-05 0)
(-0.000182285 9.77238e-05 0)
(-0.000182691 9.8146e-05 0)
(-0.000183187 9.83608e-05 0)
(-0.000183873 9.84338e-05 0)
(-0.000184744 9.83988e-05 0)
(-0.000185858 9.82791e-05 0)
(-0.000187271 9.80665e-05 0)
(-0.000189177 9.75928e-05 0)
(-0.000192611 0.000101842 0)
(2.16147e-05 4.94299e-05 0)
(0.0123166 -0.00165141 0)
(0.0128407 -0.00192681 0)
(0.00473639 -0.000269204 0)
(0.00628804 0.00082272 0)
(0.0219924 0.00105781 0)
(0.0510396 0.000353681 0)
(0.0736323 -0.000806438 0)
(0.0875956 -0.00212624 0)
(0.102284 -0.00327299 0)
(0.12035 -0.00432223 0)
(0.140359 -0.00493498 0)
(0.158409 -0.00515021 0)
(0.171268 -0.00489675 0)
(0.179224 -0.00452286 0)
(0.184041 -0.00405067 0)
(0.18714 -0.0036576 0)
(0.189138 -0.00325083 0)
(0.190336 -0.00292868 0)
(0.191019 -0.00259321 0)
(0.191276 -0.00232877 0)
(0.191274 -0.0020472 0)
(0.191044 -0.00182581 0)
(0.19068 -0.00158565 0)
(0.190171 -0.00139594 0)
(0.189584 -0.00118817 0)
(0.188908 -0.00102329 0)
(0.188173 -0.000840904 0)
(0.18737 -0.000694645 0)
(0.186532 -0.000533558 0)
(0.185637 -0.000401833 0)
(0.18471 -0.000257248 0)
(0.183746 -0.000137605 0)
(0.182749 -6.36681e-06 0)
(0.181728 0.0001037 0)
(0.18068 0.000223646 0)
(0.179612 0.000326003 0)
(0.178519 0.000437019 0)
(0.177411 0.00053342 0)
(0.176294 0.000636257 0)
(0.175166 0.000726965 0)
(0.174009 0.000824626 0)
(0.172857 0.000911432 0)
(0.171698 0.00100293 0)
(0.170542 0.00108581 0)
(0.169378 0.00117272 0)
(0.168201 0.00125386 0)
(0.167026 0.0013379 0)
(0.165868 0.00141568 0)
(0.164732 0.00149476 0)
(0.163605 0.00156928 0)
(0.162465 0.00164712 0)
(0.161305 0.00172343 0)
(0.160146 0.00180208 0)
(0.159006 0.00187722 0)
(0.157881 0.00195332 0)
(0.156712 0.00203057 0)
(0.155497 0.00211319 0)
(0.154277 0.00219469 0)
(0.153089 0.00227578 0)
(0.151899 0.00235569 0)
(0.150654 0.00244174 0)
(0.149388 0.00252878 0)
(0.148156 0.00261496 0)
(0.14691 0.00270148 0)
(0.145598 0.00279547 0)
(0.144273 0.00289057 0)
(0.142994 0.00298383 0)
(0.141708 0.00307757 0)
(0.140344 0.00318017 0)
(0.138945 0.00328683 0)
(0.137577 0.00339264 0)
(0.136196 0.00350033 0)
(0.134756 0.00361652 0)
(0.133313 0.00373412 0)
(0.131863 0.00385459 0)
(0.130343 0.00398409 0)
(0.128807 0.00411851 0)
(0.127292 0.00425213 0)
(0.125709 0.00439641 0)
(0.124072 0.00454983 0)
(0.12246 0.00470361 0)
(0.120813 0.00486421 0)
(0.119098 0.00503772 0)
(0.117386 0.00521397 0)
(0.115657 0.00539732 0)
(0.113918 0.00558655 0)
(0.112188 0.00578012 0)
(0.110496 0.0059751 0)
(0.10894 0.00615912 0)
(0.107581 0.0063241 0)
(0.10647 0.00646407 0)
(0.105644 0.00656864 0)
(0.104734 0.00670838 0)
(-0.00317896 0.039521 0)
(-0.00317888 0.0395211 0)
(-0.00317879 0.039521 0)
(-0.0031787 0.0395211 0)
(-0.00317863 0.039521 0)
(-0.00317857 0.0395211 0)
(-0.00317853 0.039521 0)
(-0.00317849 0.0395211 0)
(-0.00317846 0.039521 0)
(-0.00317843 0.0395211 0)
(-0.00317842 0.039521 0)
(-0.00317839 0.0395211 0)
(-0.00317839 0.039521 0)
(-0.00317837 0.0395211 0)
(-0.00317837 0.039521 0)
(-0.00317836 0.0395211 0)
(-0.00317836 0.039521 0)
(-0.00317835 0.0395211 0)
(-0.00317835 0.039521 0)
(-0.00317834 0.0395211 0)
(-0.00317834 0.039521 0)
(-0.00317834 0.0395211 0)
(-0.00317834 0.039521 0)
(-0.00317834 0.0395211 0)
(-0.00317834 0.039521 0)
(-0.00317834 0.0395211 0)
(-0.00317834 0.039521 0)
(-0.00317834 0.0395211 0)
(-0.00317834 0.039521 0)
(-0.00317834 0.0395211 0)
(-0.00317834 0.039521 0)
(-0.00317834 0.0395211 0)
(-0.00317834 0.039521 0)
(-0.00317834 0.0395211 0)
(-0.00317834 0.039521 0)
(-0.00317834 0.0395211 0)
(-0.00317834 0.039521 0)
(-0.00317834 0.0395211 0)
(-0.00317834 0.039521 0)
(-0.00317834 0.0395211 0)
(-0.00317834 0.039521 0)
(-0.00317834 0.0395211 0)
(-0.00317834 0.039521 0)
(-0.00317834 0.0395211 0)
(-0.00317834 0.039521 0)
(-0.00317834 0.0395211 0)
(-0.00317834 0.039521 0)
(-0.00317834 0.0395211 0)
(-0.00317834 0.039521 0)
(-0.00317834 0.0395211 0)
(-0.00317834 0.039521 0)
(-0.00317834 0.0395211 0)
(-0.00317834 0.039521 0)
(-0.00317834 0.0395211 0)
(-0.00317834 0.039521 0)
(-0.00317834 0.0395211 0)
(-0.00317834 0.039521 0)
(-0.00317834 0.0395211 0)
(-0.00317834 0.039521 0)
(-0.00317834 0.0395211 0)
(-0.00317834 0.039521 0)
(-0.00317834 0.0395211 0)
(-0.00317834 0.039521 0)
(-0.00317834 0.0395211 0)
(-0.00317834 0.039521 0)
(-0.00317834 0.0395211 0)
(-0.00317834 0.039521 0)
(-0.00317834 0.0395211 0)
(-0.00317834 0.039521 0)
(-0.00317834 0.0395211 0)
(-0.00317834 0.039521 0)
(-0.00317834 0.0395211 0)
(-0.00317834 0.039521 0)
(-0.00317834 0.0395211 0)
(-0.00317834 0.039521 0)
(-0.00317834 0.0395211 0)
(-0.00317834 0.039521 0)
(-0.00317834 0.0395211 0)
(-0.00317834 0.039521 0)
(-0.00317834 0.0395211 0)
(-0.00317834 0.039521 0)
(-0.00317834 0.0395211 0)
(-0.00317834 0.039521 0)
(-0.00317834 0.0395211 0)
(-0.00317834 0.039521 0)
(-0.00317834 0.0395211 0)
(-0.00317834 0.039521 0)
(-0.00317834 0.0395211 0)
(-0.00317834 0.039521 0)
(-0.00317834 0.0395211 0)
(-0.00317834 0.039521 0)
(-0.00317834 0.0395211 0)
(-0.00317834 0.039521 0)
(-0.00317834 0.0395211 0)
(-0.00317834 0.039521 0)
(-0.00317834 0.0395211 0)
(-0.00317834 0.039521 0)
(-0.00317834 0.0395211 0)
(-0.00317834 0.039521 0)
(-0.00317834 0.0395211 0)
(-0.00317834 0.039521 0)
(-0.00317834 0.0395211 0)
(-0.00317834 0.039521 0)
(-0.00317834 0.0395211 0)
(-0.00317834 0.039521 0)
(-0.00317834 0.0395211 0)
(-0.00317834 0.039521 0)
(-0.00317834 0.0395211 0)
(-0.00317834 0.039521 0)
(-0.00317834 0.0395211 0)
(-0.00317834 0.039521 0)
(-0.00317834 0.0395211 0)
(-0.00317834 0.039521 0)
(-0.00317837 0.0395209 0)
(-0.00317925 0.0395124 0)
(-0.00320077 0.0391671 0)
(-0.00370227 0.0224432 0)
)
;

boundaryField
{
    inandouthalf11
    {
        type            cyclic;
    }
    inandouthalf12
    {
        type            cyclic;
    }
    inandouthalf21
    {
        type            cyclic;
    }
    inandouthalf22
    {
        type            cyclic;
    }
    inandouthalf31
    {
        type            cyclic;
    }
    inandouthalf32
    {
        type            cyclic;
    }
    inandouthalf41
    {
        type            cyclic;
    }
    inandouthalf42
    {
        type            cyclic;
    }
    top
    {
        type            symmetryPlane;
    }
    walls
    {
        type            calculated;
        value           uniform (0 0 0);
    }
    frontAndBackPlanes
    {
        type            empty;
    }
}


// ************************************************************************* //
