/*--------------------------------*- C++ -*----------------------------------*\
| =========                 |                                                 |
| \\      /  F ield         | OpenFOAM: The Open Source CFD Toolbox           |
|  \\    /   O peration     | Version:  2.4.x                                 |
|   \\  /    A nd           | Web:      www.OpenFOAM.org                      |
|    \\/     M anipulation  |                                                 |
\*---------------------------------------------------------------------------*/
FoamFile
{
    version     2.0;
    format      ascii;
    class       volVectorField;
    location    "5.25";
    object      ddt0(Ua);
}
// * * * * * * * * * * * * * * * * * * * * * * * * * * * * * * * * * * * * * //

dimensions      [0 1 -2 0 0 0 0];

internalField   nonuniform List<vector> 
360
(
(-1.94853e-34 -7.40127e-33 0)
(9.19871e-09 4.55103e-08 0)
(2.27257e-08 1.04085e-07 0)
(3.48935e-08 1.51362e-07 0)
(4.61436e-08 1.94057e-07 0)
(5.76001e-08 2.37693e-07 0)
(6.97071e-08 2.83989e-07 0)
(8.24055e-08 3.32409e-07 0)
(9.54929e-08 3.81862e-07 0)
(1.08847e-07 4.3175e-07 0)
(1.22477e-07 4.82165e-07 0)
(1.36452e-07 5.33433e-07 0)
(1.50822e-07 5.85765e-07 0)
(1.65595e-07 6.39152e-07 0)
(1.80749e-07 6.93441e-07 0)
(1.96263e-07 7.4851e-07 0)
(2.12136e-07 8.04332e-07 0)
(2.28395e-07 8.60985e-07 0)
(2.45093e-07 9.18665e-07 0)
(2.62325e-07 9.7773e-07 0)
(2.80224e-07 1.03869e-06 0)
(2.98972e-07 1.10224e-06 0)
(3.18794e-07 1.16926e-06 0)
(3.39925e-07 1.24064e-06 0)
(3.62559e-07 1.3171e-06 0)
(3.86787e-07 1.39896e-06 0)
(4.12517e-07 1.48578e-06 0)
(4.39388e-07 1.5761e-06 0)
(4.6669e-07 1.66712e-06 0)
(4.93323e-07 1.75456e-06 0)
(5.17893e-07 1.83304e-06 0)
(5.38946e-07 1.89704e-06 0)
(5.55365e-07 1.94237e-06 0)
(5.66905e-07 1.96818e-06 0)
(5.7469e-07 1.97876e-06 0)
(5.81555e-07 1.98465e-06 0)
(5.92146e-07 2.0028e-06 0)
(6.12831e-07 2.05592e-06 0)
(6.51703e-07 2.1723e-06 0)
(7.18868e-07 2.38656e-06 0)
(8.27021e-07 2.74205e-06 0)
(9.913e-07 3.29127e-06 0)
(1.22494e-06 4.08265e-06 0)
(1.52356e-06 5.11018e-06 0)
(1.82897e-06 6.18793e-06 0)
(1.99094e-06 6.80019e-06 0)
(1.81956e-06 6.25683e-06 0)
(1.29422e-06 4.44745e-06 0)
(6.77859e-07 2.30517e-06 0)
(2.56135e-07 8.54287e-07 0)
(7.16721e-08 2.32864e-07 0)
(1.60597e-08 5.02524e-08 0)
(3.21272e-09 9.15902e-09 0)
(5.97117e-10 1.00125e-09 0)
(5.66815e-11 -6.44998e-10 0)
(-6.81076e-11 -1.01727e-09 0)
(-1.00711e-10 -1.11284e-09 0)
(-1.09011e-10 -1.13683e-09 0)
(-1.09059e-10 -1.13692e-09 0)
(-1.0495e-10 -1.12514e-09 0)
(-9.75674e-11 -1.10416e-09 0)
(-8.68944e-11 -1.07407e-09 0)
(-7.28764e-11 -1.03497e-09 0)
(-5.58248e-11 -9.87989e-10 0)
(-3.65265e-11 -9.35593e-10 0)
(-1.6076e-11 -8.80962e-10 0)
(4.43298e-12 -8.27119e-10 0)
(2.41765e-11 -7.76202e-10 0)
(4.27196e-11 -7.29224e-10 0)
(5.99981e-11 -6.86185e-10 0)
(7.6219e-11 -6.4638e-10 0)
(9.1728e-11 -6.08784e-10 0)
(1.06902e-10 -5.72366e-10 0)
(1.22095e-10 -5.36181e-10 0)
(1.37612e-10 -4.99449e-10 0)
(1.53687e-10 -4.61597e-10 0)
(1.7048e-10 -4.2226e-10 0)
(1.88088e-10 -3.81235e-10 0)
(2.06575e-10 -3.38415e-10 0)
(2.25978e-10 -2.93746e-10 0)
(2.46327e-10 -2.47208e-10 0)
(2.67651e-10 -1.98777e-10 0)
(2.89988e-10 -1.48406e-10 0)
(3.13373e-10 -9.60546e-11 0)
(3.37839e-10 -4.17003e-11 0)
(3.63396e-10 1.46408e-11 0)
(3.90038e-10 7.29007e-11 0)
(4.17728e-10 1.32952e-10 0)
(4.46407e-10 1.94618e-10 0)
(4.76005e-10 2.57697e-10 0)
(5.06445e-10 3.21989e-10 0)
(5.37657e-10 3.87308e-10 0)
(5.69584e-10 4.53503e-10 0)
(6.02184e-10 5.2046e-10 0)
(6.35425e-10 5.88092e-10 0)
(6.69287e-10 6.5633e-10 0)
(7.03752e-10 7.25117e-10 0)
(7.38803e-10 7.94395e-10 0)
(7.74423e-10 8.64103e-10 0)
(8.10593e-10 9.34179e-10 0)
(8.47291e-10 1.00456e-09 0)
(8.84498e-10 1.07517e-09 0)
(9.22191e-10 1.14595e-09 0)
(9.60349e-10 1.21684e-09 0)
(9.98953e-10 1.28778e-09 0)
(1.03798e-09 1.35869e-09 0)
(1.07741e-09 1.42951e-09 0)
(1.11723e-09 1.50018e-09 0)
(1.1574e-09 1.57063e-09 0)
(1.19792e-09 1.64081e-09 0)
(1.23877e-09 1.71065e-09 0)
(1.27994e-09 1.78012e-09 0)
(1.32143e-09 1.84918e-09 0)
(1.36324e-09 1.91779e-09 0)
(1.4054e-09 1.98594e-09 0)
(1.44793e-09 2.05366e-09 0)
(1.49088e-09 2.12094e-09 0)
(1.5343e-09 2.18785e-09 0)
(1.5783e-09 2.25444e-09 0)
(1.62296e-09 2.32078e-09 0)
(1.66839e-09 2.38696e-09 0)
(1.71473e-09 2.45305e-09 0)
(1.76207e-09 2.5191e-09 0)
(1.81052e-09 2.58509e-09 0)
(1.86011e-09 2.65096e-09 0)
(1.91084e-09 2.71653e-09 0)
(1.96262e-09 2.78151e-09 0)
(2.01524e-09 2.84551e-09 0)
(2.0684e-09 2.90801e-09 0)
(2.12166e-09 2.96837e-09 0)
(2.17443e-09 3.02586e-09 0)
(2.2261e-09 3.07976e-09 0)
(2.2761e-09 3.12949e-09 0)
(2.32411e-09 3.1748e-09 0)
(2.37009e-09 3.2158e-09 0)
(2.41418e-09 3.25276e-09 0)
(2.45665e-09 3.28595e-09 0)
(2.49793e-09 3.31568e-09 0)
(2.53852e-09 3.34244e-09 0)
(2.5783e-09 3.36643e-09 0)
(2.615e-09 3.38658e-09 0)
(2.6441e-09 3.40043e-09 0)
(2.66276e-09 3.40757e-09 0)
(2.67229e-09 3.41024e-09 0)
(2.67647e-09 3.41071e-09 0)
(2.67883e-09 3.41022e-09 0)
(2.68205e-09 3.40913e-09 0)
(0.00481779 0.000107383 0)
(0.0388917 -0.000440082 0)
(0.0429613 -0.000109488 0)
(0.0474833 -0.000436761 0)
(0.0536177 -0.000493295 0)
(0.060322 -0.000545668 0)
(0.0670643 -0.000578805 0)
(0.0735638 -0.000607582 0)
(0.0796761 -0.000637467 0)
(0.0853392 -0.000672251 0)
(0.0905422 -0.000714552 0)
(0.0953024 -0.000765881 0)
(0.0996502 -0.000827016 0)
(0.10362 -0.000897887 0)
(0.107243 -0.000978092 0)
(0.110548 -0.00106699 0)
(0.113559 -0.00116364 0)
(0.116296 -0.00126707 0)
(0.118774 -0.00137647 0)
(0.121003 -0.00149111 0)
(0.122993 -0.00161046 0)
(0.124748 -0.00173416 0)
(0.126268 -0.00186198 0)
(0.127555 -0.00199374 0)
(0.128605 -0.00212923 0)
(0.129416 -0.0022681 0)
(0.129984 -0.00240978 0)
(0.130306 -0.00255343 0)
(0.13038 -0.00269788 0)
(0.130205 -0.00284162 0)
(0.129782 -0.0029828 0)
(0.129114 -0.00311915 0)
(0.128206 -0.00324742 0)
(0.127067 -0.00336199 0)
(0.12571 -0.0034526 0)
(0.12415 -0.00350213 0)
(0.122411 -0.00348646 0)
(0.120524 -0.00337852 0)
(0.118528 -0.00315692 0)
(0.116469 -0.00281625 0)
(0.114395 -0.00237356 0)
(0.112352 -0.00186616 0)
(0.110377 -0.00134076 0)
(0.108493 -0.000840529 0)
(0.106712 -0.000397138 0)
(0.105035 -2.72453e-05 0)
(0.103458 0.00027074 0)
(0.10198 0.000515121 0)
(0.100606 0.000728513 0)
(0.0993452 0.000923076 0)
(0.0982004 0.00109739 0)
(0.0971669 0.00124492 0)
(0.0962345 0.00136313 0)
(0.0953919 0.00145448 0)
(0.0946189 0.00152223 0)
(0.093899 0.00156898 0)
(0.0932288 0.00160118 0)
(0.0926063 0.00162379 0)
(0.0920209 0.00163498 0)
(0.091466 0.00163675 0)
(0.0909447 0.00163603 0)
(0.0904508 0.00163261 0)
(0.0899739 0.00162438 0)
(0.0895149 0.00161528 0)
(0.0890721 0.0016069 0)
(0.0886399 0.00159859 0)
(0.0882185 0.0015924 0)
(0.0878012 0.00158713 0)
(0.0873862 0.00158278 0)
(0.0869795 0.00158377 0)
(0.0865701 0.00158658 0)
(0.0861509 0.00158822 0)
(0.0857322 0.00159444 0)
(0.0853101 0.00160457 0)
(0.0848769 0.00161543 0)
(0.084433 0.00162777 0)
(0.0839805 0.00164243 0)
(0.0835235 0.00166269 0)
(0.0830539 0.00168512 0)
(0.0825702 0.00170767 0)
(0.082081 0.00173646 0)
(0.0815796 0.0017676 0)
(0.0810636 0.00179774 0)
(0.0805402 0.00182987 0)
(0.080017 0.00186614 0)
(0.0795069 0.00191655 0)
(0.0789863 0.00196242 0)
(0.078429 0.00195025 0)
(0.0778265 0.00179974 0)
(0.0770344 0.00166052 0)
(-0.00457321 0.00353484 0)
(-0.00813112 0.0533345 0)
(-0.0069 0.0375499 0)
(-0.00986705 0.000827686 0)
(-0.00943397 -5.95391e-06 0)
(-0.0102038 5.78308e-05 0)
(-0.0106592 4.75646e-05 0)
(-0.010923 4.07015e-05 0)
(-0.0109043 2.9684e-05 0)
(-0.0104823 1.25968e-05 0)
(-0.00943235 -1.54908e-05 0)
(-0.00731178 -0.000103512 0)
(-0.000987746 -0.00013338 0)
(0.00266958 -6.53264e-05 0)
(0.00299819 -5.94897e-06 0)
(0.00300514 2.40595e-07 0)
(0.00300476 -2.33751e-08 0)
(0.00300481 -6.28478e-09 0)
(0.00300481 -6.42531e-09 0)
(0.00300482 -7.33751e-09 0)
(0.00300483 -6.33055e-09 0)
(0.00300483 -7.39582e-09 0)
(0.00300483 -6.29502e-09 0)
(0.00300484 -7.44636e-09 0)
(0.00300484 -6.25637e-09 0)
(0.00300484 -7.49728e-09 0)
(0.00300484 -6.21341e-09 0)
(0.00300484 -7.55039e-09 0)
(0.00300484 -6.16584e-09 0)
(0.00300484 -7.60679e-09 0)
(0.00300484 -6.11427e-09 0)
(0.00300484 -7.66923e-09 0)
(0.00300484 -6.12683e-09 0)
(0.00300485 -7.53392e-09 0)
(0.00300485 -6.28407e-09 0)
(0.00300485 -7.55163e-09 0)
(0.00300485 -6.08263e-09 0)
(0.00300485 -7.70884e-09 0)
(0.00300485 -6.02154e-09 0)
(0.00300485 -7.77534e-09 0)
(0.00300485 -5.95645e-09 0)
(0.00300485 -7.84482e-09 0)
(0.00300485 -5.88619e-09 0)
(0.00300485 -7.91608e-09 0)
(0.00300485 -5.81049e-09 0)
(0.00300485 -7.99699e-09 0)
(0.00300485 -5.73023e-09 0)
(0.00300485 -8.07885e-09 0)
(0.00300485 -5.64588e-09 0)
(0.00300485 -8.16345e-09 0)
(0.00300485 -5.55836e-09 0)
(0.00300485 -8.25172e-09 0)
(0.00300485 -5.46594e-09 0)
(0.00300485 -8.34377e-09 0)
(0.00300485 -5.36935e-09 0)
(0.00300485 -8.43907e-09 0)
(0.00300485 -5.26884e-09 0)
(0.00300485 -8.53928e-09 0)
(0.00300485 -5.16577e-09 0)
(0.00300485 -8.64561e-09 0)
(0.00300485 -5.06139e-09 0)
(0.00300485 -8.75857e-09 0)
(0.00300485 -4.95399e-09 0)
(0.00300485 -8.87598e-09 0)
(0.00300485 -4.84199e-09 0)
(0.00300485 -8.9966e-09 0)
(0.00300485 -4.72349e-09 0)
(0.00300485 -9.11997e-09 0)
(0.00300485 -4.60337e-09 0)
(0.00300485 -9.24642e-09 0)
(0.00300485 -4.47762e-09 0)
(0.00300485 -9.37017e-09 0)
(0.00300485 -4.33229e-09 0)
(0.00300485 -9.15087e-09 0)
(0.00300485 -4.60482e-09 0)
(0.00300485 -9.15605e-09 0)
(0.00300485 -4.58009e-09 0)
(0.00300485 -9.16231e-09 0)
(0.00300485 -4.55329e-09 0)
(0.00300485 -9.16352e-09 0)
(0.00300485 -4.52196e-09 0)
(0.00300485 -9.15949e-09 0)
(0.00300485 -4.48258e-09 0)
(0.00300485 -9.14742e-09 0)
(0.00300485 -4.43777e-09 0)
(0.00300485 -9.12868e-09 0)
(0.00300485 -4.38581e-09 0)
(0.00300485 -9.09926e-09 0)
(0.00300485 -4.32032e-09 0)
(0.00300485 -9.04867e-09 0)
(0.00300485 -4.21926e-09 0)
(0.00300485 -8.90712e-09 0)
(0.00300485 -3.9527e-09 0)
(0.00300485 -8.6004e-09 0)
(0.00300485 -3.60175e-09 0)
(0.00300485 -8.26278e-09 0)
(0.00300485 -3.23581e-09 0)
(0.00300485 -7.92387e-09 0)
(0.00300485 -2.88868e-09 0)
(0.00300485 -7.5892e-09 0)
(0.00300485 -2.51391e-09 0)
(0.00300485 -7.24734e-09 0)
(0.00300485 -2.20167e-09 0)
(0.00300485 -6.98674e-09 0)
(0.00300485 -1.94217e-09 0)
(0.00300485 -6.78617e-09 0)
(0.00300485 -1.77285e-09 0)
(0.00300485 -6.59621e-09 0)
(0.00300485 -1.47004e-09 0)
(0.00300485 -6.28132e-09 0)
(0.00300485 -1.20514e-09 0)
(0.00300485 -6.0735e-09 0)
(0.00300485 -9.81801e-10 0)
(0.00300485 -5.89357e-09 0)
(0.00300485 -1.00606e-09 0)
(0.00300485 -5.74232e-09 0)
(0.00300485 -8.63221e-11 0)
(0.00300485 -4.56641e-09 0)
(0.00300485 4.22689e-10 0)
(0.00300485 -9.82327e-09 0)
(0.00300487 -8.29388e-07 0)
(0.00300549 -6.59554e-05 0)
(0.00301999 -7.13997e-05 0)
)
;

boundaryField
{
    inandouthalf11
    {
        type            cyclic;
    }
    inandouthalf12
    {
        type            cyclic;
    }
    inandouthalf21
    {
        type            cyclic;
    }
    inandouthalf22
    {
        type            cyclic;
    }
    inandouthalf31
    {
        type            cyclic;
    }
    inandouthalf32
    {
        type            cyclic;
    }
    inandouthalf41
    {
        type            cyclic;
    }
    inandouthalf42
    {
        type            cyclic;
    }
    top
    {
        type            symmetryPlane;
    }
    walls
    {
        type            calculated;
        value           uniform (0 0 0);
    }
    frontAndBackPlanes
    {
        type            empty;
    }
}


// ************************************************************************* //
