/*--------------------------------*- C++ -*----------------------------------*\
| =========                 |                                                 |
| \\      /  F ield         | OpenFOAM: The Open Source CFD Toolbox           |
|  \\    /   O peration     | Version:  2.4.x                                 |
|   \\  /    A nd           | Web:      www.OpenFOAM.org                      |
|    \\/     M anipulation  |                                                 |
\*---------------------------------------------------------------------------*/
FoamFile
{
    version     2.0;
    format      ascii;
    class       surfaceScalarField;
    location    "5.25";
    object      ddt0(phia);
}
// * * * * * * * * * * * * * * * * * * * * * * * * * * * * * * * * * * * * * //

dimensions      [0 3 -2 0 0 0 0];

internalField   nonuniform List<scalar> 
359
(
9.11217e-14
3.02499e-13
5.0839e-13
6.89794e-13
8.63456e-13
1.04344e-12
1.23284e-12
1.42863e-12
1.62724e-12
1.8278e-12
2.03119e-12
2.23838e-12
2.44984e-12
2.6652e-12
2.8839e-12
3.10568e-12
3.33063e-12
3.55931e-12
3.79277e-12
4.03287e-12
4.28185e-12
4.543e-12
4.81979e-12
5.11548e-12
5.43212e-12
5.76948e-12
6.1237e-12
6.4864e-12
6.84331e-12
7.17517e-12
7.46009e-12
7.67888e-12
7.82108e-12
7.89398e-12
7.92691e-12
7.97506e-12
8.11762e-12
8.45659e-12
9.11829e-12
1.02576e-11
1.20675e-11
1.47489e-11
1.83834e-11
2.25894e-11
2.59681e-11
2.61201e-11
2.14225e-11
1.35071e-11
6.31396e-12
2.17155e-12
5.6597e-13
1.18798e-13
2.03249e-14
7.12369e-16
-3.3241e-15
-4.26024e-15
-4.49932e-15
-4.54749e-15
-4.52411e-15
-4.45861e-15
-4.35644e-15
-4.21809e-15
-4.0459e-15
-3.84717e-15
-3.6331e-15
-3.41616e-15
-3.20664e-15
-3.01086e-15
-2.8308e-15
-2.66514e-15
-2.51034e-15
-2.36228e-15
-2.21711e-15
-2.07125e-15
-1.9221e-15
-1.76771e-15
-1.60699e-15
-1.4393e-15
-1.26432e-15
-1.0819e-15
-8.91971e-16
-6.94367e-16
-4.88921e-16
-2.75512e-16
-5.41186e-17
1.7508e-16
4.11706e-16
6.55141e-16
9.04629e-16
1.15937e-15
1.4186e-15
1.68162e-15
1.94793e-15
2.2171e-15
2.48884e-15
2.76289e-15
3.03902e-15
3.317e-15
3.59656e-15
3.87747e-15
4.15945e-15
4.44225e-15
4.7256e-15
5.00924e-15
5.29293e-15
5.57639e-15
5.85937e-15
6.14161e-15
6.42287e-15
6.70292e-15
6.98155e-15
7.25859e-15
7.53392e-15
7.80746e-15
8.0792e-15
8.34919e-15
8.61758e-15
8.88457e-15
9.15043e-15
9.41548e-15
9.68003e-15
9.9443e-15
1.02084e-14
1.04721e-14
1.0735e-14
1.09961e-14
1.1254e-14
1.1507e-14
1.17527e-14
1.19884e-14
1.22112e-14
1.24185e-14
1.26086e-14
1.27812e-14
1.29371e-14
1.30774e-14
1.32034e-14
1.33164e-14
1.34175e-14
1.35056e-14
1.35746e-14
1.3616e-14
1.36355e-14
1.36421e-14
1.36424e-14
1.36345e-14
8.71108e-11
-4.64674e-10
-4.87106e-10
-1.63208e-09
-1.80376e-09
-2.08485e-09
-2.24398e-09
-2.36962e-09
-2.48786e-09
-2.61716e-09
-2.77181e-09
-2.95899e-09
-3.18438e-09
-3.44864e-09
-3.75107e-09
-4.08946e-09
-4.46062e-09
-4.86095e-09
-5.28675e-09
-5.73487e-09
-6.2029e-09
-6.689e-09
-7.19204e-09
-7.71119e-09
-8.24568e-09
-8.79438e-09
-9.35547e-09
-9.92613e-09
-1.05023e-08
-1.10787e-08
-1.16484e-08
-1.22028e-08
-1.27307e-08
-1.32143e-08
-1.36229e-08
-1.39035e-08
-1.39748e-08
-1.37343e-08
-1.30825e-08
-1.19621e-08
-1.03935e-08
-8.48637e-09
-6.41337e-09
-4.35766e-09
-2.46658e-09
-8.35971e-10
4.9724e-10
1.5713e-09
2.47876e-09
3.29617e-09
4.04063e-09
4.68881e-09
5.21851e-09
5.63463e-09
5.95459e-09
6.18471e-09
6.33508e-09
6.44742e-09
6.52365e-09
6.54185e-09
6.53982e-09
6.54142e-09
6.51575e-09
6.47534e-09
6.44647e-09
6.41123e-09
6.37901e-09
6.3636e-09
6.33846e-09
6.3274e-09
6.34775e-09
6.34932e-09
6.35947e-09
6.40195e-09
6.43901e-09
6.4872e-09
6.53996e-09
6.60476e-09
6.70266e-09
6.78232e-09
6.88321e-09
7.01382e-09
7.12774e-09
7.25624e-09
7.39116e-09
7.54573e-09
7.76988e-09
7.82557e-09
7.67687e-09
5.80015e-09
1.2962e-08
1.78702e-07
2.19373e-07
5.57916e-08
1.6617e-09
1.04217e-10
2.13313e-10
1.79985e-10
1.46268e-10
9.37446e-11
3.51215e-12
-9.89878e-11
-6.7149e-10
-5.08395e-10
-1.33435e-11
3.04284e-12
7.43189e-13
-6.80649e-14
-1.22426e-14
-4.08675e-14
-1.37933e-14
-4.11752e-14
-1.3485e-14
-4.15553e-14
-1.31506e-14
-4.19516e-14
-1.27799e-14
-4.23724e-14
-1.23783e-14
-4.28117e-14
-1.19595e-14
-4.32679e-14
-1.16576e-14
-4.34248e-14
-1.15831e-14
-4.35606e-14
-1.14032e-14
-4.36001e-14
-1.12323e-14
-4.40297e-14
-1.08239e-14
-4.44416e-14
-1.04319e-14
-4.4823e-14
-1.00531e-14
-4.51783e-14
-9.74771e-15
-4.54515e-14
-9.50617e-15
-4.56566e-14
-9.32636e-15
-4.58022e-14
-9.20703e-15
-4.58757e-14
-9.16101e-15
-4.58717e-14
-9.19112e-15
-4.57893e-14
-9.30798e-15
-4.56306e-14
-9.52065e-15
-4.53943e-14
-9.83203e-15
-4.50681e-14
-1.02351e-14
-4.46485e-14
-1.07241e-14
-4.41247e-14
-1.1306e-14
-4.3527e-14
-1.19533e-14
-4.28489e-14
-1.26059e-14
-4.20154e-14
-1.33539e-14
-4.13463e-14
-1.39729e-14
-4.06648e-14
-1.4569e-14
-3.99882e-14
-1.51223e-14
-3.93151e-14
-1.56355e-14
-3.86126e-14
-1.61172e-14
-3.78939e-14
-1.65669e-14
-3.71452e-14
-1.69666e-14
-3.63333e-14
-1.7265e-14
-3.53328e-14
-1.70298e-14
-3.35356e-14
-1.62758e-14
-3.15766e-14
-1.54426e-14
-2.95711e-14
-1.46503e-14
-2.76693e-14
-1.37938e-14
-2.56049e-14
-1.30492e-14
-2.39243e-14
-1.25753e-14
-2.23897e-14
-1.24401e-14
-2.1233e-14
-1.20182e-14
-1.92887e-14
-1.13883e-14
-1.78517e-14
-1.11136e-14
-1.6387e-14
-1.10926e-14
-1.66452e-14
-9.58856e-15
-1.08158e-14
-5.79829e-15
-2.28954e-14
-1.67187e-12
-1.33567e-10
2.0798e-09
)
;

boundaryField
{
    inandouthalf11
    {
        type            cyclic;
        value           nonuniform List<scalar> 
100
(
1.94853e-40
-9.19871e-15
-2.27257e-14
-3.48935e-14
-4.61436e-14
-5.76001e-14
-6.97071e-14
-8.24055e-14
-9.54929e-14
-1.08847e-13
-1.22477e-13
-1.36452e-13
-1.50822e-13
-1.65595e-13
-1.80749e-13
-1.96263e-13
-2.12136e-13
-2.28395e-13
-2.45093e-13
-2.62325e-13
-2.80224e-13
-2.98972e-13
-3.18794e-13
-3.39925e-13
-3.62559e-13
-3.86787e-13
-4.12517e-13
-4.39388e-13
-4.6669e-13
-4.93323e-13
-5.17893e-13
-5.38946e-13
-5.55365e-13
-5.66905e-13
-5.7469e-13
-5.81555e-13
-5.92146e-13
-6.12831e-13
-6.51703e-13
-7.18868e-13
-8.27021e-13
-9.913e-13
-1.22494e-12
-1.52356e-12
-1.82897e-12
-1.99094e-12
-1.81956e-12
-1.29422e-12
-6.77859e-13
-2.56135e-13
-7.16721e-14
-1.60597e-14
-3.21272e-15
-5.97117e-16
-5.66815e-17
6.81076e-17
1.00711e-16
1.09011e-16
1.09059e-16
1.0495e-16
9.75674e-17
8.68944e-17
7.28764e-17
5.58248e-17
3.65265e-17
1.6076e-17
-4.43298e-18
-2.41765e-17
-4.27196e-17
-5.99981e-17
-7.6219e-17
-9.1728e-17
-1.06902e-16
-1.22095e-16
-1.37612e-16
-1.53687e-16
-1.7048e-16
-1.88088e-16
-2.06575e-16
-2.25978e-16
-2.46327e-16
-2.67651e-16
-2.89988e-16
-3.13373e-16
-3.37839e-16
-3.63396e-16
-3.90038e-16
-4.17728e-16
-4.46407e-16
-4.76005e-16
-5.06445e-16
-5.37657e-16
-5.69584e-16
-6.02184e-16
-6.35425e-16
-6.69287e-16
-7.03752e-16
-7.38803e-16
-7.74423e-16
-8.10593e-16
)
;
    }
    inandouthalf12
    {
        type            cyclic;
        value           nonuniform List<scalar> 
100
(
-1.94853e-40
9.19871e-15
2.27257e-14
3.48935e-14
4.61436e-14
5.76001e-14
6.97071e-14
8.24055e-14
9.54929e-14
1.08847e-13
1.22477e-13
1.36452e-13
1.50822e-13
1.65595e-13
1.80749e-13
1.96263e-13
2.12136e-13
2.28395e-13
2.45093e-13
2.62325e-13
2.80224e-13
2.98972e-13
3.18794e-13
3.39925e-13
3.62559e-13
3.86787e-13
4.12517e-13
4.39388e-13
4.6669e-13
4.93323e-13
5.17893e-13
5.38946e-13
5.55365e-13
5.66905e-13
5.7469e-13
5.81555e-13
5.92146e-13
6.12831e-13
6.51703e-13
7.18868e-13
8.27021e-13
9.913e-13
1.22494e-12
1.52356e-12
1.82897e-12
1.99094e-12
1.81956e-12
1.29422e-12
6.77859e-13
2.56135e-13
7.16721e-14
1.60597e-14
3.21272e-15
5.97117e-16
5.66815e-17
-6.81076e-17
-1.00711e-16
-1.09011e-16
-1.09059e-16
-1.0495e-16
-9.75674e-17
-8.68944e-17
-7.28764e-17
-5.58248e-17
-3.65265e-17
-1.6076e-17
4.43298e-18
2.41765e-17
4.27196e-17
5.99981e-17
7.6219e-17
9.1728e-17
1.06902e-16
1.22095e-16
1.37612e-16
1.53687e-16
1.7048e-16
1.88088e-16
2.06575e-16
2.25978e-16
2.46327e-16
2.67651e-16
2.89988e-16
3.13373e-16
3.37839e-16
3.63396e-16
3.90038e-16
4.17728e-16
4.46407e-16
4.76005e-16
5.06445e-16
5.37657e-16
5.69584e-16
6.02184e-16
6.35425e-16
6.69287e-16
7.03752e-16
7.38803e-16
7.74423e-16
8.10593e-16
)
;
    }
    inandouthalf21
    {
        type            cyclic;
        value           nonuniform List<scalar> 
100
(
-8.47291e-16
-8.84498e-16
-9.22191e-16
-9.60349e-16
-9.98953e-16
-1.03798e-15
-1.07741e-15
-1.11723e-15
-1.1574e-15
-1.19792e-15
-1.23877e-15
-1.27994e-15
-1.32143e-15
-1.36324e-15
-1.4054e-15
-1.44793e-15
-1.49088e-15
-1.5343e-15
-1.5783e-15
-1.62296e-15
-1.66839e-15
-1.71473e-15
-1.76207e-15
-1.81052e-15
-1.86011e-15
-1.91084e-15
-1.96262e-15
-2.01524e-15
-2.0684e-15
-2.12166e-15
-2.17443e-15
-2.2261e-15
-2.2761e-15
-2.32411e-15
-2.37009e-15
-2.41418e-15
-2.45665e-15
-2.49793e-15
-2.53852e-15
-2.5783e-15
-2.615e-15
-2.6441e-15
-2.66276e-15
-2.67229e-15
-2.67647e-15
-2.67883e-15
-2.68205e-15
-4.81779e-09
-3.88917e-08
-4.29613e-08
-4.74833e-08
-5.36177e-08
-6.0322e-08
-6.70643e-08
-7.35638e-08
-7.96761e-08
-8.53392e-08
-9.05422e-08
-9.53024e-08
-9.96502e-08
-1.0362e-07
-1.07243e-07
-1.10548e-07
-1.13559e-07
-1.16296e-07
-1.18774e-07
-1.21003e-07
-1.22993e-07
-1.24748e-07
-1.26268e-07
-1.27555e-07
-1.28605e-07
-1.29416e-07
-1.29984e-07
-1.30306e-07
-1.3038e-07
-1.30205e-07
-1.29782e-07
-1.29114e-07
-1.28206e-07
-1.27067e-07
-1.2571e-07
-1.2415e-07
-1.22411e-07
-1.20524e-07
-1.18528e-07
-1.16469e-07
-1.14395e-07
-1.12352e-07
-1.10377e-07
-1.08493e-07
-1.06712e-07
-1.05035e-07
-1.03458e-07
-1.0198e-07
-1.00606e-07
-9.93452e-08
-9.82004e-08
-9.71669e-08
-9.62345e-08
)
;
    }
    inandouthalf22
    {
        type            cyclic;
        value           nonuniform List<scalar> 
100
(
8.47291e-16
8.84498e-16
9.22191e-16
9.60349e-16
9.98953e-16
1.03798e-15
1.07741e-15
1.11723e-15
1.1574e-15
1.19792e-15
1.23877e-15
1.27994e-15
1.32143e-15
1.36324e-15
1.4054e-15
1.44793e-15
1.49088e-15
1.5343e-15
1.5783e-15
1.62296e-15
1.66839e-15
1.71473e-15
1.76207e-15
1.81052e-15
1.86011e-15
1.91084e-15
1.96262e-15
2.01524e-15
2.0684e-15
2.12166e-15
2.17443e-15
2.2261e-15
2.2761e-15
2.32411e-15
2.37009e-15
2.41418e-15
2.45665e-15
2.49793e-15
2.53852e-15
2.5783e-15
2.615e-15
2.6441e-15
2.66276e-15
2.67229e-15
2.67647e-15
2.67883e-15
2.68205e-15
4.81779e-09
3.88917e-08
4.29613e-08
4.74833e-08
5.36177e-08
6.0322e-08
6.70643e-08
7.35638e-08
7.96761e-08
8.53392e-08
9.05422e-08
9.53024e-08
9.96502e-08
1.0362e-07
1.07243e-07
1.10548e-07
1.13559e-07
1.16296e-07
1.18774e-07
1.21003e-07
1.22993e-07
1.24748e-07
1.26268e-07
1.27555e-07
1.28605e-07
1.29416e-07
1.29984e-07
1.30306e-07
1.3038e-07
1.30205e-07
1.29782e-07
1.29114e-07
1.28206e-07
1.27067e-07
1.2571e-07
1.2415e-07
1.22411e-07
1.20524e-07
1.18528e-07
1.16469e-07
1.14395e-07
1.12352e-07
1.10377e-07
1.08493e-07
1.06712e-07
1.05035e-07
1.03458e-07
1.0198e-07
1.00606e-07
9.93452e-08
9.82004e-08
9.71669e-08
9.62345e-08
)
;
    }
    inandouthalf31
    {
        type            cyclic;
        value           nonuniform List<scalar> 
110
(
-9.53922e-08
-9.65397e-08
-9.77499e-08
-9.90221e-08
-1.00357e-07
-1.01747e-07
-1.03186e-07
-1.04681e-07
-1.06225e-07
-1.0781e-07
-1.09437e-07
-1.11106e-07
-1.12811e-07
-1.14554e-07
-1.16326e-07
-1.18126e-07
-1.19963e-07
-1.21822e-07
-1.23692e-07
-1.2559e-07
-1.27508e-07
-1.29435e-07
-1.31372e-07
-1.3332e-07
-1.35286e-07
-1.37256e-07
-1.39226e-07
-1.4121e-07
-1.43196e-07
-1.45179e-07
-1.47169e-07
-1.49181e-07
-1.51239e-07
-1.53298e-07
-1.55306e-07
-1.57241e-07
-1.588e-07
9.61861e-09
1.74489e-08
1.51075e-08
2.20424e-08
2.15027e-08
2.37294e-08
2.52916e-08
2.64435e-08
2.6934e-08
2.64174e-08
2.42537e-08
1.91827e-08
2.64398e-09
-7.29093e-09
-8.35458e-09
-8.54392e-09
-8.71625e-09
-8.89329e-09
-9.07382e-09
-9.25802e-09
-9.44595e-09
-9.63769e-09
-9.83332e-09
-1.00329e-08
-1.02366e-08
-1.04444e-08
-1.06563e-08
-1.08726e-08
-1.10933e-08
-1.13185e-08
-1.15482e-08
-1.17826e-08
-1.20218e-08
-1.22658e-08
-1.25148e-08
-1.27688e-08
-1.3028e-08
-1.32924e-08
-1.35622e-08
-1.38375e-08
-1.41183e-08
-1.44049e-08
-1.46973e-08
-1.49956e-08
-1.53e-08
-1.56105e-08
-1.59274e-08
-1.62507e-08
-1.65805e-08
-1.6917e-08
-1.72604e-08
-1.76107e-08
-1.79682e-08
-1.83329e-08
-1.8705e-08
-1.90847e-08
-1.9472e-08
-1.98673e-08
-2.02705e-08
-2.0682e-08
-2.11018e-08
-2.15301e-08
-2.19671e-08
-2.24129e-08
-2.28679e-08
-2.3332e-08
-2.38056e-08
-2.42888e-08
-2.47818e-08
-2.52848e-08
-2.5798e-08
-2.63216e-08
-2.68559e-08
)
;
    }
    inandouthalf32
    {
        type            cyclic;
        value           nonuniform List<scalar> 
110
(
9.53922e-08
9.65397e-08
9.77499e-08
9.90221e-08
1.00357e-07
1.01747e-07
1.03186e-07
1.04681e-07
1.06225e-07
1.0781e-07
1.09437e-07
1.11106e-07
1.12811e-07
1.14554e-07
1.16326e-07
1.18126e-07
1.19963e-07
1.21822e-07
1.23692e-07
1.2559e-07
1.27508e-07
1.29435e-07
1.31372e-07
1.3332e-07
1.35286e-07
1.37256e-07
1.39226e-07
1.4121e-07
1.43196e-07
1.45179e-07
1.47169e-07
1.49181e-07
1.51239e-07
1.53298e-07
1.55306e-07
1.57241e-07
1.588e-07
-9.61861e-09
-1.74489e-08
-1.51075e-08
-2.20424e-08
-2.15027e-08
-2.37294e-08
-2.52916e-08
-2.64435e-08
-2.6934e-08
-2.64174e-08
-2.42537e-08
-1.91827e-08
-2.64398e-09
7.29093e-09
8.35458e-09
8.54392e-09
8.71625e-09
8.89329e-09
9.07382e-09
9.25802e-09
9.44595e-09
9.63769e-09
9.83332e-09
1.00329e-08
1.02366e-08
1.04444e-08
1.06563e-08
1.08726e-08
1.10933e-08
1.13185e-08
1.15482e-08
1.17826e-08
1.20218e-08
1.22658e-08
1.25148e-08
1.27688e-08
1.3028e-08
1.32924e-08
1.35622e-08
1.38375e-08
1.41183e-08
1.44049e-08
1.46973e-08
1.49956e-08
1.53e-08
1.56105e-08
1.59274e-08
1.62507e-08
1.65805e-08
1.6917e-08
1.72604e-08
1.76107e-08
1.79682e-08
1.83329e-08
1.8705e-08
1.90847e-08
1.9472e-08
1.98673e-08
2.02705e-08
2.0682e-08
2.11018e-08
2.15301e-08
2.19671e-08
2.24129e-08
2.28679e-08
2.3332e-08
2.38056e-08
2.42888e-08
2.47818e-08
2.52848e-08
2.5798e-08
2.63216e-08
2.68559e-08
)
;
    }
    inandouthalf41
    {
        type            cyclic;
        value           nonuniform List<scalar> 
50
(
-2.40388e-08
-2.40388e-08
-2.40388e-08
-2.40388e-08
-2.40388e-08
-2.40388e-08
-2.40388e-08
-2.40388e-08
-2.40388e-08
-2.40388e-08
-2.40388e-08
-2.40388e-08
-2.40388e-08
-2.40388e-08
-2.40388e-08
-2.40388e-08
-2.40388e-08
-2.40388e-08
-2.40388e-08
-2.40388e-08
-2.40388e-08
-2.40388e-08
-2.40388e-08
-2.40388e-08
-2.40388e-08
-2.40388e-08
-2.40388e-08
-2.40388e-08
-2.40388e-08
-2.40388e-08
-2.40388e-08
-2.40388e-08
-2.40388e-08
-2.40388e-08
-2.40388e-08
-2.40388e-08
-2.40388e-08
-2.40388e-08
-2.40388e-08
-2.40388e-08
-2.40388e-08
-2.40388e-08
-2.40388e-08
-2.40388e-08
-2.40388e-08
-2.40388e-08
-2.40388e-08
-2.4039e-08
-2.40439e-08
-2.41599e-08
)
;
    }
    inandouthalf42
    {
        type            cyclic;
        value           nonuniform List<scalar> 
50
(
2.40388e-08
2.40388e-08
2.40388e-08
2.40388e-08
2.40388e-08
2.40388e-08
2.40388e-08
2.40388e-08
2.40388e-08
2.40388e-08
2.40388e-08
2.40388e-08
2.40388e-08
2.40388e-08
2.40388e-08
2.40388e-08
2.40388e-08
2.40388e-08
2.40388e-08
2.40388e-08
2.40388e-08
2.40388e-08
2.40388e-08
2.40388e-08
2.40388e-08
2.40388e-08
2.40388e-08
2.40388e-08
2.40388e-08
2.40388e-08
2.40388e-08
2.40388e-08
2.40388e-08
2.40388e-08
2.40388e-08
2.40388e-08
2.40388e-08
2.40388e-08
2.40388e-08
2.40388e-08
2.40388e-08
2.40388e-08
2.40388e-08
2.40388e-08
2.40388e-08
2.40388e-08
2.40388e-08
2.4039e-08
2.40439e-08
2.41599e-08
)
;
    }
    top
    {
        type            symmetryPlane;
        value           uniform 0;
    }
    walls
    {
        type            calculated;
        value           uniform 0;
    }
    frontAndBackPlanes
    {
        type            empty;
        value           nonuniform 0();
    }
}


// ************************************************************************* //
