/*--------------------------------*- C++ -*----------------------------------*\
| =========                 |                                                 |
| \\      /  F ield         | OpenFOAM: The Open Source CFD Toolbox           |
|  \\    /   O peration     | Version:  2.4.x                                 |
|   \\  /    A nd           | Web:      www.OpenFOAM.org                      |
|    \\/     M anipulation  |                                                 |
\*---------------------------------------------------------------------------*/
FoamFile
{
    version     2.0;
    format      ascii;
    class       volScalarField;
    location    "5.25";
    object      ddt0(((1.5*(alpha+1e-08))*rho),Theta);
}
// * * * * * * * * * * * * * * * * * * * * * * * * * * * * * * * * * * * * * //

dimensions      [1 -1 -3 0 0 0 0];

internalField   nonuniform List<scalar> 
360
(
-6.88811e-21
-3.01213e-20
-2.67647e-20
-2.08582e-20
-2.04624e-20
-2.19912e-20
-2.35226e-20
-2.44654e-20
-2.49248e-20
-2.528e-20
-2.57973e-20
-2.64907e-20
-2.72463e-20
-2.79531e-20
-2.85803e-20
-2.91703e-20
-2.97811e-20
-3.04696e-20
-3.13141e-20
-3.24024e-20
-3.38329e-20
-3.57294e-20
-3.81717e-20
-4.11438e-20
-4.45112e-20
-4.79656e-20
-5.10071e-20
-5.29102e-20
-5.27285e-20
-4.95344e-20
-4.28245e-20
-3.29137e-20
-2.13353e-20
-1.08532e-20
-4.92052e-21
-6.95015e-21
-1.98875e-20
-4.68136e-20
-9.28024e-20
-1.68161e-19
-2.92862e-19
-4.97416e-19
-8.02185e-19
-1.11803e-18
-1.04547e-18
-3.54981e-20
1.40547e-18
1.67459e-18
8.25927e-19
1.93205e-19
2.28784e-20
1.54606e-21
7.52492e-23
3.90042e-24
3.22583e-25
3.01805e-26
-1.52675e-26
-2.74807e-26
-3.21477e-26
-3.60102e-26
-3.922e-26
-4.21012e-26
-4.49122e-26
-4.70599e-26
-4.88449e-26
-5.00504e-26
-5.10332e-26
-5.15349e-26
-5.18401e-26
-5.27935e-26
-5.42106e-26
-5.4818e-26
-5.60335e-26
-5.75312e-26
-5.89118e-26
-6.02048e-26
-6.14608e-26
-6.30132e-26
-6.46597e-26
-6.6244e-26
-6.81331e-26
-7.01366e-26
-7.20406e-26
-7.40954e-26
-7.60387e-26
-7.79424e-26
-7.97528e-26
-8.14286e-26
-8.32589e-26
-8.49952e-26
-8.68374e-26
-8.86445e-26
-9.05486e-26
-9.24952e-26
-9.43928e-26
-9.63957e-26
-9.83456e-26
-1.0034e-25
-1.02319e-25
-1.04451e-25
-1.06626e-25
-1.08782e-25
-1.10968e-25
-1.13297e-25
-1.15642e-25
-1.18137e-25
-1.20693e-25
-1.23285e-25
-1.26011e-25
-1.28812e-25
-1.3176e-25
-1.34787e-25
-1.3795e-25
-1.41244e-25
-1.44752e-25
-1.48368e-25
-1.52172e-25
-1.56155e-25
-1.60346e-25
-1.64852e-25
-1.69501e-25
-1.74381e-25
-1.79614e-25
-1.84986e-25
-1.90624e-25
-1.96663e-25
-2.02927e-25
-2.09808e-25
-2.1705e-25
-2.24491e-25
-2.32241e-25
-1.73255e-23
-3.38659e-18
-5.65027e-17
-4.77934e-16
-3.53101e-15
-2.61393e-14
-2.06192e-13
-1.79925e-12
-1.78415e-11
-2.05259e-10
-2.7883e-09
-4.55377e-08
-9.23912e-07
-3.50783e-05
-0.00241305
-0.055457
-0.680682
-1.21874
-0.673399
-0.432346
-0.302137
-0.21437
-0.151583
-0.106746
-0.0749707
-0.0523447
-0.0359599
-0.0238608
-0.0147848
-0.00792573
-0.00274972
0.0011191
0.00395971
0.0059879
0.00737461
0.00825748
0.00874713
0.00893405
0.00889013
0.00867394
0.00833164
0.0079004
0.00740988
0.00688325
0.00633895
0.0057914
0.00525187
0.00472884
0.00422872
0.00375594
0.00331334
0.00290226
0.002523
0.00217529
0.00185894
0.00157421
0.00132168
0.00110173
0.000913804
0.000755998
0.000625348
0.000518284
0.000430704
0.000358206
0.000297119
0.000245325
0.000201881
0.000166095
0.00013697
0.000113279
9.38739e-05
7.79976e-05
6.48168e-05
5.37217e-05
4.46744e-05
3.72722e-05
3.09505e-05
2.57043e-05
2.14407e-05
1.78266e-05
1.48006e-05
1.23037e-05
1.01747e-05
8.41585e-06
6.96799e-06
5.70309e-06
4.67288e-06
3.83976e-06
3.11467e-06
2.52068e-06
2.03353e-06
1.62886e-06
1.30126e-06
1.02141e-06
7.99864e-07
6.22693e-07
4.74016e-07
3.59244e-07
2.68033e-07
1.963e-07
1.40157e-07
9.58645e-08
6.20052e-08
4.10961e-08
2.27714e-08
0
0
0
0
0
0
0
0
0
0
0
0
0
0
0
0
0
0
0
0
0
0
0
0
0
0
0
0
0
0
0
0
0
0
0
0
0
0
0
0
0
0
0
0
0
0
0
0
0
0
0
0
0
0
0
0
0
0
0
0
0
0
0
0
0
0
0
0
0
0
0
0
0
0
0
0
0
0
0
0
0
0
0
0
0
0
0
0
0
0
0
0
0
0
0
0
0
0
0
0
0
0
0
0
0
0
0
0
0
0
0
0
0
0
0
0
0
0
0
0
0
0
0
0
)
;

boundaryField
{
    inandouthalf11
    {
        type            cyclic;
    }
    inandouthalf12
    {
        type            cyclic;
    }
    inandouthalf21
    {
        type            cyclic;
    }
    inandouthalf22
    {
        type            cyclic;
    }
    inandouthalf31
    {
        type            cyclic;
    }
    inandouthalf32
    {
        type            cyclic;
    }
    inandouthalf41
    {
        type            cyclic;
    }
    inandouthalf42
    {
        type            cyclic;
    }
    top
    {
        type            symmetryPlane;
    }
    walls
    {
        type            calculated;
        value           uniform -6.88811e-21;
    }
    frontAndBackPlanes
    {
        type            empty;
    }
}


// ************************************************************************* //
