/*--------------------------------*- C++ -*----------------------------------*\
| =========                 |                                                 |
| \\      /  F ield         | OpenFOAM: The Open Source CFD Toolbox           |
|  \\    /   O peration     | Version:  2.4.x                                 |
|   \\  /    A nd           | Web:      www.OpenFOAM.org                      |
|    \\/     M anipulation  |                                                 |
\*---------------------------------------------------------------------------*/
FoamFile
{
    version     2.0;
    format      ascii;
    class       volScalarField;
    location    "5.25";
    object      epsilon;
}
// * * * * * * * * * * * * * * * * * * * * * * * * * * * * * * * * * * * * * //

dimensions      [0 2 -3 0 0 0 0];

internalField   nonuniform List<scalar> 
360
(
1e-20
1e-20
1e-20
1e-20
1e-20
1e-20
1e-20
1e-20
1e-20
1e-20
1e-20
1e-20
1e-20
1e-20
1e-20
1e-20
1e-20
1e-20
1e-20
1e-20
1e-20
1e-20
1e-20
1e-20
1e-20
1e-20
1e-20
1e-20
1e-20
1e-20
1e-20
1e-20
1e-20
1e-20
1e-20
1e-20
1e-20
1e-20
1e-20
1e-20
1e-20
1e-20
1e-20
1e-20
1e-20
1e-20
1e-20
1e-20
1e-20
1e-20
1e-20
1e-20
1e-20
1e-20
1e-20
1e-20
1e-20
1e-20
1e-20
1e-20
1e-20
1e-20
1e-20
1e-20
1e-20
1e-20
1e-20
1e-20
1e-20
1e-20
1e-20
1e-20
1e-20
1e-20
1e-20
1e-20
1e-20
1e-20
1e-20
1e-20
1e-20
1e-20
1e-20
1e-20
1e-20
1e-20
1e-20
1e-20
1e-20
1e-20
1e-20
1e-20
1e-20
1e-20
1e-20
1e-20
1e-20
1e-20
1e-20
1e-20
1e-20
1e-20
1e-20
1e-20
1e-20
1e-20
1e-20
1e-20
1e-20
1e-20
1e-20
1e-20
1e-20
1e-20
1e-20
1e-20
1e-20
1e-20
1e-20
1e-20
1e-20
1e-20
1e-20
1e-20
1e-20
1e-20
1e-20
1e-20
1e-20
1e-20
1e-20
1e-20
3.27968e-20
1.77915e-19
1.07363e-18
7.08179e-18
5.18289e-17
4.27868e-16
4.04897e-15
4.45826e-14
5.78998e-13
8.98506e-12
1.68767e-10
3.87806e-09
1.09926e-07
3.86945e-06
0.000167743
0.0068659
0.0892775
0.168793
0.178271
0.171366
0.159724
0.147095
0.134888
0.123619
0.113433
0.104308
0.0961595
0.0888795
0.0823599
0.0765005
0.0712127
0.0664198
0.0620559
0.0580653
0.0544005
0.0510213
0.0478934
0.0449876
0.0422792
0.0397468
0.0373722
0.0351396
0.0330354
0.031048
0.0291671
0.0273841
0.0256912
0.0240819
0.0225504
0.0210919
0.0197021
0.0183773
0.0171144
0.0159108
0.0147643
0.0136731
0.0126357
0.0116507
0.0107174
0.00983479
0.00900227
0.00821925
0.0074852
0.00679958
0.00616179
0.00557114
0.00502677
0.00452765
0.00407251
0.00365565
0.00327308
0.00292494
0.0026109
0.00233015
0.00208139
0.0018629
0.00167259
0.00150811
0.00136695
0.00124654
0.00114438
0.00105807
0.0009854
0.000924367
0.000873176
0.000830242
0.000794177
0.000763767
0.000737952
0.000715801
0.000696499
0.000679324
0.000663634
0.00064886
0.000634491
0.000620069
0.000605186
0.000589478
0.000572623
0.000554342
0.000534394
0.000512581
0.000488748
0.000462787
0.000434636
0.000404291
0.000371808
0.000337316
0.000301022
0.000263235
0.000224379
0.000185026
0.000145924
0.00010806
7.2723e-05
4.16152e-05
1.69893e-05
2.99233e-06
1.3114e-07
2.28306e-09
3.45645e-11
4.93242e-13
6.64785e-15
8.4666e-17
1.02671e-18
2.00391e-20
1e-20
1e-20
1e-20
1e-20
1e-20
1e-20
1e-20
1e-20
1e-20
1e-20
1e-20
1e-20
1e-20
1e-20
1e-20
1e-20
1e-20
1e-20
1e-20
1e-20
1e-20
1e-20
1e-20
1e-20
1e-20
1e-20
1e-20
1e-20
1e-20
1e-20
1e-20
1e-20
1e-20
1e-20
1e-20
1e-20
1e-20
1e-20
1e-20
1e-20
1e-20
1e-20
1e-20
1e-20
1e-20
1e-20
1e-20
1e-20
1e-20
1e-20
1e-20
1e-20
1e-20
1e-20
1e-20
1e-20
1e-20
1e-20
1e-20
1e-20
1e-20
1e-20
1e-20
1e-20
1e-20
1e-20
1e-20
1e-20
1e-20
1e-20
1e-20
1e-20
1e-20
1e-20
1e-20
1e-20
1e-20
1e-20
1e-20
1e-20
1e-20
1e-20
1e-20
1e-20
1e-20
1e-20
1e-20
1e-20
1e-20
1e-20
1e-20
1e-20
1e-20
1e-20
1e-20
1e-20
1e-20
1e-20
1e-20
1e-20
1e-20
1e-20
)
;

boundaryField
{
    inandouthalf11
    {
        type            cyclic;
    }
    inandouthalf12
    {
        type            cyclic;
    }
    inandouthalf21
    {
        type            cyclic;
    }
    inandouthalf22
    {
        type            cyclic;
    }
    inandouthalf31
    {
        type            cyclic;
    }
    inandouthalf32
    {
        type            cyclic;
    }
    inandouthalf41
    {
        type            cyclic;
    }
    inandouthalf42
    {
        type            cyclic;
    }
    top
    {
        type            symmetryPlane;
    }
    walls
    {
        type            zeroGradient;
    }
    frontAndBackPlanes
    {
        type            empty;
    }
}


// ************************************************************************* //
