/*--------------------------------*- C++ -*----------------------------------*\
| =========                 |                                                 |
| \\      /  F ield         | OpenFOAM: The Open Source CFD Toolbox           |
|  \\    /   O peration     | Version:  2.4.x                                 |
|   \\  /    A nd           | Web:      www.OpenFOAM.org                      |
|    \\/     M anipulation  |                                                 |
\*---------------------------------------------------------------------------*/
FoamFile
{
    version     2.0;
    format      ascii;
    class       volVectorField;
    location    "5.25";
    object      gradPf;
}
// * * * * * * * * * * * * * * * * * * * * * * * * * * * * * * * * * * * * * //

dimensions      [0 1 -2 0 0 0 0];

internalField   nonuniform List<vector> 
360
(
(0 49.6415 0)
(0 60.5732 0)
(0 5.75406 0)
(0 -9.37669 0)
(-3.34657e-14 -6.13197 0)
(-3.3467e-14 -3.73749 0)
(-3.34682e-14 -3.64446 0)
(0 -3.78472 0)
(-1.67354e-14 -3.85026 0)
(0 -3.97234 0)
(-3.34736e-14 -4.01687 0)
(0 -4.00363 0)
(-3.34764e-14 -3.97994 0)
(0 -3.95368 0)
(0 -3.95846 0)
(0 -3.97511 0)
(0 -3.97938 0)
(-3.34836e-14 -3.97206 0)
(0 -3.98511 0)
(0 -3.97271 0)
(0 -3.96322 0)
(-1.67448e-14 -3.98149 0)
(0 -3.97991 0)
(0 -3.98735 0)
(0 -3.99724 0)
(-3.34959e-14 -3.99892 0)
(0 -4.02484 0)
(0 -4.05289 0)
(0 -4.05372 0)
(0 -4.05244 0)
(0 -4.06599 0)
(0 -4.02138 0)
(0 -3.99147 0)
(0 -3.94153 0)
(0 -3.84447 0)
(3.35125e-14 -3.77235 0)
(0 -3.71177 0)
(0 -3.7219 0)
(0 -3.71574 0)
(0 -3.83597 0)
(0 -4.09792 0)
(0 -4.40954 0)
(1.67625e-14 -4.94702 0)
(0 -5.5716 0)
(0 -6.06417 0)
(0 -6.18442 0)
(0 -5.55781 0)
(0 -4.37146 0)
(0 -3.16272 0)
(0 -2.22414 0)
(3.3543e-14 -1.77819 0)
(0 -1.70162 0)
(0 -1.75155 0)
(0 -1.83353 0)
(0 -1.96002 0)
(0 -2.07404 0)
(0 -2.17469 0)
(0 -2.3041 0)
(0 -2.36747 0)
(0 -2.49464 0)
(0 -2.58788 0)
(0 -2.64591 0)
(0 -2.71281 0)
(0 -2.74466 0)
(0 -2.78847 0)
(0 -2.84551 0)
(0 -2.92343 0)
(0 -2.99316 0)
(0 -3.0559 0)
(0 -3.15893 0)
(0 -3.27725 0)
(0 -3.32222 0)
(0 -3.38457 0)
(0 -3.4584 0)
(0 -3.5053 0)
(0 -3.53638 0)
(0 -3.55237 0)
(0 -3.59323 0)
(0 -3.63607 0)
(0 -3.67262 0)
(0 -3.71734 0)
(0 -3.77328 0)
(0 -3.82136 0)
(0 -3.86552 0)
(0 -3.9041 0)
(0 -3.93705 0)
(0 -3.96318 0)
(0 -3.98267 0)
(0 -4.00419 0)
(0 -4.02633 0)
(0 -4.04805 0)
(0 -4.0728 0)
(0 -4.09936 0)
(0 -4.12451 0)
(0 -4.14841 0)
(0 -4.17054 0)
(0 -4.19038 0)
(0 -4.20825 0)
(0 -4.22496 0)
(0 -4.24076 0)
(0 -4.2558 0)
(0 -4.27044 0)
(0 -4.28455 0)
(0 -4.29786 0)
(0 -4.31039 0)
(0 -4.32213 0)
(0 -4.33308 0)
(0 -4.34329 0)
(0 -4.3528 0)
(0 -4.36155 0)
(0 -4.36949 0)
(0 -4.37652 0)
(0 -4.38253 0)
(0 -4.38743 0)
(0 -4.39108 0)
(0 -4.39337 0)
(0 -4.39418 0)
(0 -4.39343 0)
(0 -4.391 0)
(0 -4.38679 0)
(0 -4.38063 0)
(0 -4.37227 0)
(0 -4.36149 0)
(0 -4.34824 0)
(0 -4.33295 0)
(0 -4.31676 0)
(0 -4.30125 0)
(0 -4.28738 0)
(0 -4.27393 0)
(0 -4.25698 0)
(0 -4.23355 0)
(0 -4.20998 0)
(0 -4.20432 0)
(0 -4.2246 0)
(0 -4.24183 0)
(0 -4.22081 0)
(0 -4.19412 0)
(0 -4.26652 0)
(0 -4.4835 0)
(0 -4.61718 0)
(0 -4.3233 0)
(0 -4.21926 0)
(0 -4.75973 0)
(0 -5.30706 0)
(0 -6.68506 0)
(0 -11.3471 0)
(0 -13.0884 0)
(0 -6.25045 0)
(0 0 0)
(0 0 0)
(0 0 0)
(0 0 0)
(0 0 0)
(0 0 0)
(0 0 0)
(0 0 0)
(0 0 0)
(0 0 0)
(0 0 0)
(0 0 0)
(0 0 0)
(0 0 0)
(0 0 0)
(0 0 0)
(0 0 0)
(0 0 0)
(0 0 0)
(0 0 0)
(0 0 0)
(0 0 0)
(0 0 0)
(0 0 0)
(0 0 0)
(0 0 0)
(0 0 0)
(0 0 0)
(0 0 0)
(0 0 0)
(0 0 0)
(0 0 0)
(0 0 0)
(0 0 0)
(0 0 0)
(0 0 0)
(0 0 0)
(0 0 0)
(0 0 0)
(0 0 0)
(0 0 0)
(0 0 0)
(0 0 0)
(0 0 0)
(0 0 0)
(0 0 0)
(0 0 0)
(0 0 0)
(0 0 0)
(0 0 0)
(0 0 0)
(0 0 0)
(0 0 0)
(0 0 0)
(0 0 0)
(0 0 0)
(0 0 0)
(0 0 0)
(0 0 0)
(0 0 0)
(0 0 0)
(0 0 0)
(0 0 0)
(0 0 0)
(0 0 0)
(0 0 0)
(0 0 0)
(0 0 0)
(0 0 0)
(0 0 0)
(0 0 0)
(0 0 0)
(0 0 0)
(0 0 0)
(0 0 0)
(0 0 0)
(0 0 0)
(0 0 0)
(0 0 0)
(0 0 0)
(0 0 0)
(0 0 0)
(0 0 0)
(0 0 0)
(0 0 0)
(0 0 0)
(0 0 0)
(0 0 0)
(0 0 0)
(0 0 0)
(0 0 0)
(0 0 0)
(0 0 0)
(0 0 0)
(0 0 0)
(0 0 0)
(0 0 0)
(0 0 0)
(0 0 0)
(0 0 0)
(0 0 0)
(0 0 0)
(0 0 0)
(0 0 0)
(0 0 0)
(0 0 0)
(0 0 0)
(0 0 0)
(0 0 0)
(0 0 0)
(0 0 0)
(0 0 0)
(0 0 0)
(0 0 0)
(0 0 0)
(0 0 0)
(0 0 0)
(0 0 0)
(0 0 0)
(0 0 0)
(0 0 0)
(0 0 0)
(0 0 0)
(0 0 0)
(0 0 0)
(0 0 0)
(0 0 0)
(0 0 0)
(0 0 0)
(0 0 0)
(0 0 0)
(0 0 0)
(0 0 0)
(0 0 0)
(0 0 0)
(0 0 0)
(0 0 0)
(0 0 0)
(0 0 0)
(0 0 0)
(0 0 0)
(0 0 0)
(0 0 0)
(0 0 0)
(0 0 0)
(0 0 0)
(0 0 0)
(0 0 0)
(0 0 0)
(0 0 0)
(0 0 0)
(0 0 0)
(0 0 0)
(0 0 0)
(0 0 0)
(0 0 0)
(0 0 0)
(0 0 0)
(0 0 0)
(0 0 0)
(0 0 0)
(0 0 0)
(0 0 0)
(0 0 0)
(0 0 0)
(0 0 0)
(0 0 0)
(0 0 0)
(0 0 0)
(0 0 0)
(0 0 0)
(0 0 0)
(0 0 0)
(0 0 0)
(0 0 0)
(0 0 0)
(0 0 0)
(0 0 0)
(0 0 0)
(0 0 0)
(0 0 0)
(0 0 0)
(0 0 0)
(0 0 0)
(0 0 0)
(0 0 0)
(0 0 0)
(0 0 0)
(0 0 0)
(0 0 0)
(0 0 0)
(0 0 0)
(0 0 0)
(0 0 0)
(0 0 0)
(0 0 0)
(0 0 0)
(0 0 0)
(0 0 0)
(0 0 0)
(0 0 0)
(0 0 0)
(0 0 0)
(0 0 0)
(0 0 0)
(0 0 0)
(0 0 0)
(0 0 0)
(0 0 0)
(0 0 0)
(0 0 0)
(0 0 0)
)
;

boundaryField
{
    inandouthalf11
    {
        type            cyclic;
    }
    inandouthalf12
    {
        type            cyclic;
    }
    inandouthalf21
    {
        type            cyclic;
    }
    inandouthalf22
    {
        type            cyclic;
    }
    inandouthalf31
    {
        type            cyclic;
    }
    inandouthalf32
    {
        type            cyclic;
    }
    inandouthalf41
    {
        type            cyclic;
    }
    inandouthalf42
    {
        type            cyclic;
    }
    top
    {
        type            symmetryPlane;
    }
    walls
    {
        type            calculated;
        value           uniform (0 0 0);
    }
    frontAndBackPlanes
    {
        type            empty;
    }
}


// ************************************************************************* //
