/*--------------------------------*- C++ -*----------------------------------*\
| =========                 |                                                 |
| \\      /  F ield         | OpenFOAM: The Open Source CFD Toolbox           |
|  \\    /   O peration     | Version:  2.4.x                                 |
|   \\  /    A nd           | Web:      www.OpenFOAM.org                      |
|    \\/     M anipulation  |                                                 |
\*---------------------------------------------------------------------------*/
FoamFile
{
    version     2.0;
    format      ascii;
    class       volScalarField;
    location    "5.25";
    object      k_0;
}
// * * * * * * * * * * * * * * * * * * * * * * * * * * * * * * * * * * * * * //

dimensions      [0 2 -2 0 0 0 0];

internalField   nonuniform List<scalar> 
360
(
1e-20
1e-20
1e-20
1e-20
1e-20
1e-20
1e-20
1e-20
1e-20
1e-20
1e-20
1e-20
1e-20
1e-20
1e-20
1e-20
1e-20
1e-20
1e-20
1e-20
1e-20
1e-20
1e-20
1e-20
1e-20
1e-20
1e-20
1e-20
1e-20
1e-20
1e-20
1e-20
1e-20
1e-20
1e-20
1e-20
1e-20
1e-20
1e-20
1e-20
1e-20
1e-20
1e-20
1e-20
1e-20
1e-20
1e-20
1e-20
1e-20
1e-20
1e-20
1e-20
1e-20
1e-20
1e-20
1e-20
1e-20
1e-20
1e-20
1e-20
1e-20
1e-20
1e-20
1e-20
1e-20
1e-20
1e-20
1e-20
1e-20
1e-20
1e-20
1e-20
1e-20
1e-20
1e-20
1e-20
1e-20
1e-20
1e-20
1e-20
1e-20
1e-20
1e-20
1e-20
1e-20
1e-20
1e-20
1e-20
1e-20
1e-20
1e-20
1e-20
1e-20
1e-20
1e-20
1e-20
1e-20
1e-20
1e-20
1e-20
1e-20
1e-20
1e-20
1e-20
1e-20
1e-20
1e-20
1e-20
1e-20
1e-20
1e-20
1e-20
1e-20
1e-20
1e-20
1e-20
1e-20
1e-20
1e-20
1e-20
1e-20
1e-20
1e-20
1e-20
1e-20
1e-20
1e-20
1e-20
1e-20
1e-20
1e-20
1e-20
2.31288e-20
1.0959e-19
5.81653e-19
3.32881e-18
2.08331e-17
1.4505e-16
1.14348e-15
1.03771e-14
1.09966e-13
1.3788e-12
2.07602e-11
3.80159e-10
8.54351e-09
2.3753e-07
8.10114e-06
0.000256643
0.00264812
0.00541423
0.00671312
0.00745598
0.00792023
0.00822351
0.00842574
0.00855949
0.0086433
0.00868832
0.00870176
0.00868865
0.00865277
0.0085971
0.00852409
0.0084358
0.00833399
0.00822018
0.00809567
0.00796162
0.00781904
0.0076688
0.00751171
0.00734848
0.00717974
0.0070061
0.00682808
0.00664619
0.0064609
0.00627267
0.00608193
0.00588908
0.00569456
0.00549877
0.00530212
0.00510503
0.00490792
0.00471125
0.00451545
0.004321
0.00412838
0.00393808
0.0037506
0.00356648
0.00338625
0.00321047
0.00303967
0.00287443
0.00271528
0.00256275
0.00241733
0.00227945
0.00214948
0.00202649
0.00190985
0.00180015
0.0016979
0.00160344
0.00151701
0.00143865
0.00136824
0.00130552
0.00125007
0.0012014
0.00115891
0.00112198
0.00108998
0.00106226
0.00103822
0.00101727
0.000998877
0.00098252
0.000967725
0.00095405
0.000941078
0.00092842
0.000915709
0.0009026
0.000888767
0.000873902
0.000857717
0.000839939
0.000820316
0.000798613
0.000774614
0.000748126
0.000718977
0.000687022
0.000652143
0.000614257
0.000573318
0.00052933
0.000482353
0.00043252
0.00038006
0.000325326
0.000268844
0.000211388
0.000154108
9.87554e-05
4.82293e-05
1.08435e-05
5.6199e-07
9.95365e-09
1.49875e-10
2.12646e-12
2.85016e-14
3.61039e-16
4.33103e-18
5.73767e-20
1.00658e-20
1e-20
1e-20
1e-20
1e-20
1e-20
1e-20
1e-20
1e-20
1e-20
1e-20
1e-20
1e-20
1e-20
1e-20
1e-20
1e-20
1e-20
1e-20
1e-20
1e-20
1e-20
1e-20
1e-20
1e-20
1e-20
1e-20
1e-20
1e-20
1e-20
1e-20
1e-20
1e-20
1e-20
1e-20
1e-20
1e-20
1e-20
1e-20
1e-20
1e-20
1e-20
1e-20
1e-20
1e-20
1e-20
1e-20
1e-20
1e-20
1e-20
1e-20
1e-20
1e-20
1e-20
1e-20
1e-20
1e-20
1e-20
1e-20
1e-20
1e-20
1e-20
1e-20
1e-20
1e-20
1e-20
1e-20
1e-20
1e-20
1e-20
1e-20
1e-20
1e-20
1e-20
1e-20
1e-20
1e-20
1e-20
1e-20
1e-20
1e-20
1e-20
1e-20
1e-20
1e-20
1e-20
1e-20
1e-20
1e-20
1e-20
1e-20
1e-20
1e-20
1e-20
1e-20
1e-20
1e-20
1e-20
1e-20
1e-20
1e-20
1e-20
)
;

boundaryField
{
    inandouthalf11
    {
        type            cyclic;
    }
    inandouthalf12
    {
        type            cyclic;
    }
    inandouthalf21
    {
        type            cyclic;
    }
    inandouthalf22
    {
        type            cyclic;
    }
    inandouthalf31
    {
        type            cyclic;
    }
    inandouthalf32
    {
        type            cyclic;
    }
    inandouthalf41
    {
        type            cyclic;
    }
    inandouthalf42
    {
        type            cyclic;
    }
    top
    {
        type            symmetryPlane;
    }
    walls
    {
        type            zeroGradient;
    }
    frontAndBackPlanes
    {
        type            empty;
    }
}


// ************************************************************************* //
