/*--------------------------------*- C++ -*----------------------------------*\
| =========                 |                                                 |
| \\      /  F ield         | OpenFOAM: The Open Source CFD Toolbox           |
|  \\    /   O peration     | Version:  2.4.x                                 |
|   \\  /    A nd           | Web:      www.OpenFOAM.org                      |
|    \\/     M anipulation  |                                                 |
\*---------------------------------------------------------------------------*/
FoamFile
{
    version     2.0;
    format      ascii;
    class       volScalarField;
    location    "5.25";
    object      nutb;
}
// * * * * * * * * * * * * * * * * * * * * * * * * * * * * * * * * * * * * * //

dimensions      [0 2 -1 0 0 0 0];

internalField   nonuniform List<scalar> 
360
(
9e-22
9e-22
9e-22
9e-22
9e-22
9e-22
9e-22
9e-22
9e-22
9e-22
9e-22
9e-22
9e-22
9e-22
9e-22
9e-22
9e-22
9e-22
9e-22
9e-22
9e-22
9e-22
9e-22
9e-22
9e-22
9e-22
9e-22
9e-22
9e-22
9e-22
9e-22
9e-22
9e-22
9e-22
9e-22
9e-22
9e-22
9e-22
9e-22
9e-22
9e-22
9e-22
9e-22
9e-22
9e-22
9e-22
9e-22
9e-22
9e-22
9e-22
9e-22
9e-22
9e-22
9e-22
9e-22
9e-22
9e-22
9e-22
9e-22
9e-22
9e-22
9e-22
9e-22
9e-22
9e-22
9e-22
9e-22
9e-22
9e-22
9e-22
9e-22
9e-22
9e-22
9e-22
9e-22
9e-22
9e-22
9e-22
9e-22
9e-22
9e-22
9e-22
9e-22
9e-22
9e-22
9e-22
9e-22
9e-22
9e-22
9e-22
9e-22
9e-22
9e-22
9e-22
9e-22
9e-22
9e-22
9e-22
9e-22
9e-22
9e-22
9e-22
9e-22
9e-22
9e-22
9e-22
9e-22
9e-22
9e-22
9e-22
9e-22
9e-22
9e-22
9e-22
9e-22
9e-22
9e-22
9e-22
9e-22
9e-22
9e-22
9e-22
9e-22
9e-22
9e-22
9e-22
9e-22
9e-22
9e-22
9e-22
9e-22
9e-22
1.46791e-21
6.0746e-21
2.83551e-20
1.40789e-19
7.53441e-19
4.42408e-18
2.90532e-17
2.17295e-16
1.87885e-15
1.90334e-14
2.29715e-13
3.35206e-12
5.97238e-11
1.31141e-09
3.51869e-08
8.62837e-07
7.06728e-06
1.56284e-05
2.27497e-05
2.91944e-05
3.53446e-05
4.13748e-05
4.7366e-05
5.33378e-05
5.92718e-05
6.51304e-05
7.08686e-05
7.64429e-05
8.18147e-05
8.69518e-05
9.1829e-05
9.64272e-05
0.000100733
0.000104736
0.000108432
0.000111817
0.000114892
0.000117659
0.00012012
0.000122282
0.000124149
0.000125729
0.000127028
0.000128056
0.000128821
0.000129332
0.000129599
0.000129633
0.000129444
0.000129044
0.000128445
0.000127659
0.0001267
0.000125583
0.000124322
0.000122933
0.000121433
0.000119839
0.00011817
0.000116444
0.000114683
0.000112908
0.000111142
0.00010941
0.000107737
0.000106149
0.000104673
0.000103334
0.000102156
0.000101154
0.000100345
9.97586e-05
9.94194e-05
9.93465e-05
9.95495e-05
0.000100027
0.000100766
0.00010174
0.000102911
0.000104229
0.000105641
0.000107088
0.000108514
0.000109866
0.000111099
0.000112173
0.000113061
0.000113741
0.000114199
0.000114427
0.000114421
0.000114178
0.000113698
0.000112981
0.000112025
0.000110828
0.000109387
0.000107695
0.000105746
0.000103531
0.000101039
9.82595e-05
9.51786e-05
9.17832e-05
8.80588e-05
8.39903e-05
7.95626e-05
7.476e-05
6.9567e-05
6.39682e-05
5.79489e-05
5.14953e-05
4.4595e-05
3.72381e-05
2.94164e-05
2.11203e-05
1.23545e-05
3.55771e-06
2.19062e-07
3.95245e-09
5.92061e-11
8.35398e-13
1.11377e-14
1.40358e-16
1.66595e-18
1.49539e-20
9.12189e-22
9e-22
9e-22
9e-22
9e-22
9e-22
9e-22
9e-22
9e-22
9e-22
9e-22
9e-22
9e-22
9e-22
9e-22
9e-22
9e-22
9e-22
9e-22
9e-22
9e-22
9e-22
9e-22
9e-22
9e-22
9e-22
9e-22
9e-22
9e-22
9e-22
9e-22
9e-22
9e-22
9e-22
9e-22
9e-22
9e-22
9e-22
9e-22
9e-22
9e-22
9e-22
9e-22
9e-22
9e-22
9e-22
9e-22
9e-22
9e-22
9e-22
9e-22
9e-22
9e-22
9e-22
9e-22
9e-22
9e-22
9e-22
9e-22
9e-22
9e-22
9e-22
9e-22
9e-22
9e-22
9e-22
9e-22
9e-22
9e-22
9e-22
9e-22
9e-22
9e-22
9e-22
9e-22
9e-22
9e-22
9e-22
9e-22
9e-22
9e-22
9e-22
9e-22
9e-22
9e-22
9e-22
9e-22
9e-22
9e-22
9e-22
9e-22
9e-22
9e-22
9e-22
9e-22
9e-22
9e-22
9e-22
9e-22
9e-22
9e-22
9e-22
)
;

boundaryField
{
    inandouthalf11
    {
        type            cyclic;
    }
    inandouthalf12
    {
        type            cyclic;
    }
    inandouthalf21
    {
        type            cyclic;
    }
    inandouthalf22
    {
        type            cyclic;
    }
    inandouthalf31
    {
        type            cyclic;
    }
    inandouthalf32
    {
        type            cyclic;
    }
    inandouthalf41
    {
        type            cyclic;
    }
    inandouthalf42
    {
        type            cyclic;
    }
    top
    {
        type            symmetryPlane;
    }
    walls
    {
        type            calculated;
        value           uniform 0;
    }
    frontAndBackPlanes
    {
        type            empty;
    }
}


// ************************************************************************* //
