/*--------------------------------*- C++ -*----------------------------------*\
| =========                 |                                                 |
| \\      /  F ield         | OpenFOAM: The Open Source CFD Toolbox           |
|  \\    /   O peration     | Version:  2.4.x                                 |
|   \\  /    A nd           | Web:      www.OpenFOAM.org                      |
|    \\/     M anipulation  |                                                 |
\*---------------------------------------------------------------------------*/
FoamFile
{
    version     2.0;
    format      ascii;
    class       volScalarField;
    location    "5.25";
    object      pa;
}
// * * * * * * * * * * * * * * * * * * * * * * * * * * * * * * * * * * * * * //

dimensions      [1 -1 -2 0 0 0 0];

internalField   nonuniform List<scalar> 
360
(
2.89752e-16
2.9253e-16
2.92644e-16
2.92324e-16
2.9221e-16
2.92187e-16
2.92149e-16
2.92091e-16
2.92028e-16
2.91963e-16
2.91899e-16
2.91837e-16
2.91776e-16
2.91713e-16
2.91649e-16
2.91584e-16
2.91519e-16
2.91453e-16
2.91386e-16
2.91319e-16
2.91252e-16
2.91185e-16
2.91119e-16
2.91056e-16
2.90994e-16
2.90934e-16
2.90877e-16
2.90819e-16
2.90761e-16
2.90696e-16
2.90622e-16
2.90533e-16
2.90429e-16
2.90306e-16
2.90175e-16
2.90039e-16
2.89916e-16
2.8982e-16
2.89767e-16
2.8979e-16
2.89925e-16
2.90251e-16
2.90875e-16
2.91876e-16
2.9305e-16
2.93531e-16
2.9232e-16
2.89973e-16
2.88224e-16
2.87568e-16
2.87412e-16
2.87356e-16
2.8731e-16
2.87261e-16
2.87211e-16
2.87154e-16
2.87097e-16
2.87034e-16
2.86969e-16
2.86902e-16
2.86829e-16
2.86756e-16
2.86678e-16
2.866e-16
2.86519e-16
2.86437e-16
2.86352e-16
2.86264e-16
2.86173e-16
2.86079e-16
2.8598e-16
2.85878e-16
2.85774e-16
2.85665e-16
2.85555e-16
2.8544e-16
2.85325e-16
2.85207e-16
2.85087e-16
2.84963e-16
2.84837e-16
2.84707e-16
2.84574e-16
2.84438e-16
2.84298e-16
2.84154e-16
2.84008e-16
2.83859e-16
2.83707e-16
2.83551e-16
2.83393e-16
2.83231e-16
2.83065e-16
2.82896e-16
2.82722e-16
2.82545e-16
2.82364e-16
2.82178e-16
2.81989e-16
2.81795e-16
2.81597e-16
2.81394e-16
2.81187e-16
2.80975e-16
2.80757e-16
2.80535e-16
2.80307e-16
2.80073e-16
2.79833e-16
2.79588e-16
2.79336e-16
2.79077e-16
2.78811e-16
2.78538e-16
2.78258e-16
2.7797e-16
2.77673e-16
2.77368e-16
2.77055e-16
2.76731e-16
2.76398e-16
2.76055e-16
2.75702e-16
2.75337e-16
2.7496e-16
2.74572e-16
2.7417e-16
2.73754e-16
2.73322e-16
2.72874e-16
2.72409e-16
2.71928e-16
6.2757e-16
2.96735e-15
1.57141e-14
8.97162e-14
5.60035e-13
3.88832e-12
3.0556e-11
2.76273e-10
2.91574e-09
3.64137e-08
5.46147e-07
1.00532e-05
0.000295712
0.020292
0.658564
5.33707
4.86194
4.33238
3.50941
2.7746
2.17653
1.7043
1.33695
1.05302
0.833786
0.664072
0.532075
0.428808
0.347498
0.283057
0.23166
0.190414
0.157125
0.130114
0.10809
0.0900506
0.0752142
0.0629663
0.0528208
0.0443908
0.0373666
0.0314989
0.026586
0.022464
0.0189989
0.0160809
0.0136199
0.0115409
0.0097819
0.0082904
0.00702209
0.0059394
0.00501123
0.00421288
0.00352593
0.00293727
0.00243724
0.0020174
0.00166896
0.00138268
0.00114924
0.000958844
0.000801356
0.000668406
0.000555168
0.000459591
0.000380325
0.000315366
0.000262164
0.0002183
0.000182194
0.000152033
0.000126483
0.000105535
8.83113e-05
7.35216e-05
6.11912e-05
5.11313e-05
4.25707e-05
3.53795e-05
2.94291e-05
2.43433e-05
2.01334e-05
1.6663e-05
1.36277e-05
1.11539e-05
9.1527e-06
7.41116e-06
5.985e-06
4.81612e-06
3.84607e-06
3.06176e-06
2.39284e-06
1.86431e-06
1.44261e-06
1.08968e-06
8.1823e-07
6.03452e-07
4.35509e-07
3.05075e-07
2.03219e-07
1.26585e-07
8.12014e-08
4.27711e-08
0
0
0
0
0
0
0
0
0
0
0
0
0
0
0
0
0
0
0
0
0
0
0
0
0
0
0
0
0
0
0
0
0
0
0
0
0
0
0
0
0
0
0
0
0
0
0
0
0
0
0
0
0
0
0
0
0
0
0
0
0
0
0
0
0
0
0
0
0
0
0
0
0
0
0
0
0
0
0
0
0
0
0
0
0
0
0
0
0
0
0
0
0
0
0
0
0
0
0
0
0
0
0
0
0
0
0
0
0
0
0
0
0
0
0
0
0
0
0
0
0
0
0
0
)
;

boundaryField
{
    inandouthalf11
    {
        type            cyclic;
    }
    inandouthalf12
    {
        type            cyclic;
    }
    inandouthalf21
    {
        type            cyclic;
    }
    inandouthalf22
    {
        type            cyclic;
    }
    inandouthalf31
    {
        type            cyclic;
    }
    inandouthalf32
    {
        type            cyclic;
    }
    inandouthalf41
    {
        type            cyclic;
    }
    inandouthalf42
    {
        type            cyclic;
    }
    top
    {
        type            symmetryPlane;
    }
    walls
    {
        type            calculated;
        value           uniform 2.89752e-16;
    }
    frontAndBackPlanes
    {
        type            empty;
    }
}


// ************************************************************************* //
