/*--------------------------------*- C++ -*----------------------------------*\
| =========                 |                                                 |
| \\      /  F ield         | OpenFOAM: The Open Source CFD Toolbox           |
|  \\    /   O peration     | Version:  2.4.x                                 |
|   \\  /    A nd           | Web:      www.OpenFOAM.org                      |
|    \\/     M anipulation  |                                                 |
\*---------------------------------------------------------------------------*/
FoamFile
{
    version     2.0;
    format      ascii;
    class       volVectorField;
    location    "5.25";
    object      Ua_0;
}
// * * * * * * * * * * * * * * * * * * * * * * * * * * * * * * * * * * * * * //

dimensions      [0 1 -1 0 0 0 0];

internalField   nonuniform List<vector> 
360
(
(-1.01385e-32 -8.79725e-32 0)
(-3.68858e-08 -2.29713e-07 0)
(-8.01977e-08 -4.34965e-07 0)
(-1.18684e-07 -6.07791e-07 0)
(-1.56557e-07 -7.81288e-07 0)
(-1.95868e-07 -9.62019e-07 0)
(-2.36375e-07 -1.14675e-06 0)
(-2.77592e-07 -1.33311e-06 0)
(-3.19291e-07 -1.52016e-06 0)
(-3.61439e-07 -1.70778e-06 0)
(-4.04114e-07 -1.89639e-06 0)
(-4.47399e-07 -2.08638e-06 0)
(-4.91331e-07 -2.27787e-06 0)
(-5.35908e-07 -2.47077e-06 0)
(-5.81109e-07 -2.66493e-06 0)
(-6.26927e-07 -2.8603e-06 0)
(-6.73371e-07 -3.05688e-06 0)
(-7.20449e-07 -3.25469e-06 0)
(-7.6817e-07 -3.4537e-06 0)
(-8.16545e-07 -3.65394e-06 0)
(-8.65585e-07 -3.85541e-06 0)
(-9.15317e-07 -4.05815e-06 0)
(-9.65786e-07 -4.26234e-06 0)
(-1.01706e-06 -4.46819e-06 0)
(-1.06921e-06 -4.67596e-06 0)
(-1.12232e-06 -4.88593e-06 0)
(-1.17647e-06 -5.09838e-06 0)
(-1.23174e-06 -5.31354e-06 0)
(-1.28814e-06 -5.5315e-06 0)
(-1.34563e-06 -5.75196e-06 0)
(-1.40405e-06 -5.97426e-06 0)
(-1.46312e-06 -6.19734e-06 0)
(-1.52247e-06 -6.4197e-06 0)
(-1.58168e-06 -6.63973e-06 0)
(-1.64036e-06 -6.85594e-06 0)
(-1.69826e-06 -7.06734e-06 0)
(-1.75545e-06 -7.27406e-06 0)
(-1.81239e-06 -7.47782e-06 0)
(-1.8701e-06 -7.68221e-06 0)
(-1.93023e-06 -7.89294e-06 0)
(-1.99521e-06 -8.1185e-06 0)
(-2.06851e-06 -8.37084e-06 0)
(-2.15458e-06 -8.66532e-06 0)
(-2.25835e-06 -9.01944e-06 0)
(-2.38278e-06 -9.44471e-06 0)
(-2.52345e-06 -9.92783e-06 0)
(-2.66309e-06 -1.04101e-05 0)
(-2.77576e-06 -1.07998e-05 0)
(-2.84505e-06 -1.10379e-05 0)
(-2.87634e-06 -1.11439e-05 0)
(-2.8867e-06 -1.11783e-05 0)
(-2.88933e-06 -1.11868e-05 0)
(-2.8899e-06 -1.11886e-05 0)
(-2.89002e-06 -1.11889e-05 0)
(-2.89005e-06 -1.1189e-05 0)
(-2.89006e-06 -1.11891e-05 0)
(-2.89006e-06 -1.11891e-05 0)
(-2.89006e-06 -1.11891e-05 0)
(-2.89006e-06 -1.11891e-05 0)
(-2.89007e-06 -1.11891e-05 0)
(-2.89007e-06 -1.11891e-05 0)
(-2.89007e-06 -1.11891e-05 0)
(-2.89007e-06 -1.11891e-05 0)
(-2.89007e-06 -1.11891e-05 0)
(-2.89007e-06 -1.11891e-05 0)
(-2.89008e-06 -1.11891e-05 0)
(-2.89008e-06 -1.11891e-05 0)
(-2.89008e-06 -1.11891e-05 0)
(-2.89009e-06 -1.11891e-05 0)
(-2.89009e-06 -1.11892e-05 0)
(-2.8901e-06 -1.11892e-05 0)
(-2.8901e-06 -1.11892e-05 0)
(-2.8901e-06 -1.11892e-05 0)
(-2.89011e-06 -1.11892e-05 0)
(-2.89011e-06 -1.11892e-05 0)
(-2.89012e-06 -1.11892e-05 0)
(-2.89012e-06 -1.11892e-05 0)
(-2.89013e-06 -1.11892e-05 0)
(-2.89013e-06 -1.11893e-05 0)
(-2.89014e-06 -1.11893e-05 0)
(-2.89014e-06 -1.11893e-05 0)
(-2.89015e-06 -1.11893e-05 0)
(-2.89015e-06 -1.11893e-05 0)
(-2.89016e-06 -1.11893e-05 0)
(-2.89016e-06 -1.11893e-05 0)
(-2.89017e-06 -1.11893e-05 0)
(-2.89017e-06 -1.11893e-05 0)
(-2.89018e-06 -1.11894e-05 0)
(-2.89018e-06 -1.11894e-05 0)
(-2.89019e-06 -1.11894e-05 0)
(-2.8902e-06 -1.11894e-05 0)
(-2.8902e-06 -1.11894e-05 0)
(-2.89021e-06 -1.11894e-05 0)
(-2.89022e-06 -1.11894e-05 0)
(-2.89022e-06 -1.11895e-05 0)
(-2.89023e-06 -1.11895e-05 0)
(-2.89024e-06 -1.11895e-05 0)
(-2.89025e-06 -1.11895e-05 0)
(-2.89025e-06 -1.11895e-05 0)
(-2.89026e-06 -1.11895e-05 0)
(-2.89027e-06 -1.11896e-05 0)
(-2.89028e-06 -1.11896e-05 0)
(-2.89029e-06 -1.11896e-05 0)
(-2.89029e-06 -1.11896e-05 0)
(-2.8903e-06 -1.11896e-05 0)
(-2.89031e-06 -1.11896e-05 0)
(-2.89032e-06 -1.11897e-05 0)
(-2.89033e-06 -1.11897e-05 0)
(-2.89034e-06 -1.11897e-05 0)
(-2.89035e-06 -1.11897e-05 0)
(-2.89036e-06 -1.11897e-05 0)
(-2.89037e-06 -1.11897e-05 0)
(-2.89037e-06 -1.11898e-05 0)
(-2.89038e-06 -1.11898e-05 0)
(-2.89039e-06 -1.11898e-05 0)
(-2.8904e-06 -1.11898e-05 0)
(-2.89041e-06 -1.11898e-05 0)
(-2.89042e-06 -1.11898e-05 0)
(-2.89043e-06 -1.11898e-05 0)
(-2.89044e-06 -1.11899e-05 0)
(-2.89045e-06 -1.11899e-05 0)
(-2.89046e-06 -1.11899e-05 0)
(-2.89047e-06 -1.11899e-05 0)
(-2.89049e-06 -1.11899e-05 0)
(-2.8905e-06 -1.11899e-05 0)
(-2.89051e-06 -1.119e-05 0)
(-2.89052e-06 -1.119e-05 0)
(-2.89053e-06 -1.119e-05 0)
(-2.89055e-06 -1.119e-05 0)
(-2.89056e-06 -1.119e-05 0)
(-2.89057e-06 -1.119e-05 0)
(-2.89058e-06 -1.11901e-05 0)
(-2.89059e-06 -1.11901e-05 0)
(-2.89061e-06 -1.11901e-05 0)
(-2.89062e-06 -1.11901e-05 0)
(-2.89063e-06 -1.11901e-05 0)
(-2.89064e-06 -1.11901e-05 0)
(-2.89065e-06 -1.11901e-05 0)
(-2.89066e-06 -1.11901e-05 0)
(-2.89067e-06 -1.11901e-05 0)
(-2.89067e-06 -1.11901e-05 0)
(-2.89068e-06 -1.11901e-05 0)
(-2.89069e-06 -1.11901e-05 0)
(-2.89069e-06 -1.11901e-05 0)
(-2.89069e-06 -1.11901e-05 0)
(-2.89069e-06 -1.11901e-05 0)
(-2.89069e-06 -1.11901e-05 0)
(-9.14176e-05 -1.36947e-05 0)
(-0.0778909 -0.000343904 0)
(-0.175557 -0.000377989 0)
(-0.25223 -0.000460811 0)
(-0.314244 -0.000497859 0)
(-0.365648 -0.000522762 0)
(-0.409085 -0.000533802 0)
(-0.446361 -0.000530884 0)
(-0.478778 -0.000513697 0)
(-0.507309 -0.000482182 0)
(-0.53269 -0.000436466 0)
(-0.55549 -0.000376849 0)
(-0.576148 -0.000303762 0)
(-0.595007 -0.00021772 0)
(-0.612336 -0.000119281 0)
(-0.628349 -9.00455e-06 0)
(-0.643218 0.000112562 0)
(-0.657078 0.000244893 0)
(-0.670042 0.000387495 0)
(-0.6822 0.000539904 0)
(-0.693629 0.000701682 0)
(-0.704388 0.000872406 0)
(-0.71453 0.00105167 0)
(-0.724098 0.00123907 0)
(-0.733128 0.00143421 0)
(-0.74165 0.00163669 0)
(-0.749691 0.00184607 0)
(-0.757272 0.00206192 0)
(-0.764414 0.00228377 0)
(-0.771132 0.00251109 0)
(-0.777443 0.00274333 0)
(-0.783359 0.00297986 0)
(-0.788893 0.00321997 0)
(-0.794057 0.00346274 0)
(-0.798862 0.00370685 0)
(-0.803321 0.00395015 0)
(-0.807443 0.00418931 0)
(-0.811243 0.00441962 0)
(-0.814733 0.00463523 0)
(-0.817929 0.00483006 0)
(-0.820848 0.00499905 0)
(-0.823507 0.00513943 0)
(-0.825926 0.0052512 0)
(-0.828125 0.00533695 0)
(-0.83012 0.00540098 0)
(-0.831931 0.00544849 0)
(-0.833573 0.00548453 0)
(-0.83506 0.00551269 0)
(-0.836406 0.00553424 0)
(-0.837625 0.0055489 0)
(-0.838732 0.00555625 0)
(-0.83974 0.00555676 0)
(-0.840661 0.00555161 0)
(-0.841505 0.00554206 0)
(-0.84229 0.00552909 0)
(-0.843029 0.00551367 0)
(-0.843727 0.00549667 0)
(-0.844387 0.00547821 0)
(-0.845014 0.00545863 0)
(-0.845612 0.00543874 0)
(-0.846183 0.00541858 0)
(-0.846731 0.00539785 0)
(-0.847259 0.00537697 0)
(-0.847769 0.00535612 0)
(-0.848263 0.00533501 0)
(-0.848742 0.00531373 0)
(-0.849209 0.0052921 0)
(-0.849666 0.00526986 0)
(-0.850113 0.00524733 0)
(-0.850551 0.00522397 0)
(-0.850983 0.00519917 0)
(-0.851408 0.0051736 0)
(-0.851825 0.00514694 0)
(-0.852238 0.00511842 0)
(-0.852646 0.00508818 0)
(-0.853048 0.00505602 0)
(-0.853445 0.00502198 0)
(-0.853836 0.00498528 0)
(-0.854224 0.00494505 0)
(-0.854605 0.00490187 0)
(-0.85498 0.00485453 0)
(-0.85535 0.00480188 0)
(-0.855713 0.00474399 0)
(-0.856067 0.00467979 0)
(-0.856412 0.00460782 0)
(-0.856747 0.00452445 0)
(-0.857075 0.00442092 0)
(-0.857381 0.0043025 0)
(-0.857647 0.00417789 0)
(-0.857964 0.00399445 0)
(-0.905855 0.000124416 0)
(-0.904037 0.00027669 0)
(-0.90178 -0.035107 0)
(-0.899621 -0.0397342 0)
(-0.897205 -0.0395941 0)
(-0.894975 -0.0396083 0)
(-0.892745 -0.039608 0)
(-0.890558 -0.0396083 0)
(-0.888438 -0.0396073 0)
(-0.886426 -0.0396048 0)
(-0.884575 -0.0395998 0)
(-0.882957 -0.0395881 0)
(-0.882004 -0.0395691 0)
(-0.881775 -0.0395541 0)
(-0.881762 -0.0395503 0)
(-0.881761 -0.0395501 0)
(-0.881761 -0.0395501 0)
(-0.881761 -0.0395501 0)
(-0.88176 -0.0395501 0)
(-0.88176 -0.0395501 0)
(-0.88176 -0.0395501 0)
(-0.88176 -0.0395501 0)
(-0.881759 -0.0395501 0)
(-0.881759 -0.0395501 0)
(-0.881759 -0.0395501 0)
(-0.881759 -0.0395501 0)
(-0.881759 -0.0395501 0)
(-0.881759 -0.0395501 0)
(-0.881759 -0.0395501 0)
(-0.881759 -0.0395501 0)
(-0.881759 -0.0395501 0)
(-0.881759 -0.0395501 0)
(-0.881759 -0.0395501 0)
(-0.881759 -0.0395501 0)
(-0.881759 -0.0395501 0)
(-0.881759 -0.0395501 0)
(-0.881759 -0.0395501 0)
(-0.881759 -0.0395501 0)
(-0.881759 -0.0395501 0)
(-0.881759 -0.0395501 0)
(-0.881759 -0.0395501 0)
(-0.881759 -0.0395501 0)
(-0.881759 -0.0395501 0)
(-0.881759 -0.0395501 0)
(-0.881759 -0.0395501 0)
(-0.881759 -0.0395501 0)
(-0.881759 -0.0395501 0)
(-0.881759 -0.0395501 0)
(-0.881759 -0.0395501 0)
(-0.881759 -0.0395501 0)
(-0.881759 -0.0395501 0)
(-0.881759 -0.0395501 0)
(-0.881759 -0.0395501 0)
(-0.881759 -0.0395501 0)
(-0.881759 -0.0395501 0)
(-0.881759 -0.0395501 0)
(-0.881759 -0.0395501 0)
(-0.881759 -0.0395501 0)
(-0.881759 -0.0395501 0)
(-0.881759 -0.0395501 0)
(-0.881759 -0.0395501 0)
(-0.881759 -0.0395501 0)
(-0.881759 -0.0395501 0)
(-0.881759 -0.0395501 0)
(-0.881759 -0.0395501 0)
(-0.881759 -0.0395501 0)
(-0.881759 -0.0395501 0)
(-0.881759 -0.0395501 0)
(-0.881759 -0.0395501 0)
(-0.881759 -0.0395501 0)
(-0.881759 -0.0395501 0)
(-0.881759 -0.0395501 0)
(-0.881759 -0.0395501 0)
(-0.881759 -0.0395501 0)
(-0.881759 -0.0395501 0)
(-0.881759 -0.0395501 0)
(-0.881759 -0.0395501 0)
(-0.881759 -0.0395501 0)
(-0.881759 -0.0395501 0)
(-0.881759 -0.0395501 0)
(-0.881759 -0.0395501 0)
(-0.881759 -0.0395501 0)
(-0.881759 -0.0395501 0)
(-0.881759 -0.0395501 0)
(-0.881759 -0.0395501 0)
(-0.881759 -0.0395501 0)
(-0.881759 -0.0395501 0)
(-0.881759 -0.0395501 0)
(-0.881759 -0.0395501 0)
(-0.881759 -0.0395501 0)
(-0.881759 -0.0395501 0)
(-0.881759 -0.0395501 0)
(-0.881759 -0.0395501 0)
(-0.881759 -0.0395501 0)
(-0.881759 -0.0395501 0)
(-0.881759 -0.0395501 0)
(-0.881759 -0.0395501 0)
(-0.881759 -0.0395501 0)
(-0.881759 -0.0395501 0)
(-0.881759 -0.0395501 0)
(-0.881759 -0.0395501 0)
(-0.881759 -0.0395501 0)
(-0.881759 -0.0395501 0)
(-0.881759 -0.0395501 0)
(-0.881759 -0.0395501 0)
(-0.881759 -0.0395501 0)
(-0.881759 -0.0395501 0)
(-0.881759 -0.0395501 0)
(-0.881759 -0.0395501 0)
(-0.881759 -0.0395501 0)
(-0.881759 -0.0395501 0)
(-0.881759 -0.0395501 0)
(-0.881759 -0.0395501 0)
(-0.881759 -0.0395501 0)
(-0.881759 -0.0395501 0)
(-0.881759 -0.0395501 0)
(-0.881759 -0.0395501 0)
(-0.881759 -0.0395501 0)
(-0.881759 -0.0395501 0)
(-0.881759 -0.0395499 0)
(-0.881759 -0.0395414 0)
(-0.881759 -0.039197 0)
(-0.881761 -0.0225005 0)
)
;

boundaryField
{
    inandouthalf11
    {
        type            cyclic;
    }
    inandouthalf12
    {
        type            cyclic;
    }
    inandouthalf21
    {
        type            cyclic;
    }
    inandouthalf22
    {
        type            cyclic;
    }
    inandouthalf31
    {
        type            cyclic;
    }
    inandouthalf32
    {
        type            cyclic;
    }
    inandouthalf41
    {
        type            cyclic;
    }
    inandouthalf42
    {
        type            cyclic;
    }
    top
    {
        type            symmetryPlane;
    }
    walls
    {
        type            fixedValue;
        value           uniform (0 0 0);
    }
    frontAndBackPlanes
    {
        type            empty;
    }
}


// ************************************************************************* //
