/*--------------------------------*- C++ -*----------------------------------*\
| =========                 |                                                 |
| \\      /  F ield         | OpenFOAM: The Open Source CFD Toolbox           |
|  \\    /   O peration     | Version:  2.4.x                                 |
|   \\  /    A nd           | Web:      www.OpenFOAM.org                      |
|    \\/     M anipulation  |                                                 |
\*---------------------------------------------------------------------------*/
FoamFile
{
    version     2.0;
    format      ascii;
    class       volVectorField;
    location    "5.25";
    object      Ub;
}
// * * * * * * * * * * * * * * * * * * * * * * * * * * * * * * * * * * * * * //

dimensions      [0 1 -1 0 0 0 0];

internalField   nonuniform List<vector> 
360
(
(6.17618e-07 9.24818e-08 0)
(5.78289e-07 3.50244e-07 0)
(5.34296e-07 6.65368e-07 0)
(4.96129e-07 9.53384e-07 0)
(4.58514e-07 1.23148e-06 0)
(4.19329e-07 1.51436e-06 0)
(3.78933e-07 1.80338e-06 0)
(3.37838e-07 2.09573e-06 0)
(2.96261e-07 2.38948e-06 0)
(2.5424e-07 2.68423e-06 0)
(2.11697e-07 2.98049e-06 0)
(1.68544e-07 3.27874e-06 0)
(1.24745e-07 3.57919e-06 0)
(8.03013e-08 3.88176e-06 0)
(3.5234e-08 4.18628e-06 0)
(-1.04494e-08 4.49265e-06 0)
(-5.67562e-08 4.80085e-06 0)
(-1.03697e-07 5.1109e-06 0)
(-1.51279e-07 5.42276e-06 0)
(-1.99513e-07 5.73649e-06 0)
(-2.48413e-07 6.05207e-06 0)
(-2.98002e-07 6.36962e-06 0)
(-3.48328e-07 6.68939e-06 0)
(-3.99455e-07 7.01168e-06 0)
(-4.51457e-07 7.33691e-06 0)
(-5.04419e-07 7.66551e-06 0)
(-5.58422e-07 7.99786e-06 0)
(-6.13536e-07 8.33433e-06 0)
(-6.6979e-07 8.67494e-06 0)
(-7.27125e-07 9.01923e-06 0)
(-7.85381e-07 9.36613e-06 0)
(-8.44289e-07 9.71404e-06 0)
(-9.03482e-07 1.00606e-05 0)
(-9.6253e-07 1.04036e-05 0)
(-1.02105e-06 1.07407e-05 0)
(-1.07881e-06 1.10706e-05 0)
(-1.13584e-06 1.13937e-05 0)
(-1.19263e-06 1.17128e-05 0)
(-1.25019e-06 1.20337e-05 0)
(-1.31016e-06 1.23653e-05 0)
(-1.37499e-06 1.27213e-05 0)
(-1.44812e-06 1.31203e-05 0)
(-1.534e-06 1.35855e-05 0)
(-1.63755e-06 1.41412e-05 0)
(-1.76173e-06 1.4798e-05 0)
(-1.90211e-06 1.55273e-05 0)
(-2.04142e-06 1.62431e-05 0)
(-2.15381e-06 1.68274e-05 0)
(-2.22289e-06 1.72054e-05 0)
(-2.25404e-06 1.73931e-05 0)
(-2.26431e-06 1.74631e-05 0)
(-2.26686e-06 1.74827e-05 0)
(-2.26735e-06 1.74863e-05 0)
(-2.26738e-06 1.74861e-05 0)
(-2.26731e-06 1.7485e-05 0)
(-2.26722e-06 1.74837e-05 0)
(-2.26712e-06 1.74821e-05 0)
(-2.267e-06 1.74806e-05 0)
(-2.26688e-06 1.74789e-05 0)
(-2.26676e-06 1.74771e-05 0)
(-2.26663e-06 1.74753e-05 0)
(-2.26649e-06 1.74734e-05 0)
(-2.26635e-06 1.74715e-05 0)
(-2.26621e-06 1.74694e-05 0)
(-2.26606e-06 1.74674e-05 0)
(-2.26591e-06 1.74652e-05 0)
(-2.26576e-06 1.7463e-05 0)
(-2.2656e-06 1.74608e-05 0)
(-2.26544e-06 1.74585e-05 0)
(-2.26527e-06 1.7456e-05 0)
(-2.26509e-06 1.74535e-05 0)
(-2.2649e-06 1.74509e-05 0)
(-2.26471e-06 1.74482e-05 0)
(-2.26452e-06 1.74454e-05 0)
(-2.26431e-06 1.74426e-05 0)
(-2.26411e-06 1.74397e-05 0)
(-2.2639e-06 1.74367e-05 0)
(-2.26368e-06 1.74336e-05 0)
(-2.26346e-06 1.74305e-05 0)
(-2.26324e-06 1.74274e-05 0)
(-2.263e-06 1.74241e-05 0)
(-2.26277e-06 1.74207e-05 0)
(-2.26252e-06 1.74173e-05 0)
(-2.26227e-06 1.74138e-05 0)
(-2.26201e-06 1.74102e-05 0)
(-2.26175e-06 1.74065e-05 0)
(-2.26148e-06 1.74027e-05 0)
(-2.26121e-06 1.73989e-05 0)
(-2.26093e-06 1.73949e-05 0)
(-2.26064e-06 1.73909e-05 0)
(-2.26035e-06 1.73868e-05 0)
(-2.26005e-06 1.73826e-05 0)
(-2.25974e-06 1.73783e-05 0)
(-2.25943e-06 1.73739e-05 0)
(-2.25911e-06 1.73694e-05 0)
(-2.25878e-06 1.73649e-05 0)
(-2.25844e-06 1.73602e-05 0)
(-2.2581e-06 1.73554e-05 0)
(-2.25774e-06 1.73504e-05 0)
(-2.25738e-06 1.73454e-05 0)
(-2.25701e-06 1.73403e-05 0)
(-2.25663e-06 1.7335e-05 0)
(-2.25625e-06 1.73296e-05 0)
(-2.25585e-06 1.73241e-05 0)
(-2.25544e-06 1.73184e-05 0)
(-2.25502e-06 1.73126e-05 0)
(-2.25459e-06 1.73067e-05 0)
(-2.25415e-06 1.73006e-05 0)
(-2.25369e-06 1.72943e-05 0)
(-2.25323e-06 1.72879e-05 0)
(-2.25275e-06 1.72813e-05 0)
(-2.25226e-06 1.72745e-05 0)
(-2.25175e-06 1.72676e-05 0)
(-2.25123e-06 1.72604e-05 0)
(-2.25069e-06 1.72531e-05 0)
(-2.25013e-06 1.72455e-05 0)
(-2.24956e-06 1.72377e-05 0)
(-2.24897e-06 1.72297e-05 0)
(-2.24837e-06 1.72214e-05 0)
(-2.24774e-06 1.72129e-05 0)
(-2.24709e-06 1.72042e-05 0)
(-2.24642e-06 1.71951e-05 0)
(-2.24573e-06 1.71858e-05 0)
(-2.24501e-06 1.71761e-05 0)
(-2.24427e-06 1.71662e-05 0)
(-2.24351e-06 1.71559e-05 0)
(-2.24271e-06 1.71452e-05 0)
(-2.24189e-06 1.71341e-05 0)
(-2.24103e-06 1.71227e-05 0)
(-2.24013e-06 1.71107e-05 0)
(-2.2392e-06 1.70984e-05 0)
(-2.23823e-06 1.70854e-05 0)
(-2.23721e-06 1.70719e-05 0)
(-2.23613e-06 1.70577e-05 0)
(-2.23499e-06 1.70427e-05 0)
(-2.23378e-06 1.70269e-05 0)
(-2.2325e-06 1.70101e-05 0)
(-2.23114e-06 1.69919e-05 0)
(-2.22963e-06 1.69717e-05 0)
(-2.2279e-06 1.69501e-05 0)
(-2.22601e-06 1.69283e-05 0)
(-2.22421e-06 1.69012e-05 0)
(-2.22206e-06 1.68712e-05 0)
(-2.21925e-06 1.6836e-05 0)
(-2.21577e-06 1.67736e-05 0)
(-2.21083e-06 1.70555e-05 0)
(-3.48891e-06 1.04058e-05 0)
(-0.000874781 3.64681e-05 0)
(-0.0866012 0.000190196 0)
(-0.184605 0.000101628 0)
(-0.259625 0.000108302 0)
(-0.320241 9.05493e-05 0)
(-0.370682 7.45271e-05 0)
(-0.413476 5.98674e-05 0)
(-0.450347 4.68838e-05 0)
(-0.482542 3.5777e-05 0)
(-0.510992 2.65699e-05 0)
(-0.536405 1.91171e-05 0)
(-0.559326 1.31893e-05 0)
(-0.58018 8.53795e-06 0)
(-0.599301 4.92945e-06 0)
(-0.616951 2.16011e-06 0)
(-0.633343 5.93485e-08 0)
(-0.648649 -1.51222e-06 0)
(-0.663007 -2.66683e-06 0)
(-0.676532 -3.49405e-06 0)
(-0.68932 -4.06507e-06 0)
(-0.701451 -4.43627e-06 0)
(-0.712991 -4.65229e-06 0)
(-0.723998 -4.74846e-06 0)
(-0.734519 -4.75269e-06 0)
(-0.744597 -4.6871e-06 0)
(-0.754266 -4.56916e-06 0)
(-0.763558 -4.41269e-06 0)
(-0.772499 -4.22858e-06 0)
(-0.781112 -4.02542e-06 0)
(-0.789417 -3.80996e-06 0)
(-0.797432 -3.58748e-06 0)
(-0.805171 -3.36209e-06 0)
(-0.812647 -3.13689e-06 0)
(-0.819872 -2.91407e-06 0)
(-0.826855 -2.69479e-06 0)
(-0.833604 -2.47917e-06 0)
(-0.840126 -2.26648e-06 0)
(-0.846426 -2.05572e-06 0)
(-0.852508 -1.84659e-06 0)
(-0.858375 -1.64035e-06 0)
(-0.86403 -1.44019e-06 0)
(-0.869474 -1.25062e-06 0)
(-0.874707 -1.0762e-06 0)
(-0.879728 -9.20327e-07 0)
(-0.884538 -7.84568e-07 0)
(-0.889134 -6.68626e-07 0)
(-0.893514 -5.70406e-07 0)
(-0.897677 -4.86566e-07 0)
(-0.901619 -4.13801e-07 0)
(-0.905339 -3.50084e-07 0)
(-0.908833 -2.94753e-07 0)
(-0.9121 -2.47612e-07 0)
(-0.915139 -2.08106e-07 0)
(-0.917948 -1.75271e-07 0)
(-0.920554 -1.47847e-07 0)
(-0.922974 -1.24838e-07 0)
(-0.925198 -1.05421e-07 0)
(-0.927218 -8.89631e-08 0)
(-0.929028 -7.5165e-08 0)
(-0.930625 -6.361e-08 0)
(-0.932008 -5.37804e-08 0)
(-0.933178 -4.54468e-08 0)
(-0.934142 -3.84633e-08 0)
(-0.934905 -3.25564e-08 0)
(-0.935477 -2.75281e-08 0)
(-0.935866 -2.32599e-08 0)
(-0.936083 -1.96269e-08 0)
(-0.936138 -1.65502e-08 0)
(-0.93604 -1.39383e-08 0)
(-0.935797 -1.16919e-08 0)
(-0.935419 -9.79146e-09 0)
(-0.934911 -8.20096e-09 0)
(-0.93428 -6.84023e-09 0)
(-0.933532 -5.67884e-09 0)
(-0.932672 -4.70405e-09 0)
(-0.931703 -3.88581e-09 0)
(-0.93063 -3.19393e-09 0)
(-0.929457 -2.60562e-09 0)
(-0.928187 -2.11441e-09 0)
(-0.926823 -1.70777e-09 0)
(-0.92537 -1.36648e-09 0)
(-0.92383 -1.08471e-09 0)
(-0.922206 -8.55652e-10 0)
(-0.920503 -6.67898e-10 0)
(-0.918724 -5.12279e-10 0)
(-0.916873 -3.82419e-10 0)
(-0.914954 -2.81877e-10 0)
(-0.912971 -2.15388e-10 0)
(-0.91093 -1.81734e-10 0)
(-0.908835 -1.14812e-10 0)
(-0.906693 -3.41909e-11 0)
(-0.904509 1.27057e-11 0)
(-0.902293 1.94751e-11 0)
(-0.900052 -5.62426e-12 0)
(-0.897798 -8.50657e-12 0)
(-0.895542 2.89858e-11 0)
(-0.893301 -7.82006e-11 0)
(-0.891094 1.48538e-10 0)
(-0.888947 -2.54081e-10 0)
(-0.886896 3.84231e-10 0)
(-0.884991 -5.48263e-10 0)
(-0.883315 7.31899e-10 0)
(-0.882102 -9.39223e-10 0)
(-0.881768 1.15414e-09 0)
(-0.88175 -1.38128e-09 0)
(-0.881749 1.60997e-09 0)
(-0.881748 -1.84846e-09 0)
(-0.881748 2.0889e-09 0)
(-0.881747 -2.33914e-09 0)
(-0.881747 2.59219e-09 0)
(-0.881747 -2.85506e-09 0)
(-0.881747 3.1216e-09 0)
(-0.881747 -3.39796e-09 0)
(-0.881746 3.67883e-09 0)
(-0.881746 -3.9695e-09 0)
(-0.881746 4.2655e-09 0)
(-0.881746 -4.57126e-09 0)
(-0.881746 4.88311e-09 0)
(-0.881746 -5.2047e-09 0)
(-0.881746 5.53308e-09 0)
(-0.881746 -5.8712e-09 0)
(-0.881746 6.21673e-09 0)
(-0.881746 -6.57202e-09 0)
(-0.881746 6.93531e-09 0)
(-0.881746 -7.30839e-09 0)
(-0.881746 7.69001e-09 0)
(-0.881746 -8.08146e-09 0)
(-0.881746 8.48194e-09 0)
(-0.881746 -8.89232e-09 0)
(-0.881746 9.31221e-09 0)
(-0.881746 -9.74206e-09 0)
(-0.881746 1.01819e-08 0)
(-0.881746 -1.06317e-08 0)
(-0.881746 1.10919e-08 0)
(-0.881746 -1.15623e-08 0)
(-0.881746 1.20434e-08 0)
(-0.881746 -1.25348e-08 0)
(-0.881746 1.30373e-08 0)
(-0.881746 -1.35502e-08 0)
(-0.881746 1.40745e-08 0)
(-0.881746 -1.46094e-08 0)
(-0.881746 1.51558e-08 0)
(-0.881746 -1.57132e-08 0)
(-0.881746 1.62823e-08 0)
(-0.881746 -1.68625e-08 0)
(-0.881746 1.74547e-08 0)
(-0.881746 -1.80582e-08 0)
(-0.881746 1.86738e-08 0)
(-0.881746 -1.93011e-08 0)
(-0.881746 1.99405e-08 0)
(-0.881746 -2.05918e-08 0)
(-0.881746 2.12555e-08 0)
(-0.881746 -2.19312e-08 0)
(-0.881746 2.26196e-08 0)
(-0.881746 -2.332e-08 0)
(-0.881746 2.40332e-08 0)
(-0.881746 -2.47587e-08 0)
(-0.881746 2.5497e-08 0)
(-0.881746 -2.62477e-08 0)
(-0.881746 2.70114e-08 0)
(-0.881746 -2.77875e-08 0)
(-0.881746 2.85767e-08 0)
(-0.881746 -2.93783e-08 0)
(-0.881746 2.65017e-08 0)
(-0.881746 -2.67153e-08 0)
(-0.881746 2.69268e-08 0)
(-0.881746 -2.71355e-08 0)
(-0.881746 2.73422e-08 0)
(-0.881746 -2.7546e-08 0)
(-0.881746 2.77477e-08 0)
(-0.881746 -2.79467e-08 0)
(-0.881746 2.81433e-08 0)
(-0.881746 -2.83372e-08 0)
(-0.881746 2.85288e-08 0)
(-0.881746 -2.87175e-08 0)
(-0.881746 2.89038e-08 0)
(-0.881746 -2.90873e-08 0)
(-0.881746 2.92683e-08 0)
(-0.881746 -2.94464e-08 0)
(-0.881746 2.96219e-08 0)
(-0.881746 -2.97945e-08 0)
(-0.881746 2.99643e-08 0)
(-0.881746 -3.01313e-08 0)
(-0.881746 3.02954e-08 0)
(-0.881746 -3.04565e-08 0)
(-0.881746 3.06147e-08 0)
(-0.881746 -3.07698e-08 0)
(-0.881746 3.09219e-08 0)
(-0.881746 -3.10709e-08 0)
(-0.881746 3.12167e-08 0)
(-0.881746 -3.13592e-08 0)
(-0.881746 3.14984e-08 0)
(-0.881746 -3.16342e-08 0)
(-0.881746 3.17667e-08 0)
(-0.881746 -3.18955e-08 0)
(-0.881746 3.20209e-08 0)
(-0.881746 -3.21423e-08 0)
(-0.881746 3.22602e-08 0)
(-0.881746 -3.23739e-08 0)
(-0.881746 3.24838e-08 0)
(-0.881746 -3.25892e-08 0)
(-0.881746 3.26906e-08 0)
(-0.881746 -3.27872e-08 0)
(-0.881746 3.28792e-08 0)
(-0.881746 -3.29661e-08 0)
(-0.881746 3.30478e-08 0)
(-0.881746 -3.3124e-08 0)
(-0.881746 3.31938e-08 0)
(-0.881746 -3.32576e-08 0)
(-0.881746 3.33131e-08 0)
(-0.881746 -3.33613e-08 0)
(-0.881746 3.33982e-08 0)
(-0.881746 -3.34226e-08 0)
)
;

boundaryField
{
    inandouthalf11
    {
        type            cyclic;
    }
    inandouthalf12
    {
        type            cyclic;
    }
    inandouthalf21
    {
        type            cyclic;
    }
    inandouthalf22
    {
        type            cyclic;
    }
    inandouthalf31
    {
        type            cyclic;
    }
    inandouthalf32
    {
        type            cyclic;
    }
    inandouthalf41
    {
        type            cyclic;
    }
    inandouthalf42
    {
        type            cyclic;
    }
    top
    {
        type            symmetryPlane;
    }
    walls
    {
        type            fixedValue;
        value           uniform (0 0 0);
    }
    frontAndBackPlanes
    {
        type            empty;
    }
}


// ************************************************************************* //
