/*--------------------------------*- C++ -*----------------------------------*\
| =========                 |                                                 |
| \\      /  F ield         | OpenFOAM: The Open Source CFD Toolbox           |
|  \\    /   O peration     | Version:  2.4.x                                 |
|   \\  /    A nd           | Web:      www.OpenFOAM.org                      |
|    \\/     M anipulation  |                                                 |
\*---------------------------------------------------------------------------*/
FoamFile
{
    version     2.0;
    format      ascii;
    class       volVectorField;
    location    "5.25";
    object      Ur;
}
// * * * * * * * * * * * * * * * * * * * * * * * * * * * * * * * * * * * * * //

dimensions      [0 1 -1 0 0 0 0];

internalField   nonuniform List<vector> 
360
(
(6.17618e-07 9.24818e-08 0)
(6.15173e-07 5.79948e-07 0)
(6.1449e-07 1.10031e-06 0)
(6.14806e-07 1.56115e-06 0)
(6.15062e-07 2.01273e-06 0)
(6.15186e-07 2.47634e-06 0)
(6.15295e-07 2.95008e-06 0)
(6.15414e-07 3.42878e-06 0)
(6.15534e-07 3.90956e-06 0)
(6.15658e-07 4.39192e-06 0)
(6.15788e-07 4.87679e-06 0)
(6.15917e-07 5.36502e-06 0)
(6.16048e-07 5.85694e-06 0)
(6.16178e-07 6.35241e-06 0)
(6.16308e-07 6.85108e-06 0)
(6.16441e-07 7.35281e-06 0)
(6.16574e-07 7.85758e-06 0)
(6.16709e-07 8.36542e-06 0)
(6.16844e-07 8.87628e-06 0)
(6.16982e-07 9.39024e-06 0)
(6.17119e-07 9.90728e-06 0)
(6.17258e-07 1.04276e-05 0)
(6.17398e-07 1.09515e-05 0)
(6.17538e-07 1.14796e-05 0)
(6.17681e-07 1.20126e-05 0)
(6.17824e-07 1.25512e-05 0)
(6.17968e-07 1.3096e-05 0)
(6.18116e-07 1.36476e-05 0)
(6.18265e-07 1.42061e-05 0)
(6.18415e-07 1.47709e-05 0)
(6.18568e-07 1.534e-05 0)
(6.18724e-07 1.5911e-05 0)
(6.18879e-07 1.648e-05 0)
(6.19038e-07 1.7043e-05 0)
(6.19193e-07 1.75962e-05 0)
(6.19348e-07 1.81375e-05 0)
(6.19499e-07 1.86674e-05 0)
(6.19648e-07 1.91902e-05 0)
(6.19794e-07 1.97155e-05 0)
(6.19931e-07 2.02578e-05 0)
(6.20071e-07 2.08393e-05 0)
(6.20208e-07 2.14905e-05 0)
(6.20346e-07 2.225e-05 0)
(6.20504e-07 2.31597e-05 0)
(6.20697e-07 2.42415e-05 0)
(6.20963e-07 2.54539e-05 0)
(6.21317e-07 2.6652e-05 0)
(6.21703e-07 2.76264e-05 0)
(6.22032e-07 2.8243e-05 0)
(6.2225e-07 2.85368e-05 0)
(6.22375e-07 2.86413e-05 0)
(6.22468e-07 2.86695e-05 0)
(6.22554e-07 2.86749e-05 0)
(6.22644e-07 2.86751e-05 0)
(6.22737e-07 2.8674e-05 0)
(6.22841e-07 2.86727e-05 0)
(6.22946e-07 2.86712e-05 0)
(6.23061e-07 2.86697e-05 0)
(6.23181e-07 2.8668e-05 0)
(6.23304e-07 2.86662e-05 0)
(6.23439e-07 2.86644e-05 0)
(6.23574e-07 2.86625e-05 0)
(6.23717e-07 2.86605e-05 0)
(6.23862e-07 2.86585e-05 0)
(6.24011e-07 2.86565e-05 0)
(6.24162e-07 2.86543e-05 0)
(6.2432e-07 2.86522e-05 0)
(6.24483e-07 2.86499e-05 0)
(6.24651e-07 2.86476e-05 0)
(6.24825e-07 2.86452e-05 0)
(6.25008e-07 2.86427e-05 0)
(6.25198e-07 2.86401e-05 0)
(6.25391e-07 2.86374e-05 0)
(6.25593e-07 2.86346e-05 0)
(6.25799e-07 2.86318e-05 0)
(6.26011e-07 2.86289e-05 0)
(6.26225e-07 2.86259e-05 0)
(6.26445e-07 2.86229e-05 0)
(6.2667e-07 2.86198e-05 0)
(6.269e-07 2.86166e-05 0)
(6.27136e-07 2.86134e-05 0)
(6.27378e-07 2.861e-05 0)
(6.27627e-07 2.86066e-05 0)
(6.27883e-07 2.86031e-05 0)
(6.28145e-07 2.85995e-05 0)
(6.28414e-07 2.85958e-05 0)
(6.28689e-07 2.85921e-05 0)
(6.28969e-07 2.85882e-05 0)
(6.29256e-07 2.85843e-05 0)
(6.29549e-07 2.85803e-05 0)
(6.29848e-07 2.85762e-05 0)
(6.30153e-07 2.8572e-05 0)
(6.30466e-07 2.85678e-05 0)
(6.30787e-07 2.85634e-05 0)
(6.31115e-07 2.85589e-05 0)
(6.31451e-07 2.85543e-05 0)
(6.31795e-07 2.85496e-05 0)
(6.32148e-07 2.85449e-05 0)
(6.32508e-07 2.854e-05 0)
(6.32877e-07 2.85349e-05 0)
(6.33256e-07 2.85298e-05 0)
(6.33643e-07 2.85246e-05 0)
(6.3404e-07 2.85192e-05 0)
(6.34447e-07 2.85137e-05 0)
(6.34864e-07 2.8508e-05 0)
(6.35292e-07 2.85022e-05 0)
(6.35731e-07 2.84963e-05 0)
(6.36181e-07 2.84902e-05 0)
(6.36644e-07 2.8484e-05 0)
(6.37119e-07 2.84776e-05 0)
(6.37608e-07 2.8471e-05 0)
(6.3811e-07 2.84643e-05 0)
(6.38627e-07 2.84573e-05 0)
(6.39158e-07 2.84502e-05 0)
(6.39705e-07 2.84428e-05 0)
(6.40269e-07 2.84353e-05 0)
(6.4085e-07 2.84275e-05 0)
(6.41449e-07 2.84195e-05 0)
(6.42067e-07 2.84113e-05 0)
(6.42704e-07 2.84028e-05 0)
(6.43362e-07 2.8394e-05 0)
(6.44042e-07 2.8385e-05 0)
(6.44745e-07 2.83757e-05 0)
(6.45471e-07 2.8366e-05 0)
(6.46223e-07 2.83561e-05 0)
(6.47001e-07 2.83458e-05 0)
(6.47808e-07 2.83352e-05 0)
(6.48645e-07 2.83241e-05 0)
(6.49517e-07 2.83127e-05 0)
(6.50424e-07 2.83008e-05 0)
(6.5137e-07 2.82884e-05 0)
(6.52355e-07 2.82755e-05 0)
(6.53384e-07 2.8262e-05 0)
(6.54471e-07 2.82477e-05 0)
(6.55626e-07 2.82328e-05 0)
(6.5685e-07 2.8217e-05 0)
(6.58137e-07 2.82002e-05 0)
(6.59504e-07 2.8182e-05 0)
(6.61022e-07 2.81618e-05 0)
(6.62767e-07 2.81403e-05 0)
(6.64661e-07 2.81184e-05 0)
(6.66468e-07 2.80914e-05 0)
(6.68627e-07 2.80614e-05 0)
(6.71438e-07 2.80261e-05 0)
(6.74919e-07 2.79638e-05 0)
(6.79859e-07 2.82456e-05 0)
(-5.98224e-07 2.1596e-05 0)
(-0.000784274 5.01424e-05 0)
(-0.00871766 0.000534184 0)
(-0.00905573 0.000479638 0)
(-0.00740452 0.000569196 0)
(-0.00600674 0.000588502 0)
(-0.00504524 0.000597393 0)
(-0.00440397 0.00059378 0)
(-0.00399999 0.000577884 0)
(-0.00377841 0.000549595 0)
(-0.00369912 0.000508879 0)
(-0.00373185 0.000455719 0)
(-0.00385441 0.000390184 0)
(-0.00405154 0.000312457 0)
(-0.00431362 0.000222821 0)
(-0.0046354 0.000121627 0)
(-0.00501494 9.26669e-06 0)
(-0.00545268 -0.000113853 0)
(-0.00595082 -0.000247319 0)
(-0.0065128 -0.000390727 0)
(-0.00714288 -0.000543686 0)
(-0.00784591 -0.000705812 0)
(-0.00862711 -0.000876729 0)
(-0.00949184 -0.00105606 0)
(-0.0104455 -0.00124345 0)
(-0.0114934 -0.0014385 0)
(-0.0126405 -0.00164083 0)
(-0.0138917 -0.00185003 0)
(-0.0152512 -0.00206567 0)
(-0.0167227 -0.00228728 0)
(-0.0183094 -0.00251436 0)
(-0.0200134 -0.00274635 0)
(-0.0218363 -0.00298263 0)
(-0.0237785 -0.00322249 0)
(-0.0258392 -0.00346502 0)
(-0.0280166 -0.00370889 0)
(-0.0303072 -0.00395196 0)
(-0.0327059 -0.00419092 0)
(-0.0352057 -0.00442103 0)
(-0.0377971 -0.00463647 0)
(-0.0404682 -0.00483116 0)
(-0.0432042 -0.00500004 0)
(-0.0459882 -0.00514032 0)
(-0.0488014 -0.00525202 0)
(-0.0516245 -0.00533771 0)
(-0.0544378 -0.00540169 0)
(-0.0572226 -0.00544915 0)
(-0.0599612 -0.00548515 0)
(-0.0626366 -0.00551327 0)
(-0.0652325 -0.00553479 0)
(-0.0677323 -0.00554942 0)
(-0.0701194 -0.00555676 0)
(-0.0723784 -0.00555725 0)
(-0.0744959 -0.00555208 0)
(-0.0764605 -0.00554251 0)
(-0.0782816 -0.00552953 0)
(-0.0799627 -0.00551409 0)
(-0.0814896 -0.00549708 0)
(-0.0828493 -0.00547861 0)
(-0.0840317 -0.00545902 0)
(-0.0850307 -0.00543912 0)
(-0.085842 -0.00541895 0)
(-0.0864641 -0.0053982 0)
(-0.0868996 -0.00537732 0)
(-0.0871534 -0.00535646 0)
(-0.0872312 -0.00533534 0)
(-0.0871409 -0.00531405 0)
(-0.0868907 -0.00529243 0)
(-0.0864886 -0.00527018 0)
(-0.0859438 -0.00524764 0)
(-0.085263 -0.00522428 0)
(-0.0844523 -0.00519948 0)
(-0.0835199 -0.00517391 0)
(-0.0824712 -0.00514725 0)
(-0.08131 -0.00511873 0)
(-0.0800416 -0.0050885 0)
(-0.0786705 -0.00505633 0)
(-0.0772011 -0.0050223 0)
(-0.0756363 -0.0049856 0)
(-0.0739789 -0.00494537 0)
(-0.0722343 -0.0049022 0)
(-0.0704052 -0.00485486 0)
(-0.0684946 -0.00480222 0)
(-0.0665083 -0.00474433 0)
(-0.0644509 -0.00468014 0)
(-0.0623274 -0.00460818 0)
(-0.0601412 -0.00452482 0)
(-0.0578938 -0.0044213 0)
(-0.0556046 -0.00430287 0)
(-0.0532972 -0.00417824 0)
(-0.0508855 -0.00399477 0)
(-0.000836604 -0.000125159 0)
(-0.000471102 -0.000286942 0)
(-0.000511649 0.0350998 0)
(-0.000429419 0.039734 0)
(-0.000591245 0.0395941 0)
(-0.000564617 0.0396083 0)
(-0.00055338 0.039608 0)
(-0.000533911 0.0396083 0)
(-0.000506614 0.0396073 0)
(-0.000468093 0.0396048 0)
(-0.000414266 0.0395998 0)
(-0.000356291 0.0395881 0)
(-9.86112e-05 0.0395691 0)
(5.6383e-06 0.0395541 0)
(1.20593e-05 0.0395503 0)
(1.22093e-05 0.0395501 0)
(1.22471e-05 0.0395501 0)
(1.22642e-05 0.0395501 0)
(1.22785e-05 0.0395501 0)
(1.22898e-05 0.0395501 0)
(1.22988e-05 0.0395501 0)
(1.23058e-05 0.0395501 0)
(1.23113e-05 0.0395501 0)
(1.23157e-05 0.0395501 0)
(1.23191e-05 0.0395501 0)
(1.23217e-05 0.0395501 0)
(1.23237e-05 0.0395501 0)
(1.23253e-05 0.0395501 0)
(1.23265e-05 0.0395501 0)
(1.23274e-05 0.0395501 0)
(1.2328e-05 0.0395501 0)
(1.23285e-05 0.0395501 0)
(1.23289e-05 0.0395501 0)
(1.23291e-05 0.0395501 0)
(1.23294e-05 0.0395501 0)
(1.23296e-05 0.0395501 0)
(1.23297e-05 0.0395501 0)
(1.23298e-05 0.0395501 0)
(1.23298e-05 0.0395501 0)
(1.23299e-05 0.0395501 0)
(1.23299e-05 0.0395501 0)
(1.23299e-05 0.0395501 0)
(1.23299e-05 0.0395501 0)
(1.23299e-05 0.0395501 0)
(1.23299e-05 0.0395501 0)
(1.23299e-05 0.0395501 0)
(1.233e-05 0.0395501 0)
(1.233e-05 0.0395501 0)
(1.233e-05 0.0395501 0)
(1.233e-05 0.0395501 0)
(1.233e-05 0.0395501 0)
(1.233e-05 0.0395501 0)
(1.233e-05 0.0395501 0)
(1.233e-05 0.0395501 0)
(1.233e-05 0.0395501 0)
(1.233e-05 0.0395501 0)
(1.233e-05 0.0395501 0)
(1.233e-05 0.0395501 0)
(1.233e-05 0.0395501 0)
(1.233e-05 0.0395501 0)
(1.233e-05 0.0395501 0)
(1.233e-05 0.0395501 0)
(1.233e-05 0.0395501 0)
(1.233e-05 0.0395501 0)
(1.233e-05 0.0395501 0)
(1.233e-05 0.0395501 0)
(1.233e-05 0.0395501 0)
(1.233e-05 0.0395501 0)
(1.233e-05 0.0395501 0)
(1.233e-05 0.0395501 0)
(1.233e-05 0.0395501 0)
(1.233e-05 0.0395501 0)
(1.233e-05 0.0395501 0)
(1.233e-05 0.0395501 0)
(1.233e-05 0.0395501 0)
(1.233e-05 0.0395501 0)
(1.233e-05 0.0395501 0)
(1.233e-05 0.0395501 0)
(1.233e-05 0.0395501 0)
(1.233e-05 0.0395501 0)
(1.233e-05 0.0395501 0)
(1.233e-05 0.0395501 0)
(1.233e-05 0.0395501 0)
(1.233e-05 0.0395501 0)
(1.233e-05 0.0395501 0)
(1.233e-05 0.0395501 0)
(1.233e-05 0.0395501 0)
(1.233e-05 0.0395501 0)
(1.233e-05 0.0395501 0)
(1.233e-05 0.0395501 0)
(1.233e-05 0.0395501 0)
(1.233e-05 0.0395501 0)
(1.233e-05 0.0395501 0)
(1.233e-05 0.0395501 0)
(1.233e-05 0.0395501 0)
(1.233e-05 0.0395501 0)
(1.233e-05 0.0395501 0)
(1.233e-05 0.0395501 0)
(1.233e-05 0.0395501 0)
(1.233e-05 0.0395501 0)
(1.233e-05 0.0395501 0)
(1.233e-05 0.0395501 0)
(1.233e-05 0.0395501 0)
(1.233e-05 0.0395501 0)
(1.233e-05 0.0395501 0)
(1.233e-05 0.0395501 0)
(1.233e-05 0.0395501 0)
(1.233e-05 0.0395501 0)
(1.233e-05 0.0395501 0)
(1.233e-05 0.0395501 0)
(1.233e-05 0.0395501 0)
(1.233e-05 0.0395501 0)
(1.233e-05 0.0395501 0)
(1.233e-05 0.0395501 0)
(1.233e-05 0.0395501 0)
(1.233e-05 0.0395501 0)
(1.233e-05 0.0395501 0)
(1.233e-05 0.0395501 0)
(1.233e-05 0.03955 0)
(1.23301e-05 0.0395499 0)
(1.2334e-05 0.0395414 0)
(1.2427e-05 0.039197 0)
(1.45344e-05 0.0225005 0)
)
;

boundaryField
{
    inandouthalf11
    {
        type            cyclic;
    }
    inandouthalf12
    {
        type            cyclic;
    }
    inandouthalf21
    {
        type            cyclic;
    }
    inandouthalf22
    {
        type            cyclic;
    }
    inandouthalf31
    {
        type            cyclic;
    }
    inandouthalf32
    {
        type            cyclic;
    }
    inandouthalf41
    {
        type            cyclic;
    }
    inandouthalf42
    {
        type            cyclic;
    }
    top
    {
        type            symmetryPlane;
    }
    walls
    {
        type            calculated;
        value           uniform (0 0 0);
    }
    frontAndBackPlanes
    {
        type            empty;
    }
}


// ************************************************************************* //
