/*--------------------------------*- C++ -*----------------------------------*\
| =========                 |                                                 |
| \\      /  F ield         | OpenFOAM: The Open Source CFD Toolbox           |
|  \\    /   O peration     | Version:  2.4.x                                 |
|   \\  /    A nd           | Web:      www.OpenFOAM.org                      |
|    \\/     M anipulation  |                                                 |
\*---------------------------------------------------------------------------*/
FoamFile
{
    version     2.0;
    format      ascii;
    class       volVectorField;
    location    "8.9";
    object      ddt0(Ub);
}
// * * * * * * * * * * * * * * * * * * * * * * * * * * * * * * * * * * * * * //

dimensions      [0 1 -2 0 0 0 0];

internalField   nonuniform List<vector> 
360
(
(-0.00034865 -1.62173e-08 0)
(-0.000346767 -5.8132e-08 0)
(-0.00034651 -1.08618e-07 0)
(-0.000346782 -1.58019e-07 0)
(-0.000346924 -2.08863e-07 0)
(-0.000346982 -2.62169e-07 0)
(-0.000347049 -3.17045e-07 0)
(-0.000347131 -3.72623e-07 0)
(-0.000347215 -4.28513e-07 0)
(-0.0003473 -4.84538e-07 0)
(-0.000347386 -5.40572e-07 0)
(-0.000347472 -5.96459e-07 0)
(-0.000347558 -6.52021e-07 0)
(-0.000347645 -7.07103e-07 0)
(-0.000347733 -7.61553e-07 0)
(-0.000347821 -8.15242e-07 0)
(-0.00034791 -8.68054e-07 0)
(-0.000347999 -9.19871e-07 0)
(-0.000348088 -9.70567e-07 0)
(-0.000348178 -1.02003e-06 0)
(-0.000348268 -1.06815e-06 0)
(-0.000348359 -1.11481e-06 0)
(-0.00034845 -1.15993e-06 0)
(-0.000348541 -1.20341e-06 0)
(-0.000348632 -1.24518e-06 0)
(-0.000348723 -1.28516e-06 0)
(-0.000348815 -1.32332e-06 0)
(-0.000348907 -1.35961e-06 0)
(-0.000348999 -1.39401e-06 0)
(-0.000349091 -1.42651e-06 0)
(-0.000349183 -1.45713e-06 0)
(-0.000349276 -1.48588e-06 0)
(-0.000349368 -1.51281e-06 0)
(-0.000349462 -1.53797e-06 0)
(-0.000349555 -1.56145e-06 0)
(-0.000349649 -1.58332e-06 0)
(-0.000349743 -1.60369e-06 0)
(-0.000349837 -1.62267e-06 0)
(-0.000349933 -1.64038e-06 0)
(-0.000350027 -1.65695e-06 0)
(-0.000350124 -1.67252e-06 0)
(-0.00035022 -1.68722e-06 0)
(-0.000350317 -1.70119e-06 0)
(-0.000350415 -1.71458e-06 0)
(-0.000350514 -1.72752e-06 0)
(-0.000350613 -1.74014e-06 0)
(-0.000350714 -1.75257e-06 0)
(-0.000350814 -1.76493e-06 0)
(-0.000350917 -1.77734e-06 0)
(-0.000351021 -1.7899e-06 0)
(-0.000351125 -1.80271e-06 0)
(-0.000351231 -1.81586e-06 0)
(-0.000351337 -1.82941e-06 0)
(-0.000351446 -1.84343e-06 0)
(-0.000351555 -1.85799e-06 0)
(-0.000351666 -1.87314e-06 0)
(-0.000351778 -1.8889e-06 0)
(-0.000351892 -1.90531e-06 0)
(-0.000352007 -1.92237e-06 0)
(-0.000352123 -1.94009e-06 0)
(-0.000352242 -1.9585e-06 0)
(-0.000352361 -1.97758e-06 0)
(-0.000352483 -1.99733e-06 0)
(-0.000352606 -2.01775e-06 0)
(-0.000352731 -2.03881e-06 0)
(-0.000352857 -2.06049e-06 0)
(-0.000352986 -2.08276e-06 0)
(-0.000353116 -2.10559e-06 0)
(-0.000353248 -2.12896e-06 0)
(-0.000353381 -2.15281e-06 0)
(-0.000353517 -2.17712e-06 0)
(-0.000353656 -2.20188e-06 0)
(-0.000353795 -2.22703e-06 0)
(-0.000353937 -2.25256e-06 0)
(-0.000354081 -2.27841e-06 0)
(-0.000354227 -2.30457e-06 0)
(-0.000354375 -2.33099e-06 0)
(-0.000354526 -2.35762e-06 0)
(-0.000354679 -2.38443e-06 0)
(-0.000354834 -2.4114e-06 0)
(-0.000354992 -2.43847e-06 0)
(-0.000355152 -2.46562e-06 0)
(-0.000355315 -2.49282e-06 0)
(-0.00035548 -2.52007e-06 0)
(-0.000355649 -2.54732e-06 0)
(-0.00035582 -2.57456e-06 0)
(-0.000355994 -2.60176e-06 0)
(-0.000356171 -2.6289e-06 0)
(-0.000356351 -2.65593e-06 0)
(-0.000356534 -2.68283e-06 0)
(-0.00035672 -2.70959e-06 0)
(-0.00035691 -2.73617e-06 0)
(-0.000357103 -2.76255e-06 0)
(-0.000357301 -2.78872e-06 0)
(-0.000357501 -2.81467e-06 0)
(-0.000357706 -2.84038e-06 0)
(-0.000357915 -2.86584e-06 0)
(-0.000358128 -2.89102e-06 0)
(-0.000358346 -2.91592e-06 0)
(-0.000358568 -2.94053e-06 0)
(-0.000358795 -2.96482e-06 0)
(-0.000359027 -2.98878e-06 0)
(-0.000359263 -3.01241e-06 0)
(-0.000359506 -3.0357e-06 0)
(-0.000359753 -3.05866e-06 0)
(-0.000360007 -3.0813e-06 0)
(-0.000360267 -3.10365e-06 0)
(-0.000360533 -3.12572e-06 0)
(-0.000360805 -3.14756e-06 0)
(-0.000361085 -3.1692e-06 0)
(-0.000361371 -3.1907e-06 0)
(-0.000361666 -3.21213e-06 0)
(-0.000361968 -3.23356e-06 0)
(-0.000362279 -3.25506e-06 0)
(-0.000362598 -3.27674e-06 0)
(-0.000362926 -3.29866e-06 0)
(-0.000363264 -3.32092e-06 0)
(-0.000363612 -3.34358e-06 0)
(-0.000363971 -3.3667e-06 0)
(-0.000364341 -3.39029e-06 0)
(-0.000364723 -3.41429e-06 0)
(-0.000365117 -3.43856e-06 0)
(-0.000365524 -3.46281e-06 0)
(-0.000365945 -3.48664e-06 0)
(-0.00036638 -3.50943e-06 0)
(-0.00036683 -3.53044e-06 0)
(-0.000367296 -3.54872e-06 0)
(-0.000367778 -3.56324e-06 0)
(-0.000368277 -3.57286e-06 0)
(-0.000368793 -3.57652e-06 0)
(-0.000369328 -3.5735e-06 0)
(-0.000369881 -3.56414e-06 0)
(-0.000370455 -3.55091e-06 0)
(-0.000371062 -3.53958e-06 0)
(-0.000371715 -3.5389e-06 0)
(-0.000372426 -3.55668e-06 0)
(-0.000373195 -3.59258e-06 0)
(-0.000374024 -3.63452e-06 0)
(-0.000374935 -3.66824e-06 0)
(-0.000375957 -3.31102e-06 0)
(-0.000377052 -7.85044e-06 0)
(-0.00037801 1.16896e-05 0)
(-0.00029151 -6.49455e-05 0)
(0.0193681 0.000271207 0)
(0.185076 0.00315674 0)
(0.159451 0.00369982 0)
(0.13374 0.0029881 0)
(0.114451 0.00256989 0)
(0.0993576 0.00222599 0)
(0.0864594 0.00191115 0)
(0.0745219 0.00162259 0)
(0.0629952 0.00136032 0)
(0.0515539 0.00113393 0)
(0.0400583 0.000944917 0)
(0.0285203 0.000790664 0)
(0.017026 0.000667177 0)
(0.00569105 0.000569539 0)
(-0.00536601 0.0004926 0)
(-0.0160373 0.000431565 0)
(-0.0262313 0.000382303 0)
(-0.0358748 0.000341465 0)
(-0.0449122 0.000306474 0)
(-0.0533034 0.000275424 0)
(-0.0610208 0.000246961 0)
(-0.0680476 0.000220176 0)
(-0.0743747 0.000194469 0)
(-0.0799982 0.000169426 0)
(-0.084918 0.000144789 0)
(-0.0891359 0.000120391 0)
(-0.0926542 9.6133e-05 0)
(-0.0954749 7.19819e-05 0)
(-0.097598 4.79761e-05 0)
(-0.0990212 2.42375e-05 0)
(-0.0997386 9.74339e-07 0)
(-0.0997404 -2.15261e-05 0)
(-0.0990114 -4.29181e-05 0)
(-0.0975308 -6.28258e-05 0)
(-0.095271 -8.08761e-05 0)
(-0.0921967 -9.67278e-05 0)
(-0.0882644 -0.000110093 0)
(-0.0834219 -0.000120754 0)
(-0.0776076 -0.000128568 0)
(-0.0707514 -0.000133474 0)
(-0.0627758 -0.000135491 0)
(-0.0535984 -0.000134724 0)
(-0.0431371 -0.000131405 0)
(-0.0313171 -0.000125964 0)
(-0.0180811 -0.000119023 0)
(-0.00340333 -0.000111185 0)
(0.0126937 -0.000102683 0)
(0.0301199 -9.32304e-05 0)
(0.0486987 -8.23697e-05 0)
(0.0681561 -7.00992e-05 0)
(0.0881236 -5.71876e-05 0)
(0.108163 -4.48598e-05 0)
(0.127808 -3.41757e-05 0)
(0.14662 -2.56305e-05 0)
(0.164235 -1.91708e-05 0)
(0.180397 -1.44396e-05 0)
(0.19497 -1.10126e-05 0)
(0.207926 -8.52308e-06 0)
(0.219441 -6.67795e-06 0)
(0.22968 -5.28633e-06 0)
(0.238723 -4.22635e-06 0)
(0.246685 -3.41047e-06 0)
(0.253689 -2.77609e-06 0)
(0.259863 -2.27818e-06 0)
(0.265327 -1.88399e-06 0)
(0.27019 -1.56934e-06 0)
(0.274549 -1.31628e-06 0)
(0.278486 -1.11137e-06 0)
(0.282071 -9.44464e-07 0)
(0.285363 -8.0772e-07 0)
(0.28841 -6.94893e-07 0)
(0.291252 -6.01094e-07 0)
(0.293922 -5.22548e-07 0)
(0.296444 -4.56165e-07 0)
(0.298843 -3.99319e-07 0)
(0.301133 -3.49988e-07 0)
(0.30333 -3.06705e-07 0)
(0.305444 -2.68274e-07 0)
(0.307485 -2.33776e-07 0)
(0.30946 -2.02704e-07 0)
(0.311375 -1.74797e-07 0)
(0.313235 -1.49825e-07 0)
(0.315042 -1.27588e-07 0)
(0.316801 -1.07947e-07 0)
(0.318514 -9.07588e-08 0)
(0.320182 -7.58274e-08 0)
(0.321808 -6.2938e-08 0)
(0.323392 -5.19799e-08 0)
(0.324934 -4.26809e-08 0)
(0.326437 -3.46738e-08 0)
(0.327898 -2.83394e-08 0)
(0.32932 -2.31639e-08 0)
(0.3307 -1.85274e-08 0)
(0.332038 -1.32787e-08 0)
(0.333334 -9.3901e-09 0)
(0.334585 -7.97908e-09 0)
(0.335789 -6.38416e-09 0)
(0.336945 -4.90814e-09 0)
(0.33805 -3.6557e-09 0)
(0.3391 -2.76883e-09 0)
(0.340091 -2.03607e-09 0)
(0.341018 -1.56635e-09 0)
(0.341876 -1.2428e-09 0)
(0.342659 -1.00394e-09 0)
(0.34336 -6.49195e-10 0)
(0.343969 -4.07825e-10 0)
(0.344479 -6.3785e-10 0)
(0.344876 -6.04212e-10 0)
(0.34515 -5.74875e-10 0)
(0.345287 -5.60336e-10 0)
(0.34527 -5.46758e-10 0)
(0.345082 -5.31097e-10 0)
(0.344704 -5.14849e-10 0)
(0.344117 -4.98567e-10 0)
(0.3433 -4.82379e-10 0)
(0.342234 -4.72845e-10 0)
(0.340904 -3.92595e-10 0)
(0.339305 -5.40567e-10 0)
(0.337448 -2.14053e-10 0)
(0.335371 -6.63746e-10 0)
(0.333159 -4.40352e-12 0)
(0.330967 -7.89272e-10 0)
(0.329054 1.72848e-10 0)
(0.328639 -8.74173e-10 0)
(0.329043 2.87459e-10 0)
(0.329079 -9.0685e-10 0)
(0.32908 3.72725e-10 0)
(0.32908 -9.33952e-10 0)
(0.32908 4.59892e-10 0)
(0.32908 -9.66431e-10 0)
(0.32908 5.46916e-10 0)
(0.32908 -1.00961e-09 0)
(0.32908 6.32816e-10 0)
(0.32908 -1.05962e-09 0)
(0.32908 7.24262e-10 0)
(0.32908 -1.11301e-09 0)
(0.32908 8.19243e-10 0)
(0.32908 -1.17247e-09 0)
(0.32908 9.16114e-10 0)
(0.32908 -1.23732e-09 0)
(0.32908 1.01729e-09 0)
(0.32908 -1.30726e-09 0)
(0.32908 1.12433e-09 0)
(0.32908 -1.38189e-09 0)
(0.32908 1.23236e-09 0)
(0.32908 -1.46526e-09 0)
(0.32908 1.34122e-09 0)
(0.32908 -1.5551e-09 0)
(0.32908 1.45117e-09 0)
(0.32908 -1.65342e-09 0)
(0.32908 1.56442e-09 0)
(0.32908 -1.75934e-09 0)
(0.32908 1.67662e-09 0)
(0.32908 -1.87754e-09 0)
(0.32908 1.77644e-09 0)
(0.32908 -2.0209e-09 0)
(0.32908 1.87235e-09 0)
(0.32908 -2.17705e-09 0)
(0.32908 1.96515e-09 0)
(0.32908 -2.33943e-09 0)
(0.32908 2.0576e-09 0)
(0.32908 -2.50977e-09 0)
(0.32908 2.15403e-09 0)
(0.32908 -2.69216e-09 0)
(0.32908 2.24581e-09 0)
(0.32908 -2.88641e-09 0)
(0.32908 2.33682e-09 0)
(0.32908 -2.75461e-09 0)
(0.32908 2.04327e-09 0)
(0.32908 -2.8548e-09 0)
(0.32908 2.01554e-09 0)
(0.32908 -2.9638e-09 0)
(0.32908 1.98594e-09 0)
(0.32908 -3.07293e-09 0)
(0.32908 1.95417e-09 0)
(0.32908 -3.17737e-09 0)
(0.32908 1.92339e-09 0)
(0.32908 -3.30067e-09 0)
(0.32908 1.8534e-09 0)
(0.32908 -3.45129e-09 0)
(0.32908 1.77485e-09 0)
(0.32908 -3.61495e-09 0)
(0.32908 1.6464e-09 0)
(0.32908 -3.89937e-09 0)
(0.32908 1.16639e-09 0)
(0.32908 -4.89343e-09 0)
(0.32908 -2.09479e-10 0)
(0.32908 -6.71652e-09 0)
(0.32908 -2.12734e-09 0)
(0.32908 -8.70461e-09 0)
(0.32908 -4.01768e-09 0)
(0.32908 -1.04861e-08 0)
(0.32908 -5.50451e-09 0)
(0.32908 -1.20269e-08 0)
(0.32908 -7.15735e-09 0)
(0.32908 -1.361e-08 0)
(0.32908 -8.23363e-09 0)
(0.32908 -1.43964e-08 0)
(0.32908 -8.77091e-09 0)
(0.32908 -1.45769e-08 0)
(0.32908 -8.43697e-09 0)
(0.32908 -1.4452e-08 0)
(0.32908 -8.87187e-09 0)
(0.32908 -1.49436e-08 0)
(0.32908 -8.60526e-09 0)
(0.32908 -1.40906e-08 0)
(0.32908 -7.32366e-09 0)
(0.32908 -1.21249e-08 0)
(0.32908 -4.44074e-09 0)
(0.32908 -8.74028e-09 0)
(0.32908 -7.7013e-10 0)
(0.32908 -4.78356e-09 0)
(0.32908 3.50494e-09 0)
(0.32908 1.88591e-10 0)
(0.32908 8.78978e-09 0)
(0.32908 3.25115e-09 0)
(0.32908 6.25071e-09 0)
)
;

boundaryField
{
    inandouthalf11
    {
        type            cyclic;
    }
    inandouthalf12
    {
        type            cyclic;
    }
    inandouthalf21
    {
        type            cyclic;
    }
    inandouthalf22
    {
        type            cyclic;
    }
    inandouthalf31
    {
        type            cyclic;
    }
    inandouthalf32
    {
        type            cyclic;
    }
    inandouthalf41
    {
        type            cyclic;
    }
    inandouthalf42
    {
        type            cyclic;
    }
    top
    {
        type            symmetryPlane;
    }
    walls
    {
        type            calculated;
        value           uniform (0 0 0);
    }
    frontAndBackPlanes
    {
        type            empty;
    }
}


// ************************************************************************* //
