/*--------------------------------*- C++ -*----------------------------------*\
| =========                 |                                                 |
| \\      /  F ield         | OpenFOAM: The Open Source CFD Toolbox           |
|  \\    /   O peration     | Version:  2.4.x                                 |
|   \\  /    A nd           | Web:      www.OpenFOAM.org                      |
|    \\/     M anipulation  |                                                 |
\*---------------------------------------------------------------------------*/
FoamFile
{
    version     2.0;
    format      ascii;
    class       volVectorField;
    location    "8.9";
    object      gradPs;
}
// * * * * * * * * * * * * * * * * * * * * * * * * * * * * * * * * * * * * * //

dimensions      [0 1 -2 0 0 0 0];

internalField   nonuniform List<vector> 
360
(
(0 1.54359e-18 0)
(0 1.7035e-18 0)
(0 2.61e-21 0)
(0 -2.34844e-19 0)
(-1.45035e-32 -9.91552e-20 0)
(-1.45038e-32 -5.39143e-20 0)
(-1.45042e-32 -6.92589e-20 0)
(0 -7.93509e-20 0)
(-1.45053e-32 -8.09664e-20 0)
(0 -8.19083e-20 0)
(-1.45064e-32 -8.23416e-20 0)
(0 -8.2764e-20 0)
(-1.45075e-32 -8.35539e-20 0)
(0 -8.43637e-20 0)
(0 -8.54119e-20 0)
(0 -8.64747e-20 0)
(0 -8.7332e-20 0)
(-2.90207e-32 -8.81093e-20 0)
(0 -8.92623e-20 0)
(0 -9.00869e-20 0)
(0 -9.09445e-20 0)
(-1.45128e-32 -9.2152e-20 0)
(0 -9.3039e-20 0)
(0 -9.40627e-20 0)
(0 -9.51087e-20 0)
(-1.45153e-32 -9.5956e-20 0)
(0 -9.70999e-20 0)
(0 -9.8282e-20 0)
(0 -9.91287e-20 0)
(0 -1.00106e-19 0)
(0 -1.01469e-19 0)
(0 -1.02168e-19 0)
(0 -1.03415e-19 0)
(0 -1.04679e-19 0)
(0 -1.05458e-19 0)
(1.4522e-32 -1.06586e-19 0)
(0 -1.07641e-19 0)
(0 -1.09244e-19 0)
(0 -1.09704e-19 0)
(0 -1.10968e-19 0)
(0 -1.12712e-19 0)
(0 -1.12982e-19 0)
(1.45271e-32 -1.14541e-19 0)
(0 -1.15952e-19 0)
(0 -1.16796e-19 0)
(0 -1.18499e-19 0)
(0 -1.19134e-19 0)
(0 -1.20182e-19 0)
(0 -1.22526e-19 0)
(0 -1.23257e-19 0)
(1.45335e-32 -1.2425e-19 0)
(0 -1.26019e-19 0)
(0 -1.27424e-19 0)
(0 -1.28524e-19 0)
(0 -1.30283e-19 0)
(0 -1.31707e-19 0)
(0 -1.33049e-19 0)
(0 -1.35029e-19 0)
(0 -1.35759e-19 0)
(0 -1.3799e-19 0)
(0 -1.39724e-19 0)
(0 -1.41164e-19 0)
(0 -1.43228e-19 0)
(0 -1.44746e-19 0)
(0 -1.46508e-19 0)
(0 -1.48428e-19 0)
(0 -1.50647e-19 0)
(0 -1.52458e-19 0)
(0 -1.5388e-19 0)
(0 -1.56316e-19 0)
(0 -1.59248e-19 0)
(0 -1.60483e-19 0)
(0 -1.6265e-19 0)
(0 -1.65461e-19 0)
(0 -1.67871e-19 0)
(0 -1.70152e-19 0)
(0 -1.72198e-19 0)
(0 -1.75011e-19 0)
(0 -1.77778e-19 0)
(0 -1.80241e-19 0)
(0 -1.82939e-19 0)
(0 -1.86013e-19 0)
(0 -1.88926e-19 0)
(0 -1.91938e-19 0)
(0 -1.95047e-19 0)
(0 -1.98273e-19 0)
(0 -2.01538e-19 0)
(0 -2.04795e-19 0)
(0 -2.08299e-19 0)
(0 -2.11926e-19 0)
(0 -2.15608e-19 0)
(0 -2.1949e-19 0)
(0 -2.23545e-19 0)
(0 -2.2768e-19 0)
(0 -2.31949e-19 0)
(0 -2.36357e-19 0)
(0 -2.40896e-19 0)
(0 -2.45583e-19 0)
(0 -2.50452e-19 0)
(0 -2.55509e-19 0)
(0 -2.60757e-19 0)
(0 -2.66219e-19 0)
(0 -2.71896e-19 0)
(0 -2.77783e-19 0)
(0 -2.83894e-19 0)
(0 -2.9024e-19 0)
(0 -2.96831e-19 0)
(0 -3.03682e-19 0)
(0 -3.10809e-19 0)
(0 -3.18223e-19 0)
(0 -3.2594e-19 0)
(0 -3.33977e-19 0)
(0 -3.42352e-19 0)
(0 -3.51087e-19 0)
(0 -3.60209e-19 0)
(0 -3.69745e-19 0)
(0 -3.7973e-19 0)
(0 -3.90203e-19 0)
(0 -4.01209e-19 0)
(0 -4.12795e-19 0)
(0 -4.25005e-19 0)
(0 -4.37882e-19 0)
(0 -4.51461e-19 0)
(0 -4.65794e-19 0)
(0 -4.80979e-19 0)
(0 -4.97202e-19 0)
(0 -5.14739e-19 0)
(0 -5.33837e-19 0)
(0 1.1595e-17 0)
(0 9.30835e-16 0)
(0 1.19666e-14 0)
(0 1.41901e-13 0)
(0 1.7516e-12 0)
(0 2.28614e-11 0)
(0 3.20245e-10 0)
(0 4.90688e-09 0)
(0 8.39651e-08 0)
(0 1.64047e-06 0)
(0 4.1269e-05 0)
(0 0.00273465 0)
(0 0.144005 0)
(0 2.31869 0)
(0 9.32941 0)
(0 8.58236 0)
(0 0.405357 0)
(0 -1.35422 0)
(0 -2.87345 0)
(0 -3.48978 0)
(0 -3.76635 0)
(0 -3.89821 0)
(0 -3.97017 0)
(0 -3.92892 0)
(0 -3.82062 0)
(0 -3.74992 0)
(0 -3.69057 0)
(0 -3.63389 0)
(0 -3.57916 0)
(0 -3.52685 0)
(0 -3.47745 0)
(0 -3.43126 0)
(0 -3.38832 0)
(0 -3.34852 0)
(0 -3.31149 0)
(0 -3.27694 0)
(0 -3.24455 0)
(0 -3.21367 0)
(0 -3.18379 0)
(0 -3.15452 0)
(0 -3.12542 0)
(0 -3.09608 0)
(0 -3.06615 0)
(0 -3.03532 0)
(0 -3.00323 0)
(0 -2.96966 0)
(0 -2.93436 0)
(0 -2.89708 0)
(0 -2.85758 0)
(0 -2.81568 0)
(0 -2.77125 0)
(0 -2.72418 0)
(0 -2.67446 0)
(0 -2.62216 0)
(0 -2.56753 0)
(0 -2.5109 0)
(0 -2.45274 0)
(0 -2.39382 0)
(0 -2.33568 0)
(0 -2.28122 0)
(0 -2.23431 0)
(0 -2.19731 0)
(0 -2.1671 0)
(0 -2.13294 0)
(0 -2.07917 0)
(0 -1.99251 0)
(0 -1.86948 0)
(0 -1.71849 0)
(0 -1.55512 0)
(0 -1.39481 0)
(0 -1.24784 0)
(0 -1.11877 0)
(0 -1.00769 0)
(0 -0.912186 0)
(-1.70259e-16 -0.829646 0)
(0 -0.758114 0)
(0 -0.695862 0)
(2.24742e-16 -0.641437 0)
(0 -0.593671 0)
(-2.64076e-16 -0.551574 0)
(0 -0.514306 0)
(1.5306e-16 -0.48118 0)
(0 -0.451578 0)
(0 -0.425047 0)
(0 -0.401191 0)
(2.00269e-16 -0.379448 0)
(0 -0.359328 0)
(0 -0.340495 0)
(0 -0.322539 0)
(0 -0.304862 0)
(0 -0.286977 0)
(-7.23875e-17 -0.268723 0)
(0 -0.249818 0)
(-8.10265e-17 -0.229969 0)
(0 -0.209394 0)
(-4.48529e-17 -0.188422 0)
(0 -0.167384 0)
(0 -0.146611 0)
(0 -0.126655 0)
(0 -0.107801 0)
(0 -0.0904941 0)
(1.36969e-17 -0.0747589 0)
(0 -0.0608241 0)
(0 -0.04909 0)
(0 -0.0386353 0)
(0 -0.0299863 0)
(0 -0.0242083 0)
(0 -0.0231143 0)
(0 -0.0119511 0)
(0 0 0)
(0 0 0)
(0 0 0)
(0 0 0)
(0 0 0)
(0 0 0)
(0 0 0)
(0 0 0)
(0 0 0)
(0 0 0)
(0 0 0)
(0 0 0)
(0 0 0)
(0 0 0)
(0 0 0)
(0 0 0)
(0 0 0)
(0 0 0)
(0 0 0)
(0 0 0)
(0 0 0)
(0 0 0)
(0 0 0)
(0 0 0)
(0 0 0)
(0 0 0)
(0 0 0)
(0 0 0)
(0 0 0)
(0 0 0)
(0 0 0)
(0 0 0)
(0 0 0)
(0 0 0)
(0 0 0)
(0 0 0)
(0 0 0)
(0 0 0)
(0 0 0)
(0 0 0)
(0 0 0)
(0 0 0)
(0 0 0)
(0 0 0)
(0 0 0)
(0 0 0)
(0 0 0)
(0 0 0)
(0 0 0)
(0 0 0)
(0 0 0)
(0 0 0)
(0 0 0)
(0 0 0)
(0 0 0)
(0 0 0)
(0 0 0)
(0 0 0)
(0 0 0)
(0 0 0)
(0 0 0)
(0 0 0)
(0 0 0)
(0 0 0)
(0 0 0)
(0 0 0)
(0 0 0)
(0 0 0)
(0 0 0)
(0 0 0)
(0 0 0)
(0 0 0)
(0 0 0)
(0 0 0)
(0 0 0)
(0 0 0)
(0 0 0)
(0 0 0)
(0 0 0)
(0 0 0)
(0 0 0)
(0 0 0)
(0 0 0)
(0 0 0)
(0 0 0)
(0 0 0)
(0 0 0)
(0 0 0)
(0 0 0)
(0 0 0)
(0 0 0)
(0 0 0)
(0 0 0)
(0 0 0)
(0 0 0)
(0 0 0)
(0 0 0)
(0 0 0)
(0 0 0)
(0 0 0)
(0 0 0)
(0 0 0)
(0 0 0)
(0 0 0)
(0 0 0)
(0 0 0)
(0 0 0)
(0 0 0)
(0 0 0)
(0 0 0)
(0 0 0)
(0 0 0)
(0 0 0)
(0 0 0)
(0 0 0)
(0 0 0)
(0 0 0)
(0 0 0)
(0 0 0)
(0 0 0)
(0 0 0)
(0 0 0)
(0 0 0)
)
;

boundaryField
{
    inandouthalf11
    {
        type            cyclic;
    }
    inandouthalf12
    {
        type            cyclic;
    }
    inandouthalf21
    {
        type            cyclic;
    }
    inandouthalf22
    {
        type            cyclic;
    }
    inandouthalf31
    {
        type            cyclic;
    }
    inandouthalf32
    {
        type            cyclic;
    }
    inandouthalf41
    {
        type            cyclic;
    }
    inandouthalf42
    {
        type            cyclic;
    }
    top
    {
        type            symmetryPlane;
    }
    walls
    {
        type            calculated;
        value           uniform (0 0 0);
    }
    frontAndBackPlanes
    {
        type            empty;
    }
}


// ************************************************************************* //
