/*--------------------------------*- C++ -*----------------------------------*\
| =========                 |                                                 |
| \\      /  F ield         | OpenFOAM: The Open Source CFD Toolbox           |
|  \\    /   O peration     | Version:  2.4.x                                 |
|   \\  /    A nd           | Web:      www.OpenFOAM.org                      |
|    \\/     M anipulation  |                                                 |
\*---------------------------------------------------------------------------*/
FoamFile
{
    version     2.0;
    format      ascii;
    class       volScalarField;
    location    "8.9";
    object      k;
}
// * * * * * * * * * * * * * * * * * * * * * * * * * * * * * * * * * * * * * //

dimensions      [0 2 -2 0 0 0 0];

internalField   nonuniform List<scalar> 
360
(
1e-20
1e-20
1e-20
1e-20
1e-20
1e-20
1e-20
1e-20
1e-20
1e-20
1e-20
1e-20
1e-20
1e-20
1e-20
1e-20
1e-20
1e-20
1e-20
1e-20
1e-20
1e-20
1e-20
1e-20
1e-20
1e-20
1e-20
1e-20
1e-20
1e-20
1e-20
1e-20
1e-20
1e-20
1e-20
1e-20
1e-20
1e-20
1e-20
1e-20
1e-20
1e-20
1e-20
1e-20
1e-20
1e-20
1e-20
1e-20
1e-20
1e-20
1e-20
1e-20
1e-20
1e-20
1e-20
1e-20
1e-20
1e-20
1e-20
1e-20
1e-20
1e-20
1e-20
1e-20
1e-20
1e-20
1e-20
1e-20
1e-20
1e-20
1e-20
1e-20
1e-20
1e-20
1e-20
1e-20
1e-20
1e-20
1e-20
1e-20
1e-20
1e-20
1e-20
1e-20
1e-20
1e-20
1e-20
1e-20
1e-20
1e-20
1e-20
1e-20
1e-20
1e-20
1e-20
1e-20
1e-20
1e-20
1e-20
1e-20
1e-20
1e-20
1e-20
1e-20
1e-20
1e-20
1e-20
1e-20
1e-20
1e-20
1e-20
1e-20
1e-20
1e-20
1e-20
1e-20
1e-20
1e-20
1e-20
1e-20
1e-20
1e-20
1e-20
1e-20
1e-20
1e-20
1e-20
1e-20
1e-20
1.07329e-20
6.50992e-20
7.19313e-19
8.48114e-18
1.04795e-16
1.3696e-15
1.9215e-14
2.94911e-13
5.05407e-12
9.85715e-11
2.22291e-09
5.87327e-08
1.83246e-06
6.0983e-05
0.00109931
0.00596717
0.0105142
0.0133519
0.0152695
0.0166252
0.0176046
0.0183136
0.0188169
0.0191613
0.0193806
0.0194963
0.0195246
0.0194781
0.0193669
0.0191992
0.0189819
0.0187205
0.0184199
0.0180843
0.0177173
0.0173222
0.0169018
0.0164589
0.0159958
0.0155148
0.015018
0.0145075
0.0139853
0.0134532
0.012913
0.0123666
0.0118158
0.0112623
0.0107079
0.0101544
0.00960387
0.0090581
0.00851915
0.00798914
0.0074703
0.00696497
0.00647557
0.00600464
0.00555475
0.00512847
0.00472826
0.00435638
0.00401469
0.00370454
0.00342657
0.00318067
0.0029659
0.00278059
0.00262249
0.00248891
0.00237698
0.00228384
0.00220597
0.00214076
0.00208657
0.00204187
0.0020053
0.00197562
0.00195178
0.00193286
0.00191807
0.00190672
0.00189824
0.00189211
0.0018879
0.00188522
0.00188373
0.00188311
0.00188309
0.0018834
0.00188381
0.00188407
0.00188399
0.00188335
0.00188195
0.00187961
0.00187613
0.00187133
0.00186504
0.00185708
0.00184728
0.0018355
0.00182155
0.00180531
0.00178661
0.00176532
0.00174131
0.00171447
0.00168466
0.00165181
0.00161581
0.0015766
0.00153411
0.00148831
0.00143919
0.00138675
0.00133102
0.00127208
0.00121002
0.00114499
0.00107716
0.00100679
0.00093417
0.000859653
0.000783675
0.000706742
0.000629447
0.000552472
0.000476588
0.000402657
0.000331621
0.000264489
0.000202301
0.000146098
9.68793e-05
5.55888e-05
2.31722e-05
3.91604e-06
1.37689e-07
1.95476e-09
2.59225e-11
3.41732e-13
4.49866e-15
5.92721e-17
7.86477e-19
1.7753e-20
1e-20
1e-20
1e-20
1e-20
1e-20
1e-20
1e-20
1e-20
1e-20
1e-20
1e-20
1e-20
1e-20
1e-20
1e-20
1e-20
1e-20
1e-20
1e-20
1e-20
1e-20
1e-20
1e-20
1e-20
1e-20
1e-20
1e-20
1e-20
1e-20
1e-20
1e-20
1e-20
1e-20
1e-20
1e-20
1e-20
1e-20
1e-20
1e-20
1e-20
1e-20
1e-20
1e-20
1e-20
1e-20
1e-20
1e-20
1e-20
1e-20
1e-20
1e-20
1e-20
1e-20
1e-20
1e-20
1e-20
1e-20
1e-20
1e-20
1e-20
1e-20
1e-20
1e-20
1e-20
1e-20
1e-20
1e-20
1e-20
1e-20
1e-20
1e-20
1e-20
1e-20
1e-20
1e-20
1e-20
1e-20
1e-20
1e-20
1e-20
1e-20
1e-20
1e-20
1e-20
1e-20
)
;

boundaryField
{
    inandouthalf11
    {
        type            cyclic;
    }
    inandouthalf12
    {
        type            cyclic;
    }
    inandouthalf21
    {
        type            cyclic;
    }
    inandouthalf22
    {
        type            cyclic;
    }
    inandouthalf31
    {
        type            cyclic;
    }
    inandouthalf32
    {
        type            cyclic;
    }
    inandouthalf41
    {
        type            cyclic;
    }
    inandouthalf42
    {
        type            cyclic;
    }
    top
    {
        type            symmetryPlane;
    }
    walls
    {
        type            zeroGradient;
    }
    frontAndBackPlanes
    {
        type            empty;
    }
}


// ************************************************************************* //
