/*--------------------------------*- C++ -*----------------------------------*\
| =========                 |                                                 |
| \\      /  F ield         | OpenFOAM: The Open Source CFD Toolbox           |
|  \\    /   O peration     | Version:  2.4.x                                 |
|   \\  /    A nd           | Web:      www.OpenFOAM.org                      |
|    \\/     M anipulation  |                                                 |
\*---------------------------------------------------------------------------*/
FoamFile
{
    version     2.0;
    format      ascii;
    class       volScalarField;
    location    "8.9";
    object      k_0;
}
// * * * * * * * * * * * * * * * * * * * * * * * * * * * * * * * * * * * * * //

dimensions      [0 2 -2 0 0 0 0];

internalField   nonuniform List<scalar> 
360
(
1e-20
1e-20
1e-20
1e-20
1e-20
1e-20
1e-20
1e-20
1e-20
1e-20
1e-20
1e-20
1e-20
1e-20
1e-20
1e-20
1e-20
1e-20
1e-20
1e-20
1e-20
1e-20
1e-20
1e-20
1e-20
1e-20
1e-20
1e-20
1e-20
1e-20
1e-20
1e-20
1e-20
1e-20
1e-20
1e-20
1e-20
1e-20
1e-20
1e-20
1e-20
1e-20
1e-20
1e-20
1e-20
1e-20
1e-20
1e-20
1e-20
1e-20
1e-20
1e-20
1e-20
1e-20
1e-20
1e-20
1e-20
1e-20
1e-20
1e-20
1e-20
1e-20
1e-20
1e-20
1e-20
1e-20
1e-20
1e-20
1e-20
1e-20
1e-20
1e-20
1e-20
1e-20
1e-20
1e-20
1e-20
1e-20
1e-20
1e-20
1e-20
1e-20
1e-20
1e-20
1e-20
1e-20
1e-20
1e-20
1e-20
1e-20
1e-20
1e-20
1e-20
1e-20
1e-20
1e-20
1e-20
1e-20
1e-20
1e-20
1e-20
1e-20
1e-20
1e-20
1e-20
1e-20
1e-20
1e-20
1e-20
1e-20
1e-20
1e-20
1e-20
1e-20
1e-20
1e-20
1e-20
1e-20
1e-20
1e-20
1e-20
1e-20
1e-20
1e-20
1e-20
1e-20
1e-20
1e-20
1e-20
1.07224e-20
6.48953e-20
7.17053e-19
8.45569e-18
1.04498e-16
1.36594e-15
1.9166e-14
2.94183e-13
5.04177e-12
9.83327e-11
2.21754e-09
5.85916e-08
1.82808e-06
6.08506e-05
0.00109767
0.00596335
0.0105115
0.01335
0.0152681
0.0166242
0.017604
0.0183132
0.0188167
0.0191613
0.0193807
0.0194964
0.0195247
0.0194782
0.0193669
0.0191991
0.0189816
0.0187201
0.0184194
0.0180836
0.0177164
0.0173211
0.0169006
0.0164574
0.0159941
0.0155129
0.015016
0.0145053
0.0139829
0.0134507
0.0129103
0.0123638
0.0118128
0.0112592
0.0107047
0.0101512
0.00960053
0.0090547
0.00851571
0.00798568
0.00746685
0.00696153
0.00647219
0.00600133
0.00555154
0.00512538
0.00472533
0.00435363
0.00401214
0.00370221
0.00342448
0.00317881
0.00296428
0.0027792
0.00262131
0.00248792
0.00237617
0.00228319
0.00220545
0.00214035
0.00208626
0.00204165
0.00200515
0.00197554
0.00195175
0.00193288
0.00191812
0.0019068
0.00189835
0.00189225
0.00188806
0.0018854
0.00188392
0.00188331
0.0018833
0.00188361
0.00188402
0.0018843
0.00188422
0.00188358
0.00188218
0.00187983
0.00187635
0.00187155
0.00186525
0.00185729
0.00184749
0.0018357
0.00182175
0.00180549
0.00178679
0.00176549
0.00174148
0.00171462
0.0016848
0.00165194
0.00161593
0.0015767
0.00153421
0.0014884
0.00143926
0.00138681
0.00133107
0.00127211
0.00121004
0.00114499
0.00107716
0.00100678
0.000934143
0.000859616
0.000783628
0.000706687
0.000629386
0.000552405
0.000476517
0.000402584
0.00033155
0.00026442
0.000202237
0.000146041
9.68308e-05
5.55507e-05
2.31453e-05
3.90693e-06
1.37184e-07
1.94737e-09
2.58273e-11
3.4052e-13
4.48332e-15
5.90782e-17
7.84025e-19
1.77237e-20
1e-20
1e-20
1e-20
1e-20
1e-20
1e-20
1e-20
1e-20
1e-20
1e-20
1e-20
1e-20
1e-20
1e-20
1e-20
1e-20
1e-20
1e-20
1e-20
1e-20
1e-20
1e-20
1e-20
1e-20
1e-20
1e-20
1e-20
1e-20
1e-20
1e-20
1e-20
1e-20
1e-20
1e-20
1e-20
1e-20
1e-20
1e-20
1e-20
1e-20
1e-20
1e-20
1e-20
1e-20
1e-20
1e-20
1e-20
1e-20
1e-20
1e-20
1e-20
1e-20
1e-20
1e-20
1e-20
1e-20
1e-20
1e-20
1e-20
1e-20
1e-20
1e-20
1e-20
1e-20
1e-20
1e-20
1e-20
1e-20
1e-20
1e-20
1e-20
1e-20
1e-20
1e-20
1e-20
1e-20
1e-20
1e-20
1e-20
1e-20
1e-20
1e-20
1e-20
1e-20
1e-20
)
;

boundaryField
{
    inandouthalf11
    {
        type            cyclic;
    }
    inandouthalf12
    {
        type            cyclic;
    }
    inandouthalf21
    {
        type            cyclic;
    }
    inandouthalf22
    {
        type            cyclic;
    }
    inandouthalf31
    {
        type            cyclic;
    }
    inandouthalf32
    {
        type            cyclic;
    }
    inandouthalf41
    {
        type            cyclic;
    }
    inandouthalf42
    {
        type            cyclic;
    }
    top
    {
        type            symmetryPlane;
    }
    walls
    {
        type            zeroGradient;
    }
    frontAndBackPlanes
    {
        type            empty;
    }
}


// ************************************************************************* //
