/*--------------------------------*- C++ -*----------------------------------*\
| =========                 |                                                 |
| \\      /  F ield         | OpenFOAM: The Open Source CFD Toolbox           |
|  \\    /   O peration     | Version:  2.4.x                                 |
|   \\  /    A nd           | Web:      www.OpenFOAM.org                      |
|    \\/     M anipulation  |                                                 |
\*---------------------------------------------------------------------------*/
FoamFile
{
    version     2.0;
    format      ascii;
    class       volScalarField;
    location    "8.9";
    object      nutb;
}
// * * * * * * * * * * * * * * * * * * * * * * * * * * * * * * * * * * * * * //

dimensions      [0 2 -1 0 0 0 0];

internalField   nonuniform List<scalar> 
360
(
9e-22
9e-22
9e-22
9e-22
9e-22
9e-22
9e-22
9e-22
9e-22
9e-22
9e-22
9e-22
9e-22
9e-22
9e-22
9e-22
9e-22
9e-22
9e-22
9e-22
9e-22
9e-22
9e-22
9e-22
9e-22
9e-22
9e-22
9e-22
9e-22
9e-22
9e-22
9e-22
9e-22
9e-22
9e-22
9e-22
9e-22
9e-22
9e-22
9e-22
9e-22
9e-22
9e-22
9e-22
9e-22
9e-22
9e-22
9e-22
9e-22
9e-22
9e-22
9e-22
9e-22
9e-22
9e-22
9e-22
9e-22
9e-22
9e-22
9e-22
9e-22
9e-22
9e-22
9e-22
9e-22
9e-22
9e-22
9e-22
9e-22
9e-22
9e-22
9e-22
9e-22
9e-22
9e-22
9e-22
9e-22
9e-22
9e-22
9e-22
9e-22
9e-22
9e-22
9e-22
9e-22
9e-22
9e-22
9e-22
9e-22
9e-22
9e-22
9e-22
9e-22
9e-22
9e-22
9e-22
9e-22
9e-22
9e-22
9e-22
9e-22
9e-22
9e-22
9e-22
9e-22
9e-22
9e-22
9e-22
9e-22
9e-22
9e-22
9e-22
9e-22
9e-22
9e-22
9e-22
9e-22
9e-22
9e-22
9e-22
9e-22
9e-22
9e-22
9e-22
9e-22
9e-22
9e-22
9e-22
9e-22
5.58507e-22
2.36003e-21
2.308e-20
2.40898e-19
2.60581e-18
2.94331e-17
3.52069e-16
4.5472e-15
6.48222e-14
1.04135e-12
1.91783e-11
4.10513e-10
1.02872e-08
2.66213e-07
3.50621e-06
1.4776e-05
2.67604e-05
3.71998e-05
4.65719e-05
5.51493e-05
6.30847e-05
7.04574e-05
7.73178e-05
8.37285e-05
8.97446e-05
9.53846e-05
0.000100662
0.000105585
0.000110162
0.000114398
0.000118299
0.000121867
0.000125106
0.000128016
0.000130599
0.000132855
0.000134786
0.000136391
0.000137673
0.000138635
0.000139278
0.000139608
0.000139629
0.00013935
0.000138778
0.000137923
0.000136797
0.000135413
0.000133789
0.000131942
0.000129894
0.00012767
0.000125298
0.000122811
0.000120246
0.000117648
0.000115066
0.000112556
0.000110182
0.000108016
0.000106137
0.000104627
0.000103573
0.000103058
0.000103156
0.000103928
0.000105411
0.000107618
0.000110532
0.000114109
0.000118279
0.000122954
0.000128094
0.000133654
0.000139542
0.000145661
0.000151916
0.000158215
0.000164479
0.000170635
0.000176623
0.000182395
0.000187912
0.000193146
0.000198077
0.000202692
0.000206985
0.000210954
0.0002146
0.000217928
0.000220941
0.000223648
0.000226054
0.000228166
0.00022999
0.00023153
0.00023279
0.000233774
0.000234482
0.000234914
0.000235071
0.000234948
0.000234544
0.000233853
0.000232871
0.000231589
0.000230003
0.000228102
0.000225879
0.000223325
0.00022043
0.000217184
0.000213578
0.000209601
0.000205243
0.000200495
0.000195348
0.000189793
0.000183822
0.00017743
0.000170611
0.000163364
0.000155687
0.000147584
0.00013906
0.000130126
0.000120797
0.000111092
0.00010104
9.06727e-05
8.00299e-05
6.91569e-05
5.81028e-05
4.6917e-05
3.56443e-05
2.43097e-05
1.28735e-05
2.87181e-06
1.19551e-07
1.73955e-09
2.3306e-11
3.09779e-13
4.10085e-15
5.40962e-17
6.58214e-19
2.82737e-21
9e-22
9e-22
9e-22
9e-22
9e-22
9e-22
9e-22
9e-22
9e-22
9e-22
9e-22
9e-22
9e-22
9e-22
9e-22
9e-22
9e-22
9e-22
9e-22
9e-22
9e-22
9e-22
9e-22
9e-22
9e-22
9e-22
9e-22
9e-22
9e-22
9e-22
9e-22
9e-22
9e-22
9e-22
9e-22
9e-22
9e-22
9e-22
9e-22
9e-22
9e-22
9e-22
9e-22
9e-22
9e-22
9e-22
9e-22
9e-22
9e-22
9e-22
9e-22
9e-22
9e-22
9e-22
9e-22
9e-22
9e-22
9e-22
9e-22
9e-22
9e-22
9e-22
9e-22
9e-22
9e-22
9e-22
9e-22
9e-22
9e-22
9e-22
9e-22
9e-22
9e-22
9e-22
9e-22
9e-22
9e-22
9e-22
9e-22
9e-22
9e-22
9e-22
9e-22
9e-22
9e-22
)
;

boundaryField
{
    inandouthalf11
    {
        type            cyclic;
    }
    inandouthalf12
    {
        type            cyclic;
    }
    inandouthalf21
    {
        type            cyclic;
    }
    inandouthalf22
    {
        type            cyclic;
    }
    inandouthalf31
    {
        type            cyclic;
    }
    inandouthalf32
    {
        type            cyclic;
    }
    inandouthalf41
    {
        type            cyclic;
    }
    inandouthalf42
    {
        type            cyclic;
    }
    top
    {
        type            symmetryPlane;
    }
    walls
    {
        type            calculated;
        value           uniform 0;
    }
    frontAndBackPlanes
    {
        type            empty;
    }
}


// ************************************************************************* //
