/*--------------------------------*- C++ -*----------------------------------*\
| =========                 |                                                 |
| \\      /  F ield         | OpenFOAM: The Open Source CFD Toolbox           |
|  \\    /   O peration     | Version:  2.4.x                                 |
|   \\  /    A nd           | Web:      www.OpenFOAM.org                      |
|    \\/     M anipulation  |                                                 |
\*---------------------------------------------------------------------------*/
FoamFile
{
    version     2.0;
    format      ascii;
    class       volScalarField;
    location    "8.9";
    object      p;
}
// * * * * * * * * * * * * * * * * * * * * * * * * * * * * * * * * * * * * * //

dimensions      [1 -1 -2 0 0 0 0];

internalField   nonuniform List<scalar> 
360
(
4904.8
4899.9
4894.99
4890.09
4885.18
4880.27
4875.37
4870.46
4865.56
4860.65
4855.74
4850.83
4845.93
4841.02
4836.11
4831.2
4826.3
4821.39
4816.48
4811.57
4806.66
4801.75
4796.84
4791.93
4787.02
4782.11
4777.2
4772.29
4767.38
4762.47
4757.56
4752.65
4747.73
4742.82
4737.91
4733
4728.08
4723.17
4718.26
4713.34
4708.43
4703.51
4698.6
4693.69
4688.77
4683.86
4678.94
4674.03
4669.11
4664.19
4659.28
4654.36
4649.45
4644.53
4639.61
4634.69
4629.78
4624.86
4619.94
4615.02
4610.11
4605.19
4600.27
4595.35
4590.43
4585.52
4580.6
4575.68
4570.76
4565.84
4560.92
4556
4551.08
4546.16
4541.24
4536.32
4531.4
4526.48
4521.56
4516.64
4511.72
4506.79
4501.87
4496.95
4492.03
4487.11
4482.19
4477.26
4472.34
4467.42
4462.5
4457.58
4452.65
4447.73
4442.81
4437.89
4432.96
4428.04
4423.12
4418.19
4413.27
4408.35
4403.42
4398.5
4393.58
4388.65
4383.73
4378.8
4373.88
4368.96
4364.03
4359.11
4354.18
4349.26
4344.33
4339.41
4334.49
4329.56
4324.64
4319.71
4314.79
4309.86
4304.94
4300.01
4295.09
4290.16
4285.24
4280.31
4275.39
4270.46
4265.54
4260.61
4255.69
4250.76
4245.84
4240.91
4235.99
4231.06
4226.14
4221.21
4216.29
4211.35
4206.43
4199.9
4188.56
4178.73
4170.8
4163.74
4157.16
4150.88
4144.81
4138.91
4133.09
4127.37
4121.74
4116.19
4110.73
4105.34
4100.03
4094.78
4089.6
4084.48
4079.41
4074.4
4069.44
4064.53
4059.66
4054.83
4050.04
4045.27
4040.54
4035.84
4031.15
4026.49
4021.85
4017.22
4012.6
4008
4003.4
3998.81
3994.23
3989.64
3985.06
3980.47
3975.88
3971.28
3966.67
3962.06
3957.42
3952.77
3948.11
3943.43
3938.72
3934
3929.25
3924.49
3919.7
3914.9
3910.09
3905.26
3900.41
3895.51
3890.5
3885.37
3880.14
3874.79
3869.34
3863.76
3858.07
3852.26
3846.33
3840.28
3834.1
3827.8
3821.37
3814.8
3808.11
3801.27
3794.3
3787.19
3779.93
3772.52
3764.97
3757.26
3749.39
3741.37
3733.18
3724.83
3716.32
3707.62
3698.76
3689.71
3680.49
3671.07
3661.47
3651.68
3641.68
3631.49
3621.09
3610.48
3599.66
3588.62
3577.36
3565.87
3554.15
3542.19
3529.99
3517.54
3504.85
3491.89
3478.68
3465.19
3451.44
3437.4
3423.08
3408.46
3393.55
3378.34
3362.81
3346.97
3330.8
3314.3
3297.45
3280.26
3262.72
3244.81
3226.53
3207.87
3188.83
3169.4
3149.58
3129.35
3108.72
3087.66
3066.18
3044.26
3021.9
2999.08
2975.8
2952.05
2927.81
2903.09
2877.86
2852.12
2825.86
2799.06
2771.72
2743.82
2715.36
2686.32
2656.7
2626.47
2595.62
2564.15
2532.05
2499.29
2465.86
2431.76
2396.96
2361.46
2325.24
2288.28
2250.57
2212.1
2172.85
2132.8
2091.93
2050.24
2007.7
1964.3
1922.76
1883.52
1844.28
1805.04
1765.8
1726.56
1687.32
1648.08
1608.84
1569.6
1530.36
1491.12
1451.88
1412.64
1373.4
1334.16
1294.92
1255.68
1216.44
1177.2
1137.96
1098.72
1059.48
1020.24
981
941.76
902.52
863.28
824.04
784.8
745.56
706.32
667.08
627.84
588.6
549.36
510.12
470.88
431.64
392.4
353.16
313.92
274.68
235.44
196.2
156.96
117.72
78.48
39.24
-1.12628e-07
)
;

boundaryField
{
    inandouthalf11
    {
        type            cyclic;
    }
    inandouthalf12
    {
        type            cyclic;
    }
    inandouthalf21
    {
        type            cyclic;
    }
    inandouthalf22
    {
        type            cyclic;
    }
    inandouthalf31
    {
        type            cyclic;
    }
    inandouthalf32
    {
        type            cyclic;
    }
    inandouthalf41
    {
        type            cyclic;
    }
    inandouthalf42
    {
        type            cyclic;
    }
    top
    {
        type            symmetryPlane;
    }
    walls
    {
        type            slip;
    }
    frontAndBackPlanes
    {
        type            empty;
    }
}


// ************************************************************************* //
