/*--------------------------------*- C++ -*----------------------------------*\
| =========                 |                                                 |
| \\      /  F ield         | OpenFOAM: The Open Source CFD Toolbox           |
|  \\    /   O peration     | Version:  2.4.x                                 |
|   \\  /    A nd           | Web:      www.OpenFOAM.org                      |
|    \\/     M anipulation  |                                                 |
\*---------------------------------------------------------------------------*/
FoamFile
{
    version     2.0;
    format      ascii;
    class       surfaceScalarField;
    location    "8.9";
    object      phia_0;
}
// * * * * * * * * * * * * * * * * * * * * * * * * * * * * * * * * * * * * * //

dimensions      [0 3 -1 0 0 0 0];

internalField   nonuniform List<scalar> 
359
(
-8.47401e-14
-2.12952e-13
-3.33361e-13
-4.51051e-13
-5.73729e-13
-7.00735e-13
-8.30141e-13
-9.61421e-13
-1.0947e-12
-1.23024e-12
-1.36813e-12
-1.50834e-12
-1.65079e-12
-1.79539e-12
-1.94205e-12
-2.09069e-12
-2.24122e-12
-2.39349e-12
-2.54737e-12
-2.70274e-12
-2.85938e-12
-3.01718e-12
-3.17597e-12
-3.33558e-12
-3.49585e-12
-3.6566e-12
-3.81766e-12
-3.9789e-12
-4.14013e-12
-4.30119e-12
-4.46192e-12
-4.62222e-12
-4.78186e-12
-4.94081e-12
-5.09886e-12
-5.25592e-12
-5.41187e-12
-5.56662e-12
-5.72012e-12
-5.87219e-12
-6.02287e-12
-6.17205e-12
-6.31963e-12
-6.46568e-12
-6.6101e-12
-6.75289e-12
-6.89404e-12
-7.03348e-12
-7.17128e-12
-7.30748e-12
-7.44201e-12
-7.57495e-12
-7.7063e-12
-7.8361e-12
-7.96434e-12
-8.09113e-12
-8.21641e-12
-8.34027e-12
-8.4627e-12
-8.58371e-12
-8.70343e-12
-8.82181e-12
-8.93896e-12
-9.05487e-12
-9.16956e-12
-9.28306e-12
-9.39539e-12
-9.50656e-12
-9.61658e-12
-9.72543e-12
-9.83319e-12
-9.9399e-12
-1.00455e-11
-1.015e-11
-1.02535e-11
-1.0356e-11
-1.04575e-11
-1.05578e-11
-1.06571e-11
-1.07553e-11
-1.08524e-11
-1.09484e-11
-1.10433e-11
-1.11372e-11
-1.123e-11
-1.13217e-11
-1.14124e-11
-1.15019e-11
-1.15903e-11
-1.16775e-11
-1.17635e-11
-1.18484e-11
-1.1932e-11
-1.20145e-11
-1.20958e-11
-1.21758e-11
-1.22546e-11
-1.23322e-11
-1.24086e-11
-1.24836e-11
-1.25574e-11
-1.263e-11
-1.27012e-11
-1.27711e-11
-1.28397e-11
-1.29071e-11
-1.29732e-11
-1.30381e-11
-1.31018e-11
-1.31644e-11
-1.32259e-11
-1.32864e-11
-1.3346e-11
-1.34046e-11
-1.34623e-11
-1.35191e-11
-1.3575e-11
-1.363e-11
-1.36838e-11
-1.37364e-11
-1.37875e-11
-1.38369e-11
-1.38845e-11
-1.39302e-11
-1.3974e-11
-1.40159e-11
-1.40562e-11
-1.40956e-11
-1.41346e-11
-1.41738e-11
-1.4214e-11
-1.42554e-11
-1.42976e-11
-1.43393e-11
-1.43776e-11
-1.44087e-11
-1.44298e-11
-1.4441e-11
-1.44453e-11
-1.44465e-11
-1.44463e-11
-1.44457e-11
-1.44243e-11
2.83165e-09
5.69472e-09
7.47349e-09
8.69724e-09
9.65891e-09
1.04742e-08
1.11973e-08
1.18577e-08
1.24901e-08
1.31368e-08
1.37943e-08
1.44714e-08
1.51768e-08
1.59188e-08
1.67036e-08
1.75365e-08
1.84212e-08
1.93603e-08
2.03554e-08
2.14073e-08
2.25158e-08
2.36808e-08
2.4901e-08
2.61748e-08
2.75005e-08
2.88757e-08
3.02977e-08
3.17635e-08
3.32697e-08
3.48124e-08
3.63872e-08
3.79891e-08
3.96128e-08
4.12521e-08
4.29001e-08
4.45491e-08
4.61903e-08
4.78137e-08
4.9408e-08
5.09601e-08
5.24556e-08
5.38783e-08
5.521e-08
5.64303e-08
5.75115e-08
5.84134e-08
5.90813e-08
5.94558e-08
5.94942e-08
5.91915e-08
5.85858e-08
5.77464e-08
5.67534e-08
5.56798e-08
5.45829e-08
5.35029e-08
5.24659e-08
5.14864e-08
5.05545e-08
4.9677e-08
4.88575e-08
4.80978e-08
4.73984e-08
4.67589e-08
4.61782e-08
4.56548e-08
4.5187e-08
4.47727e-08
4.44094e-08
4.40945e-08
4.38247e-08
4.35966e-08
4.34064e-08
4.325e-08
4.31228e-08
4.30204e-08
4.29383e-08
4.2872e-08
4.28173e-08
4.27708e-08
4.27289e-08
4.26891e-08
4.26483e-08
4.26052e-08
4.25564e-08
4.25027e-08
4.2438e-08
4.23668e-08
4.22819e-08
4.21812e-08
4.20596e-08
4.19826e-08
4.15186e-08
3.61657e-08
3.50146e-08
3.42356e-08
3.31814e-08
3.21529e-08
3.11803e-08
3.02534e-08
2.91429e-08
2.91195e-08
2.51891e-08
2.61987e-08
-7.80458e-08
-1.53582e-07
-1.58603e-07
-1.58408e-07
-1.58426e-07
-1.58425e-07
-1.58423e-07
-1.5842e-07
-1.58415e-07
-1.58407e-07
-1.58397e-07
-1.58385e-07
-1.5837e-07
-1.58353e-07
-1.58333e-07
-1.58311e-07
-1.58289e-07
-1.58263e-07
-1.58224e-07
-1.58184e-07
-1.58177e-07
-1.58177e-07
-1.58177e-07
-1.58177e-07
-1.58177e-07
-1.58177e-07
-1.58177e-07
-1.58177e-07
-1.58177e-07
-1.58177e-07
-1.58177e-07
-1.58177e-07
-1.58177e-07
-1.58177e-07
-1.58177e-07
-1.58177e-07
-1.58177e-07
-1.58177e-07
-1.58177e-07
-1.58177e-07
-1.58177e-07
-1.58177e-07
-1.58177e-07
-1.58177e-07
-1.58177e-07
-1.58177e-07
-1.58177e-07
-1.58177e-07
-1.58177e-07
-1.58177e-07
-1.58177e-07
-1.58177e-07
-1.58177e-07
-1.58177e-07
-1.58177e-07
-1.58177e-07
-1.58177e-07
-1.58177e-07
-1.58177e-07
-1.58177e-07
-1.58177e-07
-1.58177e-07
-1.58177e-07
-1.58177e-07
-1.58177e-07
-1.58177e-07
-1.58177e-07
-1.58177e-07
-1.58177e-07
-1.58177e-07
-1.58177e-07
-1.58177e-07
-1.58177e-07
-1.58177e-07
-1.58177e-07
-1.58177e-07
-1.58177e-07
-1.58177e-07
-1.58177e-07
-1.58177e-07
-1.58177e-07
-1.58177e-07
-1.58177e-07
-1.58177e-07
-1.58177e-07
-1.58177e-07
-1.58177e-07
-1.58177e-07
-1.58177e-07
-1.58177e-07
-1.58177e-07
-1.58177e-07
-1.58177e-07
-1.58177e-07
-1.58177e-07
-1.58177e-07
-1.58177e-07
-1.58177e-07
-1.58177e-07
-1.58177e-07
-1.58177e-07
-1.58177e-07
-1.58177e-07
-1.58177e-07
-1.58177e-07
-1.58177e-07
-1.58177e-07
-1.58177e-07
-1.58177e-07
-1.5816e-07
-1.57453e-07
-1.32571e-07
)
;

boundaryField
{
    inandouthalf11
    {
        type            cyclic;
        value           nonuniform List<scalar> 
100
(
-1.90238e-38
-1.05314e-14
-2.20985e-14
-3.26696e-14
-4.36046e-14
-5.51642e-14
-6.70744e-14
-7.92035e-14
-9.15535e-14
-1.04148e-13
-1.17004e-13
-1.30123e-13
-1.43501e-13
-1.57132e-13
-1.71005e-13
-1.85116e-13
-1.99456e-13
-2.14015e-13
-2.2878e-13
-2.43738e-13
-2.58875e-13
-2.74175e-13
-2.89624e-13
-3.05207e-13
-3.20907e-13
-3.36708e-13
-3.52594e-13
-3.68548e-13
-3.84556e-13
-4.00601e-13
-4.16667e-13
-4.32738e-13
-4.48801e-13
-4.64841e-13
-4.80845e-13
-4.968e-13
-5.12692e-13
-5.28513e-13
-5.44253e-13
-5.59901e-13
-5.75449e-13
-5.90892e-13
-6.06222e-13
-6.21433e-13
-6.36524e-13
-6.51492e-13
-6.66332e-13
-6.81042e-13
-6.95621e-13
-7.10072e-13
-7.24396e-13
-7.38592e-13
-7.52662e-13
-7.6661e-13
-7.80437e-13
-7.94146e-13
-8.07741e-13
-8.21224e-13
-8.34597e-13
-8.47862e-13
-8.61023e-13
-8.74087e-13
-8.87057e-13
-8.99937e-13
-9.12729e-13
-9.25434e-13
-9.38056e-13
-9.50596e-13
-9.63056e-13
-9.75435e-13
-9.87737e-13
-9.99967e-13
-1.01213e-12
-1.02421e-12
-1.03623e-12
-1.04819e-12
-1.06008e-12
-1.0719e-12
-1.08365e-12
-1.09534e-12
-1.10695e-12
-1.11849e-12
-1.12996e-12
-1.14137e-12
-1.15271e-12
-1.16399e-12
-1.1752e-12
-1.18634e-12
-1.19741e-12
-1.20841e-12
-1.21933e-12
-1.23018e-12
-1.24095e-12
-1.25164e-12
-1.26225e-12
-1.27279e-12
-1.28326e-12
-1.29364e-12
-1.30395e-12
-1.31418e-12
)
;
    }
    inandouthalf12
    {
        type            cyclic;
        value           nonuniform List<scalar> 
100
(
1.90238e-38
1.05314e-14
2.20985e-14
3.26696e-14
4.36046e-14
5.51642e-14
6.70744e-14
7.92035e-14
9.15535e-14
1.04148e-13
1.17004e-13
1.30123e-13
1.43501e-13
1.57132e-13
1.71005e-13
1.85116e-13
1.99456e-13
2.14015e-13
2.2878e-13
2.43738e-13
2.58875e-13
2.74175e-13
2.89624e-13
3.05207e-13
3.20907e-13
3.36708e-13
3.52594e-13
3.68548e-13
3.84556e-13
4.00601e-13
4.16667e-13
4.32738e-13
4.48801e-13
4.64841e-13
4.80845e-13
4.968e-13
5.12692e-13
5.28513e-13
5.44253e-13
5.59901e-13
5.75449e-13
5.90892e-13
6.06222e-13
6.21433e-13
6.36524e-13
6.51492e-13
6.66332e-13
6.81042e-13
6.95621e-13
7.10072e-13
7.24396e-13
7.38592e-13
7.52662e-13
7.6661e-13
7.80437e-13
7.94146e-13
8.07741e-13
8.21224e-13
8.34597e-13
8.47862e-13
8.61023e-13
8.74087e-13
8.87057e-13
8.99937e-13
9.12729e-13
9.25434e-13
9.38056e-13
9.50596e-13
9.63056e-13
9.75435e-13
9.87737e-13
9.99967e-13
1.01213e-12
1.02421e-12
1.03623e-12
1.04819e-12
1.06008e-12
1.0719e-12
1.08365e-12
1.09534e-12
1.10695e-12
1.11849e-12
1.12996e-12
1.14137e-12
1.15271e-12
1.16399e-12
1.1752e-12
1.18634e-12
1.19741e-12
1.20841e-12
1.21933e-12
1.23018e-12
1.24095e-12
1.25164e-12
1.26225e-12
1.27279e-12
1.28326e-12
1.29364e-12
1.30395e-12
1.31418e-12
)
;
    }
    inandouthalf21
    {
        type            cyclic;
        value           nonuniform List<scalar> 
100
(
-1.32433e-12
-1.33439e-12
-1.34437e-12
-1.35428e-12
-1.3641e-12
-1.37384e-12
-1.38352e-12
-1.39312e-12
-1.40267e-12
-1.41216e-12
-1.42161e-12
-1.43103e-12
-1.44044e-12
-1.44983e-12
-1.45924e-12
-1.46866e-12
-1.47809e-12
-1.48754e-12
-1.497e-12
-1.50645e-12
-1.51586e-12
-1.52521e-12
-1.53446e-12
-1.54358e-12
-1.55257e-12
-1.56144e-12
-1.57025e-12
-1.57908e-12
-1.58808e-12
-1.59744e-12
-1.60738e-12
-1.6181e-12
-1.62972e-12
-1.64211e-12
-1.65471e-12
-1.66641e-12
-1.67574e-12
-1.68175e-12
-1.68471e-12
-1.68582e-12
-1.68627e-12
-1.68663e-12
-1.68741e-12
-1.6916e-12
-9.578e-08
-2.10612e-07
-3.11207e-07
-3.99019e-07
-4.7675e-07
-5.46426e-07
-6.09513e-07
-6.67094e-07
-7.20134e-07
-7.69125e-07
-8.14542e-07
-8.56797e-07
-8.9624e-07
-9.33168e-07
-9.67833e-07
-1.00045e-06
-1.03121e-06
-1.06028e-06
-1.0878e-06
-1.11389e-06
-1.13867e-06
-1.16223e-06
-1.18466e-06
-1.20603e-06
-1.22641e-06
-1.24586e-06
-1.26443e-06
-1.28216e-06
-1.29909e-06
-1.31524e-06
-1.33064e-06
-1.34531e-06
-1.35926e-06
-1.3725e-06
-1.38503e-06
-1.39685e-06
-1.40796e-06
-1.41835e-06
-1.42801e-06
-1.43695e-06
-1.44516e-06
-1.45264e-06
-1.45941e-06
-1.46547e-06
-1.47085e-06
-1.47559e-06
-1.47973e-06
-1.48331e-06
-1.48641e-06
-1.48908e-06
-1.49138e-06
-1.49337e-06
-1.4951e-06
-1.49661e-06
-1.49792e-06
-1.49908e-06
)
;
    }
    inandouthalf22
    {
        type            cyclic;
        value           nonuniform List<scalar> 
100
(
1.32433e-12
1.33439e-12
1.34437e-12
1.35428e-12
1.3641e-12
1.37384e-12
1.38352e-12
1.39312e-12
1.40267e-12
1.41216e-12
1.42161e-12
1.43103e-12
1.44044e-12
1.44983e-12
1.45924e-12
1.46866e-12
1.47809e-12
1.48754e-12
1.497e-12
1.50645e-12
1.51586e-12
1.52521e-12
1.53446e-12
1.54358e-12
1.55257e-12
1.56144e-12
1.57025e-12
1.57908e-12
1.58808e-12
1.59744e-12
1.60738e-12
1.6181e-12
1.62972e-12
1.64211e-12
1.65471e-12
1.66641e-12
1.67574e-12
1.68175e-12
1.68471e-12
1.68582e-12
1.68627e-12
1.68663e-12
1.68741e-12
1.6916e-12
9.578e-08
2.10612e-07
3.11207e-07
3.99019e-07
4.7675e-07
5.46426e-07
6.09513e-07
6.67094e-07
7.20134e-07
7.69125e-07
8.14542e-07
8.56797e-07
8.9624e-07
9.33168e-07
9.67833e-07
1.00045e-06
1.03121e-06
1.06028e-06
1.0878e-06
1.11389e-06
1.13867e-06
1.16223e-06
1.18466e-06
1.20603e-06
1.22641e-06
1.24586e-06
1.26443e-06
1.28216e-06
1.29909e-06
1.31524e-06
1.33064e-06
1.34531e-06
1.35926e-06
1.3725e-06
1.38503e-06
1.39685e-06
1.40796e-06
1.41835e-06
1.42801e-06
1.43695e-06
1.44516e-06
1.45264e-06
1.45941e-06
1.46547e-06
1.47085e-06
1.47559e-06
1.47973e-06
1.48331e-06
1.48641e-06
1.48908e-06
1.49138e-06
1.49337e-06
1.4951e-06
1.49661e-06
1.49792e-06
1.49908e-06
)
;
    }
    inandouthalf31
    {
        type            cyclic;
        value           nonuniform List<scalar> 
110
(
-1.5001e-06
-1.53148e-06
-1.56341e-06
-1.59593e-06
-1.62903e-06
-1.66275e-06
-1.69709e-06
-1.73207e-06
-1.76771e-06
-1.80402e-06
-1.84103e-06
-1.87874e-06
-1.91717e-06
-1.95634e-06
-1.99628e-06
-2.03699e-06
-2.07849e-06
-2.1208e-06
-2.16395e-06
-2.20795e-06
-2.25282e-06
-2.29859e-06
-2.34526e-06
-2.39287e-06
-2.44143e-06
-2.49097e-06
-2.5415e-06
-2.59306e-06
-2.64565e-06
-2.69931e-06
-2.75406e-06
-2.80992e-06
-2.86692e-06
-2.92509e-06
-2.98445e-06
-3.04503e-06
-3.10689e-06
-3.18193e-06
-3.24343e-06
-3.30454e-06
-3.36677e-06
-3.4301e-06
-3.49459e-06
-3.55993e-06
-3.6271e-06
-3.69455e-06
-3.76456e-06
-3.83379e-06
-3.90692e-06
-3.98063e-06
-4.05498e-06
-4.13128e-06
-4.20911e-06
-4.28858e-06
-4.36978e-06
-4.45279e-06
-4.53773e-06
-4.6247e-06
-4.71384e-06
-4.80529e-06
-4.89919e-06
-4.9957e-06
-5.09495e-06
-5.19719e-06
-5.30233e-06
-5.4104e-06
-5.52087e-06
-5.63309e-06
-5.74743e-06
-5.86409e-06
-5.98312e-06
-6.10456e-06
-6.22847e-06
-6.35489e-06
-6.48387e-06
-6.61548e-06
-6.74976e-06
-6.88676e-06
-7.02654e-06
-7.16916e-06
-7.31468e-06
-7.46314e-06
-7.61463e-06
-7.76918e-06
-7.92688e-06
-8.08777e-06
-8.25193e-06
-8.41942e-06
-8.59032e-06
-8.76468e-06
-8.94258e-06
-9.12409e-06
-9.30928e-06
-9.49823e-06
-9.69102e-06
-9.88773e-06
-1.00884e-05
-1.02932e-05
-1.05021e-05
-1.07153e-05
-1.09328e-05
-1.11547e-05
-1.13811e-05
-1.16121e-05
-1.18478e-05
-1.20883e-05
-1.23336e-05
-1.2584e-05
-1.28394e-05
-1.31e-05
)
;
    }
    inandouthalf32
    {
        type            cyclic;
        value           nonuniform List<scalar> 
110
(
1.5001e-06
1.53148e-06
1.56341e-06
1.59593e-06
1.62903e-06
1.66275e-06
1.69709e-06
1.73207e-06
1.76771e-06
1.80402e-06
1.84103e-06
1.87874e-06
1.91717e-06
1.95634e-06
1.99628e-06
2.03699e-06
2.07849e-06
2.1208e-06
2.16395e-06
2.20795e-06
2.25282e-06
2.29859e-06
2.34526e-06
2.39287e-06
2.44143e-06
2.49097e-06
2.5415e-06
2.59306e-06
2.64565e-06
2.69931e-06
2.75406e-06
2.80992e-06
2.86692e-06
2.92509e-06
2.98445e-06
3.04503e-06
3.10689e-06
3.18193e-06
3.24343e-06
3.30454e-06
3.36677e-06
3.4301e-06
3.49459e-06
3.55993e-06
3.6271e-06
3.69455e-06
3.76456e-06
3.83379e-06
3.90692e-06
3.98063e-06
4.05498e-06
4.13128e-06
4.20911e-06
4.28858e-06
4.36978e-06
4.45279e-06
4.53773e-06
4.6247e-06
4.71384e-06
4.80529e-06
4.89919e-06
4.9957e-06
5.09495e-06
5.19719e-06
5.30233e-06
5.4104e-06
5.52087e-06
5.63309e-06
5.74743e-06
5.86409e-06
5.98312e-06
6.10456e-06
6.22847e-06
6.35489e-06
6.48387e-06
6.61548e-06
6.74976e-06
6.88676e-06
7.02654e-06
7.16916e-06
7.31468e-06
7.46314e-06
7.61463e-06
7.76918e-06
7.92688e-06
8.08777e-06
8.25193e-06
8.41942e-06
8.59032e-06
8.76468e-06
8.94258e-06
9.12409e-06
9.30928e-06
9.49823e-06
9.69102e-06
9.88773e-06
1.00884e-05
1.02932e-05
1.05021e-05
1.07153e-05
1.09328e-05
1.11547e-05
1.13811e-05
1.16121e-05
1.18478e-05
1.20883e-05
1.23336e-05
1.2584e-05
1.28394e-05
1.31e-05
)
;
    }
    inandouthalf41
    {
        type            cyclic;
        value           nonuniform List<scalar> 
50
(
-1.17258e-05
-1.17258e-05
-1.17258e-05
-1.17258e-05
-1.17258e-05
-1.17258e-05
-1.17258e-05
-1.17258e-05
-1.17258e-05
-1.17258e-05
-1.17258e-05
-1.17258e-05
-1.17258e-05
-1.17258e-05
-1.17258e-05
-1.17258e-05
-1.17258e-05
-1.17258e-05
-1.17258e-05
-1.17258e-05
-1.17258e-05
-1.17258e-05
-1.17258e-05
-1.17258e-05
-1.17258e-05
-1.17258e-05
-1.17258e-05
-1.17258e-05
-1.17258e-05
-1.17258e-05
-1.17258e-05
-1.17258e-05
-1.17258e-05
-1.17258e-05
-1.17258e-05
-1.17258e-05
-1.17258e-05
-1.17258e-05
-1.17258e-05
-1.17258e-05
-1.17258e-05
-1.17258e-05
-1.17258e-05
-1.17258e-05
-1.17258e-05
-1.17258e-05
-1.17258e-05
-1.17258e-05
-1.17257e-05
-1.17239e-05
)
;
    }
    inandouthalf42
    {
        type            cyclic;
        value           nonuniform List<scalar> 
50
(
1.17258e-05
1.17258e-05
1.17258e-05
1.17258e-05
1.17258e-05
1.17258e-05
1.17258e-05
1.17258e-05
1.17258e-05
1.17258e-05
1.17258e-05
1.17258e-05
1.17258e-05
1.17258e-05
1.17258e-05
1.17258e-05
1.17258e-05
1.17258e-05
1.17258e-05
1.17258e-05
1.17258e-05
1.17258e-05
1.17258e-05
1.17258e-05
1.17258e-05
1.17258e-05
1.17258e-05
1.17258e-05
1.17258e-05
1.17258e-05
1.17258e-05
1.17258e-05
1.17258e-05
1.17258e-05
1.17258e-05
1.17258e-05
1.17258e-05
1.17258e-05
1.17258e-05
1.17258e-05
1.17258e-05
1.17258e-05
1.17258e-05
1.17258e-05
1.17258e-05
1.17258e-05
1.17258e-05
1.17258e-05
1.17257e-05
1.17239e-05
)
;
    }
    top
    {
        type            symmetryPlane;
        value           uniform 0;
    }
    walls
    {
        type            fixedValue;
        value           uniform 0;
    }
    frontAndBackPlanes
    {
        type            empty;
        value           nonuniform 0();
    }
}


// ************************************************************************* //
