/*--------------------------------*- C++ -*----------------------------------*\
| =========                 |                                                 |
| \\      /  F ield         | OpenFOAM: The Open Source CFD Toolbox           |
|  \\    /   O peration     | Version:  2.4.x                                 |
|   \\  /    A nd           | Web:      www.OpenFOAM.org                      |
|    \\/     M anipulation  |                                                 |
\*---------------------------------------------------------------------------*/
FoamFile
{
    version     2.0;
    format      ascii;
    class       surfaceScalarField;
    location    "8.9";
    object      phib_0;
}
// * * * * * * * * * * * * * * * * * * * * * * * * * * * * * * * * * * * * * //

dimensions      [0 3 -1 0 0 0 0];

internalField   nonuniform List<scalar> 
359
(
1.33265e-13
3.35563e-13
5.25306e-13
7.10563e-13
9.03715e-13
1.1037e-12
1.30741e-12
1.51403e-12
1.72375e-12
1.93698e-12
2.15388e-12
2.37438e-12
2.59836e-12
2.82568e-12
3.05619e-12
3.28977e-12
3.52626e-12
3.76545e-12
4.00711e-12
4.25105e-12
4.49695e-12
4.7446e-12
4.99375e-12
5.24413e-12
5.49548e-12
5.74754e-12
6.00001e-12
6.25269e-12
6.5053e-12
6.75758e-12
7.00928e-12
7.26022e-12
7.51005e-12
7.75873e-12
8.00593e-12
8.25152e-12
8.49527e-12
8.73708e-12
8.97685e-12
9.21431e-12
9.44949e-12
9.68226e-12
9.91245e-12
1.01401e-11
1.03652e-11
1.05877e-11
1.08075e-11
1.10245e-11
1.12389e-11
1.14507e-11
1.16598e-11
1.18663e-11
1.20702e-11
1.22717e-11
1.24706e-11
1.26672e-11
1.28613e-11
1.30531e-11
1.32426e-11
1.34297e-11
1.36148e-11
1.37977e-11
1.39785e-11
1.41573e-11
1.43342e-11
1.4509e-11
1.4682e-11
1.4853e-11
1.50222e-11
1.51894e-11
1.53548e-11
1.55184e-11
1.56803e-11
1.58403e-11
1.59987e-11
1.61553e-11
1.63102e-11
1.64633e-11
1.66145e-11
1.6764e-11
1.69117e-11
1.70575e-11
1.72015e-11
1.73437e-11
1.74842e-11
1.76228e-11
1.77596e-11
1.78945e-11
1.80275e-11
1.81586e-11
1.82876e-11
1.84147e-11
1.85397e-11
1.86627e-11
1.87837e-11
1.89026e-11
1.90194e-11
1.91342e-11
1.92468e-11
1.93573e-11
1.94656e-11
1.95717e-11
1.96755e-11
1.97772e-11
1.98766e-11
1.99739e-11
2.0069e-11
2.01619e-11
2.02528e-11
2.03417e-11
2.04286e-11
2.05137e-11
2.0597e-11
2.06785e-11
2.07584e-11
2.08366e-11
2.09131e-11
2.09876e-11
2.10601e-11
2.11303e-11
2.11978e-11
2.12624e-11
2.13237e-11
2.13815e-11
2.14359e-11
2.14869e-11
2.15351e-11
2.15811e-11
2.16258e-11
2.16703e-11
2.17154e-11
2.17616e-11
2.18082e-11
2.18529e-11
2.18911e-11
2.19173e-11
2.1927e-11
2.19196e-11
2.18987e-11
2.18699e-11
2.18384e-11
2.18012e-11
1.86203e-11
-2.31253e-09
-2.96413e-09
-3.1298e-09
-3.17699e-09
-3.16166e-09
-3.1071e-09
-3.02588e-09
-2.92554e-09
-2.80846e-09
-2.68332e-09
-2.55583e-09
-2.4289e-09
-2.30427e-09
-2.18297e-09
-2.06557e-09
-1.95232e-09
-1.84325e-09
-1.73826e-09
-1.6372e-09
-1.53988e-09
-1.44608e-09
-1.35565e-09
-1.26842e-09
-1.18425e-09
-1.10303e-09
-1.02471e-09
-9.4922e-10
-8.76552e-10
-8.06705e-10
-7.39699e-10
-6.75571e-10
-6.14369e-10
-5.5615e-10
-5.00975e-10
-4.48906e-10
-4e-10
-3.54304e-10
-3.11849e-10
-2.72652e-10
-2.36706e-10
-2.0398e-10
-1.74419e-10
-1.47937e-10
-1.24409e-10
-1.03656e-10
-8.54582e-11
-6.95983e-11
-5.5919e-11
-4.43394e-11
-3.48021e-11
-2.7192e-11
-2.12946e-11
-1.68185e-11
-1.3454e-11
-1.09224e-11
-9.00036e-12
-7.52104e-12
-6.3647e-12
-5.43011e-12
-4.66628e-12
-4.03535e-12
-3.50902e-12
-3.06589e-12
-2.6896e-12
-2.36748e-12
-2.08963e-12
-1.84824e-12
-1.63712e-12
-1.45124e-12
-1.28654e-12
-1.13978e-12
-1.00836e-12
-8.90173e-13
-7.83515e-13
-6.87114e-13
-6.0001e-13
-5.21403e-13
-4.50678e-13
-3.87396e-13
-3.3111e-13
-2.81365e-13
-2.37695e-13
-1.99655e-13
-1.6673e-13
-1.38448e-13
-1.1428e-13
-9.38103e-14
-7.6579e-14
-6.20316e-14
-5.00414e-14
-4.02818e-14
-3.14593e-14
-2.54627e-14
-1.86521e-14
-1.35566e-14
-9.67559e-15
-6.78203e-15
-4.67128e-15
-3.15758e-15
-2.07261e-15
-1.31198e-15
-7.98891e-16
-3.90641e-16
-1.79894e-16
6.4582e-17
-3.92126e-18
-3.90441e-18
-3.85523e-18
-3.81602e-18
-3.74607e-18
-3.68191e-18
-3.58998e-18
-3.50569e-18
-3.39813e-18
-3.29615e-18
-3.17417e-18
-3.05876e-18
-2.93259e-18
-2.81605e-18
-2.69898e-18
-2.60341e-18
-2.5242e-18
-2.46804e-18
-2.4195e-18
-2.38052e-18
-2.34771e-18
-2.3164e-18
-2.28366e-18
-2.25194e-18
-2.23165e-18
-2.20809e-18
-2.18024e-18
-2.13917e-18
-2.10062e-18
-2.0463e-18
-1.98839e-18
-1.92281e-18
-1.88479e-18
-1.83741e-18
-1.78843e-18
-1.71529e-18
-1.65239e-18
-1.562e-18
-1.51125e-18
-1.39212e-18
-1.29997e-18
-1.18537e-18
-1.06903e-18
-9.26973e-19
-7.96271e-19
-6.51316e-19
-5.13596e-19
-4.02128e-19
-1.90327e-19
-1.54124e-19
-1.30818e-19
8.11812e-20
9.68364e-20
1.16868e-19
1.36204e-19
1.61591e-19
1.74045e-19
1.91216e-19
2.07772e-19
2.32489e-19
2.51862e-19
2.77758e-19
3.0075e-19
3.26024e-19
3.48423e-19
3.72918e-19
3.97836e-19
4.21774e-19
4.47628e-19
4.71645e-19
4.96188e-19
5.22815e-19
5.60243e-19
5.97164e-19
6.35694e-19
6.72714e-19
7.25217e-19
7.84096e-19
8.76749e-19
1.10544e-18
1.44512e-18
1.89919e-18
2.38349e-18
2.81761e-18
3.32566e-18
3.72594e-18
4.13488e-18
4.42355e-18
4.95726e-18
5.31266e-18
5.66903e-18
5.773e-18
6.08967e-18
6.09524e-18
6.12683e-18
5.9203e-18
6.3564e-18
6.45865e-18
6.57354e-18
6.16769e-18
6.12266e-18
5.50921e-18
4.8752e-18
3.90911e-18
3.0583e-18
1.96951e-18
8.43785e-19
-1.62827e-19
-2.25246e-18
-2.66321e-18
-2.06873e-18
)
;

boundaryField
{
    inandouthalf11
    {
        type            cyclic;
        value           nonuniform List<scalar> 
100
(
-6.97421e-11
-6.93709e-11
-6.9328e-11
-6.939e-11
-6.9426e-11
-6.94457e-11
-6.94676e-11
-6.94926e-11
-6.95182e-11
-6.95443e-11
-6.95708e-11
-6.95975e-11
-6.96246e-11
-6.96522e-11
-6.96801e-11
-6.97084e-11
-6.97371e-11
-6.97662e-11
-6.97956e-11
-6.98254e-11
-6.98554e-11
-6.98858e-11
-6.99165e-11
-6.99475e-11
-6.99788e-11
-7.00103e-11
-7.00421e-11
-7.00741e-11
-7.01063e-11
-7.01387e-11
-7.01713e-11
-7.02041e-11
-7.02369e-11
-7.02701e-11
-7.03032e-11
-7.03366e-11
-7.037e-11
-7.04036e-11
-7.04374e-11
-7.04709e-11
-7.05049e-11
-7.05389e-11
-7.05728e-11
-7.0607e-11
-7.06412e-11
-7.06755e-11
-7.07099e-11
-7.07442e-11
-7.07788e-11
-7.08136e-11
-7.08482e-11
-7.08832e-11
-7.09181e-11
-7.09533e-11
-7.09885e-11
-7.1024e-11
-7.10594e-11
-7.10953e-11
-7.11311e-11
-7.1167e-11
-7.12035e-11
-7.12398e-11
-7.12766e-11
-7.13134e-11
-7.13506e-11
-7.13879e-11
-7.14256e-11
-7.14635e-11
-7.15017e-11
-7.154e-11
-7.15788e-11
-7.1618e-11
-7.16572e-11
-7.1697e-11
-7.1737e-11
-7.17776e-11
-7.18183e-11
-7.18595e-11
-7.1901e-11
-7.19431e-11
-7.19854e-11
-7.20282e-11
-7.20715e-11
-7.21153e-11
-7.21596e-11
-7.22043e-11
-7.22496e-11
-7.22954e-11
-7.23418e-11
-7.23887e-11
-7.24362e-11
-7.24843e-11
-7.25331e-11
-7.25825e-11
-7.26326e-11
-7.26835e-11
-7.27351e-11
-7.27875e-11
-7.28406e-11
-7.28946e-11
)
;
    }
    inandouthalf12
    {
        type            cyclic;
        value           nonuniform List<scalar> 
100
(
6.97421e-11
6.93709e-11
6.9328e-11
6.939e-11
6.9426e-11
6.94457e-11
6.94676e-11
6.94926e-11
6.95182e-11
6.95443e-11
6.95708e-11
6.95975e-11
6.96246e-11
6.96522e-11
6.96801e-11
6.97084e-11
6.97371e-11
6.97662e-11
6.97956e-11
6.98254e-11
6.98554e-11
6.98858e-11
6.99165e-11
6.99475e-11
6.99788e-11
7.00103e-11
7.00421e-11
7.00741e-11
7.01063e-11
7.01387e-11
7.01713e-11
7.02041e-11
7.02369e-11
7.02701e-11
7.03032e-11
7.03366e-11
7.037e-11
7.04036e-11
7.04374e-11
7.04709e-11
7.05049e-11
7.05389e-11
7.05728e-11
7.0607e-11
7.06412e-11
7.06755e-11
7.07099e-11
7.07442e-11
7.07788e-11
7.08136e-11
7.08482e-11
7.08832e-11
7.09181e-11
7.09533e-11
7.09885e-11
7.1024e-11
7.10594e-11
7.10953e-11
7.11311e-11
7.1167e-11
7.12035e-11
7.12398e-11
7.12766e-11
7.13134e-11
7.13506e-11
7.13879e-11
7.14256e-11
7.14635e-11
7.15017e-11
7.154e-11
7.15788e-11
7.1618e-11
7.16572e-11
7.1697e-11
7.1737e-11
7.17776e-11
7.18183e-11
7.18595e-11
7.1901e-11
7.19431e-11
7.19854e-11
7.20282e-11
7.20715e-11
7.21153e-11
7.21596e-11
7.22043e-11
7.22496e-11
7.22954e-11
7.23418e-11
7.23887e-11
7.24362e-11
7.24843e-11
7.25331e-11
7.25825e-11
7.26326e-11
7.26835e-11
7.27351e-11
7.27875e-11
7.28406e-11
7.28946e-11
)
;
    }
    inandouthalf21
    {
        type            cyclic;
        value           nonuniform List<scalar> 
100
(
-7.29495e-11
-7.30052e-11
-7.3062e-11
-7.31197e-11
-7.31784e-11
-7.32382e-11
-7.32992e-11
-7.33613e-11
-7.34247e-11
-7.34895e-11
-7.35555e-11
-7.36231e-11
-7.36922e-11
-7.37629e-11
-7.38353e-11
-7.39094e-11
-7.39855e-11
-7.40635e-11
-7.41435e-11
-7.42258e-11
-7.43102e-11
-7.4397e-11
-7.44863e-11
-7.45781e-11
-7.46726e-11
-7.47701e-11
-7.48708e-11
-7.49752e-11
-7.50836e-11
-7.51967e-11
-7.53148e-11
-7.54383e-11
-7.5568e-11
-7.57049e-11
-7.58498e-11
-7.60018e-11
-7.61588e-11
-7.63221e-11
-7.64998e-11
-7.67017e-11
-7.69204e-11
-7.71388e-11
-8.34022e-11
-2.16856e-09
-1.0574e-07
-2.20604e-07
-3.19859e-07
-4.06651e-07
-4.8366e-07
-5.52816e-07
-6.15523e-07
-6.7284e-07
-7.25511e-07
-7.74148e-07
-8.19249e-07
-8.61227e-07
-9.00428e-07
-9.37147e-07
-9.71635e-07
-1.00411e-06
-1.03476e-06
-1.06374e-06
-1.0912e-06
-1.11727e-06
-1.14206e-06
-1.16566e-06
-1.18817e-06
-1.20965e-06
-1.23018e-06
-1.24981e-06
-1.26861e-06
-1.28662e-06
-1.30388e-06
-1.32043e-06
-1.3363e-06
-1.35151e-06
-1.3661e-06
-1.38009e-06
-1.39349e-06
-1.40631e-06
-1.41856e-06
-1.43026e-06
-1.44141e-06
-1.452e-06
-1.46204e-06
-1.47153e-06
-1.48044e-06
-1.48879e-06
-1.49656e-06
-1.50373e-06
-1.5103e-06
-1.51627e-06
-1.52164e-06
-1.52642e-06
-1.53061e-06
-1.53426e-06
-1.53738e-06
-1.54003e-06
-1.54225e-06
-1.54409e-06
)
;
    }
    inandouthalf22
    {
        type            cyclic;
        value           nonuniform List<scalar> 
100
(
7.29495e-11
7.30052e-11
7.3062e-11
7.31197e-11
7.31784e-11
7.32382e-11
7.32992e-11
7.33613e-11
7.34247e-11
7.34895e-11
7.35555e-11
7.36231e-11
7.36922e-11
7.37629e-11
7.38353e-11
7.39094e-11
7.39855e-11
7.40635e-11
7.41435e-11
7.42258e-11
7.43102e-11
7.4397e-11
7.44863e-11
7.45781e-11
7.46726e-11
7.47701e-11
7.48708e-11
7.49752e-11
7.50836e-11
7.51967e-11
7.53148e-11
7.54383e-11
7.5568e-11
7.57049e-11
7.58498e-11
7.60018e-11
7.61588e-11
7.63221e-11
7.64998e-11
7.67017e-11
7.69204e-11
7.71388e-11
8.34022e-11
2.16856e-09
1.0574e-07
2.20604e-07
3.19859e-07
4.06651e-07
4.8366e-07
5.52816e-07
6.15523e-07
6.7284e-07
7.25511e-07
7.74148e-07
8.19249e-07
8.61227e-07
9.00428e-07
9.37147e-07
9.71635e-07
1.00411e-06
1.03476e-06
1.06374e-06
1.0912e-06
1.11727e-06
1.14206e-06
1.16566e-06
1.18817e-06
1.20965e-06
1.23018e-06
1.24981e-06
1.26861e-06
1.28662e-06
1.30388e-06
1.32043e-06
1.3363e-06
1.35151e-06
1.3661e-06
1.38009e-06
1.39349e-06
1.40631e-06
1.41856e-06
1.43026e-06
1.44141e-06
1.452e-06
1.46204e-06
1.47153e-06
1.48044e-06
1.48879e-06
1.49656e-06
1.50373e-06
1.5103e-06
1.51627e-06
1.52164e-06
1.52642e-06
1.53061e-06
1.53426e-06
1.53738e-06
1.54003e-06
1.54225e-06
1.54409e-06
)
;
    }
    inandouthalf31
    {
        type            cyclic;
        value           nonuniform List<scalar> 
110
(
-1.54559e-06
-1.57821e-06
-1.61126e-06
-1.64478e-06
-1.67878e-06
-1.7133e-06
-1.74835e-06
-1.78396e-06
-1.82014e-06
-1.85693e-06
-1.89432e-06
-1.93235e-06
-1.97102e-06
-2.01035e-06
-2.05036e-06
-2.09106e-06
-2.13245e-06
-2.17457e-06
-2.21741e-06
-2.26099e-06
-2.30532e-06
-2.35042e-06
-2.3963e-06
-2.44297e-06
-2.49043e-06
-2.53872e-06
-2.58784e-06
-2.63779e-06
-2.68861e-06
-2.7403e-06
-2.79287e-06
-2.84634e-06
-2.90073e-06
-2.95605e-06
-3.01232e-06
-3.06956e-06
-3.12779e-06
-3.18702e-06
-3.24727e-06
-3.30858e-06
-3.37096e-06
-3.43443e-06
-3.49902e-06
-3.56477e-06
-3.63169e-06
-3.69983e-06
-3.76922e-06
-3.83991e-06
-3.91192e-06
-3.98532e-06
-4.06016e-06
-4.13648e-06
-4.21437e-06
-4.29389e-06
-4.37512e-06
-4.45816e-06
-4.54311e-06
-4.63009e-06
-4.71921e-06
-4.81062e-06
-4.90447e-06
-5.00092e-06
-5.10012e-06
-5.20222e-06
-5.30729e-06
-5.41535e-06
-5.52598e-06
-5.63835e-06
-5.7528e-06
-5.86957e-06
-5.98871e-06
-6.11026e-06
-6.23428e-06
-6.36082e-06
-6.48993e-06
-6.62166e-06
-6.75606e-06
-6.89319e-06
-7.03311e-06
-7.17586e-06
-7.32151e-06
-7.47012e-06
-7.62174e-06
-7.77644e-06
-7.93428e-06
-8.09533e-06
-8.25964e-06
-8.42729e-06
-8.59834e-06
-8.77286e-06
-8.95093e-06
-9.13261e-06
-9.31798e-06
-9.50711e-06
-9.70008e-06
-9.89696e-06
-1.00978e-05
-1.03028e-05
-1.05119e-05
-1.07253e-05
-1.0943e-05
-1.11651e-05
-1.13917e-05
-1.16229e-05
-1.18589e-05
-1.20996e-05
-1.23451e-05
-1.25957e-05
-1.28514e-05
-1.31122e-05
)
;
    }
    inandouthalf32
    {
        type            cyclic;
        value           nonuniform List<scalar> 
110
(
1.54559e-06
1.57821e-06
1.61126e-06
1.64478e-06
1.67878e-06
1.7133e-06
1.74835e-06
1.78396e-06
1.82014e-06
1.85693e-06
1.89432e-06
1.93235e-06
1.97102e-06
2.01035e-06
2.05036e-06
2.09106e-06
2.13245e-06
2.17457e-06
2.21741e-06
2.26099e-06
2.30532e-06
2.35042e-06
2.3963e-06
2.44297e-06
2.49043e-06
2.53872e-06
2.58784e-06
2.63779e-06
2.68861e-06
2.7403e-06
2.79287e-06
2.84634e-06
2.90073e-06
2.95605e-06
3.01232e-06
3.06956e-06
3.12779e-06
3.18702e-06
3.24727e-06
3.30858e-06
3.37096e-06
3.43443e-06
3.49902e-06
3.56477e-06
3.63169e-06
3.69983e-06
3.76922e-06
3.83991e-06
3.91192e-06
3.98532e-06
4.06016e-06
4.13648e-06
4.21437e-06
4.29389e-06
4.37512e-06
4.45816e-06
4.54311e-06
4.63009e-06
4.71921e-06
4.81062e-06
4.90447e-06
5.00092e-06
5.10012e-06
5.20222e-06
5.30729e-06
5.41535e-06
5.52598e-06
5.63835e-06
5.7528e-06
5.86957e-06
5.98871e-06
6.11026e-06
6.23428e-06
6.36082e-06
6.48993e-06
6.62166e-06
6.75606e-06
6.89319e-06
7.03311e-06
7.17586e-06
7.32151e-06
7.47012e-06
7.62174e-06
7.77644e-06
7.93428e-06
8.09533e-06
8.25964e-06
8.42729e-06
8.59834e-06
8.77286e-06
8.95093e-06
9.13261e-06
9.31798e-06
9.50711e-06
9.70008e-06
9.89696e-06
1.00978e-05
1.03028e-05
1.05119e-05
1.07253e-05
1.0943e-05
1.11651e-05
1.13917e-05
1.16229e-05
1.18589e-05
1.20996e-05
1.23451e-05
1.25957e-05
1.28514e-05
1.31122e-05
)
;
    }
    inandouthalf41
    {
        type            cyclic;
        value           nonuniform List<scalar> 
50
(
-1.17368e-05
-1.17368e-05
-1.17368e-05
-1.17368e-05
-1.17368e-05
-1.17368e-05
-1.17368e-05
-1.17368e-05
-1.17368e-05
-1.17368e-05
-1.17368e-05
-1.17368e-05
-1.17368e-05
-1.17368e-05
-1.17368e-05
-1.17368e-05
-1.17368e-05
-1.17368e-05
-1.17368e-05
-1.17368e-05
-1.17368e-05
-1.17368e-05
-1.17368e-05
-1.17368e-05
-1.17368e-05
-1.17368e-05
-1.17368e-05
-1.17368e-05
-1.17368e-05
-1.17368e-05
-1.17368e-05
-1.17368e-05
-1.17368e-05
-1.17368e-05
-1.17368e-05
-1.17368e-05
-1.17368e-05
-1.17368e-05
-1.17368e-05
-1.17368e-05
-1.17368e-05
-1.17368e-05
-1.17368e-05
-1.17368e-05
-1.17368e-05
-1.17368e-05
-1.17368e-05
-1.17368e-05
-1.17368e-05
-1.17368e-05
)
;
    }
    inandouthalf42
    {
        type            cyclic;
        value           nonuniform List<scalar> 
50
(
1.17368e-05
1.17368e-05
1.17368e-05
1.17368e-05
1.17368e-05
1.17368e-05
1.17368e-05
1.17368e-05
1.17368e-05
1.17368e-05
1.17368e-05
1.17368e-05
1.17368e-05
1.17368e-05
1.17368e-05
1.17368e-05
1.17368e-05
1.17368e-05
1.17368e-05
1.17368e-05
1.17368e-05
1.17368e-05
1.17368e-05
1.17368e-05
1.17368e-05
1.17368e-05
1.17368e-05
1.17368e-05
1.17368e-05
1.17368e-05
1.17368e-05
1.17368e-05
1.17368e-05
1.17368e-05
1.17368e-05
1.17368e-05
1.17368e-05
1.17368e-05
1.17368e-05
1.17368e-05
1.17368e-05
1.17368e-05
1.17368e-05
1.17368e-05
1.17368e-05
1.17368e-05
1.17368e-05
1.17368e-05
1.17368e-05
1.17368e-05
)
;
    }
    top
    {
        type            symmetryPlane;
        value           uniform 0;
    }
    walls
    {
        type            fixedValue;
        value           uniform 0;
    }
    frontAndBackPlanes
    {
        type            empty;
        value           nonuniform 0();
    }
}


// ************************************************************************* //
