/*--------------------------------*- C++ -*----------------------------------*\
| =========                 |                                                 |
| \\      /  F ield         | OpenFOAM: The Open Source CFD Toolbox           |
|  \\    /   O peration     | Version:  2.4.x                                 |
|   \\  /    A nd           | Web:      www.OpenFOAM.org                      |
|    \\/     M anipulation  |                                                 |
\*---------------------------------------------------------------------------*/
FoamFile
{
    version     2.0;
    format      ascii;
    class       volTensorField;
    location    "8.9";
    object      Tauf;
}
// * * * * * * * * * * * * * * * * * * * * * * * * * * * * * * * * * * * * * //

dimensions      [0 2 -2 0 0 0 0];

internalField   nonuniform List<tensor> 
360
(
(0 1.38974e-07 0 1.38974e-07 1.49149e-10 0 0 0 0)
(0 -4.13631e-10 0 -4.13631e-10 1.8238e-10 0 0 0 0)
(0 1.90869e-11 0 1.90869e-11 1.92492e-10 0 0 0 0)
(0 9.79324e-11 0 9.79324e-11 1.88388e-10 0 0 0 0)
(-2.58494e-23 5.56382e-11 0 5.56382e-11 1.92826e-10 0 0 0 0)
(-2.58494e-23 4.15598e-11 0 4.15598e-11 1.9914e-10 0 0 0 0)
(-1.29247e-23 4.68704e-11 0 4.68704e-11 2.03464e-10 0 0 0 0)
(0 5.05928e-11 0 5.05928e-11 2.06627e-10 0 0 0 0)
(-1.29247e-23 5.16422e-11 0 5.16422e-11 2.09778e-10 0 0 0 0)
(0 5.24967e-11 0 5.24967e-11 2.13226e-10 0 0 0 0)
(-1.29247e-23 5.31849e-11 0 5.31849e-11 2.16837e-10 0 0 0 0)
(0 5.38537e-11 0 5.38537e-11 2.20425e-10 0 0 0 0)
(-1.29247e-23 5.46237e-11 0 5.46237e-11 2.23901e-10 0 0 0 0)
(0 5.53844e-11 0 5.53844e-11 2.27237e-10 0 0 0 0)
(0 5.62086e-11 0 5.62086e-11 2.30435e-10 0 0 0 0)
(0 5.70209e-11 0 5.70209e-11 2.33498e-10 0 0 0 0)
(0 5.77431e-11 0 5.77431e-11 2.36397e-10 0 0 0 0)
(-1.29247e-23 5.84125e-11 0 5.84125e-11 2.39092e-10 0 0 0 0)
(0 5.91765e-11 0 5.91765e-11 2.41573e-10 0 0 0 0)
(0 5.98028e-11 0 5.98028e-11 2.43818e-10 0 0 0 0)
(0 6.0409e-11 0 6.0409e-11 2.45807e-10 0 0 0 0)
(-1.29247e-23 6.11001e-11 0 6.11001e-11 2.47552e-10 0 0 0 0)
(0 6.16557e-11 0 6.16557e-11 2.49047e-10 0 0 0 0)
(0 6.22232e-11 0 6.22232e-11 2.50281e-10 0 0 0 0)
(0 6.27645e-11 0 6.27645e-11 2.51253e-10 0 0 0 0)
(-1.29247e-23 6.32079e-11 0 6.32079e-11 2.51952e-10 0 0 0 0)
(0 6.37184e-11 0 6.37184e-11 2.5239e-10 0 0 0 0)
(0 6.42111e-11 0 6.42111e-11 2.52583e-10 0 0 0 0)
(0 6.45607e-11 0 6.45607e-11 2.52518e-10 0 0 0 0)
(0 6.49222e-11 0 6.49222e-11 2.5219e-10 0 0 0 0)
(0 6.53823e-11 0 6.53823e-11 2.51631e-10 0 0 0 0)
(0 6.55956e-11 0 6.55956e-11 2.50827e-10 0 0 0 0)
(0 6.59635e-11 0 6.59635e-11 2.49803e-10 0 0 0 0)
(0 6.63129e-11 0 6.63129e-11 2.48581e-10 0 0 0 0)
(0 6.6476e-11 0 6.6476e-11 2.47146e-10 0 0 0 0)
(1.29247e-23 6.67305e-11 0 6.67305e-11 2.45515e-10 0 0 0 0)
(0 6.69449e-11 0 6.69449e-11 2.43707e-10 0 0 0 0)
(0 6.73229e-11 0 6.73229e-11 2.41775e-10 0 0 0 0)
(0 6.7305e-11 0 6.7305e-11 2.39682e-10 0 0 0 0)
(0 6.75381e-11 0 6.75381e-11 2.37451e-10 0 0 0 0)
(0 6.79193e-11 0 6.79193e-11 2.35145e-10 0 0 0 0)
(0 6.78005e-11 0 6.78005e-11 2.3271e-10 0 0 0 0)
(1.29247e-23 6.80998e-11 0 6.80998e-11 2.30202e-10 0 0 0 0)
(0 6.83479e-11 0 6.83479e-11 2.27655e-10 0 0 0 0)
(0 6.84038e-11 0 6.84038e-11 2.25052e-10 0 0 0 0)
(0 6.87373e-11 0 6.87373e-11 2.22433e-10 0 0 0 0)
(0 6.87108e-11 0 6.87108e-11 2.19758e-10 0 0 0 0)
(0 6.88232e-11 0 6.88232e-11 2.17043e-10 0 0 0 0)
(0 6.93738e-11 0 6.93738e-11 2.14391e-10 0 0 0 0)
(0 6.93918e-11 0 6.93918e-11 2.11754e-10 0 0 0 0)
(1.29247e-23 6.94946e-11 0 6.94946e-11 2.09119e-10 0 0 0 0)
(0 6.9861e-11 0 6.9861e-11 2.06517e-10 0 0 0 0)
(0 7.01137e-11 0 7.01137e-11 2.03956e-10 0 0 0 0)
(0 7.02697e-11 0 7.02697e-11 2.01423e-10 0 0 0 0)
(0 7.06523e-11 0 7.06523e-11 1.98949e-10 0 0 0 0)
(0 7.09303e-11 0 7.09303e-11 1.96522e-10 0 0 0 0)
(0 7.11868e-11 0 7.11868e-11 1.94127e-10 0 0 0 0)
(0 7.16597e-11 0 7.16597e-11 1.91799e-10 0 0 0 0)
(0 7.17216e-11 0 7.17216e-11 1.89466e-10 0 0 0 0)
(0 7.22941e-11 0 7.22941e-11 1.8721e-10 0 0 0 0)
(0 7.2714e-11 0 7.2714e-11 1.85023e-10 0 0 0 0)
(0 7.30448e-11 0 7.30448e-11 1.82895e-10 0 0 0 0)
(0 7.3591e-11 0 7.3591e-11 1.80842e-10 0 0 0 0)
(0 7.39603e-11 0 7.39603e-11 1.78817e-10 0 0 0 0)
(0 7.44151e-11 0 7.44151e-11 1.76824e-10 0 0 0 0)
(0 7.49297e-11 0 7.49297e-11 1.74856e-10 0 0 0 0)
(0 7.5551e-11 0 7.5551e-11 1.72931e-10 0 0 0 0)
(0 7.60369e-11 0 7.60369e-11 1.71027e-10 0 0 0 0)
(0 7.6394e-11 0 7.6394e-11 1.69108e-10 0 0 0 0)
(0 7.71016e-11 0 7.71016e-11 1.6722e-10 0 0 0 0)
(0 7.79866e-11 0 7.79866e-11 1.65415e-10 0 0 0 0)
(0 7.83042e-11 0 7.83042e-11 1.63604e-10 0 0 0 0)
(0 7.89382e-11 0 7.89382e-11 1.61814e-10 0 0 0 0)
(0 7.97978e-11 0 7.97978e-11 1.60059e-10 0 0 0 0)
(0 8.05295e-11 0 8.05295e-11 1.58327e-10 0 0 0 0)
(0 8.12162e-11 0 8.12162e-11 1.56602e-10 0 0 0 0)
(0 8.18212e-11 0 8.18212e-11 1.54836e-10 0 0 0 0)
(0 8.26852e-11 0 8.26852e-11 1.53055e-10 0 0 0 0)
(0 8.35366e-11 0 8.35366e-11 1.5126e-10 0 0 0 0)
(0 8.42863e-11 0 8.42863e-11 1.49447e-10 0 0 0 0)
(0 8.51183e-11 0 8.51183e-11 1.47624e-10 0 0 0 0)
(0 8.60835e-11 0 8.60835e-11 1.45811e-10 0 0 0 0)
(0 8.70007e-11 0 8.70007e-11 1.44004e-10 0 0 0 0)
(0 8.79556e-11 0 8.79556e-11 1.42207e-10 0 0 0 0)
(0 8.89474e-11 0 8.89474e-11 1.40408e-10 0 0 0 0)
(0 8.99808e-11 0 8.99808e-11 1.38597e-10 0 0 0 0)
(0 9.10271e-11 0 9.10271e-11 1.36762e-10 0 0 0 0)
(0 9.20692e-11 0 9.20692e-11 1.34884e-10 0 0 0 0)
(0 9.31943e-11 0 9.31943e-11 1.32967e-10 0 0 0 0)
(0 9.43616e-11 0 9.43616e-11 1.31013e-10 0 0 0 0)
(0 9.55492e-11 0 9.55492e-11 1.29026e-10 0 0 0 0)
(0 9.68093e-11 0 9.68093e-11 1.27019e-10 0 0 0 0)
(0 9.81334e-11 0 9.81334e-11 1.25001e-10 0 0 0 0)
(0 9.9491e-11 0 9.9491e-11 1.22975e-10 0 0 0 0)
(0 1.009e-10 0 1.009e-10 1.2094e-10 0 0 0 0)
(0 1.02361e-10 0 1.02361e-10 1.18892e-10 0 0 0 0)
(0 1.03872e-10 0 1.03872e-10 1.16823e-10 0 0 0 0)
(0 1.05437e-10 0 1.05437e-10 1.14727e-10 0 0 0 0)
(0 1.07069e-10 0 1.07069e-10 1.12602e-10 0 0 0 0)
(0 1.08769e-10 0 1.08769e-10 1.10447e-10 0 0 0 0)
(0 1.10542e-10 0 1.10542e-10 1.08266e-10 0 0 0 0)
(0 1.12396e-10 0 1.12396e-10 1.06065e-10 0 0 0 0)
(0 1.14334e-10 0 1.14334e-10 1.03853e-10 0 0 0 0)
(0 1.16356e-10 0 1.16356e-10 1.01636e-10 0 0 0 0)
(0 1.18471e-10 0 1.18471e-10 9.94254e-11 0 0 0 0)
(0 1.20685e-10 0 1.20685e-10 9.72314e-11 0 0 0 0)
(0 1.23004e-10 0 1.23004e-10 9.50655e-11 0 0 0 0)
(0 1.25438e-10 0 1.25438e-10 9.29404e-11 0 0 0 0)
(0 1.27997e-10 0 1.27997e-10 9.08689e-11 0 0 0 0)
(0 1.30688e-10 0 1.30688e-10 8.88624e-11 0 0 0 0)
(0 1.33522e-10 0 1.33522e-10 8.69293e-11 0 0 0 0)
(0 1.36505e-10 0 1.36505e-10 8.50729e-11 0 0 0 0)
(0 1.39647e-10 0 1.39647e-10 8.32884e-11 0 0 0 0)
(0 1.42954e-10 0 1.42954e-10 8.15613e-11 0 0 0 0)
(0 1.46433e-10 0 1.46433e-10 7.98648e-11 0 0 0 0)
(0 1.50087e-10 0 1.50087e-10 7.81585e-11 0 0 0 0)
(0 1.5392e-10 0 1.5392e-10 7.63894e-11 0 0 0 0)
(0 1.57935e-10 0 1.57935e-10 7.44942e-11 0 0 0 0)
(0 1.62132e-10 0 1.62132e-10 7.24052e-11 0 0 0 0)
(0 1.66518e-10 0 1.66518e-10 7.00601e-11 0 0 0 0)
(0 1.71098e-10 0 1.71098e-10 6.74145e-11 0 0 0 0)
(0 1.75887e-10 0 1.75887e-10 6.44568e-11 0 0 0 0)
(0 1.80909e-10 0 1.80909e-10 6.12232e-11 0 0 0 0)
(0 1.86209e-10 0 1.86209e-10 5.78084e-11 0 0 0 0)
(0 1.9187e-10 0 1.9187e-10 5.43693e-11 0 0 0 0)
(0 1.98025e-10 0 1.98025e-10 5.11181e-11 0 0 0 0)
(0 2.04863e-10 0 2.04863e-10 4.83031e-11 0 0 0 0)
(0 2.12579e-10 0 2.12579e-10 4.61758e-11 0 0 0 0)
(0 2.21289e-10 0 2.21289e-10 4.4941e-11 0 0 0 0)
(0 2.30943e-10 0 2.30943e-10 4.4677e-11 0 0 0 0)
(0 2.41426e-10 0 2.41426e-10 4.52141e-11 0 0 0 0)
(0 2.5296e-10 0 2.5296e-10 4.59893e-11 0 0 0 0)
(0 2.66308e-10 0 2.66308e-10 4.59401e-11 0 0 0 0)
(0 2.81619e-10 0 2.81619e-10 4.34971e-11 0 0 0 0)
(0 2.96668e-10 0 2.96668e-10 3.68586e-11 0 0 0 0)
(0 3.08639e-10 0 3.08639e-10 2.50093e-11 0 0 0 0)
(0 3.19942e-10 0 3.19942e-10 9.12093e-12 0 0 0 0)
(0 3.40675e-10 0 3.40675e-10 -6.86611e-12 0 0 0 0)
(0 3.79265e-10 0 3.79265e-10 -1.85649e-10 0 0 0 0)
(0 4.20214e-10 0 4.20214e-10 3.08066e-09 0 0 0 0)
(0 4.36851e-10 0 4.36851e-10 -1.59129e-08 0 0 0 0)
(0 6.56572e-09 0 6.56572e-09 5.9177e-08 0 0 0 0)
(0 2.65317e-06 0 2.65317e-06 -2.61153e-07 0 0 0 0)
(0 0.000476275 0 0.000476275 -7.57492e-06 0 0 0 0)
(0 0.00344647 0 0.00344647 -2.16819e-05 0 0 0 0)
(0 0.00594376 0 0.00594376 1.30564e-07 0 0 0 0)
(0 0.00710663 0 0.00710663 -4.67339e-07 0 0 0 0)
(0 0.00779199 0 0.00779199 1.34158e-06 0 0 0 0)
(0 0.00820673 0 0.00820673 3.31951e-06 0 0 0 0)
(0 0.0084501 0 0.0084501 5.38297e-06 0 0 0 0)
(0 0.00857627 0 0.00857627 7.16841e-06 0 0 0 0)
(0 0.0086136 0 0.0086136 9.12975e-06 0 0 0 0)
(0 0.00858334 0 0.00858334 1.08374e-05 0 0 0 0)
(0 0.00850589 0 0.00850589 1.16449e-05 0 0 0 0)
(0 0.00839264 0 0.00839264 1.22601e-05 0 0 0 0)
(0 0.00825233 0 0.00825233 1.26924e-05 0 0 0 0)
(0 0.00809145 0 0.00809145 1.29506e-05 0 0 0 0)
(0 0.00791498 0 0.00791498 1.30693e-05 0 0 0 0)
(0 0.00772676 0 0.00772676 1.30849e-05 0 0 0 0)
(0 0.00752975 0 0.00752975 1.3025e-05 0 0 0 0)
(0 0.00732624 0 0.00732624 1.29093e-05 0 0 0 0)
(0 0.00711798 0 0.00711798 1.2752e-05 0 0 0 0)
(0 0.00690633 0 0.00690633 1.25629e-05 0 0 0 0)
(0 0.00669232 0 0.00669232 1.23475e-05 0 0 0 0)
(0 0.00647672 0 0.00647672 1.21081e-05 0 0 0 0)
(0 0.00626013 0 0.00626013 1.18471e-05 0 0 0 0)
(0 0.00604301 0 0.00604301 1.15655e-05 0 0 0 0)
(0 0.0058257 0 0.0058257 1.12624e-05 0 0 0 0)
(0 0.00560848 0 0.00560848 1.0937e-05 0 0 0 0)
(0 0.00539158 0 0.00539158 1.05885e-05 0 0 0 0)
(0 0.00517519 0 0.00517519 1.02166e-05 0 0 0 0)
(0 0.00495952 0 0.00495952 9.82122e-06 0 0 0 0)
(0 0.00474473 0 0.00474473 9.40275e-06 0 0 0 0)
(0 0.004531 0 0.004531 8.96208e-06 0 0 0 0)
(0 0.00431852 0 0.00431852 8.50071e-06 0 0 0 0)
(0 0.00410751 0 0.00410751 8.02076e-06 0 0 0 0)
(0 0.00389816 0 0.00389816 7.52499e-06 0 0 0 0)
(0 0.00369072 0 0.00369072 7.01688e-06 0 0 0 0)
(0 0.00348545 0 0.00348545 6.5005e-06 0 0 0 0)
(0 0.00328262 0 0.00328262 5.9805e-06 0 0 0 0)
(0 0.00308255 0 0.00308255 5.46194e-06 0 0 0 0)
(0 0.00288555 0 0.00288555 4.95014e-06 0 0 0 0)
(0 0.00269201 0 0.00269201 4.45044e-06 0 0 0 0)
(0 0.00250233 0 0.00250233 3.96796e-06 0 0 0 0)
(0 0.00231696 0 0.00231696 3.50753e-06 0 0 0 0)
(0 0.00213639 0 0.00213639 3.074e-06 0 0 0 0)
(0 0.00196118 0 0.00196118 2.67272e-06 0 0 0 0)
(0 0.0017919 0 0.0017919 2.30898e-06 0 0 0 0)
(0 0.00162918 0 0.00162918 1.98566e-06 0 0 0 0)
(0 0.00147365 0 0.00147365 1.70029e-06 0 0 0 0)
(0 0.00132595 0 0.00132595 1.44495e-06 0 0 0 0)
(0 0.00118664 0 0.00118664 1.21056e-06 0 0 0 0)
(0 0.00105625 0 0.00105625 9.92713e-07 0 0 0 0)
(0 0.000935118 0 0.000935118 7.93896e-07 0 0 0 0)
(0 0.000823438 0 0.000823438 6.20543e-07 0 0 0 0)
(0 0.000721174 0 0.000721174 4.77814e-07 0 0 0 0)
(0 0.000628072 0 0.000628072 3.66421e-07 0 0 0 0)
(0 0.000543672 0 0.000543672 2.82846e-07 0 0 0 0)
(0 0.000467358 0 0.000467358 2.21458e-07 0 0 0 0)
(0 0.000398416 0 0.000398416 1.76549e-07 0 0 0 0)
(0 0.000336084 0 0.000336084 1.43392e-07 0 0 0 0)
(0 0.000279131 0 0.000279131 1.18324e-07 0 0 0 0)
(-2.73908e-17 0.000226425 0 0.000226425 9.8861e-08 0 0 0 0)
(0 0.000177549 0 0.000177549 8.35339e-08 0 0 0 0)
(0 0.000132099 0 0.000132099 7.12741e-08 0 0 0 0)
(2.92858e-17 8.97007e-05 0 8.97007e-05 6.13227e-08 0 0 0 0)
(0 5.00198e-05 0 5.00198e-05 5.3141e-08 0 0 0 0)
(-3.04435e-17 1.27634e-05 0 1.27634e-05 4.63399e-08 0 0 0 0)
(0 -2.23207e-05 0 -2.23207e-05 4.06323e-08 0 0 0 0)
(6.27809e-17 -5.54455e-05 0 -5.54455e-05 3.5803e-08 0 0 0 0)
(0 -8.67882e-05 0 -8.67882e-05 3.16896e-08 0 0 0 0)
(0 -0.000116495 0 -0.000116495 2.81679e-08 0 0 0 0)
(0 -0.000144683 0 -0.000144683 2.51371e-08 0 0 0 0)
(6.49294e-17 -0.000171448 0 -0.000171448 2.25099e-08 0 0 0 0)
(0 -0.000196865 0 -0.000196865 2.02144e-08 0 0 0 0)
(0 -0.000220989 0 -0.000220989 1.81937e-08 0 0 0 0)
(0 -0.000243865 0 -0.000243865 1.63964e-08 0 0 0 0)
(0 -0.000265523 0 -0.000265523 1.47736e-08 0 0 0 0)
(0 -0.000285984 0 -0.000285984 1.32876e-08 0 0 0 0)
(-6.41651e-17 -0.000305262 0 -0.000305262 1.19139e-08 0 0 0 0)
(0 -0.000323362 0 -0.000323362 1.06315e-08 0 0 0 0)
(-6.30574e-17 -0.000340285 0 -0.000340285 9.42556e-09 0 0 0 0)
(0 -0.000356026 0 -0.000356026 8.29405e-09 0 0 0 0)
(-6.16234e-17 -0.000370578 0 -0.000370578 7.24161e-09 0 0 0 0)
(0 -0.00038393 0 -0.00038393 6.27116e-09 0 0 0 0)
(0 -0.000396069 0 -0.000396069 5.38508e-09 0 0 0 0)
(0 -0.000406979 0 -0.000406979 4.58601e-09 0 0 0 0)
(0 -0.000416645 0 -0.000416645 3.8746e-09 0 0 0 0)
(5.69212e-17 -0.000425049 0 -0.000425049 3.24771e-09 0 0 0 0)
(5.58258e-17 -0.000432172 0 -0.000432172 2.70021e-09 0 0 0 0)
(0 -0.000437995 0 -0.000437995 2.23087e-09 0 0 0 0)
(0 -0.000442501 0 -0.000442501 1.82947e-09 0 0 0 0)
(0 -0.000445671 0 -0.000445671 1.48138e-09 0 0 0 0)
(0 -0.000447485 0 -0.000447485 1.20441e-09 0 0 0 0)
(0 -0.000447927 0 -0.000447927 9.68167e-10 0 0 0 0)
(0 -0.00044698 0 -0.00044698 7.81762e-10 0 0 0 0)
(0 -0.000444629 0 -0.000444629 6.84365e-10 0 0 0 0)
(0 -0.000440862 0 -0.000440862 5.66843e-10 0 0 0 0)
(0 -0.000435667 0 -0.000435667 4.1201e-10 0 0 0 0)
(0 -0.000429037 0 -0.000429037 2.9253e-10 0 0 0 0)
(0 -0.000420968 0 -0.000420968 2.05687e-10 0 0 0 0)
(0 -0.000411459 0 -0.000411459 1.42777e-10 0 0 0 0)
(0 -0.000400518 0 -0.000400518 9.78389e-11 0 0 0 0)
(-3.68128e-17 -0.000388155 0 -0.000388155 6.57639e-11 0 0 0 0)
(3.52498e-17 -0.000374392 0 -0.000374392 4.41757e-11 0 0 0 0)
(0 -0.000359256 0 -0.000359256 2.95478e-11 0 0 0 0)
(0 -0.000342789 0 -0.000342789 2.03446e-11 0 0 0 0)
(-6.08829e-17 -0.000325042 0 -0.000325042 1.16389e-11 0 0 0 0)
(0 -0.000306082 0 -0.000306082 5.97131e-13 0 0 0 0)
(0 -0.000285994 0 -0.000285994 -2.28069e-12 0 0 0 0)
(-5.09762e-17 -0.000264883 0 -0.000264883 4.88912e-14 0 0 0 0)
(0 -0.000242878 0 -0.000242878 1.45469e-13 0 0 0 0)
(0 -0.000220134 0 -0.000220134 2.50748e-14 0 0 0 0)
(0 -0.000196841 0 -0.000196841 -4.22309e-15 0 0 0 0)
(0 -0.000173223 0 -0.000173223 -2.10347e-16 0 0 0 0)
(0 -0.000149546 0 -0.000149546 6.77917e-15 0 0 0 0)
(0 -0.000126123 0 -0.000126123 2.04576e-14 0 0 0 0)
(0 -0.000103316 0 -0.000103316 5.58103e-15 0 0 0 0)
(0 -8.15442e-05 0 -8.15442e-05 -3.40422e-13 0 0 0 0)
(0 -6.12754e-05 0 -6.12754e-05 1.06425e-12 0 0 0 0)
(0 -4.30241e-05 0 -4.30241e-05 -1.86397e-12 0 0 0 0)
(0 -2.7331e-05 0 -2.7331e-05 2.50078e-12 0 0 0 0)
(0 -1.47249e-05 0 -1.47249e-05 -2.79611e-12 0 0 0 0)
(0 -5.65766e-06 0 -5.65766e-06 2.68658e-12 0 0 0 0)
(0 -3.9508e-07 0 -3.9508e-07 -2.16273e-12 0 0 0 0)
(0 1.03872e-06 0 1.03872e-06 1.30029e-12 0 0 0 0)
(8.70657e-19 2.52837e-07 0 2.52837e-07 -3.7791e-13 0 0 0 0)
(0 1.70519e-08 0 1.70519e-08 1.09829e-13 0 0 0 0)
(0 6.50993e-10 0 6.50993e-10 -9.69672e-14 0 0 0 0)
(0 1.5258e-11 0 1.5258e-11 9.50633e-14 0 0 0 0)
(0 3.46127e-12 0 3.46127e-12 -9.33145e-14 0 0 0 0)
(0 2.37359e-12 0 2.37359e-12 9.16851e-14 0 0 0 0)
(0 1.69357e-12 0 1.69357e-12 -9.01118e-14 0 0 0 0)
(0 1.20145e-12 0 1.20145e-12 8.86274e-14 0 0 0 0)
(0 8.46389e-13 0 8.46389e-13 -8.71827e-14 0 0 0 0)
(0 5.9201e-13 0 5.9201e-13 8.58123e-14 0 0 0 0)
(0 4.11247e-13 0 4.11247e-13 -8.44525e-14 0 0 0 0)
(0 2.83544e-13 0 2.83544e-13 8.31619e-14 0 0 0 0)
(0 1.93884e-13 0 1.93884e-13 -8.18569e-14 0 0 0 0)
(0 1.31559e-13 0 1.31559e-13 8.06211e-14 0 0 0 0)
(0 8.87127e-14 0 8.87127e-14 -7.93576e-14 0 0 0 0)
(0 5.93572e-14 0 5.93572e-14 7.81427e-14 0 0 0 0)
(0 3.92635e-14 0 3.92635e-14 -7.69023e-14 0 0 0 0)
(0 2.58505e-14 0 2.58505e-14 7.57062e-14 0 0 0 0)
(0 1.6828e-14 0 1.6828e-14 -7.44647e-14 0 0 0 0)
(0 1.08667e-14 0 1.08667e-14 7.32738e-14 0 0 0 0)
(3.00904e-19 6.9715e-15 0 6.9715e-15 -7.20281e-14 0 0 0 0)
(0 4.38226e-15 0 4.38226e-15 7.08306e-14 0 0 0 0)
(0 2.74013e-15 0 2.74013e-15 -6.95604e-14 0 0 0 0)
(0 1.66914e-15 0 1.66914e-15 6.83529e-14 0 0 0 0)
(0 1.05221e-15 0 1.05221e-15 -6.70635e-14 0 0 0 0)
(0 7.05798e-16 0 7.05798e-16 6.58434e-14 0 0 0 0)
(0 4.27297e-16 0 4.27297e-16 -6.4527e-14 0 0 0 0)
(0 2.12862e-16 0 2.12862e-16 6.3285e-14 0 0 0 0)
(0 1.51234e-16 0 1.51234e-16 -6.19456e-14 0 0 0 0)
(0 6.20275e-17 0 6.20275e-17 6.06734e-14 0 0 0 0)
(2.46128e-19 2.46128e-19 0 2.46128e-19 -5.93059e-14 0 0 0 0)
(0 1.54388e-17 0 1.54388e-17 5.80027e-14 0 0 0 0)
(0 1.9683e-17 0 1.9683e-17 -5.66517e-14 0 0 0 0)
(0 -1.30348e-17 0 -1.30348e-17 5.53171e-14 0 0 0 0)
(0 7.2962e-17 0 7.2962e-17 -5.3914e-14 0 0 0 0)
(0 3.88438e-17 0 3.88438e-17 5.25236e-14 0 0 0 0)
(0 -6.327e-17 0 -6.327e-17 -5.11181e-14 0 0 0 0)
(0 2.58737e-17 0 2.58737e-17 4.96975e-14 0 0 0 0)
(0 -3.46328e-17 0 -3.46328e-17 -4.826e-14 0 0 0 0)
(0 -4.41116e-17 0 -4.41116e-17 4.68032e-14 0 0 0 0)
(0 5.74273e-17 0 5.74273e-17 -4.5331e-14 0 0 0 0)
(0 7.41915e-17 0 7.41915e-17 4.38379e-14 0 0 0 0)
(0 -4.83481e-20 0 -4.83481e-20 -4.23251e-14 0 0 0 0)
(0 -1.08846e-16 0 -1.08846e-16 4.08247e-14 0 0 0 0)
(0 -1.09691e-16 0 -1.09691e-16 -4.49678e-14 0 0 0 0)
(0 -5.12455e-17 0 -5.12455e-17 4.4451e-14 0 0 0 0)
(0 4.19811e-17 0 4.19811e-17 -4.39646e-14 0 0 0 0)
(0 1.97465e-17 0 1.97465e-17 4.34715e-14 0 0 0 0)
(0 1.87406e-17 0 1.87406e-17 -4.29783e-14 0 0 0 0)
(0 4.74338e-17 0 4.74338e-17 4.24768e-14 0 0 0 0)
(0 -1.5723e-17 0 -1.5723e-17 -4.19746e-14 0 0 0 0)
(0 -1.60407e-17 0 -1.60407e-17 4.14637e-14 0 0 0 0)
(0 1.41349e-17 0 1.41349e-17 -4.09519e-14 0 0 0 0)
(0 -8.61856e-17 0 -8.61856e-17 4.04304e-14 0 0 0 0)
(0 -5.11926e-17 0 -5.11926e-17 -3.99094e-14 0 0 0 0)
(0 7.65506e-17 0 7.65506e-17 3.93748e-14 0 0 0 0)
(0 4.67986e-17 0 4.67986e-17 -3.88436e-14 0 0 0 0)
(0 -1.14349e-17 0 -1.14349e-17 3.82952e-14 0 0 0 0)
(0 2.75286e-18 0 2.75286e-18 -3.77537e-14 0 0 0 0)
(0 -6.77626e-18 0 -6.77626e-18 3.71861e-14 0 0 0 0)
(0 -7.46448e-18 0 -7.46448e-18 -3.66437e-14 0 0 0 0)
(0 2.94344e-17 0 2.94344e-17 3.60318e-14 0 0 0 0)
(0 -1.54054e-17 0 -1.54054e-17 -3.55257e-14 0 0 0 0)
(0 -1.95876e-18 0 -1.95876e-18 3.48464e-14 0 0 0 0)
(0 2.38228e-18 0 2.38228e-18 -3.43682e-14 0 0 0 0)
(0 -3.4146e-17 0 -3.4146e-17 3.36482e-14 0 0 0 0)
(0 -1.26526e-17 0 -1.26526e-17 -3.31542e-14 0 0 0 0)
(0 4.10811e-17 0 4.10811e-17 3.24181e-14 0 0 0 0)
(0 9.05266e-18 0 9.05266e-18 -3.18848e-14 0 0 0 0)
(0 1.20702e-17 0 1.20702e-17 3.11374e-14 0 0 0 0)
(0 1.38702e-17 0 1.38702e-17 -3.05779e-14 0 0 0 0)
(0 -2.09641e-17 0 -2.09641e-17 2.98007e-14 0 0 0 0)
(0 -5.73865e-17 0 -5.73865e-17 -2.91958e-14 0 0 0 0)
(0 -1.50507e-16 0 -1.50507e-16 2.84204e-14 0 0 0 0)
(0 -3.701e-16 0 -3.701e-16 -2.77417e-14 0 0 0 0)
(0 -2.32405e-17 0 -2.32405e-17 2.69647e-14 0 0 0 0)
(0 3.70418e-16 0 3.70418e-16 -2.61995e-14 0 0 0 0)
(0 1.68348e-16 0 1.68348e-16 2.54066e-14 0 0 0 0)
(0 3.72694e-17 0 3.72694e-17 -2.46119e-14 0 0 0 0)
(0 1.26526e-17 0 1.26526e-17 2.37333e-14 0 0 0 0)
(0 4.89162e-17 0 4.89162e-17 -2.28743e-14 0 0 0 0)
(0 2.21817e-17 0 2.21817e-17 2.19915e-14 0 0 0 0)
(0 -2.48816e-17 0 -2.48816e-17 -2.09759e-14 0 0 0 0)
(0 -9.40736e-17 0 -9.40736e-17 2.0086e-14 0 0 0 0)
(0 9.15854e-18 0 9.15854e-18 -1.88791e-14 0 0 0 0)
(0 1.45319e-16 0 1.45319e-16 1.79723e-14 0 0 0 0)
(0 8.40151e-17 0 8.40151e-17 -1.65506e-14 0 0 0 0)
(0 -3.84871e-17 0 -3.84871e-17 1.55396e-14 0 0 0 0)
(0 -7.30566e-17 0 -7.30566e-17 -1.38726e-14 0 0 0 0)
(0 -7.59153e-17 0 -7.59153e-17 1.2646e-14 0 0 0 0)
(0 -5.04514e-17 0 -5.04514e-17 -1.05382e-14 0 0 0 0)
(0 3.53107e-17 0 3.53107e-17 8.64289e-15 0 0 0 0)
(0 -6.60686e-17 0 -6.60686e-17 -6.07321e-15 0 0 0 0)
(0 -9.67735e-17 0 -9.67735e-17 1.96095e-15 0 0 0 0)
)
;

boundaryField
{
    inandouthalf11
    {
        type            cyclic;
    }
    inandouthalf12
    {
        type            cyclic;
    }
    inandouthalf21
    {
        type            cyclic;
    }
    inandouthalf22
    {
        type            cyclic;
    }
    inandouthalf31
    {
        type            cyclic;
    }
    inandouthalf32
    {
        type            cyclic;
    }
    inandouthalf41
    {
        type            cyclic;
    }
    inandouthalf42
    {
        type            cyclic;
    }
    top
    {
        type            symmetryPlane;
    }
    walls
    {
        type            zeroGradient;
    }
    frontAndBackPlanes
    {
        type            empty;
    }
}


// ************************************************************************* //
