/*--------------------------------*- C++ -*----------------------------------*\
| =========                 |                                                 |
| \\      /  F ield         | OpenFOAM: The Open Source CFD Toolbox           |
|  \\    /   O peration     | Version:  2.4.x                                 |
|   \\  /    A nd           | Web:      www.OpenFOAM.org                      |
|    \\/     M anipulation  |                                                 |
\*---------------------------------------------------------------------------*/
FoamFile
{
    version     2.0;
    format      ascii;
    class       volScalarField;
    location    "8.9";
    object      tmf;
}
// * * * * * * * * * * * * * * * * * * * * * * * * * * * * * * * * * * * * * //

dimensions      [0 0 0 0 0 0 0];

internalField   nonuniform List<scalar> 
360
(
0.999206
0.999209
0.999209
0.999209
0.999209
0.999209
0.999209
0.999209
0.999209
0.999209
0.999209
0.999209
0.999208
0.999208
0.999208
0.999208
0.999208
0.999208
0.999208
0.999208
0.999208
0.999208
0.999208
0.999208
0.999207
0.999207
0.999207
0.999207
0.999207
0.999207
0.999207
0.999207
0.999207
0.999207
0.999207
0.999206
0.999206
0.999206
0.999206
0.999206
0.999206
0.999206
0.999206
0.999206
0.999206
0.999205
0.999205
0.999205
0.999205
0.999205
0.999205
0.999205
0.999205
0.999204
0.999204
0.999204
0.999204
0.999204
0.999204
0.999204
0.999204
0.999203
0.999203
0.999203
0.999203
0.999203
0.999203
0.999203
0.999203
0.999202
0.999202
0.999202
0.999202
0.999202
0.999202
0.999201
0.999201
0.999201
0.999201
0.999201
0.999201
0.9992
0.9992
0.9992
0.9992
0.9992
0.999199
0.999199
0.999199
0.999199
0.999199
0.999198
0.999198
0.999198
0.999198
0.999198
0.999197
0.999197
0.999197
0.999197
0.999196
0.999196
0.999196
0.999196
0.999195
0.999195
0.999195
0.999194
0.999194
0.999194
0.999194
0.999193
0.999193
0.999193
0.999192
0.999192
0.999191
0.999191
0.999191
0.99919
0.99919
0.999189
0.999189
0.999189
0.999188
0.999188
0.999187
0.999187
0.999186
0.998593
0.997978
0.997713
0.997415
0.997046
0.996579
0.995986
0.995227
0.994258
0.993026
0.991455
0.989448
0.986861
0.983105
0.968952
0.930496
0.913224
0.907898
0.905635
0.904211
0.902892
0.901395
0.897701
0.898962
0.900179
0.901431
0.902745
0.904138
0.905621
0.9072
0.908879
0.910655
0.912525
0.91448
0.916512
0.918609
0.920761
0.922957
0.925187
0.927443
0.929716
0.932001
0.934293
0.936588
0.938886
0.941184
0.943485
0.945789
0.948099
0.950415
0.95274
0.955074
0.957415
0.95976
0.962103
0.964434
0.966743
0.969018
0.971245
0.973409
0.975497
0.977495
0.979391
0.981174
0.982836
0.98437
0.985771
0.987039
0.988174
0.98918
0.990065
0.990838
0.991515
0.992111
0.992631
0.993084
0.993476
0.993813
0.994104
0.994353
0.994566
0.994748
0.994902
0.995032
0.995141
0.995232
0.995306
0.995366
0.995414
0.99545
0.995476
0.995493
0.995502
0.995504
0.995498
0.995486
0.995469
0.995445
0.995417
0.995383
0.995345
0.995302
0.995255
0.995203
0.995148
0.99509
0.99503
0.994968
0.994487
0.994644
0.994635
0.994668
0.994695
0.994774
0.994688
0.995024
0.994513
0.995356
0.994607
0.996475
0.996699
0.996775
0.99686
0.996952
0.997051
0.997158
0.997273
0.997397
0.997531
0.997675
0.99783
0.997997
0.998177
0.998369
0.998576
0.998802
0.999057
0.999285
0.999396
0.999411
0.999417
0.999422
0.999425
0.999426
0.999373
0.996708
0.99419
0.99419
0.99419
0.99419
0.99419
0.99419
0.99419
0.99419
0.99419
0.99419
0.99419
0.99419
0.99419
0.99419
0.99419
0.99419
0.99419
0.99419
0.99419
0.99419
0.99419
0.99419
0.99419
0.99419
0.99419
0.99419
0.99419
0.99419
0.99419
0.99419
0.99419
0.99419
0.99419
0.99419
0.99419
0.99419
0.99419
0.99419
0.99419
0.99419
0.99419
0.99419
0.99419
0.99419
0.99419
0.99419
0.99419
0.99419
0.99419
0.99419
0.99419
0.99419
0.99419
0.99419
0.99419
0.99419
0.99419
0.99419
0.99419
0.99419
0.99419
0.99419
0.99419
0.99419
0.99419
0.99419
0.99419
0.99419
0.99419
0.99419
0.99419
0.99419
0.99419
0.99419
0.99419
0.99419
0.99419
0.99419
0.99419
0.99419
0.99419
0.99419
0.99419
0.994175
0.993242
)
;

boundaryField
{
    inandouthalf11
    {
        type            cyclic;
    }
    inandouthalf12
    {
        type            cyclic;
    }
    inandouthalf21
    {
        type            cyclic;
    }
    inandouthalf22
    {
        type            cyclic;
    }
    inandouthalf31
    {
        type            cyclic;
    }
    inandouthalf32
    {
        type            cyclic;
    }
    inandouthalf41
    {
        type            cyclic;
    }
    inandouthalf42
    {
        type            cyclic;
    }
    top
    {
        type            symmetryPlane;
    }
    walls
    {
        type            calculated;
        value           uniform 0;
    }
    frontAndBackPlanes
    {
        type            empty;
    }
}


// ************************************************************************* //
