/*--------------------------------*- C++ -*----------------------------------*\
| =========                 |                                                 |
| \\      /  F ield         | OpenFOAM: The Open Source CFD Toolbox           |
|  \\    /   O peration     | Version:  2.4.x                                 |
|   \\  /    A nd           | Web:      www.OpenFOAM.org                      |
|    \\/     M anipulation  |                                                 |
\*---------------------------------------------------------------------------*/
FoamFile
{
    version     2.0;
    format      ascii;
    class       volVectorField;
    location    "8.9";
    object      Ua;
}
// * * * * * * * * * * * * * * * * * * * * * * * * * * * * * * * * * * * * * //

dimensions      [0 1 -1 0 0 0 0];

internalField   nonuniform List<vector> 
360
(
(1.90224e-32 -1.00585e-31 0)
(1.05285e-08 -3.89185e-08 0)
(2.20923e-08 -7.00205e-08 0)
(3.26603e-08 -9.78247e-08 0)
(4.35922e-08 -1.2757e-07 0)
(5.51484e-08 -1.59063e-07 0)
(6.70552e-08 -1.91222e-07 0)
(7.91809e-08 -2.23786e-07 0)
(9.15274e-08 -2.56825e-07 0)
(1.04119e-07 -2.9041e-07 0)
(1.16971e-07 -3.2458e-07 0)
(1.30087e-07 -3.5934e-07 0)
(1.43461e-07 -3.94672e-07 0)
(1.57088e-07 -4.30552e-07 0)
(1.70959e-07 -4.66957e-07 0)
(1.85066e-07 -5.03868e-07 0)
(1.99403e-07 -5.41265e-07 0)
(2.13958e-07 -5.79117e-07 0)
(2.2872e-07 -6.17389e-07 0)
(2.43675e-07 -6.56048e-07 0)
(2.58809e-07 -6.95053e-07 0)
(2.74106e-07 -7.34362e-07 0)
(2.89552e-07 -7.7394e-07 0)
(3.05132e-07 -8.13744e-07 0)
(3.20829e-07 -8.53734e-07 0)
(3.36628e-07 -8.93868e-07 0)
(3.52511e-07 -9.341e-07 0)
(3.68464e-07 -9.74392e-07 0)
(3.84469e-07 -1.01471e-06 0)
(4.00512e-07 -1.055e-06 0)
(4.16576e-07 -1.09523e-06 0)
(4.32645e-07 -1.13536e-06 0)
(4.48706e-07 -1.17536e-06 0)
(4.64744e-07 -1.21519e-06 0)
(4.80747e-07 -1.25482e-06 0)
(4.967e-07 -1.29421e-06 0)
(5.12592e-07 -1.33334e-06 0)
(5.28411e-07 -1.37218e-06 0)
(5.4415e-07 -1.41072e-06 0)
(5.59797e-07 -1.44892e-06 0)
(5.75344e-07 -1.48676e-06 0)
(5.90786e-07 -1.52425e-06 0)
(6.06115e-07 -1.56134e-06 0)
(6.21326e-07 -1.59805e-06 0)
(6.36416e-07 -1.63435e-06 0)
(6.51383e-07 -1.67025e-06 0)
(6.66223e-07 -1.70575e-06 0)
(6.80932e-07 -1.74082e-06 0)
(6.9551e-07 -1.77547e-06 0)
(7.09961e-07 -1.80972e-06 0)
(7.24284e-07 -1.84356e-06 0)
(7.38479e-07 -1.87699e-06 0)
(7.52549e-07 -1.91002e-06 0)
(7.66497e-07 -1.94266e-06 0)
(7.80323e-07 -1.97491e-06 0)
(7.94032e-07 -2.00679e-06 0)
(8.07626e-07 -2.03829e-06 0)
(8.21109e-07 -2.06943e-06 0)
(8.34481e-07 -2.10021e-06 0)
(8.47745e-07 -2.13064e-06 0)
(8.60906e-07 -2.16072e-06 0)
(8.73969e-07 -2.19048e-06 0)
(8.86938e-07 -2.21992e-06 0)
(8.99817e-07 -2.24905e-06 0)
(9.12608e-07 -2.27787e-06 0)
(9.25313e-07 -2.30639e-06 0)
(9.37934e-07 -2.33461e-06 0)
(9.50474e-07 -2.36255e-06 0)
(9.62933e-07 -2.39019e-06 0)
(9.75311e-07 -2.41755e-06 0)
(9.87612e-07 -2.44462e-06 0)
(9.99842e-07 -2.47142e-06 0)
(1.012e-06 -2.49795e-06 0)
(1.02409e-06 -2.52422e-06 0)
(1.03611e-06 -2.55022e-06 0)
(1.04806e-06 -2.57597e-06 0)
(1.05995e-06 -2.60146e-06 0)
(1.07177e-06 -2.62667e-06 0)
(1.08352e-06 -2.65162e-06 0)
(1.0952e-06 -2.67631e-06 0)
(1.10682e-06 -2.70071e-06 0)
(1.11836e-06 -2.72485e-06 0)
(1.12983e-06 -2.74871e-06 0)
(1.14124e-06 -2.77231e-06 0)
(1.15258e-06 -2.79564e-06 0)
(1.16385e-06 -2.8187e-06 0)
(1.17506e-06 -2.8415e-06 0)
(1.1862e-06 -2.86402e-06 0)
(1.19727e-06 -2.88625e-06 0)
(1.20827e-06 -2.9082e-06 0)
(1.21919e-06 -2.92986e-06 0)
(1.23003e-06 -2.95122e-06 0)
(1.2408e-06 -2.97227e-06 0)
(1.25149e-06 -2.99303e-06 0)
(1.26211e-06 -3.01349e-06 0)
(1.27265e-06 -3.03365e-06 0)
(1.28311e-06 -3.05351e-06 0)
(1.2935e-06 -3.07306e-06 0)
(1.3038e-06 -3.0923e-06 0)
(1.31403e-06 -3.11123e-06 0)
(1.32418e-06 -3.12983e-06 0)
(1.33424e-06 -3.14812e-06 0)
(1.34422e-06 -3.16608e-06 0)
(1.35412e-06 -3.18372e-06 0)
(1.36395e-06 -3.20104e-06 0)
(1.37369e-06 -3.21803e-06 0)
(1.38336e-06 -3.23471e-06 0)
(1.39297e-06 -3.25109e-06 0)
(1.40251e-06 -3.26716e-06 0)
(1.412e-06 -3.28294e-06 0)
(1.42145e-06 -3.29845e-06 0)
(1.43087e-06 -3.31369e-06 0)
(1.44028e-06 -3.32869e-06 0)
(1.44967e-06 -3.34345e-06 0)
(1.45908e-06 -3.35799e-06 0)
(1.46849e-06 -3.3723e-06 0)
(1.47793e-06 -3.3864e-06 0)
(1.48738e-06 -3.40026e-06 0)
(1.49684e-06 -3.41386e-06 0)
(1.50628e-06 -3.42716e-06 0)
(1.5157e-06 -3.44013e-06 0)
(1.52504e-06 -3.45271e-06 0)
(1.53429e-06 -3.46485e-06 0)
(1.54341e-06 -3.47652e-06 0)
(1.5524e-06 -3.48769e-06 0)
(1.56127e-06 -3.49837e-06 0)
(1.57007e-06 -3.50863e-06 0)
(1.5789e-06 -3.51856e-06 0)
(1.5879e-06 -3.52831e-06 0)
(1.59726e-06 -3.53804e-06 0)
(1.6072e-06 -3.54793e-06 0)
(1.61793e-06 -3.55812e-06 0)
(1.62954e-06 -3.56862e-06 0)
(1.64194e-06 -3.57925e-06 0)
(1.65454e-06 -3.58947e-06 0)
(1.66624e-06 -3.59839e-06 0)
(1.67557e-06 -3.60502e-06 0)
(1.68157e-06 -3.60893e-06 0)
(1.68451e-06 -3.61061e-06 0)
(1.68562e-06 -3.6111e-06 0)
(1.68607e-06 -3.61116e-06 0)
(1.68643e-06 -3.61102e-06 0)
(1.68721e-06 -3.61e-06 0)
(1.69144e-06 -3.60617e-06 0)
(0.0958132 0.0013659 0)
(0.210645 0.00168596 0)
(0.311235 0.00204189 0)
(0.399044 0.00230149 0)
(0.476772 0.00252036 0)
(0.546445 0.00270976 0)
(0.60953 0.00287745 0)
(0.667109 0.00305928 0)
(0.720146 0.00320432 0)
(0.769135 0.00336468 0)
(0.814549 0.00353137 0)
(0.856802 0.00370413 0)
(0.896243 0.00388477 0)
(0.933168 0.00407528 0)
(0.967831 0.0042772 0)
(1.00045 0.00449164 0)
(1.03121 0.00471937 0)
(1.06027 0.00496093 0)
(1.08779 0.00521663 0)
(1.11388 0.00548652 0)
(1.13866 0.00577057 0)
(1.16221 0.00606859 0)
(1.18464 0.00638024 0)
(1.20601 0.0067051 0)
(1.22639 0.00704264 0)
(1.24585 0.00739225 0)
(1.26441 0.00775321 0)
(1.28214 0.00812472 0)
(1.29907 0.00850588 0)
(1.31522 0.00889564 0)
(1.33063 0.00929287 0)
(1.3453 0.00969625 0)
(1.35925 0.0101044 0)
(1.37249 0.0105156 0)
(1.38502 0.0109281 0)
(1.39684 0.0113399 0)
(1.40795 0.0117485 0)
(1.41834 0.0121515 0)
(1.42801 0.0125456 0)
(1.43695 0.0129275 0)
(1.44516 0.0132934 0)
(1.45265 0.0136391 0)
(1.45942 0.01396 0)
(1.46548 0.0142504 0)
(1.47087 0.0145017 0)
(1.47561 0.0147016 0)
(1.47975 0.0148349 0)
(1.48334 0.0148878 0)
(1.48644 0.0148541 0)
(1.48911 0.0147379 0)
(1.49142 0.0145536 0)
(1.49341 0.0143207 0)
(1.49514 0.0140589 0)
(1.49665 0.0137848 0)
(1.49797 0.0135107 0)
(1.49912 0.0132447 0)
(1.50014 0.0129919 0)
(1.50105 0.0127524 0)
(1.50187 0.0125258 0)
(1.50261 0.0123135 0)
(1.50326 0.012116 0)
(1.50385 0.0119336 0)
(1.50438 0.0117662 0)
(1.50484 0.0116138 0)
(1.50526 0.0114758 0)
(1.50562 0.0113521 0)
(1.50594 0.0112419 0)
(1.50621 0.0111449 0)
(1.50645 0.0110603 0)
(1.50665 0.0109874 0)
(1.50682 0.0109254 0)
(1.50696 0.0108733 0)
(1.50707 0.0108303 0)
(1.50717 0.0107951 0)
(1.50724 0.0107667 0)
(1.50729 0.0107439 0)
(1.50733 0.0107256 0)
(1.50735 0.0107107 0)
(1.50737 0.0106983 0)
(1.50737 0.0106874 0)
(1.50736 0.0106773 0)
(1.50735 0.0106674 0)
(1.50734 0.010657 0)
(1.50732 0.0106456 0)
(1.5073 0.0106329 0)
(1.50728 0.0106182 0)
(1.50725 0.0106013 0)
(1.50723 0.0105818 0)
(1.50722 0.0105587 0)
(1.5072 0.0105319 0)
(1.5072 0.0105038 0)
(1.5072 0.0104592 0)
(1.50723 0.010384 0)
(1.51293 0.00763954 0)
(1.5115 0.00904136 0)
(1.50934 0.00838672 0)
(1.50717 0.00816806 0)
(1.50497 0.00784193 0)
(1.50276 0.00805197 0)
(1.50041 0.00637961 0)
(1.49831 0.00943058 0)
(1.49581 0.00320138 0)
(1.49384 0.0119084 0)
(1.49104 -0.00206809 0)
(1.48926 -0.0341368 0)
(1.48717 -0.0397027 0)
(1.48481 -0.0395974 0)
(1.48265 -0.0396065 0)
(1.48053 -0.0396061 0)
(1.47848 -0.039606 0)
(1.4765 -0.0396054 0)
(1.47462 -0.0396043 0)
(1.47285 -0.0396027 0)
(1.47122 -0.0396005 0)
(1.46975 -0.0395978 0)
(1.46845 -0.0395944 0)
(1.46736 -0.0395904 0)
(1.4665 -0.0395857 0)
(1.46589 -0.0395804 0)
(1.46555 -0.0395749 0)
(1.46546 -0.0395692 0)
(1.46558 -0.0395606 0)
(1.46575 -0.0395511 0)
(1.46579 -0.0395454 0)
(1.46579 -0.0395444 0)
(1.46579 -0.0395443 0)
(1.46579 -0.0395443 0)
(1.46579 -0.0395443 0)
(1.46579 -0.0395443 0)
(1.46579 -0.0395443 0)
(1.46579 -0.0395443 0)
(1.46579 -0.0395443 0)
(1.46579 -0.0395443 0)
(1.46579 -0.0395443 0)
(1.46579 -0.0395443 0)
(1.46579 -0.0395443 0)
(1.46579 -0.0395443 0)
(1.46579 -0.0395443 0)
(1.46579 -0.0395443 0)
(1.46579 -0.0395443 0)
(1.46579 -0.0395443 0)
(1.46579 -0.0395443 0)
(1.46579 -0.0395443 0)
(1.46579 -0.0395443 0)
(1.46579 -0.0395443 0)
(1.46579 -0.0395443 0)
(1.46579 -0.0395443 0)
(1.46579 -0.0395443 0)
(1.46579 -0.0395443 0)
(1.46579 -0.0395443 0)
(1.46579 -0.0395443 0)
(1.46579 -0.0395443 0)
(1.46579 -0.0395443 0)
(1.46579 -0.0395443 0)
(1.46579 -0.0395443 0)
(1.46579 -0.0395443 0)
(1.46579 -0.0395443 0)
(1.46579 -0.0395443 0)
(1.46579 -0.0395443 0)
(1.46579 -0.0395443 0)
(1.46579 -0.0395443 0)
(1.46579 -0.0395443 0)
(1.46579 -0.0395443 0)
(1.46579 -0.0395443 0)
(1.46579 -0.0395443 0)
(1.46579 -0.0395443 0)
(1.46579 -0.0395443 0)
(1.46579 -0.0395443 0)
(1.46579 -0.0395443 0)
(1.46579 -0.0395443 0)
(1.46579 -0.0395443 0)
(1.46579 -0.0395443 0)
(1.46579 -0.0395443 0)
(1.46579 -0.0395443 0)
(1.46579 -0.0395443 0)
(1.46579 -0.0395443 0)
(1.46579 -0.0395443 0)
(1.46579 -0.0395443 0)
(1.46579 -0.0395443 0)
(1.46579 -0.0395443 0)
(1.46579 -0.0395443 0)
(1.46579 -0.0395443 0)
(1.46579 -0.0395443 0)
(1.46579 -0.0395443 0)
(1.46579 -0.0395443 0)
(1.46579 -0.0395443 0)
(1.46579 -0.0395443 0)
(1.46579 -0.0395443 0)
(1.46579 -0.0395443 0)
(1.46579 -0.0395443 0)
(1.46579 -0.0395443 0)
(1.46579 -0.0395443 0)
(1.46579 -0.0395443 0)
(1.46579 -0.0395443 0)
(1.46579 -0.0395443 0)
(1.46579 -0.0395443 0)
(1.46579 -0.0395443 0)
(1.46579 -0.0395443 0)
(1.46579 -0.0395443 0)
(1.46579 -0.0395443 0)
(1.46579 -0.0395443 0)
(1.46579 -0.0395443 0)
(1.46579 -0.0395443 0)
(1.46579 -0.0395443 0)
(1.46579 -0.0395443 0)
(1.46579 -0.0395443 0)
(1.46579 -0.0395443 0)
(1.46579 -0.0395443 0)
(1.46579 -0.0395443 0)
(1.46579 -0.0395443 0)
(1.46579 -0.0395443 0)
(1.46579 -0.0395443 0)
(1.46579 -0.0395441 0)
(1.46579 -0.0395357 0)
(1.46578 -0.0391909 0)
(1.46556 -0.0224885 0)
)
;

boundaryField
{
    inandouthalf11
    {
        type            cyclic;
    }
    inandouthalf12
    {
        type            cyclic;
    }
    inandouthalf21
    {
        type            cyclic;
    }
    inandouthalf22
    {
        type            cyclic;
    }
    inandouthalf31
    {
        type            cyclic;
    }
    inandouthalf32
    {
        type            cyclic;
    }
    inandouthalf41
    {
        type            cyclic;
    }
    inandouthalf42
    {
        type            cyclic;
    }
    top
    {
        type            symmetryPlane;
    }
    walls
    {
        type            fixedValue;
        value           uniform (0 0 0);
    }
    frontAndBackPlanes
    {
        type            empty;
    }
}


// ************************************************************************* //
