/*--------------------------------*- C++ -*----------------------------------*\
| =========                 |                                                 |
| \\      /  F ield         | OpenFOAM: The Open Source CFD Toolbox           |
|  \\    /   O peration     | Version:  2.4.x                                 |
|   \\  /    A nd           | Web:      www.OpenFOAM.org                      |
|    \\/     M anipulation  |                                                 |
\*---------------------------------------------------------------------------*/
FoamFile
{
    version     2.0;
    format      ascii;
    class       volVectorField;
    location    "8.9";
    object      Ub_0;
}
// * * * * * * * * * * * * * * * * * * * * * * * * * * * * * * * * * * * * * //

dimensions      [0 1 -1 0 0 0 0];

internalField   nonuniform List<vector> 
360
(
(6.97421e-05 1.63677e-08 0)
(6.93709e-05 5.82216e-08 0)
(6.9328e-05 1.07576e-07 0)
(6.939e-05 1.54487e-07 0)
(6.9426e-05 2.0179e-07 0)
(6.94457e-05 2.50921e-07 0)
(6.94676e-05 3.01382e-07 0)
(6.94926e-05 3.52675e-07 0)
(6.95182e-05 4.04717e-07 0)
(6.95443e-05 4.57586e-07 0)
(6.95708e-05 5.11353e-07 0)
(6.95975e-05 5.66027e-07 0)
(6.96246e-05 6.21588e-07 0)
(6.96522e-05 6.78e-07 0)
(6.96801e-05 7.35228e-07 0)
(6.97084e-05 7.93239e-07 0)
(6.97371e-05 8.51998e-07 0)
(6.97662e-05 9.11458e-07 0)
(6.97956e-05 9.71565e-07 0)
(6.98254e-05 1.03227e-06 0)
(6.98554e-05 1.09349e-06 0)
(6.98858e-05 1.15519e-06 0)
(6.99165e-05 1.21729e-06 0)
(6.99475e-05 1.27973e-06 0)
(6.99788e-05 1.34245e-06 0)
(7.00103e-05 1.40537e-06 0)
(7.00421e-05 1.46844e-06 0)
(7.00741e-05 1.53158e-06 0)
(7.01063e-05 1.59474e-06 0)
(7.01387e-05 1.65785e-06 0)
(7.01713e-05 1.72085e-06 0)
(7.02041e-05 1.78368e-06 0)
(7.02369e-05 1.84627e-06 0)
(7.02701e-05 1.90859e-06 0)
(7.03032e-05 1.97058e-06 0)
(7.03366e-05 2.03217e-06 0)
(7.037e-05 2.09334e-06 0)
(7.04036e-05 2.15404e-06 0)
(7.04374e-05 2.21424e-06 0)
(7.04709e-05 2.27388e-06 0)
(7.05049e-05 2.33297e-06 0)
(7.05389e-05 2.39146e-06 0)
(7.05728e-05 2.44933e-06 0)
(7.0607e-05 2.50657e-06 0)
(7.06412e-05 2.56316e-06 0)
(7.06755e-05 2.6191e-06 0)
(7.07099e-05 2.67438e-06 0)
(7.07442e-05 2.72898e-06 0)
(7.07788e-05 2.78291e-06 0)
(7.08136e-05 2.83618e-06 0)
(7.08482e-05 2.88879e-06 0)
(7.08832e-05 2.94075e-06 0)
(7.09181e-05 2.99206e-06 0)
(7.09533e-05 3.04273e-06 0)
(7.09885e-05 3.09277e-06 0)
(7.1024e-05 3.14221e-06 0)
(7.10594e-05 3.19104e-06 0)
(7.10953e-05 3.23928e-06 0)
(7.11311e-05 3.28695e-06 0)
(7.1167e-05 3.33402e-06 0)
(7.12035e-05 3.38056e-06 0)
(7.12398e-05 3.42654e-06 0)
(7.12766e-05 3.47201e-06 0)
(7.13134e-05 3.51697e-06 0)
(7.13506e-05 3.56143e-06 0)
(7.13879e-05 3.60539e-06 0)
(7.14256e-05 3.64887e-06 0)
(7.14635e-05 3.69187e-06 0)
(7.15017e-05 3.73439e-06 0)
(7.154e-05 3.77643e-06 0)
(7.15788e-05 3.81801e-06 0)
(7.1618e-05 3.85915e-06 0)
(7.16572e-05 3.89982e-06 0)
(7.1697e-05 3.94006e-06 0)
(7.1737e-05 3.97986e-06 0)
(7.17776e-05 4.01924e-06 0)
(7.18183e-05 4.05817e-06 0)
(7.18595e-05 4.09667e-06 0)
(7.1901e-05 4.13471e-06 0)
(7.19431e-05 4.17231e-06 0)
(7.19854e-05 4.20945e-06 0)
(7.20282e-05 4.24613e-06 0)
(7.20715e-05 4.28236e-06 0)
(7.21153e-05 4.31814e-06 0)
(7.21596e-05 4.35348e-06 0)
(7.22043e-05 4.38836e-06 0)
(7.22496e-05 4.42279e-06 0)
(7.22954e-05 4.45675e-06 0)
(7.23418e-05 4.49024e-06 0)
(7.23887e-05 4.52324e-06 0)
(7.24362e-05 4.55576e-06 0)
(7.24843e-05 4.58777e-06 0)
(7.25331e-05 4.61928e-06 0)
(7.25825e-05 4.65028e-06 0)
(7.26326e-05 4.68077e-06 0)
(7.26835e-05 4.71076e-06 0)
(7.27351e-05 4.74023e-06 0)
(7.27875e-05 4.76918e-06 0)
(7.28406e-05 4.7976e-06 0)
(7.28946e-05 4.82549e-06 0)
(7.29495e-05 4.85284e-06 0)
(7.30052e-05 4.87963e-06 0)
(7.3062e-05 4.90588e-06 0)
(7.31197e-05 4.93157e-06 0)
(7.31784e-05 4.95671e-06 0)
(7.32382e-05 4.98129e-06 0)
(7.32992e-05 5.00533e-06 0)
(7.33613e-05 5.02883e-06 0)
(7.34247e-05 5.05181e-06 0)
(7.34895e-05 5.07428e-06 0)
(7.35555e-05 5.09625e-06 0)
(7.36231e-05 5.11775e-06 0)
(7.36922e-05 5.13879e-06 0)
(7.37629e-05 5.1594e-06 0)
(7.38353e-05 5.17958e-06 0)
(7.39094e-05 5.19934e-06 0)
(7.39855e-05 5.21867e-06 0)
(7.40635e-05 5.23755e-06 0)
(7.41435e-05 5.25593e-06 0)
(7.42258e-05 5.27376e-06 0)
(7.43102e-05 5.29097e-06 0)
(7.4397e-05 5.30748e-06 0)
(7.44863e-05 5.32321e-06 0)
(7.45781e-05 5.3381e-06 0)
(7.46726e-05 5.35212e-06 0)
(7.47701e-05 5.36529e-06 0)
(7.48708e-05 5.37769e-06 0)
(7.49752e-05 5.38945e-06 0)
(7.50836e-05 5.40078e-06 0)
(7.51967e-05 5.41192e-06 0)
(7.53148e-05 5.42312e-06 0)
(7.54383e-05 5.43453e-06 0)
(7.5568e-05 5.44611e-06 0)
(7.57049e-05 5.45749e-06 0)
(7.58498e-05 5.46785e-06 0)
(7.60018e-05 5.47592e-06 0)
(7.61588e-05 5.48037e-06 0)
(7.63221e-05 5.4805e-06 0)
(7.64998e-05 5.47695e-06 0)
(7.67017e-05 5.38761e-06 0)
(7.69204e-05 7.01809e-06 0)
(7.71388e-05 -2.56856e-06 0)
(8.34022e-05 3.63167e-05 0)
(0.00216856 -0.000105744 0)
(0.10574 -0.000804824 0)
(0.220604 -0.000793606 0)
(0.319859 -0.000802439 0)
(0.406651 -0.000799498 0)
(0.48366 -0.000788187 0)
(0.552816 -0.000769807 0)
(0.615523 -0.000746068 0)
(0.67284 -0.000719539 0)
(0.725511 -0.000687684 0)
(0.774148 -0.000655503 0)
(0.819249 -0.000623453 0)
(0.861227 -0.000591847 0)
(0.900428 -0.000560984 0)
(0.937147 -0.00053106 0)
(0.971635 -0.000502171 0)
(1.00411 -0.000474344 0)
(1.03476 -0.000447564 0)
(1.06374 -0.000421795 0)
(1.0912 -0.00039699 0)
(1.11727 -0.000373096 0)
(1.14206 -0.000350066 0)
(1.16566 -0.000327857 0)
(1.18817 -0.000306431 0)
(1.20965 -0.000285757 0)
(1.23018 -0.000265814 0)
(1.24981 -0.000246585 0)
(1.26861 -0.000228063 0)
(1.28662 -0.000210245 0)
(1.30388 -0.000193135 0)
(1.32043 -0.000176738 0)
(1.3363 -0.000161067 0)
(1.35151 -0.000146134 0)
(1.3661 -0.000131955 0)
(1.38009 -0.000118545 0)
(1.39349 -0.000105919 0)
(1.40631 -9.40908e-05 0)
(1.41856 -8.30698e-05 0)
(1.43026 -7.28625e-05 0)
(1.44141 -6.34701e-05 0)
(1.452 -5.48883e-05 0)
(1.46204 -4.71066e-05 0)
(1.47153 -4.01078e-05 0)
(1.48044 -3.38658e-05 0)
(1.48879 -2.8342e-05 0)
(1.49656 -2.3485e-05 0)
(1.50373 -1.92381e-05 0)
(1.5103 -1.55534e-05 0)
(1.51627 -1.24023e-05 0)
(1.52164 -9.7699e-06 0)
(1.52642 -7.63727e-06 0)
(1.53061 -5.96385e-06 0)
(1.53426 -4.68487e-06 0)
(1.53738 -3.72255e-06 0)
(1.54003 -3.00112e-06 0)
(1.54225 -2.45678e-06 0)
(1.54409 -2.04079e-06 0)
(1.54559 -1.71789e-06 0)
(1.54681 -1.46066e-06 0)
(1.54779 -1.25143e-06 0)
(1.54855 -1.07938e-06 0)
(1.54912 -9.36445e-07 0)
(1.54952 -8.16573e-07 0)
(1.54977 -7.15152e-07 0)
(1.54987 -6.28633e-07 0)
(1.54985 -5.54251e-07 0)
(1.54972 -4.89835e-07 0)
(1.54947 -4.33662e-07 0)
(1.54914 -3.84352e-07 0)
(1.5487 -3.40785e-07 0)
(1.54818 -3.02059e-07 0)
(1.54758 -2.67455e-07 0)
(1.5469 -2.36389e-07 0)
(1.54614 -2.08391e-07 0)
(1.54531 -1.83094e-07 0)
(1.54441 -1.60224e-07 0)
(1.54344 -1.39564e-07 0)
(1.54239 -1.20942e-07 0)
(1.54128 -1.0423e-07 0)
(1.54011 -8.93204e-08 0)
(1.53886 -7.61026e-08 0)
(1.53756 -6.44623e-08 0)
(1.53619 -5.42852e-08 0)
(1.53476 -4.54512e-08 0)
(1.53326 -3.78363e-08 0)
(1.53171 -3.13152e-08 0)
(1.5301 -2.57695e-08 0)
(1.52843 -2.10861e-08 0)
(1.52671 -1.71427e-08 0)
(1.52493 -1.3856e-08 0)
(1.5231 -1.11521e-08 0)
(1.52121 -8.86493e-09 0)
(1.51928 -7.0373e-09 0)
(1.5173 -5.45058e-09 0)
(1.51528 -3.96122e-09 0)
(1.51322 -2.8278e-09 0)
(1.51111 -1.99414e-09 0)
(1.50897 -1.38439e-09 0)
(1.5068 -9.43388e-10 0)
(1.5046 -6.27777e-10 0)
(1.50238 -4.04447e-10 0)
(1.50014 -2.50419e-10 0)
(1.49788 -1.3966e-10 0)
(1.49562 -6.50364e-11 0)
(1.49335 -5.56023e-12 0)
(1.49109 1.54254e-11 0)
(1.48885 -1.55009e-12 0)
(1.48663 -2.15172e-12 0)
(1.48445 -1.1341e-12 0)
(1.48231 -8.68195e-13 0)
(1.48024 -8.95839e-13 0)
(1.47824 -9.10188e-13 0)
(1.47633 -8.96786e-13 0)
(1.47453 -8.24478e-13 0)
(1.47286 -6.1233e-13 0)
(1.47135 -7.38096e-13 0)
(1.47001 -6.63459e-12 0)
(1.46888 2.11126e-11 0)
(1.46797 -5.20286e-11 0)
(1.46731 9.54343e-11 0)
(1.4669 -1.57494e-10 0)
(1.46676 2.31921e-10 0)
(1.46685 -3.21587e-10 0)
(1.46704 4.17939e-10 0)
(1.4671 -5.22302e-10 0)
(1.4671 6.27457e-10 0)
(1.4671 -7.37354e-10 0)
(1.4671 8.47258e-10 0)
(1.4671 -9.6191e-10 0)
(1.4671 1.07685e-09 0)
(1.4671 -1.1967e-09 0)
(1.4671 1.31709e-09 0)
(1.4671 -1.44252e-09 0)
(1.4671 1.56873e-09 0)
(1.4671 -1.70007e-09 0)
(1.4671 1.83244e-09 0)
(1.4671 -1.96998e-09 0)
(1.4671 2.10879e-09 0)
(1.4671 -2.2528e-09 0)
(1.4671 2.39829e-09 0)
(1.4671 -2.549e-09 0)
(1.4671 2.7014e-09 0)
(1.4671 -2.85897e-09 0)
(1.4671 3.01848e-09 0)
(1.4671 -3.18309e-09 0)
(1.4671 3.34986e-09 0)
(1.4671 -3.52161e-09 0)
(1.4671 3.69578e-09 0)
(1.4671 -3.87477e-09 0)
(1.4671 4.05647e-09 0)
(1.4671 -4.24275e-09 0)
(1.4671 4.43206e-09 0)
(1.4671 -4.6257e-09 0)
(1.4671 4.82265e-09 0)
(1.4671 -5.02365e-09 0)
(1.4671 5.22825e-09 0)
(1.4671 -5.43675e-09 0)
(1.4671 5.64899e-09 0)
(1.4671 -5.86487e-09 0)
(1.4671 6.0846e-09 0)
(1.4671 -6.30789e-09 0)
(1.4671 6.53501e-09 0)
(1.4671 -6.76559e-09 0)
(1.4671 6.99995e-09 0)
(1.4671 -7.23765e-09 0)
(1.4671 7.47905e-09 0)
(1.4671 -7.72362e-09 0)
(1.4671 6.9993e-09 0)
(1.4671 -7.08854e-09 0)
(1.4671 7.17712e-09 0)
(1.4671 -7.26439e-09 0)
(1.4671 7.35103e-09 0)
(1.4671 -7.4363e-09 0)
(1.4671 7.52096e-09 0)
(1.4671 -7.60419e-09 0)
(1.4671 7.68684e-09 0)
(1.4671 -7.76798e-09 0)
(1.4671 7.84859e-09 0)
(1.4671 -7.9276e-09 0)
(1.4671 8.00613e-09 0)
(1.4671 -8.08296e-09 0)
(1.4671 8.15935e-09 0)
(1.4671 -8.23394e-09 0)
(1.4671 8.30816e-09 0)
(1.4671 -8.3804e-09 0)
(1.4671 8.45252e-09 0)
(1.4671 -8.52217e-09 0)
(1.4671 8.59234e-09 0)
(1.4671 -8.65918e-09 0)
(1.4671 8.72741e-09 0)
(1.4671 -8.79134e-09 0)
(1.4671 8.85752e-09 0)
(1.4671 -8.9185e-09 0)
(1.4671 8.98246e-09 0)
(1.4671 -9.04039e-09 0)
(1.4671 9.10207e-09 0)
(1.4671 -9.15689e-09 0)
(1.4671 9.21598e-09 0)
(1.4671 -9.26768e-09 0)
(1.4671 9.32392e-09 0)
(1.4671 -9.37252e-09 0)
(1.4671 9.42556e-09 0)
(1.4671 -9.47079e-09 0)
(1.4671 9.52068e-09 0)
(1.4671 -9.56232e-09 0)
(1.4671 9.60845e-09 0)
(1.4671 -9.64652e-09 0)
(1.4671 9.6883e-09 0)
(1.4671 -9.72277e-09 0)
(1.4671 9.75932e-09 0)
(1.4671 -9.78995e-09 0)
(1.4671 9.82041e-09 0)
(1.4671 -9.84656e-09 0)
(1.4671 9.86967e-09 0)
(1.4671 -9.89012e-09 0)
(1.4671 9.90364e-09 0)
(1.4671 -9.91359e-09 0)
)
;

boundaryField
{
    inandouthalf11
    {
        type            cyclic;
    }
    inandouthalf12
    {
        type            cyclic;
    }
    inandouthalf21
    {
        type            cyclic;
    }
    inandouthalf22
    {
        type            cyclic;
    }
    inandouthalf31
    {
        type            cyclic;
    }
    inandouthalf32
    {
        type            cyclic;
    }
    inandouthalf41
    {
        type            cyclic;
    }
    inandouthalf42
    {
        type            cyclic;
    }
    top
    {
        type            symmetryPlane;
    }
    walls
    {
        type            fixedValue;
        value           uniform (0 0 0);
    }
    frontAndBackPlanes
    {
        type            empty;
    }
}


// ************************************************************************* //
