/*--------------------------------*- C++ -*----------------------------------*\
| =========                 |                                                 |
| \\      /  F ield         | OpenFOAM: The Open Source CFD Toolbox           |
|  \\    /   O peration     | Version:  2.4.x                                 |
|   \\  /    A nd           | Web:      www.OpenFOAM.org                      |
|    \\/     M anipulation  |                                                 |
\*---------------------------------------------------------------------------*/
FoamFile
{
    version     2.0;
    format      ascii;
    class       volScalarField;
    location    "4.35";
    object      alpha;
}
// * * * * * * * * * * * * * * * * * * * * * * * * * * * * * * * * * * * * * //

dimensions      [0 0 0 0 0 0 0];

internalField   nonuniform List<scalar> 
360
(
0.61042
0.610989
0.611139
0.611095
0.611044
0.611014
0.610987
0.610961
0.610936
0.610909
0.610882
0.610854
0.610825
0.610797
0.610768
0.610739
0.61071
0.61068
0.61065
0.610619
0.610589
0.610558
0.610527
0.610497
0.610467
0.610438
0.610409
0.610378
0.610347
0.610313
0.610275
0.610231
0.610181
0.610125
0.61007
0.610026
0.609996
0.609979
0.609968
0.609962
0.609954
0.609947
0.60994
0.609931
0.609922
0.609912
0.609902
0.609891
0.609879
0.609866
0.609852
0.609837
0.609822
0.609804
0.609787
0.609767
0.609747
0.609725
0.609702
0.609679
0.609653
0.609627
0.6096
0.609573
0.609544
0.609515
0.609485
0.609454
0.609422
0.609389
0.609355
0.609318
0.609282
0.609244
0.609205
0.609164
0.609124
0.609082
0.609039
0.608996
0.608951
0.608905
0.608858
0.608809
0.60876
0.608709
0.608657
0.608604
0.60855
0.608495
0.608438
0.608381
0.608322
0.608261
0.608199
0.608136
0.608071
0.608005
0.607937
0.607868
0.607797
0.607724
0.60765
0.607573
0.607495
0.607415
0.607333
0.607248
0.607162
0.607073
0.606982
0.606888
0.606792
0.606693
0.606591
0.606486
0.606378
0.606267
0.606152
0.606034
0.605912
0.605787
0.605657
0.605523
0.605384
0.60524
0.605092
0.604938
0.604778
0.604612
0.604439
0.604258
0.60407
0.603872
0.603662
0.603439
0.603206
0.602958
0.602684
0.60237
0.602029
0.601705
0.60132
0.60082
0.600207
0.59917
0.595657
0.49822
0.30686
0.23359
0.193739
0.162257
0.135446
0.112116
0.0918973
0.0746168
0.0600919
0.0480749
0.0382642
0.030337
0.0239804
0.0189101
0.0148809
0.0116871
0.0091603
0.00716437
0.0055901
0.00435031
0.00337504
0.00260743
0.0020014
0.001522
0.00114607
0.000858684
0.000646523
0.000494257
0.000386088
0.000308605
0.000251963
0.000209484
0.000176767
0.000150902
0.000129932
0.000112505
9.76614e-05
8.46968e-05
7.30856e-05
6.24606e-05
5.26744e-05
4.38869e-05
3.64651e-05
3.06004e-05
2.6036e-05
2.22886e-05
1.90733e-05
1.6361e-05
1.41196e-05
1.22287e-05
1.05978e-05
9.19968e-06
8.03047e-06
7.04316e-06
6.14742e-06
5.32033e-06
4.63237e-06
4.08126e-06
3.55483e-06
3.03964e-06
2.6434e-06
2.32238e-06
1.9892e-06
1.70369e-06
1.48428e-06
1.26966e-06
1.08053e-06
9.3933e-07
7.99341e-07
6.64771e-07
5.7317e-07
4.91824e-07
4.02279e-07
3.38777e-07
2.84965e-07
2.3282e-07
1.95371e-07
1.58547e-07
1.26926e-07
1.06542e-07
8.31421e-08
6.4576e-08
5.15596e-08
3.9995e-08
3.44699e-08
3.1243e-08
2.69336e-08
1.93907e-08
7.63345e-09
2.41979e-16
5.72735e-17
4.15123e-17
3.38563e-17
3.10189e-17
2.94497e-17
2.78866e-17
2.52822e-17
2.09761e-17
1.49574e-17
8.08576e-18
4.25683e-18
2.86795e-18
2.24e-18
1.90481e-18
1.595e-18
1.1225e-18
4.79424e-19
1.64086e-19
6.79208e-20
3.32699e-20
1.85268e-20
1.14293e-20
7.79663e-21
5.67645e-21
4.03328e-21
2.47822e-21
1.14695e-21
5.56451e-22
3.04445e-22
1.80599e-22
1.14014e-22
6.7585e-23
3.13279e-23
1.50989e-23
7.71587e-24
3.98425e-24
2.00574e-24
9.84098e-25
4.76263e-25
2.25423e-25
1.04251e-25
4.70601e-26
2.0714e-26
8.88032e-27
3.70366e-27
1.50079e-27
5.90068e-28
2.24774e-28
8.28255e-29
2.94722e-29
1.01084e-29
3.33495e-30
1.056e-30
3.20133e-31
9.26628e-32
2.55306e-32
6.67277e-33
1.64799e-33
3.82895e-34
8.32644e-35
1.68463e-35
3.14885e-36
5.39172e-37
8.37018e-38
1.1629e-38
1.42198e-39
1.49645e-40
1.31316e-41
9.15777e-43
4.67469e-44
1.46627e-45
1.41996e-47
1.85071e-50
2.80657e-52
2.11204e-54
3.55713e-65
3.03064e-76
1.94343e-87
9.16725e-99
3.78357e-110
1.2927e-121
4.79529e-133
2.36125e-141
6.16797e-152
8.13603e-160
1.99073e-170
2.79893e-178
8.50275e-189
9.62692e-197
3.81608e-207
3.31392e-215
2.58002e-225
1.15186e-233
1.71677e-243
4.06468e-252
8.64324e-262
1.45551e-270
4.09291e-280
5.28617e-289
1.80418e-298
1.95021e-307
7.49017e-317
4.98512e-321
7.09478e-321
6.08689e-321
8.5424e-321
0
0
0
0
0
0
0
0
0
0
0
0
0
0
0
0
)
;

boundaryField
{
    inandouthalf11
    {
        type            cyclic;
    }
    inandouthalf12
    {
        type            cyclic;
    }
    inandouthalf21
    {
        type            cyclic;
    }
    inandouthalf22
    {
        type            cyclic;
    }
    inandouthalf31
    {
        type            cyclic;
    }
    inandouthalf32
    {
        type            cyclic;
    }
    inandouthalf41
    {
        type            cyclic;
    }
    inandouthalf42
    {
        type            cyclic;
    }
    top
    {
        type            symmetryPlane;
    }
    walls
    {
        type            zeroGradient;
    }
    frontAndBackPlanes
    {
        type            empty;
    }
}


// ************************************************************************* //
