/*--------------------------------*- C++ -*----------------------------------*\
| =========                 |                                                 |
| \\      /  F ield         | OpenFOAM: The Open Source CFD Toolbox           |
|  \\    /   O peration     | Version:  2.4.x                                 |
|   \\  /    A nd           | Web:      www.OpenFOAM.org                      |
|    \\/     M anipulation  |                                                 |
\*---------------------------------------------------------------------------*/
FoamFile
{
    version     2.0;
    format      ascii;
    class       volScalarField;
    location    "4.35";
    object      alpha_0;
}
// * * * * * * * * * * * * * * * * * * * * * * * * * * * * * * * * * * * * * //

dimensions      [0 0 0 0 0 0 0];

internalField   nonuniform List<scalar> 
360
(
0.61042
0.610989
0.611139
0.611095
0.611044
0.611014
0.610987
0.610961
0.610936
0.610909
0.610882
0.610854
0.610825
0.610797
0.610768
0.610739
0.61071
0.61068
0.61065
0.610619
0.610589
0.610558
0.610527
0.610497
0.610467
0.610438
0.610408
0.610378
0.610347
0.610313
0.610275
0.610231
0.610181
0.610124
0.61007
0.610026
0.609996
0.609979
0.609968
0.609962
0.609954
0.609947
0.60994
0.609931
0.609922
0.609912
0.609902
0.609891
0.609879
0.609866
0.609852
0.609837
0.609822
0.609804
0.609787
0.609767
0.609747
0.609725
0.609702
0.609679
0.609653
0.609627
0.6096
0.609573
0.609544
0.609515
0.609485
0.609454
0.609422
0.609389
0.609355
0.609318
0.609282
0.609244
0.609205
0.609164
0.609124
0.609082
0.609039
0.608996
0.608951
0.608905
0.608858
0.608809
0.60876
0.608709
0.608657
0.608604
0.60855
0.608495
0.608438
0.608381
0.608322
0.608261
0.608199
0.608136
0.608071
0.608005
0.607937
0.607868
0.607797
0.607724
0.60765
0.607573
0.607495
0.607415
0.607333
0.607248
0.607162
0.607073
0.606982
0.606888
0.606792
0.606693
0.606591
0.606486
0.606378
0.606267
0.606152
0.606034
0.605912
0.605787
0.605657
0.605523
0.605384
0.60524
0.605092
0.604938
0.604778
0.604612
0.604439
0.604258
0.60407
0.603872
0.603662
0.603439
0.603206
0.602958
0.602684
0.60237
0.602029
0.601705
0.60132
0.60082
0.600207
0.59917
0.595658
0.498271
0.306875
0.23359
0.193736
0.162253
0.135443
0.112113
0.0918937
0.0746132
0.0600883
0.0480713
0.0382606
0.0303334
0.023977
0.0189069
0.0148778
0.0116843
0.00915773
0.00716205
0.00558805
0.0043485
0.00337346
0.00260607
0.00200022
0.00152098
0.00114522
0.000858017
0.000646028
0.000493904
0.000385841
0.000308432
0.00025184
0.000209395
0.000176701
0.000150852
0.000129893
0.000112474
9.76353e-05
8.46745e-05
7.30657e-05
6.24424e-05
5.26576e-05
4.38721e-05
3.64529e-05
3.05907e-05
2.60282e-05
2.22821e-05
1.90677e-05
1.63564e-05
1.41157e-05
1.22254e-05
1.05949e-05
9.19728e-06
8.02846e-06
7.04144e-06
6.14589e-06
5.319e-06
4.63131e-06
4.08037e-06
3.55398e-06
3.03892e-06
2.64284e-06
2.32189e-06
1.98875e-06
1.70333e-06
1.48398e-06
1.26939e-06
1.08031e-06
9.39151e-07
7.99173e-07
6.64635e-07
5.73069e-07
4.91729e-07
4.02197e-07
3.38716e-07
2.84913e-07
2.32777e-07
1.95337e-07
1.58517e-07
1.26904e-07
1.06524e-07
8.31264e-08
6.45646e-08
5.15511e-08
3.99893e-08
3.44668e-08
3.12406e-08
2.69308e-08
1.93868e-08
7.62855e-09
2.42663e-16
5.7423e-17
4.1603e-17
3.38863e-17
3.10344e-17
2.94603e-17
2.79004e-17
2.53047e-17
2.1009e-17
1.49977e-17
8.12211e-18
4.26972e-18
2.87344e-18
2.24279e-18
1.90664e-18
1.59716e-18
1.12558e-18
4.82275e-19
1.64907e-19
6.81991e-20
3.33818e-20
1.85786e-20
1.14553e-20
7.81025e-21
5.68517e-21
4.04054e-21
2.48503e-21
1.151e-21
5.58069e-22
3.05215e-22
1.80991e-22
1.14241e-22
6.77568e-23
3.14246e-23
1.51405e-23
7.73644e-24
3.99467e-24
2.01115e-24
9.86761e-25
4.77561e-25
2.26043e-25
1.04539e-25
4.71913e-26
2.07722e-26
8.90548e-27
3.71423e-27
1.5051e-27
5.91778e-28
2.2543e-28
8.30692e-29
2.95596e-29
1.01386e-29
3.34499e-30
1.0592e-30
3.21112e-31
9.29482e-32
2.56098e-32
6.69363e-33
1.65318e-33
3.8411e-34
8.35308e-35
1.69006e-35
3.15908e-36
5.40938e-37
8.39781e-38
1.16677e-38
1.42675e-39
1.50151e-40
1.31765e-41
9.18935e-43
4.69098e-44
1.47145e-45
1.4251e-47
1.85785e-50
2.81752e-52
2.12037e-54
3.57092e-65
3.04217e-76
1.95072e-87
9.20097e-99
3.79729e-110
1.29732e-121
4.81259e-133
2.37057e-141
6.19197e-152
8.16812e-160
1.99849e-170
2.80996e-178
8.53593e-189
9.66489e-197
3.83099e-207
3.32699e-215
2.59013e-225
1.1564e-233
1.7235e-243
4.08071e-252
8.67715e-262
1.46125e-270
4.10896e-280
5.30699e-289
1.81125e-298
1.95789e-307
7.51402e-317
4.98512e-321
7.09478e-321
6.08689e-321
8.5424e-321
0
0
0
0
0
0
0
0
0
0
0
0
0
0
0
0
)
;

boundaryField
{
    inandouthalf11
    {
        type            cyclic;
    }
    inandouthalf12
    {
        type            cyclic;
    }
    inandouthalf21
    {
        type            cyclic;
    }
    inandouthalf22
    {
        type            cyclic;
    }
    inandouthalf31
    {
        type            cyclic;
    }
    inandouthalf32
    {
        type            cyclic;
    }
    inandouthalf41
    {
        type            cyclic;
    }
    inandouthalf42
    {
        type            cyclic;
    }
    top
    {
        type            symmetryPlane;
    }
    walls
    {
        type            zeroGradient;
    }
    frontAndBackPlanes
    {
        type            empty;
    }
}


// ************************************************************************* //
