/*--------------------------------*- C++ -*----------------------------------*\
| =========                 |                                                 |
| \\      /  F ield         | OpenFOAM: The Open Source CFD Toolbox           |
|  \\    /   O peration     | Version:  2.4.x                                 |
|   \\  /    A nd           | Web:      www.OpenFOAM.org                      |
|    \\/     M anipulation  |                                                 |
\*---------------------------------------------------------------------------*/
FoamFile
{
    version     2.0;
    format      ascii;
    class       volVectorField;
    location    "4.35";
    object      ddt0(Ub);
}
// * * * * * * * * * * * * * * * * * * * * * * * * * * * * * * * * * * * * * //

dimensions      [0 1 -2 0 0 0 0];

internalField   nonuniform List<vector> 
360
(
(0.000137284 -4.42534e-08 0)
(0.000136954 -2.07814e-07 0)
(0.000136823 -4.43254e-07 0)
(0.000136908 -6.62586e-07 0)
(0.000137006 -8.61613e-07 0)
(0.000137084 -1.05403e-06 0)
(0.000137158 -1.25015e-06 0)
(0.000137232 -1.45228e-06 0)
(0.000137303 -1.65778e-06 0)
(0.000137376 -1.86392e-06 0)
(0.000137451 -2.07043e-06 0)
(0.000137526 -2.27906e-06 0)
(0.000137603 -2.49227e-06 0)
(0.000137681 -2.71191e-06 0)
(0.000137759 -2.93857e-06 0)
(0.00013784 -3.17134e-06 0)
(0.000137921 -3.4074e-06 0)
(0.000138002 -3.64149e-06 0)
(0.000138082 -3.86555e-06 0)
(0.000138158 -4.06943e-06 0)
(0.000138227 -4.24239e-06 0)
(0.000138289 -4.37663e-06 0)
(0.000138343 -4.47147e-06 0)
(0.00013839 -4.5374e-06 0)
(0.000138435 -4.59894e-06 0)
(0.000138486 -4.69546e-06 0)
(0.000138553 -4.88069e-06 0)
(0.000138651 -5.2226e-06 0)
(0.000138796 -5.80295e-06 0)
(0.000139006 -6.7106e-06 0)
(0.000139299 -8.00615e-06 0)
(0.000139668 -9.61473e-06 0)
(0.000140036 -1.11223e-05 0)
(0.000140221 -1.16702e-05 0)
(0.000139997 -1.03932e-05 0)
(0.000139369 -7.39823e-06 0)
(0.00013867 -4.02685e-06 0)
(0.000138219 -1.63078e-06 0)
(0.000138033 -4.74362e-07 0)
(0.000137981 -7.32399e-08 0)
(0.000137975 3.56892e-08 0)
(0.000137979 6.20335e-08 0)
(0.000137987 6.83794e-08 0)
(0.000137997 6.98297e-08 0)
(0.000138007 6.98449e-08 0)
(0.000138018 6.9252e-08 0)
(0.000138031 6.82581e-08 0)
(0.000138043 6.69377e-08 0)
(0.000138058 6.53684e-08 0)
(0.000138074 6.36591e-08 0)
(0.00013809 6.19313e-08 0)
(0.000138108 6.02718e-08 0)
(0.000138126 5.87342e-08 0)
(0.000138147 5.73207e-08 0)
(0.000138168 5.59973e-08 0)
(0.000138191 5.47225e-08 0)
(0.000138215 5.34531e-08 0)
(0.000138241 5.21606e-08 0)
(0.000138268 5.08156e-08 0)
(0.000138295 4.9407e-08 0)
(0.000138326 4.792e-08 0)
(0.000138356 4.63559e-08 0)
(0.000138388 4.47283e-08 0)
(0.000138421 4.30393e-08 0)
(0.000138455 4.13056e-08 0)
(0.000138489 3.95388e-08 0)
(0.000138524 3.77412e-08 0)
(0.000138561 3.59187e-08 0)
(0.000138599 3.40698e-08 0)
(0.000138638 3.21902e-08 0)
(0.000138679 3.02696e-08 0)
(0.000138722 2.8289e-08 0)
(0.000138766 2.62462e-08 0)
(0.000138811 2.41361e-08 0)
(0.000138858 2.1948e-08 0)
(0.000138906 1.9684e-08 0)
(0.000138954 1.73457e-08 0)
(0.000139004 1.49423e-08 0)
(0.000139054 1.24809e-08 0)
(0.000139106 9.96768e-09 0)
(0.00013916 7.39955e-09 0)
(0.000139214 4.77338e-09 0)
(0.000139271 2.09501e-09 0)
(0.000139329 -6.44708e-10 0)
(0.000139388 -3.45026e-09 0)
(0.000139449 -6.32377e-09 0)
(0.000139511 -9.26619e-09 0)
(0.000139574 -1.22777e-08 0)
(0.000139639 -1.5351e-08 0)
(0.000139705 -1.84814e-08 0)
(0.000139773 -2.16679e-08 0)
(0.000139842 -2.48993e-08 0)
(0.000139913 -2.81765e-08 0)
(0.000139985 -3.14935e-08 0)
(0.000140059 -3.4852e-08 0)
(0.000140135 -3.82482e-08 0)
(0.000140213 -4.16763e-08 0)
(0.000140293 -4.5137e-08 0)
(0.000140374 -4.86264e-08 0)
(0.000140458 -5.21465e-08 0)
(0.000140543 -5.56935e-08 0)
(0.000140631 -5.926e-08 0)
(0.00014072 -6.28417e-08 0)
(0.000140812 -6.64363e-08 0)
(0.000140907 -7.00396e-08 0)
(0.000141003 -7.36521e-08 0)
(0.000141102 -7.72698e-08 0)
(0.000141204 -8.08878e-08 0)
(0.000141308 -8.44941e-08 0)
(0.000141415 -8.80885e-08 0)
(0.000141525 -9.1674e-08 0)
(0.000141638 -9.52422e-08 0)
(0.000141755 -9.87913e-08 0)
(0.000141874 -1.02319e-07 0)
(0.000141998 -1.05825e-07 0)
(0.000142124 -1.09307e-07 0)
(0.000142255 -1.12772e-07 0)
(0.000142389 -1.16219e-07 0)
(0.000142528 -1.19651e-07 0)
(0.000142671 -1.2307e-07 0)
(0.000142819 -1.26475e-07 0)
(0.000142972 -1.29869e-07 0)
(0.000143129 -1.33253e-07 0)
(0.000143293 -1.36627e-07 0)
(0.000143461 -1.39978e-07 0)
(0.000143636 -1.43295e-07 0)
(0.000143817 -1.4656e-07 0)
(0.000144004 -1.49756e-07 0)
(0.000144199 -1.52851e-07 0)
(0.000144402 -1.55814e-07 0)
(0.000144614 -1.58618e-07 0)
(0.000144834 -1.61222e-07 0)
(0.000145064 -1.63606e-07 0)
(0.000145306 -1.6576e-07 0)
(0.000145564 -1.67688e-07 0)
(0.000145836 -1.69396e-07 0)
(0.000146123 -1.70894e-07 0)
(0.000146427 -1.72183e-07 0)
(0.000146763 -1.73258e-07 0)
(0.00014715 -1.74104e-07 0)
(0.000147571 -1.74763e-07 0)
(0.000147971 -1.75115e-07 0)
(0.000148447 -1.75318e-07 0)
(0.000149065 -1.75788e-07 0)
(0.000149827 -3.59349e-07 0)
(0.00015096 9.26315e-06 0)
(1.09141e-05 -6.20858e-05 0)
(-0.056127 0.00015598 0)
(-0.100126 0.00159496 0)
(-0.060588 0.00117658 0)
(-0.0325477 0.00103602 0)
(-0.00968559 0.000865568 0)
(0.00994617 0.000752797 0)
(0.0269871 0.000667954 0)
(0.0416719 0.000597202 0)
(0.054133 0.000532303 0)
(0.0645032 0.000469157 0)
(0.0729333 0.000406704 0)
(0.0795921 0.000345533 0)
(0.0846551 0.000286764 0)
(0.0882912 0.000231477 0)
(0.0906511 0.000180599 0)
(0.0918586 0.000134988 0)
(0.0920046 9.54012e-05 0)
(0.0911438 6.23434e-05 0)
(0.089293 3.59106e-05 0)
(0.0864316 1.57474e-05 0)
(0.082504 1.08378e-06 0)
(0.0774242 -9.19288e-06 0)
(0.0710831 -1.63221e-05 0)
(0.0633594 -2.11771e-05 0)
(0.0541394 -2.381e-05 0)
(0.0433474 -2.37592e-05 0)
(0.0309856 -2.10684e-05 0)
(0.0171711 -1.68027e-05 0)
(0.00215361 -1.24053e-05 0)
(-0.0136901 -8.80192e-06 0)
(-0.0298882 -6.20166e-06 0)
(-0.0459297 -4.42239e-06 0)
(-0.0613346 -3.21245e-06 0)
(-0.0757187 -2.37939e-06 0)
(-0.0888334 -1.79729e-06 0)
(-0.100571 -1.38575e-06 0)
(-0.110944 -1.0929e-06 0)
(-0.120046 -8.84912e-07 0)
(-0.128017 -7.39219e-07 0)
(-0.135015 -6.38947e-07 0)
(-0.141191 -5.67888e-07 0)
(-0.146684 -5.08244e-07 0)
(-0.151614 -4.44889e-07 0)
(-0.156081 -3.73981e-07 0)
(-0.160166 -3.04874e-07 0)
(-0.163935 -2.49363e-07 0)
(-0.167442 -2.09694e-07 0)
(-0.170728 -1.79459e-07 0)
(-0.173828 -1.53202e-07 0)
(-0.176769 -1.30498e-07 0)
(-0.179572 -1.12071e-07 0)
(-0.182254 -9.68541e-08 0)
(-0.18483 -8.33924e-08 0)
(-0.187311 -7.17111e-08 0)
(-0.18973 -6.24456e-08 0)
(-0.192117 -5.50068e-08 0)
(-0.194474 -4.78088e-08 0)
(-0.196804 -4.07939e-08 0)
(-0.19911 -3.54281e-08 0)
(-0.201394 -3.15785e-08 0)
(-0.203656 -2.75952e-08 0)
(-0.2059 -2.35036e-08 0)
(-0.208124 -2.04633e-08 0)
(-0.210331 -1.81227e-08 0)
(-0.212521 -1.57246e-08 0)
(-0.214694 -1.35921e-08 0)
(-0.216851 -1.18806e-08 0)
(-0.218991 -1.03121e-08 0)
(-0.221114 -8.99822e-09 0)
(-0.22322 -7.95593e-09 0)
(-0.225307 -6.91156e-09 0)
(-0.227375 -5.96352e-09 0)
(-0.229421 -5.28347e-09 0)
(-0.231443 -4.68372e-09 0)
(-0.233439 -4.08361e-09 0)
(-0.235404 -3.58581e-09 0)
(-0.237335 -3.17988e-09 0)
(-0.239226 -2.83854e-09 0)
(-0.241071 -2.5547e-09 0)
(-0.242862 -2.30872e-09 0)
(-0.244587 -2.11421e-09 0)
(-0.246237 -1.96211e-09 0)
(-0.247794 -1.82452e-09 0)
(-0.249241 -1.70482e-09 0)
(-0.250553 -1.61062e-09 0)
(-0.251698 -1.52749e-09 0)
(-0.252637 -1.37239e-09 0)
(-0.253314 -1.83507e-09 0)
(-0.253652 -8.01069e-10 0)
(-0.253536 -2.3255e-09 0)
(-0.252799 2.9762e-10 0)
(-0.251178 -3.23214e-09 0)
(-0.248074 1.06529e-09 0)
(-0.240085 -3.8531e-09 0)
(-0.225398 1.55607e-09 0)
(-0.222457 -4.12662e-09 0)
(-0.222381 1.79771e-09 0)
(-0.22238 -4.27753e-09 0)
(-0.22238 2.01972e-09 0)
(-0.22238 -4.43566e-09 0)
(-0.22238 2.26382e-09 0)
(-0.22238 -4.60664e-09 0)
(-0.22238 2.53154e-09 0)
(-0.22238 -4.7924e-09 0)
(-0.22238 2.82246e-09 0)
(-0.22238 -4.98972e-09 0)
(-0.22238 3.13657e-09 0)
(-0.22238 -5.19877e-09 0)
(-0.22238 3.47509e-09 0)
(-0.22238 -5.41915e-09 0)
(-0.22238 3.83581e-09 0)
(-0.22238 -5.65375e-09 0)
(-0.22238 4.21606e-09 0)
(-0.22238 -5.90235e-09 0)
(-0.22238 4.61272e-09 0)
(-0.22238 -6.17128e-09 0)
(-0.22238 5.01941e-09 0)
(-0.22238 -6.46613e-09 0)
(-0.22238 5.42984e-09 0)
(-0.22238 -6.79202e-09 0)
(-0.22238 5.84497e-09 0)
(-0.22238 -7.14372e-09 0)
(-0.22238 6.2685e-09 0)
(-0.22238 -7.51972e-09 0)
(-0.22238 6.70661e-09 0)
(-0.22238 -7.91291e-09 0)
(-0.22238 7.15921e-09 0)
(-0.22238 -8.32492e-09 0)
(-0.22238 7.63187e-09 0)
(-0.22238 -8.75038e-09 0)
(-0.22238 8.12233e-09 0)
(-0.22238 -9.19176e-09 0)
(-0.22238 8.63443e-09 0)
(-0.22238 -9.64675e-09 0)
(-0.22238 9.16167e-09 0)
(-0.22238 -1.01229e-08 0)
(-0.22238 9.70674e-09 0)
(-0.22238 -1.06148e-08 0)
(-0.22238 1.02742e-08 0)
(-0.22238 -1.11203e-08 0)
(-0.22238 1.08635e-08 0)
(-0.22238 -1.16398e-08 0)
(-0.22238 1.14731e-08 0)
(-0.22238 -1.21763e-08 0)
(-0.22238 1.21009e-08 0)
(-0.22238 -1.2735e-08 0)
(-0.22238 1.27439e-08 0)
(-0.22238 -1.33131e-08 0)
(-0.22238 1.34035e-08 0)
(-0.22238 -1.39139e-08 0)
(-0.22238 1.40712e-08 0)
(-0.22238 -1.45461e-08 0)
(-0.22238 1.47591e-08 0)
(-0.22238 -1.51921e-08 0)
(-0.22238 1.54565e-08 0)
(-0.22238 -1.58616e-08 0)
(-0.22238 1.61768e-08 0)
(-0.22238 -1.65537e-08 0)
(-0.22238 1.6912e-08 0)
(-0.22238 -1.72644e-08 0)
(-0.22238 1.76704e-08 0)
(-0.22238 -1.799e-08 0)
(-0.22238 1.84463e-08 0)
(-0.22238 -1.64225e-08 0)
(-0.22238 1.65644e-08 0)
(-0.22238 -1.64048e-08 0)
(-0.22238 1.65966e-08 0)
(-0.22238 -1.63747e-08 0)
(-0.22238 1.6631e-08 0)
(-0.22238 -1.63173e-08 0)
(-0.22238 1.66626e-08 0)
(-0.22238 -1.62354e-08 0)
(-0.22238 1.67024e-08 0)
(-0.22238 -1.61175e-08 0)
(-0.22238 1.675e-08 0)
(-0.22238 -1.59655e-08 0)
(-0.22238 1.68146e-08 0)
(-0.22238 -1.57677e-08 0)
(-0.22238 1.69193e-08 0)
(-0.22238 -1.5491e-08 0)
(-0.22238 1.7097e-08 0)
(-0.22238 -1.49118e-08 0)
(-0.22238 1.78843e-08 0)
(-0.22238 -1.36656e-08 0)
(-0.22238 1.90095e-08 0)
(-0.22238 -1.22333e-08 0)
(-0.22238 2.02405e-08 0)
(-0.22238 -1.06677e-08 0)
(-0.22238 2.15713e-08 0)
(-0.22238 -8.97426e-09 0)
(-0.22238 2.30009e-08 0)
(-0.22238 -7.20873e-09 0)
(-0.22238 2.43437e-08 0)
(-0.22238 -5.49613e-09 0)
(-0.22238 2.56608e-08 0)
(-0.22238 -3.91317e-09 0)
(-0.22238 2.65589e-08 0)
(-0.22238 -2.23447e-09 0)
(-0.22238 2.85056e-08 0)
(-0.22238 1.70514e-10 0)
(-0.22238 2.94867e-08 0)
(-0.22238 1.10295e-09 0)
(-0.22238 2.94954e-08 0)
(-0.22238 6.62858e-10 0)
(-0.22238 2.63948e-08 0)
(-0.22238 -1.98956e-09 0)
(-0.22238 2.45578e-08 0)
(-0.22238 -3.85545e-09 0)
(-0.22238 1.7634e-08 0)
(-0.22238 -1.16379e-08 0)
(-0.22238 6.5386e-09 0)
(-0.22238 -3.29773e-08 0)
(-0.22238 -3.75826e-09 0)
)
;

boundaryField
{
    inandouthalf11
    {
        type            cyclic;
    }
    inandouthalf12
    {
        type            cyclic;
    }
    inandouthalf21
    {
        type            cyclic;
    }
    inandouthalf22
    {
        type            cyclic;
    }
    inandouthalf31
    {
        type            cyclic;
    }
    inandouthalf32
    {
        type            cyclic;
    }
    inandouthalf41
    {
        type            cyclic;
    }
    inandouthalf42
    {
        type            cyclic;
    }
    top
    {
        type            symmetryPlane;
    }
    walls
    {
        type            calculated;
        value           uniform (0 0 0);
    }
    frontAndBackPlanes
    {
        type            empty;
    }
}


// ************************************************************************* //
