/*--------------------------------*- C++ -*----------------------------------*\
| =========                 |                                                 |
| \\      /  F ield         | OpenFOAM: The Open Source CFD Toolbox           |
|  \\    /   O peration     | Version:  2.4.x                                 |
|   \\  /    A nd           | Web:      www.OpenFOAM.org                      |
|    \\/     M anipulation  |                                                 |
\*---------------------------------------------------------------------------*/
FoamFile
{
    version     2.0;
    format      ascii;
    class       volVectorField;
    location    "4.35";
    object      ddt0(Ua);
}
// * * * * * * * * * * * * * * * * * * * * * * * * * * * * * * * * * * * * * //

dimensions      [0 1 -2 0 0 0 0];

internalField   nonuniform List<vector> 
360
(
(1.35295e-33 -9.5395e-33 0)
(3.37096e-08 1.24589e-07 0)
(8.2946e-08 2.89264e-07 0)
(1.27497e-07 4.26732e-07 0)
(1.68014e-07 5.49606e-07 0)
(2.07739e-07 6.70574e-07 0)
(2.48229e-07 7.95501e-07 0)
(2.89655e-07 9.25017e-07 0)
(3.31478e-07 1.05669e-06 0)
(3.73187e-07 1.18833e-06 0)
(4.14723e-07 1.31985e-06 0)
(4.56397e-07 1.45268e-06 0)
(4.9862e-07 1.58859e-06 0)
(5.41697e-07 1.72888e-06 0)
(5.85721e-07 1.87394e-06 0)
(6.30544e-07 2.02325e-06 0)
(6.7571e-07 2.17513e-06 0)
(7.20347e-07 2.32628e-06 0)
(7.63103e-07 2.47149e-06 0)
(8.02219e-07 2.604e-06 0)
(8.35803e-07 2.71639e-06 0)
(8.62402e-07 2.80293e-06 0)
(8.81757e-07 2.86247e-06 0)
(8.95537e-07 2.90122e-06 0)
(9.07853e-07 2.93474e-06 0)
(9.25408e-07 2.98838e-06 0)
(9.57377e-07 3.09665e-06 0)
(1.01532e-06 3.30294e-06 0)
(1.11321e-06 3.6601e-06 0)
(1.26672e-06 4.22896e-06 0)
(1.48834e-06 5.06347e-06 0)
(1.77039e-06 6.15202e-06 0)
(2.04657e-06 7.27111e-06 0)
(2.15422e-06 7.81595e-06 0)
(1.90022e-06 7.00381e-06 0)
(1.29405e-06 4.7964e-06 0)
(6.41479e-07 2.36252e-06 0)
(2.25376e-07 8.1849e-07 0)
(5.30765e-08 1.91362e-07 0)
(1.598e-09 8.77596e-09 0)
(-1.12892e-08 -3.57046e-08 0)
(-1.44332e-08 -4.62861e-08 0)
(-1.52335e-08 -4.89295e-08 0)
(-1.54099e-08 -4.95218e-08 0)
(-1.53724e-08 -4.94413e-08 0)
(-1.52215e-08 -4.90284e-08 0)
(-1.49786e-08 -4.83666e-08 0)
(-1.46498e-08 -4.74889e-08 0)
(-1.42477e-08 -4.64433e-08 0)
(-1.37964e-08 -4.5303e-08 0)
(-1.33257e-08 -4.41506e-08 0)
(-1.28611e-08 -4.30502e-08 0)
(-1.24165e-08 -4.20316e-08 0)
(-1.19937e-08 -4.10927e-08 0)
(-1.1586e-08 -4.02119e-08 0)
(-1.11829e-08 -3.93601e-08 0)
(-1.07733e-08 -3.85097e-08 0)
(-1.03478e-08 -3.76387e-08 0)
(-9.89909e-09 -3.67312e-08 0)
(-9.42225e-09 -3.57779e-08 0)
(-8.91447e-09 -3.4774e-08 0)
(-8.37504e-09 -3.37198e-08 0)
(-7.80532e-09 -3.26196e-08 0)
(-7.20818e-09 -3.14806e-08 0)
(-6.58732e-09 -3.03116e-08 0)
(-5.94622e-09 -2.91204e-08 0)
(-5.28719e-09 -2.7912e-08 0)
(-4.61093e-09 -2.66882e-08 0)
(-3.91657e-09 -2.54476e-08 0)
(-3.20171e-09 -2.41863e-08 0)
(-2.46251e-09 -2.28974e-08 0)
(-1.69455e-09 -2.1573e-08 0)
(-8.94074e-10 -2.02074e-08 0)
(-5.80721e-11 -1.87959e-08 0)
(8.15497e-10 -1.73355e-08 0)
(1.72716e-09 -1.58262e-08 0)
(2.67585e-09 -1.42705e-08 0)
(3.65954e-09 -1.26728e-08 0)
(4.6762e-09 -1.10372e-08 0)
(5.72436e-09 -9.36645e-09 0)
(6.8034e-09 -7.66222e-09 0)
(7.9138e-09 -5.92415e-09 0)
(9.05717e-09 -4.15001e-09 0)
(1.02357e-08 -2.33685e-09 0)
(1.14515e-08 -4.81781e-10 0)
(1.27065e-08 1.4172e-09 0)
(1.40014e-08 3.3607e-09 0)
(1.53361e-08 5.34762e-09 0)
(1.67096e-08 7.3753e-09 0)
(1.81201e-08 9.44034e-09 0)
(1.95656e-08 1.15391e-08 0)
(2.10445e-08 1.36683e-08 0)
(2.25553e-08 1.58253e-08 0)
(2.40973e-08 1.80083e-08 0)
(2.56699e-08 2.02161e-08 0)
(2.72728e-08 2.24476e-08 0)
(2.89058e-08 2.4702e-08 0)
(3.05685e-08 2.69781e-08 0)
(3.22604e-08 2.92744e-08 0)
(3.39808e-08 3.15892e-08 0)
(3.57287e-08 3.39206e-08 0)
(3.75031e-08 3.62662e-08 0)
(3.93027e-08 3.8624e-08 0)
(4.11265e-08 4.09916e-08 0)
(4.29731e-08 4.33666e-08 0)
(4.48413e-08 4.57463e-08 0)
(4.67296e-08 4.81285e-08 0)
(4.86366e-08 5.05104e-08 0)
(5.0561e-08 5.28895e-08 0)
(5.25017e-08 5.52635e-08 0)
(5.44574e-08 5.76303e-08 0)
(5.64275e-08 5.99878e-08 0)
(5.84115e-08 6.23346e-08 0)
(6.04094e-08 6.46697e-08 0)
(6.24219e-08 6.69926e-08 0)
(6.445e-08 6.93032e-08 0)
(6.64958e-08 7.16022e-08 0)
(6.85618e-08 7.3891e-08 0)
(7.06516e-08 7.61713e-08 0)
(7.27691e-08 7.84451e-08 0)
(7.49187e-08 8.07143e-08 0)
(7.71048e-08 8.29804e-08 0)
(7.9331e-08 8.52436e-08 0)
(8.15995e-08 8.7502e-08 0)
(8.39106e-08 8.97512e-08 0)
(8.62613e-08 9.19834e-08 0)
(8.86451e-08 9.41874e-08 0)
(9.10517e-08 9.63486e-08 0)
(9.34662e-08 9.84494e-08 0)
(9.58694e-08 1.00469e-07 0)
(9.82381e-08 1.02386e-07 0)
(1.00548e-07 1.04177e-07 0)
(1.02778e-07 1.05828e-07 0)
(1.04917e-07 1.07329e-07 0)
(1.06964e-07 1.08685e-07 0)
(1.08922e-07 1.09903e-07 0)
(1.10797e-07 1.10985e-07 0)
(1.12593e-07 1.11935e-07 0)
(1.14317e-07 1.12761e-07 0)
(1.15945e-07 1.13466e-07 0)
(1.17386e-07 1.14025e-07 0)
(1.1849e-07 1.14383e-07 0)
(1.19191e-07 1.14553e-07 0)
(1.19565e-07 1.14608e-07 0)
(1.1975e-07 1.14608e-07 0)
(1.19872e-07 1.14577e-07 0)
(1.20068e-07 1.14528e-07 0)
(-0.0514669 -0.000141468 0)
(-0.100908 -0.0023327 0)
(-0.0688901 -0.00377962 0)
(-0.0401007 -0.0043135 0)
(-0.0162578 -0.00455984 0)
(0.00395739 -0.00493879 0)
(0.021197 -0.00547126 0)
(0.0357167 -0.00615316 0)
(0.0476718 -0.00695956 0)
(0.0572237 -0.00785521 0)
(0.0645508 -0.0088017 0)
(0.069828 -0.00975851 0)
(0.0732092 -0.0106804 0)
(0.0748093 -0.0115141 0)
(0.0747018 -0.0122005 0)
(0.0729291 -0.012685 0)
(0.0695164 -0.0129309 0)
(0.0644906 -0.0129265 0)
(0.0578996 -0.0126839 0)
(0.0498305 -0.012231 0)
(0.0404242 -0.0115951 0)
(0.0298869 -0.0107637 0)
(0.0185019 -0.00962781 0)
(0.00664492 -0.00798307 0)
(-0.00521307 -0.00569179 0)
(-0.016563 -0.00292045 0)
(-0.0269897 -0.000149528 0)
(-0.0362935 0.00212662 0)
(-0.0444963 0.00367637 0)
(-0.0517458 0.00454072 0)
(-0.0582146 0.00488836 0)
(-0.0640488 0.00489485 0)
(-0.0693563 0.00469538 0)
(-0.0742132 0.00438218 0)
(-0.0786733 0.00401556 0)
(-0.0827752 0.00363521 0)
(-0.0865478 0.00326848 0)
(-0.0900129 0.00293609 0)
(-0.0931873 0.00265576 0)
(-0.0960843 0.0024441 0)
(-0.0987149 0.00231522 0)
(-0.101092 0.00227378 0)
(-0.103236 0.00230519 0)
(-0.105176 0.00237516 0)
(-0.106946 0.00244851 0)
(-0.108575 0.00251175 0)
(-0.110082 0.0025732 0)
(-0.111479 0.00264193 0)
(-0.112783 0.00271532 0)
(-0.114003 0.00278786 0)
(-0.115151 0.00286018 0)
(-0.116233 0.00293503 0)
(-0.117257 0.0030112 0)
(-0.118227 0.00308455 0)
(-0.119157 0.00315546 0)
(-0.120058 0.00323098 0)
(-0.120935 0.0033136 0)
(-0.121793 0.00339395 0)
(-0.122629 0.00346759 0)
(-0.123444 0.00354787 0)
(-0.124248 0.00364043 0)
(-0.125041 0.0037287 0)
(-0.125817 0.00381051 0)
(-0.126583 0.00390288 0)
(-0.127345 0.00400078 0)
(-0.128097 0.00409271 0)
(-0.128841 0.00418876 0)
(-0.129584 0.0042882 0)
(-0.130318 0.00437931 0)
(-0.131047 0.00447394 0)
(-0.131785 0.00457543 0)
(-0.132521 0.00466018 0)
(-0.133249 0.00473283 0)
(-0.133995 0.00480888 0)
(-0.134759 0.00486665 0)
(-0.135537 0.00489804 0)
(-0.136351 0.00491831 0)
(-0.137202 0.00492958 0)
(-0.138097 0.0049505 0)
(-0.139049 0.00498978 0)
(-0.140032 0.00503049 0)
(-0.141066 0.00509466 0)
(-0.14218 0.00519231 0)
(-0.143342 0.00529838 0)
(-0.144533 0.0054078 0)
(-0.145675 0.00548692 0)
(-0.146659 0.00551886 0)
(-0.147458 0.00553885 0)
(-0.148084 0.00556255 0)
(-0.14892 0.00581172 0)
(-0.253888 0.0348521 0)
(-0.253497 0.00013068 0)
(-0.249363 -0.000298491 0)
(-0.237351 -0.000447229 0)
(-0.226834 -0.000321115 0)
(-0.225049 -6.63699e-05 0)
(-0.225004 -1.19032e-05 0)
(-0.225007 -1.45699e-05 0)
(-0.225006 -1.43601e-05 0)
(-0.225006 -1.43743e-05 0)
(-0.225006 -1.43707e-05 0)
(-0.225006 -1.43715e-05 0)
(-0.225006 -1.43691e-05 0)
(-0.225006 -1.43702e-05 0)
(-0.225006 -1.43679e-05 0)
(-0.225006 -1.43693e-05 0)
(-0.225006 -1.43671e-05 0)
(-0.225006 -1.43688e-05 0)
(-0.225006 -1.43665e-05 0)
(-0.225006 -1.43684e-05 0)
(-0.225006 -1.43661e-05 0)
(-0.225006 -1.43683e-05 0)
(-0.225006 -1.43659e-05 0)
(-0.225006 -1.43682e-05 0)
(-0.225006 -1.43657e-05 0)
(-0.225006 -1.43681e-05 0)
(-0.225006 -1.43655e-05 0)
(-0.225006 -1.43681e-05 0)
(-0.225006 -1.43653e-05 0)
(-0.225006 -1.43682e-05 0)
(-0.225006 -1.43653e-05 0)
(-0.225006 -1.43679e-05 0)
(-0.225006 -1.43656e-05 0)
(-0.225006 -1.43679e-05 0)
(-0.225006 -1.43653e-05 0)
(-0.225006 -1.43681e-05 0)
(-0.225006 -1.43652e-05 0)
(-0.225006 -1.43682e-05 0)
(-0.225006 -1.4365e-05 0)
(-0.225006 -1.43683e-05 0)
(-0.225006 -1.43649e-05 0)
(-0.225006 -1.43684e-05 0)
(-0.225006 -1.43648e-05 0)
(-0.225006 -1.43685e-05 0)
(-0.225006 -1.43647e-05 0)
(-0.225006 -1.43686e-05 0)
(-0.225006 -1.43646e-05 0)
(-0.225006 -1.43687e-05 0)
(-0.225006 -1.43644e-05 0)
(-0.225006 -1.43688e-05 0)
(-0.225006 -1.43643e-05 0)
(-0.225006 -1.43689e-05 0)
(-0.225006 -1.43642e-05 0)
(-0.225006 -1.4369e-05 0)
(-0.225006 -1.4364e-05 0)
(-0.225006 -1.43691e-05 0)
(-0.225006 -1.43639e-05 0)
(-0.225006 -1.43692e-05 0)
(-0.225006 -1.43637e-05 0)
(-0.225006 -1.43694e-05 0)
(-0.225006 -1.43636e-05 0)
(-0.225006 -1.43695e-05 0)
(-0.225006 -1.43634e-05 0)
(-0.225006 -1.43696e-05 0)
(-0.225006 -1.43633e-05 0)
(-0.225006 -1.43698e-05 0)
(-0.225006 -1.43631e-05 0)
(-0.225006 -1.43699e-05 0)
(-0.225006 -1.43629e-05 0)
(-0.225006 -1.43701e-05 0)
(-0.225006 -1.43627e-05 0)
(-0.225006 -1.43703e-05 0)
(-0.225006 -1.43625e-05 0)
(-0.225006 -1.43699e-05 0)
(-0.225006 -1.4363e-05 0)
(-0.225006 -1.43699e-05 0)
(-0.225006 -1.4363e-05 0)
(-0.225006 -1.43699e-05 0)
(-0.225006 -1.4363e-05 0)
(-0.225006 -1.43699e-05 0)
(-0.225006 -1.43629e-05 0)
(-0.225006 -1.43698e-05 0)
(-0.225006 -1.43629e-05 0)
(-0.225006 -1.43698e-05 0)
(-0.225006 -1.43629e-05 0)
(-0.225006 -1.43697e-05 0)
(-0.225006 -1.43629e-05 0)
(-0.225006 -1.43697e-05 0)
(-0.225006 -1.43628e-05 0)
(-0.225006 -1.43696e-05 0)
(-0.225006 -1.43627e-05 0)
(-0.225006 -1.43694e-05 0)
(-0.225006 -1.43624e-05 0)
(-0.225006 -1.43689e-05 0)
(-0.225006 -1.4362e-05 0)
(-0.225006 -1.43684e-05 0)
(-0.225006 -1.43615e-05 0)
(-0.225006 -1.43678e-05 0)
(-0.225006 -1.43609e-05 0)
(-0.225006 -1.43672e-05 0)
(-0.225006 -1.43604e-05 0)
(-0.225006 -1.43665e-05 0)
(-0.225006 -1.43598e-05 0)
(-0.225006 -1.43659e-05 0)
(-0.225006 -1.43592e-05 0)
(-0.225006 -1.43653e-05 0)
(-0.225006 -1.43588e-05 0)
(-0.225006 -1.43647e-05 0)
(-0.225006 -1.4358e-05 0)
(-0.225006 -1.43638e-05 0)
(-0.225006 -1.43576e-05 0)
(-0.225006 -1.43635e-05 0)
(-0.225006 -1.43575e-05 0)
(-0.225006 -1.43636e-05 0)
(-0.225006 -1.43586e-05 0)
(-0.225006 -1.43647e-05 0)
(-0.225006 -1.43592e-05 0)
(-0.225006 -1.43655e-05 0)
(-0.225006 -1.43616e-05 0)
(-0.225006 -1.43695e-05 0)
(-0.225007 -1.4382e-05 0)
(-0.225025 -1.47448e-05 0)
(-0.225454 -2.89616e-05 0)
)
;

boundaryField
{
    inandouthalf11
    {
        type            cyclic;
    }
    inandouthalf12
    {
        type            cyclic;
    }
    inandouthalf21
    {
        type            cyclic;
    }
    inandouthalf22
    {
        type            cyclic;
    }
    inandouthalf31
    {
        type            cyclic;
    }
    inandouthalf32
    {
        type            cyclic;
    }
    inandouthalf41
    {
        type            cyclic;
    }
    inandouthalf42
    {
        type            cyclic;
    }
    top
    {
        type            symmetryPlane;
    }
    walls
    {
        type            calculated;
        value           uniform (0 0 0);
    }
    frontAndBackPlanes
    {
        type            empty;
    }
}


// ************************************************************************* //
