/*--------------------------------*- C++ -*----------------------------------*\
| =========                 |                                                 |
| \\      /  F ield         | OpenFOAM: The Open Source CFD Toolbox           |
|  \\    /   O peration     | Version:  2.4.x                                 |
|   \\  /    A nd           | Web:      www.OpenFOAM.org                      |
|    \\/     M anipulation  |                                                 |
\*---------------------------------------------------------------------------*/
FoamFile
{
    version     2.0;
    format      ascii;
    class       volScalarField;
    location    "4.35";
    object      nutb;
}
// * * * * * * * * * * * * * * * * * * * * * * * * * * * * * * * * * * * * * //

dimensions      [0 2 -1 0 0 0 0];

internalField   nonuniform List<scalar> 
360
(
9e-22
9e-22
9e-22
9e-22
9e-22
9e-22
9e-22
9e-22
9e-22
9e-22
9e-22
9e-22
9e-22
9e-22
9e-22
9e-22
9e-22
9e-22
9e-22
9e-22
9e-22
9e-22
9e-22
9e-22
9e-22
9e-22
9e-22
9e-22
9e-22
9e-22
9e-22
9e-22
9e-22
9e-22
9e-22
9e-22
9e-22
9e-22
9e-22
9e-22
9e-22
9e-22
9e-22
9e-22
9e-22
9e-22
9e-22
9e-22
9e-22
9e-22
9e-22
9e-22
9e-22
9e-22
9e-22
9e-22
9e-22
9e-22
9e-22
9e-22
9e-22
9e-22
9e-22
9e-22
9e-22
9e-22
9e-22
9e-22
9e-22
9e-22
9e-22
9e-22
9e-22
9e-22
9e-22
9e-22
9e-22
9e-22
9e-22
9e-22
9e-22
9e-22
9e-22
9e-22
9e-22
9e-22
9e-22
9e-22
9e-22
9e-22
9e-22
9e-22
9e-22
9e-22
9e-22
9e-22
9e-22
9e-22
9e-22
9e-22
9e-22
9e-22
9e-22
9e-22
9e-22
9e-22
9e-22
9e-22
9e-22
9e-22
9e-22
9e-22
9e-22
9e-22
9e-22
9e-22
9e-22
9e-22
9e-22
9e-22
9e-22
9e-22
9e-22
9e-22
9e-22
9e-22
9e-22
9e-22
9e-22
9e-22
9e-22
9e-22
9e-22
5.42457e-22
2.41246e-21
1.72753e-20
1.3445e-19
1.13372e-18
1.05292e-17
1.08918e-16
1.26251e-15
1.65079e-14
2.47195e-13
4.32519e-12
9.0044e-11
2.2634e-09
6.7173e-08
1.51237e-06
9.00192e-06
1.74554e-05
2.42637e-05
3.00778e-05
3.52251e-05
3.9865e-05
4.40945e-05
4.79676e-05
5.15092e-05
5.47253e-05
5.7611e-05
6.01574e-05
6.23559e-05
6.42019e-05
6.56961e-05
6.68457e-05
6.76647e-05
6.81745e-05
6.84038e-05
6.83894e-05
6.81767e-05
6.78203e-05
6.73849e-05
6.69459e-05
6.65878e-05
6.64019e-05
6.64825e-05
6.69221e-05
6.78051e-05
6.91988e-05
7.11442e-05
7.36485e-05
7.66817e-05
8.018e-05
8.40531e-05
8.81954e-05
9.24978e-05
9.68569e-05
0.000101182
0.0001054
0.000109452
0.000113299
0.000116912
0.000120277
0.000123386
0.00012624
0.000128844
0.000131208
0.000133342
0.000135257
0.000136966
0.000138479
0.000139808
0.000140975
0.000141993
0.00014286
0.000143575
0.000144138
0.000144544
0.000144792
0.000144877
0.000144796
0.000144542
0.00014411
0.000143493
0.000142685
0.000141676
0.000140459
0.000139025
0.000137362
0.000135462
0.000133313
0.000130903
0.00012822
0.000125252
0.000121986
0.000118408
0.000114504
0.000110261
0.000105663
0.000100696
9.53448e-05
8.95945e-05
8.34301e-05
7.68369e-05
6.98007e-05
6.2308e-05
5.43466e-05
4.5906e-05
3.69778e-05
2.75599e-05
1.76728e-05
7.07014e-06
7.49547e-07
1.53252e-08
2.02535e-10
2.51302e-12
2.95544e-14
3.29641e-16
3.48678e-18
3.35922e-20
1.04167e-21
9e-22
9e-22
9e-22
9e-22
9e-22
9e-22
9e-22
9e-22
9e-22
9e-22
9e-22
9e-22
9e-22
9e-22
9e-22
9e-22
9e-22
9e-22
9e-22
9e-22
9e-22
9e-22
9e-22
9e-22
9e-22
9e-22
9e-22
9e-22
9e-22
9e-22
9e-22
9e-22
9e-22
9e-22
9e-22
9e-22
9e-22
9e-22
9e-22
9e-22
9e-22
9e-22
9e-22
9e-22
9e-22
9e-22
9e-22
9e-22
9e-22
9e-22
9e-22
9e-22
9e-22
9e-22
9e-22
9e-22
9e-22
9e-22
9e-22
9e-22
9e-22
9e-22
9e-22
9e-22
9e-22
9e-22
9e-22
9e-22
9e-22
9e-22
9e-22
9e-22
9e-22
9e-22
9e-22
9e-22
9e-22
9e-22
9e-22
9e-22
9e-22
9e-22
9e-22
9e-22
9e-22
9e-22
9e-22
9e-22
9e-22
9e-22
9e-22
9e-22
9e-22
9e-22
9e-22
9e-22
9e-22
9e-22
9e-22
9e-22
9e-22
9e-22
9e-22
9e-22
9e-22
9e-22
9e-22
9e-22
9e-22
9e-22
)
;

boundaryField
{
    inandouthalf11
    {
        type            cyclic;
    }
    inandouthalf12
    {
        type            cyclic;
    }
    inandouthalf21
    {
        type            cyclic;
    }
    inandouthalf22
    {
        type            cyclic;
    }
    inandouthalf31
    {
        type            cyclic;
    }
    inandouthalf32
    {
        type            cyclic;
    }
    inandouthalf41
    {
        type            cyclic;
    }
    inandouthalf42
    {
        type            cyclic;
    }
    top
    {
        type            symmetryPlane;
    }
    walls
    {
        type            calculated;
        value           uniform 0;
    }
    frontAndBackPlanes
    {
        type            empty;
    }
}


// ************************************************************************* //
