/*--------------------------------*- C++ -*----------------------------------*\
| =========                 |                                                 |
| \\      /  F ield         | OpenFOAM: The Open Source CFD Toolbox           |
|  \\    /   O peration     | Version:  2.4.x                                 |
|   \\  /    A nd           | Web:      www.OpenFOAM.org                      |
|    \\/     M anipulation  |                                                 |
\*---------------------------------------------------------------------------*/
FoamFile
{
    version     2.0;
    format      ascii;
    class       volScalarField;
    location    "4.35";
    object      p;
}
// * * * * * * * * * * * * * * * * * * * * * * * * * * * * * * * * * * * * * //

dimensions      [1 -1 -2 0 0 0 0];

internalField   nonuniform List<scalar> 
360
(
4899.83
4894.92
4890.01
4885.1
4880.19
4875.28
4870.37
4865.45
4860.54
4855.62
4850.7
4845.78
4840.86
4835.93
4831.01
4826.08
4821.15
4816.22
4811.29
4806.35
4801.42
4796.48
4791.54
4786.6
4781.66
4776.72
4771.77
4766.82
4761.87
4756.92
4751.97
4747.01
4742.06
4737.09
4732.13
4727.16
4722.19
4717.22
4712.25
4707.28
4702.3
4697.33
4692.36
4687.39
4682.41
4677.44
4672.47
4667.5
4662.53
4657.55
4652.58
4647.61
4642.64
4637.67
4632.7
4627.72
4622.75
4617.78
4612.81
4607.84
4602.86
4597.89
4592.92
4587.95
4582.98
4578
4573.03
4568.06
4563.09
4558.12
4553.15
4548.17
4543.2
4538.23
4533.26
4528.29
4523.32
4518.35
4513.37
4508.4
4503.43
4498.46
4493.49
4488.52
4483.55
4478.57
4473.6
4468.63
4463.66
4458.69
4453.72
4448.75
4443.78
4438.81
4433.84
4428.86
4423.89
4418.92
4413.95
4408.98
4404.01
4399.04
4394.07
4389.1
4384.13
4379.16
4374.19
4369.22
4364.25
4359.28
4354.31
4349.34
4344.37
4339.4
4334.43
4329.46
4324.49
4319.52
4314.55
4309.58
4304.61
4299.64
4294.67
4289.7
4284.73
4279.76
4274.8
4269.83
4264.86
4259.89
4254.92
4249.95
4244.99
4240.02
4235.05
4230.08
4225.11
4220.15
4215.18
4210.21
4205.25
4200.28
4195.31
4190.35
4185.38
4180.42
4175.44
4169.81
4160.84
4152.81
4146.21
4140.16
4134.4
4128.85
4123.46
4118.21
4113.07
4108.02
4103.06
4098.16
4093.31
4088.51
4083.74
4079
4074.28
4069.58
4064.89
4060.21
4055.53
4050.85
4046.17
4041.48
4036.79
4032.08
4027.35
4022.61
4017.86
4013.08
4008.28
4003.47
3998.64
3993.8
3988.94
3984.07
3979.2
3974.32
3969.43
3964.53
3959.64
3954.74
3949.83
3944.93
3940.02
3935.11
3930.2
3925.3
3920.39
3915.48
3910.57
3905.66
3900.75
3895.79
3890.73
3885.57
3880.3
3874.93
3869.45
3863.86
3858.16
3852.34
3846.41
3840.36
3834.18
3827.88
3821.46
3814.91
3808.22
3801.41
3794.45
3787.36
3780.13
3772.75
3765.22
3757.54
3749.71
3741.73
3733.58
3725.27
3716.8
3708.15
3699.33
3690.33
3681.16
3671.8
3662.25
3652.5
3642.56
3632.41
3622.06
3611.49
3600.69
3589.64
3578.35
3566.83
3555.07
3543.08
3530.84
3518.35
3505.61
3492.61
3479.35
3465.82
3452.01
3437.92
3423.55
3408.88
3393.92
3378.66
3363.08
3347.19
3330.97
3314.43
3297.55
3280.33
3262.76
3244.83
3226.54
3207.87
3188.83
3169.4
3149.58
3129.35
3108.72
3087.66
3066.18
3044.26
3021.9
2999.08
2975.8
2952.05
2927.81
2903.09
2877.86
2852.12
2825.86
2799.06
2771.72
2743.82
2715.36
2686.32
2656.7
2626.47
2595.62
2564.15
2532.05
2499.29
2465.86
2431.76
2396.96
2361.46
2325.24
2288.28
2250.57
2212.1
2172.85
2132.8
2091.93
2050.24
2007.7
1964.3
1922.76
1883.52
1844.28
1805.04
1765.8
1726.56
1687.32
1648.08
1608.84
1569.6
1530.36
1491.12
1451.88
1412.64
1373.4
1334.16
1294.92
1255.68
1216.44
1177.2
1137.96
1098.72
1059.48
1020.24
981
941.76
902.52
863.28
824.04
784.8
745.56
706.32
667.08
627.84
588.6
549.36
510.12
470.88
431.64
392.4
353.16
313.92
274.68
235.44
196.2
156.96
117.72
78.48
39.24
2.16752e-07
)
;

boundaryField
{
    inandouthalf11
    {
        type            cyclic;
    }
    inandouthalf12
    {
        type            cyclic;
    }
    inandouthalf21
    {
        type            cyclic;
    }
    inandouthalf22
    {
        type            cyclic;
    }
    inandouthalf31
    {
        type            cyclic;
    }
    inandouthalf32
    {
        type            cyclic;
    }
    inandouthalf41
    {
        type            cyclic;
    }
    inandouthalf42
    {
        type            cyclic;
    }
    top
    {
        type            symmetryPlane;
    }
    walls
    {
        type            slip;
    }
    frontAndBackPlanes
    {
        type            empty;
    }
}


// ************************************************************************* //
