/*--------------------------------*- C++ -*----------------------------------*\
| =========                 |                                                 |
| \\      /  F ield         | OpenFOAM: The Open Source CFD Toolbox           |
|  \\    /   O peration     | Version:  2.4.x                                 |
|   \\  /    A nd           | Web:      www.OpenFOAM.org                      |
|    \\/     M anipulation  |                                                 |
\*---------------------------------------------------------------------------*/
FoamFile
{
    version     2.0;
    format      ascii;
    class       volTensorField;
    location    "4.35";
    object      Taus;
}
// * * * * * * * * * * * * * * * * * * * * * * * * * * * * * * * * * * * * * //

dimensions      [0 2 -2 0 0 0 0];

internalField   nonuniform List<tensor> 
360
(
(0 -0.0165642 0 -0.0165642 -0.182722 0 0 0 0)
(0 -0.0219869 0 -0.0219869 -0.213269 0 0 0 0)
(0 -0.026393 0 -0.026393 -0.221281 0 0 0 0)
(0 -0.0267994 0 -0.0267994 -0.218287 0 0 0 0)
(1.18279e-17 -0.026165 0 -0.026165 -0.21531 0 0 0 0)
(1.13675e-17 -0.0258932 0 -0.0258932 -0.213493 0 0 0 0)
(2.20001e-17 -0.025795 0 -0.025795 -0.211875 0 0 0 0)
(0 -0.0257311 0 -0.0257311 -0.210273 0 0 0 0)
(2.11775e-17 -0.0256892 0 -0.0256892 -0.208751 0 0 0 0)
(0 -0.025634 0 -0.025634 -0.207182 0 0 0 0)
(2.05422e-17 -0.025552 0 -0.025552 -0.205547 0 0 0 0)
(0 -0.0254583 0 -0.0254583 -0.203902 0 0 0 0)
(3.93932e-17 -0.025362 0 -0.025362 -0.202247 0 0 0 0)
(0 -0.0252715 0 -0.0252715 -0.200612 0 0 0 0)
(0 -0.0251838 0 -0.0251838 -0.198985 0 0 0 0)
(0 -0.025092 0 -0.025092 -0.197348 0 0 0 0)
(0 -0.0249941 0 -0.0249941 -0.195699 0 0 0 0)
(3.49608e-17 -0.0248925 0 -0.0248925 -0.194044 0 0 0 0)
(0 -0.0247875 0 -0.0247875 -0.19239 0 0 0 0)
(0 -0.0246792 0 -0.0246792 -0.190717 0 0 0 0)
(0 -0.0245789 0 -0.0245789 -0.189078 0 0 0 0)
(6.55227e-17 -0.0244815 0 -0.0244815 -0.187432 0 0 0 0)
(0 -0.0243937 0 -0.0243937 -0.185807 0 0 0 0)
(0 -0.0243206 0 -0.0243206 -0.18421 0 0 0 0)
(0 -0.0242632 0 -0.0242632 -0.182637 0 0 0 0)
(6.58277e-17 -0.0242215 0 -0.0242215 -0.181089 0 0 0 0)
(0 -0.0241878 0 -0.0241878 -0.179558 0 0 0 0)
(0 -0.0241425 0 -0.0241425 -0.177994 0 0 0 0)
(0 -0.0240698 0 -0.0240698 -0.176388 0 0 0 0)
(0 -0.0239413 0 -0.0239413 -0.174694 0 0 0 0)
(0 -0.0237177 0 -0.0237177 -0.172856 0 0 0 0)
(0 -0.023367 0 -0.023367 -0.17079 0 0 0 0)
(0 -0.0229009 0 -0.0229009 -0.168543 0 0 0 0)
(0 -0.022366 0 -0.022366 -0.166095 0 0 0 0)
(0 -0.0219019 0 -0.0219019 -0.163804 0 0 0 0)
(-4.52178e-17 -0.0216272 0 -0.0216272 -0.161928 0 0 0 0)
(0 -0.0216166 0 -0.0216166 -0.160684 0 0 0 0)
(0 -0.0218546 0 -0.0218546 -0.15991 0 0 0 0)
(0 -0.0222736 0 -0.0222736 -0.159338 0 0 0 0)
(0 -0.0228195 0 -0.0228195 -0.158828 0 0 0 0)
(0 -0.023419 0 -0.023419 -0.15816 0 0 0 0)
(0 -0.024061 0 -0.024061 -0.15741 0 0 0 0)
(-1.32429e-13 -0.0247367 0 -0.0247367 -0.156601 0 0 0 0)
(0 -0.0253871 0 -0.0253871 -0.155712 0 0 0 0)
(0 -0.0259943 0 -0.0259943 -0.15487 0 0 0 0)
(0 -0.0265427 0 -0.0265427 -0.154057 0 0 0 0)
(0 -0.0270478 0 -0.0270478 -0.153267 0 0 0 0)
(0 -0.0275368 0 -0.0275368 -0.152521 0 0 0 0)
(0 -0.0279952 0 -0.0279952 -0.151729 0 0 0 0)
(0 -0.0284313 0 -0.0284313 -0.150883 0 0 0 0)
(-1.33867e-13 -0.0288686 0 -0.0288686 -0.150046 0 0 0 0)
(0 -0.0292864 0 -0.0292864 -0.14914 0 0 0 0)
(0 -0.0296868 0 -0.0296868 -0.148209 0 0 0 0)
(0 -0.0300618 0 -0.0300618 -0.147218 0 0 0 0)
(0 -0.0304144 0 -0.0304144 -0.146213 0 0 0 0)
(0 -0.0307263 0 -0.0307263 -0.145131 0 0 0 0)
(0 -0.0310151 0 -0.0310151 -0.14405 0 0 0 0)
(0 -0.0312645 0 -0.0312645 -0.142906 0 0 0 0)
(0 -0.0314879 0 -0.0314879 -0.141744 0 0 0 0)
(0 -0.0316877 0 -0.0316877 -0.140569 0 0 0 0)
(0 -0.0318486 0 -0.0318486 -0.139331 0 0 0 0)
(0 -0.0319964 0 -0.0319964 -0.138104 0 0 0 0)
(0 -0.0321221 0 -0.0321221 -0.136834 0 0 0 0)
(0 -0.0322391 0 -0.0322391 -0.135565 0 0 0 0)
(0 -0.0323454 0 -0.0323454 -0.134277 0 0 0 0)
(0 -0.0324407 0 -0.0324407 -0.13298 0 0 0 0)
(0 -0.032516 0 -0.032516 -0.131658 0 0 0 0)
(0 -0.0325709 0 -0.0325709 -0.130318 0 0 0 0)
(0 -0.0326077 0 -0.0326077 -0.128958 0 0 0 0)
(0 -0.0326238 0 -0.0326238 -0.127586 0 0 0 0)
(0 -0.0326043 0 -0.0326043 -0.126174 0 0 0 0)
(0 -0.0325616 0 -0.0325616 -0.124737 0 0 0 0)
(0 -0.0325109 0 -0.0325109 -0.123304 0 0 0 0)
(0 -0.032437 0 -0.032437 -0.121833 0 0 0 0)
(0 -0.0323507 0 -0.0323507 -0.120358 0 0 0 0)
(0 -0.0322525 0 -0.0322525 -0.11886 0 0 0 0)
(0 -0.032153 0 -0.032153 -0.117363 0 0 0 0)
(0 -0.0320462 0 -0.0320462 -0.115854 0 0 0 0)
(0 -0.0319279 0 -0.0319279 -0.114333 0 0 0 0)
(0 -0.0317983 0 -0.0317983 -0.1128 0 0 0 0)
(0 -0.0316581 0 -0.0316581 -0.111261 0 0 0 0)
(0 -0.0315019 0 -0.0315019 -0.109707 0 0 0 0)
(0 -0.0313297 0 -0.0313297 -0.108141 0 0 0 0)
(0 -0.0311438 0 -0.0311438 -0.106566 0 0 0 0)
(0 -0.0309451 0 -0.0309451 -0.10498 0 0 0 0)
(0 -0.0307364 0 -0.0307364 -0.103387 0 0 0 0)
(0 -0.0305187 0 -0.0305187 -0.101785 0 0 0 0)
(0 -0.0302953 0 -0.0302953 -0.100178 0 0 0 0)
(0 -0.0300663 0 -0.0300663 -0.098565 0 0 0 0)
(0 -0.0298309 0 -0.0298309 -0.096946 0 0 0 0)
(0 -0.0295891 0 -0.0295891 -0.0953216 0 0 0 0)
(0 -0.0293403 0 -0.0293403 -0.093692 0 0 0 0)
(0 -0.029083 0 -0.029083 -0.0920562 0 0 0 0)
(0 -0.0288172 0 -0.0288172 -0.0904149 0 0 0 0)
(0 -0.0285433 0 -0.0285433 -0.0887685 0 0 0 0)
(0 -0.0282617 0 -0.0282617 -0.0871172 0 0 0 0)
(0 -0.0279729 0 -0.0279729 -0.0854613 0 0 0 0)
(0 -0.0276779 0 -0.0276779 -0.0838014 0 0 0 0)
(0 -0.0273769 0 -0.0273769 -0.0821377 0 0 0 0)
(0 -0.0270703 0 -0.0270703 -0.0804703 0 0 0 0)
(0 -0.0267583 0 -0.0267583 -0.0787994 0 0 0 0)
(0 -0.026441 0 -0.026441 -0.0771252 0 0 0 0)
(0 -0.0261185 0 -0.0261185 -0.0754478 0 0 0 0)
(0 -0.0257908 0 -0.0257908 -0.0737673 0 0 0 0)
(0 -0.0254583 0 -0.0254583 -0.0720838 0 0 0 0)
(0 -0.0251211 0 -0.0251211 -0.0703976 0 0 0 0)
(0 -0.0247793 0 -0.0247793 -0.0687087 0 0 0 0)
(0 -0.0244333 0 -0.0244333 -0.0670172 0 0 0 0)
(0 -0.0240831 0 -0.0240831 -0.0653233 0 0 0 0)
(0 -0.023729 0 -0.023729 -0.0636269 0 0 0 0)
(0 -0.0233711 0 -0.0233711 -0.0619281 0 0 0 0)
(0 -0.0230098 0 -0.0230098 -0.060227 0 0 0 0)
(0 -0.0226452 0 -0.0226452 -0.0585235 0 0 0 0)
(0 -0.0222778 0 -0.0222778 -0.0568177 0 0 0 0)
(0 -0.0219078 0 -0.0219078 -0.0551095 0 0 0 0)
(0 -0.0215358 0 -0.0215358 -0.0533987 0 0 0 0)
(0 -0.0211621 0 -0.0211621 -0.0516854 0 0 0 0)
(0 -0.0207873 0 -0.0207873 -0.0499693 0 0 0 0)
(0 -0.0204117 0 -0.0204117 -0.0482503 0 0 0 0)
(0 -0.020036 0 -0.020036 -0.0465282 0 0 0 0)
(0 -0.0196607 0 -0.0196607 -0.0448026 0 0 0 0)
(0 -0.0192862 0 -0.0192862 -0.0430733 0 0 0 0)
(0 -0.0189131 0 -0.0189131 -0.0413399 0 0 0 0)
(0 -0.0185421 0 -0.0185421 -0.0396019 0 0 0 0)
(0 -0.0181737 0 -0.0181737 -0.0378589 0 0 0 0)
(0 -0.0178079 0 -0.0178079 -0.0361102 0 0 0 0)
(0 -0.0174441 0 -0.0174441 -0.034355 0 0 0 0)
(0 -0.0170812 0 -0.0170812 -0.0325928 0 0 0 0)
(0 -0.0167179 0 -0.0167179 -0.0308224 0 0 0 0)
(0 -0.0163538 0 -0.0163538 -0.0290423 0 0 0 0)
(0 -0.0159906 0 -0.0159906 -0.02725 0 0 0 0)
(0 -0.0156299 0 -0.0156299 -0.0254426 0 0 0 0)
(0 -0.0152677 0 -0.0152677 -0.0236189 0 0 0 0)
(0 -0.0148916 0 -0.0148916 -0.0217793 0 0 0 0)
(0 -0.0144921 0 -0.0144921 -0.0199239 0 0 0 0)
(0 -0.0140769 0 -0.0140769 -0.0180481 0 0 0 0)
(0 -0.0136579 0 -0.0136579 -0.0161454 0 0 0 0)
(0 -0.0132137 0 -0.0132137 -0.0142316 0 0 0 0)
(0 -0.0126782 0 -0.0126782 -0.0123626 0 0 0 0)
(0 -0.0120129 0 -0.0120129 -0.0105651 0 0 0 0)
(0 -0.0113274 0 -0.0113274 -0.0087266 0 0 0 0)
(0 -0.0107732 0 -0.0107732 -0.00675265 0 0 0 0)
(0 -0.0100985 0 -0.0100985 -0.00454547 0 0 0 0)
(0 -0.00917619 0 -0.00917619 -0.00194019 0 0 0 0)
(0 -0.00789576 0 -0.00789576 0.00189287 0 0 0 0)
(0 -0.00585038 0 -0.00585038 0.00360121 0 0 0 0)
(0 -0.00279932 0 -0.00279932 1.22818e-05 0 0 0 0)
(0 -0.00202357 0 -0.00202357 1.87718e-05 0 0 0 0)
(0 -0.00296461 0 -0.00296461 2.08156e-05 0 0 0 0)
(0 -0.00295841 0 -0.00295841 1.15362e-05 0 0 0 0)
(0 -0.00253171 0 -0.00253171 7.6402e-06 0 0 0 0)
(0 -0.00227047 0 -0.00227047 7.4508e-06 0 0 0 0)
(0 -0.00213271 0 -0.00213271 9.73634e-06 0 0 0 0)
(0 -0.00209291 0 -0.00209291 1.30581e-05 0 0 0 0)
(0 -0.00213428 0 -0.00213428 1.79472e-05 0 0 0 0)
(0 -0.00224699 0 -0.00224699 2.49075e-05 0 0 0 0)
(0 -0.00242587 0 -0.00242587 3.45363e-05 0 0 0 0)
(0 -0.00266898 0 -0.00266898 4.75417e-05 0 0 0 0)
(0 -0.00297661 0 -0.00297661 6.475e-05 0 0 0 0)
(0 -0.00335073 0 -0.00335073 8.70821e-05 0 0 0 0)
(0 -0.0037942 0 -0.0037942 0.000115494 0 0 0 0)
(0 -0.00431053 0 -0.00431053 0.000150934 0 0 0 0)
(0 -0.00490314 0 -0.00490314 0.000194276 0 0 0 0)
(0 -0.00557491 0 -0.00557491 0.000246254 0 0 0 0)
(0 -0.00632769 0 -0.00632769 0.000307381 0 0 0 0)
(0 -0.00716188 0 -0.00716188 0.00037783 0 0 0 0)
(0 -0.00807615 0 -0.00807615 0.000457185 0 0 0 0)
(0 -0.00906767 0 -0.00906767 0.000543167 0 0 0 0)
(0 -0.0101344 0 -0.0101344 0.000626519 0 0 0 0)
(0 -0.0112834 0 -0.0112834 0.000678695 0 0 0 0)
(0 -0.0125464 0 -0.0125464 0.000636911 0 0 0 0)
(0 -0.0139891 0 -0.0139891 0.000406019 0 0 0 0)
(0 -0.0156851 0 -0.0156851 -0.000103918 0 0 0 0)
(0 -0.0176503 0 -0.0176503 -0.000914925 0 0 0 0)
(0 -0.0197857 0 -0.0197857 -0.00193754 0 0 0 0)
(0 -0.021894 0 -0.021894 -0.00299263 0 0 0 0)
(0 -0.023762 0 -0.023762 -0.0038911 0 0 0 0)
(0 -0.0252349 0 -0.0252349 -0.0045038 0 0 0 0)
(0 -0.0262358 0 -0.0262358 -0.00477678 0 0 0 0)
(0 -0.0267497 0 -0.0267497 -0.00471051 0 0 0 0)
(0 -0.026802 0 -0.026802 -0.00433578 0 0 0 0)
(0 -0.0264415 0 -0.0264415 -0.00369902 0 0 0 0)
(0 -0.0257308 0 -0.0257308 -0.00285617 0 0 0 0)
(0 -0.0247415 0 -0.0247415 -0.00187231 0 0 0 0)
(0 -0.0235525 0 -0.0235525 -0.000825149 0 0 0 0)
(0 -0.0222509 0 -0.0222509 0.000187263 0 0 0 0)
(0 -0.0209357 0 -0.0209357 0.00103657 0 0 0 0)
(0 -0.0197145 0 -0.0197145 0.00156378 0 0 0 0)
(0 -0.0186748 0 -0.0186748 0.00161831 0 0 0 0)
(0 -0.017817 0 -0.017817 0.00116034 0 0 0 0)
(0 -0.0170027 0 -0.0170027 0.000367719 0 0 0 0)
(0 -0.0160404 0 -0.0160404 -0.000430319 0 0 0 0)
(0 -0.0148785 0 -0.0148785 -0.00105156 0 0 0 0)
(0 -0.0136313 0 -0.0136313 -0.00161712 0 0 0 0)
(0 -0.0123937 0 -0.0123937 -0.00229454 0 0 0 0)
(0 -0.011153 0 -0.011153 -0.00304743 0 0 0 0)
(0 -0.00989054 0 -0.00989054 -0.00376888 0 0 0 0)
(0 -0.00864215 0 -0.00864215 -0.00448572 0 0 0 0)
(0 -0.00744547 0 -0.00744547 -0.00527612 0 0 0 0)
(0 -0.00630949 0 -0.00630949 -0.00610271 0 0 0 0)
(0 -0.00522565 0 -0.00522565 -0.00682794 0 0 0 0)
(0 -0.00416676 0 -0.00416676 -0.00745447 0 0 0 0)
(1.64211e-14 -0.00312328 0 -0.00312328 -0.00823683 0 0 0 0)
(0 -0.00210159 0 -0.00210159 -0.0092398 0 0 0 0)
(0 -0.00108329 0 -0.00108329 -0.0100376 0 0 0 0)
(-1.73413e-14 -6.13859e-05 0 -6.13859e-05 -0.0104977 0 0 0 0)
(0 0.000961755 0 0.000961755 -0.0112706 0 0 0 0)
(0 0.0019737 0 0.0019737 -0.0124789 0 0 0 0)
(0 0.00293938 0 0.00293938 -0.0132728 0 0 0 0)
(-1.76752e-14 0.00388592 0 0.00388592 -0.0137627 0 0 0 0)
(0 0.00486377 0 0.00486377 -0.0147564 0 0 0 0)
(0 0.00580635 0 0.00580635 -0.0157918 0 0 0 0)
(0 0.00669019 0 0.00669019 -0.016445 0 0 0 0)
(-1.71198e-14 0.00759818 0 0.00759818 -0.0173452 0 0 0 0)
(0 0.00846428 0 0.00846428 -0.0182476 0 0 0 0)
(0 0.00923692 0 0.00923692 -0.0186809 0 0 0 0)
(0 0.0100844 0 0.0100844 -0.0195217 0 0 0 0)
(0 0.0109499 0 0.0109499 -0.0206954 0 0 0 0)
(0 0.0116104 0 0.0116104 -0.0210044 0 0 0 0)
(1.50359e-14 0.0122884 0 0.0122884 -0.0212384 0 0 0 0)
(0 0.0131255 0 0.0131255 -0.0221798 0 0 0 0)
(1.41585e-14 0.0138527 0 0.0138527 -0.0226811 0 0 0 0)
(0 0.0145567 0 0.0145567 -0.0228344 0 0 0 0)
(1.31987e-14 0.0153265 0 0.0153265 -0.0231029 0 0 0 0)
(0 0.0160691 0 0.0160691 -0.0231373 0 0 0 0)
(0 0.016969 0 0.016969 -0.0235942 0 0 0 0)
(0 0.0177989 0 0.0177989 -0.0240469 0 0 0 0)
(0 0.0184333 0 0.0184333 -0.0240038 0 0 0 0)
(-1.05234e-14 0.019309 0 0.019309 -0.0248144 0 0 0 0)
(0 0.0201422 0 0.0201422 -0.0259519 0 0 0 0)
(0 0.0205262 0 0.0205262 -0.0264181 0 0 0 0)
(0 0.0200894 0 0.0200894 -0.0256849 0 0 0 0)
(0 0.0180668 0 0.0180668 -0.0220258 0 0 0 0)
(0 0.0146694 0 0.0146694 -0.0159695 0 0 0 0)
(0 0.0108464 0 0.0108464 -0.00966018 0 0 0 0)
(0 0.00928266 0 0.00928266 -0.00714992 0 0 0 0)
(0 0 0 0 -0 0 0 0 0)
(0 0 0 0 -0 0 0 0 0)
(0 0 0 0 -0 0 0 0 0)
(0 0 0 0 0 0 0 0 0)
(0 0 0 0 0 0 0 0 0)
(0 0 0 0 0 0 0 0 0)
(0 0 0 0 0 0 0 0 0)
(0 0 0 0 0 0 0 0 0)
(-0 0 0 0 -0 0 0 0 0)
(0 0 0 0 0 0 0 0 0)
(0 0 0 0 -0 0 0 0 0)
(0 0 0 0 -0 0 0 0 0)
(0 0 0 0 -0 0 0 0 0)
(0 0 0 0 -0 0 0 0 0)
(0 0 0 0 -0 0 0 0 0)
(0 0 0 0 -0 0 0 0 0)
(0 0 0 0 -0 0 0 0 0)
(0 0 0 0 -0 0 0 0 0)
(0 0 0 0 -0 0 0 0 0)
(0 0 0 0 -0 0 0 0 0)
(0 0 0 0 -0 0 0 0 0)
(0 0 0 0 0 0 0 0 0)
(0 0 0 0 -0 0 0 0 0)
(0 0 0 0 0 0 0 0 0)
(0 0 0 0 -0 0 0 0 0)
(0 0 0 0 0 0 0 0 0)
(0 0 0 0 -0 0 0 0 0)
(0 0 0 0 0 0 0 0 0)
(0 0 0 0 -0 0 0 0 0)
(0 0 0 0 0 0 0 0 0)
(-0 0 0 0 -0 0 0 0 0)
(0 0 0 0 0 0 0 0 0)
(0 0 0 0 0 0 0 0 0)
(0 0 0 0 -0 0 0 0 0)
(0 0 0 0 0 0 0 0 0)
(0 0 0 0 0 0 0 0 0)
(0 0 0 0 -0 0 0 0 0)
(0 0 0 0 0 0 0 0 0)
(0 0 0 0 -0 0 0 0 0)
(0 0 0 0 0 0 0 0 0)
(0 0 0 0 -0 0 0 0 0)
(0 0 0 0 0 0 0 0 0)
(0 0 0 0 -0 0 0 0 0)
(0 0 0 0 0 0 0 0 0)
(0 0 0 0 -0 0 0 0 0)
(0 0 0 0 0 0 0 0 0)
(0 0 0 0 -0 0 0 0 0)
(0 0 0 0 0 0 0 0 0)
(0 0 0 0 -0 0 0 0 0)
(0 0 0 0 0 0 0 0 0)
(-0 0 0 0 -0 0 0 0 0)
(0 0 0 0 0 0 0 0 0)
(0 0 0 0 -0 0 0 0 0)
(0 0 0 0 0 0 0 0 0)
(0 0 0 0 -0 0 0 0 0)
(0 0 0 0 0 0 0 0 0)
(0 0 0 0 -0 0 0 0 0)
(0 -0 0 -0 0 0 0 0 0)
(0 0 0 0 -0 0 0 0 0)
(0 -0 0 -0 0 0 0 0 0)
(-0 0 0 0 -0 0 0 0 0)
(0 -0 0 -0 0 0 0 0 0)
(0 0 0 0 -0 0 0 0 0)
(0 -0 0 -0 0 0 0 0 0)
(0 0 0 0 -0 0 0 0 0)
(0 -0 0 -0 0 0 0 0 0)
(0 0 0 0 -0 0 0 0 0)
(0 -0 0 -0 0 0 0 0 0)
(0 0 0 0 -0 0 0 0 0)
(0 -0 0 -0 0 0 0 0 0)
(0 0 0 0 -0 0 0 0 0)
(0 -0 0 -0 0 0 0 0 0)
(0 0 0 0 -0 0 0 0 0)
(0 -0 0 -0 0 0 0 0 0)
(0 -0 0 -0 0 0 0 0 0)
(0 -0 0 -0 0 0 0 0 0)
(0 0 0 0 -0 0 0 0 0)
(0 -0 0 -0 0 0 0 0 0)
(0 0 0 0 -0 0 0 0 0)
(0 -0 0 -0 0 0 0 0 0)
(0 0 0 0 -0 0 0 0 0)
(0 -0 0 -0 0 0 0 0 0)
(0 0 0 0 -0 0 0 0 0)
(0 -0 0 -0 0 0 0 0 0)
(0 0 0 0 -0 0 0 0 0)
(0 -0 0 -0 0 0 0 0 0)
(0 0 0 0 -0 0 0 0 0)
(0 -0 0 -0 0 0 0 0 0)
(0 0 0 0 -0 0 0 0 0)
(0 -0 0 -0 0 0 0 0 0)
(0 0 0 0 -0 0 0 0 0)
(0 -0 0 -0 0 0 0 0 0)
(0 0 0 0 -0 0 0 0 0)
(0 -0 0 -0 0 0 0 0 0)
(0 0 0 0 -0 0 0 0 0)
(0 -0 0 -0 0 0 0 0 0)
(0 0 0 0 -0 0 0 0 0)
(0 -0 0 -0 0 0 0 0 0)
(0 0 0 0 -0 0 0 0 0)
(0 -0 0 -0 0 0 0 0 0)
(0 0 0 0 -0 0 0 0 0)
(0 -0 0 -0 0 0 0 0 0)
(0 0 0 0 -0 0 0 0 0)
(0 -0 0 -0 0 0 0 0 0)
(0 0 0 0 -0 0 0 0 0)
(0 -0 0 -0 0 0 0 0 0)
(0 0 0 0 -0 0 0 0 0)
(0 -0 0 -0 0 0 0 0 0)
(0 0 0 0 -0 0 0 0 0)
(0 -0 0 -0 0 0 0 0 0)
(0 0 0 0 -0 0 0 0 0)
(0 -0 0 -0 0 0 0 0 0)
(0 0 0 0 -0 0 0 0 0)
(0 -0 0 -0 0 0 0 0 0)
(0 0 0 0 -0 0 0 0 0)
(0 0 0 0 0 0 0 0 0)
(0 0 0 0 -0 0 0 0 0)
(0 0 0 0 0 0 0 0 0)
(0 0 0 0 0 0 0 0 0)
(0 0 0 0 0 0 0 0 0)
(0 0 0 0 0 0 0 0 0)
(0 0 0 0 0 0 0 0 0)
(0 0 0 0 0 0 0 0 0)
(0 0 0 0 0 0 0 0 0)
)
;

boundaryField
{
    inandouthalf11
    {
        type            cyclic;
    }
    inandouthalf12
    {
        type            cyclic;
    }
    inandouthalf21
    {
        type            cyclic;
    }
    inandouthalf22
    {
        type            cyclic;
    }
    inandouthalf31
    {
        type            cyclic;
    }
    inandouthalf32
    {
        type            cyclic;
    }
    inandouthalf41
    {
        type            cyclic;
    }
    inandouthalf42
    {
        type            cyclic;
    }
    top
    {
        type            symmetryPlane;
    }
    walls
    {
        type            zeroGradient;
    }
    frontAndBackPlanes
    {
        type            empty;
    }
}


// ************************************************************************* //
