/*--------------------------------*- C++ -*----------------------------------*\
| =========                 |                                                 |
| \\      /  F ield         | OpenFOAM: The Open Source CFD Toolbox           |
|  \\    /   O peration     | Version:  2.4.x                                 |
|   \\  /    A nd           | Web:      www.OpenFOAM.org                      |
|    \\/     M anipulation  |                                                 |
\*---------------------------------------------------------------------------*/
FoamFile
{
    version     2.0;
    format      ascii;
    class       volScalarField;
    location    "4.35";
    object      Theta_0;
}
// * * * * * * * * * * * * * * * * * * * * * * * * * * * * * * * * * * * * * //

dimensions      [0 2 -2 0 0 0 0];

internalField   nonuniform List<scalar> 
360
(
6.67209e-21
6.70412e-21
6.69724e-21
6.6904e-21
6.69054e-21
6.69241e-21
6.69402e-21
6.69504e-21
6.69559e-21
6.69603e-21
6.69664e-21
6.6975e-21
6.69852e-21
6.69963e-21
6.70081e-21
6.70208e-21
6.70345e-21
6.70483e-21
6.70611e-21
6.7071e-21
6.70762e-21
6.70755e-21
6.70689e-21
6.70581e-21
6.70468e-21
6.7041e-21
6.70487e-21
6.70809e-21
6.71533e-21
6.72906e-21
6.75279e-21
6.78879e-21
6.82954e-21
6.84605e-21
6.80663e-21
6.73316e-21
6.68186e-21
6.66467e-21
6.66168e-21
6.66138e-21
6.66136e-21
6.66136e-21
6.66135e-21
6.66135e-21
6.66135e-21
6.66135e-21
6.66135e-21
6.66135e-21
6.66135e-21
6.66135e-21
6.66135e-21
6.66135e-21
6.66135e-21
6.66135e-21
6.66135e-21
6.66135e-21
6.66135e-21
6.66135e-21
6.66135e-21
6.66135e-21
6.66135e-21
6.66135e-21
6.66135e-21
6.66135e-21
6.66135e-21
6.66135e-21
6.66134e-21
6.66134e-21
6.66134e-21
6.66134e-21
6.66134e-21
6.66134e-21
6.66134e-21
6.66134e-21
6.66134e-21
6.66134e-21
6.66134e-21
6.66134e-21
6.66133e-21
6.66133e-21
6.66133e-21
6.66133e-21
6.66133e-21
6.66133e-21
6.66133e-21
6.66133e-21
6.66133e-21
6.66133e-21
6.66132e-21
6.66132e-21
6.66132e-21
6.66132e-21
6.66132e-21
6.66132e-21
6.66132e-21
6.66131e-21
6.66131e-21
6.66131e-21
6.66131e-21
6.66124e-21
0
0
0
0
0
0
0
0
0
0
0
0
0
0
0
6.66128e-21
6.66128e-21
6.66127e-21
6.66127e-21
6.66127e-21
6.66126e-21
6.66126e-21
6.66126e-21
6.66126e-21
6.66125e-21
6.66125e-21
6.66125e-21
6.66124e-21
6.66124e-21
6.66124e-21
6.66123e-21
6.66123e-21
6.66123e-21
7.18619e-21
4.08861e-20
3.36869e-19
3.03592e-18
2.99587e-17
3.28505e-16
4.04498e-15
5.63341e-14
8.95136e-13
1.64915e-11
3.67214e-10
1.6108e-08
1.23164e-06
3.28908e-05
0.000423678
0.00194622
0.00325614
0.0038881
0.00429378
0.00458087
0.00479524
0.00495635
0.00507223
0.00514627
0.00518049
0.00517716
0.00513946
0.00507106
0.00497644
0.00486024
0.00472718
0.00458192
0.00442894
0.00427245
0.00411632
0.00396395
0.00381815
0.00368106
0.00355398
0.0034374
0.00333103
0.00323414
0.00314578
0.00306504
0.00299107
0.00292317
0.0028607
0.00280311
0.0027499
0.00270059
0.00265477
0.00261204
0.00257203
0.00253438
0.00249877
0.00246487
0.00243239
0.00240104
0.00237059
0.00234087
0.00231172
0.00228303
0.0022547
0.00222664
0.00219879
0.00217108
0.00214347
0.00211592
0.0020881
0.00205971
0.00203069
0.00200101
0.00197063
0.0019395
0.00190757
0.0018748
0.00184115
0.00180657
0.00177101
0.0017344
0.0016967
0.00165785
0.00161777
0.0015764
0.00153365
0.00148945
0.00144369
0.00139627
0.00134706
0.00129594
0.00124274
0.00118727
0.00112933
0.00106866
0.00100493
0.000937764
0.000866663
0.000790974
0.000709805
0.00062187
0.000525166
0.00041618
0.000287258
0
0
0
0
0
0
0
0
0
0
0
0
0
0
0
0
0
0
0
0
0
0
0
0
0
0
0
0
0
0
0
0
0
0
0
0
0
0
0
0
0
0
0
0
0
0
0
0
0
0
0
0
0
0
0
0
0
0
0
0
0
0
0
0
0
0
0
0
0
0
0
0
0
0
0
0
0
0
0
0
0
0
0
0
0
0
0
0
0
0
0
0
0
0
0
0
0
0
0
0
0
0
0
0
0
0
0
0
0
0
0
0
0
0
0
0
0
0
0
0
0
0
0
0
)
;

boundaryField
{
    inandouthalf11
    {
        type            cyclic;
    }
    inandouthalf12
    {
        type            cyclic;
    }
    inandouthalf21
    {
        type            cyclic;
    }
    inandouthalf22
    {
        type            cyclic;
    }
    inandouthalf31
    {
        type            cyclic;
    }
    inandouthalf32
    {
        type            cyclic;
    }
    inandouthalf41
    {
        type            cyclic;
    }
    inandouthalf42
    {
        type            cyclic;
    }
    top
    {
        type            symmetryPlane;
    }
    walls
    {
        type            zeroGradient;
    }
    frontAndBackPlanes
    {
        type            empty;
    }
}


// ************************************************************************* //
