/*--------------------------------*- C++ -*----------------------------------*\
| =========                 |                                                 |
| \\      /  F ield         | OpenFOAM: The Open Source CFD Toolbox           |
|  \\    /   O peration     | Version:  2.4.x                                 |
|   \\  /    A nd           | Web:      www.OpenFOAM.org                      |
|    \\/     M anipulation  |                                                 |
\*---------------------------------------------------------------------------*/
FoamFile
{
    version     2.0;
    format      ascii;
    class       volScalarField;
    location    "4.35";
    object      tmf;
}
// * * * * * * * * * * * * * * * * * * * * * * * * * * * * * * * * * * * * * //

dimensions      [0 0 0 0 0 0 0];

internalField   nonuniform List<scalar> 
360
(
0.999205
0.999207
0.999207
0.999207
0.999207
0.999207
0.999207
0.999207
0.999207
0.999206
0.999206
0.999206
0.999206
0.999206
0.999206
0.999206
0.999206
0.999206
0.999206
0.999205
0.999205
0.999205
0.999205
0.999205
0.999205
0.999205
0.999205
0.999205
0.999205
0.999204
0.999204
0.999204
0.999204
0.999204
0.999204
0.999204
0.999203
0.999203
0.999203
0.999203
0.999203
0.999203
0.999203
0.999203
0.999203
0.999203
0.999203
0.999203
0.999203
0.999203
0.999203
0.999203
0.999203
0.999203
0.999203
0.999203
0.999203
0.999203
0.999202
0.999202
0.999202
0.999202
0.999202
0.999202
0.999202
0.999202
0.999202
0.999202
0.999201
0.999201
0.999201
0.999201
0.999201
0.999201
0.999201
0.999201
0.9992
0.9992
0.9992
0.9992
0.9992
0.9992
0.9992
0.999199
0.999199
0.999199
0.999199
0.999199
0.999199
0.999198
0.999198
0.999198
0.999198
0.999198
0.999197
0.999197
0.999197
0.999197
0.999197
0.999196
0.999196
0.999196
0.999196
0.999195
0.999195
0.999195
0.999194
0.999194
0.999194
0.999194
0.999193
0.999193
0.999193
0.999192
0.999192
0.999192
0.999191
0.999191
0.99919
0.99919
0.99919
0.999189
0.999189
0.999188
0.999188
0.999187
0.999187
0.999186
0.999186
0.999185
0.999185
0.999184
0.999183
0.998535
0.998121
0.997836
0.997491
0.99706
0.996523
0.995855
0.995012
0.99393
0.992531
0.990719
0.988377
0.985338
0.981155
0.964183
0.908889
0.883425
0.870239
0.870938
0.872855
0.875683
0.879357
0.883825
0.888975
0.894642
0.900638
0.906791
0.912959
0.919037
0.924953
0.930661
0.93613
0.941341
0.946281
0.950943
0.955323
0.95942
0.963235
0.966773
0.970037
0.973036
0.975777
0.978266
0.98051
0.982517
0.984294
0.985848
0.987193
0.988345
0.98932
0.99014
0.990824
0.991392
0.991862
0.992248
0.992565
0.992823
0.993032
0.9932
0.993333
0.993436
0.993514
0.99357
0.993608
0.99363
0.993638
0.993634
0.993619
0.993594
0.99356
0.993516
0.993464
0.993403
0.993333
0.993254
0.993166
0.993069
0.992962
0.992845
0.992717
0.992576
0.992421
0.99225
0.992061
0.99185
0.991613
0.991345
0.991039
0.990699
0.990382
0.990346
0.990723
0.991209
0.991672
0.992098
0.992492
0.992861
0.993213
0.993554
0.99389
0.994228
0.994574
0.994935
0.995317
0.995481
0.996148
0.996697
0.9974
0.997919
0.998042
0.998036
0.998026
0.998017
0.998008
0.997996
0.997764
0.994587
0.99419
0.99419
0.99419
0.99419
0.99419
0.99419
0.99419
0.99419
0.99419
0.99419
0.99419
0.99419
0.99419
0.99419
0.99419
0.99419
0.99419
0.99419
0.99419
0.99419
0.99419
0.99419
0.99419
0.99419
0.99419
0.99419
0.99419
0.99419
0.99419
0.99419
0.99419
0.99419
0.99419
0.99419
0.99419
0.99419
0.99419
0.99419
0.99419
0.99419
0.99419
0.99419
0.99419
0.99419
0.99419
0.99419
0.99419
0.99419
0.99419
0.99419
0.99419
0.99419
0.99419
0.99419
0.99419
0.99419
0.99419
0.99419
0.99419
0.99419
0.99419
0.99419
0.99419
0.99419
0.99419
0.99419
0.99419
0.99419
0.99419
0.99419
0.99419
0.99419
0.99419
0.99419
0.99419
0.99419
0.99419
0.99419
0.99419
0.99419
0.99419
0.99419
0.99419
0.99419
0.99419
0.99419
0.99419
0.99419
0.99419
0.99419
0.99419
0.99419
0.99419
0.99419
0.99419
0.99419
0.99419
0.99419
0.99419
0.99419
0.99419
0.99419
0.99419
0.99419
0.99419
0.99419
0.99419
0.994189
0.994174
0.99324
)
;

boundaryField
{
    inandouthalf11
    {
        type            cyclic;
    }
    inandouthalf12
    {
        type            cyclic;
    }
    inandouthalf21
    {
        type            cyclic;
    }
    inandouthalf22
    {
        type            cyclic;
    }
    inandouthalf31
    {
        type            cyclic;
    }
    inandouthalf32
    {
        type            cyclic;
    }
    inandouthalf41
    {
        type            cyclic;
    }
    inandouthalf42
    {
        type            cyclic;
    }
    top
    {
        type            symmetryPlane;
    }
    walls
    {
        type            calculated;
        value           uniform 0;
    }
    frontAndBackPlanes
    {
        type            empty;
    }
}


// ************************************************************************* //
