/*--------------------------------*- C++ -*----------------------------------*\
| =========                 |                                                 |
| \\      /  F ield         | OpenFOAM: The Open Source CFD Toolbox           |
|  \\    /   O peration     | Version:  2.4.x                                 |
|   \\  /    A nd           | Web:      www.OpenFOAM.org                      |
|    \\/     M anipulation  |                                                 |
\*---------------------------------------------------------------------------*/
FoamFile
{
    version     2.0;
    format      ascii;
    class       volVectorField;
    location    "4.35";
    object      U;
}
// * * * * * * * * * * * * * * * * * * * * * * * * * * * * * * * * * * * * * //

dimensions      [0 1 -1 0 0 0 0];

internalField   nonuniform List<vector> 
360
(
(-1.84114e-05 4.28157e-08 0)
(-1.83788e-05 -1.54956e-09 0)
(-1.84128e-05 -9.15899e-09 0)
(-1.8479e-05 -2.31215e-09 0)
(-1.85443e-05 1.07855e-09 0)
(-1.8607e-05 1.21117e-09 0)
(-1.86709e-05 7.46842e-10 0)
(-1.87361e-05 3.89625e-10 0)
(-1.88021e-05 2.07271e-10 0)
(-1.88689e-05 2.38685e-10 0)
(-1.89368e-05 3.78976e-10 0)
(-1.90058e-05 4.94462e-10 0)
(-1.90759e-05 5.55622e-10 0)
(-1.91473e-05 5.79149e-10 0)
(-1.92199e-05 6.06414e-10 0)
(-1.9294e-05 6.46673e-10 0)
(-1.93697e-05 6.70494e-10 0)
(-1.94469e-05 6.47263e-10 0)
(-1.95256e-05 5.453e-10 0)
(-1.96057e-05 3.63474e-10 0)
(-1.96867e-05 8.90442e-11 0)
(-1.97684e-05 -2.01499e-10 0)
(-1.985e-05 -4.6664e-10 0)
(-1.99313e-05 -6.12134e-10 0)
(-2.00118e-05 -5.22431e-10 0)
(-2.00919e-05 -8.51345e-11 0)
(-2.01723e-05 7.93027e-10 0)
(-2.02549e-05 2.21885e-09 0)
(-2.03422e-05 4.25236e-09 0)
(-2.04382e-05 6.94395e-09 0)
(-2.0548e-05 9.94524e-09 0)
(-2.06772e-05 1.18622e-08 0)
(-2.08285e-05 9.20776e-09 0)
(-2.09967e-05 -1.55009e-09 0)
(-2.11606e-05 -1.78131e-08 0)
(-2.12904e-05 -2.73282e-08 0)
(-2.13687e-05 -2.27528e-08 0)
(-2.14042e-05 -1.18199e-08 0)
(-2.1417e-05 -4.16317e-09 0)
(-2.14213e-05 -1.17897e-09 0)
(-2.14237e-05 -2.76816e-10 0)
(-2.14254e-05 -6.82311e-11 0)
(-2.14269e-05 -5.52462e-11 0)
(-2.14288e-05 8.98669e-13 0)
(-2.14306e-05 -1.44097e-11 0)
(-2.14326e-05 -1.03689e-11 0)
(-2.14348e-05 1.19716e-11 0)
(-2.1437e-05 -2.63459e-11 0)
(-2.14395e-05 -2.35501e-11 0)
(-2.14423e-05 1.53202e-11 0)
(-2.14452e-05 -2.54555e-11 0)
(-2.14483e-05 -5.43711e-12 0)
(-2.14516e-05 -2.41493e-11 0)
(-2.14552e-05 -3.86407e-12 0)
(-2.14589e-05 -4.03942e-11 0)
(-2.1463e-05 7.57208e-13 0)
(-2.14672e-05 -3.55631e-11 0)
(-2.14718e-05 -1.1794e-11 0)
(-2.14766e-05 -8.34709e-12 0)
(-2.14815e-05 -3.90527e-11 0)
(-2.14869e-05 5.1053e-12 0)
(-2.14922e-05 -2.48046e-11 0)
(-2.14979e-05 7.44127e-13 0)
(-2.15037e-05 -1.06056e-11 0)
(-2.15096e-05 -4.99152e-12 0)
(-2.15156e-05 -1.73721e-11 0)
(-2.15219e-05 -1.5299e-11 0)
(-2.15284e-05 -1.48233e-11 0)
(-2.15351e-05 -1.27217e-11 0)
(-2.1542e-05 -3.41304e-11 0)
(-2.15493e-05 -2.14194e-11 0)
(-2.15569e-05 -1.04005e-12 0)
(-2.15645e-05 -3.03069e-11 0)
(-2.15726e-05 -7.70731e-12 0)
(-2.15808e-05 -1.91268e-11 0)
(-2.15893e-05 -1.153e-12 0)
(-2.15978e-05 -1.30092e-11 0)
(-2.16066e-05 -1.4837e-11 0)
(-2.16156e-05 -1.58629e-11 0)
(-2.16248e-05 -1.31917e-11 0)
(-2.16342e-05 -2.1602e-11 0)
(-2.16439e-05 -2.07362e-11 0)
(-2.16538e-05 -1.91879e-11 0)
(-2.16641e-05 -2.02426e-11 0)
(-2.16746e-05 -1.77592e-11 0)
(-2.16853e-05 -1.88378e-11 0)
(-2.16963e-05 -1.56464e-11 0)
(-2.17075e-05 -1.68171e-11 0)
(-2.1719e-05 -1.86506e-11 0)
(-2.17307e-05 -1.92119e-11 0)
(-2.17427e-05 -2.05059e-11 0)
(-2.1755e-05 -2.32523e-11 0)
(-2.17675e-05 -2.39515e-11 0)
(-2.17804e-05 -2.47884e-11 0)
(-2.17935e-05 -2.56047e-11 0)
(-2.1807e-05 -2.6166e-11 0)
(-2.18208e-05 -2.66832e-11 0)
(-2.18349e-05 -2.75165e-11 0)
(-2.18493e-05 -2.86639e-11 0)
(-2.18641e-05 -2.97971e-11 0)
(-2.18793e-05 -3.1178e-11 0)
(-2.18948e-05 -3.27275e-11 0)
(-2.19107e-05 -3.41823e-11 0)
(-2.1927e-05 -3.56953e-11 0)
(-2.19437e-05 -3.7327e-11 0)
(-2.19608e-05 -3.90255e-11 0)
(-2.19784e-05 -4.08449e-11 0)
(-2.19965e-05 -4.28053e-11 0)
(-2.2015e-05 -4.48718e-11 0)
(-2.2034e-05 -4.70394e-11 0)
(-2.20535e-05 -4.93069e-11 0)
(-2.20736e-05 -5.16646e-11 0)
(-2.20943e-05 -5.41169e-11 0)
(-2.21155e-05 -5.66684e-11 0)
(-2.21374e-05 -5.93193e-11 0)
(-2.21599e-05 -6.20791e-11 0)
(-2.21831e-05 -6.49696e-11 0)
(-2.2207e-05 -6.80142e-11 0)
(-2.22317e-05 -7.12287e-11 0)
(-2.22571e-05 -7.46202e-11 0)
(-2.22834e-05 -7.81838e-11 0)
(-2.23105e-05 -8.19121e-11 0)
(-2.23386e-05 -8.58664e-11 0)
(-2.23676e-05 -9.03038e-11 0)
(-2.23976e-05 -9.57582e-11 0)
(-2.24286e-05 -1.02938e-10 0)
(-2.24608e-05 -1.12267e-10 0)
(-2.24942e-05 -1.2306e-10 0)
(-2.2529e-05 -1.32963e-10 0)
(-2.25652e-05 -1.39525e-10 0)
(-2.26028e-05 -1.45475e-10 0)
(-2.26421e-05 -1.64454e-10 0)
(-2.26831e-05 -2.0917e-10 0)
(-2.27262e-05 -2.55967e-10 0)
(-2.27721e-05 -2.53174e-10 0)
(-2.28208e-05 -2.23553e-10 0)
(-2.28718e-05 -2.90689e-10 0)
(-2.29261e-05 -5.48422e-10 0)
(-2.29862e-05 -8.39018e-10 0)
(-2.30553e-05 -5.46337e-10 0)
(-2.31304e-05 3.73048e-10 0)
(-2.3202e-05 -1.26496e-09 0)
(-2.32872e-05 -2.36739e-09 0)
(-2.3398e-05 -2.32446e-09 0)
(-2.35347e-05 -5.74322e-09 0)
(-2.37781e-05 -3.10074e-07 0)
(-3.50776e-05 3.19113e-06 0)
(-0.0129262 -3.38183e-06 0)
(-0.111534 -5.37624e-05 0)
(-0.215569 3.33884e-06 0)
(-0.29857 -1.2439e-06 0)
(-0.367441 -1.71829e-06 0)
(-0.426004 -1.27487e-06 0)
(-0.476622 -9.9969e-07 0)
(-0.520923 -8.75522e-07 0)
(-0.560095 -8.05131e-07 0)
(-0.595038 -7.45862e-07 0)
(-0.626455 -6.82985e-07 0)
(-0.654898 -6.12515e-07 0)
(-0.680805 -5.36481e-07 0)
(-0.70453 -4.58767e-07 0)
(-0.726357 -3.84327e-07 0)
(-0.746513 -3.15856e-07 0)
(-0.765183 -2.54892e-07 0)
(-0.782519 -2.0206e-07 0)
(-0.798638 -1.57426e-07 0)
(-0.813637 -1.20268e-07 0)
(-0.827589 -8.85517e-08 0)
(-0.840551 -5.95291e-08 0)
(-0.852563 -3.28854e-08 0)
(-0.863654 -1.33645e-08 0)
(-0.87384 -5.81229e-09 0)
(-0.883131 -6.07127e-09 0)
(-0.89153 -4.23092e-09 0)
(-0.899045 2.19883e-09 0)
(-0.905685 7.78421e-09 0)
(-0.911472 9.01822e-09 0)
(-0.916442 7.20293e-09 0)
(-0.920641 4.80288e-09 0)
(-0.924132 2.96883e-09 0)
(-0.926982 1.78908e-09 0)
(-0.929267 1.06125e-09 0)
(-0.931061 6.104e-10 0)
(-0.932431 3.28674e-10 0)
(-0.933441 1.62451e-10 0)
(-0.934144 1.02181e-10 0)
(-0.934586 1.48271e-10 0)
(-0.934805 2.23516e-10 0)
(-0.934832 1.41546e-10 0)
(-0.934692 -1.50441e-10 0)
(-0.934407 -3.55824e-10 0)
(-0.933994 -2.01815e-10 0)
(-0.933466 1.07843e-10 0)
(-0.932836 1.78035e-10 0)
(-0.932113 1.88476e-11 0)
(-0.931307 -5.60851e-11 0)
(-0.930424 1.03791e-11 0)
(-0.92947 4.91675e-11 0)
(-0.928452 2.20059e-11 0)
(-0.927373 -2.23714e-11 0)
(-0.92624 -2.20729e-11 0)
(-0.925042 4.58921e-11 0)
(-0.92377 5.3926e-11 0)
(-0.922422 -4.23371e-11 0)
(-0.921001 -5.16745e-11 0)
(-0.919504 6.28654e-11 0)
(-0.917934 6.02922e-11 0)
(-0.916289 -6.99975e-11 0)
(-0.914569 -1.96254e-11 0)
(-0.912776 6.97638e-11 0)
(-0.910909 -1.06089e-11 0)
(-0.908968 -3.37756e-11 0)
(-0.906954 3.30225e-11 0)
(-0.904867 3.95437e-12 0)
(-0.902708 -2.53507e-11 0)
(-0.900478 2.14502e-11 0)
(-0.898176 1.35317e-11 0)
(-0.895805 -2.62378e-11 0)
(-0.893365 5.70688e-12 0)
(-0.890857 1.97724e-11 0)
(-0.888284 -1.51393e-11 0)
(-0.885646 6.94688e-13 0)
(-0.882946 6.9454e-12 0)
(-0.880186 -6.61813e-12 0)
(-0.87737 4.5419e-12 0)
(-0.874499 -1.44424e-14 0)
(-0.871579 -5.32837e-12 0)
(-0.868613 5.00566e-12 0)
(-0.865608 -1.61461e-12 0)
(-0.86257 -1.94566e-12 0)
(-0.859506 1.16644e-12 0)
(-0.856425 -2.24264e-12 0)
(-0.85334 -2.38564e-12 0)
(-0.850264 -4.69188e-12 0)
(-0.847215 3.30578e-11 0)
(-0.844215 -9.84149e-11 0)
(-0.841293 1.97569e-10 0)
(-0.83849 -2.15314e-10 0)
(-0.835862 3.7699e-10 0)
(-0.833504 -5.72475e-10 0)
(-0.831579 7.89237e-10 0)
(-0.830766 -1.02729e-09 0)
(-0.830687 1.27204e-09 0)
(-0.830682 -1.52722e-09 0)
(-0.830679 1.78484e-09 0)
(-0.830676 -2.05232e-09 0)
(-0.830674 2.32301e-09 0)
(-0.830672 -2.60412e-09 0)
(-0.830671 2.88925e-09 0)
(-0.83067 -3.18533e-09 0)
(-0.830669 3.48619e-09 0)
(-0.830668 -3.79842e-09 0)
(-0.830667 4.11615e-09 0)
(-0.830667 -4.44562e-09 0)
(-0.830666 4.78128e-09 0)
(-0.830666 -5.12898e-09 0)
(-0.830666 5.48354e-09 0)
(-0.830665 -5.85039e-09 0)
(-0.830665 6.22474e-09 0)
(-0.830665 -6.61159e-09 0)
(-0.830665 7.00657e-09 0)
(-0.830665 -7.41423e-09 0)
(-0.830665 7.8306e-09 0)
(-0.830665 -8.25983e-09 0)
(-0.830665 8.69834e-09 0)
(-0.830665 -9.14989e-09 0)
(-0.830665 9.61121e-09 0)
(-0.830665 -1.00858e-08 0)
(-0.830665 1.05706e-08 0)
(-0.830665 -1.10689e-08 0)
(-0.830665 1.15779e-08 0)
(-0.830665 -1.21005e-08 0)
(-0.830665 1.26343e-08 0)
(-0.830665 -1.3182e-08 0)
(-0.830665 1.37412e-08 0)
(-0.830665 -1.43145e-08 0)
(-0.830665 1.48997e-08 0)
(-0.830665 -1.54994e-08 0)
(-0.830665 1.61112e-08 0)
(-0.830665 -1.67377e-08 0)
(-0.830665 1.73768e-08 0)
(-0.830665 -1.80308e-08 0)
(-0.830665 1.86977e-08 0)
(-0.830665 -1.93798e-08 0)
(-0.830665 2.00752e-08 0)
(-0.830665 -2.07859e-08 0)
(-0.830665 2.15104e-08 0)
(-0.830665 -2.22503e-08 0)
(-0.830665 2.30044e-08 0)
(-0.830665 -2.37741e-08 0)
(-0.830665 2.45583e-08 0)
(-0.830665 -2.53584e-08 0)
(-0.830665 2.61734e-08 0)
(-0.830665 -2.70044e-08 0)
(-0.830665 2.78507e-08 0)
(-0.830665 -2.87131e-08 0)
(-0.830665 2.95912e-08 0)
(-0.830665 -3.04855e-08 0)
(-0.830665 3.13959e-08 0)
(-0.830665 -3.23226e-08 0)
(-0.830665 3.32658e-08 0)
(-0.830665 -3.42253e-08 0)
(-0.830665 3.52016e-08 0)
(-0.830665 -3.61944e-08 0)
(-0.830665 3.72041e-08 0)
(-0.830665 -3.82304e-08 0)
(-0.830665 3.92738e-08 0)
(-0.830665 -4.03338e-08 0)
(-0.830665 4.1411e-08 0)
(-0.830665 -4.25048e-08 0)
(-0.830665 3.82793e-08 0)
(-0.830665 -3.8521e-08 0)
(-0.830665 3.87592e-08 0)
(-0.830665 -3.89933e-08 0)
(-0.830665 3.92238e-08 0)
(-0.830665 -3.94502e-08 0)
(-0.830665 3.96729e-08 0)
(-0.830665 -3.98915e-08 0)
(-0.830665 4.01062e-08 0)
(-0.830665 -4.03168e-08 0)
(-0.830665 4.05234e-08 0)
(-0.830665 -4.07258e-08 0)
(-0.830665 4.09243e-08 0)
(-0.830665 -4.11184e-08 0)
(-0.830665 4.13085e-08 0)
(-0.830665 -4.14943e-08 0)
(-0.830665 4.16758e-08 0)
(-0.830665 -4.18531e-08 0)
(-0.830665 4.20259e-08 0)
(-0.830665 -4.21945e-08 0)
(-0.830665 4.23585e-08 0)
(-0.830665 -4.25183e-08 0)
(-0.830665 4.26732e-08 0)
(-0.830665 -4.28241e-08 0)
(-0.830665 4.29696e-08 0)
(-0.830665 -4.31115e-08 0)
(-0.830665 4.32475e-08 0)
(-0.830665 -4.338e-08 0)
(-0.830665 4.35063e-08 0)
(-0.830665 -4.36294e-08 0)
(-0.830665 4.37456e-08 0)
(-0.830665 -4.38589e-08 0)
(-0.830665 4.39649e-08 0)
(-0.830665 -4.40682e-08 0)
(-0.830665 4.41636e-08 0)
(-0.830665 -4.42566e-08 0)
(-0.830665 4.43409e-08 0)
(-0.830665 -4.44231e-08 0)
(-0.830665 4.44961e-08 0)
(-0.830665 -4.45669e-08 0)
(-0.830665 4.4628e-08 0)
(-0.830665 -4.46865e-08 0)
(-0.830665 4.47352e-08 0)
(-0.830665 -4.47802e-08 0)
(-0.830665 4.4815e-08 0)
(-0.830665 -4.48444e-08 0)
(-0.830665 4.48626e-08 0)
(-0.830665 -4.48604e-08 0)
(-0.830665 4.48475e-08 0)
(-0.830665 -4.4831e-08 0)
)
;

boundaryField
{
    inandouthalf11
    {
        type            cyclic;
    }
    inandouthalf12
    {
        type            cyclic;
    }
    inandouthalf21
    {
        type            cyclic;
    }
    inandouthalf22
    {
        type            cyclic;
    }
    inandouthalf31
    {
        type            cyclic;
    }
    inandouthalf32
    {
        type            cyclic;
    }
    inandouthalf41
    {
        type            cyclic;
    }
    inandouthalf42
    {
        type            cyclic;
    }
    top
    {
        type            symmetryPlane;
    }
    walls
    {
        type            calculated;
        value           uniform (0 0 0);
    }
    frontAndBackPlanes
    {
        type            empty;
    }
}


// ************************************************************************* //
