/*--------------------------------*- C++ -*----------------------------------*\
| =========                 |                                                 |
| \\      /  F ield         | OpenFOAM: The Open Source CFD Toolbox           |
|  \\    /   O peration     | Version:  2.4.x                                 |
|   \\  /    A nd           | Web:      www.OpenFOAM.org                      |
|    \\/     M anipulation  |                                                 |
\*---------------------------------------------------------------------------*/
FoamFile
{
    version     2.0;
    format      ascii;
    class       volVectorField;
    location    "4.35";
    object      Ua_0;
}
// * * * * * * * * * * * * * * * * * * * * * * * * * * * * * * * * * * * * * //

dimensions      [0 1 -1 0 0 0 0];

internalField   nonuniform List<vector> 
360
(
(-1.06635e-32 -8.05542e-32 0)
(-5.0868e-08 -2.80554e-07 0)
(-1.1505e-07 -5.57961e-07 0)
(-1.72438e-07 -7.9016e-07 0)
(-2.27589e-07 -1.01627e-06 0)
(-2.84138e-07 -1.24973e-06 0)
(-3.42606e-07 -1.49042e-06 0)
(-4.02546e-07 -1.736e-06 0)
(-4.63451e-07 -1.98417e-06 0)
(-5.25049e-07 -2.23372e-06 0)
(-5.87387e-07 -2.48501e-06 0)
(-6.50665e-07 -2.73895e-06 0)
(-7.15066e-07 -2.9963e-06 0)
(-7.807e-07 -3.25741e-06 0)
(-8.47624e-07 -3.52243e-06 0)
(-9.15902e-07 -3.79154e-06 0)
(-9.8561e-07 -4.06504e-06 0)
(-1.05679e-06 -4.3431e-06 0)
(-1.12942e-06 -4.62554e-06 0)
(-1.20333e-06 -4.91176e-06 0)
(-1.27821e-06 -5.20048e-06 0)
(-1.35364e-06 -5.48992e-06 0)
(-1.42913e-06 -5.77819e-06 0)
(-1.50425e-06 -6.0635e-06 0)
(-1.57877e-06 -6.34489e-06 0)
(-1.65289e-06 -6.62294e-06 0)
(-1.7274e-06 -6.90048e-06 0)
(-1.80388e-06 -7.18337e-06 0)
(-1.88489e-06 -7.48104e-06 0)
(-1.97407e-06 -7.80694e-06 0)
(-2.07617e-06 -8.17891e-06 0)
(-2.1964e-06 -8.61715e-06 0)
(-2.33762e-06 -9.13439e-06 0)
(-2.49443e-06 -9.71391e-06 0)
(-2.64731e-06 -1.02844e-05 0)
(-2.76797e-06 -1.07368e-05 0)
(-2.84023e-06 -1.10066e-05 0)
(-2.87215e-06 -1.11241e-05 0)
(-2.88283e-06 -1.11625e-05 0)
(-2.88579e-06 -1.11728e-05 0)
(-2.88659e-06 -1.11755e-05 0)
(-2.88684e-06 -1.11764e-05 0)
(-2.88693e-06 -1.11767e-05 0)
(-2.88699e-06 -1.11768e-05 0)
(-2.88703e-06 -1.1177e-05 0)
(-2.88706e-06 -1.11771e-05 0)
(-2.8871e-06 -1.11772e-05 0)
(-2.88715e-06 -1.11773e-05 0)
(-2.88721e-06 -1.11775e-05 0)
(-2.88728e-06 -1.11777e-05 0)
(-2.88736e-06 -1.11779e-05 0)
(-2.88745e-06 -1.11781e-05 0)
(-2.88755e-06 -1.11784e-05 0)
(-2.88765e-06 -1.11786e-05 0)
(-2.88776e-06 -1.11789e-05 0)
(-2.88787e-06 -1.11791e-05 0)
(-2.88798e-06 -1.11794e-05 0)
(-2.88809e-06 -1.11796e-05 0)
(-2.88821e-06 -1.11799e-05 0)
(-2.88833e-06 -1.11802e-05 0)
(-2.88845e-06 -1.11804e-05 0)
(-2.88857e-06 -1.11807e-05 0)
(-2.88871e-06 -1.1181e-05 0)
(-2.88884e-06 -1.11813e-05 0)
(-2.88898e-06 -1.11816e-05 0)
(-2.88913e-06 -1.11819e-05 0)
(-2.88927e-06 -1.11822e-05 0)
(-2.88943e-06 -1.11825e-05 0)
(-2.88958e-06 -1.11828e-05 0)
(-2.88975e-06 -1.11831e-05 0)
(-2.88992e-06 -1.11834e-05 0)
(-2.89009e-06 -1.11838e-05 0)
(-2.89028e-06 -1.11841e-05 0)
(-2.89047e-06 -1.11845e-05 0)
(-2.89068e-06 -1.11849e-05 0)
(-2.89089e-06 -1.11853e-05 0)
(-2.89111e-06 -1.11857e-05 0)
(-2.89134e-06 -1.11861e-05 0)
(-2.89157e-06 -1.11865e-05 0)
(-2.89181e-06 -1.1187e-05 0)
(-2.89206e-06 -1.11874e-05 0)
(-2.89232e-06 -1.11878e-05 0)
(-2.89259e-06 -1.11883e-05 0)
(-2.89286e-06 -1.11888e-05 0)
(-2.89314e-06 -1.11892e-05 0)
(-2.89343e-06 -1.11897e-05 0)
(-2.89373e-06 -1.11902e-05 0)
(-2.89403e-06 -1.11907e-05 0)
(-2.89435e-06 -1.11913e-05 0)
(-2.89467e-06 -1.11918e-05 0)
(-2.89501e-06 -1.11923e-05 0)
(-2.89535e-06 -1.11929e-05 0)
(-2.89569e-06 -1.11934e-05 0)
(-2.89605e-06 -1.1194e-05 0)
(-2.89641e-06 -1.11946e-05 0)
(-2.89678e-06 -1.11951e-05 0)
(-2.89716e-06 -1.11957e-05 0)
(-2.89754e-06 -1.11963e-05 0)
(-2.89793e-06 -1.11969e-05 0)
(-2.89833e-06 -1.11975e-05 0)
(-2.89873e-06 -1.11981e-05 0)
(-2.89914e-06 -1.11987e-05 0)
(-2.89956e-06 -1.11993e-05 0)
(-2.89998e-06 -1.11999e-05 0)
(-2.9004e-06 -1.12005e-05 0)
(-2.90084e-06 -1.12011e-05 0)
(-2.90127e-06 -1.12017e-05 0)
(-2.90172e-06 -1.12023e-05 0)
(-2.90216e-06 -1.12029e-05 0)
(-2.90261e-06 -1.12035e-05 0)
(-2.90307e-06 -1.12041e-05 0)
(-2.90353e-06 -1.12047e-05 0)
(-2.90399e-06 -1.12053e-05 0)
(-2.90445e-06 -1.12059e-05 0)
(-2.90492e-06 -1.12065e-05 0)
(-2.90539e-06 -1.12071e-05 0)
(-2.90587e-06 -1.12077e-05 0)
(-2.90635e-06 -1.12083e-05 0)
(-2.90684e-06 -1.12089e-05 0)
(-2.90734e-06 -1.12095e-05 0)
(-2.90784e-06 -1.121e-05 0)
(-2.90835e-06 -1.12106e-05 0)
(-2.90887e-06 -1.12112e-05 0)
(-2.9094e-06 -1.12118e-05 0)
(-2.90994e-06 -1.12123e-05 0)
(-2.91049e-06 -1.12129e-05 0)
(-2.91105e-06 -1.12134e-05 0)
(-2.91161e-06 -1.1214e-05 0)
(-2.91218e-06 -1.12145e-05 0)
(-2.91274e-06 -1.1215e-05 0)
(-2.9133e-06 -1.12155e-05 0)
(-2.91385e-06 -1.1216e-05 0)
(-2.91437e-06 -1.12164e-05 0)
(-2.91488e-06 -1.12168e-05 0)
(-2.91536e-06 -1.12171e-05 0)
(-2.91582e-06 -1.12174e-05 0)
(-2.91627e-06 -1.12177e-05 0)
(-2.91669e-06 -1.12179e-05 0)
(-2.9171e-06 -1.12181e-05 0)
(-2.91749e-06 -1.12183e-05 0)
(-2.91784e-06 -1.12185e-05 0)
(-2.91811e-06 -1.12186e-05 0)
(-2.91828e-06 -1.12186e-05 0)
(-2.91837e-06 -1.12186e-05 0)
(-2.91842e-06 -1.12186e-05 0)
(-2.91844e-06 -1.12186e-05 0)
(-2.91849e-06 -1.12186e-05 0)
(-0.0121136 1.53995e-05 0)
(-0.104288 0.000473043 0)
(-0.20777 0.000703026 0)
(-0.291524 0.000838473 0)
(-0.361255 0.00093476 0)
(-0.420467 0.00105015 0)
(-0.471535 0.00118665 0)
(-0.516107 0.00134874 0)
(-0.555381 0.00153945 0)
(-0.590258 0.00176003 0)
(-0.62144 0.00201003 0)
(-0.649476 0.0022878 0)
(-0.674799 0.00259074 0)
(-0.697748 0.00291541 0)
(-0.718593 0.00325757 0)
(-0.73754 0.0036123 0)
(-0.754753 0.00397413 0)
(-0.77036 0.00433726 0)
(-0.784464 0.00469576 0)
(-0.797149 0.00504382 0)
(-0.808491 0.00537571 0)
(-0.81856 0.00568493 0)
(-0.82743 0.00596087 0)
(-0.835178 0.00618429 0)
(-0.841894 0.00632736 0)
(-0.847682 0.00636481 0)
(-0.852653 0.0062906 0)
(-0.856924 0.00612416 0)
(-0.8606 0.00590056 0)
(-0.863772 0.00565541 0)
(-0.866515 0.00541578 0)
(-0.868888 0.00519865 0)
(-0.870938 0.00501296 0)
(-0.872707 0.00486228 0)
(-0.874228 0.00474686 0)
(-0.87553 0.00466487 0)
(-0.876638 0.00461313 0)
(-0.877576 0.00458751 0)
(-0.878364 0.004583 0)
(-0.879022 0.0045937 0)
(-0.879566 0.00461285 0)
(-0.880016 0.00463319 0)
(-0.880386 0.00464841 0)
(-0.880693 0.00465524 0)
(-0.880947 0.00465445 0)
(-0.881158 0.00464897 0)
(-0.881332 0.00464079 0)
(-0.881476 0.00463004 0)
(-0.881594 0.00461646 0)
(-0.881691 0.00460056 0)
(-0.881769 0.0045829 0)
(-0.881833 0.00456351 0)
(-0.881884 0.00454226 0)
(-0.881924 0.00451943 0)
(-0.881955 0.0044954 0)
(-0.881978 0.00447 0)
(-0.881995 0.00444224 0)
(-0.882004 0.00441186 0)
(-0.882008 0.00438026 0)
(-0.882005 0.00434772 0)
(-0.881996 0.00431206 0)
(-0.881981 0.004273 0)
(-0.88196 0.00423278 0)
(-0.881934 0.0041905 0)
(-0.881901 0.00414412 0)
(-0.881863 0.00409507 0)
(-0.881819 0.00404358 0)
(-0.881769 0.00398772 0)
(-0.881713 0.00392899 0)
(-0.88165 0.0038681 0)
(-0.881581 0.0038014 0)
(-0.881504 0.00372995 0)
(-0.881421 0.00365753 0)
(-0.881331 0.00358032 0)
(-0.881231 0.00349679 0)
(-0.881123 0.00341066 0)
(-0.881005 0.00332003 0)
(-0.880877 0.00322528 0)
(-0.880736 0.00312695 0)
(-0.880581 0.00302 0)
(-0.880412 0.00290822 0)
(-0.880228 0.00279073 0)
(-0.880023 0.00265838 0)
(-0.879798 0.00251395 0)
(-0.879556 0.00235788 0)
(-0.879306 0.00219975 0)
(-0.879074 0.0020646 0)
(-0.878873 0.00196391 0)
(-0.878707 0.0019013 0)
(-0.878486 0.00181496 0)
(-0.836369 -0.0325368 0)
(-0.834382 -0.0397393 0)
(-0.831846 -0.0396234 0)
(-0.830307 -0.0395973 0)
(-0.829776 -0.0395625 0)
(-0.829728 -0.0395486 0)
(-0.829723 -0.0395475 0)
(-0.82972 -0.0395476 0)
(-0.829718 -0.0395476 0)
(-0.829716 -0.0395476 0)
(-0.829714 -0.0395476 0)
(-0.829713 -0.0395476 0)
(-0.829712 -0.0395476 0)
(-0.829711 -0.0395476 0)
(-0.82971 -0.0395476 0)
(-0.829709 -0.0395476 0)
(-0.829709 -0.0395476 0)
(-0.829708 -0.0395476 0)
(-0.829708 -0.0395476 0)
(-0.829708 -0.0395476 0)
(-0.829707 -0.0395476 0)
(-0.829707 -0.0395476 0)
(-0.829707 -0.0395476 0)
(-0.829707 -0.0395476 0)
(-0.829707 -0.0395476 0)
(-0.829707 -0.0395476 0)
(-0.829707 -0.0395476 0)
(-0.829707 -0.0395476 0)
(-0.829707 -0.0395476 0)
(-0.829707 -0.0395476 0)
(-0.829707 -0.0395476 0)
(-0.829707 -0.0395476 0)
(-0.829707 -0.0395476 0)
(-0.829707 -0.0395476 0)
(-0.829707 -0.0395476 0)
(-0.829707 -0.0395476 0)
(-0.829707 -0.0395476 0)
(-0.829707 -0.0395476 0)
(-0.829707 -0.0395476 0)
(-0.829707 -0.0395476 0)
(-0.829707 -0.0395476 0)
(-0.829707 -0.0395476 0)
(-0.829707 -0.0395476 0)
(-0.829707 -0.0395476 0)
(-0.829707 -0.0395476 0)
(-0.829707 -0.0395476 0)
(-0.829707 -0.0395476 0)
(-0.829707 -0.0395476 0)
(-0.829707 -0.0395476 0)
(-0.829707 -0.0395476 0)
(-0.829707 -0.0395476 0)
(-0.829707 -0.0395476 0)
(-0.829707 -0.0395476 0)
(-0.829707 -0.0395476 0)
(-0.829707 -0.0395476 0)
(-0.829707 -0.0395476 0)
(-0.829707 -0.0395476 0)
(-0.829707 -0.0395476 0)
(-0.829707 -0.0395476 0)
(-0.829707 -0.0395476 0)
(-0.829707 -0.0395476 0)
(-0.829707 -0.0395476 0)
(-0.829707 -0.0395476 0)
(-0.829707 -0.0395476 0)
(-0.829707 -0.0395476 0)
(-0.829707 -0.0395476 0)
(-0.829707 -0.0395476 0)
(-0.829707 -0.0395476 0)
(-0.829707 -0.0395476 0)
(-0.829707 -0.0395476 0)
(-0.829707 -0.0395476 0)
(-0.829707 -0.0395476 0)
(-0.829707 -0.0395476 0)
(-0.829707 -0.0395476 0)
(-0.829707 -0.0395476 0)
(-0.829707 -0.0395476 0)
(-0.829707 -0.0395476 0)
(-0.829707 -0.0395476 0)
(-0.829707 -0.0395476 0)
(-0.829707 -0.0395476 0)
(-0.829707 -0.0395476 0)
(-0.829707 -0.0395476 0)
(-0.829707 -0.0395476 0)
(-0.829707 -0.0395476 0)
(-0.829707 -0.0395476 0)
(-0.829707 -0.0395476 0)
(-0.829707 -0.0395476 0)
(-0.829707 -0.0395476 0)
(-0.829707 -0.0395476 0)
(-0.829707 -0.0395476 0)
(-0.829707 -0.0395476 0)
(-0.829707 -0.0395476 0)
(-0.829707 -0.0395476 0)
(-0.829707 -0.0395476 0)
(-0.829707 -0.0395476 0)
(-0.829707 -0.0395476 0)
(-0.829707 -0.0395476 0)
(-0.829707 -0.0395476 0)
(-0.829707 -0.0395476 0)
(-0.829707 -0.0395476 0)
(-0.829707 -0.0395476 0)
(-0.829707 -0.0395476 0)
(-0.829707 -0.0395476 0)
(-0.829707 -0.0395476 0)
(-0.829707 -0.0395476 0)
(-0.829707 -0.0395476 0)
(-0.829707 -0.0395476 0)
(-0.829707 -0.0395476 0)
(-0.829707 -0.0395476 0)
(-0.829707 -0.0395476 0)
(-0.829707 -0.0395476 0)
(-0.829707 -0.0395476 0)
(-0.829707 -0.0395476 0)
(-0.829707 -0.0395476 0)
(-0.829707 -0.0395476 0)
(-0.829707 -0.0395476 0)
(-0.829707 -0.0395476 0)
(-0.829707 -0.0395476 0)
(-0.829707 -0.0395476 0)
(-0.829707 -0.0395473 0)
(-0.829706 -0.0395389 0)
(-0.8297 -0.0391942 0)
(-0.829549 -0.0224952 0)
)
;

boundaryField
{
    inandouthalf11
    {
        type            cyclic;
    }
    inandouthalf12
    {
        type            cyclic;
    }
    inandouthalf21
    {
        type            cyclic;
    }
    inandouthalf22
    {
        type            cyclic;
    }
    inandouthalf31
    {
        type            cyclic;
    }
    inandouthalf32
    {
        type            cyclic;
    }
    inandouthalf41
    {
        type            cyclic;
    }
    inandouthalf42
    {
        type            cyclic;
    }
    top
    {
        type            symmetryPlane;
    }
    walls
    {
        type            fixedValue;
        value           uniform (0 0 0);
    }
    frontAndBackPlanes
    {
        type            empty;
    }
}


// ************************************************************************* //
