/*--------------------------------*- C++ -*----------------------------------*\
| =========                 |                                                 |
| \\      /  F ield         | OpenFOAM: The Open Source CFD Toolbox           |
|  \\    /   O peration     | Version:  2.4.x                                 |
|   \\  /    A nd           | Web:      www.OpenFOAM.org                      |
|    \\/     M anipulation  |                                                 |
\*---------------------------------------------------------------------------*/
FoamFile
{
    version     2.0;
    format      ascii;
    class       volScalarField;
    location    "2.05";
    object      alpha_0;
}
// * * * * * * * * * * * * * * * * * * * * * * * * * * * * * * * * * * * * * //

dimensions      [0 0 0 0 0 0 0];

internalField   nonuniform List<scalar> 
360
(
0.609996
0.609996
0.609995
0.609995
0.609995
0.609994
0.609994
0.609993
0.609993
0.609992
0.609991
0.609991
0.60999
0.609989
0.609988
0.609987
0.609986
0.609985
0.609984
0.609982
0.609981
0.609979
0.609977
0.609975
0.609973
0.609971
0.609969
0.609966
0.609963
0.60996
0.609957
0.609953
0.60995
0.609945
0.609941
0.609936
0.609931
0.609925
0.609918
0.609912
0.609904
0.609896
0.609888
0.609878
0.609868
0.609857
0.609845
0.609833
0.609819
0.609803
0.609787
0.609769
0.60975
0.609729
0.609707
0.609682
0.609656
0.609627
0.609596
0.609563
0.609526
0.609487
0.609444
0.609398
0.609348
0.609294
0.609235
0.609171
0.609107
0.609056
0.609033
0.609036
0.609042
0.609033
0.609007
0.608967
0.608919
0.608866
0.60881
0.608753
0.608698
0.608645
0.608594
0.608543
0.608492
0.60844
0.608386
0.60833
0.608273
0.608213
0.608153
0.608092
0.608029
0.607966
0.607901
0.607835
0.607768
0.607699
0.607629
0.607557
0.607484
0.607409
0.607332
0.607254
0.607174
0.607093
0.60701
0.606925
0.606838
0.606749
0.606658
0.606565
0.60647
0.606372
0.606272
0.606169
0.606063
0.605954
0.605842
0.605727
0.605608
0.605485
0.605358
0.605227
0.605091
0.60495
0.604804
0.604651
0.604492
0.604327
0.604156
0.603978
0.603793
0.603598
0.603389
0.60317
0.602942
0.602703
0.602441
0.602144
0.60184
0.601578
0.601257
0.600812
0.600246
0.599526
0.598618
0.597403
0.595145
0.578691
0.179796
0.0516939
0.0324572
0.0247805
0.0205075
0.0172269
0.0141378
0.01092
0.00765142
0.00466941
0.00240857
0.00106647
0.000478284
0.000260651
0.000177323
0.000131918
0.000102404
8.44349e-05
6.8112e-05
5.8548e-05
4.85527e-05
4.2818e-05
3.58421e-05
3.22015e-05
2.75053e-05
2.48071e-05
2.12247e-05
1.94961e-05
1.692e-05
1.51516e-05
1.37157e-05
1.20001e-05
1.10787e-05
9.67441e-06
8.9913e-06
7.85031e-06
7.26956e-06
6.41575e-06
6.00675e-06
5.27061e-06
4.78741e-06
4.42175e-06
3.93885e-06
3.68674e-06
3.22497e-06
2.9838e-06
2.66277e-06
2.51488e-06
2.26323e-06
2.09142e-06
1.8102e-06
1.66996e-06
1.51483e-06
1.44056e-06
1.304e-06
1.12738e-06
1.00111e-06
9.20029e-07
8.67692e-07
7.64746e-07
6.54677e-07
5.97986e-07
5.59246e-07
4.84149e-07
4.08151e-07
3.75884e-07
3.5034e-07
3.02827e-07
2.49372e-07
2.23626e-07
2.0607e-07
1.75293e-07
1.47824e-07
1.34897e-07
1.1547e-07
9.43364e-08
8.55037e-08
7.53645e-08
5.98751e-08
5.19808e-08
4.65802e-08
3.73127e-08
3.09322e-08
2.70921e-08
2.15591e-08
1.88061e-08
1.46675e-08
1.29198e-08
1.16312e-08
1.11955e-08
1.09811e-08
1.08349e-08
9.20932e-09
3.46247e-10
7.5442e-11
6.48133e-11
4.99591e-11
4.01339e-11
3.54784e-11
2.80896e-11
2.23688e-11
1.71114e-11
1.30842e-11
1.13095e-11
8.79431e-12
6.85692e-12
5.03864e-12
3.89975e-12
3.37204e-12
2.51698e-12
1.69394e-12
1.37508e-12
1.1619e-12
8.08449e-13
5.37053e-13
4.32301e-13
3.51177e-13
2.26032e-13
1.56632e-13
1.26033e-13
9.15569e-14
5.68716e-14
4.29176e-14
3.16594e-14
2.05767e-14
1.53888e-14
9.59584e-15
7.20578e-15
4.60693e-15
3.33706e-15
1.89866e-15
1.3651e-15
9.11855e-16
5.40078e-16
3.70125e-16
2.12701e-16
1.46739e-16
8.51759e-17
5.73589e-17
3.2554e-17
2.15965e-17
9.50493e-18
4.43482e-18
1.87134e-18
6.82956e-19
2.58711e-19
9.50094e-20
3.36112e-20
1.1191e-20
3.47575e-21
9.98609e-22
2.62733e-22
6.25444e-23
1.32751e-23
2.46542e-24
3.90661e-25
5.09383e-26
5.16038e-27
3.64753e-28
1.33885e-29
2.29449e-31
7.16547e-33
1.10539e-34
1.31515e-45
7.78368e-57
3.24295e-68
1.01539e-79
2.66235e-91
9.2742e-103
5.95672e-114
1.23674e-121
2.09255e-132
4.25339e-140
7.14236e-151
1.46306e-158
2.99336e-169
5.031e-177
1.34215e-187
1.7309e-195
9.2074e-206
5.98442e-214
6.16183e-224
2.0852e-232
3.16288e-242
7.32409e-251
1.50344e-260
2.59782e-269
6.65809e-279
9.29788e-288
2.84624e-297
3.36136e-306
1.1752e-315
3.26083e-321
8.5424e-321
0
0
0
0
0
0
0
0
0
0
0
0
0
0
0
0
)
;

boundaryField
{
    inandouthalf11
    {
        type            cyclic;
    }
    inandouthalf12
    {
        type            cyclic;
    }
    inandouthalf21
    {
        type            cyclic;
    }
    inandouthalf22
    {
        type            cyclic;
    }
    inandouthalf31
    {
        type            cyclic;
    }
    inandouthalf32
    {
        type            cyclic;
    }
    inandouthalf41
    {
        type            cyclic;
    }
    inandouthalf42
    {
        type            cyclic;
    }
    top
    {
        type            symmetryPlane;
    }
    walls
    {
        type            zeroGradient;
    }
    frontAndBackPlanes
    {
        type            empty;
    }
}


// ************************************************************************* //
