/*--------------------------------*- C++ -*----------------------------------*\
| =========                 |                                                 |
| \\      /  F ield         | OpenFOAM: The Open Source CFD Toolbox           |
|  \\    /   O peration     | Version:  2.4.x                                 |
|   \\  /    A nd           | Web:      www.OpenFOAM.org                      |
|    \\/     M anipulation  |                                                 |
\*---------------------------------------------------------------------------*/
FoamFile
{
    version     2.0;
    format      ascii;
    class       volScalarField;
    location    "2.05";
    object      ddt0(alpha);
}
// * * * * * * * * * * * * * * * * * * * * * * * * * * * * * * * * * * * * * //

dimensions      [0 0 -1 0 0 0 0];

internalField   nonuniform List<scalar> 
360
(
-5.06938e-13
9.42948e-14
3.65223e-13
-4.72121e-14
6.01046e-13
6.51887e-13
5.39582e-14
3.08432e-13
-6.50826e-13
-8.48104e-14
-1.13001e-12
-6.09057e-13
-1.02972e-12
-8.36166e-13
2.75604e-15
2.10688e-13
4.17978e-13
-1.96345e-13
4.17978e-13
3.3799e-13
3.11855e-13
5.35153e-13
1.55748e-21
4.14579e-16
3.11866e-13
-9.90486e-16
-1.03274e-13
-1.06132e-13
-8.368e-14
-4.19224e-13
-1.045e-13
3.20338e-13
1.11031e-13
-9.76623e-14
7.80685e-14
-6.81844e-13
4.08203e-16
-8.00322e-14
-4.37516e-13
-4.08047e-15
1.63916e-15
-1.14309e-15
8.49913e-14
4.74769e-15
-4.11059e-13
-2.61251e-14
-1.046e-13
2.77846e-14
-4.38282e-13
-2.6227e-14
-9.53782e-13
-1.08642e-12
-4.42314e-13
-1.26441e-12
-1.03192e-13
1.10953e-13
6.53761e-15
-4.24505e-13
-4.22615e-14
-1.04501e-13
-7.87814e-14
1.54466e-13
-2.12265e-14
-4.44532e-13
-1.04493e-13
3.9189e-14
1.47296e-10
3.00849e-05
0.000246752
0.000822331
0.00149513
0.00172673
0.00146526
0.00107074
0.000772036
0.000599617
0.000517354
0.000493143
0.000505691
0.000539514
0.000580423
0.000616165
0.000638342
0.000644814
0.000639114
0.000627159
0.000614507
0.000604394
0.000598008
0.000594957
0.000594035
0.000593989
0.000594037
0.000593872
0.000593654
0.000593791
0.000594718
0.000596767
0.000600133
0.000604903
0.000611095
0.000618714
0.000627759
0.000638208
0.000649998
0.000663008
0.000677048
0.000691863
0.000707146
0.000722552
0.00073771
0.000752248
0.000765804
0.000778051
0.000788712
0.000797565
0.000804449
0.000809253
0.000811915
0.000812422
0.000810822
0.000807263
0.000802027
0.000795549
0.000788361
0.000780925
0.000773321
0.000764902
0.00075413
0.000738984
0.000718188
0.00069275
0.000666405
0.000643579
0.000625378
0.000607106
0.000582038
0.000547212
0.000499878
0.000428697
0.00032244
0.000191312
9.3193e-05
3.15902e-05
-1.20326e-05
-4.76791e-05
-8.14764e-05
-0.000147353
-0.00149621
0.354935
-0.0295427
-0.0744751
-0.077803
-0.0806853
-0.0727183
-0.0579292
-0.0392556
-0.017637
0.00221271
0.0137184
0.0145038
0.0088598
0.00360413
0.00128713
0.000536273
0.000293973
0.000175997
0.000115366
7.94455e-05
5.45465e-05
3.95119e-05
2.82829e-05
2.09602e-05
1.49994e-05
1.1272e-05
8.13875e-06
6.0183e-06
4.33099e-06
2.87939e-06
2.18912e-06
1.22366e-06
7.90664e-07
3.02395e-07
5.2423e-08
-2.16924e-07
-4.96737e-07
-5.55322e-07
-5.09042e-07
-6.57616e-07
-9.97612e-07
-5.93496e-07
-7.62701e-07
-7.0044e-07
-7.97992e-07
-8.90765e-07
-7.65416e-07
-5.43884e-07
-5.23966e-07
-6.45257e-07
-7.92334e-07
-7.54534e-07
-5.1493e-07
-3.32444e-07
-3.34197e-07
-6.20164e-07
-6.18985e-07
-3.93306e-07
-2.18463e-07
-2.90385e-07
-4.58245e-07
-3.50546e-07
-1.71647e-07
-2.30714e-07
-3.7703e-07
-2.00949e-07
-1.04954e-07
-1.53246e-07
-2.4546e-07
-1.75167e-07
-8.80923e-08
-1.06396e-07
-1.45199e-07
-8.63509e-08
-7.23943e-08
-1.10568e-07
-6.06424e-08
-4.17773e-08
-6.35427e-08
-5.92923e-08
-3.08369e-08
-3.64323e-08
-4.11253e-08
-2.57945e-08
-2.4663e-08
-2.15643e-08
-2.07282e-08
-1.38138e-08
-8.90271e-09
-2.27106e-09
-4.0308e-10
1.42569e-10
-4.57053e-09
-5.28972e-08
-9.30055e-09
-5.13841e-10
-4.07103e-10
-3.99293e-10
-2.12185e-10
-1.81043e-10
-1.93828e-10
-1.58949e-10
-1.39812e-10
-7.31952e-11
-5.83524e-11
-5.95401e-11
-4.91742e-11
-3.94102e-11
-1.96737e-11
-1.69998e-11
-2.26854e-11
-1.12127e-11
-6.18528e-12
-6.4275e-12
-7.71817e-12
-3.39723e-12
-1.99261e-12
-2.1598e-12
-2.10546e-12
-9.15021e-13
-6.42529e-13
-7.41309e-13
-3.93364e-13
-2.34764e-13
-2.12108e-13
-1.37656e-13
-1.05913e-13
-6.09225e-14
-4.28822e-14
-3.10955e-14
-2.50749e-14
-1.25514e-14
-7.66662e-15
-6.58046e-15
-3.76343e-15
-2.60133e-15
-1.40313e-15
-9.45458e-16
-5.68516e-16
-3.77803e-16
-2.1505e-16
-1.6329e-16
-9.5943e-17
-4.88433e-17
-2.37358e-17
-8.155e-18
-3.10515e-18
-1.14833e-18
-4.16257e-19
-1.42336e-19
-4.54276e-20
-1.34198e-20
-3.6315e-21
-8.8925e-22
-1.94152e-22
-3.709e-23
-6.04578e-24
-8.11239e-25
-8.46705e-26
-6.1849e-27
-2.37277e-28
-4.32376e-30
-1.38341e-31
-2.18468e-33
-2.48159e-44
-1.39725e-55
-5.53845e-67
-1.63023e-78
-4.03979e-90
-1.50108e-101
-1.0555e-112
-2.44442e-120
-3.94003e-131
-8.40617e-139
-1.33772e-149
-2.89151e-157
-5.59487e-168
-9.94276e-176
-2.50611e-186
-3.42061e-194
-1.73639e-204
-1.18217e-212
-1.16768e-222
-4.11469e-231
-5.99026e-241
-1.44272e-249
-2.83956e-259
-5.10227e-268
-1.25421e-277
-1.81973e-286
-5.34409e-296
-6.54563e-305
-2.19481e-314
3.69858e-320
0
0
0
0
0
0
0
0
0
0
0
0
0
0
0
0
0
)
;

boundaryField
{
    inandouthalf11
    {
        type            cyclic;
    }
    inandouthalf12
    {
        type            cyclic;
    }
    inandouthalf21
    {
        type            cyclic;
    }
    inandouthalf22
    {
        type            cyclic;
    }
    inandouthalf31
    {
        type            cyclic;
    }
    inandouthalf32
    {
        type            cyclic;
    }
    inandouthalf41
    {
        type            cyclic;
    }
    inandouthalf42
    {
        type            cyclic;
    }
    top
    {
        type            symmetryPlane;
    }
    walls
    {
        type            calculated;
        value           uniform -5.06938e-13;
    }
    frontAndBackPlanes
    {
        type            empty;
    }
}


// ************************************************************************* //
