/*--------------------------------*- C++ -*----------------------------------*\
| =========                 |                                                 |
| \\      /  F ield         | OpenFOAM: The Open Source CFD Toolbox           |
|  \\    /   O peration     | Version:  2.4.x                                 |
|   \\  /    A nd           | Web:      www.OpenFOAM.org                      |
|    \\/     M anipulation  |                                                 |
\*---------------------------------------------------------------------------*/
FoamFile
{
    version     2.0;
    format      ascii;
    class       surfaceScalarField;
    location    "2.05";
    object      ddt0(phib);
}
// * * * * * * * * * * * * * * * * * * * * * * * * * * * * * * * * * * * * * //

dimensions      [0 3 -2 0 0 0 0];

internalField   nonuniform List<scalar> 
359
(
8.36554e-16
1.64283e-15
2.51258e-15
3.32504e-15
4.14524e-15
4.97095e-15
5.80156e-15
6.66264e-15
7.51207e-15
8.36063e-15
9.18072e-15
1.00289e-14
1.08288e-14
1.16593e-14
1.24875e-14
1.33342e-14
1.41514e-14
1.49827e-14
1.57957e-14
1.66315e-14
1.74235e-14
1.82498e-14
1.90359e-14
1.98464e-14
2.06129e-14
2.14262e-14
2.2229e-14
2.30467e-14
2.38284e-14
2.46404e-14
2.53895e-14
2.61688e-14
2.69193e-14
2.77317e-14
2.84801e-14
2.92731e-14
3.00139e-14
3.07873e-14
3.15038e-14
3.22683e-14
3.29638e-14
3.37232e-14
3.44435e-14
3.52203e-14
3.59578e-14
3.66735e-14
3.7369e-14
3.81151e-14
3.87925e-14
3.95062e-14
4.01711e-14
4.08936e-14
4.15441e-14
4.22638e-14
4.28723e-14
4.36054e-14
4.4242e-14
4.49408e-14
4.552e-14
4.62043e-14
4.67949e-14
4.74787e-14
4.80384e-14
4.8711e-14
4.92773e-14
4.99022e-14
5.08606e-14
5.42932e-12
3.63397e-11
1.00485e-10
1.56019e-10
1.65134e-10
1.4261e-10
1.1555e-10
9.42925e-11
7.87388e-11
6.68755e-11
5.71942e-11
4.88291e-11
4.13141e-11
3.43985e-11
2.79342e-11
2.18204e-11
1.59601e-11
1.02297e-11
4.48191e-12
-1.43061e-12
-7.61518e-12
-1.41143e-11
-2.08937e-11
-2.78505e-11
-3.48375e-11
-4.17001e-11
-4.8306e-11
-5.4566e-11
-6.04377e-11
-6.5918e-11
-7.10275e-11
-7.57971e-11
-8.02569e-11
-8.44331e-11
-8.83478e-11
-9.20253e-11
-9.54972e-11
-9.88094e-11
-1.02026e-10
-1.05231e-10
-1.08528e-10
-1.12036e-10
-1.15885e-10
-1.20204e-10
-1.25115e-10
-1.30726e-10
-1.37117e-10
-1.44344e-10
-1.52425e-10
-1.61352e-10
-1.71082e-10
-1.81552e-10
-1.92677e-10
-2.04368e-10
-2.16534e-10
-2.29092e-10
-2.41979e-10
-2.55141e-10
-2.68532e-10
-2.82087e-10
-2.95699e-10
-3.09201e-10
-3.22373e-10
-3.35005e-10
-3.46982e-10
-3.58356e-10
-3.69331e-10
-3.80141e-10
-3.90864e-10
-4.01322e-10
-4.11135e-10
-4.19804e-10
-4.2671e-10
-4.31325e-10
-4.33509e-10
-4.34051e-10
-4.33599e-10
-4.32503e-10
-4.30984e-10
-4.2908e-10
-4.2671e-10
-2.12034e-10
-3.9215e-08
-2.23284e-08
-6.30557e-09
-2.48385e-09
-6.32514e-10
2.65106e-10
8.08339e-10
9.31156e-10
6.60342e-10
1.93846e-10
-1.43097e-10
-2.09286e-10
-1.20821e-10
-4.75134e-11
-1.94462e-11
-1.04028e-11
-6.76478e-12
-4.85411e-12
-3.70559e-12
-2.92976e-12
-2.39206e-12
-1.99177e-12
-1.68596e-12
-1.44099e-12
-1.25461e-12
-1.09371e-12
-9.5967e-13
-8.47633e-13
-7.58141e-13
-6.67483e-13
-6.01466e-13
-5.36353e-13
-4.81723e-13
-4.33575e-13
-3.90016e-13
-3.52317e-13
-3.16133e-13
-2.85391e-13
-2.58511e-13
-2.35352e-13
-2.08473e-13
-1.8942e-13
-1.71313e-13
-1.55462e-13
-1.40548e-13
-1.24905e-13
-1.11057e-13
-9.97447e-14
-9.14603e-14
-8.3335e-14
-7.36179e-14
-6.27634e-14
-5.40504e-14
-4.80939e-14
-4.50229e-14
-3.95217e-14
-3.12246e-14
-2.42859e-14
-2.07363e-14
-1.88185e-14
-1.42596e-14
-8.6569e-15
-5.78109e-15
-4.70438e-15
-1.00984e-15
3.32244e-15
4.89638e-15
5.30509e-15
7.46187e-15
1.03837e-14
1.18696e-14
1.22521e-14
1.37157e-14
1.50489e-14
1.54622e-14
1.62529e-14
1.75318e-14
1.76113e-14
1.79458e-14
1.8516e-14
1.8956e-14
1.88206e-14
1.92339e-14
1.92917e-14
1.94644e-14
1.93211e-14
1.94893e-14
1.93581e-14
1.94785e-14
1.92117e-14
1.9141e-14
1.86165e-14
1.77195e-14
1.55814e-14
1.7715e-14
1.78896e-14
1.77084e-14
1.71573e-14
1.69738e-14
1.63804e-14
1.61214e-14
1.54963e-14
1.51927e-14
1.45081e-14
1.40952e-14
1.33341e-14
1.2853e-14
1.20734e-14
1.15463e-14
1.07006e-14
1.00752e-14
9.21724e-15
8.58328e-15
7.74905e-15
7.24036e-15
6.84383e-15
6.73775e-15
6.51537e-15
6.38188e-15
6.26057e-15
6.12784e-15
5.8686e-15
5.58882e-15
5.53124e-15
5.42367e-15
5.24992e-15
4.95188e-15
4.77163e-15
4.43775e-15
4.06681e-15
3.56673e-15
3.46652e-15
3.25605e-15
3.06009e-15
2.74526e-15
2.56708e-15
2.29461e-15
2.03098e-15
1.68656e-15
1.53796e-15
1.31957e-15
1.11224e-15
8.08193e-16
6.39207e-16
3.33173e-16
2.65156e-17
-6.29117e-16
-2.58383e-16
-2.59014e-16
-2.42045e-16
-4.26003e-16
-4.77707e-16
-6.20629e-16
-7.62926e-16
-9.63291e-16
-1.10623e-15
-1.26191e-15
-1.42245e-15
-1.57934e-15
-1.7312e-15
-1.91106e-15
-2.08306e-15
-2.27941e-15
-2.42662e-15
-2.60357e-15
-2.81253e-15
-3.07252e-15
-3.27865e-15
-3.581e-15
-3.8978e-15
-4.31066e-15
-4.69961e-15
-5.22348e-15
-5.79008e-15
-6.54042e-15
-7.3985e-15
-8.58543e-15
-1.01471e-14
-1.23731e-14
-1.8478e-14
-2.56171e-14
-3.32101e-14
-4.19697e-14
-5.01843e-14
-5.98745e-14
-6.96669e-14
-8.08005e-14
-9.03818e-14
-1.01359e-13
-1.12485e-13
-1.2497e-13
-1.37607e-13
-1.50519e-13
-1.64308e-13
-1.77648e-13
-2.01954e-13
-2.22611e-13
-2.43755e-13
-2.57288e-13
-2.79077e-13
-2.87805e-13
-2.97588e-13
-2.95131e-13
-3.22769e-13
-3.27074e-13
-3.3076e-13
-3.04308e-13
-2.90965e-13
-2.5589e-13
-2.37012e-13
)
;

boundaryField
{
    inandouthalf11
    {
        type            cyclic;
        value           nonuniform List<scalar> 
100
(
2.99391e-10
2.99901e-10
2.99904e-10
2.99904e-10
2.99904e-10
2.99907e-10
2.99907e-10
2.99909e-10
2.99909e-10
2.99912e-10
2.99914e-10
2.99914e-10
2.99917e-10
2.9992e-10
2.99922e-10
2.99925e-10
2.99927e-10
2.9993e-10
2.99932e-10
2.99937e-10
2.9994e-10
2.99945e-10
2.9995e-10
2.99955e-10
2.9996e-10
2.99965e-10
2.9997e-10
2.99977e-10
2.99985e-10
2.99993e-10
3e-10
3.0001e-10
3.00018e-10
3.0003e-10
3.0004e-10
3.00053e-10
3.00066e-10
3.00081e-10
3.00098e-10
3.00114e-10
3.00134e-10
3.00154e-10
3.00174e-10
3.00199e-10
3.00224e-10
3.00252e-10
3.00282e-10
3.00313e-10
3.00348e-10
3.00388e-10
3.00429e-10
3.00474e-10
3.00522e-10
3.00575e-10
3.00631e-10
3.00694e-10
3.0076e-10
3.00833e-10
3.00911e-10
3.00994e-10
3.01088e-10
3.01187e-10
3.01295e-10
3.01412e-10
3.01538e-10
3.01675e-10
3.01824e-10
3.01946e-10
3.01928e-10
3.01828e-10
3.02015e-10
3.02727e-10
3.03761e-10
3.04746e-10
3.05511e-10
3.06078e-10
3.06521e-10
3.06895e-10
3.07238e-10
3.07577e-10
3.0793e-10
3.08312e-10
3.08729e-10
3.09177e-10
3.09648e-10
3.10129e-10
3.10614e-10
3.11099e-10
3.11584e-10
3.12072e-10
3.12564e-10
3.13064e-10
3.13572e-10
3.14088e-10
3.14611e-10
3.15142e-10
3.1568e-10
3.16224e-10
3.16774e-10
3.17332e-10
)
;
    }
    inandouthalf12
    {
        type            cyclic;
        value           nonuniform List<scalar> 
100
(
-2.99391e-10
-2.99901e-10
-2.99904e-10
-2.99904e-10
-2.99904e-10
-2.99907e-10
-2.99907e-10
-2.99909e-10
-2.99909e-10
-2.99912e-10
-2.99914e-10
-2.99914e-10
-2.99917e-10
-2.9992e-10
-2.99922e-10
-2.99925e-10
-2.99927e-10
-2.9993e-10
-2.99932e-10
-2.99937e-10
-2.9994e-10
-2.99945e-10
-2.9995e-10
-2.99955e-10
-2.9996e-10
-2.99965e-10
-2.9997e-10
-2.99977e-10
-2.99985e-10
-2.99993e-10
-3e-10
-3.0001e-10
-3.00018e-10
-3.0003e-10
-3.0004e-10
-3.00053e-10
-3.00066e-10
-3.00081e-10
-3.00098e-10
-3.00114e-10
-3.00134e-10
-3.00154e-10
-3.00174e-10
-3.00199e-10
-3.00224e-10
-3.00252e-10
-3.00282e-10
-3.00313e-10
-3.00348e-10
-3.00388e-10
-3.00429e-10
-3.00474e-10
-3.00522e-10
-3.00575e-10
-3.00631e-10
-3.00694e-10
-3.0076e-10
-3.00833e-10
-3.00911e-10
-3.00994e-10
-3.01088e-10
-3.01187e-10
-3.01295e-10
-3.01412e-10
-3.01538e-10
-3.01675e-10
-3.01824e-10
-3.01946e-10
-3.01928e-10
-3.01828e-10
-3.02015e-10
-3.02727e-10
-3.03761e-10
-3.04746e-10
-3.05511e-10
-3.06078e-10
-3.06521e-10
-3.06895e-10
-3.07238e-10
-3.07577e-10
-3.0793e-10
-3.08312e-10
-3.08729e-10
-3.09177e-10
-3.09648e-10
-3.10129e-10
-3.10614e-10
-3.11099e-10
-3.11584e-10
-3.12072e-10
-3.12564e-10
-3.13064e-10
-3.13572e-10
-3.14088e-10
-3.14611e-10
-3.15142e-10
-3.1568e-10
-3.16224e-10
-3.16774e-10
-3.17332e-10
)
;
    }
    inandouthalf21
    {
        type            cyclic;
        value           nonuniform List<scalar> 
100
(
3.17898e-10
3.18472e-10
3.19055e-10
3.19649e-10
3.20255e-10
3.20874e-10
3.21507e-10
3.22158e-10
3.22829e-10
3.23523e-10
3.24243e-10
3.24994e-10
3.25779e-10
3.26602e-10
3.27468e-10
3.2838e-10
3.2934e-10
3.30352e-10
3.31418e-10
3.32539e-10
3.33716e-10
3.3495e-10
3.36241e-10
3.37591e-10
3.39001e-10
3.40475e-10
3.42016e-10
3.43628e-10
3.45311e-10
3.47061e-10
3.48868e-10
3.50719e-10
3.52611e-10
3.54557e-10
3.56587e-10
3.58725e-10
3.60975e-10
3.63333e-10
3.65793e-10
3.68306e-10
3.70653e-10
3.72527e-10
3.74143e-10
3.75796e-10
3.77583e-10
3.79686e-10
3.82262e-10
3.8578e-10
3.98041e-10
3.98519e-09
1.88132e-07
4.79372e-07
1.06692e-06
1.38694e-06
1.36134e-06
1.30745e-06
1.29381e-06
1.27074e-06
1.21971e-06
1.13007e-06
1.0061e-06
8.86599e-07
8.11246e-07
7.76851e-07
7.61721e-07
7.53727e-07
7.48388e-07
7.44564e-07
7.41687e-07
7.39483e-07
7.37772e-07
7.36424e-07
7.35343e-07
7.34469e-07
7.33739e-07
7.33127e-07
7.32615e-07
7.3218e-07
7.31789e-07
7.31464e-07
7.31174e-07
7.30922e-07
7.307e-07
7.30506e-07
7.30333e-07
7.30176e-07
7.30038e-07
7.2992e-07
7.29812e-07
7.29707e-07
7.29623e-07
7.29544e-07
7.29475e-07
7.29411e-07
7.2935e-07
7.29296e-07
7.29253e-07
7.29214e-07
7.29176e-07
7.29138e-07
)
;
    }
    inandouthalf22
    {
        type            cyclic;
        value           nonuniform List<scalar> 
100
(
-3.17898e-10
-3.18472e-10
-3.19055e-10
-3.19649e-10
-3.20255e-10
-3.20874e-10
-3.21507e-10
-3.22158e-10
-3.22829e-10
-3.23523e-10
-3.24243e-10
-3.24994e-10
-3.25779e-10
-3.26602e-10
-3.27468e-10
-3.2838e-10
-3.2934e-10
-3.30352e-10
-3.31418e-10
-3.32539e-10
-3.33716e-10
-3.3495e-10
-3.36241e-10
-3.37591e-10
-3.39001e-10
-3.40475e-10
-3.42016e-10
-3.43628e-10
-3.45311e-10
-3.47061e-10
-3.48868e-10
-3.50719e-10
-3.52611e-10
-3.54557e-10
-3.56587e-10
-3.58725e-10
-3.60975e-10
-3.63333e-10
-3.65793e-10
-3.68306e-10
-3.70653e-10
-3.72527e-10
-3.74143e-10
-3.75796e-10
-3.77583e-10
-3.79686e-10
-3.82262e-10
-3.8578e-10
-3.98041e-10
-3.98519e-09
-1.88132e-07
-4.79372e-07
-1.06692e-06
-1.38694e-06
-1.36134e-06
-1.30745e-06
-1.29381e-06
-1.27074e-06
-1.21971e-06
-1.13007e-06
-1.0061e-06
-8.86599e-07
-8.11246e-07
-7.76851e-07
-7.61721e-07
-7.53727e-07
-7.48388e-07
-7.44564e-07
-7.41687e-07
-7.39483e-07
-7.37772e-07
-7.36424e-07
-7.35343e-07
-7.34469e-07
-7.33739e-07
-7.33127e-07
-7.32615e-07
-7.3218e-07
-7.31789e-07
-7.31464e-07
-7.31174e-07
-7.30922e-07
-7.307e-07
-7.30506e-07
-7.30333e-07
-7.30176e-07
-7.30038e-07
-7.2992e-07
-7.29812e-07
-7.29707e-07
-7.29623e-07
-7.29544e-07
-7.29475e-07
-7.29411e-07
-7.2935e-07
-7.29296e-07
-7.29253e-07
-7.29214e-07
-7.29176e-07
-7.29138e-07
)
;
    }
    inandouthalf31
    {
        type            cyclic;
        value           nonuniform List<scalar> 
110
(
7.29106e-07
7.43875e-07
7.58951e-07
7.74334e-07
7.90024e-07
8.06032e-07
8.2237e-07
8.39047e-07
8.56061e-07
8.73417e-07
8.91127e-07
9.09202e-07
9.27644e-07
9.46457e-07
9.65655e-07
9.85247e-07
1.00524e-06
1.02563e-06
1.04644e-06
1.06767e-06
1.08934e-06
1.11144e-06
1.13399e-06
1.15701e-06
1.18048e-06
1.20444e-06
1.22888e-06
1.25382e-06
1.27927e-06
1.30523e-06
1.33172e-06
1.35875e-06
1.38633e-06
1.41447e-06
1.44318e-06
1.47247e-06
1.50235e-06
1.53285e-06
1.56396e-06
1.5957e-06
1.62809e-06
1.66113e-06
1.69485e-06
1.72925e-06
1.76435e-06
1.80016e-06
1.8367e-06
1.87398e-06
1.91202e-06
1.95082e-06
1.99042e-06
2.03082e-06
2.07204e-06
2.1141e-06
2.15701e-06
2.20079e-06
2.24546e-06
2.29104e-06
2.33754e-06
2.38499e-06
2.43339e-06
2.48279e-06
2.53318e-06
2.5846e-06
2.63706e-06
2.69058e-06
2.74519e-06
2.80091e-06
2.85776e-06
2.91577e-06
2.97495e-06
3.03534e-06
3.09694e-06
3.1598e-06
3.22394e-06
3.28938e-06
3.35614e-06
3.42426e-06
3.49377e-06
3.56468e-06
3.63704e-06
3.71086e-06
3.78618e-06
3.86303e-06
3.94144e-06
4.02144e-06
4.10306e-06
4.18634e-06
4.27131e-06
4.35801e-06
4.44647e-06
4.53672e-06
4.6288e-06
4.72275e-06
4.81861e-06
4.91642e-06
5.01621e-06
5.11802e-06
5.22191e-06
5.3279e-06
5.43604e-06
5.54638e-06
5.65895e-06
5.77381e-06
5.89101e-06
6.01058e-06
6.13258e-06
6.25705e-06
6.38405e-06
6.51363e-06
)
;
    }
    inandouthalf32
    {
        type            cyclic;
        value           nonuniform List<scalar> 
110
(
-7.29106e-07
-7.43875e-07
-7.58951e-07
-7.74334e-07
-7.90024e-07
-8.06032e-07
-8.2237e-07
-8.39047e-07
-8.56061e-07
-8.73417e-07
-8.91127e-07
-9.09202e-07
-9.27644e-07
-9.46457e-07
-9.65655e-07
-9.85247e-07
-1.00524e-06
-1.02563e-06
-1.04644e-06
-1.06767e-06
-1.08934e-06
-1.11144e-06
-1.13399e-06
-1.15701e-06
-1.18048e-06
-1.20444e-06
-1.22888e-06
-1.25382e-06
-1.27927e-06
-1.30523e-06
-1.33172e-06
-1.35875e-06
-1.38633e-06
-1.41447e-06
-1.44318e-06
-1.47247e-06
-1.50235e-06
-1.53285e-06
-1.56396e-06
-1.5957e-06
-1.62809e-06
-1.66113e-06
-1.69485e-06
-1.72925e-06
-1.76435e-06
-1.80016e-06
-1.8367e-06
-1.87398e-06
-1.91202e-06
-1.95082e-06
-1.99042e-06
-2.03082e-06
-2.07204e-06
-2.1141e-06
-2.15701e-06
-2.20079e-06
-2.24546e-06
-2.29104e-06
-2.33754e-06
-2.38499e-06
-2.43339e-06
-2.48279e-06
-2.53318e-06
-2.5846e-06
-2.63706e-06
-2.69058e-06
-2.74519e-06
-2.80091e-06
-2.85776e-06
-2.91577e-06
-2.97495e-06
-3.03534e-06
-3.09694e-06
-3.1598e-06
-3.22394e-06
-3.28938e-06
-3.35614e-06
-3.42426e-06
-3.49377e-06
-3.56468e-06
-3.63704e-06
-3.71086e-06
-3.78618e-06
-3.86303e-06
-3.94144e-06
-4.02144e-06
-4.10306e-06
-4.18634e-06
-4.27131e-06
-4.35801e-06
-4.44647e-06
-4.53672e-06
-4.6288e-06
-4.72275e-06
-4.81861e-06
-4.91642e-06
-5.01621e-06
-5.11802e-06
-5.22191e-06
-5.3279e-06
-5.43604e-06
-5.54638e-06
-5.65895e-06
-5.77381e-06
-5.89101e-06
-6.01058e-06
-6.13258e-06
-6.25705e-06
-6.38405e-06
-6.51363e-06
)
;
    }
    inandouthalf41
    {
        type            cyclic;
        value           nonuniform List<scalar> 
50
(
5.83037e-06
5.83037e-06
5.83037e-06
5.83037e-06
5.83037e-06
5.83037e-06
5.83037e-06
5.83037e-06
5.83037e-06
5.83037e-06
5.83037e-06
5.83037e-06
5.83037e-06
5.83037e-06
5.83037e-06
5.83037e-06
5.83037e-06
5.83037e-06
5.83037e-06
5.83037e-06
5.83037e-06
5.83037e-06
5.83037e-06
5.83037e-06
5.83037e-06
5.83037e-06
5.83037e-06
5.83037e-06
5.83037e-06
5.83037e-06
5.83037e-06
5.83037e-06
5.83037e-06
5.83037e-06
5.83037e-06
5.83037e-06
5.83037e-06
5.83037e-06
5.83037e-06
5.83037e-06
5.83037e-06
5.83037e-06
5.83037e-06
5.83037e-06
5.83037e-06
5.83037e-06
5.83037e-06
5.83037e-06
5.83037e-06
5.83037e-06
)
;
    }
    inandouthalf42
    {
        type            cyclic;
        value           nonuniform List<scalar> 
50
(
-5.83037e-06
-5.83037e-06
-5.83037e-06
-5.83037e-06
-5.83037e-06
-5.83037e-06
-5.83037e-06
-5.83037e-06
-5.83037e-06
-5.83037e-06
-5.83037e-06
-5.83037e-06
-5.83037e-06
-5.83037e-06
-5.83037e-06
-5.83037e-06
-5.83037e-06
-5.83037e-06
-5.83037e-06
-5.83037e-06
-5.83037e-06
-5.83037e-06
-5.83037e-06
-5.83037e-06
-5.83037e-06
-5.83037e-06
-5.83037e-06
-5.83037e-06
-5.83037e-06
-5.83037e-06
-5.83037e-06
-5.83037e-06
-5.83037e-06
-5.83037e-06
-5.83037e-06
-5.83037e-06
-5.83037e-06
-5.83037e-06
-5.83037e-06
-5.83037e-06
-5.83037e-06
-5.83037e-06
-5.83037e-06
-5.83037e-06
-5.83037e-06
-5.83037e-06
-5.83037e-06
-5.83037e-06
-5.83037e-06
-5.83037e-06
)
;
    }
    top
    {
        type            symmetryPlane;
        value           uniform 0;
    }
    walls
    {
        type            calculated;
        value           uniform 0;
    }
    frontAndBackPlanes
    {
        type            empty;
        value           nonuniform 0();
    }
}


// ************************************************************************* //
