/*--------------------------------*- C++ -*----------------------------------*\
| =========                 |                                                 |
| \\      /  F ield         | OpenFOAM: The Open Source CFD Toolbox           |
|  \\    /   O peration     | Version:  2.4.x                                 |
|   \\  /    A nd           | Web:      www.OpenFOAM.org                      |
|    \\/     M anipulation  |                                                 |
\*---------------------------------------------------------------------------*/
FoamFile
{
    version     2.0;
    format      ascii;
    class       volScalarField;
    location    "2.05";
    object      mua;
}
// * * * * * * * * * * * * * * * * * * * * * * * * * * * * * * * * * * * * * //

dimensions      [1 -1 -1 0 0 0 0];

internalField   nonuniform List<scalar> 
360
(
6.4088e+33
7.21052e+36
6.38366e+36
5.68439e+36
5.0367e+36
4.48153e+36
4.00851e+36
3.60312e+36
3.25697e+36
2.95861e+36
2.70262e+36
2.48379e+36
2.29376e+36
2.12881e+36
1.98583e+36
1.86165e+36
1.75342e+36
1.65855e+36
1.57439e+36
1.49889e+36
1.43193e+36
1.37108e+36
1.31585e+36
1.26592e+36
1.22057e+36
1.17892e+36
1.13973e+36
1.1018e+36
1.06563e+36
1.03141e+36
9.9853e+35
9.66361e+35
9.35111e+35
9.03565e+35
8.72684e+35
8.41822e+35
8.10698e+35
7.7878e+35
7.46533e+35
7.14689e+35
6.82232e+35
6.49736e+35
6.17111e+35
5.83582e+35
5.49793e+35
5.15637e+35
4.81131e+35
4.45864e+35
4.08938e+35
3.69858e+35
3.29209e+35
2.85509e+35
2.39176e+35
1.89356e+35
1.39241e+35
9.09665e+34
5.19053e+34
2.43011e+34
9.13662e+33
2.42398e+33
4.88527e+32
6.64776e+31
5.05634e+30
1.57218e+28
1.27113e+24
6.0318e+18
4.02555e+11
2.1282e+06
255383
76028.5
41727.3
36123.6
42598.7
58254.7
80251.1
102193
116813
120743
115953
107049
98036.5
91043.6
86672.2
84635.7
84224.9
84623.7
85115.1
85239.4
84818.5
83905.6
82682.4
81334
79974.9
78642.7
77314.3
75936.3
74456.3
72841
71078.6
69174.3
67143.3
65003.4
62773.4
60474.4
58130.4
55768.5
53417.8
51106.7
48861.7
46705.1
44654.5
42722.4
40916.3
39238.9
37688.7
36260.9
34948.7
33743.7
32636.9
31619.1
30679.9
29807.1
28984.8
28193.2
27410.4
26618.1
25811.7
25011.1
24264.2
23632.5
23154.6
22796.6
22429.2
21892.3
21152.7
20378.3
19773.7
19394.1
19333.6
20327.2
24293.3
34251.3
51408.4
74128.3
105478
160548
251926
229819
354.969
0.0269366
0.005269
0.00685114
0.00770785
0.00790293
0.00774852
0.00740397
0.00696653
0.006512
0.00610938
0.00581192
0.00563226
0.00553765
0.00548419
0.00544666
0.00541557
0.00538804
0.00536282
0.0053392
0.0053169
0.00529554
0.00527502
0.00525512
0.0052358
0.00521688
0.00519834
0.00518008
0.00516206
0.00514419
0.00512647
0.00510884
0.00509124
0.00507367
0.00505608
0.00503844
0.00502073
0.00500294
0.00498502
0.00496697
0.00494876
0.00493039
0.00491184
0.00489308
0.00487411
0.00485492
0.0048355
0.00481584
0.00479593
0.00477574
0.0047553
0.0047346
0.00471362
0.00469214
0.00466991
0.00464691
0.00462311
0.00459848
0.00457297
0.00454651
0.00451907
0.00449062
0.0044611
0.00443043
0.00439855
0.00436542
0.00433094
0.00429502
0.00425757
0.00421852
0.00417775
0.00413511
0.00409047
0.00404369
0.00399459
0.00394297
0.00388862
0.00383127
0.00377061
0.00370631
0.00363798
0.00356511
0.00348713
0.00340336
0.00331292
0.00321469
0.00310727
0.0029888
0.00285668
0.00270721
0.00253474
0.00232981
0.00207429
0.00172348
0
0
0
0
0
0
0
0
0
0
0
0
0
0
0
0
0
0
0
0
0
0
0
0
0
0
0
0
0
0
0
0
0
0
0
0
0
0
0
0
0
0
0
0
0
0
0
0
0
0
0
0
0
0
0
0
0
0
0
0
0
0
0
0
0
0
0
0
0
0
0
0
0
0
0
0
0
0
0
0
0
0
0
0
0
0
0
0
0
0
0
0
0
0
0
0
0
0
0
0
0
0
0
0
0
0
0
0
0
0
0
0
0
0
0
0
0
0
)
;

boundaryField
{
    inandouthalf11
    {
        type            cyclic;
    }
    inandouthalf12
    {
        type            cyclic;
    }
    inandouthalf21
    {
        type            cyclic;
    }
    inandouthalf22
    {
        type            cyclic;
    }
    inandouthalf31
    {
        type            cyclic;
    }
    inandouthalf32
    {
        type            cyclic;
    }
    inandouthalf41
    {
        type            cyclic;
    }
    inandouthalf42
    {
        type            cyclic;
    }
    top
    {
        type            symmetryPlane;
    }
    walls
    {
        type            calculated;
        value           uniform 1e+30;
    }
    frontAndBackPlanes
    {
        type            empty;
    }
}


// ************************************************************************* //
