/*--------------------------------*- C++ -*----------------------------------*\
| =========                 |                                                 |
| \\      /  F ield         | OpenFOAM: The Open Source CFD Toolbox           |
|  \\    /   O peration     | Version:  2.4.x                                 |
|   \\  /    A nd           | Web:      www.OpenFOAM.org                      |
|    \\/     M anipulation  |                                                 |
\*---------------------------------------------------------------------------*/
FoamFile
{
    version     2.0;
    format      ascii;
    class       volScalarField;
    location    "2.05";
    object      p;
}
// * * * * * * * * * * * * * * * * * * * * * * * * * * * * * * * * * * * * * //

dimensions      [1 -1 -2 0 0 0 0];

internalField   nonuniform List<scalar> 
360
(
4894.96
4890.05
4885.15
4880.24
4875.34
4870.43
4865.53
4860.62
4855.72
4850.81
4845.91
4841
4836.1
4831.19
4826.29
4821.38
4816.48
4811.57
4806.67
4801.76
4796.86
4791.95
4787.05
4782.14
4777.24
4772.33
4767.43
4762.52
4757.62
4752.71
4747.81
4742.9
4738
4733.09
4728.19
4723.28
4718.38
4713.47
4708.57
4703.66
4698.76
4693.85
4688.95
4684.04
4679.14
4674.23
4669.33
4664.42
4659.52
4654.61
4649.71
4644.8
4639.9
4634.99
4630.09
4625.18
4620.28
4615.37
4610.47
4605.56
4600.66
4595.75
4590.85
4585.94
4581.04
4576.13
4571.23
4566.32
4561.42
4556.51
4551.6
4546.68
4541.76
4536.83
4531.89
4526.94
4522
4517.05
4512.1
4507.15
4502.19
4497.24
4492.28
4487.31
4482.35
4477.37
4472.4
4467.43
4462.45
4457.47
4452.48
4447.49
4442.5
4437.51
4432.51
4427.52
4422.51
4417.51
4412.5
4407.49
4402.48
4397.47
4392.45
4387.43
4382.4
4377.37
4372.34
4367.31
4362.27
4357.23
4352.19
4347.14
4342.09
4337.04
4331.98
4326.92
4321.86
4316.79
4311.72
4306.64
4301.56
4296.48
4291.39
4286.3
4281.21
4276.11
4271.01
4265.91
4260.8
4255.69
4250.58
4245.46
4240.34
4235.22
4230.1
4224.97
4219.84
4214.71
4209.58
4204.44
4199.3
4194.17
4189.03
4183.89
4178.76
4173.62
4168.49
4163.36
4158.23
4153.13
4147.33
4141.88
4136.79
4132.22
4127.48
4122.63
4117.71
4112.83
4107.92
4103.03
4098.12
4093.22
4088.31
4083.41
4078.5
4073.6
4068.7
4063.79
4058.89
4053.98
4049.08
4044.17
4039.27
4034.36
4029.46
4024.55
4019.65
4014.74
4009.84
4004.93
4000.03
3995.12
3990.22
3985.31
3980.41
3975.5
3970.6
3965.69
3960.79
3955.88
3950.98
3946.07
3941.17
3936.26
3931.36
3926.45
3921.55
3916.64
3911.74
3906.83
3901.93
3896.97
3891.92
3886.76
3881.5
3876.13
3870.65
3865.06
3859.36
3853.54
3847.6
3841.54
3835.36
3829.06
3822.62
3816.06
3809.36
3802.53
3795.55
3788.44
3781.18
3773.78
3766.22
3758.51
3750.65
3742.62
3734.43
3726.08
3717.55
3708.86
3699.98
3690.93
3681.69
3672.27
3662.65
3652.84
3642.83
3632.61
3622.19
3611.56
3600.71
3589.64
3578.35
3566.83
3555.07
3543.08
3530.84
3518.35
3505.61
3492.61
3479.35
3465.82
3452.01
3437.92
3423.55
3408.88
3393.92
3378.66
3363.08
3347.19
3330.97
3314.43
3297.55
3280.33
3262.76
3244.83
3226.54
3207.87
3188.83
3169.4
3149.58
3129.35
3108.72
3087.66
3066.18
3044.26
3021.9
2999.08
2975.8
2952.05
2927.81
2903.09
2877.86
2852.12
2825.86
2799.06
2771.72
2743.82
2715.36
2686.32
2656.7
2626.47
2595.62
2564.15
2532.05
2499.29
2465.86
2431.76
2396.96
2361.46
2325.24
2288.28
2250.57
2212.1
2172.85
2132.8
2091.93
2050.24
2007.7
1964.3
1922.76
1883.52
1844.28
1805.04
1765.8
1726.56
1687.32
1648.08
1608.84
1569.6
1530.36
1491.12
1451.88
1412.64
1373.4
1334.16
1294.92
1255.68
1216.44
1177.2
1137.96
1098.72
1059.48
1020.24
981
941.76
902.52
863.28
824.04
784.8
745.56
706.32
667.08
627.84
588.6
549.36
510.12
470.88
431.64
392.4
353.16
313.92
274.68
235.44
196.2
156.96
117.72
78.48
39.24
-2.74983e-07
)
;

boundaryField
{
    inandouthalf11
    {
        type            cyclic;
    }
    inandouthalf12
    {
        type            cyclic;
    }
    inandouthalf21
    {
        type            cyclic;
    }
    inandouthalf22
    {
        type            cyclic;
    }
    inandouthalf31
    {
        type            cyclic;
    }
    inandouthalf32
    {
        type            cyclic;
    }
    inandouthalf41
    {
        type            cyclic;
    }
    inandouthalf42
    {
        type            cyclic;
    }
    top
    {
        type            symmetryPlane;
    }
    walls
    {
        type            slip;
    }
    frontAndBackPlanes
    {
        type            empty;
    }
}


// ************************************************************************* //
