/*--------------------------------*- C++ -*----------------------------------*\
| =========                 |                                                 |
| \\      /  F ield         | OpenFOAM: The Open Source CFD Toolbox           |
|  \\    /   O peration     | Version:  2.4.x                                 |
|   \\  /    A nd           | Web:      www.OpenFOAM.org                      |
|    \\/     M anipulation  |                                                 |
\*---------------------------------------------------------------------------*/
FoamFile
{
    version     2.0;
    format      ascii;
    class       volVectorField;
    location    "2.05";
    object      susb;
}
// * * * * * * * * * * * * * * * * * * * * * * * * * * * * * * * * * * * * * //

dimensions      [0 1 -2 0 0 0 0];

internalField   nonuniform List<vector> 
360
(
(0 -1.85777e-28 0)
(0 -6.90793e-21 0)
(0 -6.90788e-21 0)
(0 3.49609e-28 0)
(-3.657e-31 -6.90788e-21 0)
(-3.65698e-31 -6.90783e-21 0)
(-7.31395e-31 -6.90783e-21 0)
(0 -6.90779e-21 0)
(-7.3139e-31 -6.90779e-21 0)
(0 -1.38155e-20 0)
(-3.6569e-31 -6.90769e-21 0)
(0 -6.90769e-21 0)
(-3.65688e-31 -1.38153e-20 0)
(0 -1.38152e-20 0)
(0 -1.38151e-20 0)
(0 -1.3815e-20 0)
(0 -1.38149e-20 0)
(-7.31351e-31 -1.38148e-20 0)
(0 -2.07221e-20 0)
(0 -2.07218e-20 0)
(0 -2.07217e-20 0)
(-7.31321e-31 -2.76285e-20 0)
(0 -2.76282e-20 0)
(0 -2.76278e-20 0)
(0 -2.76274e-20 0)
(-3.65641e-31 -2.7627e-20 0)
(0 -3.45333e-20 0)
(0 -4.14392e-20 0)
(0 -4.14383e-20 0)
(0 -4.14375e-20 0)
(0 -4.83427e-20 0)
(0 -4.83414e-20 0)
(0 -5.52462e-20 0)
(0 -6.21499e-20 0)
(0 -6.21482e-20 0)
(7.31108e-31 -6.90512e-20 0)
(0 -7.59538e-20 0)
(0 -8.97599e-20 0)
(0 -8.97557e-20 0)
(0 -9.66561e-20 0)
(0 -1.10458e-19 0)
(0 -1.10452e-19 0)
(3.65436e-31 -1.24252e-19 0)
(0 -1.38048e-19 0)
(0 -1.44941e-19 0)
(0 -1.58733e-19 0)
(0 -1.65621e-19 0)
(0 -1.79408e-19 0)
(0 -2.0699e-19 0)
(0 -2.20765e-19 0)
(3.65186e-31 -2.34538e-19 0)
(0 -2.55201e-19 0)
(0 -2.75858e-19 0)
(0 -2.96505e-19 0)
(0 -3.24039e-19 0)
(0 -3.51557e-19 0)
(0 -3.79064e-19 0)
(0 -4.13443e-19 0)
(0 -4.40913e-19 0)
(0 -4.82141e-19 0)
(0 -5.23337e-19 0)
(0 -5.64504e-19 0)
(0 -6.12515e-19 0)
(0 -6.60485e-19 0)
(0 -7.15284e-19 0)
(0 -7.769e-19 0)
(0 -8.42588e-19 0)
(0 -8.77153e-19 0)
(0 -7.88804e-19 0)
(0 -5.06182e-19 0)
(0 -1.41739e-19 0)
(0 5.94683e-20 0)
(0 -1.79419e-20 0)
(0 -2.40416e-19 0)
(0 -4.52591e-19 0)
(0 -6.0383e-19 0)
(0 -6.96342e-19 0)
(0 -7.50473e-19 0)
(0 -7.70968e-19 0)
(0 -7.63331e-19 0)
(0 -7.40405e-19 0)
(0 -7.15816e-19 0)
(0 -6.97372e-19 0)
(0 -6.93161e-19 0)
(0 -7.03799e-19 0)
(0 -7.25299e-19 0)
(0 -7.5116e-19 0)
(0 -7.75742e-19 0)
(0 -7.97697e-19 0)
(0 -8.15621e-19 0)
(0 -8.29924e-19 0)
(0 -8.43269e-19 0)
(0 -8.57333e-19 0)
(0 -8.72617e-19 0)
(0 -8.89666e-19 0)
(0 -9.08186e-19 0)
(0 -9.2749e-19 0)
(0 -9.47071e-19 0)
(0 -9.6677e-19 0)
(0 -9.86547e-19 0)
(0 -1.00653e-18 0)
(0 -1.027e-18 0)
(0 -1.04809e-18 0)
(0 -1.06979e-18 0)
(0 -1.09212e-18 0)
(0 -1.1151e-18 0)
(0 -1.13876e-18 0)
(0 -1.1632e-18 0)
(0 -1.18856e-18 0)
(0 -1.21499e-18 0)
(0 -1.24264e-18 0)
(0 -1.27167e-18 0)
(0 -1.30224e-18 0)
(0 -1.33454e-18 0)
(0 -1.36873e-18 0)
(0 -1.40499e-18 0)
(0 -1.44349e-18 0)
(0 -1.48435e-18 0)
(0 -1.52768e-18 0)
(0 -1.57357e-18 0)
(0 -1.62213e-18 0)
(0 -1.67358e-18 0)
(0 -1.7283e-18 0)
(0 -1.78693e-18 0)
(0 -1.85039e-18 0)
(0 -1.91954e-18 0)
(0 -1.99466e-18 0)
(0 -2.07464e-18 0)
(0 -2.15652e-18 0)
(0 -2.23693e-18 0)
(0 -2.31631e-18 0)
(0 -2.40489e-18 0)
(0 -2.52142e-18 0)
(0 -2.6724e-18 0)
(0 -2.82768e-18 0)
(0 -2.95042e-18 0)
(0 -3.07301e-18 0)
(0 -3.30044e-18 0)
(0 -3.67118e-18 0)
(0 -3.93941e-18 0)
(0 -3.6836e-18 0)
(0 -8.88233e-19 0)
(0 -2.47406e-18 0)
(0 -1.25509e-16 0)
(0 -6.83046e-15 0)
(0 -4.10821e-13 0)
(0 -2.85419e-11 0)
(0 -2.81926e-09 0)
(0 -1.04207e-06 0)
(0 -0.0016946 0)
(0 -0.0175449 0)
(0 -0.045453 0)
(0 -0.0120927 0)
(0 -0.00283534 0)
(0 -0.000434049 0)
(0 -5.27746e-05 0)
(0 -5.80357e-06 0)
(0 -5.63989e-07 0)
(0 -4.49051e-08 0)
(0 -2.73501e-09 0)
(0 -1.21226e-10 0)
(0 -3.90626e-12 0)
(0 -1.00422e-13 0)
(0 -2.86029e-15 0)
(0 -1.54679e-16 0)
(0 -1.86193e-17 0)
(0 -2.91676e-18 0)
(0 -5.96106e-19 0)
(0 -1.80272e-19 0)
(0 -8.7354e-20 0)
(0 -5.8056e-20 0)
(0 -4.11915e-20 0)
(0 -3.04647e-20 0)
(0 -2.11988e-20 0)
(0 -1.6644e-20 0)
(0 -1.24606e-20 0)
(0 -9.20694e-21 0)
(0 -6.43996e-21 0)
(0 -5.52833e-21 0)
(0 -3.41817e-21 0)
(0 -2.786e-21 0)
(0 -1.92431e-21 0)
(0 -1.53606e-21 0)
(0 -1.37517e-21 0)
(0 -1.1986e-21 0)
(0 -1.12831e-21 0)
(0 -9.37499e-22 0)
(0 -8.22963e-22 0)
(0 -7.44217e-22 0)
(0 -7.90079e-22 0)
(0 -5.48367e-22 0)
(0 -5.46581e-22 0)
(0 -4.71999e-22 0)
(0 -4.57068e-22 0)
(0 -4.48661e-22 0)
(0 -3.57667e-22 0)
(0 -2.97394e-22 0)
(0 -2.52643e-22 0)
(0 -2.66956e-22 0)
(0 -2.84707e-22 0)
(0 -2.63116e-22 0)
(0 -1.80632e-22 0)
(-6.03743e-38 -1.37624e-22 0)
(0 -1.22824e-22 0)
(0 -1.78534e-22 0)
(5.62938e-38 -1.69116e-22 0)
(0 -1.13113e-22 0)
(-5.36987e-38 -7.10975e-23 0)
(0 -8.04173e-23 0)
(5.12261e-38 -1.08036e-22 0)
(0 -8.28524e-23 0)
(0 -4.62379e-23 0)
(0 -5.36172e-23 0)
(2.32857e-38 -6.96817e-23 0)
(0 -4.89203e-23 0)
(0 -2.54331e-23 0)
(0 -3.12614e-23 0)
(0 -4.22652e-23 0)
(0 -3.24747e-23 0)
(0 -1.72981e-23 0)
(0 -1.87639e-23 0)
(-9.58663e-39 -2.2131e-23 0)
(0 -1.50145e-23 0)
(-4.56131e-39 -1.16704e-23 0)
(0 -1.42911e-23 0)
(0 -1.03387e-23 0)
(0 -6.35443e-24 0)
(0 -8.35904e-24 0)
(2.01048e-39 -7.47168e-24 0)
(1.95929e-39 -4.13392e-24 0)
(0 -4.42686e-24 0)
(0 -4.62133e-24 0)
(0 -2.94166e-24 0)
(0 -2.617e-24 0)
(0 -2.26483e-24 0)
(0 -1.82426e-24 0)
(0 -1.52625e-24 0)
(0 -7.64382e-25 0)
(0 -4.24239e-25 0)
(0 -1.557e-25 0)
(0 -8.43801e-26 0)
(0 -4.02226e-25 0)
(0 -2.31437e-24 0)
(-1.53172e-41 -1.43058e-24 0)
(1.87656e-42 -4.29737e-26 0)
(0 -3.79268e-27 0)
(0 -3.61107e-27 0)
(-8.83388e-43 -2.07681e-27 0)
(0 -1.68767e-27 0)
(0 -1.80679e-27 0)
(-8.3171e-43 -1.48071e-27 0)
(0 -1.22744e-27 0)
(0 -7.52963e-28 0)
(0 -5.43769e-28 0)
(0 -5.54975e-28 0)
(0 -4.58044e-28 0)
(0 -3.53867e-28 0)
(0 -1.95594e-28 0)
(0 -1.58587e-28 0)
(0 -1.88908e-28 0)
(0 -1.26245e-28 0)
(0 -5.75721e-29 0)
(0 -5.99673e-29 0)
(0 -6.49631e-29 0)
(0 -3.83686e-29 0)
(0 -1.85557e-29 0)
(0 -2.0142e-29 0)
(0 -1.86873e-29 0)
(0 -9.40845e-30 0)
(0 -5.98816e-30 0)
(0 -6.24008e-30 0)
(0 -4.3138e-30 0)
(0 -2.18598e-30 0)
(0 -1.8977e-30 0)
(0 -1.3588e-30 0)
(0 -8.94963e-31 0)
(0 -6.56666e-31 0)
(0 -3.90718e-31 0)
(0 -2.98193e-31 0)
(0 -2.03673e-31 0)
(0 -1.46054e-31 0)
(0 -7.14026e-32 0)
(0 -5.85346e-32 0)
(0 -3.77544e-32 0)
(0 -2.22876e-32 0)
(0 -1.49604e-32 0)
(3.07821e-48 -8.34059e-33 0)
(0 -5.74944e-33 0)
(0 -3.30674e-33 0)
(0 -2.21019e-33 0)
(0 -1.39028e-33 0)
(0 -1.01894e-33 0)
(0 -4.43607e-34 0)
(0 -2.13716e-34 0)
(0 -9.00936e-35 0)
(0 -3.21894e-35 0)
(2.45885e-51 -1.20801e-35 0)
(0 -4.40909e-36 0)
(0 -1.55394e-36 0)
(-7.23437e-53 -5.15216e-37 0)
(0 -1.59217e-37 0)
(0 -4.54731e-38 0)
(0 -1.18803e-38 0)
(0 -2.80507e-39 0)
(0 -5.89775e-40 0)
(0 -1.08357e-40 0)
(0 -1.69623e-41 0)
(0 -2.18185e-42 0)
(0 -2.17729e-43 0)
(0 -1.51567e-44 0)
(0 -5.80885e-46 0)
(0 -1.05264e-47 0)
(0 -3.28856e-49 0)
(0 -5.07268e-51 0)
(0 -6.03656e-62 0)
(0 -3.57347e-73 0)
(0 -1.48913e-84 0)
(0 -4.66347e-96 0)
(0 -1.22299e-107 0)
(0 -4.2591e-119 0)
(0 -2.73464e-130 0)
(0 -5.67545e-138 0)
(0 -9.60433e-149 0)
(0 -1.9519e-156 0)
(0 -3.27815e-167 0)
(0 -6.71404e-175 0)
(0 -1.37384e-185 0)
(0 -2.30874e-193 0)
(0 -6.15985e-204 0)
(0 -7.94315e-212 0)
(0 -4.22572e-222 0)
(0 -2.74627e-230 0)
(0 -2.82794e-240 0)
(0 -9.56909e-249 0)
(0 -1.45158e-258 0)
(0 -3.36107e-267 0)
(0 -6.89989e-277 0)
(0 -1.19216e-285 0)
(0 -3.05565e-295 0)
(0 -4.26689e-304 0)
(0 -1.30624e-313 0)
(0 -1.5316e-322 0)
(0 -0 0)
(0 0 0)
(0 0 0)
(0 0 0)
(0 0 0)
(0 0 0)
(0 0 0)
(0 0 0)
(0 0 0)
(0 0 0)
(0 0 0)
(0 0 0)
(0 0 0)
(0 0 0)
(0 0 0)
(0 0 0)
(0 0 0)
(0 0 0)
)
;

boundaryField
{
    inandouthalf11
    {
        type            cyclic;
    }
    inandouthalf12
    {
        type            cyclic;
    }
    inandouthalf21
    {
        type            cyclic;
    }
    inandouthalf22
    {
        type            cyclic;
    }
    inandouthalf31
    {
        type            cyclic;
    }
    inandouthalf32
    {
        type            cyclic;
    }
    inandouthalf41
    {
        type            cyclic;
    }
    inandouthalf42
    {
        type            cyclic;
    }
    top
    {
        type            symmetryPlane;
    }
    walls
    {
        type            zeroGradient;
    }
    frontAndBackPlanes
    {
        type            empty;
    }
}


// ************************************************************************* //
