/*--------------------------------*- C++ -*----------------------------------*\
| =========                 |                                                 |
| \\      /  F ield         | OpenFOAM: The Open Source CFD Toolbox           |
|  \\    /   O peration     | Version:  2.4.x                                 |
|   \\  /    A nd           | Web:      www.OpenFOAM.org                      |
|    \\/     M anipulation  |                                                 |
\*---------------------------------------------------------------------------*/
FoamFile
{
    version     2.0;
    format      ascii;
    class       volTensorField;
    location    "2.05";
    object      Tauf;
}
// * * * * * * * * * * * * * * * * * * * * * * * * * * * * * * * * * * * * * //

dimensions      [0 2 -2 0 0 0 0];

internalField   nonuniform List<tensor> 
360
(
(0 -3.11044e-07 0 -3.11044e-07 6.65858e-16 0 0 0 0)
(0 -2.66394e-10 0 -2.66394e-10 6.68121e-16 0 0 0 0)
(0 -1.5322e-12 0 -1.5322e-12 6.69785e-16 0 0 0 0)
(0 -2.41907e-15 0 -2.41907e-15 6.6992e-16 0 0 0 0)
(5.16988e-23 -1.30629e-12 0 -1.30629e-12 6.70422e-16 0 0 0 0)
(2.58494e-23 -1.3074e-12 0 -1.3074e-12 6.71541e-16 0 0 0 0)
(2.58494e-23 -1.30742e-12 0 -1.30742e-12 6.71632e-16 0 0 0 0)
(0 -1.30742e-12 0 -1.30742e-12 6.7101e-16 0 0 0 0)
(2.58494e-23 -1.30854e-12 0 -1.30854e-12 6.71286e-16 0 0 0 0)
(0 -2.61263e-12 0 -2.61263e-12 6.71486e-16 0 0 0 0)
(2.58494e-23 -1.30855e-12 0 -1.30855e-12 6.70343e-16 0 0 0 0)
(0 -1.30856e-12 0 -1.30856e-12 6.69493e-16 0 0 0 0)
(2.58494e-23 -2.61379e-12 0 -2.61379e-12 6.68724e-16 0 0 0 0)
(0 -2.61492e-12 0 -2.61492e-12 6.66935e-16 0 0 0 0)
(0 -2.61494e-12 0 -2.61494e-12 6.65439e-16 0 0 0 0)
(0 -2.61496e-12 0 -2.61496e-12 6.63827e-16 0 0 0 0)
(0 -2.61498e-12 0 -2.61498e-12 6.62546e-16 0 0 0 0)
(2.58494e-23 -2.61611e-12 0 -2.61611e-12 6.61828e-16 0 0 0 0)
(0 -3.92142e-12 0 -3.92142e-12 6.60031e-16 0 0 0 0)
(0 -3.92257e-12 0 -3.92257e-12 6.57776e-16 0 0 0 0)
(0 -3.92374e-12 0 -3.92374e-12 6.55669e-16 0 0 0 0)
(2.58494e-23 -5.22911e-12 0 -5.22911e-12 6.53398e-16 0 0 0 0)
(0 -5.2303e-12 0 -5.2303e-12 6.5119e-16 0 0 0 0)
(0 -5.23038e-12 0 -5.23038e-12 6.49481e-16 0 0 0 0)
(0 -5.23046e-12 0 -5.23046e-12 6.47639e-16 0 0 0 0)
(2.58494e-23 -5.23165e-12 0 -5.23165e-12 6.44708e-16 0 0 0 0)
(0 -6.5383e-12 0 -6.5383e-12 6.41984e-16 0 0 0 0)
(0 -7.84499e-12 0 -7.84499e-12 6.39701e-16 0 0 0 0)
(0 -7.84628e-12 0 -7.84628e-12 6.36553e-16 0 0 0 0)
(0 -7.84757e-12 0 -7.84757e-12 6.33856e-16 0 0 0 0)
(0 -9.15332e-12 0 -9.15332e-12 6.31244e-16 0 0 0 0)
(0 -9.15575e-12 0 -9.15575e-12 6.28281e-16 0 0 0 0)
(0 -1.04628e-11 0 -1.04628e-11 6.26636e-16 0 0 0 0)
(0 -1.17698e-11 0 -1.17698e-11 6.24702e-16 0 0 0 0)
(0 -1.17725e-11 0 -1.17725e-11 6.20797e-16 0 0 0 0)
(-2.58494e-23 -1.30798e-11 0 -1.30798e-11 6.1632e-16 0 0 0 0)
(0 -1.43894e-11 0 -1.43894e-11 6.13308e-16 0 0 0 0)
(0 -1.70029e-11 0 -1.70029e-11 6.1141e-16 0 0 0 0)
(0 -1.7007e-11 0 -1.7007e-11 6.08362e-16 0 0 0 0)
(0 -1.83162e-11 0 -1.83162e-11 6.04214e-16 0 0 0 0)
(0 -2.09304e-11 0 -2.09304e-11 6.00269e-16 0 0 0 0)
(0 -2.09361e-11 0 -2.09361e-11 5.96707e-16 0 0 0 0)
(-2.58494e-23 -2.35522e-11 0 -2.35522e-11 5.93376e-16 0 0 0 0)
(0 -2.61697e-11 0 -2.61697e-11 5.90189e-16 0 0 0 0)
(0 -2.74827e-11 0 -2.74827e-11 5.87448e-16 0 0 0 0)
(0 -3.01002e-11 0 -3.01002e-11 5.842e-16 0 0 0 0)
(0 -3.14139e-11 0 -3.14139e-11 5.79708e-16 0 0 0 0)
(0 -3.4036e-11 0 -3.4036e-11 5.75772e-16 0 0 0 0)
(0 -3.92716e-11 0 -3.92716e-11 5.72626e-16 0 0 0 0)
(0 -4.18968e-11 0 -4.18968e-11 5.6965e-16 0 0 0 0)
(-5.16988e-23 -4.45221e-11 0 -4.45221e-11 5.6662e-16 0 0 0 0)
(0 -4.84557e-11 0 -4.84557e-11 5.62367e-16 0 0 0 0)
(0 -5.23921e-11 0 -5.23921e-11 5.57322e-16 0 0 0 0)
(0 -5.63313e-11 0 -5.63313e-11 5.52109e-16 0 0 0 0)
(0 -6.15808e-11 0 -6.15808e-11 5.47836e-16 0 0 0 0)
(0 -6.68337e-11 0 -6.68337e-11 5.44573e-16 0 0 0 0)
(0 -7.20912e-11 0 -7.20912e-11 5.40477e-16 0 0 0 0)
(0 -7.86593e-11 0 -7.86593e-11 5.3591e-16 0 0 0 0)
(0 -8.39261e-11 0 -8.39261e-11 5.3153e-16 0 0 0 0)
(0 -9.1815e-11 0 -9.1815e-11 5.27467e-16 0 0 0 0)
(0 -9.97117e-11 0 -9.97117e-11 5.23137e-16 0 0 0 0)
(0 -1.07617e-10 0 -1.07617e-10 5.18721e-16 0 0 0 0)
(0 -1.1684e-10 0 -1.1684e-10 5.13567e-16 0 0 0 0)
(0 -1.26074e-10 0 -1.26074e-10 5.86065e-16 0 0 0 0)
(0 -1.36631e-10 0 -1.36631e-10 -1.25768e-14 0 0 0 0)
(0 -1.48515e-10 0 -1.48515e-10 1.39165e-13 0 0 0 0)
(0 -1.61212e-10 0 -1.61212e-10 -8.43916e-13 0 0 0 0)
(0 -1.70253e-10 0 -1.70253e-10 2.8181e-10 0 0 0 0)
(0 -1.6858e-10 0 -1.6858e-10 1.66303e-09 0 0 0 0)
(0 -1.51589e-10 0 -1.51589e-10 4.42864e-09 0 0 0 0)
(0 -1.21539e-10 0 -1.21539e-10 7.2137e-09 0 0 0 0)
(0 -9.34308e-11 0 -9.34308e-11 8.25136e-09 0 0 0 0)
(0 -8.89041e-11 0 -8.89041e-11 7.32359e-09 0 0 0 0)
(0 -1.0532e-10 0 -1.0532e-10 5.5852e-09 0 0 0 0)
(0 -1.26804e-10 0 -1.26804e-10 4.09452e-09 0 0 0 0)
(0 -1.44654e-10 0 -1.44654e-10 3.16926e-09 0 0 0 0)
(0 -1.56539e-10 0 -1.56539e-10 2.70903e-09 0 0 0 0)
(0 -1.6404e-10 0 -1.6404e-10 2.55826e-09 0 0 0 0)
(0 -1.66601e-10 0 -1.66601e-10 2.60237e-09 0 0 0 0)
(0 -1.64312e-10 0 -1.64312e-10 2.75675e-09 0 0 0 0)
(0 -1.5897e-10 0 -1.5897e-10 2.9498e-09 0 0 0 0)
(0 -1.52797e-10 0 -1.52797e-10 3.12131e-09 0 0 0 0)
(0 -1.47196e-10 0 -1.47196e-10 3.2313e-09 0 0 0 0)
(0 -1.43866e-10 0 -1.43866e-10 3.26814e-09 0 0 0 0)
(0 -1.43179e-10 0 -1.43179e-10 3.24567e-09 0 0 0 0)
(0 -1.4458e-10 0 -1.4458e-10 3.19062e-09 0 0 0 0)
(0 -1.46921e-10 0 -1.46921e-10 3.12892e-09 0 0 0 0)
(0 -1.4912e-10 0 -1.4912e-10 3.07747e-09 0 0 0 0)
(0 -1.50869e-10 0 -1.50869e-10 3.04305e-09 0 0 0 0)
(0 -1.51844e-10 0 -1.51844e-10 3.02463e-09 0 0 0 0)
(0 -1.52086e-10 0 -1.52086e-10 3.01706e-09 0 0 0 0)
(0 -1.52096e-10 0 -1.52096e-10 3.01463e-09 0 0 0 0)
(0 -1.52199e-10 0 -1.52199e-10 3.01331e-09 0 0 0 0)
(0 -1.52497e-10 0 -1.52497e-10 3.01151e-09 0 0 0 0)
(0 -1.5309e-10 0 -1.5309e-10 3.00974e-09 0 0 0 0)
(0 -1.539e-10 0 -1.539e-10 3.00979e-09 0 0 0 0)
(0 -1.54764e-10 0 -1.54764e-10 3.01369e-09 0 0 0 0)
(0 -1.55546e-10 0 -1.55546e-10 3.02308e-09 0 0 0 0)
(0 -1.56173e-10 0 -1.56173e-10 3.03899e-09 0 0 0 0)
(0 -1.56596e-10 0 -1.56596e-10 3.0619e-09 0 0 0 0)
(0 -1.56798e-10 0 -1.56798e-10 3.09197e-09 0 0 0 0)
(0 -1.56791e-10 0 -1.56791e-10 3.12923e-09 0 0 0 0)
(0 -1.56554e-10 0 -1.56554e-10 3.17365e-09 0 0 0 0)
(0 -1.56034e-10 0 -1.56034e-10 3.22507e-09 0 0 0 0)
(0 -1.55189e-10 0 -1.55189e-10 3.28314e-09 0 0 0 0)
(0 -1.53975e-10 0 -1.53975e-10 3.34721e-09 0 0 0 0)
(0 -1.52359e-10 0 -1.52359e-10 3.4163e-09 0 0 0 0)
(0 -1.50331e-10 0 -1.50331e-10 3.48911e-09 0 0 0 0)
(0 -1.47898e-10 0 -1.47898e-10 3.56408e-09 0 0 0 0)
(0 -1.45081e-10 0 -1.45081e-10 3.63946e-09 0 0 0 0)
(0 -1.41915e-10 0 -1.41915e-10 3.71339e-09 0 0 0 0)
(0 -1.38449e-10 0 -1.38449e-10 3.78397e-09 0 0 0 0)
(0 -1.34743e-10 0 -1.34743e-10 3.8494e-09 0 0 0 0)
(0 -1.30872e-10 0 -1.30872e-10 3.90805e-09 0 0 0 0)
(0 -1.26914e-10 0 -1.26914e-10 3.95851e-09 0 0 0 0)
(0 -1.2295e-10 0 -1.2295e-10 3.99967e-09 0 0 0 0)
(0 -1.19059e-10 0 -1.19059e-10 4.03071e-09 0 0 0 0)
(0 -1.15317e-10 0 -1.15317e-10 4.05107e-09 0 0 0 0)
(0 -1.11786e-10 0 -1.11786e-10 4.06046e-09 0 0 0 0)
(0 -1.08525e-10 0 -1.08525e-10 4.05882e-09 0 0 0 0)
(0 -1.05578e-10 0 -1.05578e-10 4.04644e-09 0 0 0 0)
(0 -1.02982e-10 0 -1.02982e-10 4.02412e-09 0 0 0 0)
(0 -1.00757e-10 0 -1.00757e-10 3.99329e-09 0 0 0 0)
(0 -9.89096e-11 0 -9.89096e-11 3.95604e-09 0 0 0 0)
(0 -9.74279e-11 0 -9.74279e-11 3.91484e-09 0 0 0 0)
(0 -9.62832e-11 0 -9.62832e-11 3.87161e-09 0 0 0 0)
(0 -9.54276e-11 0 -9.54276e-11 3.82634e-09 0 0 0 0)
(0 -9.48086e-11 0 -9.48086e-11 3.77563e-09 0 0 0 0)
(0 -9.44298e-11 0 -9.44298e-11 3.71231e-09 0 0 0 0)
(0 -9.45338e-11 0 -9.45338e-11 3.62771e-09 0 0 0 0)
(0 -9.59642e-11 0 -9.59642e-11 3.51702e-09 0 0 0 0)
(0 -1.00532e-10 0 -1.00532e-10 3.38548e-09 0 0 0 0)
(0 -1.10319e-10 0 -1.10319e-10 3.24947e-09 0 0 0 0)
(0 -1.24262e-10 0 -1.24262e-10 3.12714e-09 0 0 0 0)
(0 -1.35243e-10 0 -1.35243e-10 3.02086e-09 0 0 0 0)
(0 -1.37686e-10 0 -1.37686e-10 2.90965e-09 0 0 0 0)
(0 -1.42018e-10 0 -1.42018e-10 2.76519e-09 0 0 0 0)
(0 -1.73681e-10 0 -1.73681e-10 2.57026e-09 0 0 0 0)
(0 -2.48797e-10 0 -2.48797e-10 2.30983e-09 0 0 0 0)
(0 -3.36292e-10 0 -3.36292e-10 1.9438e-09 0 0 0 0)
(0 -3.69722e-10 0 -3.69722e-10 1.38836e-09 0 0 0 0)
(0 -5.05978e-10 0 -5.05978e-10 7.55923e-10 0 0 0 0)
(0 -8.63828e-10 0 -8.63828e-10 2.45821e-10 0 0 0 0)
(0 -1.27889e-09 0 -1.27889e-09 -1.53524e-10 0 0 0 0)
(0 -1.72036e-09 0 -1.72036e-09 -4.83834e-10 0 0 0 0)
(0 -2.25189e-09 0 -2.25189e-09 -8.0324e-10 0 0 0 0)
(0 -2.99741e-09 0 -2.99741e-09 -1.35058e-09 0 0 0 0)
(0 -4.86369e-09 0 -4.86369e-09 -8.09618e-09 0 0 0 0)
(0 1.10289e-07 0 1.10289e-07 1.44647e-08 0 0 0 0)
(0 8.53252e-05 0 8.53252e-05 1.79065e-06 0 0 0 0)
(0 0.000266941 0 0.000266941 -3.93107e-07 0 0 0 0)
(0 0.000620467 0 0.000620467 -2.3239e-06 0 0 0 0)
(0 0.000664249 0 0.000664249 1.68728e-07 0 0 0 0)
(0 0.000428333 0 0.000428333 -5.76358e-07 0 0 0 0)
(0 0.000274231 0 0.000274231 -2.06098e-08 0 0 0 0)
(0 0.000216335 0 0.000216335 -1.90569e-07 0 0 0 0)
(0 0.000184979 0 0.000184979 -3.38104e-08 0 0 0 0)
(0 0.000159473 0 0.000159473 -9.43544e-08 0 0 0 0)
(0 0.000134893 0 0.000134893 6.51473e-08 0 0 0 0)
(0 0.000108772 0 0.000108772 -2.3196e-08 0 0 0 0)
(0 8.13933e-05 0 8.13933e-05 6.61091e-08 0 0 0 0)
(0 5.70554e-05 0 5.70554e-05 -6.13057e-09 0 0 0 0)
(0 3.99892e-05 0 3.99892e-05 2.21557e-08 0 0 0 0)
(0 2.97727e-05 0 2.97727e-05 -8.59229e-09 0 0 0 0)
(0 2.3526e-05 0 2.3526e-05 1.1153e-08 0 0 0 0)
(0 1.92717e-05 0 1.92717e-05 -8.49125e-09 0 0 0 0)
(0 1.60418e-05 0 1.60418e-05 8.52677e-09 0 0 0 0)
(0 1.35866e-05 0 1.35866e-05 -7.12145e-09 0 0 0 0)
(0 1.1676e-05 0 1.1676e-05 6.76824e-09 0 0 0 0)
(0 1.01628e-05 0 1.01628e-05 -5.82805e-09 0 0 0 0)
(0 8.95717e-06 0 8.95717e-06 5.41046e-09 0 0 0 0)
(0 7.96994e-06 0 7.96994e-06 -4.7285e-09 0 0 0 0)
(0 7.14501e-06 0 7.14501e-06 4.3356e-09 0 0 0 0)
(0 6.43494e-06 0 6.43494e-06 -3.82141e-09 0 0 0 0)
(0 5.83073e-06 0 5.83073e-06 3.47681e-09 0 0 0 0)
(0 5.30006e-06 0 5.30006e-06 -3.08112e-09 0 0 0 0)
(0 4.82789e-06 0 4.82789e-06 2.78939e-09 0 0 0 0)
(0 4.40414e-06 0 4.40414e-06 -2.48148e-09 0 0 0 0)
(0 4.03406e-06 0 4.03406e-06 2.23857e-09 0 0 0 0)
(0 3.68979e-06 0 3.68979e-06 -1.99772e-09 0 0 0 0)
(0 3.38578e-06 0 3.38578e-06 1.798e-09 0 0 0 0)
(0 3.10684e-06 0 3.10684e-06 -1.60892e-09 0 0 0 0)
(0 2.85366e-06 0 2.85366e-06 1.4456e-09 0 0 0 0)
(0 2.62334e-06 0 2.62334e-06 -1.2966e-09 0 0 0 0)
(0 2.41225e-06 0 2.41225e-06 1.16354e-09 0 0 0 0)
(0 2.22062e-06 0 2.22062e-06 -1.04618e-09 0 0 0 0)
(0 2.04361e-06 0 2.04361e-06 9.3791e-10 0 0 0 0)
(0 1.88131e-06 0 1.88131e-06 -8.44867e-10 0 0 0 0)
(0 1.7325e-06 0 1.7325e-06 7.57269e-10 0 0 0 0)
(0 1.59843e-06 0 1.59843e-06 -6.84273e-10 0 0 0 0)
(0 1.4712e-06 0 1.4712e-06 6.12775e-10 0 0 0 0)
(0 1.35602e-06 0 1.35602e-06 -5.54243e-10 0 0 0 0)
(0 1.24965e-06 0 1.24965e-06 4.96445e-10 0 0 0 0)
(0 1.15242e-06 0 1.15242e-06 -4.50213e-10 0 0 0 0)
(0 1.06347e-06 0 1.06347e-06 4.02694e-10 0 0 0 0)
(0 9.80629e-07 0 9.80629e-07 -3.66257e-10 0 0 0 0)
(0 9.03878e-07 0 9.03878e-07 3.28062e-10 0 0 0 0)
(0 8.32642e-07 0 8.32642e-07 -2.9833e-10 0 0 0 0)
(0 7.68e-07 0 7.68e-07 2.67265e-10 0 0 0 0)
(0 7.0923e-07 0 7.0923e-07 -2.44281e-10 0 0 0 0)
(0 6.54964e-07 0 6.54964e-07 2.18045e-10 0 0 0 0)
(0 6.0338e-07 0 6.0338e-07 -1.95893e-10 0 0 0 0)
(-4.06832e-19 5.54525e-07 0 5.54525e-07 1.7258e-10 0 0 0 0)
(0 5.08577e-07 0 5.08577e-07 -1.55031e-10 0 0 0 0)
(0 4.6706e-07 0 4.6706e-07 1.36524e-10 0 0 0 0)
(1.91516e-19 4.28329e-07 0 4.28329e-07 -1.24403e-10 0 0 0 0)
(0 3.91434e-07 0 3.91434e-07 1.09529e-10 0 0 0 0)
(-1.83972e-19 3.56421e-07 0 3.56421e-07 -9.94058e-11 0 0 0 0)
(0 3.24111e-07 0 3.24111e-07 8.83581e-11 0 0 0 0)
(1.76725e-19 2.9497e-07 0 2.9497e-07 -8.09639e-11 0 0 0 0)
(0 2.67764e-07 0 2.67764e-07 7.14584e-11 0 0 0 0)
(0 2.41981e-07 0 2.41981e-07 -6.54829e-11 0 0 0 0)
(0 2.18365e-07 0 2.18365e-07 5.84265e-11 0 0 0 0)
(1.63076e-19 1.97203e-07 0 1.97203e-07 -5.39886e-11 0 0 0 0)
(0 1.77569e-07 0 1.77569e-07 4.78466e-11 0 0 0 0)
(0 1.59106e-07 0 1.59106e-07 -4.40592e-11 0 0 0 0)
(0 1.4234e-07 0 1.4234e-07 3.95379e-11 0 0 0 0)
(0 1.27394e-07 0 1.27394e-07 -3.67209e-11 0 0 0 0)
(0 1.13751e-07 0 1.13751e-07 3.26478e-11 0 0 0 0)
(-2.89108e-19 1.01073e-07 0 1.01073e-07 -3.02802e-11 0 0 0 0)
(0 8.95913e-08 0 8.95913e-08 2.72701e-11 0 0 0 0)
(-2.7772e-19 7.93882e-08 0 7.93882e-08 -2.53967e-11 0 0 0 0)
(0 7.01252e-08 0 7.01252e-08 2.28016e-11 0 0 0 0)
(0 6.1696e-08 0 6.1696e-08 -2.12054e-11 0 0 0 0)
(0 5.42497e-08 0 5.42497e-08 1.91233e-11 0 0 0 0)
(0 4.75878e-08 0 4.75878e-08 -1.78936e-11 0 0 0 0)
(0 4.15347e-08 0 4.15347e-08 1.62466e-11 0 0 0 0)
(0 3.61924e-08 0 3.61924e-08 -1.51737e-11 0 0 0 0)
(0 3.14907e-08 0 3.14907e-08 1.37683e-11 0 0 0 0)
(2.36479e-19 2.72769e-08 0 2.72769e-08 -1.29005e-11 0 0 0 0)
(0 2.35505e-08 0 2.35505e-08 1.18192e-11 0 0 0 0)
(0 2.03143e-08 0 2.03143e-08 -1.11194e-11 0 0 0 0)
(0 1.74424e-08 0 1.74424e-08 1.02137e-11 0 0 0 0)
(0 1.49352e-08 0 1.49352e-08 -9.61751e-12 0 0 0 0)
(0 1.27537e-08 0 1.27537e-08 8.89697e-12 0 0 0 0)
(0 1.08476e-08 0 1.08476e-08 -8.4118e-12 0 0 0 0)
(0 9.20289e-09 0 9.20289e-09 7.83266e-12 0 0 0 0)
(0 7.76972e-09 0 7.76972e-09 -7.42059e-12 0 0 0 0)
(0 6.54181e-09 0 6.54181e-09 6.98472e-12 0 0 0 0)
(0 5.4764e-09 0 5.4764e-09 -6.62091e-12 0 0 0 0)
(0 4.57178e-09 0 4.57178e-09 6.28509e-12 0 0 0 0)
(0 3.80011e-09 0 3.80011e-09 -5.99275e-12 0 0 0 0)
(0 3.17545e-09 0 3.17545e-09 5.77551e-12 0 0 0 0)
(-1.78492e-19 2.65844e-09 0 2.65844e-09 -5.64347e-12 0 0 0 0)
(1.74941e-19 2.20764e-09 0 2.20764e-09 5.23688e-12 0 0 0 0)
(0 1.82064e-09 0 1.82064e-09 -5.0475e-12 0 0 0 0)
(0 1.48366e-09 0 1.48366e-09 4.86495e-12 0 0 0 0)
(-1.64707e-19 1.20064e-09 0 1.20064e-09 -4.7024e-12 0 0 0 0)
(0 9.67892e-10 0 9.67892e-10 4.55202e-12 0 0 0 0)
(0 7.78341e-10 0 7.78341e-10 -4.41659e-12 0 0 0 0)
(-1.55071e-19 6.23789e-10 0 6.23789e-10 4.29044e-12 0 0 0 0)
(0 4.96174e-10 0 4.96174e-10 -4.17586e-12 0 0 0 0)
(0 3.92468e-10 0 3.92468e-10 4.06819e-12 0 0 0 0)
(0 3.09818e-10 0 3.09818e-10 -3.96902e-12 0 0 0 0)
(0 2.43922e-10 0 2.43922e-10 3.87497e-12 0 0 0 0)
(0 1.91219e-10 0 1.91219e-10 -3.7872e-12 0 0 0 0)
(0 1.49249e-10 0 1.49249e-10 3.7029e-12 0 0 0 0)
(0 1.16054e-10 0 1.16054e-10 -3.62318e-12 0 0 0 0)
(0 8.99061e-11 0 8.99061e-11 3.54577e-12 0 0 0 0)
(0 6.93438e-11 0 6.93438e-11 -3.47163e-12 0 0 0 0)
(0 5.3228e-11 0 5.3228e-11 3.39886e-12 0 0 0 0)
(0 4.06376e-11 0 4.06376e-11 -3.32843e-12 0 0 0 0)
(0 3.08593e-11 0 3.08593e-11 3.25877e-12 0 0 0 0)
(0 2.33018e-11 0 2.33018e-11 -3.19075e-12 0 0 0 0)
(0 1.74957e-11 0 1.74957e-11 3.12313e-12 0 0 0 0)
(0 1.30604e-11 0 1.30604e-11 -3.05658e-12 0 0 0 0)
(2.24871e-19 9.69135e-12 0 9.69135e-12 2.99036e-12 0 0 0 0)
(0 7.14806e-12 0 7.14806e-12 -2.9248e-12 0 0 0 0)
(0 5.23959e-12 0 5.23959e-12 2.85948e-12 0 0 0 0)
(0 3.81678e-12 0 3.81678e-12 -2.79473e-12 0 0 0 0)
(0 2.76192e-12 0 2.76192e-12 2.73018e-12 0 0 0 0)
(0 1.98646e-12 0 1.98646e-12 -2.66617e-12 0 0 0 0)
(0 1.41893e-12 0 1.41893e-12 2.6024e-12 0 0 0 0)
(0 1.00654e-12 0 1.00654e-12 -2.53918e-12 0 0 0 0)
(0 7.08484e-13 0 7.08484e-13 2.47632e-12 0 0 0 0)
(0 4.95674e-13 0 4.95674e-13 -2.41409e-12 0 0 0 0)
(0 3.44814e-13 0 3.44814e-13 2.35229e-12 0 0 0 0)
(0 2.37832e-13 0 2.37832e-13 -2.29126e-12 0 0 0 0)
(0 1.62154e-13 0 1.62154e-13 2.23075e-12 0 0 0 0)
(0 1.09757e-13 0 1.09757e-13 -2.17114e-12 0 0 0 0)
(0 7.40809e-14 0 7.40809e-14 2.11216e-12 0 0 0 0)
(0 4.97943e-14 0 4.97943e-14 -2.05414e-12 0 0 0 0)
(0 3.28331e-14 0 3.28331e-14 1.9969e-12 0 0 0 0)
(0 2.17342e-14 0 2.17342e-14 -1.94071e-12 0 0 0 0)
(0 1.43149e-14 0 1.43149e-14 1.88534e-12 0 0 0 0)
(0 9.07135e-15 0 9.07135e-15 -1.83112e-12 0 0 0 0)
(1.50452e-19 5.83385e-15 0 5.83385e-15 1.77778e-12 0 0 0 0)
(0 3.65477e-15 0 3.65477e-15 -1.72566e-12 0 0 0 0)
(0 2.30403e-15 0 2.30403e-15 1.67443e-12 0 0 0 0)
(0 1.37535e-15 0 1.37535e-15 -1.62445e-12 0 0 0 0)
(0 7.46086e-16 0 7.46086e-16 1.5754e-12 0 0 0 0)
(0 6.36538e-16 0 6.36538e-16 -1.52761e-12 0 0 0 0)
(0 4.66973e-16 0 4.66973e-16 1.48074e-12 0 0 0 0)
(0 1.91099e-16 0 1.91099e-16 -1.43512e-12 0 0 0 0)
(0 -6.69376e-17 0 -6.69376e-17 1.39041e-12 0 0 0 0)
(0 -1.77984e-16 0 -1.77984e-16 -1.34692e-12 0 0 0 0)
(2.46128e-19 1.45892e-16 0 1.45892e-16 1.30432e-12 0 0 0 0)
(0 2.05891e-16 0 2.05891e-16 -1.26286e-12 0 0 0 0)
(0 3.9898e-17 0 3.9898e-17 1.22235e-12 0 0 0 0)
(-2.31729e-19 -9.68048e-17 0 -9.68048e-17 -1.18282e-12 0 0 0 0)
(0 -1.06746e-17 0 -1.06746e-17 1.14425e-12 0 0 0 0)
(0 -5.23112e-18 0 -5.23112e-18 -1.1066e-12 0 0 0 0)
(0 -2.47626e-17 0 -2.47626e-17 1.06983e-12 0 0 0 0)
(0 1.17875e-16 0 1.17875e-16 -1.03394e-12 0 0 0 0)
(0 -5.76341e-17 0 -5.76341e-17 9.98872e-13 0 0 0 0)
(0 -2.12855e-16 0 -2.12855e-16 -9.64615e-13 0 0 0 0)
(0 1.70118e-16 0 1.70118e-16 9.31128e-13 0 0 0 0)
(0 2.36288e-16 0 2.36288e-16 -8.98391e-13 0 0 0 0)
(0 -1.55391e-16 0 -1.55391e-16 8.66364e-13 0 0 0 0)
(0 -1.8329e-16 0 -1.8329e-16 -8.34893e-13 0 0 0 0)
(0 5.13514e-18 0 5.13514e-18 9.17094e-13 0 0 0 0)
(0 -2.15464e-17 0 -2.15464e-17 -9.01826e-13 0 0 0 0)
(0 -3.70577e-17 0 -3.70577e-17 8.86295e-13 0 0 0 0)
(0 5.17749e-17 0 5.17749e-17 -8.70639e-13 0 0 0 0)
(0 1.15408e-17 0 1.15408e-17 8.54848e-13 0 0 0 0)
(0 -3.22931e-17 0 -3.22931e-17 -8.38925e-13 0 0 0 0)
(0 2.55698e-17 0 2.55698e-17 8.22856e-13 0 0 0 0)
(0 -3.44107e-18 0 -3.44107e-18 -8.06649e-13 0 0 0 0)
(0 -3.5946e-17 0 -3.5946e-17 7.90285e-13 0 0 0 0)
(0 2.22346e-17 0 2.22346e-17 -7.73781e-13 0 0 0 0)
(0 3.50989e-17 0 3.50989e-17 7.57112e-13 0 0 0 0)
(0 8.57621e-18 0 8.57621e-18 -7.40295e-13 0 0 0 0)
(0 -3.4146e-17 0 -3.4146e-17 7.23311e-13 0 0 0 0)
(0 3.81165e-18 0 3.81165e-18 -7.06182e-13 0 0 0 0)
(0 1.78936e-17 0 1.78936e-17 6.88876e-13 0 0 0 0)
(0 -1.37643e-18 0 -1.37643e-18 -6.71427e-13 0 0 0 0)
(0 2.37699e-17 0 2.37699e-17 6.53798e-13 0 0 0 0)
(0 -3.34049e-17 0 -3.34049e-17 -6.36045e-13 0 0 0 0)
(0 -2.64698e-18 0 -2.64698e-18 6.18116e-13 0 0 0 0)
(0 1.29702e-17 0 1.29702e-17 -6.00022e-13 0 0 0 0)
(0 -1.74171e-17 0 -1.74171e-17 5.81788e-13 0 0 0 0)
(0 1.92171e-17 0 1.92171e-17 -5.63429e-13 0 0 0 0)
(0 1.33408e-17 0 1.33408e-17 5.4489e-13 0 0 0 0)
(0 -1.99582e-17 0 -1.99582e-17 -5.2626e-13 0 0 0 0)
(0 6.77626e-18 0 6.77626e-18 5.07412e-13 0 0 0 0)
(0 1.60407e-17 0 1.60407e-17 -4.88568e-13 0 0 0 0)
(0 -1.36055e-17 0 -1.36055e-17 4.69465e-13 0 0 0 0)
(0 -1.63583e-17 0 -1.63583e-17 -4.50352e-13 0 0 0 0)
(0 -2.27111e-17 0 -2.27111e-17 4.31003e-13 0 0 0 0)
(0 -2.06464e-18 0 -2.06464e-18 -4.11733e-13 0 0 0 0)
(0 -1.68877e-17 0 -1.68877e-17 3.92118e-13 0 0 0 0)
(0 5.82335e-18 0 5.82335e-18 -3.7266e-13 0 0 0 0)
(0 6.88214e-19 0 6.88214e-19 3.52815e-13 0 0 0 0)
(0 -1.45584e-17 0 -1.45584e-17 -3.33264e-13 0 0 0 0)
(0 2.4511e-17 0 2.4511e-17 3.13228e-13 0 0 0 0)
(0 9.8997e-18 0 9.8997e-18 -2.93398e-13 0 0 0 0)
(0 -6.51157e-18 0 -6.51157e-18 2.73227e-13 0 0 0 0)
(0 -7.25272e-18 0 -7.25272e-18 -2.55708e-13 0 0 0 0)
(0 6.88214e-18 0 6.88214e-18 2.42725e-13 0 0 0 0)
(0 -1.30761e-17 0 -1.30761e-17 -2.32512e-13 0 0 0 0)
(0 -1.42937e-18 0 -1.42937e-18 2.20887e-13 0 0 0 0)
(0 5.5216e-17 0 5.5216e-17 -2.09183e-13 0 0 0 0)
(0 5.29396e-18 0 5.29396e-18 1.96448e-13 0 0 0 0)
(0 -4.49986e-17 0 -4.49986e-17 -1.8331e-13 0 0 0 0)
(0 -1.16996e-17 0 -1.16996e-17 1.685e-13 0 0 0 0)
(0 2.82697e-17 0 2.82697e-17 -1.52431e-13 0 0 0 0)
(0 3.01226e-17 0 3.01226e-17 1.34323e-13 0 0 0 0)
(0 -1.67289e-17 0 -1.67289e-17 -1.1343e-13 0 0 0 0)
(0 -2.64698e-18 0 -2.64698e-18 8.75386e-14 0 0 0 0)
(0 1.59877e-17 0 1.59877e-17 -3.46564e-14 0 0 0 0)
)
;

boundaryField
{
    inandouthalf11
    {
        type            cyclic;
    }
    inandouthalf12
    {
        type            cyclic;
    }
    inandouthalf21
    {
        type            cyclic;
    }
    inandouthalf22
    {
        type            cyclic;
    }
    inandouthalf31
    {
        type            cyclic;
    }
    inandouthalf32
    {
        type            cyclic;
    }
    inandouthalf41
    {
        type            cyclic;
    }
    inandouthalf42
    {
        type            cyclic;
    }
    top
    {
        type            symmetryPlane;
    }
    walls
    {
        type            zeroGradient;
    }
    frontAndBackPlanes
    {
        type            empty;
    }
}


// ************************************************************************* //
