/*--------------------------------*- C++ -*----------------------------------*\
| =========                 |                                                 |
| \\      /  F ield         | OpenFOAM: The Open Source CFD Toolbox           |
|  \\    /   O peration     | Version:  2.4.x                                 |
|   \\  /    A nd           | Web:      www.OpenFOAM.org                      |
|    \\/     M anipulation  |                                                 |
\*---------------------------------------------------------------------------*/
FoamFile
{
    version     2.0;
    format      ascii;
    class       volVectorField;
    location    "2.05";
    object      U;
}
// * * * * * * * * * * * * * * * * * * * * * * * * * * * * * * * * * * * * * //

dimensions      [0 1 -1 0 0 0 0];

internalField   nonuniform List<vector> 
360
(
(-6.06025e-05 3.24157e-14 0)
(-6.07058e-05 9.74278e-14 0)
(-6.07065e-05 1.62701e-13 0)
(-6.07065e-05 2.28038e-13 0)
(-6.07065e-05 2.93337e-13 0)
(-6.07072e-05 3.58773e-13 0)
(-6.07072e-05 4.24291e-13 0)
(-6.07079e-05 4.89744e-13 0)
(-6.07079e-05 5.55141e-13 0)
(-6.07085e-05 6.20649e-13 0)
(-6.07092e-05 6.86086e-13 0)
(-6.07092e-05 7.5137e-13 0)
(-6.07099e-05 8.16643e-13 0)
(-6.07105e-05 8.81779e-13 0)
(-6.07112e-05 9.46703e-13 0)
(-6.07119e-05 1.01155e-12 0)
(-6.07125e-05 1.07616e-12 0)
(-6.07132e-05 1.14076e-12 0)
(-6.07139e-05 1.20523e-12 0)
(-6.07152e-05 1.26948e-12 0)
(-6.07159e-05 1.33351e-12 0)
(-6.07172e-05 1.39735e-12 0)
(-6.07185e-05 1.46094e-12 0)
(-6.07199e-05 1.52435e-12 0)
(-6.07212e-05 1.58761e-12 0)
(-6.07225e-05 1.65067e-12 0)
(-6.07239e-05 1.71336e-12 0)
(-6.07258e-05 1.77589e-12 0)
(-6.07278e-05 1.83814e-12 0)
(-6.07298e-05 1.90005e-12 0)
(-6.07318e-05 1.96178e-12 0)
(-6.07345e-05 2.0232e-12 0)
(-6.07365e-05 2.08435e-12 0)
(-6.07398e-05 2.14545e-12 0)
(-6.07425e-05 2.20623e-12 0)
(-6.07458e-05 2.26657e-12 0)
(-6.07492e-05 2.32649e-12 0)
(-6.07531e-05 2.38626e-12 0)
(-6.07578e-05 2.44582e-12 0)
(-6.07618e-05 2.50499e-12 0)
(-6.07671e-05 2.56376e-12 0)
(-6.07725e-05 2.62218e-12 0)
(-6.07778e-05 2.68025e-12 0)
(-6.07845e-05 2.73804e-12 0)
(-6.07911e-05 2.79552e-12 0)
(-6.07985e-05 2.85279e-12 0)
(-6.08064e-05 2.90965e-12 0)
(-6.08144e-05 2.96605e-12 0)
(-6.08238e-05 3.02217e-12 0)
(-6.08344e-05 3.078e-12 0)
(-6.08451e-05 3.13356e-12 0)
(-6.08571e-05 3.18882e-12 0)
(-6.08698e-05 3.24359e-12 0)
(-6.08838e-05 3.2979e-12 0)
(-6.08985e-05 3.35169e-12 0)
(-6.09152e-05 3.40522e-12 0)
(-6.09325e-05 3.45841e-12 0)
(-6.09519e-05 3.51119e-12 0)
(-6.09726e-05 3.56355e-12 0)
(-6.09947e-05 3.61553e-12 0)
(-6.10194e-05 3.66717e-12 0)
(-6.10455e-05 3.71838e-12 0)
(-6.10742e-05 3.76924e-12 0)
(-6.1105e-05 3.81953e-12 0)
(-6.11385e-05 3.88464e-12 0)
(-6.11747e-05 1.36362e-12 0)
(-6.12142e-05 3.10762e-11 0)
(-6.12569e-05 -1.6373e-10 0)
(-6.13021e-05 2.44997e-08 0)
(-6.13514e-05 7.47225e-08 0)
(-6.14062e-05 6.2767e-08 0)
(-6.14598e-05 -1.12303e-08 0)
(-6.15056e-05 -5.15537e-08 0)
(-6.15474e-05 -4.56424e-08 0)
(-6.15886e-05 -2.83594e-08 0)
(-6.16319e-05 -1.47582e-08 0)
(-6.16766e-05 -5.95855e-09 0)
(-6.1723e-05 -3.08888e-10 0)
(-6.17701e-05 3.2532e-09 0)
(-6.18171e-05 5.03796e-09 0)
(-6.18626e-05 5.09934e-09 0)
(-6.19063e-05 3.76904e-09 0)
(-6.1948e-05 1.74007e-09 0)
(-6.19878e-05 -1.57589e-10 0)
(-6.20265e-05 -1.3567e-09 0)
(-6.20646e-05 -1.76433e-09 0)
(-6.21026e-05 -1.58615e-09 0)
(-6.21406e-05 -1.13688e-09 0)
(-6.21784e-05 -6.58766e-10 0)
(-6.2216e-05 -2.98709e-10 0)
(-6.22531e-05 -1.1085e-10 0)
(-6.22895e-05 -6.64063e-11 0)
(-6.23252e-05 -9.11833e-11 0)
(-6.23604e-05 -1.22354e-10 0)
(-6.23949e-05 -1.13482e-10 0)
(-6.24289e-05 -4.60604e-11 0)
(-6.24625e-05 7.30225e-11 0)
(-6.24954e-05 2.2553e-10 0)
(-6.25278e-05 3.94226e-10 0)
(-6.25595e-05 5.68178e-10 0)
(-6.25903e-05 7.41748e-10 0)
(-6.26202e-05 9.14354e-10 0)
(-6.2649e-05 1.08582e-09 0)
(-6.26765e-05 1.25209e-09 0)
(-6.27026e-05 1.40655e-09 0)
(-6.2727e-05 1.54113e-09 0)
(-6.27496e-05 1.64706e-09 0)
(-6.27701e-05 1.71664e-09 0)
(-6.27882e-05 1.74408e-09 0)
(-6.28037e-05 1.72547e-09 0)
(-6.28163e-05 1.65906e-09 0)
(-6.28258e-05 1.54547e-09 0)
(-6.2832e-05 1.38774e-09 0)
(-6.28348e-05 1.19114e-09 0)
(-6.28339e-05 9.62561e-10 0)
(-6.28292e-05 7.09498e-10 0)
(-6.28207e-05 4.39062e-10 0)
(-6.28082e-05 1.57466e-10 0)
(-6.27918e-05 -1.29656e-10 0)
(-6.27714e-05 -4.15873e-10 0)
(-6.27471e-05 -6.9177e-10 0)
(-6.27188e-05 -9.43122e-10 0)
(-6.26866e-05 -1.15154e-09 0)
(-6.26505e-05 -1.29989e-09 0)
(-6.26104e-05 -1.38391e-09 0)
(-6.25663e-05 -1.42848e-09 0)
(-6.2518e-05 -1.50105e-09 0)
(-6.24653e-05 -1.70662e-09 0)
(-6.24081e-05 -2.1434e-09 0)
(-6.23465e-05 -2.81402e-09 0)
(-6.2281e-05 -3.54072e-09 0)
(-6.22125e-05 -4.00706e-09 0)
(-6.21422e-05 -3.98027e-09 0)
(-6.20713e-05 -3.53627e-09 0)
(-6.19993e-05 -3.1031e-09 0)
(-6.19231e-05 -3.32495e-09 0)
(-6.18405e-05 -4.50039e-09 0)
(-6.17554e-05 -6.46233e-09 0)
(-6.16805e-05 -9.38272e-09 0)
(-6.16318e-05 -1.26147e-08 0)
(-6.16157e-05 -1.29378e-08 0)
(-6.1623e-05 -1.85481e-08 0)
(-6.17316e-05 -1.83422e-08 0)
(-6.19722e-05 -1.43921e-08 0)
(-6.23297e-05 -1.52707e-08 0)
(-6.28239e-05 -1.66765e-08 0)
(-6.34774e-05 -2.42614e-08 0)
(-6.43738e-05 -7.09771e-08 0)
(-6.60246e-05 -1.29652e-06 0)
(-1.54781e-05 4.68469e-06 0)
(0.0848278 0.000454382 0)
(0.251048 -0.000287021 0)
(0.400246 0.000222102 0)
(0.539092 -0.000165452 0)
(0.668305 0.000126857 0)
(0.782083 -0.000104775 0)
(0.88095 9.34262e-05 0)
(0.96682 -8.25657e-05 0)
(1.04062 6.53097e-05 0)
(1.10206 -5.22602e-05 0)
(1.14982 4.08618e-05 0)
(1.18384 -3.35733e-05 0)
(1.20713 2.91682e-05 0)
(1.22396 -2.61812e-05 0)
(1.23695 2.35559e-05 0)
(1.2475 -2.11586e-05 0)
(1.25624 1.90136e-05 0)
(1.26355 -1.70751e-05 0)
(1.26983 1.53372e-05 0)
(1.27523 -1.3772e-05 0)
(1.28 1.23687e-05 0)
(1.28419 -1.11071e-05 0)
(1.28797 9.97629e-06 0)
(1.29134 -8.96075e-06 0)
(1.2944 8.05067e-06 0)
(1.29717 -7.23389e-06 0)
(1.29971 6.50202e-06 0)
(1.302 -5.8454e-06 0)
(1.30411 5.25699e-06 0)
(1.30604 -4.7291e-06 0)
(1.3078 4.25594e-06 0)
(1.30942 -3.83136e-06 0)
(1.31091 3.45066e-06 0)
(1.31228 -3.10892e-06 0)
(1.31353 2.80232e-06 0)
(1.31469 -2.52694e-06 0)
(1.31575 2.27971e-06 0)
(1.31673 -2.05748e-06 0)
(1.31763 1.85782e-06 0)
(1.31847 -1.67819e-06 0)
(1.31923 1.51667e-06 0)
(1.31994 -1.37122e-06 0)
(1.32059 1.24031e-06 0)
(1.32119 -1.12231e-06 0)
(1.32174 1.016e-06 0)
(1.32225 -9.20086e-07 0)
(1.32272 8.33587e-07 0)
(1.32316 -7.55465e-07 0)
(1.32355 6.84947e-07 0)
(1.32392 -6.21192e-07 0)
(1.32426 5.63594e-07 0)
(1.32458 -5.22324e-07 0)
(1.32488 4.8519e-07 0)
(1.32516 -4.51662e-07 0)
(1.32542 4.21398e-07 0)
(1.32566 -3.93978e-07 0)
(1.32589 3.69162e-07 0)
(1.32611 -3.46614e-07 0)
(1.3263 3.26153e-07 0)
(1.32649 -3.07513e-07 0)
(1.32666 2.90569e-07 0)
(1.32681 -2.75099e-07 0)
(1.32696 2.61011e-07 0)
(1.32709 -2.48126e-07 0)
(1.32721 2.36384e-07 0)
(1.32733 -2.2563e-07 0)
(1.32743 2.15823e-07 0)
(1.32752 -2.06834e-07 0)
(1.32761 1.9864e-07 0)
(1.32769 -1.91125e-07 0)
(1.32776 1.84277e-07 0)
(1.32782 -1.77997e-07 0)
(1.32788 1.72283e-07 0)
(1.32793 -1.67044e-07 0)
(1.32798 1.62284e-07 0)
(1.32802 -1.57922e-07 0)
(1.32805 1.53966e-07 0)
(1.32809 -1.50345e-07 0)
(1.32812 1.47069e-07 0)
(1.32814 -1.44071e-07 0)
(1.32817 1.41365e-07 0)
(1.32819 -1.38889e-07 0)
(1.3282 1.3666e-07 0)
(1.32822 -1.3462e-07 0)
(1.32823 1.32786e-07 0)
(1.32824 -1.31105e-07 0)
(1.32825 1.29596e-07 0)
(1.32826 -1.28208e-07 0)
(1.32827 1.26962e-07 0)
(1.32828 -1.25809e-07 0)
(1.32828 1.24771e-07 0)
(1.32829 -1.23804e-07 0)
(1.32829 1.22929e-07 0)
(1.32829 -1.21961e-07 0)
(1.3283 1.21204e-07 0)
(1.3283 -1.20482e-07 0)
(1.3283 1.19814e-07 0)
(1.3283 -1.19166e-07 0)
(1.3283 1.18558e-07 0)
(1.32831 -1.17958e-07 0)
(1.32831 1.17388e-07 0)
(1.32831 -1.16817e-07 0)
(1.32831 1.16265e-07 0)
(1.32831 -1.15706e-07 0)
(1.32831 1.15159e-07 0)
(1.32831 -1.14599e-07 0)
(1.32831 1.14046e-07 0)
(1.32831 -1.13477e-07 0)
(1.32831 1.12911e-07 0)
(1.32831 -1.12328e-07 0)
(1.32831 1.11745e-07 0)
(1.32831 -1.11144e-07 0)
(1.32831 1.10542e-07 0)
(1.32831 -1.09923e-07 0)
(1.32831 1.09302e-07 0)
(1.32831 -1.08665e-07 0)
(1.32831 1.08027e-07 0)
(1.32831 -1.07374e-07 0)
(1.32831 1.06721e-07 0)
(1.32831 -1.06056e-07 0)
(1.32831 1.05393e-07 0)
(1.32831 -1.04719e-07 0)
(1.32831 1.04049e-07 0)
(1.32831 -1.03371e-07 0)
(1.32831 1.02699e-07 0)
(1.32831 -1.02021e-07 0)
(1.32831 1.01351e-07 0)
(1.32831 -1.00678e-07 0)
(1.32831 1.00014e-07 0)
(1.32831 -9.93504e-08 0)
(1.32831 9.86971e-08 0)
(1.32831 -9.80464e-08 0)
(1.32831 9.74077e-08 0)
(1.32831 -9.67739e-08 0)
(1.32831 9.61535e-08 0)
(1.32831 -9.55399e-08 0)
(1.32831 9.49411e-08 0)
(1.32831 -9.4351e-08 0)
(1.32831 9.37767e-08 0)
(1.32831 -9.3213e-08 0)
(1.32831 9.26658e-08 0)
(1.32831 -9.21312e-08 0)
(1.32831 9.16138e-08 0)
(1.32831 -9.11107e-08 0)
(1.32831 9.06255e-08 0)
(1.32831 -9.01563e-08 0)
(1.32831 8.97057e-08 0)
(1.32831 -8.92727e-08 0)
(1.32831 8.88592e-08 0)
(1.32831 -8.84647e-08 0)
(1.32831 8.8091e-08 0)
(1.32831 -8.77376e-08 0)
(1.32831 8.74063e-08 0)
(1.32831 -8.70969e-08 0)
(1.32831 8.68111e-08 0)
(1.32831 -8.65487e-08 0)
(1.32831 8.63117e-08 0)
(1.32831 -8.61e-08 0)
(1.32831 8.59155e-08 0)
(1.32831 -8.57584e-08 0)
(1.32831 7.50104e-08 0)
(1.32831 -7.31911e-08 0)
(1.32831 7.14031e-08 0)
(1.32831 -6.9646e-08 0)
(1.32831 6.79206e-08 0)
(1.32831 -6.62266e-08 0)
(1.32831 6.45649e-08 0)
(1.32831 -6.29351e-08 0)
(1.32831 6.13383e-08 0)
(1.32831 -5.9774e-08 0)
(1.32831 5.82431e-08 0)
(1.32831 -5.67455e-08 0)
(1.32831 5.5282e-08 0)
(1.32831 -5.38523e-08 0)
(1.32831 5.24572e-08 0)
(1.32831 -5.10968e-08 0)
(1.32831 4.97715e-08 0)
(1.32831 -4.84816e-08 0)
(1.32831 4.72273e-08 0)
(1.32831 -4.60091e-08 0)
(1.32831 4.48273e-08 0)
(1.32831 -4.3682e-08 0)
(1.32831 4.25735e-08 0)
(1.32831 -4.15024e-08 0)
(1.32831 4.04685e-08 0)
(1.32831 -3.94728e-08 0)
(1.32831 3.85142e-08 0)
(1.32831 -3.75949e-08 0)
(1.32831 3.67128e-08 0)
(1.32831 -3.58709e-08 0)
(1.32831 3.50659e-08 0)
(1.32831 -3.43024e-08 0)
(1.32831 3.35752e-08 0)
(1.32831 -3.28912e-08 0)
(1.32831 3.22422e-08 0)
(1.32831 -3.16383e-08 0)
(1.32831 3.10686e-08 0)
(1.32831 -3.05454e-08 0)
(1.32831 3.00458e-08 0)
(1.32831 -2.95745e-08 0)
(1.32831 2.91157e-08 0)
(1.32831 -2.86909e-08 0)
(1.32831 2.8279e-08 0)
(1.32831 -2.79051e-08 0)
(1.32831 2.75457e-08 0)
(1.32831 -2.72311e-08 0)
(1.32831 2.6936e-08 0)
(1.32831 -2.66938e-08 0)
(1.32831 2.64823e-08 0)
(1.32831 -2.63437e-08 0)
)
;

boundaryField
{
    inandouthalf11
    {
        type            cyclic;
    }
    inandouthalf12
    {
        type            cyclic;
    }
    inandouthalf21
    {
        type            cyclic;
    }
    inandouthalf22
    {
        type            cyclic;
    }
    inandouthalf31
    {
        type            cyclic;
    }
    inandouthalf32
    {
        type            cyclic;
    }
    inandouthalf41
    {
        type            cyclic;
    }
    inandouthalf42
    {
        type            cyclic;
    }
    top
    {
        type            symmetryPlane;
    }
    walls
    {
        type            calculated;
        value           uniform (0 0 0);
    }
    frontAndBackPlanes
    {
        type            empty;
    }
}


// ************************************************************************* //
