/*--------------------------------*- C++ -*----------------------------------*\
| =========                 |                                                 |
| \\      /  F ield         | OpenFOAM: The Open Source CFD Toolbox           |
|  \\    /   O peration     | Version:  2.4.x                                 |
|   \\  /    A nd           | Web:      www.OpenFOAM.org                      |
|    \\/     M anipulation  |                                                 |
\*---------------------------------------------------------------------------*/
FoamFile
{
    version     2.0;
    format      ascii;
    class       volVectorField;
    location    "2.05";
    object      Ua;
}
// * * * * * * * * * * * * * * * * * * * * * * * * * * * * * * * * * * * * * //

dimensions      [0 1 -1 0 0 0 0];

internalField   nonuniform List<vector> 
360
(
(1.20359e-36 -1.0326e-35 0)
(1.20358e-36 -1.03237e-35 0)
(1.20352e-36 -1.03249e-35 0)
(1.20335e-36 -1.03272e-35 0)
(1.20308e-36 -1.0331e-35 0)
(1.20268e-36 -1.03363e-35 0)
(1.20216e-36 -1.03433e-35 0)
(1.2015e-36 -1.03522e-35 0)
(1.2007e-36 -1.03629e-35 0)
(1.19975e-36 -1.03757e-35 0)
(1.19864e-36 -1.03905e-35 0)
(1.19737e-36 -1.04075e-35 0)
(1.19594e-36 -1.04267e-35 0)
(1.19435e-36 -1.04481e-35 0)
(1.1926e-36 -1.04717e-35 0)
(1.19068e-36 -1.04976e-35 0)
(1.1886e-36 -1.05257e-35 0)
(1.18637e-36 -1.0556e-35 0)
(1.18398e-36 -1.05884e-35 0)
(1.18144e-36 -1.06229e-35 0)
(1.17875e-36 -1.06595e-35 0)
(1.17591e-36 -1.06981e-35 0)
(1.17292e-36 -1.07388e-35 0)
(1.16979e-36 -1.07814e-35 0)
(1.16651e-36 -1.08259e-35 0)
(1.1631e-36 -1.08724e-35 0)
(1.15954e-36 -1.09207e-35 0)
(1.15584e-36 -1.09709e-35 0)
(1.15199e-36 -1.10232e-35 0)
(1.14799e-36 -1.10774e-35 0)
(1.14383e-36 -1.11336e-35 0)
(1.13951e-36 -1.11919e-35 0)
(1.13502e-36 -1.12523e-35 0)
(1.13035e-36 -1.13151e-35 0)
(1.12548e-36 -1.13802e-35 0)
(1.12041e-36 -1.14479e-35 0)
(1.11512e-36 -1.15184e-35 0)
(1.10958e-36 -1.15919e-35 0)
(1.10378e-36 -1.16687e-35 0)
(1.09769e-36 -1.17491e-35 0)
(1.09128e-36 -1.18333e-35 0)
(1.08453e-36 -1.1922e-35 0)
(1.07739e-36 -1.20153e-35 0)
(1.06983e-36 -1.2114e-35 0)
(1.06178e-36 -1.22189e-35 0)
(1.05319e-36 -1.23305e-35 0)
(1.04398e-36 -1.24501e-35 0)
(1.03406e-36 -1.25787e-35 0)
(1.02328e-36 -1.27183e-35 0)
(1.01146e-36 -1.28716e-35 0)
(9.983e-37 -1.30426e-35 0)
(9.83397e-37 -1.32366e-35 0)
(9.65998e-37 -1.34642e-35 0)
(9.44916e-37 -1.37408e-35 0)
(9.17631e-37 -1.41026e-35 0)
(8.7948e-37 -1.46111e-35 0)
(8.18725e-37 -1.54371e-35 0)
(7.08519e-37 -1.6951e-35 0)
(4.62471e-37 -2.04267e-35 0)
(-2.16693e-37 -3.01704e-35 0)
(-2.87336e-36 -6.99899e-35 0)
(-1.61298e-35 -2.74264e-34 0)
(-1.14535e-34 -1.84923e-33 0)
(-1.41915e-33 -2.34619e-32 0)
(-4.31997e-31 -7.62377e-30 0)
(-5.05418e-27 -9.38409e-26 0)
(-1.00674e-21 -1.97721e-20 0)
(-1.4203e-14 -2.96819e-13 0)
(-2.24904e-09 -5.02542e-08 0)
(-1.73481e-08 -4.10783e-07 0)
(-5.68281e-08 -1.40892e-06 0)
(-1.12028e-07 -2.86733e-06 0)
(-1.6223e-07 -4.24493e-06 0)
(-1.98104e-07 -5.27455e-06 0)
(-2.21939e-07 -6.00036e-06 0)
(-2.38421e-07 -6.53987e-06 0)
(-2.50912e-07 -6.98351e-06 0)
(-2.61362e-07 -7.38906e-06 0)
(-2.70819e-07 -7.7935e-06 0)
(-2.79769e-07 -8.22004e-06 0)
(-2.88304e-07 -8.6802e-06 0)
(-2.96243e-07 -9.17422e-06 0)
(-3.03272e-07 -9.69324e-06 0)
(-3.09096e-07 -1.02239e-05 0)
(-3.13533e-07 -1.07538e-05 0)
(-3.16529e-07 -1.12753e-05 0)
(-3.18113e-07 -1.17859e-05 0)
(-3.18338e-07 -1.22868e-05 0)
(-3.17243e-07 -1.27809e-05 0)
(-3.1484e-07 -1.32715e-05 0)
(-3.11117e-07 -1.37608e-05 0)
(-3.06049e-07 -1.42501e-05 0)
(-2.99609e-07 -1.47397e-05 0)
(-2.91771e-07 -1.52293e-05 0)
(-2.8251e-07 -1.57188e-05 0)
(-2.71793e-07 -1.62084e-05 0)
(-2.59573e-07 -1.66985e-05 0)
(-2.45788e-07 -1.719e-05 0)
(-2.30352e-07 -1.76838e-05 0)
(-2.13162e-07 -1.81812e-05 0)
(-1.94092e-07 -1.86832e-05 0)
(-1.72996e-07 -1.91911e-05 0)
(-1.49702e-07 -1.97061e-05 0)
(-1.24017e-07 -2.02293e-05 0)
(-9.57203e-08 -2.07619e-05 0)
(-6.45686e-08 -2.13049e-05 0)
(-3.02954e-08 -2.18593e-05 0)
(7.38358e-09 -2.24259e-05 0)
(4.87661e-08 -2.30052e-05 0)
(9.41577e-08 -2.35974e-05 0)
(1.43866e-07 -2.42026e-05 0)
(1.98192e-07 -2.48202e-05 0)
(2.5743e-07 -2.54498e-05 0)
(3.21855e-07 -2.60903e-05 0)
(3.91724e-07 -2.67406e-05 0)
(4.67273e-07 -2.73993e-05 0)
(5.48716e-07 -2.80648e-05 0)
(6.36244e-07 -2.87354e-05 0)
(7.30029e-07 -2.94095e-05 0)
(8.30223e-07 -3.00852e-05 0)
(9.36964e-07 -3.07609e-05 0)
(1.05039e-06 -3.14348e-05 0)
(1.17064e-06 -3.21055e-05 0)
(1.29793e-06 -3.27718e-05 0)
(1.43252e-06 -3.34328e-05 0)
(1.57483e-06 -3.40882e-05 0)
(1.72535e-06 -3.47381e-05 0)
(1.8846e-06 -3.53823e-05 0)
(2.05291e-06 -3.60196e-05 0)
(2.23022e-06 -3.66473e-05 0)
(2.41593e-06 -3.7261e-05 0)
(2.60923e-06 -3.78558e-05 0)
(2.80983e-06 -3.84291e-05 0)
(3.01874e-06 -3.89823e-05 0)
(3.23812e-06 -3.95203e-05 0)
(3.46992e-06 -4.00455e-05 0)
(3.71423e-06 -4.05545e-05 0)
(3.96934e-06 -4.10401e-05 0)
(4.23192e-06 -4.14958e-05 0)
(4.49265e-06 -4.19094e-05 0)
(4.72769e-06 -4.22489e-05 0)
(4.90848e-06 -4.24781e-05 0)
(5.03169e-06 -4.26112e-05 0)
(5.11422e-06 -4.26887e-05 0)
(5.16911e-06 -4.27349e-05 0)
(5.20322e-06 -4.27603e-05 0)
(5.22119e-06 -4.27714e-05 0)
(5.23264e-06 -4.27754e-05 0)
(5.24843e-06 -4.27768e-05 0)
(1.50143e-05 -4.32388e-05 0)
(0.0835923 -0.00182683 0)
(0.24979 -0.00345436 0)
(0.389643 -0.00399743 0)
(0.513366 -0.00361891 0)
(0.625417 -0.00255027 0)
(0.725381 -0.00112517 0)
(0.812187 0.000390402 0)
(0.884666 0.00183919 0)
(0.941646 0.00308827 0)
(0.98279 0.00398318 0)
(1.01003 0.00436794 0)
(1.0277 0.00424457 0)
(1.04028 0.00385081 0)
(1.05036 0.00338111 0)
(1.05897 0.00292721 0)
(1.06653 0.00251884 0)
(1.0733 0.00215227 0)
(1.0794 0.00182304 0)
(1.08496 0.00152637 0)
(1.09007 0.00125622 0)
(1.09478 0.0010102 0)
(1.09914 0.000784076 0)
(1.10322 0.000575886 0)
(1.10703 0.000382457 0)
(1.1106 0.00020321 0)
(1.11397 3.55963e-05 0)
(1.11717 -0.000121574 0)
(1.12019 -0.00026961 0)
(1.12306 -0.000408574 0)
(1.1258 -0.000541205 0)
(1.12841 -0.000666475 0)
(1.13092 -0.000786283 0)
(1.13333 -0.000900699 0)
(1.13564 -0.00101033 0)
(1.13786 -0.00111568 0)
(1.14001 -0.00121709 0)
(1.14209 -0.00131541 0)
(1.14411 -0.00141052 0)
(1.14605 -0.00150247 0)
(1.14793 -0.00159159 0)
(1.14978 -0.00167972 0)
(1.15157 -0.00176491 0)
(1.15331 -0.00184832 0)
(1.15499 -0.00192955 0)
(1.15664 -0.00200944 0)
(1.15826 -0.0020888 0)
(1.15984 -0.002167 0)
(1.16137 -0.00224347 0)
(1.16285 -0.00231784 0)
(1.16428 -0.00239101 0)
(1.1657 -0.00246458 0)
(1.16712 -0.00253973 0)
(1.16852 -0.00261538 0)
(1.1699 -0.00269029 0)
(1.17123 -0.00276396 0)
(1.17259 -0.00284035 0)
(1.17398 -0.00292065 0)
(1.17537 -0.00300243 0)
(1.17672 -0.00308266 0)
(1.17804 -0.0031627 0)
(1.17941 -0.00324732 0)
(1.18079 -0.00333523 0)
(1.18214 -0.00342161 0)
(1.18347 -0.00350857 0)
(1.18486 -0.00360194 0)
(1.18627 -0.00369903 0)
(1.18762 -0.00379367 0)
(1.18896 -0.00388862 0)
(1.19037 -0.00399114 0)
(1.19182 -0.0041001 0)
(1.19323 -0.0042081 0)
(1.19464 -0.00431776 0)
(1.19611 -0.00443529 0)
(1.19758 -0.00455619 0)
(1.19904 -0.00467835 0)
(1.20057 -0.00481011 0)
(1.20213 -0.00494818 0)
(1.20366 -0.00508546 0)
(1.20524 -0.00523155 0)
(1.20688 -0.00538897 0)
(1.2085 -0.00554706 0)
(1.21014 -0.00571097 0)
(1.21185 -0.00588766 0)
(1.21357 -0.00606886 0)
(1.21529 -0.00625641 0)
(1.21703 -0.00645023 0)
(1.21876 -0.00664873 0)
(1.22047 -0.00685137 0)
(1.22207 -0.00704502 0)
(1.22349 -0.00722219 0)
(1.22467 -0.00737476 0)
(1.22557 -0.00749228 0)
(1.22657 -0.00764473 0)
(1.3312 -0.039526 0)
(1.3312 -0.0395259 0)
(1.3312 -0.039526 0)
(1.3312 -0.0395259 0)
(1.3312 -0.039526 0)
(1.33121 -0.0395259 0)
(1.33121 -0.039526 0)
(1.33121 -0.0395259 0)
(1.33121 -0.039526 0)
(1.33121 -0.0395259 0)
(1.33121 -0.039526 0)
(1.33121 -0.0395259 0)
(1.33121 -0.039526 0)
(1.33121 -0.0395259 0)
(1.33121 -0.039526 0)
(1.33121 -0.0395259 0)
(1.33121 -0.039526 0)
(1.33121 -0.0395259 0)
(1.33121 -0.039526 0)
(1.33121 -0.0395259 0)
(1.33121 -0.039526 0)
(1.33121 -0.0395259 0)
(1.33121 -0.039526 0)
(1.33121 -0.0395259 0)
(1.33121 -0.039526 0)
(1.33121 -0.0395259 0)
(1.33121 -0.039526 0)
(1.33121 -0.0395259 0)
(1.33121 -0.039526 0)
(1.33121 -0.0395259 0)
(1.33121 -0.039526 0)
(1.33121 -0.0395259 0)
(1.33121 -0.039526 0)
(1.33121 -0.0395259 0)
(1.33121 -0.039526 0)
(1.33121 -0.0395259 0)
(1.33121 -0.039526 0)
(1.33121 -0.0395259 0)
(1.33121 -0.039526 0)
(1.33121 -0.0395259 0)
(1.33121 -0.039526 0)
(1.33121 -0.0395259 0)
(1.33121 -0.039526 0)
(1.33121 -0.0395259 0)
(1.33121 -0.039526 0)
(1.33121 -0.0395259 0)
(1.33121 -0.039526 0)
(1.33121 -0.0395259 0)
(1.33121 -0.039526 0)
(1.33121 -0.0395259 0)
(1.33121 -0.039526 0)
(1.33121 -0.0395259 0)
(1.33121 -0.039526 0)
(1.33121 -0.0395259 0)
(1.33121 -0.039526 0)
(1.33121 -0.0395259 0)
(1.33121 -0.039526 0)
(1.33121 -0.0395259 0)
(1.33121 -0.039526 0)
(1.33121 -0.0395259 0)
(1.33121 -0.039526 0)
(1.33121 -0.0395259 0)
(1.33121 -0.039526 0)
(1.33121 -0.0395259 0)
(1.33121 -0.039526 0)
(1.33121 -0.0395259 0)
(1.33121 -0.039526 0)
(1.33121 -0.0395259 0)
(1.33121 -0.039526 0)
(1.33121 -0.0395259 0)
(1.33121 -0.039526 0)
(1.33121 -0.0395259 0)
(1.33121 -0.039526 0)
(1.33121 -0.0395259 0)
(1.33121 -0.039526 0)
(1.33121 -0.0395259 0)
(1.33121 -0.039526 0)
(1.33121 -0.0395259 0)
(1.33121 -0.039526 0)
(1.33121 -0.0395259 0)
(1.33121 -0.039526 0)
(1.33121 -0.0395259 0)
(1.33121 -0.039526 0)
(1.33121 -0.0395259 0)
(1.33121 -0.039526 0)
(1.33121 -0.0395259 0)
(1.33121 -0.039526 0)
(1.33121 -0.0395259 0)
(1.33121 -0.039526 0)
(1.33121 -0.0395259 0)
(1.33121 -0.039526 0)
(1.33121 -0.0395259 0)
(1.33121 -0.039526 0)
(1.33121 -0.0395259 0)
(1.33121 -0.039526 0)
(1.33121 -0.0395259 0)
(1.33121 -0.039526 0)
(1.33121 -0.0395259 0)
(1.33121 -0.039526 0)
(1.33121 -0.0395259 0)
(1.33121 -0.039526 0)
(1.33121 -0.0395259 0)
(1.33121 -0.039526 0)
(1.33121 -0.0395259 0)
(1.33121 -0.039526 0)
(1.33121 -0.0395259 0)
(1.33121 -0.039526 0)
(1.33121 -0.039526 0)
(1.33121 -0.039526 0)
(1.33121 -0.039526 0)
(1.33121 -0.039526 0)
(1.33121 -0.039526 0)
(1.33121 -0.039526 0)
(1.33121 -0.0395257 0)
(1.33121 -0.0395173 0)
(1.33123 -0.0391721 0)
(1.33169 -0.0224528 0)
)
;

boundaryField
{
    inandouthalf11
    {
        type            cyclic;
    }
    inandouthalf12
    {
        type            cyclic;
    }
    inandouthalf21
    {
        type            cyclic;
    }
    inandouthalf22
    {
        type            cyclic;
    }
    inandouthalf31
    {
        type            cyclic;
    }
    inandouthalf32
    {
        type            cyclic;
    }
    inandouthalf41
    {
        type            cyclic;
    }
    inandouthalf42
    {
        type            cyclic;
    }
    top
    {
        type            symmetryPlane;
    }
    walls
    {
        type            fixedValue;
        value           uniform (0 0 0);
    }
    frontAndBackPlanes
    {
        type            empty;
    }
}


// ************************************************************************* //
