/*--------------------------------*- C++ -*----------------------------------*\
| =========                 |                                                 |
| \\      /  F ield         | OpenFOAM: The Open Source CFD Toolbox           |
|  \\    /   O peration     | Version:  2.4.x                                 |
|   \\  /    A nd           | Web:      www.OpenFOAM.org                      |
|    \\/     M anipulation  |                                                 |
\*---------------------------------------------------------------------------*/
FoamFile
{
    version     2.0;
    format      ascii;
    class       volVectorField;
    location    "2.05";
    object      Ub_0;
}
// * * * * * * * * * * * * * * * * * * * * * * * * * * * * * * * * * * * * * //

dimensions      [0 1 -1 0 0 0 0];

internalField   nonuniform List<vector> 
360
(
(-0.00015533 7.44663e-14 0)
(-0.000155595 2.23738e-13 0)
(-0.000155596 3.73318e-13 0)
(-0.000155596 5.23151e-13 0)
(-0.000155596 6.73187e-13 0)
(-0.000155597 8.23307e-13 0)
(-0.000155597 9.73482e-13 0)
(-0.000155599 1.1239e-12 0)
(-0.000155599 1.27428e-12 0)
(-0.0001556 1.42462e-12 0)
(-0.000155601 1.57467e-12 0)
(-0.000155601 1.7244e-12 0)
(-0.000155603 1.87373e-12 0)
(-0.000155604 2.0228e-12 0)
(-0.000155605 2.17183e-12 0)
(-0.000155607 2.32055e-12 0)
(-0.000155608 2.4689e-12 0)
(-0.000155609 2.61691e-12 0)
(-0.00015561 2.76432e-12 0)
(-0.000155613 2.91165e-12 0)
(-0.000155614 3.05854e-12 0)
(-0.000155617 3.20495e-12 0)
(-0.00015562 3.35068e-12 0)
(-0.000155622 3.49598e-12 0)
(-0.000155625 3.64066e-12 0)
(-0.000155627 3.78476e-12 0)
(-0.00015563 3.92853e-12 0)
(-0.000155634 4.07182e-12 0)
(-0.000155638 4.21446e-12 0)
(-0.000155642 4.35673e-12 0)
(-0.000155646 4.49828e-12 0)
(-0.000155651 4.63904e-12 0)
(-0.000155655 4.77899e-12 0)
(-0.000155661 4.91856e-12 0)
(-0.000155667 5.05723e-12 0)
(-0.000155673 5.19518e-12 0)
(-0.00015568 5.33266e-12 0)
(-0.000155688 5.46937e-12 0)
(-0.000155697 5.60511e-12 0)
(-0.000155705 5.74001e-12 0)
(-0.000155715 5.87424e-12 0)
(-0.000155726 6.00767e-12 0)
(-0.000155736 6.14039e-12 0)
(-0.000155749 6.27284e-12 0)
(-0.000155762 6.40444e-12 0)
(-0.000155777 6.53481e-12 0)
(-0.000155792 6.66437e-12 0)
(-0.000155808 6.79333e-12 0)
(-0.000155826 6.92134e-12 0)
(-0.000155847 7.0485e-12 0)
(-0.000155868 7.1747e-12 0)
(-0.000155892 7.30033e-12 0)
(-0.000155917 7.4251e-12 0)
(-0.000155944 7.54889e-12 0)
(-0.000155973 7.67156e-12 0)
(-0.000156006 7.79348e-12 0)
(-0.00015604 7.91447e-12 0)
(-0.000156078 8.03455e-12 0)
(-0.000156118 8.15335e-12 0)
(-0.000156162 8.27111e-12 0)
(-0.00015621 8.38813e-12 0)
(-0.000156261 8.50412e-12 0)
(-0.000156318 8.61916e-12 0)
(-0.000156378 8.73282e-12 0)
(-0.000156444 8.89191e-12 0)
(-0.000156515 1.82284e-12 0)
(-0.000156592 8.46215e-11 0)
(-0.000156676 -4.37158e-10 0)
(-0.000156762 1.40084e-07 0)
(-0.000156844 8.27657e-07 0)
(-0.000156914 2.34885e-06 0)
(-0.000156966 4.42997e-06 0)
(-0.000157007 6.47336e-06 0)
(-0.000157054 8.09336e-06 0)
(-0.000157112 9.26839e-06 0)
(-0.000157181 1.01427e-05 0)
(-0.000157256 1.08546e-05 0)
(-0.000157337 1.14984e-05 0)
(-0.00015742 1.21347e-05 0)
(-0.000157504 1.28005e-05 0)
(-0.000157585 1.35138e-05 0)
(-0.000157662 1.42761e-05 0)
(-0.000157737 1.50751e-05 0)
(-0.000157809 1.58923e-05 0)
(-0.000157881 1.67098e-05 0)
(-0.000157952 1.75157e-05 0)
(-0.000158025 1.83057e-05 0)
(-0.000158099 1.90808e-05 0)
(-0.000158174 1.9845e-05 0)
(-0.00015825 2.06029e-05 0)
(-0.000158326 2.1358e-05 0)
(-0.000158402 2.21122e-05 0)
(-0.000158478 2.2866e-05 0)
(-0.000158554 2.36195e-05 0)
(-0.00015863 2.43724e-05 0)
(-0.000158707 2.5125e-05 0)
(-0.000158784 2.58779e-05 0)
(-0.000158861 2.66324e-05 0)
(-0.000158939 2.739e-05 0)
(-0.000159017 2.81524e-05 0)
(-0.000159095 2.89214e-05 0)
(-0.000159174 2.96988e-05 0)
(-0.000159252 3.04864e-05 0)
(-0.00015933 3.12859e-05 0)
(-0.000159408 3.20992e-05 0)
(-0.000159485 3.29278e-05 0)
(-0.000159561 3.37732e-05 0)
(-0.000159637 3.46363e-05 0)
(-0.000159712 3.55181e-05 0)
(-0.000159785 3.64187e-05 0)
(-0.000159856 3.73382e-05 0)
(-0.000159926 3.82758e-05 0)
(-0.000159994 3.92307e-05 0)
(-0.000160061 4.02011e-05 0)
(-0.000160125 4.11853e-05 0)
(-0.000160187 4.21811e-05 0)
(-0.000160248 4.3186e-05 0)
(-0.000160306 4.41973e-05 0)
(-0.000160362 4.52125e-05 0)
(-0.000160417 4.62286e-05 0)
(-0.000160471 4.7243e-05 0)
(-0.000160522 4.8253e-05 0)
(-0.000160573 4.92562e-05 0)
(-0.000160623 5.02509e-05 0)
(-0.000160671 5.12355e-05 0)
(-0.000160719 5.22096e-05 0)
(-0.000160767 5.31727e-05 0)
(-0.000160814 5.41241e-05 0)
(-0.000160861 5.50619e-05 0)
(-0.000160908 5.59816e-05 0)
(-0.000160955 5.6877e-05 0)
(-0.000161003 5.77414e-05 0)
(-0.000161055 5.85709e-05 0)
(-0.000161113 5.93672e-05 0)
(-0.000161178 6.01356e-05 0)
(-0.000161247 6.08788e-05 0)
(-0.000161315 6.15915e-05 0)
(-0.000161388 6.22624e-05 0)
(-0.000161488 6.28776e-05 0)
(-0.000161636 6.34181e-05 0)
(-0.000161823 6.38502e-05 0)
(-0.000162005 6.41128e-05 0)
(-0.000162328 6.42284e-05 0)
(-0.000162868 6.42358e-05 0)
(-0.000163607 6.41516e-05 0)
(-0.000164588 6.39937e-05 0)
(-0.000165858 6.37498e-05 0)
(-0.000167584 6.33189e-05 0)
(-0.000170718 5.96711e-05 0)
(-5.66089e-05 7.07732e-05 0)
(0.0851359 0.000957373 0)
(0.251212 -0.00011447 0)
(0.400814 0.000364025 0)
(0.540022 -7.78117e-05 0)
(0.669474 0.000182913 0)
(0.783336 -8.69405e-05 0)
(0.882193 8.9152e-05 0)
(0.96798 -0.000103817 0)
(1.04163 4.19556e-05 0)
(1.10284 -7.1169e-05 0)
(1.15036 3.03827e-05 0)
(1.18419 -3.81121e-05 0)
(1.20737 2.73169e-05 0)
(1.22416 -2.70461e-05 0)
(1.23713 2.30191e-05 0)
(1.24768 -2.14724e-05 0)
(1.2564 1.87755e-05 0)
(1.26372 -1.72119e-05 0)
(1.26999 1.52174e-05 0)
(1.27539 -1.38307e-05 0)
(1.28015 1.23061e-05 0)
(1.28435 -1.11282e-05 0)
(1.28812 9.94441e-06 0)
(1.29149 -8.96277e-06 0)
(1.29456 8.03591e-06 0)
(1.29732 -7.22644e-06 0)
(1.29986 6.49723e-06 0)
(1.30215 -5.83349e-06 0)
(1.30426 5.25806e-06 0)
(1.30619 -4.71566e-06 0)
(1.30795 4.2605e-06 0)
(1.30957 -3.81784e-06 0)
(1.31106 3.45709e-06 0)
(1.31242 -3.09598e-06 0)
(1.31368 2.80962e-06 0)
(1.31484 -2.51496e-06 0)
(1.3159 2.28719e-06 0)
(1.31688 -2.0466e-06 0)
(1.31778 1.86527e-06 0)
(1.31861 -1.66842e-06 0)
(1.31938 1.52353e-06 0)
(1.32008 -1.36238e-06 0)
(1.32073 1.24671e-06 0)
(1.32133 -1.11442e-06 0)
(1.32189 1.02183e-06 0)
(1.3224 -9.1328e-07 0)
(1.32287 8.38876e-07 0)
(1.3233 -7.49401e-07 0)
(1.3237 6.89841e-07 0)
(1.32407 -6.15882e-07 0)
(1.32441 5.67799e-07 0)
(1.32473 -5.17854e-07 0)
(1.32503 4.88959e-07 0)
(1.3253 -4.47614e-07 0)
(1.32557 4.24857e-07 0)
(1.32581 -3.90646e-07 0)
(1.32604 3.71977e-07 0)
(1.32625 -3.43753e-07 0)
(1.32645 3.28745e-07 0)
(1.32663 -3.0502e-07 0)
(1.3268 2.92633e-07 0)
(1.32696 -2.73049e-07 0)
(1.3271 2.62878e-07 0)
(1.32724 -2.46386e-07 0)
(1.32736 2.37821e-07 0)
(1.32747 -2.24211e-07 0)
(1.32757 2.17129e-07 0)
(1.32767 -2.05637e-07 0)
(1.32775 1.9962e-07 0)
(1.32783 -1.90197e-07 0)
(1.3279 1.85137e-07 0)
(1.32797 -1.77237e-07 0)
(1.32802 1.72938e-07 0)
(1.32807 -1.66432e-07 0)
(1.32812 1.6283e-07 0)
(1.32816 -1.57477e-07 0)
(1.3282 1.54401e-07 0)
(1.32823 -1.49976e-07 0)
(1.32826 1.47399e-07 0)
(1.32829 -1.43811e-07 0)
(1.32831 1.41645e-07 0)
(1.32833 -1.38701e-07 0)
(1.32835 1.36868e-07 0)
(1.32836 -1.34484e-07 0)
(1.32838 1.32951e-07 0)
(1.32839 -1.31017e-07 0)
(1.3284 1.29728e-07 0)
(1.32841 -1.28156e-07 0)
(1.32842 1.27081e-07 0)
(1.32842 -1.25767e-07 0)
(1.32843 1.24892e-07 0)
(1.32843 -1.23764e-07 0)
(1.32844 1.2304e-07 0)
(1.32844 -1.21989e-07 0)
(1.32844 1.21249e-07 0)
(1.32844 -1.20522e-07 0)
(1.32845 1.19858e-07 0)
(1.32845 -1.19207e-07 0)
(1.32845 1.18602e-07 0)
(1.32845 -1.18e-07 0)
(1.32845 1.1743e-07 0)
(1.32845 -1.16857e-07 0)
(1.32845 1.16306e-07 0)
(1.32845 -1.15745e-07 0)
(1.32845 1.15197e-07 0)
(1.32845 -1.14636e-07 0)
(1.32845 1.14082e-07 0)
(1.32846 -1.13512e-07 0)
(1.32846 1.12945e-07 0)
(1.32846 -1.12361e-07 0)
(1.32846 1.11776e-07 0)
(1.32846 -1.11174e-07 0)
(1.32846 1.1057e-07 0)
(1.32846 -1.0995e-07 0)
(1.32846 1.09327e-07 0)
(1.32846 -1.08689e-07 0)
(1.32846 1.08049e-07 0)
(1.32846 -1.07395e-07 0)
(1.32846 1.06741e-07 0)
(1.32846 -1.06075e-07 0)
(1.32846 1.05409e-07 0)
(1.32846 -1.04735e-07 0)
(1.32846 1.04063e-07 0)
(1.32846 -1.03384e-07 0)
(1.32846 1.0271e-07 0)
(1.32846 -1.02032e-07 0)
(1.32846 1.0136e-07 0)
(1.32846 -1.00686e-07 0)
(1.32846 1.00021e-07 0)
(1.32846 -9.93565e-08 0)
(1.32846 9.87021e-08 0)
(1.32846 -9.80507e-08 0)
(1.32846 9.74111e-08 0)
(1.32846 -9.67766e-08 0)
(1.32846 9.61553e-08 0)
(1.32846 -9.55412e-08 0)
(1.32846 9.49416e-08 0)
(1.32846 -9.4351e-08 0)
(1.32846 9.3776e-08 0)
(1.32846 -9.32119e-08 0)
(1.32846 9.26641e-08 0)
(1.32846 -9.21291e-08 0)
(1.32846 9.16112e-08 0)
(1.32846 -9.11077e-08 0)
(1.32846 9.06221e-08 0)
(1.32846 -9.01525e-08 0)
(1.32846 8.97015e-08 0)
(1.32846 -8.92682e-08 0)
(1.32846 8.88543e-08 0)
(1.32846 -8.84595e-08 0)
(1.32846 8.80854e-08 0)
(1.32846 -8.77318e-08 0)
(1.32846 8.74001e-08 0)
(1.32846 -8.70904e-08 0)
(1.32846 8.68042e-08 0)
(1.32846 -8.65416e-08 0)
(1.32846 8.63042e-08 0)
(1.32846 -8.60922e-08 0)
(1.32846 8.59074e-08 0)
(1.32846 -8.57499e-08 0)
(1.32846 7.50027e-08 0)
(1.32846 -7.31832e-08 0)
(1.32846 7.1395e-08 0)
(1.32846 -6.96376e-08 0)
(1.32846 6.79121e-08 0)
(1.32846 -6.62178e-08 0)
(1.32846 6.4556e-08 0)
(1.32846 -6.2926e-08 0)
(1.32846 6.1329e-08 0)
(1.32846 -5.97645e-08 0)
(1.32846 5.82335e-08 0)
(1.32846 -5.67357e-08 0)
(1.32846 5.5272e-08 0)
(1.32846 -5.3842e-08 0)
(1.32846 5.24469e-08 0)
(1.32846 -5.10862e-08 0)
(1.32846 4.97608e-08 0)
(1.32846 -4.84706e-08 0)
(1.32846 4.72163e-08 0)
(1.32846 -4.59977e-08 0)
(1.32846 4.48159e-08 0)
(1.32846 -4.36701e-08 0)
(1.32846 4.2562e-08 0)
(1.32846 -4.14901e-08 0)
(1.32846 4.04567e-08 0)
(1.32846 -3.94601e-08 0)
(1.32846 3.85023e-08 0)
(1.32846 -3.75819e-08 0)
(1.32846 3.67006e-08 0)
(1.32846 -3.58576e-08 0)
(1.32846 3.50535e-08 0)
(1.32846 -3.42889e-08 0)
(1.32846 3.35626e-08 0)
(1.32846 -3.28775e-08 0)
(1.32846 3.22294e-08 0)
(1.32846 -3.16244e-08 0)
(1.32846 3.1055e-08 0)
(1.32846 -3.05326e-08 0)
(1.32846 3.00317e-08 0)
(1.32846 -2.956e-08 0)
(1.32846 2.91027e-08 0)
(1.32846 -2.8677e-08 0)
(1.32846 2.82654e-08 0)
(1.32846 -2.7891e-08 0)
(1.32846 2.75321e-08 0)
(1.32846 -2.72173e-08 0)
(1.32846 2.69219e-08 0)
(1.32846 -2.66803e-08 0)
(1.32846 2.64687e-08 0)
(1.32846 -2.63295e-08 0)
)
;

boundaryField
{
    inandouthalf11
    {
        type            cyclic;
    }
    inandouthalf12
    {
        type            cyclic;
    }
    inandouthalf21
    {
        type            cyclic;
    }
    inandouthalf22
    {
        type            cyclic;
    }
    inandouthalf31
    {
        type            cyclic;
    }
    inandouthalf32
    {
        type            cyclic;
    }
    inandouthalf41
    {
        type            cyclic;
    }
    inandouthalf42
    {
        type            cyclic;
    }
    top
    {
        type            symmetryPlane;
    }
    walls
    {
        type            fixedValue;
        value           uniform (0 0 0);
    }
    frontAndBackPlanes
    {
        type            empty;
    }
}


// ************************************************************************* //
