/*--------------------------------*- C++ -*----------------------------------*\
| =========                 |                                                 |
| \\      /  F ield         | OpenFOAM: The Open Source CFD Toolbox           |
|  \\    /   O peration     | Version:  2.4.x                                 |
|   \\  /    A nd           | Web:      www.OpenFOAM.org                      |
|    \\/     M anipulation  |                                                 |
\*---------------------------------------------------------------------------*/
FoamFile
{
    version     2.0;
    format      ascii;
    class       volVectorField;
    location    "2.05";
    object      Ur;
}
// * * * * * * * * * * * * * * * * * * * * * * * * * * * * * * * * * * * * * //

dimensions      [0 1 -1 0 0 0 0];

internalField   nonuniform List<vector> 
360
(
(-0.000155389 8.31164e-14 0)
(-0.000155654 2.49812e-13 0)
(-0.000155656 4.17177e-13 0)
(-0.000155656 5.84705e-13 0)
(-0.000155656 7.52137e-13 0)
(-0.000155657 9.19916e-13 0)
(-0.000155657 1.08791e-12 0)
(-0.000155658 1.25573e-12 0)
(-0.000155658 1.42341e-12 0)
(-0.00015566 1.59137e-12 0)
(-0.000155661 1.75916e-12 0)
(-0.000155661 1.92655e-12 0)
(-0.000155662 2.0939e-12 0)
(-0.000155664 2.26091e-12 0)
(-0.000155665 2.42737e-12 0)
(-0.000155666 2.59363e-12 0)
(-0.000155668 2.75928e-12 0)
(-0.000155669 2.9249e-12 0)
(-0.00015567 3.0902e-12 0)
(-0.000155673 3.25492e-12 0)
(-0.000155674 3.41908e-12 0)
(-0.000155677 3.58275e-12 0)
(-0.000155679 3.74578e-12 0)
(-0.000155682 3.90835e-12 0)
(-0.000155685 4.07052e-12 0)
(-0.000155687 4.23217e-12 0)
(-0.00015569 4.39288e-12 0)
(-0.000155694 4.55316e-12 0)
(-0.000155698 4.71273e-12 0)
(-0.000155702 4.87143e-12 0)
(-0.000155705 5.02966e-12 0)
(-0.000155711 5.18706e-12 0)
(-0.000155715 5.3438e-12 0)
(-0.000155721 5.50037e-12 0)
(-0.000155726 5.65615e-12 0)
(-0.000155733 5.81077e-12 0)
(-0.00015574 5.96431e-12 0)
(-0.000155747 6.11743e-12 0)
(-0.000155757 6.27001e-12 0)
(-0.000155764 6.42161e-12 0)
(-0.000155775 6.57212e-12 0)
(-0.000155785 6.72174e-12 0)
(-0.000155796 6.87047e-12 0)
(-0.000155809 7.01843e-12 0)
(-0.000155822 7.16557e-12 0)
(-0.000155836 7.31215e-12 0)
(-0.000155852 7.45767e-12 0)
(-0.000155868 7.60201e-12 0)
(-0.000155886 7.74555e-12 0)
(-0.000155907 7.88832e-12 0)
(-0.000155928 8.03038e-12 0)
(-0.000155952 8.17163e-12 0)
(-0.000155976 8.31156e-12 0)
(-0.000156004 8.45029e-12 0)
(-0.000156033 8.58762e-12 0)
(-0.000156066 8.72421e-12 0)
(-0.0001561 8.8599e-12 0)
(-0.000156138 8.99445e-12 0)
(-0.000156178 9.12786e-12 0)
(-0.000156222 9.26021e-12 0)
(-0.00015627 9.39159e-12 0)
(-0.000156321 9.52178e-12 0)
(-0.000156378 9.65095e-12 0)
(-0.000156438 9.77857e-12 0)
(-0.000156504 9.94399e-12 0)
(-0.000156575 3.49014e-12 0)
(-0.000156652 7.95267e-11 0)
(-0.000156736 -4.18171e-10 0)
(-0.00015682 1.91239e-07 0)
(-0.000156887 1.24188e-06 0)
(-0.000156917 3.76422e-06 0)
(-0.000156914 7.30528e-06 0)
(-0.000156905 1.07259e-05 0)
(-0.000156917 1.33743e-05 0)
(-0.000156951 1.52739e-05 0)
(-0.000157003 1.66869e-05 0)
(-0.000157067 1.78417e-05 0)
(-0.000157137 1.88906e-05 0)
(-0.000157211 1.99308e-05 0)
(-0.000157285 2.10227e-05 0)
(-0.000157358 2.21959e-05 0)
(-0.000157428 2.34518e-05 0)
(-0.000157495 2.47696e-05 0)
(-0.000157562 2.61171e-05 0)
(-0.000157629 2.74643e-05 0)
(-0.000157698 2.87914e-05 0)
(-0.000157769 3.00916e-05 0)
(-0.000157843 3.13673e-05 0)
(-0.000157919 3.26254e-05 0)
(-0.000157997 3.38736e-05 0)
(-0.000158077 3.51176e-05 0)
(-0.000158158 3.63607e-05 0)
(-0.000158241 3.76038e-05 0)
(-0.000158325 3.88465e-05 0)
(-0.00015841 4.00887e-05 0)
(-0.000158498 4.13305e-05 0)
(-0.000158587 4.25733e-05 0)
(-0.000158678 4.3819e-05 0)
(-0.000158772 4.50701e-05 0)
(-0.000158867 4.63296e-05 0)
(-0.000158965 4.76005e-05 0)
(-0.000159064 4.88856e-05 0)
(-0.000159166 5.0188e-05 0)
(-0.00015927 5.15106e-05 0)
(-0.000159376 5.28563e-05 0)
(-0.000159484 5.42278e-05 0)
(-0.000159595 5.56274e-05 0)
(-0.000159709 5.70569e-05 0)
(-0.000159825 5.85178e-05 0)
(-0.000159943 6.00105e-05 0)
(-0.000160065 6.15349e-05 0)
(-0.000160189 6.309e-05 0)
(-0.000160317 6.46741e-05 0)
(-0.000160448 6.62848e-05 0)
(-0.000160582 6.79189e-05 0)
(-0.00016072 6.9573e-05 0)
(-0.000160862 7.12429e-05 0)
(-0.000161008 7.29244e-05 0)
(-0.000161159 7.46131e-05 0)
(-0.000161314 7.63045e-05 0)
(-0.000161474 7.7994e-05 0)
(-0.00016164 7.96773e-05 0)
(-0.000161811 8.13507e-05 0)
(-0.000161988 8.30109e-05 0)
(-0.000162171 8.46559e-05 0)
(-0.000162362 8.62848e-05 0)
(-0.000162561 8.78971e-05 0)
(-0.000162767 8.9492e-05 0)
(-0.000162983 9.10664e-05 0)
(-0.000163207 9.26132e-05 0)
(-0.00016344 9.41217e-05 0)
(-0.000163682 9.55802e-05 0)
(-0.000163935 9.69824e-05 0)
(-0.000164202 9.83315e-05 0)
(-0.000164487 9.96372e-05 0)
(-0.000164789 0.000100905 0)
(-0.000165101 0.000102126 0)
(-0.00016543 0.000103282 0)
(-0.000165793 0.000104353 0)
(-0.000166202 0.000105306 0)
(-0.000166625 0.000106078 0)
(-0.000166988 0.000106569 0)
(-0.000167435 0.000106818 0)
(-0.000168057 0.000106903 0)
(-0.000168851 0.000106865 0)
(-0.000169867 0.000106733 0)
(-0.000171155 0.0001065 0)
(-0.000172893 0.000106072 0)
(-0.000176046 0.000102457 0)
(-7.23873e-05 0.000113768 0)
(0.00150637 0.00278125 0)
(0.00132685 0.00333994 0)
(0.0109579 0.00436101 0)
(0.0263798 0.00354115 0)
(0.0437857 0.00273314 0)
(0.0576944 0.00103827 0)
(0.0697485 -0.000301232 0)
(0.0830615 -0.00194296 0)
(0.0997364 -0.00304627 0)
(0.119829 -0.00405438 0)
(0.140128 -0.00433754 0)
(0.156313 -0.00428271 0)
(0.166926 -0.00382347 0)
(0.173645 -0.00340818 0)
(0.178016 -0.00290417 0)
(0.180992 -0.00254033 0)
(0.182959 -0.00213347 0)
(0.184166 -0.00184027 0)
(0.184877 -0.00151113 0)
(0.185177 -0.00127007 0)
(0.185227 -0.000997876 0)
(0.185058 -0.000795217 0)
(0.184758 -0.00056593 0)
(0.184319 -0.000391431 0)
(0.183805 -0.000195164 0)
(0.183203 -4.28312e-05 0)
(0.182544 0.000128079 0)
(0.181818 0.00026377 0)
(0.181057 0.000413838 0)
(0.180239 0.000536484 0)
(0.17939 0.00067074 0)
(0.178504 0.000782461 0)
(0.177585 0.000904159 0)
(0.176641 0.00100723 0)
(0.17567 0.00111849 0)
(0.174679 0.00121457 0)
(0.173662 0.0013177 0)
(0.17263 0.00140847 0)
(0.171586 0.00150434 0)
(0.170533 0.00158992 0)
(0.169451 0.00168124 0)
(0.16837 0.00176355 0)
(0.167282 0.00184957 0)
(0.166195 0.00192843 0)
(0.165101 0.00201046 0)
(0.163993 0.00208788 0)
(0.162884 0.00216784 0)
(0.161787 0.00224272 0)
(0.16071 0.00231853 0)
(0.159644 0.00239039 0)
(0.158566 0.00246514 0)
(0.157465 0.00253922 0)
(0.156357 0.00261587 0)
(0.155263 0.00268985 0)
(0.154187 0.00276438 0)
(0.153075 0.00283995 0)
(0.151913 0.00292102 0)
(0.150737 0.00300208 0)
(0.149587 0.00308299 0)
(0.148443 0.0031624 0)
(0.147248 0.00324761 0)
(0.146022 0.00333496 0)
(0.144822 0.00342187 0)
(0.143622 0.00350832 0)
(0.142356 0.00360218 0)
(0.141061 0.0036988 0)
(0.139806 0.00379389 0)
(0.138559 0.00388841 0)
(0.13724 0.00399134 0)
(0.13587 0.00409991 0)
(0.134525 0.00420828 0)
(0.133177 0.00431758 0)
(0.131769 0.00443547 0)
(0.130349 0.00455602 0)
(0.128931 0.00467851 0)
(0.127443 0.00480996 0)
(0.125923 0.00494834 0)
(0.124429 0.00508531 0)
(0.122879 0.0052317 0)
(0.121262 0.00538883 0)
(0.119663 0.00554721 0)
(0.118042 0.00571083 0)
(0.116351 0.00588779 0)
(0.114653 0.00606873 0)
(0.112939 0.00625654 0)
(0.111216 0.0064501 0)
(0.109494 0.00664886 0)
(0.107791 0.00685125 0)
(0.106203 0.00704515 0)
(0.104789 0.00722207 0)
(0.103613 0.00737489 0)
(0.102715 0.00749216 0)
(0.10172 0.00764485 0)
(-0.00290136 0.0395259 0)
(-0.00290128 0.039526 0)
(-0.00290118 0.0395259 0)
(-0.0029011 0.039526 0)
(-0.00290103 0.0395259 0)
(-0.00290097 0.039526 0)
(-0.00290093 0.0395259 0)
(-0.00290089 0.039526 0)
(-0.00290086 0.0395259 0)
(-0.00290083 0.039526 0)
(-0.00290081 0.0395259 0)
(-0.00290079 0.039526 0)
(-0.00290078 0.0395259 0)
(-0.00290077 0.039526 0)
(-0.00290076 0.0395259 0)
(-0.00290075 0.039526 0)
(-0.00290075 0.0395259 0)
(-0.00290075 0.039526 0)
(-0.00290075 0.0395259 0)
(-0.00290074 0.039526 0)
(-0.00290074 0.0395259 0)
(-0.00290074 0.039526 0)
(-0.00290074 0.0395259 0)
(-0.00290073 0.039526 0)
(-0.00290074 0.0395259 0)
(-0.00290073 0.039526 0)
(-0.00290074 0.0395259 0)
(-0.00290073 0.039526 0)
(-0.00290074 0.0395259 0)
(-0.00290073 0.039526 0)
(-0.00290074 0.0395259 0)
(-0.00290073 0.039526 0)
(-0.00290074 0.0395259 0)
(-0.00290073 0.039526 0)
(-0.00290074 0.0395259 0)
(-0.00290073 0.039526 0)
(-0.00290074 0.0395259 0)
(-0.00290073 0.039526 0)
(-0.00290074 0.0395259 0)
(-0.00290073 0.039526 0)
(-0.00290074 0.0395259 0)
(-0.00290073 0.039526 0)
(-0.00290074 0.0395259 0)
(-0.00290073 0.039526 0)
(-0.00290074 0.0395259 0)
(-0.00290073 0.039526 0)
(-0.00290074 0.0395259 0)
(-0.00290073 0.039526 0)
(-0.00290074 0.0395259 0)
(-0.00290073 0.039526 0)
(-0.00290074 0.0395259 0)
(-0.00290073 0.039526 0)
(-0.00290074 0.0395259 0)
(-0.00290073 0.039526 0)
(-0.00290074 0.0395259 0)
(-0.00290073 0.039526 0)
(-0.00290074 0.0395259 0)
(-0.00290073 0.039526 0)
(-0.00290074 0.0395259 0)
(-0.00290073 0.039526 0)
(-0.00290074 0.0395259 0)
(-0.00290073 0.039526 0)
(-0.00290074 0.0395259 0)
(-0.00290073 0.039526 0)
(-0.00290074 0.0395259 0)
(-0.00290073 0.039526 0)
(-0.00290074 0.0395259 0)
(-0.00290073 0.039526 0)
(-0.00290074 0.0395259 0)
(-0.00290073 0.039526 0)
(-0.00290074 0.0395259 0)
(-0.00290073 0.039526 0)
(-0.00290074 0.0395259 0)
(-0.00290073 0.039526 0)
(-0.00290074 0.0395259 0)
(-0.00290073 0.039526 0)
(-0.00290074 0.0395259 0)
(-0.00290073 0.039526 0)
(-0.00290074 0.0395259 0)
(-0.00290073 0.039526 0)
(-0.00290074 0.0395259 0)
(-0.00290073 0.039526 0)
(-0.00290073 0.0395259 0)
(-0.00290073 0.039526 0)
(-0.00290073 0.0395259 0)
(-0.00290073 0.039526 0)
(-0.00290073 0.0395259 0)
(-0.00290073 0.039526 0)
(-0.00290073 0.0395259 0)
(-0.00290073 0.039526 0)
(-0.00290073 0.0395259 0)
(-0.00290073 0.039526 0)
(-0.00290073 0.0395259 0)
(-0.00290073 0.039526 0)
(-0.00290073 0.0395259 0)
(-0.00290073 0.039526 0)
(-0.00290073 0.0395259 0)
(-0.00290073 0.039526 0)
(-0.00290073 0.0395259 0)
(-0.00290073 0.039526 0)
(-0.00290073 0.0395259 0)
(-0.00290073 0.039526 0)
(-0.00290073 0.0395259 0)
(-0.00290073 0.039526 0)
(-0.00290073 0.0395259 0)
(-0.00290073 0.039526 0)
(-0.00290073 0.0395259 0)
(-0.00290073 0.039526 0)
(-0.00290073 0.0395259 0)
(-0.00290073 0.039526 0)
(-0.00290073 0.0395259 0)
(-0.00290073 0.039526 0)
(-0.00290074 0.0395259 0)
(-0.00290076 0.0395258 0)
(-0.00290156 0.0395173 0)
(-0.00292119 0.0391721 0)
(-0.00337899 0.0224528 0)
)
;

boundaryField
{
    inandouthalf11
    {
        type            cyclic;
    }
    inandouthalf12
    {
        type            cyclic;
    }
    inandouthalf21
    {
        type            cyclic;
    }
    inandouthalf22
    {
        type            cyclic;
    }
    inandouthalf31
    {
        type            cyclic;
    }
    inandouthalf32
    {
        type            cyclic;
    }
    inandouthalf41
    {
        type            cyclic;
    }
    inandouthalf42
    {
        type            cyclic;
    }
    top
    {
        type            symmetryPlane;
    }
    walls
    {
        type            calculated;
        value           uniform (0 0 0);
    }
    frontAndBackPlanes
    {
        type            empty;
    }
}


// ************************************************************************* //
