/*--------------------------------*- C++ -*----------------------------------*\
| =========                 |                                                 |
| \\      /  F ield         | OpenFOAM: The Open Source CFD Toolbox           |
|  \\    /   O peration     | Version:  2.4.x                                 |
|   \\  /    A nd           | Web:      www.OpenFOAM.org                      |
|    \\/     M anipulation  |                                                 |
\*---------------------------------------------------------------------------*/
FoamFile
{
    version     2.0;
    format      ascii;
    class       volScalarField;
    location    "9.8";
    object      epsilon_0;
}
// * * * * * * * * * * * * * * * * * * * * * * * * * * * * * * * * * * * * * //

dimensions      [0 2 -3 0 0 0 0];

internalField   nonuniform List<scalar> 
360
(
1.60309e-27
1e-20
1e-20
1e-20
1e-20
1e-20
1e-20
1e-20
1e-20
1e-20
1e-20
1e-20
1e-20
1e-20
1e-20
1e-20
1e-20
1e-20
1e-20
1e-20
1e-20
1e-20
1e-20
1e-20
1e-20
1e-20
1e-20
1e-20
1e-20
1e-20
1e-20
1e-20
1e-20
1e-20
1e-20
1e-20
1e-20
1e-20
1e-20
1e-20
1e-20
1e-20
1e-20
1e-20
1e-20
1e-20
1e-20
1e-20
1e-20
1e-20
1e-20
1e-20
1e-20
1e-20
1e-20
1e-20
1e-20
1e-20
1e-20
1e-20
1e-20
1e-20
1e-20
1e-20
1e-20
1e-20
1e-20
1e-20
1e-20
1e-20
1e-20
1e-20
1e-20
1e-20
1e-20
1e-20
1e-20
1e-20
1e-20
1e-20
1e-20
1e-20
1e-20
1e-20
1e-20
1e-20
1e-20
1e-20
1e-20
1e-20
1e-20
1e-20
1e-20
1e-20
1e-20
1e-20
1e-20
1e-20
1e-20
1e-20
1e-20
1e-20
1e-20
1e-20
1e-20
1e-20
1e-20
1e-20
1e-20
1e-20
1e-20
1e-20
1e-20
1e-20
1e-20
1e-20
1e-20
1e-20
1e-20
1e-20
1e-20
1e-20
1e-20
1e-20
1e-20
1e-20
2.82248e-20
1.32671e-19
6.32091e-19
2.93393e-18
1.32807e-17
5.90554e-17
2.61438e-16
1.17637e-15
5.52403e-15
2.78104e-14
1.53825e-13
9.61866e-13
7.08669e-12
6.44725e-11
7.47683e-10
1.12048e-08
2.19904e-07
5.48979e-06
0.000177346
0.00589081
0.0665819
0.128696
0.142579
0.142967
0.138934
0.13343
0.127642
0.122055
0.116851
0.11207
0.107695
0.103684
0.0999926
0.0965768
0.0933994
0.0904284
0.0876368
0.0850022
0.0825055
0.0801306
0.077864
0.0756939
0.0736103
0.0716043
0.0696683
0.0677956
0.0659804
0.0642173
0.062502
0.0608302
0.0591985
0.0576037
0.056043
0.0545138
0.0530142
0.051542
0.0500956
0.0486736
0.0472745
0.0458974
0.0445411
0.0432048
0.0418878
0.0405895
0.0393094
0.038047
0.036802
0.0355742
0.0343634
0.0331694
0.0319923
0.0308319
0.0296885
0.028562
0.0274527
0.0263496
0.0252427
0.0241328
0.023021
0.0219086
0.020797
0.0196878
0.0185826
0.0174834
0.0163926
0.0153125
0.0142459
0.013196
0.0121662
0.0111601
0.0101818
0.0092357
0.00832636
0.00745847
0.00663677
0.00586585
0.00514993
0.00449261
0.00389659
0.00336339
0.00289309
0.00248426
0.00213388
0.00183763
0.00159013
0.00138544
0.00121747
0.00108034
0.000968697
0.00087783
0.000803718
0.000743007
0.000692938
0.000651263
0.000616153
0.000586125
0.000559968
0.000536695
0.000515497
0.000495708
0.000476782
0.000458272
0.000439815
0.00042112
0.000401964
0.00038218
0.000361653
0.000340321
0.000318168
0.000295224
0.000271564
0.000247304
0.000222604
0.000197667
0.000172736
0.000148091
0.000124054
0.000100978
7.92452e-05
5.92617e-05
4.14493e-05
2.62373e-05
1.40538e-05
5.31523e-06
8.28938e-07
2.78853e-08
3.26207e-10
3.34847e-12
3.27857e-14
3.06976e-16
2.75969e-18
3.18805e-20
1e-20
1e-20
1e-20
1e-20
1e-20
1e-20
1e-20
1e-20
1e-20
1e-20
1e-20
1e-20
1e-20
1e-20
1e-20
1e-20
1e-20
1e-20
1e-20
1e-20
1e-20
1e-20
1e-20
1e-20
1e-20
1e-20
1e-20
1e-20
1e-20
1e-20
1e-20
1e-20
1e-20
1e-20
1e-20
1e-20
1e-20
1e-20
1e-20
1e-20
1e-20
1e-20
1e-20
1e-20
1e-20
1e-20
1e-20
1e-20
1e-20
1e-20
1e-20
1e-20
1e-20
1e-20
1e-20
1e-20
1e-20
1e-20
1e-20
1e-20
1e-20
1e-20
1e-20
1e-20
1e-20
1e-20
1e-20
1e-20
1e-20
1e-20
1e-20
1e-20
1e-20
1e-20
1e-20
1e-20
1e-20
1e-20
1e-20
1e-20
1e-20
1e-20
)
;

boundaryField
{
    inandouthalf11
    {
        type            cyclic;
    }
    inandouthalf12
    {
        type            cyclic;
    }
    inandouthalf21
    {
        type            cyclic;
    }
    inandouthalf22
    {
        type            cyclic;
    }
    inandouthalf31
    {
        type            cyclic;
    }
    inandouthalf32
    {
        type            cyclic;
    }
    inandouthalf41
    {
        type            cyclic;
    }
    inandouthalf42
    {
        type            cyclic;
    }
    top
    {
        type            symmetryPlane;
    }
    walls
    {
        type            zeroGradient;
    }
    frontAndBackPlanes
    {
        type            empty;
    }
}


// ************************************************************************* //
