/*--------------------------------*- C++ -*----------------------------------*\
| =========                 |                                                 |
| \\      /  F ield         | OpenFOAM: The Open Source CFD Toolbox           |
|  \\    /   O peration     | Version:  2.4.x                                 |
|   \\  /    A nd           | Web:      www.OpenFOAM.org                      |
|    \\/     M anipulation  |                                                 |
\*---------------------------------------------------------------------------*/
FoamFile
{
    version     2.0;
    format      ascii;
    class       volScalarField;
    location    "9.8";
    object      k_0;
}
// * * * * * * * * * * * * * * * * * * * * * * * * * * * * * * * * * * * * * //

dimensions      [0 2 -2 0 0 0 0];

internalField   nonuniform List<scalar> 
360
(
1e-20
1e-20
1e-20
1e-20
1e-20
1e-20
1e-20
1e-20
1e-20
1e-20
1e-20
1e-20
1e-20
1e-20
1e-20
1e-20
1e-20
1e-20
1e-20
1e-20
1e-20
1e-20
1e-20
1e-20
1e-20
1e-20
1e-20
1e-20
1e-20
1e-20
1e-20
1e-20
1e-20
1e-20
1e-20
1e-20
1e-20
1e-20
1e-20
1e-20
1e-20
1e-20
1e-20
1e-20
1e-20
1e-20
1e-20
1e-20
1e-20
1e-20
1e-20
1e-20
1e-20
1e-20
1e-20
1e-20
1e-20
1e-20
1e-20
1e-20
1e-20
1e-20
1e-20
1e-20
1e-20
1e-20
1e-20
1e-20
1e-20
1e-20
1e-20
1e-20
1e-20
1e-20
1e-20
1e-20
1e-20
1e-20
1e-20
1e-20
1e-20
1e-20
1e-20
1e-20
1e-20
1e-20
1e-20
1e-20
1e-20
1e-20
1e-20
1e-20
1e-20
1e-20
1e-20
1e-20
1e-20
1e-20
1e-20
1e-20
1e-20
1e-20
1e-20
1e-20
1e-20
1e-20
1e-20
1e-20
1e-20
1e-20
1e-20
1e-20
1e-20
1e-20
1e-20
1e-20
1e-20
1e-20
1e-20
1e-20
1e-20
1e-20
1e-20
1e-20
1e-20
1e-20
2.66713e-20
1.19222e-19
5.40704e-19
2.3733e-18
1.00632e-17
4.13991e-17
1.66943e-16
6.72164e-16
2.7729e-15
1.20387e-14
5.62234e-14
2.89246e-13
1.70711e-12
1.22053e-11
1.10045e-10
1.26973e-09
1.95045e-08
3.75761e-07
9.17272e-06
0.000236456
0.0021518
0.00448977
0.0057675
0.00660318
0.00722021
0.00772081
0.00815267
0.00853817
0.00888885
0.00921066
0.00950668
0.00977861
0.0100275
0.0102543
0.0104598
0.0106447
0.0108101
0.0109566
0.0110852
0.0111967
0.0112919
0.0113716
0.0114364
0.011487
0.0115241
0.0115483
0.01156
0.01156
0.0115485
0.0115261
0.0114933
0.0114505
0.0113979
0.0113361
0.0112654
0.011186
0.0110985
0.011003
0.0108999
0.0107894
0.0106719
0.0105477
0.010417
0.0102801
0.0101373
0.00998877
0.00983489
0.00967585
0.0095119
0.00934326
0.00917014
0.00899279
0.00881144
0.00862634
0.00843774
0.00824396
0.00804314
0.00783531
0.00762055
0.00739895
0.00717067
0.00693592
0.00669495
0.0064481
0.00619577
0.00593845
0.00567677
0.00541141
0.00514324
0.00487321
0.00460246
0.00433228
0.00406411
0.0037996
0.00354052
0.00328881
0.00304649
0.00281563
0.00259818
0.00239595
0.00221039
0.0020425
0.00189274
0.00176096
0.00164642
0.00154793
0.00146393
0.00139266
0.00133233
0.00128119
0.00123764
0.00120022
0.00116767
0.00113889
0.00111293
0.00108896
0.00106628
0.00104426
0.00102238
0.00100017
0.00097722
0.000953185
0.000927762
0.000900693
0.000871763
0.000840801
0.000807675
0.000772294
0.00073461
0.00069462
0.000652365
0.000607936
0.000561477
0.000513188
0.000463334
0.000412248
0.00036034
0.000308107
0.000256145
0.000205165
0.000156019
0.000109741
6.76348e-05
3.14846e-05
6.43444e-06
2.62542e-07
3.15227e-09
3.24429e-11
3.18548e-13
2.99308e-15
2.6957e-17
2.39718e-19
1.07738e-20
1e-20
1e-20
1e-20
1e-20
1e-20
1e-20
1e-20
1e-20
1e-20
1e-20
1e-20
1e-20
1e-20
1e-20
1e-20
1e-20
1e-20
1e-20
1e-20
1e-20
1e-20
1e-20
1e-20
1e-20
1e-20
1e-20
1e-20
1e-20
1e-20
1e-20
1e-20
1e-20
1e-20
1e-20
1e-20
1e-20
1e-20
1e-20
1e-20
1e-20
1e-20
1e-20
1e-20
1e-20
1e-20
1e-20
1e-20
1e-20
1e-20
1e-20
1e-20
1e-20
1e-20
1e-20
1e-20
1e-20
1e-20
1e-20
1e-20
1e-20
1e-20
1e-20
1e-20
1e-20
1e-20
1e-20
1e-20
1e-20
1e-20
1e-20
1e-20
1e-20
1e-20
1e-20
1e-20
1e-20
1e-20
1e-20
1e-20
1e-20
1e-20
)
;

boundaryField
{
    inandouthalf11
    {
        type            cyclic;
    }
    inandouthalf12
    {
        type            cyclic;
    }
    inandouthalf21
    {
        type            cyclic;
    }
    inandouthalf22
    {
        type            cyclic;
    }
    inandouthalf31
    {
        type            cyclic;
    }
    inandouthalf32
    {
        type            cyclic;
    }
    inandouthalf41
    {
        type            cyclic;
    }
    inandouthalf42
    {
        type            cyclic;
    }
    top
    {
        type            symmetryPlane;
    }
    walls
    {
        type            zeroGradient;
    }
    frontAndBackPlanes
    {
        type            empty;
    }
}


// ************************************************************************* //
