/*--------------------------------*- C++ -*----------------------------------*\
| =========                 |                                                 |
| \\      /  F ield         | OpenFOAM: The Open Source CFD Toolbox           |
|  \\    /   O peration     | Version:  2.4.x                                 |
|   \\  /    A nd           | Web:      www.OpenFOAM.org                      |
|    \\/     M anipulation  |                                                 |
\*---------------------------------------------------------------------------*/
FoamFile
{
    version     2.0;
    format      ascii;
    class       surfaceScalarField;
    location    "9.8";
    object      phia;
}
// * * * * * * * * * * * * * * * * * * * * * * * * * * * * * * * * * * * * * //

dimensions      [0 3 -1 0 0 0 0];

internalField   nonuniform List<scalar> 
359
(
-3.82009e-14
-9.51397e-14
-1.46039e-13
-1.93238e-13
-2.40607e-13
-2.88186e-13
-3.35442e-13
-3.82409e-13
-4.29347e-13
-4.76523e-13
-5.24124e-13
-5.72265e-13
-6.21044e-13
-6.70536e-13
-7.20816e-13
-7.7195e-13
-8.23996e-13
-8.76993e-13
-9.30972e-13
-9.85969e-13
-1.04199e-12
-1.09906e-12
-1.1572e-12
-1.21641e-12
-1.27669e-12
-1.33805e-12
-1.40047e-12
-1.46397e-12
-1.52853e-12
-1.59414e-12
-1.66078e-12
-1.72844e-12
-1.79709e-12
-1.86674e-12
-1.93734e-12
-2.00888e-12
-2.08132e-12
-2.15464e-12
-2.22882e-12
-2.3038e-12
-2.37958e-12
-2.45611e-12
-2.53334e-12
-2.61127e-12
-2.68983e-12
-2.769e-12
-2.84873e-12
-2.92894e-12
-3.00963e-12
-3.09078e-12
-3.17229e-12
-3.25415e-12
-3.33628e-12
-3.41868e-12
-3.50124e-12
-3.58398e-12
-3.6668e-12
-3.74968e-12
-3.83254e-12
-3.91531e-12
-3.99801e-12
-4.08054e-12
-4.1629e-12
-4.24501e-12
-4.32683e-12
-4.4083e-12
-4.48938e-12
-4.57002e-12
-4.65017e-12
-4.72976e-12
-4.80879e-12
-4.88724e-12
-4.965e-12
-5.0421e-12
-5.11848e-12
-5.19414e-12
-5.26899e-12
-5.34301e-12
-5.41616e-12
-5.48842e-12
-5.55974e-12
-5.63012e-12
-5.69954e-12
-5.76798e-12
-5.83544e-12
-5.90188e-12
-5.96731e-12
-6.03168e-12
-6.09498e-12
-6.15718e-12
-6.21827e-12
-6.27825e-12
-6.33711e-12
-6.39485e-12
-6.45146e-12
-6.50696e-12
-6.56133e-12
-6.61457e-12
-6.66669e-12
-6.71768e-12
-6.76754e-12
-6.81628e-12
-6.8639e-12
-6.91042e-12
-6.95585e-12
-7.00019e-12
-7.04346e-12
-7.08566e-12
-7.12682e-12
-7.16694e-12
-7.20603e-12
-7.24409e-12
-7.28113e-12
-7.31716e-12
-7.35219e-12
-7.38623e-12
-7.41928e-12
-7.45137e-12
-7.4825e-12
-7.51268e-12
-7.5419e-12
-7.57015e-12
-7.59737e-12
-7.62346e-12
-7.64829e-12
-7.67173e-12
-7.6936e-12
-7.71378e-12
-7.73222e-12
-7.74896e-12
-7.76413e-12
-7.77803e-12
-7.79103e-12
-7.80359e-12
-7.81609e-12
-7.82854e-12
-7.84032e-12
-7.85007e-12
-7.85648e-12
-7.85942e-12
-7.86028e-12
-7.8597e-12
-7.86148e-12
-7.8657e-12
-7.86083e-12
-6.81026e-09
-1.32311e-08
-1.70429e-08
-1.92218e-08
-2.08859e-08
-2.24158e-08
-2.39447e-08
-2.54165e-08
-2.67932e-08
-2.80391e-08
-2.91249e-08
-3.00307e-08
-3.0747e-08
-3.12728e-08
-3.16143e-08
-3.1782e-08
-3.17893e-08
-3.16509e-08
-3.13818e-08
-3.09967e-08
-3.05089e-08
-2.99304e-08
-2.92723e-08
-2.8544e-08
-2.7754e-08
-2.69095e-08
-2.60169e-08
-2.5082e-08
-2.41098e-08
-2.31049e-08
-2.20713e-08
-2.10132e-08
-1.99344e-08
-1.88385e-08
-1.77293e-08
-1.66108e-08
-1.5487e-08
-1.43626e-08
-1.32424e-08
-1.21323e-08
-1.10389e-08
-9.97008e-09
-8.93591e-09
-7.94877e-09
-7.0234e-09
-6.17449e-09
-5.41072e-09
-4.72581e-09
-4.09106e-09
-3.45603e-09
-2.7736e-09
-2.0238e-09
-1.20403e-09
-3.16271e-10
6.35302e-10
1.64559e-09
2.73119e-09
3.88966e-09
5.11776e-09
6.41129e-09
7.76479e-09
9.17101e-09
1.06198e-08
1.20966e-08
1.35797e-08
1.50381e-08
1.6431e-08
1.77098e-08
1.88248e-08
1.97361e-08
2.04223e-08
2.08853e-08
2.11473e-08
2.12433e-08
2.12123e-08
2.10915e-08
2.09124e-08
2.07e-08
2.04728e-08
2.02443e-08
2.00224e-08
1.98133e-08
1.96149e-08
1.94351e-08
1.92525e-08
1.90963e-08
1.88994e-08
1.87533e-08
1.84652e-08
1.83599e-08
1.74437e-08
1.089e-08
1.07959e-08
1.02496e-08
9.58859e-09
9.148e-09
8.78283e-09
8.5406e-09
8.41079e-09
8.3642e-09
8.64399e-09
8.47804e-09
9.97288e-09
8.58725e-09
1.29072e-08
-3.78101e-09
-1.17189e-07
-1.58179e-07
-1.58161e-07
-1.58167e-07
-1.58172e-07
-1.58176e-07
-1.58179e-07
-1.58181e-07
-1.58181e-07
-1.58181e-07
-1.58179e-07
-1.58175e-07
-1.58169e-07
-1.58161e-07
-1.5815e-07
-1.58137e-07
-1.5812e-07
-1.58099e-07
-1.58064e-07
-1.58014e-07
-1.58002e-07
-1.58002e-07
-1.58002e-07
-1.58002e-07
-1.58002e-07
-1.58002e-07
-1.58002e-07
-1.58002e-07
-1.58002e-07
-1.58002e-07
-1.58002e-07
-1.58002e-07
-1.58002e-07
-1.58002e-07
-1.58002e-07
-1.58002e-07
-1.58002e-07
-1.58002e-07
-1.58002e-07
-1.58002e-07
-1.58002e-07
-1.58002e-07
-1.58002e-07
-1.58002e-07
-1.58002e-07
-1.58002e-07
-1.58002e-07
-1.58002e-07
-1.58002e-07
-1.58002e-07
-1.58002e-07
-1.58002e-07
-1.58002e-07
-1.58002e-07
-1.58002e-07
-1.58002e-07
-1.58002e-07
-1.58002e-07
-1.58002e-07
-1.58002e-07
-1.58002e-07
-1.58002e-07
-1.58002e-07
-1.58002e-07
-1.58002e-07
-1.58002e-07
-1.58002e-07
-1.58002e-07
-1.58002e-07
-1.58002e-07
-1.58002e-07
-1.58002e-07
-1.58002e-07
-1.58002e-07
-1.58002e-07
-1.58002e-07
-1.58002e-07
-1.58002e-07
-1.58002e-07
-1.58002e-07
-1.58002e-07
-1.58002e-07
-1.58002e-07
-1.58002e-07
-1.58002e-07
-1.58002e-07
-1.58002e-07
-1.58002e-07
-1.58002e-07
-1.58002e-07
-1.58002e-07
-1.58002e-07
-1.58002e-07
-1.58002e-07
-1.58002e-07
-1.58002e-07
-1.58002e-07
-1.58002e-07
-1.58002e-07
-1.58002e-07
-1.58002e-07
-1.58002e-07
-1.58002e-07
-1.58002e-07
-1.58002e-07
-1.57984e-07
-1.57276e-07
-1.32299e-07
)
;

boundaryField
{
    inandouthalf11
    {
        type            cyclic;
        value           nonuniform List<scalar> 
100
(
-4.03598e-39
-1.00142e-15
-2.07784e-15
-3.03992e-15
-4.02315e-15
-5.05689e-15
-6.12042e-15
-7.20644e-15
-8.31981e-15
-9.46706e-15
-1.06536e-14
-1.18836e-14
-1.31603e-14
-1.44866e-14
-1.58655e-14
-1.72997e-14
-1.87921e-14
-2.03452e-14
-2.19613e-14
-2.36426e-14
-2.5391e-14
-2.72084e-14
-2.90969e-14
-3.10582e-14
-3.3094e-14
-3.52057e-14
-3.73948e-14
-3.96627e-14
-4.20109e-14
-4.44404e-14
-4.69522e-14
-4.95474e-14
-5.22269e-14
-5.49914e-14
-5.78419e-14
-6.07786e-14
-6.3802e-14
-6.69126e-14
-7.01108e-14
-7.33966e-14
-7.677e-14
-8.02312e-14
-8.37796e-14
-8.74149e-14
-9.11372e-14
-9.49459e-14
-9.88403e-14
-1.02819e-13
-1.06881e-13
-1.11026e-13
-1.15253e-13
-1.1956e-13
-1.23946e-13
-1.28409e-13
-1.32948e-13
-1.37562e-13
-1.42248e-13
-1.47004e-13
-1.51828e-13
-1.56716e-13
-1.61668e-13
-1.66681e-13
-1.71753e-13
-1.76882e-13
-1.82065e-13
-1.87298e-13
-1.92579e-13
-1.97906e-13
-2.03274e-13
-2.0868e-13
-2.14121e-13
-2.19597e-13
-2.25103e-13
-2.30636e-13
-2.36194e-13
-2.41776e-13
-2.47377e-13
-2.52993e-13
-2.58621e-13
-2.64258e-13
-2.69901e-13
-2.75547e-13
-2.81194e-13
-2.86841e-13
-2.92486e-13
-2.98126e-13
-3.03759e-13
-3.09382e-13
-3.14992e-13
-3.20587e-13
-3.26164e-13
-3.3172e-13
-3.37254e-13
-3.42765e-13
-3.48251e-13
-3.53713e-13
-3.59147e-13
-3.64554e-13
-3.69931e-13
-3.75279e-13
)
;
    }
    inandouthalf12
    {
        type            cyclic;
        value           nonuniform List<scalar> 
100
(
4.03598e-39
1.00142e-15
2.07784e-15
3.03992e-15
4.02315e-15
5.05689e-15
6.12042e-15
7.20644e-15
8.31981e-15
9.46706e-15
1.06536e-14
1.18836e-14
1.31603e-14
1.44866e-14
1.58655e-14
1.72997e-14
1.87921e-14
2.03452e-14
2.19613e-14
2.36426e-14
2.5391e-14
2.72084e-14
2.90969e-14
3.10582e-14
3.3094e-14
3.52057e-14
3.73948e-14
3.96627e-14
4.20109e-14
4.44404e-14
4.69522e-14
4.95474e-14
5.22269e-14
5.49914e-14
5.78419e-14
6.07786e-14
6.3802e-14
6.69126e-14
7.01108e-14
7.33966e-14
7.677e-14
8.02312e-14
8.37796e-14
8.74149e-14
9.11372e-14
9.49459e-14
9.88403e-14
1.02819e-13
1.06881e-13
1.11026e-13
1.15253e-13
1.1956e-13
1.23946e-13
1.28409e-13
1.32948e-13
1.37562e-13
1.42248e-13
1.47004e-13
1.51828e-13
1.56716e-13
1.61668e-13
1.66681e-13
1.71753e-13
1.76882e-13
1.82065e-13
1.87298e-13
1.92579e-13
1.97906e-13
2.03274e-13
2.0868e-13
2.14121e-13
2.19597e-13
2.25103e-13
2.30636e-13
2.36194e-13
2.41776e-13
2.47377e-13
2.52993e-13
2.58621e-13
2.64258e-13
2.69901e-13
2.75547e-13
2.81194e-13
2.86841e-13
2.92486e-13
2.98126e-13
3.03759e-13
3.09382e-13
3.14992e-13
3.20587e-13
3.26164e-13
3.3172e-13
3.37254e-13
3.42765e-13
3.48251e-13
3.53713e-13
3.59147e-13
3.64554e-13
3.69931e-13
3.75279e-13
)
;
    }
    inandouthalf21
    {
        type            cyclic;
        value           nonuniform List<scalar> 
100
(
-3.80594e-13
-3.85878e-13
-3.9113e-13
-3.9635e-13
-4.01537e-13
-4.06693e-13
-4.11818e-13
-4.16914e-13
-4.2198e-13
-4.27019e-13
-4.3203e-13
-4.37016e-13
-4.41976e-13
-4.46913e-13
-4.51827e-13
-4.56722e-13
-4.61598e-13
-4.6646e-13
-4.71311e-13
-4.76155e-13
-4.80994e-13
-4.85829e-13
-4.90658e-13
-4.95468e-13
-5.00243e-13
-5.04954e-13
-5.09568e-13
-5.14049e-13
-5.18364e-13
-5.22498e-13
-5.26459e-13
-5.3029e-13
-5.34077e-13
-5.37956e-13
-5.42093e-13
-5.46638e-13
-5.51581e-13
-5.56559e-13
-5.6077e-13
-5.63388e-13
-5.64383e-13
-5.64628e-13
-5.64755e-13
-5.65098e-13
-5.66319e-13
-5.78722e-13
-7.51533e-08
-1.65976e-07
-2.40037e-07
-3.01115e-07
-3.52845e-07
-3.97429e-07
-4.36323e-07
-4.70622e-07
-5.01187e-07
-5.28692e-07
-5.53668e-07
-5.76534e-07
-5.97624e-07
-6.17205e-07
-6.3549e-07
-6.52656e-07
-6.68844e-07
-6.84174e-07
-6.98743e-07
-7.12635e-07
-7.25919e-07
-7.38655e-07
-7.50894e-07
-7.62679e-07
-7.7405e-07
-7.85038e-07
-7.95673e-07
-8.0598e-07
-8.15982e-07
-8.25696e-07
-8.35142e-07
-8.44333e-07
-8.53283e-07
-8.62004e-07
-8.70506e-07
-8.78797e-07
-8.86886e-07
-8.94778e-07
-9.0248e-07
-9.09997e-07
-9.17331e-07
-9.24487e-07
-9.31466e-07
-9.38272e-07
-9.44906e-07
-9.51369e-07
-9.57663e-07
-9.63789e-07
-9.69749e-07
-9.75543e-07
-9.81173e-07
-9.86639e-07
-9.9194e-07
-9.97075e-07
)
;
    }
    inandouthalf22
    {
        type            cyclic;
        value           nonuniform List<scalar> 
100
(
3.80594e-13
3.85878e-13
3.9113e-13
3.9635e-13
4.01537e-13
4.06693e-13
4.11818e-13
4.16914e-13
4.2198e-13
4.27019e-13
4.3203e-13
4.37016e-13
4.41976e-13
4.46913e-13
4.51827e-13
4.56722e-13
4.61598e-13
4.6646e-13
4.71311e-13
4.76155e-13
4.80994e-13
4.85829e-13
4.90658e-13
4.95468e-13
5.00243e-13
5.04954e-13
5.09568e-13
5.14049e-13
5.18364e-13
5.22498e-13
5.26459e-13
5.3029e-13
5.34077e-13
5.37956e-13
5.42093e-13
5.46638e-13
5.51581e-13
5.56559e-13
5.6077e-13
5.63388e-13
5.64383e-13
5.64628e-13
5.64755e-13
5.65098e-13
5.66319e-13
5.78722e-13
7.51533e-08
1.65976e-07
2.40037e-07
3.01115e-07
3.52845e-07
3.97429e-07
4.36323e-07
4.70622e-07
5.01187e-07
5.28692e-07
5.53668e-07
5.76534e-07
5.97624e-07
6.17205e-07
6.3549e-07
6.52656e-07
6.68844e-07
6.84174e-07
6.98743e-07
7.12635e-07
7.25919e-07
7.38655e-07
7.50894e-07
7.62679e-07
7.7405e-07
7.85038e-07
7.95673e-07
8.0598e-07
8.15982e-07
8.25696e-07
8.35142e-07
8.44333e-07
8.53283e-07
8.62004e-07
8.70506e-07
8.78797e-07
8.86886e-07
8.94778e-07
9.0248e-07
9.09997e-07
9.17331e-07
9.24487e-07
9.31466e-07
9.38272e-07
9.44906e-07
9.51369e-07
9.57663e-07
9.63789e-07
9.69749e-07
9.75543e-07
9.81173e-07
9.86639e-07
9.9194e-07
9.97075e-07
)
;
    }
    inandouthalf31
    {
        type            cyclic;
        value           nonuniform List<scalar> 
110
(
-1.00205e-06
-1.02733e-06
-1.05314e-06
-1.07949e-06
-1.10637e-06
-1.13378e-06
-1.16172e-06
-1.19018e-06
-1.21917e-06
-1.24867e-06
-1.27868e-06
-1.30919e-06
-1.34019e-06
-1.3717e-06
-1.40369e-06
-1.43618e-06
-1.46918e-06
-1.5027e-06
-1.53674e-06
-1.57133e-06
-1.60647e-06
-1.64218e-06
-1.67848e-06
-1.71537e-06
-1.75286e-06
-1.79098e-06
-1.82972e-06
-1.8691e-06
-1.90913e-06
-1.94983e-06
-1.99119e-06
-2.03324e-06
-2.07597e-06
-2.11939e-06
-2.16347e-06
-2.2082e-06
-2.25388e-06
-2.42247e-06
-2.47321e-06
-2.5223e-06
-2.57184e-06
-2.62216e-06
-2.67319e-06
-2.725e-06
-2.77759e-06
-2.831e-06
-2.88517e-06
-2.94036e-06
-2.99599e-06
-3.05323e-06
-3.10969e-06
-3.16638e-06
-3.22367e-06
-3.28395e-06
-3.34574e-06
-3.40859e-06
-3.47261e-06
-3.53782e-06
-3.60429e-06
-3.67208e-06
-3.74126e-06
-3.81189e-06
-3.88407e-06
-3.95788e-06
-4.03345e-06
-4.11087e-06
-4.19029e-06
-4.27184e-06
-4.35567e-06
-4.44194e-06
-4.53101e-06
-4.62277e-06
-4.71659e-06
-4.81232e-06
-4.91e-06
-5.00966e-06
-5.11134e-06
-5.21509e-06
-5.32094e-06
-5.42894e-06
-5.53913e-06
-5.65156e-06
-5.76628e-06
-5.88332e-06
-6.00273e-06
-6.12457e-06
-6.24888e-06
-6.37572e-06
-6.50513e-06
-6.63717e-06
-6.77188e-06
-6.90933e-06
-7.04957e-06
-7.19266e-06
-7.33865e-06
-7.48761e-06
-7.63959e-06
-7.79465e-06
-7.95286e-06
-8.11428e-06
-8.27898e-06
-8.44702e-06
-8.61848e-06
-8.79341e-06
-8.97189e-06
-9.154e-06
-9.3398e-06
-9.52937e-06
-9.72279e-06
-9.92014e-06
)
;
    }
    inandouthalf32
    {
        type            cyclic;
        value           nonuniform List<scalar> 
110
(
1.00205e-06
1.02733e-06
1.05314e-06
1.07949e-06
1.10637e-06
1.13378e-06
1.16172e-06
1.19018e-06
1.21917e-06
1.24867e-06
1.27868e-06
1.30919e-06
1.34019e-06
1.3717e-06
1.40369e-06
1.43618e-06
1.46918e-06
1.5027e-06
1.53674e-06
1.57133e-06
1.60647e-06
1.64218e-06
1.67848e-06
1.71537e-06
1.75286e-06
1.79098e-06
1.82972e-06
1.8691e-06
1.90913e-06
1.94983e-06
1.99119e-06
2.03324e-06
2.07597e-06
2.11939e-06
2.16347e-06
2.2082e-06
2.25388e-06
2.42247e-06
2.47321e-06
2.5223e-06
2.57184e-06
2.62216e-06
2.67319e-06
2.725e-06
2.77759e-06
2.831e-06
2.88517e-06
2.94036e-06
2.99599e-06
3.05323e-06
3.10969e-06
3.16638e-06
3.22367e-06
3.28395e-06
3.34574e-06
3.40859e-06
3.47261e-06
3.53782e-06
3.60429e-06
3.67208e-06
3.74126e-06
3.81189e-06
3.88407e-06
3.95788e-06
4.03345e-06
4.11087e-06
4.19029e-06
4.27184e-06
4.35567e-06
4.44194e-06
4.53101e-06
4.62277e-06
4.71659e-06
4.81232e-06
4.91e-06
5.00966e-06
5.11134e-06
5.21509e-06
5.32094e-06
5.42894e-06
5.53913e-06
5.65156e-06
5.76628e-06
5.88332e-06
6.00273e-06
6.12457e-06
6.24888e-06
6.37572e-06
6.50513e-06
6.63717e-06
6.77188e-06
6.90933e-06
7.04957e-06
7.19266e-06
7.33865e-06
7.48761e-06
7.63959e-06
7.79465e-06
7.95286e-06
8.11428e-06
8.27898e-06
8.44702e-06
8.61848e-06
8.79341e-06
8.97189e-06
9.154e-06
9.3398e-06
9.52937e-06
9.72279e-06
9.92014e-06
)
;
    }
    inandouthalf41
    {
        type            cyclic;
        value           nonuniform List<scalar> 
50
(
-8.87953e-06
-8.87953e-06
-8.87953e-06
-8.87953e-06
-8.87953e-06
-8.87953e-06
-8.87953e-06
-8.87953e-06
-8.87953e-06
-8.87953e-06
-8.87953e-06
-8.87953e-06
-8.87953e-06
-8.87953e-06
-8.87953e-06
-8.87953e-06
-8.87953e-06
-8.87953e-06
-8.87953e-06
-8.87953e-06
-8.87953e-06
-8.87953e-06
-8.87953e-06
-8.87953e-06
-8.87953e-06
-8.87953e-06
-8.87953e-06
-8.87953e-06
-8.87953e-06
-8.87953e-06
-8.87953e-06
-8.87953e-06
-8.87953e-06
-8.87953e-06
-8.87953e-06
-8.87953e-06
-8.87953e-06
-8.87953e-06
-8.87953e-06
-8.87953e-06
-8.87953e-06
-8.87953e-06
-8.87953e-06
-8.87953e-06
-8.87953e-06
-8.87953e-06
-8.87953e-06
-8.87954e-06
-8.87977e-06
-8.88498e-06
)
;
    }
    inandouthalf42
    {
        type            cyclic;
        value           nonuniform List<scalar> 
50
(
8.87953e-06
8.87953e-06
8.87953e-06
8.87953e-06
8.87953e-06
8.87953e-06
8.87953e-06
8.87953e-06
8.87953e-06
8.87953e-06
8.87953e-06
8.87953e-06
8.87953e-06
8.87953e-06
8.87953e-06
8.87953e-06
8.87953e-06
8.87953e-06
8.87953e-06
8.87953e-06
8.87953e-06
8.87953e-06
8.87953e-06
8.87953e-06
8.87953e-06
8.87953e-06
8.87953e-06
8.87953e-06
8.87953e-06
8.87953e-06
8.87953e-06
8.87953e-06
8.87953e-06
8.87953e-06
8.87953e-06
8.87953e-06
8.87953e-06
8.87953e-06
8.87953e-06
8.87953e-06
8.87953e-06
8.87953e-06
8.87953e-06
8.87953e-06
8.87953e-06
8.87953e-06
8.87953e-06
8.87954e-06
8.87977e-06
8.88498e-06
)
;
    }
    top
    {
        type            symmetryPlane;
        value           uniform 0;
    }
    walls
    {
        type            fixedValue;
        value           uniform 0;
    }
    frontAndBackPlanes
    {
        type            empty;
        value           nonuniform 0();
    }
}


// ************************************************************************* //
