/*--------------------------------*- C++ -*----------------------------------*\
| =========                 |                                                 |
| \\      /  F ield         | OpenFOAM: The Open Source CFD Toolbox           |
|  \\    /   O peration     | Version:  2.4.x                                 |
|   \\  /    A nd           | Web:      www.OpenFOAM.org                      |
|    \\/     M anipulation  |                                                 |
\*---------------------------------------------------------------------------*/
FoamFile
{
    version     2.0;
    format      ascii;
    class       surfaceScalarField;
    location    "9.8";
    object      phib;
}
// * * * * * * * * * * * * * * * * * * * * * * * * * * * * * * * * * * * * * //

dimensions      [0 3 -1 0 0 0 0];

internalField   nonuniform List<scalar> 
359
(
6.00812e-14
1.49933e-13
2.30148e-13
3.04445e-13
3.79031e-13
4.53954e-13
5.28349e-13
6.0227e-13
6.7613e-13
7.50351e-13
8.25225e-13
9.00936e-13
9.77634e-13
1.05544e-12
1.13447e-12
1.21483e-12
1.2966e-12
1.37985e-12
1.46463e-12
1.55099e-12
1.63894e-12
1.72852e-12
1.81976e-12
1.91266e-12
2.00722e-12
2.10345e-12
2.20134e-12
2.30089e-12
2.40207e-12
2.50488e-12
2.60928e-12
2.71527e-12
2.82278e-12
2.93182e-12
3.04233e-12
3.15427e-12
3.2676e-12
3.38228e-12
3.49828e-12
3.61549e-12
3.73393e-12
3.85351e-12
3.97414e-12
4.09583e-12
4.21847e-12
4.34202e-12
4.46643e-12
4.59154e-12
4.71735e-12
4.84384e-12
4.97085e-12
5.09835e-12
5.22625e-12
5.3545e-12
5.48297e-12
5.61167e-12
5.74043e-12
5.86923e-12
5.99796e-12
6.12649e-12
6.25486e-12
6.3829e-12
6.51061e-12
6.63788e-12
6.76464e-12
6.89078e-12
7.01626e-12
7.14099e-12
7.26489e-12
7.38785e-12
7.50986e-12
7.6309e-12
7.75081e-12
7.86961e-12
7.98721e-12
8.10361e-12
8.2187e-12
8.3324e-12
8.44467e-12
8.55548e-12
8.66475e-12
8.77247e-12
8.87861e-12
8.98315e-12
9.08607e-12
9.18734e-12
9.28693e-12
9.38479e-12
9.48089e-12
9.5752e-12
9.66769e-12
9.75835e-12
9.84717e-12
9.93415e-12
1.00193e-11
1.01026e-11
1.0184e-11
1.02636e-11
1.03413e-11
1.04172e-11
1.04912e-11
1.05633e-11
1.06336e-11
1.07021e-11
1.07687e-11
1.08335e-11
1.08965e-11
1.09577e-11
1.10172e-11
1.10749e-11
1.11309e-11
1.11851e-11
1.12376e-11
1.12883e-11
1.13374e-11
1.13847e-11
1.14303e-11
1.14742e-11
1.15164e-11
1.1557e-11
1.15959e-11
1.1633e-11
1.16683e-11
1.17016e-11
1.17327e-11
1.17614e-11
1.17874e-11
1.18105e-11
1.18305e-11
1.18476e-11
1.18619e-11
1.18738e-11
1.18839e-11
1.18928e-11
1.19008e-11
1.19082e-11
1.19139e-11
1.19154e-11
1.19101e-11
1.1898e-11
1.18809e-11
1.17624e-11
1.16342e-11
1.16007e-11
1.00574e-11
5.26849e-09
5.92025e-09
5.82744e-09
5.5194e-09
5.13544e-09
4.72145e-09
4.3137e-09
3.9246e-09
3.55763e-09
3.21436e-09
2.89563e-09
2.60164e-09
2.33211e-09
2.08632e-09
1.86319e-09
1.66141e-09
1.4795e-09
1.31593e-09
1.16914e-09
1.03762e-09
9.19919e-10
8.14685e-10
7.20659e-10
6.36691e-10
5.61737e-10
4.94855e-10
4.35196e-10
3.82003e-10
3.34599e-10
2.92381e-10
2.5481e-10
2.21408e-10
1.91748e-10
1.65449e-10
1.4217e-10
1.21608e-10
1.03491e-10
8.75757e-11
7.36438e-11
6.14997e-11
5.09679e-11
4.1892e-11
3.41325e-11
2.75662e-11
2.20816e-11
1.75704e-11
1.39133e-11
1.09664e-11
8.56125e-12
6.52285e-12
4.72482e-12
3.11465e-12
1.67564e-12
3.98326e-13
-7.24634e-13
-1.70062e-12
-2.5531e-12
-3.28292e-12
-3.89194e-12
-4.38292e-12
-4.75926e-12
-5.02464e-12
-5.18239e-12
-5.23474e-12
-5.18239e-12
-5.02517e-12
-4.76461e-12
-4.40825e-12
-3.97401e-12
-3.49111e-12
-2.99555e-12
-2.52164e-12
-2.09428e-12
-1.72584e-12
-1.4179e-12
-1.16524e-12
-9.59701e-13
-7.92732e-13
-6.56652e-13
-5.45088e-13
-4.53e-13
-3.76347e-13
-3.12371e-13
-2.58378e-13
-2.13207e-13
-1.74803e-13
-1.42867e-13
-1.15619e-13
-9.33605e-14
-7.4218e-14
-6.17407e-14
-3.57806e-14
-2.61183e-14
-1.71587e-14
-1.12551e-14
-7.44822e-15
-4.94386e-15
-3.29606e-15
-2.2038e-15
-1.46824e-15
-9.99947e-16
-6.29259e-16
-4.59678e-16
-2.32501e-16
-1.82916e-16
2.05126e-18
-1.54236e-17
-1.49134e-17
-1.44436e-17
-1.38814e-17
-1.33617e-17
-1.27671e-17
-1.22113e-17
-1.15883e-17
-1.10038e-17
-1.03794e-17
-9.80396e-18
-9.21713e-18
-8.71489e-18
-8.26833e-18
-7.9061e-18
-7.57357e-18
-7.27292e-18
-6.99843e-18
-6.74207e-18
-6.48556e-18
-6.2415e-18
-6.04414e-18
-5.85102e-18
-5.65664e-18
-5.44217e-18
-5.24365e-18
-5.02045e-18
-4.79556e-18
-4.5587e-18
-4.38731e-18
-4.20424e-18
-4.02297e-18
-3.80863e-18
-3.61625e-18
-3.38717e-18
-3.07352e-18
-2.80563e-18
-2.58173e-18
-2.32894e-18
-2.07286e-18
-1.78222e-18
-1.5185e-18
-1.23085e-18
-9.59227e-19
-7.04706e-19
-7.26335e-19
-6.75429e-19
-6.49812e-19
-4.69002e-19
-4.62985e-19
-4.46529e-19
-4.33113e-19
-4.07701e-19
-4.11633e-19
-4.05959e-19
-4.02777e-19
-3.86144e-19
-3.81342e-19
-3.64169e-19
-3.49566e-19
-3.2909e-19
-3.30164e-19
-3.26963e-19
-3.24378e-19
-3.14655e-19
-3.12181e-19
-3.02737e-19
-2.93616e-19
-2.78513e-19
-2.8295e-19
-2.79941e-19
-2.78431e-19
-2.69568e-19
-2.8107e-19
-2.84189e-19
-3.07903e-19
-3.54614e-19
-6.09361e-19
-8.68848e-19
-1.14735e-18
-1.37382e-18
-1.66246e-18
-1.87146e-18
-2.08405e-18
-2.21188e-18
-2.49437e-18
-2.67317e-18
-2.8553e-18
-2.91075e-18
-3.06547e-18
-3.09297e-18
-3.13241e-18
-3.07485e-18
-3.28312e-18
-3.39942e-18
-3.52812e-18
-3.5247e-18
-3.65702e-18
-3.61673e-18
-3.58866e-18
-3.23166e-18
-3.64514e-18
-3.56683e-18
-3.47575e-18
-2.42517e-18
-2.6569e-18
-6.62905e-19
2.40696e-18
)
;

boundaryField
{
    inandouthalf11
    {
        type            cyclic;
        value           nonuniform List<scalar> 
100
(
2.18984e-10
2.17772e-10
2.17604e-10
2.17765e-10
2.17842e-10
2.17865e-10
2.17895e-10
2.17934e-10
2.17974e-10
2.18014e-10
2.18055e-10
2.18095e-10
2.18136e-10
2.18178e-10
2.18219e-10
2.18262e-10
2.18304e-10
2.18347e-10
2.18391e-10
2.18435e-10
2.18479e-10
2.18524e-10
2.18569e-10
2.18615e-10
2.18661e-10
2.18707e-10
2.18754e-10
2.18802e-10
2.18849e-10
2.18898e-10
2.18947e-10
2.18996e-10
2.19045e-10
2.19096e-10
2.19147e-10
2.19198e-10
2.1925e-10
2.19302e-10
2.19355e-10
2.19408e-10
2.19463e-10
2.19517e-10
2.19572e-10
2.19628e-10
2.19684e-10
2.19741e-10
2.19799e-10
2.19857e-10
2.19916e-10
2.19976e-10
2.20035e-10
2.20097e-10
2.20158e-10
2.20221e-10
2.20283e-10
2.20348e-10
2.20412e-10
2.20478e-10
2.20544e-10
2.2061e-10
2.20679e-10
2.20747e-10
2.20818e-10
2.20888e-10
2.2096e-10
2.21033e-10
2.21106e-10
2.21181e-10
2.21257e-10
2.21333e-10
2.21412e-10
2.21492e-10
2.21571e-10
2.21653e-10
2.21736e-10
2.21821e-10
2.21906e-10
2.21993e-10
2.22082e-10
2.22172e-10
2.22263e-10
2.22356e-10
2.22451e-10
2.22547e-10
2.22646e-10
2.22746e-10
2.22847e-10
2.22951e-10
2.23057e-10
2.23164e-10
2.23274e-10
2.23386e-10
2.235e-10
2.23617e-10
2.23736e-10
2.23857e-10
2.23981e-10
2.24108e-10
2.24238e-10
2.2437e-10
)
;
    }
    inandouthalf12
    {
        type            cyclic;
        value           nonuniform List<scalar> 
100
(
-2.18984e-10
-2.17772e-10
-2.17604e-10
-2.17765e-10
-2.17842e-10
-2.17865e-10
-2.17895e-10
-2.17934e-10
-2.17974e-10
-2.18014e-10
-2.18055e-10
-2.18095e-10
-2.18136e-10
-2.18178e-10
-2.18219e-10
-2.18262e-10
-2.18304e-10
-2.18347e-10
-2.18391e-10
-2.18435e-10
-2.18479e-10
-2.18524e-10
-2.18569e-10
-2.18615e-10
-2.18661e-10
-2.18707e-10
-2.18754e-10
-2.18802e-10
-2.18849e-10
-2.18898e-10
-2.18947e-10
-2.18996e-10
-2.19045e-10
-2.19096e-10
-2.19147e-10
-2.19198e-10
-2.1925e-10
-2.19302e-10
-2.19355e-10
-2.19408e-10
-2.19463e-10
-2.19517e-10
-2.19572e-10
-2.19628e-10
-2.19684e-10
-2.19741e-10
-2.19799e-10
-2.19857e-10
-2.19916e-10
-2.19976e-10
-2.20035e-10
-2.20097e-10
-2.20158e-10
-2.20221e-10
-2.20283e-10
-2.20348e-10
-2.20412e-10
-2.20478e-10
-2.20544e-10
-2.2061e-10
-2.20679e-10
-2.20747e-10
-2.20818e-10
-2.20888e-10
-2.2096e-10
-2.21033e-10
-2.21106e-10
-2.21181e-10
-2.21257e-10
-2.21333e-10
-2.21412e-10
-2.21492e-10
-2.21571e-10
-2.21653e-10
-2.21736e-10
-2.21821e-10
-2.21906e-10
-2.21993e-10
-2.22082e-10
-2.22172e-10
-2.22263e-10
-2.22356e-10
-2.22451e-10
-2.22547e-10
-2.22646e-10
-2.22746e-10
-2.22847e-10
-2.22951e-10
-2.23057e-10
-2.23164e-10
-2.23274e-10
-2.23386e-10
-2.235e-10
-2.23617e-10
-2.23736e-10
-2.23857e-10
-2.23981e-10
-2.24108e-10
-2.24238e-10
-2.2437e-10
)
;
    }
    inandouthalf21
    {
        type            cyclic;
        value           nonuniform List<scalar> 
100
(
2.24506e-10
2.24644e-10
2.24786e-10
2.24931e-10
2.2508e-10
2.25232e-10
2.25389e-10
2.25549e-10
2.25713e-10
2.25882e-10
2.26055e-10
2.26233e-10
2.26415e-10
2.26603e-10
2.26796e-10
2.26995e-10
2.27199e-10
2.2741e-10
2.27627e-10
2.27851e-10
2.28082e-10
2.2832e-10
2.28567e-10
2.28822e-10
2.29086e-10
2.2936e-10
2.29645e-10
2.2994e-10
2.30249e-10
2.3057e-10
2.30905e-10
2.31256e-10
2.31622e-10
2.32009e-10
2.32421e-10
2.32857e-10
2.33317e-10
2.33807e-10
2.34353e-10
2.34981e-10
2.35665e-10
2.36447e-10
2.45232e-10
2.47276e-10
2.47832e-10
-2.6976e-10
-7.90966e-08
-1.69467e-07
-2.41717e-07
-3.01558e-07
-3.52355e-07
-3.96172e-07
-4.34422e-07
-4.68184e-07
-4.983e-07
-5.25429e-07
-5.50092e-07
-5.72696e-07
-5.93566e-07
-6.12964e-07
-6.31096e-07
-6.48134e-07
-6.64217e-07
-6.7946e-07
-6.93959e-07
-7.07794e-07
-7.21035e-07
-7.3374e-07
-7.45958e-07
-7.57734e-07
-7.69104e-07
-7.80102e-07
-7.90757e-07
-8.01093e-07
-8.11134e-07
-8.20899e-07
-8.30407e-07
-8.39672e-07
-8.4871e-07
-8.57533e-07
-8.66152e-07
-8.74578e-07
-8.82821e-07
-8.90888e-07
-8.98788e-07
-9.06527e-07
-9.14112e-07
-9.21548e-07
-9.28841e-07
-9.35995e-07
-9.43015e-07
-9.49904e-07
-9.56666e-07
-9.63304e-07
-9.69821e-07
-9.76219e-07
-9.825e-07
-9.88667e-07
-9.94722e-07
-1.00066e-06
)
;
    }
    inandouthalf22
    {
        type            cyclic;
        value           nonuniform List<scalar> 
100
(
-2.24506e-10
-2.24644e-10
-2.24786e-10
-2.24931e-10
-2.2508e-10
-2.25232e-10
-2.25389e-10
-2.25549e-10
-2.25713e-10
-2.25882e-10
-2.26055e-10
-2.26233e-10
-2.26415e-10
-2.26603e-10
-2.26796e-10
-2.26995e-10
-2.27199e-10
-2.2741e-10
-2.27627e-10
-2.27851e-10
-2.28082e-10
-2.2832e-10
-2.28567e-10
-2.28822e-10
-2.29086e-10
-2.2936e-10
-2.29645e-10
-2.2994e-10
-2.30249e-10
-2.3057e-10
-2.30905e-10
-2.31256e-10
-2.31622e-10
-2.32009e-10
-2.32421e-10
-2.32857e-10
-2.33317e-10
-2.33807e-10
-2.34353e-10
-2.34981e-10
-2.35665e-10
-2.36447e-10
-2.45232e-10
-2.47276e-10
-2.47832e-10
2.6976e-10
7.90966e-08
1.69467e-07
2.41717e-07
3.01558e-07
3.52355e-07
3.96172e-07
4.34422e-07
4.68184e-07
4.983e-07
5.25429e-07
5.50092e-07
5.72696e-07
5.93566e-07
6.12964e-07
6.31096e-07
6.48134e-07
6.64217e-07
6.7946e-07
6.93959e-07
7.07794e-07
7.21035e-07
7.3374e-07
7.45958e-07
7.57734e-07
7.69104e-07
7.80102e-07
7.90757e-07
8.01093e-07
8.11134e-07
8.20899e-07
8.30407e-07
8.39672e-07
8.4871e-07
8.57533e-07
8.66152e-07
8.74578e-07
8.82821e-07
8.90888e-07
8.98788e-07
9.06527e-07
9.14112e-07
9.21548e-07
9.28841e-07
9.35995e-07
9.43015e-07
9.49904e-07
9.56666e-07
9.63304e-07
9.69821e-07
9.76219e-07
9.825e-07
9.88667e-07
9.94722e-07
1.00066e-06
)
;
    }
    inandouthalf31
    {
        type            cyclic;
        value           nonuniform List<scalar> 
110
(
-1.0065e-06
-1.03283e-06
-1.05982e-06
-1.08748e-06
-1.11583e-06
-1.14487e-06
-1.17461e-06
-1.20507e-06
-1.23625e-06
-1.26817e-06
-1.30083e-06
-1.33422e-06
-1.36836e-06
-1.40325e-06
-1.43887e-06
-1.47523e-06
-1.51231e-06
-1.55009e-06
-1.58856e-06
-1.62769e-06
-1.66746e-06
-1.70781e-06
-1.74873e-06
-1.79016e-06
-1.83206e-06
-1.87439e-06
-1.9171e-06
-1.96017e-06
-2.00358e-06
-2.04732e-06
-2.09141e-06
-2.13585e-06
-2.18068e-06
-2.22594e-06
-2.27166e-06
-2.3179e-06
-2.3647e-06
-2.41208e-06
-2.46009e-06
-2.50875e-06
-2.55809e-06
-2.60815e-06
-2.65894e-06
-2.71049e-06
-2.76282e-06
-2.81595e-06
-2.86991e-06
-2.92472e-06
-2.98041e-06
-3.03699e-06
-3.0945e-06
-3.15297e-06
-3.21242e-06
-3.2729e-06
-3.33443e-06
-3.39707e-06
-3.46084e-06
-3.5258e-06
-3.59201e-06
-3.65953e-06
-3.72841e-06
-3.79874e-06
-3.8706e-06
-3.94408e-06
-4.01928e-06
-4.09632e-06
-4.17534e-06
-4.25646e-06
-4.33986e-06
-4.42568e-06
-4.51418e-06
-4.60552e-06
-4.69899e-06
-4.79437e-06
-4.89168e-06
-4.99097e-06
-5.09227e-06
-5.19563e-06
-5.30109e-06
-5.40869e-06
-5.51847e-06
-5.63048e-06
-5.74476e-06
-5.86137e-06
-5.98034e-06
-6.10172e-06
-6.22557e-06
-6.35193e-06
-6.48086e-06
-6.61241e-06
-6.74662e-06
-6.88356e-06
-7.02328e-06
-7.16583e-06
-7.31128e-06
-7.45968e-06
-7.61109e-06
-7.76557e-06
-7.92319e-06
-8.08401e-06
-8.2481e-06
-8.41551e-06
-8.58632e-06
-8.7606e-06
-8.93842e-06
-9.11985e-06
-9.30495e-06
-9.49382e-06
-9.68652e-06
-9.88313e-06
)
;
    }
    inandouthalf32
    {
        type            cyclic;
        value           nonuniform List<scalar> 
110
(
1.0065e-06
1.03283e-06
1.05982e-06
1.08748e-06
1.11583e-06
1.14487e-06
1.17461e-06
1.20507e-06
1.23625e-06
1.26817e-06
1.30083e-06
1.33422e-06
1.36836e-06
1.40325e-06
1.43887e-06
1.47523e-06
1.51231e-06
1.55009e-06
1.58856e-06
1.62769e-06
1.66746e-06
1.70781e-06
1.74873e-06
1.79016e-06
1.83206e-06
1.87439e-06
1.9171e-06
1.96017e-06
2.00358e-06
2.04732e-06
2.09141e-06
2.13585e-06
2.18068e-06
2.22594e-06
2.27166e-06
2.3179e-06
2.3647e-06
2.41208e-06
2.46009e-06
2.50875e-06
2.55809e-06
2.60815e-06
2.65894e-06
2.71049e-06
2.76282e-06
2.81595e-06
2.86991e-06
2.92472e-06
2.98041e-06
3.03699e-06
3.0945e-06
3.15297e-06
3.21242e-06
3.2729e-06
3.33443e-06
3.39707e-06
3.46084e-06
3.5258e-06
3.59201e-06
3.65953e-06
3.72841e-06
3.79874e-06
3.8706e-06
3.94408e-06
4.01928e-06
4.09632e-06
4.17534e-06
4.25646e-06
4.33986e-06
4.42568e-06
4.51418e-06
4.60552e-06
4.69899e-06
4.79437e-06
4.89168e-06
4.99097e-06
5.09227e-06
5.19563e-06
5.30109e-06
5.40869e-06
5.51847e-06
5.63048e-06
5.74476e-06
5.86137e-06
5.98034e-06
6.10172e-06
6.22557e-06
6.35193e-06
6.48086e-06
6.61241e-06
6.74662e-06
6.88356e-06
7.02328e-06
7.16583e-06
7.31128e-06
7.45968e-06
7.61109e-06
7.76557e-06
7.92319e-06
8.08401e-06
8.2481e-06
8.41551e-06
8.58632e-06
8.7606e-06
8.93842e-06
9.11985e-06
9.30495e-06
9.49382e-06
9.68652e-06
9.88313e-06
)
;
    }
    inandouthalf41
    {
        type            cyclic;
        value           nonuniform List<scalar> 
50
(
-8.84641e-06
-8.84641e-06
-8.84641e-06
-8.84641e-06
-8.84641e-06
-8.84641e-06
-8.84641e-06
-8.84641e-06
-8.84641e-06
-8.84641e-06
-8.84641e-06
-8.84641e-06
-8.84641e-06
-8.84641e-06
-8.84641e-06
-8.84641e-06
-8.84641e-06
-8.84641e-06
-8.84641e-06
-8.84641e-06
-8.84641e-06
-8.84641e-06
-8.84641e-06
-8.84641e-06
-8.84641e-06
-8.84641e-06
-8.84641e-06
-8.84641e-06
-8.84641e-06
-8.84641e-06
-8.84641e-06
-8.84641e-06
-8.84641e-06
-8.84641e-06
-8.84641e-06
-8.84641e-06
-8.84641e-06
-8.84641e-06
-8.84641e-06
-8.84641e-06
-8.84641e-06
-8.84641e-06
-8.84641e-06
-8.84641e-06
-8.84641e-06
-8.84641e-06
-8.84641e-06
-8.84641e-06
-8.84641e-06
-8.84641e-06
)
;
    }
    inandouthalf42
    {
        type            cyclic;
        value           nonuniform List<scalar> 
50
(
8.84641e-06
8.84641e-06
8.84641e-06
8.84641e-06
8.84641e-06
8.84641e-06
8.84641e-06
8.84641e-06
8.84641e-06
8.84641e-06
8.84641e-06
8.84641e-06
8.84641e-06
8.84641e-06
8.84641e-06
8.84641e-06
8.84641e-06
8.84641e-06
8.84641e-06
8.84641e-06
8.84641e-06
8.84641e-06
8.84641e-06
8.84641e-06
8.84641e-06
8.84641e-06
8.84641e-06
8.84641e-06
8.84641e-06
8.84641e-06
8.84641e-06
8.84641e-06
8.84641e-06
8.84641e-06
8.84641e-06
8.84641e-06
8.84641e-06
8.84641e-06
8.84641e-06
8.84641e-06
8.84641e-06
8.84641e-06
8.84641e-06
8.84641e-06
8.84641e-06
8.84641e-06
8.84641e-06
8.84641e-06
8.84641e-06
8.84641e-06
)
;
    }
    top
    {
        type            symmetryPlane;
        value           uniform 0;
    }
    walls
    {
        type            fixedValue;
        value           uniform 0;
    }
    frontAndBackPlanes
    {
        type            empty;
        value           nonuniform 0();
    }
}


// ************************************************************************* //
