/*--------------------------------*- C++ -*----------------------------------*\
| =========                 |                                                 |
| \\      /  F ield         | OpenFOAM: The Open Source CFD Toolbox           |
|  \\    /   O peration     | Version:  2.4.x                                 |
|   \\  /    A nd           | Web:      www.OpenFOAM.org                      |
|    \\/     M anipulation  |                                                 |
\*---------------------------------------------------------------------------*/
FoamFile
{
    version     2.0;
    format      ascii;
    class       volVectorField;
    location    "9.8";
    object      susb;
}
// * * * * * * * * * * * * * * * * * * * * * * * * * * * * * * * * * * * * * //

dimensions      [0 1 -2 0 0 0 0];

internalField   nonuniform List<vector> 
360
(
(0 5.98865e-18 0)
(0 6.66064e-18 0)
(0 1.38744e-20 0)
(0 -9.18347e-19 0)
(-3.70002e-31 -3.88187e-19 0)
(-3.69969e-31 -2.10398e-19 0)
(-3.69926e-31 -2.6954e-19 0)
(0 -3.08519e-19 0)
(-3.69816e-31 -3.14334e-19 0)
(0 -3.17499e-19 0)
(-3.69702e-31 -3.18876e-19 0)
(0 -3.20289e-19 0)
(-7.39174e-31 -3.23156e-19 0)
(0 -3.26143e-19 0)
(0 -3.30061e-19 0)
(0 -3.3405e-19 0)
(0 -3.37256e-19 0)
(-3.69289e-31 -3.4017e-19 0)
(0 -3.44514e-19 0)
(0 -3.47613e-19 0)
(0 -3.5084e-19 0)
(-3.6904e-31 -3.55402e-19 0)
(0 -3.58755e-19 0)
(0 -3.62626e-19 0)
(0 -3.66588e-19 0)
(-3.6878e-31 -3.69809e-19 0)
(0 -3.74175e-19 0)
(0 -3.78699e-19 0)
(0 -3.81958e-19 0)
(0 -3.85745e-19 0)
(0 -3.91008e-19 0)
(0 -3.93785e-19 0)
(0 -3.98662e-19 0)
(0 -4.03636e-19 0)
(0 -4.06795e-19 0)
(7.36159e-31 -4.11291e-19 0)
(0 -4.1558e-19 0)
(0 -4.21936e-19 0)
(0 -4.24001e-19 0)
(0 -4.29149e-19 0)
(0 -4.36123e-19 0)
(0 -4.37549e-19 0)
(3.67544e-31 -4.43866e-19 0)
(0 -4.49647e-19 0)
(0 -4.53311e-19 0)
(0 -4.6022e-19 0)
(0 -4.63093e-19 0)
(0 -4.67564e-19 0)
(0 -4.76929e-19 0)
(0 -4.80187e-19 0)
(3.66878e-31 -4.84432e-19 0)
(0 -4.91636e-19 0)
(0 -4.97447e-19 0)
(0 -5.02094e-19 0)
(0 -5.09241e-19 0)
(0 -5.15107e-19 0)
(0 -5.2068e-19 0)
(0 -5.28633e-19 0)
(0 -5.3186e-19 0)
(0 -5.40756e-19 0)
(0 -5.47755e-19 0)
(0 -5.53631e-19 0)
(0 -5.61871e-19 0)
(0 -5.68045e-19 0)
(0 -5.75131e-19 0)
(0 -5.82828e-19 0)
(0 -5.91662e-19 0)
(0 -5.98924e-19 0)
(0 -6.04699e-19 0)
(0 -6.14354e-19 0)
(0 -6.25866e-19 0)
(0 -6.30908e-19 0)
(0 -6.39519e-19 0)
(0 -6.50592e-19 0)
(0 -6.60142e-19 0)
(0 -6.69196e-19 0)
(0 -6.77387e-19 0)
(0 -6.88511e-19 0)
(0 -6.99458e-19 0)
(0 -7.09237e-19 0)
(0 -7.19926e-19 0)
(0 -7.32057e-19 0)
(0 -7.43579e-19 0)
(0 -7.55487e-19 0)
(0 -7.67795e-19 0)
(0 -7.80572e-19 0)
(0 -7.93518e-19 0)
(0 -8.06459e-19 0)
(0 -8.20365e-19 0)
(0 -8.34754e-19 0)
(0 -8.49364e-19 0)
(0 -8.64759e-19 0)
(0 -8.8083e-19 0)
(0 -8.97228e-19 0)
(0 -9.14164e-19 0)
(0 -9.31664e-19 0)
(0 -9.49694e-19 0)
(0 -9.68326e-19 0)
(0 -9.87686e-19 0)
(0 -1.00779e-18 0)
(0 -1.02867e-18 0)
(0 -1.0504e-18 0)
(0 -1.07298e-18 0)
(0 -1.09641e-18 0)
(0 -1.12074e-18 0)
(0 -1.14601e-18 0)
(0 -1.17227e-18 0)
(0 -1.19958e-18 0)
(0 -1.22799e-18 0)
(0 -1.25756e-18 0)
(0 -1.28835e-18 0)
(0 -1.32043e-18 0)
(0 -1.35388e-18 0)
(0 -1.38877e-18 0)
(0 -1.42523e-18 0)
(0 -1.46338e-18 0)
(0 -1.50335e-18 0)
(0 -1.54532e-18 0)
(0 -1.58948e-18 0)
(0 -1.63603e-18 0)
(0 -1.68517e-18 0)
(0 -1.73707e-18 0)
(0 -1.79188e-18 0)
(0 -1.84976e-18 0)
(0 -1.91107e-18 0)
(0 -1.97647e-18 0)
(0 -5.16126e-18 0)
(0 -2.27584e-17 0)
(0 -1.02072e-16 0)
(0 -4.40471e-16 0)
(0 -1.81913e-15 0)
(0 -7.21081e-15 0)
(0 -2.77521e-14 0)
(0 -1.05648e-13 0)
(0 -4.05539e-13 0)
(0 -1.5998e-12 0)
(0 -6.66066e-12 0)
(0 -3.05656e-11 0)
(0 -1.62523e-10 0)
(0 -1.01278e-09 0)
(0 -7.83121e-09 0)
(0 -4.46965e-07 0)
(0 -5.87567e-06 0)
(0 -2.65691e-05 0)
(0 -0.0205229 0)
(0 -0.959854 0)
(0 -2.54493 0)
(0 -1.59475 0)
(0 -1.10304 0)
(0 -0.97663 0)
(0 -0.919366 0)
(0 -0.912365 0)
(0 -0.872203 0)
(0 -0.820614 0)
(0 -0.763745 0)
(0 -0.705201 0)
(0 -0.647654 0)
(0 -0.592822 0)
(0 -0.541642 0)
(0 -0.494571 0)
(0 -0.451593 0)
(0 -0.412561 0)
(0 -0.377231 0)
(0 -0.345287 0)
(0 -0.316382 0)
(0 -0.290198 0)
(0 -0.266451 0)
(0 -0.244873 0)
(0 -0.225234 0)
(0 -0.207323 0)
(0 -0.19096 0)
(0 -0.175981 0)
(0 -0.162252 0)
(0 -0.149645 0)
(0 -0.138049 0)
(0 -0.127369 0)
(0 -0.117523 0)
(0 -0.108432 0)
(0 -0.100028 0)
(0 -0.0922519 0)
(0 -0.0850507 0)
(0 -0.0783764 0)
(0 -0.0721859 0)
(0 -0.066441 0)
(0 -0.0611073 0)
(0 -0.0561546 0)
(0 -0.0515563 0)
(0 -0.0472894 0)
(0 -0.043331 0)
(0 -0.0396502 0)
(0 -0.0361999 0)
(0 -0.0329152 0)
(0 -0.0297334 0)
(0 -0.0266415 0)
(0 -0.0237629 0)
(0 -0.0213439 0)
(0 -0.0193673 0)
(0 -0.0176571 0)
(0 -0.0161317 0)
(0 -0.0147582 0)
(0 -0.0135176 0)
(0 -0.0123838 0)
(-6.46702e-18 -0.0113355 0)
(0 -0.0103668 0)
(0 -0.00947173 0)
(6.33071e-18 -0.00864585 0)
(0 -0.00788628 0)
(-3.10741e-18 -0.00719224 0)
(0 -0.00656454 0)
(3.03837e-18 -0.00600329 0)
(0 -0.00550376 0)
(0 -0.00505184 0)
(0 -0.00462262 0)
(1.43149e-18 -0.00418592 0)
(0 -0.00371893 0)
(0 -0.00321871 0)
(0 -0.00270519 0)
(0 -0.00221142 0)
(0 -0.00176845 0)
(-3.1296e-19 -0.00139438 0)
(0 -0.00109289 0)
(-2.96159e-19 -0.000857389 0)
(0 -0.000676758 0)
(-1.40019e-19 -0.0005392 0)
(0 -0.000434472 0)
(0 -0.000354048 0)
(0 -0.000292307 0)
(0 -0.000242577 0)
(6.28938e-20 -0.000204826 0)
(6.21989e-20 -0.000170947 0)
(0 -0.000146767 0)
(0 -0.000121294 0)
(0 -0.000105797 0)
(0 -8.40716e-05 0)
(0 -7.67281e-05 0)
(0 -3.7998e-05 0)
(0 -1.91363e-05 0)
(0 -3.92677e-05 0)
(0 -3.50518e-05 0)
(0 -2.3061e-05 0)
(0 -1.64548e-05 0)
(0 -1.13105e-05 0)
(0 -7.83177e-06 0)
(-1.09484e-21 -5.37442e-06 0)
(0 -3.66688e-06 0)
(0 -2.46916e-06 0)
(0 -1.67313e-06 0)
(-2.45073e-22 -1.07929e-06 0)
(0 -7.42382e-07 0)
(0 -4.43892e-07 0)
(-3.01039e-23 -3.1217e-07 0)
(0 -1.80379e-07 0)
(0 -7.70358e-37 0)
(0 -5.76529e-51 0)
(0 -1.94585e-54 0)
(0 -1.07967e-54 0)
(0 -5.3297e-55 0)
(0 -3.06275e-55 0)
(0 -1.39178e-55 0)
(0 -6.31701e-56 0)
(0 -3.20852e-56 0)
(0 -1.50175e-56 0)
(0 -6.63786e-57 0)
(0 -2.97546e-57 0)
(0 -1.28811e-57 0)
(0 -5.34806e-58 0)
(4.85096e-74 -2.10489e-58 0)
(0 -7.69923e-59 0)
(0 -2.51064e-59 0)
(0 -6.4972e-60 0)
(0 -7.71915e-61 0)
(0 -1.66342e-62 0)
(0 -8.7372e-65 0)
(0 -3.76126e-67 0)
(0 -1.51224e-69 0)
(0 -5.69531e-72 0)
(0 -2.00618e-74 0)
(0 -5.23997e-77 0)
(0 -1.25039e-79 0)
(0 -3.90171e-80 0)
(0 -1.37772e-80 0)
(0 -4.73225e-81 0)
(0 -1.57935e-81 0)
(0 -5.11511e-82 0)
(0 -1.60554e-82 0)
(0 -4.87699e-83 0)
(2.05816e-99 -1.43145e-83 0)
(0 -4.0529e-84 0)
(0 -1.1049e-84 0)
(0 -2.89457e-85 0)
(0 -7.27099e-86 0)
(0 -1.74704e-86 0)
(0 -4.00452e-87 0)
(0 -8.73059e-88 0)
(0 -1.8044e-88 0)
(0 -3.52195e-89 0)
(0 -6.46452e-90 0)
(0 -1.11036e-90 0)
(0 -1.77456e-91 0)
(0 -2.62138e-92 0)
(0 -3.55089e-93 0)
(0 -4.36877e-94 0)
(0 -4.82471e-95 0)
(0 -4.71194e-96 0)
(0 -3.99122e-97 0)
(0 -2.85574e-98 0)
(0 -1.66163e-99 0)
(0 -7.40864e-101 0)
(0 -2.27539e-102 0)
(0 -3.74915e-104 0)
(0 -6.27981e-107 0)
(0 -7.44877e-113 0)
(0 -5.11254e-115 0)
(0 -1.73751e-117 0)
(0 -6.77469e-128 0)
(0 -1.34429e-138 0)
(0 -1.9904e-149 0)
(0 -2.14286e-160 0)
(0 -2.00663e-171 0)
(0 -1.45117e-182 0)
(0 -9.00812e-194 0)
(0 -2.40099e-204 0)
(0 -1.07551e-214 0)
(0 -6.71452e-223 0)
(0 -3.1222e-233 0)
(0 -2.30925e-241 0)
(0 -1.26762e-251 0)
(0 -7.94899e-260 0)
(0 -5.34384e-270 0)
(0 -2.73939e-278 0)
(0 -3.41668e-288 0)
(0 -9.6679e-297 0)
(0 -2.26208e-306 0)
(0 -3.53026e-315 0)
(0 -0 0)
(0 -0 0)
(0 0 0)
(0 0 0)
(0 0 0)
(0 0 0)
(0 0 0)
(0 0 0)
(0 0 0)
(0 0 0)
(0 0 0)
(0 0 0)
(0 0 0)
(0 0 0)
(0 0 0)
(0 0 0)
(0 0 0)
(0 0 0)
(0 0 0)
(0 0 0)
(0 0 0)
(0 0 0)
(0 0 0)
(0 0 0)
(0 0 0)
(0 0 0)
)
;

boundaryField
{
    inandouthalf11
    {
        type            cyclic;
    }
    inandouthalf12
    {
        type            cyclic;
    }
    inandouthalf21
    {
        type            cyclic;
    }
    inandouthalf22
    {
        type            cyclic;
    }
    inandouthalf31
    {
        type            cyclic;
    }
    inandouthalf32
    {
        type            cyclic;
    }
    inandouthalf41
    {
        type            cyclic;
    }
    inandouthalf42
    {
        type            cyclic;
    }
    top
    {
        type            symmetryPlane;
    }
    walls
    {
        type            zeroGradient;
    }
    frontAndBackPlanes
    {
        type            empty;
    }
}


// ************************************************************************* //
