/*--------------------------------*- C++ -*----------------------------------*\
| =========                 |                                                 |
| \\      /  F ield         | OpenFOAM: The Open Source CFD Toolbox           |
|  \\    /   O peration     | Version:  2.4.x                                 |
|   \\  /    A nd           | Web:      www.OpenFOAM.org                      |
|    \\/     M anipulation  |                                                 |
\*---------------------------------------------------------------------------*/
FoamFile
{
    version     2.0;
    format      ascii;
    class       volVectorField;
    location    "9.8";
    object      Ua;
}
// * * * * * * * * * * * * * * * * * * * * * * * * * * * * * * * * * * * * * //

dimensions      [0 1 -1 0 0 0 0];

internalField   nonuniform List<vector> 
360
(
(4.03598e-33 -1.04466e-31 0)
(1.00142e-09 -1.76172e-08 0)
(2.07784e-09 -3.10523e-08 0)
(3.03992e-09 -4.24458e-08 0)
(4.02315e-09 -5.41355e-08 0)
(5.05689e-09 -6.61043e-08 0)
(6.12042e-09 -7.79859e-08 0)
(7.20644e-09 -8.97437e-08 0)
(8.31981e-09 -1.01461e-07 0)
(9.46706e-09 -1.13212e-07 0)
(1.06536e-08 -1.2505e-07 0)
(1.18836e-08 -1.37011e-07 0)
(1.31603e-08 -1.49121e-07 0)
(1.44866e-08 -1.614e-07 0)
(1.58655e-08 -1.73867e-07 0)
(1.72997e-08 -1.8654e-07 0)
(1.87921e-08 -1.99435e-07 0)
(2.03452e-08 -2.12563e-07 0)
(2.19613e-08 -2.25933e-07 0)
(2.36426e-08 -2.39554e-07 0)
(2.5391e-08 -2.5343e-07 0)
(2.72084e-08 -2.67566e-07 0)
(2.90969e-08 -2.81966e-07 0)
(3.10582e-08 -2.96634e-07 0)
(3.3094e-08 -3.1157e-07 0)
(3.52057e-08 -3.26775e-07 0)
(3.73948e-08 -3.42248e-07 0)
(3.96627e-08 -3.57989e-07 0)
(4.20109e-08 -3.73997e-07 0)
(4.44404e-08 -3.90269e-07 0)
(4.69522e-08 -4.068e-07 0)
(4.95474e-08 -4.23589e-07 0)
(5.22269e-08 -4.4063e-07 0)
(5.49914e-08 -4.57919e-07 0)
(5.78419e-08 -4.75452e-07 0)
(6.07786e-08 -4.93221e-07 0)
(6.3802e-08 -5.11219e-07 0)
(6.69126e-08 -5.2944e-07 0)
(7.01108e-08 -5.4788e-07 0)
(7.33966e-08 -5.66527e-07 0)
(7.677e-08 -5.85374e-07 0)
(8.02312e-08 -6.04416e-07 0)
(8.37796e-08 -6.23639e-07 0)
(8.74149e-08 -6.43035e-07 0)
(9.11372e-08 -6.62598e-07 0)
(9.49459e-08 -6.82317e-07 0)
(9.88403e-08 -7.02183e-07 0)
(1.02819e-07 -7.22179e-07 0)
(1.06881e-07 -7.42294e-07 0)
(1.11026e-07 -7.62526e-07 0)
(1.15253e-07 -7.82862e-07 0)
(1.1956e-07 -8.03285e-07 0)
(1.23946e-07 -8.23787e-07 0)
(1.28409e-07 -8.44356e-07 0)
(1.32948e-07 -8.64979e-07 0)
(1.37562e-07 -8.85645e-07 0)
(1.42248e-07 -9.06343e-07 0)
(1.47004e-07 -9.27059e-07 0)
(1.51828e-07 -9.4778e-07 0)
(1.56716e-07 -9.68487e-07 0)
(1.61668e-07 -9.89173e-07 0)
(1.66681e-07 -1.00983e-06 0)
(1.71753e-07 -1.03044e-06 0)
(1.76882e-07 -1.05101e-06 0)
(1.82065e-07 -1.0715e-06 0)
(1.87298e-07 -1.09191e-06 0)
(1.92579e-07 -1.11224e-06 0)
(1.97906e-07 -1.13245e-06 0)
(2.03274e-07 -1.15256e-06 0)
(2.0868e-07 -1.17253e-06 0)
(2.14121e-07 -1.19236e-06 0)
(2.19597e-07 -1.21204e-06 0)
(2.25103e-07 -1.23157e-06 0)
(2.30636e-07 -1.25093e-06 0)
(2.36194e-07 -1.27012e-06 0)
(2.41776e-07 -1.28913e-06 0)
(2.47377e-07 -1.30794e-06 0)
(2.52993e-07 -1.32655e-06 0)
(2.58621e-07 -1.34495e-06 0)
(2.64258e-07 -1.36313e-06 0)
(2.69901e-07 -1.38108e-06 0)
(2.75547e-07 -1.39879e-06 0)
(2.81194e-07 -1.41627e-06 0)
(2.86841e-07 -1.4335e-06 0)
(2.92486e-07 -1.45049e-06 0)
(2.98126e-07 -1.46723e-06 0)
(3.03759e-07 -1.48371e-06 0)
(3.09382e-07 -1.49994e-06 0)
(3.14992e-07 -1.5159e-06 0)
(3.20587e-07 -1.53159e-06 0)
(3.26164e-07 -1.547e-06 0)
(3.3172e-07 -1.56214e-06 0)
(3.37254e-07 -1.57699e-06 0)
(3.42765e-07 -1.59156e-06 0)
(3.48251e-07 -1.60586e-06 0)
(3.53713e-07 -1.61987e-06 0)
(3.59147e-07 -1.63361e-06 0)
(3.64554e-07 -1.64706e-06 0)
(3.69931e-07 -1.66023e-06 0)
(3.75279e-07 -1.67312e-06 0)
(3.80594e-07 -1.68572e-06 0)
(3.85878e-07 -1.69805e-06 0)
(3.9113e-07 -1.71009e-06 0)
(3.9635e-07 -1.72186e-06 0)
(4.01537e-07 -1.73335e-06 0)
(4.06693e-07 -1.74457e-06 0)
(4.11818e-07 -1.75552e-06 0)
(4.16914e-07 -1.76621e-06 0)
(4.2198e-07 -1.77663e-06 0)
(4.27019e-07 -1.78679e-06 0)
(4.3203e-07 -1.79669e-06 0)
(4.37016e-07 -1.80633e-06 0)
(4.41976e-07 -1.81572e-06 0)
(4.46913e-07 -1.82485e-06 0)
(4.51827e-07 -1.83373e-06 0)
(4.56722e-07 -1.84236e-06 0)
(4.61598e-07 -1.85075e-06 0)
(4.6646e-07 -1.85889e-06 0)
(4.71311e-07 -1.86679e-06 0)
(4.76155e-07 -1.87446e-06 0)
(4.80994e-07 -1.88188e-06 0)
(4.85829e-07 -1.88907e-06 0)
(4.90658e-07 -1.89601e-06 0)
(4.95468e-07 -1.90268e-06 0)
(5.00243e-07 -1.90905e-06 0)
(5.04954e-07 -1.9151e-06 0)
(5.09568e-07 -1.92077e-06 0)
(5.14049e-07 -1.92603e-06 0)
(5.18364e-07 -1.93086e-06 0)
(5.22498e-07 -1.93525e-06 0)
(5.26459e-07 -1.93923e-06 0)
(5.3029e-07 -1.94284e-06 0)
(5.34077e-07 -1.94617e-06 0)
(5.37956e-07 -1.94934e-06 0)
(5.42093e-07 -1.95246e-06 0)
(5.46638e-07 -1.95559e-06 0)
(5.51581e-07 -1.95868e-06 0)
(5.56559e-07 -1.96147e-06 0)
(5.6077e-07 -1.96356e-06 0)
(5.63388e-07 -1.96469e-06 0)
(5.64383e-07 -1.96502e-06 0)
(5.64628e-07 -1.96504e-06 0)
(5.64755e-07 -1.96506e-06 0)
(5.65098e-07 -1.96559e-06 0)
(5.66319e-07 -1.9664e-06 0)
(5.78722e-07 -1.96861e-06 0)
(0.0751533 -0.00328284 0)
(0.165976 -0.00384329 0)
(0.240037 -0.004579 0)
(0.301115 -0.00502669 0)
(0.352845 -0.00546653 0)
(0.397429 -0.00580464 0)
(0.436323 -0.0061754 0)
(0.470622 -0.00653295 0)
(0.501187 -0.00686229 0)
(0.528692 -0.00715456 0)
(0.553668 -0.00740394 0)
(0.576534 -0.00760684 0)
(0.597624 -0.00776196 0)
(0.617205 -0.00787003 0)
(0.63549 -0.00793317 0)
(0.652656 -0.00795444 0)
(0.668844 -0.00793738 0)
(0.684174 -0.00788577 0)
(0.698743 -0.00780335 0)
(0.712635 -0.00769361 0)
(0.725919 -0.00755975 0)
(0.738655 -0.00740466 0)
(0.750894 -0.00723089 0)
(0.762679 -0.00704069 0)
(0.77405 -0.006836 0)
(0.785038 -0.00661854 0)
(0.795673 -0.00638981 0)
(0.80598 -0.00615115 0)
(0.815982 -0.00590376 0)
(0.825696 -0.00564871 0)
(0.835142 -0.00538702 0)
(0.844333 -0.00511968 0)
(0.853283 -0.0048476 0)
(0.862004 -0.00457173 0)
(0.870506 -0.00429302 0)
(0.878797 -0.00401246 0)
(0.886886 -0.00373114 0)
(0.894778 -0.00345023 0)
(0.90248 -0.00317105 0)
(0.909997 -0.00289513 0)
(0.917331 -0.00262426 0)
(0.924487 -0.00236066 0)
(0.931466 -0.00210714 0)
(0.938272 -0.00186726 0)
(0.944906 -0.00164499 0)
(0.951369 -0.0014437 0)
(0.957663 -0.00126397 0)
(0.963789 -0.00110116 0)
(0.969749 -0.000944677 0)
(0.975543 -0.000781733 0)
(0.981173 -0.000603673 0)
(0.986639 -0.000407715 0)
(0.99194 -0.00019411 0)
(0.997075 3.60966e-05 0)
(1.00204 0.000281665 0)
(1.00689 0.000543879 0)
(1.01166 0.000824656 0)
(1.01634 0.0011233 0)
(1.02092 0.00143889 0)
(1.0254 0.00177026 0)
(1.02977 0.00211586 0)
(1.03401 0.00247363 0)
(1.03812 0.00284057 0)
(1.04209 0.00321226 0)
(1.0459 0.00358218 0)
(1.04956 0.00394125 0)
(1.05304 0.00427792 0)
(1.05635 0.00457945 0)
(1.05949 0.00483415 0)
(1.06245 0.00503403 0)
(1.06524 0.0051767 0)
(1.06786 0.00526545 0)
(1.07033 0.00530787 0)
(1.07265 0.00531362 0)
(1.07482 0.00529249 0)
(1.07686 0.00525321 0)
(1.07876 0.00520287 0)
(1.08054 0.00514692 0)
(1.08219 0.00508927 0)
(1.08373 0.00503256 0)
(1.08514 0.00497846 0)
(1.08645 0.00492756 0)
(1.08764 0.00488029 0)
(1.08873 0.00483542 0)
(1.0897 0.00479318 0)
(1.09058 0.00475004 0)
(1.09135 0.0047071 0)
(1.09201 0.00465579 0)
(1.09254 0.00460085 0)
(1.09295 0.00451683 0)
(1.09337 0.00437394 0)
(1.15177 0.000971018 0)
(1.15251 0.00367236 0)
(1.152 0.00194578 0)
(1.15126 0.00255715 0)
(1.15043 0.00216731 0)
(1.14949 0.00217289 0)
(1.14846 0.00211486 0)
(1.14733 0.0021251 0)
(1.14613 0.00194814 0)
(1.14483 0.00264024 0)
(1.14352 0.00112605 0)
(1.14197 0.00469096 0)
(1.14064 -0.00155184 0)
(1.13862 0.0100061 0)
(1.13631 -0.0135359 0)
(1.13386 -0.0395504 0)
(1.13208 -0.0395392 0)
(1.13043 -0.0395412 0)
(1.12876 -0.0395424 0)
(1.12708 -0.0395434 0)
(1.12541 -0.0395443 0)
(1.12374 -0.0395449 0)
(1.1221 -0.0395453 0)
(1.1205 -0.0395453 0)
(1.11894 -0.0395449 0)
(1.11745 -0.0395442 0)
(1.11603 -0.039543 0)
(1.11471 -0.0395412 0)
(1.11351 -0.0395389 0)
(1.11244 -0.0395359 0)
(1.11153 -0.0395322 0)
(1.1108 -0.0395274 0)
(1.11026 -0.0395201 0)
(1.11 -0.0395095 0)
(1.10994 -0.0395022 0)
(1.10994 -0.0395006 0)
(1.10994 -0.0395005 0)
(1.10994 -0.0395005 0)
(1.10994 -0.0395005 0)
(1.10994 -0.0395005 0)
(1.10994 -0.0395005 0)
(1.10994 -0.0395005 0)
(1.10994 -0.0395005 0)
(1.10994 -0.0395005 0)
(1.10994 -0.0395005 0)
(1.10994 -0.0395005 0)
(1.10994 -0.0395005 0)
(1.10994 -0.0395005 0)
(1.10994 -0.0395005 0)
(1.10994 -0.0395005 0)
(1.10994 -0.0395005 0)
(1.10994 -0.0395005 0)
(1.10994 -0.0395005 0)
(1.10994 -0.0395005 0)
(1.10994 -0.0395005 0)
(1.10994 -0.0395005 0)
(1.10994 -0.0395005 0)
(1.10994 -0.0395005 0)
(1.10994 -0.0395005 0)
(1.10994 -0.0395005 0)
(1.10994 -0.0395005 0)
(1.10994 -0.0395005 0)
(1.10994 -0.0395005 0)
(1.10994 -0.0395005 0)
(1.10994 -0.0395005 0)
(1.10994 -0.0395005 0)
(1.10994 -0.0395005 0)
(1.10994 -0.0395005 0)
(1.10994 -0.0395005 0)
(1.10994 -0.0395005 0)
(1.10994 -0.0395005 0)
(1.10994 -0.0395005 0)
(1.10994 -0.0395005 0)
(1.10994 -0.0395005 0)
(1.10994 -0.0395005 0)
(1.10994 -0.0395005 0)
(1.10994 -0.0395005 0)
(1.10994 -0.0395005 0)
(1.10994 -0.0395005 0)
(1.10994 -0.0395005 0)
(1.10994 -0.0395005 0)
(1.10994 -0.0395005 0)
(1.10994 -0.0395005 0)
(1.10994 -0.0395005 0)
(1.10994 -0.0395005 0)
(1.10994 -0.0395005 0)
(1.10994 -0.0395005 0)
(1.10994 -0.0395005 0)
(1.10994 -0.0395005 0)
(1.10994 -0.0395005 0)
(1.10994 -0.0395005 0)
(1.10994 -0.0395005 0)
(1.10994 -0.0395005 0)
(1.10994 -0.0395005 0)
(1.10994 -0.0395005 0)
(1.10994 -0.0395005 0)
(1.10994 -0.0395005 0)
(1.10994 -0.0395005 0)
(1.10994 -0.0395005 0)
(1.10994 -0.0395005 0)
(1.10994 -0.0395005 0)
(1.10994 -0.0395005 0)
(1.10994 -0.0395005 0)
(1.10994 -0.0395005 0)
(1.10994 -0.0395005 0)
(1.10994 -0.0395005 0)
(1.10994 -0.0395005 0)
(1.10994 -0.0395005 0)
(1.10994 -0.0395005 0)
(1.10994 -0.0395005 0)
(1.10994 -0.0395005 0)
(1.10994 -0.0395005 0)
(1.10994 -0.0395005 0)
(1.10994 -0.0395005 0)
(1.10994 -0.0395005 0)
(1.10994 -0.0395005 0)
(1.10994 -0.0395005 0)
(1.10994 -0.0395005 0)
(1.10994 -0.0395005 0)
(1.10994 -0.0395003 0)
(1.10994 -0.0394918 0)
(1.10997 -0.0391461 0)
(1.11062 -0.0224032 0)
)
;

boundaryField
{
    inandouthalf11
    {
        type            cyclic;
    }
    inandouthalf12
    {
        type            cyclic;
    }
    inandouthalf21
    {
        type            cyclic;
    }
    inandouthalf22
    {
        type            cyclic;
    }
    inandouthalf31
    {
        type            cyclic;
    }
    inandouthalf32
    {
        type            cyclic;
    }
    inandouthalf41
    {
        type            cyclic;
    }
    inandouthalf42
    {
        type            cyclic;
    }
    top
    {
        type            symmetryPlane;
    }
    walls
    {
        type            fixedValue;
        value           uniform (0 0 0);
    }
    frontAndBackPlanes
    {
        type            empty;
    }
}


// ************************************************************************* //
