/*--------------------------------*- C++ -*----------------------------------*\
| =========                 |                                                 |
| \\      /  F ield         | OpenFOAM: The Open Source CFD Toolbox           |
|  \\    /   O peration     | Version:  2.4.x                                 |
|   \\  /    A nd           | Web:      www.OpenFOAM.org                      |
|    \\/     M anipulation  |                                                 |
\*---------------------------------------------------------------------------*/
FoamFile
{
    version     2.0;
    format      ascii;
    class       volVectorField;
    location    "9.8";
    object      Ua_0;
}
// * * * * * * * * * * * * * * * * * * * * * * * * * * * * * * * * * * * * * //

dimensions      [0 1 -1 0 0 0 0];

internalField   nonuniform List<vector> 
360
(
(4.04091e-33 -1.04465e-31 0)
(1.00272e-09 -1.76192e-08 0)
(2.08051e-09 -3.10559e-08 0)
(3.04378e-09 -4.2451e-08 0)
(4.0282e-09 -5.41423e-08 0)
(5.06316e-09 -6.61129e-08 0)
(6.12794e-09 -7.79965e-08 0)
(7.21522e-09 -8.97564e-08 0)
(8.32985e-09 -1.01476e-07 0)
(9.47838e-09 -1.13229e-07 0)
(1.06662e-08 -1.25069e-07 0)
(1.18976e-08 -1.37033e-07 0)
(1.31757e-08 -1.49146e-07 0)
(1.45034e-08 -1.61428e-07 0)
(1.58837e-08 -1.73898e-07 0)
(1.73194e-08 -1.86573e-07 0)
(1.88134e-08 -1.99471e-07 0)
(2.03681e-08 -2.12602e-07 0)
(2.19858e-08 -2.25976e-07 0)
(2.36687e-08 -2.396e-07 0)
(2.54188e-08 -2.53479e-07 0)
(2.7238e-08 -2.67619e-07 0)
(2.91283e-08 -2.82023e-07 0)
(3.10915e-08 -2.96694e-07 0)
(3.31291e-08 -3.11634e-07 0)
(3.52428e-08 -3.26843e-07 0)
(3.74339e-08 -3.4232e-07 0)
(3.97039e-08 -3.58065e-07 0)
(4.20542e-08 -3.74077e-07 0)
(4.44858e-08 -3.90353e-07 0)
(4.69998e-08 -4.06889e-07 0)
(4.95973e-08 -4.23682e-07 0)
(5.2279e-08 -4.40727e-07 0)
(5.50459e-08 -4.58021e-07 0)
(5.78988e-08 -4.75558e-07 0)
(6.08379e-08 -4.93332e-07 0)
(6.38637e-08 -5.11334e-07 0)
(6.69768e-08 -5.29559e-07 0)
(7.01776e-08 -5.48004e-07 0)
(7.3466e-08 -5.66656e-07 0)
(7.6842e-08 -5.85508e-07 0)
(8.03058e-08 -6.04554e-07 0)
(8.38568e-08 -6.23782e-07 0)
(8.74949e-08 -6.43182e-07 0)
(9.122e-08 -6.6275e-07 0)
(9.50315e-08 -6.82473e-07 0)
(9.89287e-08 -7.02344e-07 0)
(1.0291e-07 -7.22345e-07 0)
(1.06975e-07 -7.42464e-07 0)
(1.11122e-07 -7.62701e-07 0)
(1.15352e-07 -7.83041e-07 0)
(1.19662e-07 -8.03469e-07 0)
(1.24051e-07 -8.23975e-07 0)
(1.28518e-07 -8.44549e-07 0)
(1.3306e-07 -8.65176e-07 0)
(1.37677e-07 -8.85847e-07 0)
(1.42365e-07 -9.06549e-07 0)
(1.47124e-07 -9.27268e-07 0)
(1.51951e-07 -9.47993e-07 0)
(1.56843e-07 -9.68704e-07 0)
(1.61797e-07 -9.89395e-07 0)
(1.66813e-07 -1.01005e-06 0)
(1.71888e-07 -1.03067e-06 0)
(1.7702e-07 -1.05124e-06 0)
(1.82206e-07 -1.07174e-06 0)
(1.87442e-07 -1.09215e-06 0)
(1.92726e-07 -1.11248e-06 0)
(1.98056e-07 -1.1327e-06 0)
(2.03427e-07 -1.15281e-06 0)
(2.08835e-07 -1.17278e-06 0)
(2.1428e-07 -1.19261e-06 0)
(2.19758e-07 -1.2123e-06 0)
(2.25267e-07 -1.23183e-06 0)
(2.30802e-07 -1.25119e-06 0)
(2.36364e-07 -1.27038e-06 0)
(2.41948e-07 -1.28939e-06 0)
(2.47551e-07 -1.30821e-06 0)
(2.5317e-07 -1.32683e-06 0)
(2.588e-07 -1.34523e-06 0)
(2.6444e-07 -1.36341e-06 0)
(2.70085e-07 -1.38136e-06 0)
(2.75734e-07 -1.39907e-06 0)
(2.81383e-07 -1.41655e-06 0)
(2.87033e-07 -1.43378e-06 0)
(2.9268e-07 -1.45077e-06 0)
(2.98322e-07 -1.46751e-06 0)
(3.03957e-07 -1.484e-06 0)
(3.09582e-07 -1.50023e-06 0)
(3.15195e-07 -1.51619e-06 0)
(3.20791e-07 -1.53188e-06 0)
(3.2637e-07 -1.54729e-06 0)
(3.31928e-07 -1.56243e-06 0)
(3.37464e-07 -1.57728e-06 0)
(3.42977e-07 -1.59186e-06 0)
(3.48465e-07 -1.60615e-06 0)
(3.53928e-07 -1.62016e-06 0)
(3.59364e-07 -1.6339e-06 0)
(3.64773e-07 -1.64735e-06 0)
(3.70152e-07 -1.66052e-06 0)
(3.75501e-07 -1.67341e-06 0)
(3.80818e-07 -1.68602e-06 0)
(3.86104e-07 -1.69834e-06 0)
(3.91357e-07 -1.71039e-06 0)
(3.96578e-07 -1.72215e-06 0)
(4.01767e-07 -1.73365e-06 0)
(4.06924e-07 -1.74487e-06 0)
(4.12051e-07 -1.75582e-06 0)
(4.17148e-07 -1.7665e-06 0)
(4.22215e-07 -1.77692e-06 0)
(4.27255e-07 -1.78708e-06 0)
(4.32268e-07 -1.79698e-06 0)
(4.37254e-07 -1.80662e-06 0)
(4.42216e-07 -1.81601e-06 0)
(4.47154e-07 -1.82514e-06 0)
(4.5207e-07 -1.83403e-06 0)
(4.56965e-07 -1.84266e-06 0)
(4.61843e-07 -1.85104e-06 0)
(4.66706e-07 -1.85918e-06 0)
(4.71557e-07 -1.86709e-06 0)
(4.76402e-07 -1.87475e-06 0)
(4.81242e-07 -1.88217e-06 0)
(4.86079e-07 -1.88936e-06 0)
(4.90908e-07 -1.8963e-06 0)
(4.95719e-07 -1.90297e-06 0)
(5.00494e-07 -1.90934e-06 0)
(5.05207e-07 -1.91538e-06 0)
(5.09821e-07 -1.92106e-06 0)
(5.14302e-07 -1.92632e-06 0)
(5.18618e-07 -1.93115e-06 0)
(5.22753e-07 -1.93554e-06 0)
(5.26714e-07 -1.93951e-06 0)
(5.30545e-07 -1.94312e-06 0)
(5.34333e-07 -1.94646e-06 0)
(5.38212e-07 -1.94963e-06 0)
(5.42349e-07 -1.95274e-06 0)
(5.46895e-07 -1.95587e-06 0)
(5.51838e-07 -1.95896e-06 0)
(5.56818e-07 -1.96176e-06 0)
(5.6103e-07 -1.96384e-06 0)
(5.63648e-07 -1.96497e-06 0)
(5.64644e-07 -1.96531e-06 0)
(5.64888e-07 -1.96532e-06 0)
(5.65015e-07 -1.96534e-06 0)
(5.65359e-07 -1.96587e-06 0)
(5.66611e-07 -1.96671e-06 0)
(5.80153e-07 -1.96912e-06 0)
(0.0752449 -0.00328096 0)
(0.166095 -0.00384046 0)
(0.240163 -0.0045746 0)
(0.301245 -0.00502191 0)
(0.352977 -0.00546206 0)
(0.397565 -0.00580065 0)
(0.436463 -0.00617185 0)
(0.470766 -0.00652975 0)
(0.501334 -0.00685937 0)
(0.528843 -0.00715184 0)
(0.553824 -0.00740134 0)
(0.576694 -0.0076043 0)
(0.597788 -0.00775944 0)
(0.617373 -0.00786747 0)
(0.635662 -0.00793055 0)
(0.652831 -0.00795173 0)
(0.669022 -0.00793459 0)
(0.684355 -0.0078829 0)
(0.698927 -0.0078004 0)
(0.712821 -0.00769059 0)
(0.726108 -0.00755669 0)
(0.738846 -0.00740156 0)
(0.751088 -0.00722777 0)
(0.762875 -0.00703756 0)
(0.774248 -0.00683287 0)
(0.785238 -0.00661542 0)
(0.795875 -0.00638671 0)
(0.806184 -0.00614807 0)
(0.816187 -0.0059007 0)
(0.825903 -0.00564568 0)
(0.83535 -0.00538402 0)
(0.844543 -0.00511671 0)
(0.853494 -0.00484466 0)
(0.862216 -0.00456882 0)
(0.870719 -0.00429014 0)
(0.879012 -0.00400962 0)
(0.887101 -0.00372833 0)
(0.894995 -0.00344746 0)
(0.902698 -0.00316833 0)
(0.910215 -0.00289245 0)
(0.91755 -0.00262163 0)
(0.924707 -0.0023581 0)
(0.931687 -0.00210466 0)
(0.938494 -0.00186487 0)
(0.945128 -0.00164272 0)
(0.951592 -0.00144155 0)
(0.957886 -0.00126194 0)
(0.964013 -0.00109923 0)
(0.969973 -0.000942761 0)
(0.975768 -0.000779761 0)
(0.981398 -0.000601605 0)
(0.986865 -0.000405538 0)
(0.992166 -0.000191824 0)
(0.997301 3.84878e-05 0)
(1.00227 0.000284157 0)
(1.00712 0.000546468 0)
(1.01188 0.000827337 0)
(1.01656 0.00112607 0)
(1.02115 0.00144174 0)
(1.02563 0.00177318 0)
(1.03 0.00211886 0)
(1.03424 0.00247668 0)
(1.03835 0.00284366 0)
(1.04232 0.00321538 0)
(1.04613 0.00358531 0)
(1.04978 0.00394434 0)
(1.05327 0.00428095 0)
(1.05658 0.00458237 0)
(1.05971 0.00483691 0)
(1.06267 0.00503662 0)
(1.06546 0.0051791 0)
(1.06809 0.00526767 0)
(1.07055 0.00530994 0)
(1.07287 0.00531555 0)
(1.07504 0.00529431 0)
(1.07708 0.00525494 0)
(1.07899 0.00520454 0)
(1.08076 0.00514854 0)
(1.08242 0.00509086 0)
(1.08395 0.00503413 0)
(1.08537 0.00498002 0)
(1.08667 0.00492911 0)
(1.08786 0.00488185 0)
(1.08895 0.00483698 0)
(1.08993 0.00479474 0)
(1.0908 0.00475161 0)
(1.09157 0.00470868 0)
(1.09223 0.00465738 0)
(1.09276 0.00460246 0)
(1.09317 0.00451844 0)
(1.09359 0.00437557 0)
(1.15198 0.000971965 0)
(1.15272 0.00367396 0)
(1.15221 0.00194725 0)
(1.15147 0.00255865 0)
(1.15064 0.00216892 0)
(1.1497 0.00217447 0)
(1.14866 0.00211651 0)
(1.14754 0.00212639 0)
(1.14634 0.0019507 0)
(1.14503 0.00263984 0)
(1.14372 0.00113026 0)
(1.14217 0.00468802 0)
(1.14084 -0.00154557 0)
(1.13882 0.010002 0)
(1.13652 -0.0135509 0)
(1.13406 -0.0395504 0)
(1.13228 -0.0395392 0)
(1.13064 -0.0395412 0)
(1.12897 -0.0395424 0)
(1.12729 -0.0395435 0)
(1.12561 -0.0395443 0)
(1.12395 -0.0395449 0)
(1.12231 -0.0395453 0)
(1.1207 -0.0395453 0)
(1.11914 -0.0395449 0)
(1.11765 -0.0395442 0)
(1.11623 -0.039543 0)
(1.11492 -0.0395412 0)
(1.11371 -0.0395389 0)
(1.11264 -0.0395359 0)
(1.11173 -0.0395322 0)
(1.111 -0.0395274 0)
(1.11047 -0.0395201 0)
(1.1102 -0.0395095 0)
(1.11015 -0.0395022 0)
(1.11015 -0.0395006 0)
(1.11015 -0.0395005 0)
(1.11015 -0.0395005 0)
(1.11015 -0.0395005 0)
(1.11015 -0.0395005 0)
(1.11015 -0.0395005 0)
(1.11015 -0.0395005 0)
(1.11015 -0.0395005 0)
(1.11015 -0.0395005 0)
(1.11015 -0.0395005 0)
(1.11015 -0.0395005 0)
(1.11015 -0.0395005 0)
(1.11015 -0.0395005 0)
(1.11015 -0.0395005 0)
(1.11015 -0.0395005 0)
(1.11015 -0.0395005 0)
(1.11015 -0.0395005 0)
(1.11015 -0.0395005 0)
(1.11015 -0.0395005 0)
(1.11015 -0.0395005 0)
(1.11015 -0.0395005 0)
(1.11015 -0.0395005 0)
(1.11015 -0.0395005 0)
(1.11015 -0.0395005 0)
(1.11015 -0.0395005 0)
(1.11015 -0.0395005 0)
(1.11015 -0.0395005 0)
(1.11015 -0.0395005 0)
(1.11015 -0.0395005 0)
(1.11015 -0.0395005 0)
(1.11015 -0.0395005 0)
(1.11015 -0.0395005 0)
(1.11015 -0.0395005 0)
(1.11015 -0.0395005 0)
(1.11015 -0.0395005 0)
(1.11015 -0.0395005 0)
(1.11015 -0.0395005 0)
(1.11015 -0.0395005 0)
(1.11015 -0.0395005 0)
(1.11015 -0.0395005 0)
(1.11015 -0.0395005 0)
(1.11015 -0.0395005 0)
(1.11015 -0.0395005 0)
(1.11015 -0.0395005 0)
(1.11015 -0.0395005 0)
(1.11015 -0.0395005 0)
(1.11015 -0.0395005 0)
(1.11015 -0.0395005 0)
(1.11015 -0.0395005 0)
(1.11015 -0.0395005 0)
(1.11015 -0.0395005 0)
(1.11015 -0.0395005 0)
(1.11015 -0.0395005 0)
(1.11015 -0.0395005 0)
(1.11015 -0.0395005 0)
(1.11015 -0.0395005 0)
(1.11015 -0.0395005 0)
(1.11015 -0.0395005 0)
(1.11015 -0.0395005 0)
(1.11015 -0.0395005 0)
(1.11015 -0.0395005 0)
(1.11015 -0.0395005 0)
(1.11015 -0.0395005 0)
(1.11015 -0.0395005 0)
(1.11015 -0.0395005 0)
(1.11015 -0.0395005 0)
(1.11015 -0.0395005 0)
(1.11015 -0.0395005 0)
(1.11015 -0.0395005 0)
(1.11015 -0.0395005 0)
(1.11015 -0.0395005 0)
(1.11015 -0.0395005 0)
(1.11015 -0.0395005 0)
(1.11015 -0.0395005 0)
(1.11015 -0.0395005 0)
(1.11015 -0.0395005 0)
(1.11015 -0.0395005 0)
(1.11015 -0.0395005 0)
(1.11015 -0.0395005 0)
(1.11015 -0.0395005 0)
(1.11015 -0.0395005 0)
(1.11015 -0.0395005 0)
(1.11015 -0.0395005 0)
(1.11015 -0.0395005 0)
(1.11015 -0.0395003 0)
(1.11015 -0.0394918 0)
(1.11018 -0.0391461 0)
(1.11083 -0.0224032 0)
)
;

boundaryField
{
    inandouthalf11
    {
        type            cyclic;
    }
    inandouthalf12
    {
        type            cyclic;
    }
    inandouthalf21
    {
        type            cyclic;
    }
    inandouthalf22
    {
        type            cyclic;
    }
    inandouthalf31
    {
        type            cyclic;
    }
    inandouthalf32
    {
        type            cyclic;
    }
    inandouthalf41
    {
        type            cyclic;
    }
    inandouthalf42
    {
        type            cyclic;
    }
    top
    {
        type            symmetryPlane;
    }
    walls
    {
        type            fixedValue;
        value           uniform (0 0 0);
    }
    frontAndBackPlanes
    {
        type            empty;
    }
}


// ************************************************************************* //
