/*--------------------------------*- C++ -*----------------------------------*\
| =========                 |                                                 |
| \\      /  F ield         | OpenFOAM: The Open Source CFD Toolbox           |
|  \\    /   O peration     | Version:  2.4.x                                 |
|   \\  /    A nd           | Web:      www.OpenFOAM.org                      |
|    \\/     M anipulation  |                                                 |
\*---------------------------------------------------------------------------*/
FoamFile
{
    version     2.0;
    format      ascii;
    class       volScalarField;
    location    "8.45";
    object      alpha;
}
// * * * * * * * * * * * * * * * * * * * * * * * * * * * * * * * * * * * * * //

dimensions      [0 0 0 0 0 0 0];

internalField   nonuniform List<scalar> 
360
(
0.610851
0.611697
0.611791
0.611703
0.61166
0.611645
0.611628
0.611605
0.611582
0.611559
0.611536
0.611512
0.611488
0.611464
0.61144
0.611416
0.611391
0.611366
0.611341
0.611316
0.611291
0.611265
0.611239
0.611212
0.611186
0.611159
0.611132
0.611105
0.611078
0.61105
0.611022
0.610994
0.610965
0.610936
0.610907
0.610878
0.610848
0.610819
0.610788
0.610758
0.610727
0.610695
0.610664
0.610632
0.6106
0.610567
0.610534
0.610501
0.610468
0.610433
0.610399
0.610364
0.610329
0.610293
0.610257
0.61022
0.610183
0.610146
0.610108
0.61007
0.610031
0.609991
0.609951
0.609911
0.60987
0.609829
0.609787
0.609744
0.609701
0.609657
0.609613
0.609567
0.609522
0.609475
0.609428
0.609381
0.609332
0.609283
0.609233
0.609182
0.609131
0.609079
0.609025
0.608971
0.608916
0.60886
0.608803
0.608746
0.608687
0.608627
0.608566
0.608504
0.608441
0.608376
0.60831
0.608243
0.608175
0.608105
0.608034
0.607961
0.607887
0.607812
0.607734
0.607655
0.607574
0.607491
0.607406
0.60732
0.607231
0.60714
0.607046
0.60695
0.606852
0.606751
0.606647
0.606541
0.606431
0.606319
0.606203
0.606084
0.605961
0.605834
0.605703
0.605568
0.605429
0.605284
0.605135
0.604979
0.604818
0.604649
0.604473
0.60429
0.604099
0.603897
0.603683
0.603457
0.603221
0.602971
0.602693
0.602375
0.60203
0.601695
0.601294
0.600778
0.600124
0.570503
0.372191
0.288658
0.249178
0.221911
0.19965
0.179123
0.16033
0.142994
0.12694
0.112073
0.0983422
0.0857181
0.0741862
0.0637264
0.054311
0.0459047
0.0384627
0.0319323
0.0262547
0.0213669
0.0172031
0.0136964
0.0107795
0.00838575
0.00644971
0.0049072
0.00369583
0.00275701
0.00203962
0.0015019
0.00110911
0.000829618
0.000634063
0.000497358
0.000400386
0.000329892
0.000277195
0.000236717
0.000204854
0.000179232
0.000158248
0.000140788
0.00012606
0.000113491
0.000102651
9.32187e-05
8.49443e-05
7.76342e-05
7.11346e-05
6.53221e-05
6.00967e-05
5.53762e-05
5.10925e-05
4.71887e-05
4.36159e-05
4.03006e-05
3.71874e-05
3.42588e-05
3.14999e-05
2.88968e-05
2.64376e-05
2.41125e-05
2.19144e-05
1.98381e-05
1.78805e-05
1.60401e-05
1.43155e-05
1.27069e-05
1.12174e-05
9.84796e-06
8.59656e-06
7.46231e-06
6.4434e-06
5.53567e-06
4.73158e-06
4.02297e-06
3.40456e-06
2.86799e-06
2.40396e-06
2.00536e-06
1.66521e-06
1.37584e-06
1.13144e-06
9.24533e-07
7.52602e-07
6.07067e-07
4.88228e-07
3.83714e-07
3.14083e-07
2.499e-07
1.80434e-07
1.32887e-07
9.65874e-08
6.87299e-08
4.70076e-08
3.15783e-08
1.83064e-08
1.11203e-08
2.80676e-09
5.47078e-20
5.75283e-31
5.8671e-42
1.32734e-44
9.51414e-45
6.95428e-45
4.04918e-45
1.71896e-45
8.41517e-46
4.67235e-46
2.81574e-46
1.76399e-46
9.51094e-47
4.38239e-47
2.24813e-47
1.20074e-47
6.44034e-48
3.18834e-48
1.59426e-48
7.93762e-49
3.88999e-49
1.87445e-49
8.87813e-50
4.13119e-50
1.8875e-50
8.46248e-51
3.72078e-51
1.60328e-51
6.76576e-52
2.79408e-52
1.12832e-52
4.45187e-53
1.71468e-53
6.44098e-54
2.3573e-54
8.3967e-55
2.90764e-55
9.77647e-56
3.18758e-56
1.00639e-56
3.07208e-57
9.05187e-58
2.56982e-58
7.01564e-59
1.83779e-59
4.6084e-60
1.10329e-60
2.51439e-61
5.43698e-62
1.11135e-62
2.13837e-63
3.85438e-64
6.47197e-65
1.00573e-65
1.43518e-66
1.86306e-67
2.17477e-68
2.24966e-69
2.02333e-70
1.54187e-71
9.59317e-73
4.59956e-74
1.53322e-75
2.80008e-77
6.50221e-80
4.60617e-85
3.65489e-87
1.43741e-89
5.13385e-100
9.18609e-111
1.2031e-121
1.12913e-132
9.16522e-144
5.58988e-155
2.95186e-166
1.72576e-176
7.61178e-187
5.5492e-195
2.23706e-205
1.90866e-213
9.06558e-224
6.56807e-232
3.83524e-242
2.26225e-250
2.46924e-260
7.93984e-269
1.64202e-278
2.86369e-287
8.14155e-297
1.05786e-305
3.90313e-315
1.77982e-318
8.52757e-321
4.57737e-319
2.8055e-319
6.80328e-321
7.09478e-321
6.08689e-321
8.5424e-321
0
0
0
0
0
0
0
0
0
0
0
0
0
0
0
0
)
;

boundaryField
{
    inandouthalf11
    {
        type            cyclic;
    }
    inandouthalf12
    {
        type            cyclic;
    }
    inandouthalf21
    {
        type            cyclic;
    }
    inandouthalf22
    {
        type            cyclic;
    }
    inandouthalf31
    {
        type            cyclic;
    }
    inandouthalf32
    {
        type            cyclic;
    }
    inandouthalf41
    {
        type            cyclic;
    }
    inandouthalf42
    {
        type            cyclic;
    }
    top
    {
        type            symmetryPlane;
    }
    walls
    {
        type            zeroGradient;
    }
    frontAndBackPlanes
    {
        type            empty;
    }
}


// ************************************************************************* //
