/*--------------------------------*- C++ -*----------------------------------*\
| =========                 |                                                 |
| \\      /  F ield         | OpenFOAM: The Open Source CFD Toolbox           |
|  \\    /   O peration     | Version:  2.4.x                                 |
|   \\  /    A nd           | Web:      www.OpenFOAM.org                      |
|    \\/     M anipulation  |                                                 |
\*---------------------------------------------------------------------------*/
FoamFile
{
    version     2.0;
    format      ascii;
    class       volVectorField;
    location    "8.45";
    object      ddt0(Ub);
}
// * * * * * * * * * * * * * * * * * * * * * * * * * * * * * * * * * * * * * //

dimensions      [0 1 -2 0 0 0 0];

internalField   nonuniform List<vector> 
360
(
(-0.00023802 -1.91325e-08 0)
(-0.00023678 -6.86416e-08 0)
(-0.000236596 -1.26959e-07 0)
(-0.000236778 -1.81291e-07 0)
(-0.000236878 -2.34883e-07 0)
(-0.000236919 -2.89374e-07 0)
(-0.000236964 -3.43926e-07 0)
(-0.000237018 -3.97559e-07 0)
(-0.000237072 -4.49786e-07 0)
(-0.000237126 -5.00392e-07 0)
(-0.000237181 -5.49254e-07 0)
(-0.000237234 -5.96241e-07 0)
(-0.000237287 -6.41232e-07 0)
(-0.00023734 -6.84144e-07 0)
(-0.000237392 -7.24941e-07 0)
(-0.000237444 -7.63631e-07 0)
(-0.000237496 -8.00254e-07 0)
(-0.000237548 -8.34878e-07 0)
(-0.000237599 -8.67582e-07 0)
(-0.00023765 -8.98471e-07 0)
(-0.000237701 -9.27664e-07 0)
(-0.000237752 -9.55307e-07 0)
(-0.000237803 -9.81546e-07 0)
(-0.000237854 -1.00654e-06 0)
(-0.000237905 -1.03046e-06 0)
(-0.000237957 -1.05349e-06 0)
(-0.000238008 -1.07579e-06 0)
(-0.00023806 -1.09756e-06 0)
(-0.000238112 -1.11896e-06 0)
(-0.000238165 -1.14016e-06 0)
(-0.000238218 -1.16132e-06 0)
(-0.000238271 -1.1826e-06 0)
(-0.000238325 -1.20415e-06 0)
(-0.00023838 -1.22609e-06 0)
(-0.000238436 -1.24853e-06 0)
(-0.000238492 -1.27159e-06 0)
(-0.000238549 -1.29535e-06 0)
(-0.000238607 -1.3199e-06 0)
(-0.000238666 -1.34531e-06 0)
(-0.000238725 -1.3716e-06 0)
(-0.000238785 -1.39884e-06 0)
(-0.000238847 -1.42705e-06 0)
(-0.000238908 -1.45622e-06 0)
(-0.000238972 -1.48637e-06 0)
(-0.000239036 -1.5175e-06 0)
(-0.000239101 -1.54959e-06 0)
(-0.000239167 -1.58262e-06 0)
(-0.000239233 -1.61655e-06 0)
(-0.000239301 -1.65136e-06 0)
(-0.000239371 -1.68702e-06 0)
(-0.00023944 -1.72348e-06 0)
(-0.000239511 -1.76071e-06 0)
(-0.000239582 -1.79864e-06 0)
(-0.000239655 -1.83725e-06 0)
(-0.000239728 -1.87647e-06 0)
(-0.000239804 -1.91627e-06 0)
(-0.000239879 -1.95657e-06 0)
(-0.000239956 -1.99734e-06 0)
(-0.000240034 -2.03852e-06 0)
(-0.000240112 -2.08005e-06 0)
(-0.000240192 -2.12191e-06 0)
(-0.000240272 -2.16405e-06 0)
(-0.000240355 -2.20643e-06 0)
(-0.000240437 -2.24901e-06 0)
(-0.000240521 -2.29176e-06 0)
(-0.000240606 -2.33462e-06 0)
(-0.000240693 -2.37756e-06 0)
(-0.00024078 -2.42053e-06 0)
(-0.000240868 -2.46349e-06 0)
(-0.000240957 -2.50638e-06 0)
(-0.000241049 -2.5492e-06 0)
(-0.000241141 -2.59193e-06 0)
(-0.000241234 -2.63453e-06 0)
(-0.000241329 -2.67699e-06 0)
(-0.000241424 -2.71928e-06 0)
(-0.000241522 -2.76139e-06 0)
(-0.00024162 -2.80326e-06 0)
(-0.00024172 -2.84486e-06 0)
(-0.000241822 -2.88615e-06 0)
(-0.000241925 -2.92711e-06 0)
(-0.000242029 -2.96771e-06 0)
(-0.000242135 -3.00793e-06 0)
(-0.000242242 -3.04776e-06 0)
(-0.000242352 -3.08718e-06 0)
(-0.000242463 -3.12621e-06 0)
(-0.000242575 -3.16481e-06 0)
(-0.00024269 -3.20298e-06 0)
(-0.000242807 -3.24069e-06 0)
(-0.000242925 -3.27792e-06 0)
(-0.000243045 -3.31464e-06 0)
(-0.000243168 -3.35083e-06 0)
(-0.000243292 -3.38647e-06 0)
(-0.000243419 -3.42158e-06 0)
(-0.000243549 -3.45615e-06 0)
(-0.00024368 -3.49019e-06 0)
(-0.000243814 -3.52371e-06 0)
(-0.000243951 -3.55671e-06 0)
(-0.000244091 -3.58919e-06 0)
(-0.000244233 -3.62116e-06 0)
(-0.000244378 -3.65262e-06 0)
(-0.000244527 -3.68357e-06 0)
(-0.000244678 -3.71398e-06 0)
(-0.000244833 -3.74388e-06 0)
(-0.000244991 -3.77327e-06 0)
(-0.000245153 -3.80215e-06 0)
(-0.000245318 -3.83054e-06 0)
(-0.000245488 -3.85843e-06 0)
(-0.000245661 -3.88584e-06 0)
(-0.000245839 -3.91278e-06 0)
(-0.000246022 -3.93928e-06 0)
(-0.000246209 -3.96533e-06 0)
(-0.0002464 -3.99099e-06 0)
(-0.000246597 -4.01625e-06 0)
(-0.0002468 -4.04118e-06 0)
(-0.000247008 -4.06583e-06 0)
(-0.000247221 -4.09032e-06 0)
(-0.000247441 -4.11478e-06 0)
(-0.000247667 -4.13938e-06 0)
(-0.000247899 -4.16439e-06 0)
(-0.000248139 -4.19014e-06 0)
(-0.000248386 -4.21702e-06 0)
(-0.000248641 -4.24544e-06 0)
(-0.000248905 -4.27584e-06 0)
(-0.000249177 -4.30856e-06 0)
(-0.000249459 -4.34374e-06 0)
(-0.000249752 -4.38114e-06 0)
(-0.000250055 -4.42005e-06 0)
(-0.000250371 -4.45908e-06 0)
(-0.000250699 -4.49606e-06 0)
(-0.000251041 -4.52794e-06 0)
(-0.000251395 -4.55084e-06 0)
(-0.000251761 -4.56013e-06 0)
(-0.000252139 -4.55097e-06 0)
(-0.000252532 -4.519e-06 0)
(-0.000252942 -4.46205e-06 0)
(-0.000253369 -4.38315e-06 0)
(-0.000253812 -4.29526e-06 0)
(-0.000254284 -4.22548e-06 0)
(-0.000254826 -4.21356e-06 0)
(-0.000255481 -4.29659e-06 0)
(-0.000256228 -4.45577e-06 0)
(-0.00025697 -1.06259e-05 0)
(-0.000257853 7.0596e-05 0)
(-0.000258913 -0.000260544 0)
(-0.000208992 0.00102484 0)
(0.0210756 -0.00364695 0)
(0.427247 -0.0250566 0)
(0.492529 -0.0109329 0)
(0.499059 -0.00928739 0)
(0.483559 -0.00756194 0)
(0.457245 -0.00606905 0)
(0.426637 -0.00464426 0)
(0.395823 -0.00343476 0)
(0.367271 -0.00246052 0)
(0.342367 -0.00170889 0)
(0.321793 -0.00115436 0)
(0.305789 -0.000767453 0)
(0.294329 -0.00051802 0)
(0.287222 -0.000376786 0)
(0.284189 -0.000316838 0)
(0.284919 -0.00031474 0)
(0.289101 -0.00035009 0)
(0.296446 -0.000405795 0)
(0.306709 -0.000468106 0)
(0.319697 -0.000526433 0)
(0.335286 -0.000572984 0)
(0.353426 -0.000602349 0)
(0.374147 -0.000611221 0)
(0.397553 -0.000598431 0)
(0.423802 -0.000565209 0)
(0.453056 -0.000515365 0)
(0.485404 -0.000454846 0)
(0.520743 -0.000390162 0)
(0.558647 -0.00032607 0)
(0.598262 -0.000264552 0)
(0.6383 -0.000206519 0)
(0.677207 -0.000154103 0)
(0.713477 -0.000110374 0)
(0.745979 -7.71176e-05 0)
(0.774141 -5.37155e-05 0)
(0.797929 -3.798e-05 0)
(0.817692 -2.75169e-05 0)
(0.833978 -2.04686e-05 0)
(0.84738 -1.56059e-05 0)
(0.858457 -1.21627e-05 0)
(0.867685 -9.66388e-06 0)
(0.875458 -7.8091e-06 0)
(0.882086 -6.40394e-06 0)
(0.88781 -5.31989e-06 0)
(0.89282 -4.46958e-06 0)
(0.89726 -3.79279e-06 0)
(0.901243 -3.24698e-06 0)
(0.904853 -2.80157e-06 0)
(0.90816 -2.43419e-06 0)
(0.911215 -2.12828e-06 0)
(0.91406 -1.87135e-06 0)
(0.916726 -1.6539e-06 0)
(0.919241 -1.46856e-06 0)
(0.921624 -1.30962e-06 0)
(0.923893 -1.17255e-06 0)
(0.926061 -1.05376e-06 0)
(0.928159 -9.49243e-07 0)
(0.930216 -8.5617e-07 0)
(0.932236 -7.73102e-07 0)
(0.934223 -6.98837e-07 0)
(0.93618 -6.32322e-07 0)
(0.93811 -5.72585e-07 0)
(0.940016 -5.18742e-07 0)
(0.941899 -4.69997e-07 0)
(0.943762 -4.25647e-07 0)
(0.945605 -3.851e-07 0)
(0.947429 -3.47872e-07 0)
(0.949236 -3.13515e-07 0)
(0.951025 -2.81617e-07 0)
(0.952798 -2.51923e-07 0)
(0.954554 -2.24345e-07 0)
(0.956294 -1.98806e-07 0)
(0.958017 -1.75207e-07 0)
(0.959724 -1.53529e-07 0)
(0.961413 -1.33837e-07 0)
(0.963085 -1.16121e-07 0)
(0.964739 -1.00254e-07 0)
(0.966373 -8.61324e-08 0)
(0.967988 -7.3698e-08 0)
(0.969582 -6.28338e-08 0)
(0.971153 -5.33776e-08 0)
(0.972702 -4.52005e-08 0)
(0.974224 -3.81855e-08 0)
(0.97572 -3.21925e-08 0)
(0.977187 -2.70915e-08 0)
(0.978623 -2.27878e-08 0)
(0.980024 -1.91845e-08 0)
(0.981389 -1.60814e-08 0)
(0.982714 -1.3335e-08 0)
(0.983995 -1.1226e-08 0)
(0.985229 -9.80553e-09 0)
(0.98641 -8.45524e-09 0)
(0.987535 -7.03855e-09 0)
(0.988597 -5.87734e-09 0)
(0.98959 -5.00706e-09 0)
(0.990507 -4.34487e-09 0)
(0.991341 -3.90419e-09 0)
(0.992082 -3.48861e-09 0)
(0.992721 -3.34562e-09 0)
(0.993247 -2.90774e-09 0)
(0.993647 -2.27798e-09 0)
(0.993909 -2.25723e-09 0)
(0.994016 -2.1625e-09 0)
(0.993952 -2.05479e-09 0)
(0.993698 -1.95177e-09 0)
(0.993235 -1.8499e-09 0)
(0.992542 -1.74872e-09 0)
(0.991598 -1.65041e-09 0)
(0.990384 -1.55418e-09 0)
(0.988883 -1.4591e-09 0)
(0.987089 -1.36882e-09 0)
(0.985008 -1.29953e-09 0)
(0.982668 -1.11494e-09 0)
(0.980129 -1.24532e-09 0)
(0.977488 -7.96598e-10 0)
(0.974885 -1.25263e-09 0)
(0.9725 -4.75177e-10 0)
(0.970549 -1.27081e-09 0)
(0.969283 -2.08112e-10 0)
(0.969824 -1.26555e-09 0)
(0.970812 -1.42626e-11 0)
(0.970908 -1.23308e-09 0)
(0.97091 1.32225e-10 0)
(0.97091 -1.22586e-09 0)
(0.97091 2.61883e-10 0)
(0.97091 -1.24087e-09 0)
(0.97091 3.7568e-10 0)
(0.97091 -1.28016e-09 0)
(0.97091 4.851e-10 0)
(0.97091 -1.32891e-09 0)
(0.97091 5.88732e-10 0)
(0.97091 -1.39417e-09 0)
(0.97091 6.91983e-10 0)
(0.97091 -1.46822e-09 0)
(0.97091 7.90065e-10 0)
(0.97091 -1.55606e-09 0)
(0.97091 8.93681e-10 0)
(0.97091 -1.64586e-09 0)
(0.97091 1.00284e-09 0)
(0.97091 -1.73623e-09 0)
(0.97091 1.12659e-09 0)
(0.97091 -1.81505e-09 0)
(0.97091 1.27351e-09 0)
(0.97091 -1.88737e-09 0)
(0.97091 1.43085e-09 0)
(0.97091 -1.95963e-09 0)
(0.97091 1.60702e-09 0)
(0.97091 -2.01763e-09 0)
(0.97091 1.80461e-09 0)
(0.97091 -2.07579e-09 0)
(0.97091 1.98984e-09 0)
(0.97091 -2.15556e-09 0)
(0.97091 2.2078e-09 0)
(0.97091 -2.22544e-09 0)
(0.97091 2.39293e-09 0)
(0.97091 -2.33244e-09 0)
(0.97091 2.57882e-09 0)
(0.97091 -2.44552e-09 0)
(0.97091 2.77169e-09 0)
(0.97091 -2.56021e-09 0)
(0.97091 2.97496e-09 0)
(0.97091 -2.68158e-09 0)
(0.97091 3.17671e-09 0)
(0.97091 -2.80782e-09 0)
(0.97091 3.39366e-09 0)
(0.97091 -2.54018e-09 0)
(0.97091 3.15552e-09 0)
(0.97091 -2.54342e-09 0)
(0.97091 3.2545e-09 0)
(0.97091 -2.53062e-09 0)
(0.97091 3.36175e-09 0)
(0.97091 -2.51318e-09 0)
(0.97091 3.46819e-09 0)
(0.97091 -2.49579e-09 0)
(0.97091 3.57623e-09 0)
(0.97091 -2.46254e-09 0)
(0.97091 3.71544e-09 0)
(0.97091 -2.39517e-09 0)
(0.97091 3.87701e-09 0)
(0.97091 -2.29692e-09 0)
(0.97091 4.09136e-09 0)
(0.97091 -2.1209e-09 0)
(0.97091 4.38715e-09 0)
(0.97091 -1.71201e-09 0)
(0.97091 5.20161e-09 0)
(0.97091 -7.98016e-10 0)
(0.97091 6.20038e-09 0)
(0.97091 1.41616e-10 0)
(0.97091 7.22057e-09 0)
(0.97091 1.04096e-09 0)
(0.97091 8.08876e-09 0)
(0.97091 1.83017e-09 0)
(0.97091 9.01079e-09 0)
(0.97091 2.60676e-09 0)
(0.97091 9.61939e-09 0)
(0.97091 2.99206e-09 0)
(0.97091 9.95796e-09 0)
(0.97091 3.02101e-09 0)
(0.97091 9.6742e-09 0)
(0.97091 2.67191e-09 0)
(0.97091 9.66857e-09 0)
(0.97091 2.4164e-09 0)
(0.97091 8.78114e-09 0)
(0.97091 9.29422e-10 0)
(0.97091 6.95567e-09 0)
(0.97091 -1.63769e-09 0)
(0.97091 3.75835e-09 0)
(0.97091 -5.48332e-09 0)
(0.97091 -8.41432e-10 0)
(0.97091 -1.07381e-08 0)
(0.97091 -6.03952e-09 0)
(0.97091 -1.69184e-08 0)
(0.97091 -1.28101e-08 0)
(0.97091 -1.9759e-08 0)
(0.97091 -4.02701e-09 0)
)
;

boundaryField
{
    inandouthalf11
    {
        type            cyclic;
    }
    inandouthalf12
    {
        type            cyclic;
    }
    inandouthalf21
    {
        type            cyclic;
    }
    inandouthalf22
    {
        type            cyclic;
    }
    inandouthalf31
    {
        type            cyclic;
    }
    inandouthalf32
    {
        type            cyclic;
    }
    inandouthalf41
    {
        type            cyclic;
    }
    inandouthalf42
    {
        type            cyclic;
    }
    top
    {
        type            symmetryPlane;
    }
    walls
    {
        type            calculated;
        value           uniform (0 0 0);
    }
    frontAndBackPlanes
    {
        type            empty;
    }
}


// ************************************************************************* //
