/*--------------------------------*- C++ -*----------------------------------*\
| =========                 |                                                 |
| \\      /  F ield         | OpenFOAM: The Open Source CFD Toolbox           |
|  \\    /   O peration     | Version:  2.4.x                                 |
|   \\  /    A nd           | Web:      www.OpenFOAM.org                      |
|    \\/     M anipulation  |                                                 |
\*---------------------------------------------------------------------------*/
FoamFile
{
    version     2.0;
    format      ascii;
    class       volVectorField;
    location    "8.45";
    object      gradPf;
}
// * * * * * * * * * * * * * * * * * * * * * * * * * * * * * * * * * * * * * //

dimensions      [0 1 -2 0 0 0 0];

internalField   nonuniform List<vector> 
360
(
(0 69.5038 0)
(0 78.3218 0)
(0 0.594443 0)
(0 -12.3761 0)
(-3.34439e-14 -5.39939 0)
(-3.34447e-14 -2.93862 0)
(-3.34457e-14 -3.61954 0)
(0 -4.09407 0)
(-3.34482e-14 -4.15573 0)
(0 -4.1807 0)
(-3.34507e-14 -4.17284 0)
(0 -4.15968 0)
(-3.34533e-14 -4.16307 0)
(0 -4.16684 0)
(0 -4.18222 0)
(0 -4.19728 0)
(0 -4.20066 0)
(-3.346e-14 -4.19869 0)
(0 -4.21366 0)
(0 -4.21194 0)
(0 -4.21098 0)
(-3.34656e-14 -4.2263 0)
(0 -4.22577 0)
(0 -4.23086 0)
(0 -4.23634 0)
(-1.67357e-14 -4.23241 0)
(0 -4.24181 0)
(0 -4.25254 0)
(0 -4.24756 0)
(0 -4.24821 0)
(0 -4.26564 0)
(0 -4.25404 0)
(0 -4.26572 0)
(0 -4.2782 0)
(0 -4.269 0)
(1.67434e-14 -4.27494 0)
(0 -4.27772 0)
(0 -4.30279 0)
(0 -4.28047 0)
(0 -4.29035 0)
(0 -4.31957 0)
(0 -4.28902 0)
(1.67492e-14 -4.30937 0)
(0 -4.32384 0)
(0 -4.31498 0)
(0 -4.33814 0)
(0 -4.32002 0)
(0 -4.31741 0)
(0 -4.36274 0)
(0 -4.347 0)
(3.3513e-14 -4.33936 0)
(0 -4.3596 0)
(0 -4.36542 0)
(0 -4.35969 0)
(0 -4.37558 0)
(0 -4.37915 0)
(0 -4.37792 0)
(0 -4.3975 0)
(0 -4.37392 0)
(0 -4.39933 0)
(0 -4.40769 0)
(0 -4.40431 0)
(0 -4.41984 0)
(0 -4.41601 0)
(0 -4.41876 0)
(0 -4.42491 0)
(0 -4.43868 0)
(0 -4.43827 0)
(0 -4.42526 0)
(0 -4.44102 0)
(0 -4.46955 0)
(0 -4.44728 0)
(0 -4.44983 0)
(0 -4.46933 0)
(0 -4.47514 0)
(0 -4.47554 0)
(0 -4.46757 0)
(0 -4.47855 0)
(0 -4.48642 0)
(0 -4.48464 0)
(0 -4.48702 0)
(0 -4.49703 0)
(0 -4.50089 0)
(0 -4.50483 0)
(0 -4.50882 0)
(0 -4.51304 0)
(0 -4.51572 0)
(0 -4.51577 0)
(0 -4.51902 0)
(0 -4.52257 0)
(0 -4.52481 0)
(0 -4.52878 0)
(0 -4.53362 0)
(0 -4.5372 0)
(0 -4.54043 0)
(0 -4.54329 0)
(0 -4.54546 0)
(0 -4.54717 0)
(0 -4.54893 0)
(0 -4.55067 0)
(0 -4.55232 0)
(0 -4.55407 0)
(0 -4.55571 0)
(0 -4.55698 0)
(0 -4.55787 0)
(0 -4.55834 0)
(0 -4.55832 0)
(0 -4.5578 0)
(0 -4.55673 0)
(0 -4.55502 0)
(0 -4.55256 0)
(0 -4.54925 0)
(0 -4.54498 0)
(0 -4.53967 0)
(0 -4.53325 0)
(0 -4.52565 0)
(0 -4.51687 0)
(0 -4.50696 0)
(0 -4.49599 0)
(0 -4.48408 0)
(0 -4.47134 0)
(0 -4.45781 0)
(0 -4.4435 0)
(0 -4.42852 0)
(0 -4.41332 0)
(0 -4.3989 0)
(0 -4.38665 0)
(0 -4.37738 0)
(0 -4.36963 0)
(0 -4.3589 0)
(0 -4.34097 0)
(0 -4.32034 0)
(0 -4.31305 0)
(0 -4.32592 0)
(0 -4.33108 0)
(0 -4.29696 0)
(0 -4.26002 0)
(0 -4.3271 0)
(0 -4.54316 0)
(0 -4.68188 0)
(0 -4.42115 0)
(0 -4.35878 0)
(0 -4.89151 0)
(0 -5.48342 0)
(0 -19.5288 0)
(0 -17.5222 0)
(0 -5.79501e-06 0)
(0 0 0)
(0 0 0)
(0 0 0)
(0 0 0)
(0 0 0)
(0 0 0)
(0 0 0)
(0 0 0)
(0 0 0)
(0 0 0)
(0 0 0)
(0 0 0)
(0 0 0)
(0 0 0)
(0 0 0)
(0 0 0)
(0 0 0)
(0 0 0)
(0 0 0)
(0 0 0)
(0 0 0)
(0 0 0)
(0 0 0)
(0 0 0)
(0 0 0)
(0 0 0)
(0 0 0)
(0 0 0)
(0 0 0)
(0 0 0)
(0 0 0)
(0 0 0)
(0 0 0)
(0 0 0)
(0 0 0)
(0 0 0)
(0 0 0)
(0 0 0)
(0 0 0)
(0 0 0)
(0 0 0)
(0 0 0)
(0 0 0)
(0 0 0)
(0 0 0)
(0 0 0)
(0 0 0)
(0 0 0)
(0 0 0)
(0 0 0)
(0 0 0)
(0 0 0)
(0 0 0)
(0 0 0)
(0 0 0)
(0 0 0)
(0 0 0)
(0 0 0)
(0 0 0)
(0 0 0)
(0 0 0)
(0 0 0)
(0 0 0)
(0 0 0)
(0 0 0)
(0 0 0)
(0 0 0)
(0 0 0)
(0 0 0)
(0 0 0)
(0 0 0)
(0 0 0)
(0 0 0)
(0 0 0)
(0 0 0)
(0 0 0)
(0 0 0)
(0 0 0)
(0 0 0)
(0 0 0)
(0 0 0)
(0 0 0)
(0 0 0)
(0 0 0)
(0 0 0)
(0 0 0)
(0 0 0)
(0 0 0)
(0 0 0)
(0 0 0)
(0 0 0)
(0 0 0)
(0 0 0)
(0 0 0)
(0 0 0)
(0 0 0)
(0 0 0)
(0 0 0)
(0 0 0)
(0 0 0)
(0 0 0)
(0 0 0)
(0 0 0)
(0 0 0)
(0 0 0)
(0 0 0)
(0 0 0)
(0 0 0)
(0 0 0)
(0 0 0)
(0 0 0)
(0 0 0)
(0 0 0)
(0 0 0)
(0 0 0)
(0 0 0)
(0 0 0)
(0 0 0)
(0 0 0)
(0 0 0)
(0 0 0)
(0 0 0)
(0 0 0)
(0 0 0)
(0 0 0)
(0 0 0)
(0 0 0)
(0 0 0)
(0 0 0)
(0 0 0)
(0 0 0)
(0 0 0)
(0 0 0)
(0 0 0)
(0 0 0)
(0 0 0)
(0 0 0)
(0 0 0)
(0 0 0)
(0 0 0)
(0 0 0)
(0 0 0)
(0 0 0)
(0 0 0)
(0 0 0)
(0 0 0)
(0 0 0)
(0 0 0)
(0 0 0)
(0 0 0)
(0 0 0)
(0 0 0)
(0 0 0)
(0 0 0)
(0 0 0)
(0 0 0)
(0 0 0)
(0 0 0)
(0 0 0)
(0 0 0)
(0 0 0)
(0 0 0)
(0 0 0)
(0 0 0)
(0 0 0)
(0 0 0)
(0 0 0)
(0 0 0)
(0 0 0)
(0 0 0)
(0 0 0)
(0 0 0)
(0 0 0)
(0 0 0)
(0 0 0)
(0 0 0)
(0 0 0)
(0 0 0)
(0 0 0)
(0 0 0)
(0 0 0)
(0 0 0)
(0 0 0)
(0 0 0)
(0 0 0)
(0 0 0)
(0 0 0)
(0 0 0)
(0 0 0)
(0 0 0)
(0 0 0)
(0 0 0)
(0 0 0)
(0 0 0)
(0 0 0)
(0 0 0)
(0 0 0)
(0 0 0)
(0 0 0)
(0 0 0)
(0 0 0)
(0 0 0)
(0 0 0)
(0 0 0)
(0 0 0)
(0 0 0)
(0 0 0)
(0 0 0)
(0 0 0)
(0 0 0)
(0 0 0)
(0 0 0)
(0 0 0)
)
;

boundaryField
{
    inandouthalf11
    {
        type            cyclic;
    }
    inandouthalf12
    {
        type            cyclic;
    }
    inandouthalf21
    {
        type            cyclic;
    }
    inandouthalf22
    {
        type            cyclic;
    }
    inandouthalf31
    {
        type            cyclic;
    }
    inandouthalf32
    {
        type            cyclic;
    }
    inandouthalf41
    {
        type            cyclic;
    }
    inandouthalf42
    {
        type            cyclic;
    }
    top
    {
        type            symmetryPlane;
    }
    walls
    {
        type            calculated;
        value           uniform (0 0 0);
    }
    frontAndBackPlanes
    {
        type            empty;
    }
}


// ************************************************************************* //
