/*--------------------------------*- C++ -*----------------------------------*\
| =========                 |                                                 |
| \\      /  F ield         | OpenFOAM: The Open Source CFD Toolbox           |
|  \\    /   O peration     | Version:  2.4.x                                 |
|   \\  /    A nd           | Web:      www.OpenFOAM.org                      |
|    \\/     M anipulation  |                                                 |
\*---------------------------------------------------------------------------*/
FoamFile
{
    version     2.0;
    format      ascii;
    class       volScalarField;
    location    "8.45";
    object      k;
}
// * * * * * * * * * * * * * * * * * * * * * * * * * * * * * * * * * * * * * //

dimensions      [0 2 -2 0 0 0 0];

internalField   nonuniform List<scalar> 
360
(
1e-20
1e-20
1e-20
1e-20
1e-20
1e-20
1e-20
1e-20
1e-20
1e-20
1e-20
1e-20
1e-20
1e-20
1e-20
1e-20
1e-20
1e-20
1e-20
1e-20
1e-20
1e-20
1e-20
1e-20
1e-20
1e-20
1e-20
1e-20
1e-20
1e-20
1e-20
1e-20
1e-20
1e-20
1e-20
1e-20
1e-20
1e-20
1e-20
1e-20
1e-20
1e-20
1e-20
1e-20
1e-20
1e-20
1e-20
1e-20
1e-20
1e-20
1e-20
1e-20
1e-20
1e-20
1e-20
1e-20
1e-20
1e-20
1e-20
1e-20
1e-20
1e-20
1e-20
1e-20
1e-20
1e-20
1e-20
1e-20
1e-20
1e-20
1e-20
1e-20
1e-20
1e-20
1e-20
1e-20
1e-20
1e-20
1e-20
1e-20
1e-20
1e-20
1e-20
1e-20
1e-20
1e-20
1e-20
1e-20
1e-20
1e-20
1e-20
1e-20
1e-20
1e-20
1e-20
1e-20
1e-20
1e-20
1e-20
1e-20
1e-20
1e-20
1e-20
1e-20
1e-20
1e-20
1e-20
1e-20
1e-20
1e-20
1e-20
1e-20
1e-20
1e-20
1e-20
1e-20
1e-20
1e-20
1e-20
1e-20
1e-20
1e-20
1e-20
1e-20
1e-20
1e-20
1e-20
1e-20
1e-20
1e-20
1e-20
1e-20
1e-20
2.31698e-20
2.8627e-19
4.28984e-18
7.02242e-17
1.25252e-15
2.43528e-14
5.19562e-13
1.23293e-11
3.31242e-10
1.02644e-08
3.72476e-07
1.55584e-05
0.000474139
0.00437515
0.00925984
0.012028
0.0137509
0.0148363
0.0154885
0.0158267
0.0159232
0.0158287
0.0155815
0.0152117
0.0147436
0.0141971
0.0135889
0.0129328
0.0122411
0.0115242
0.0107913
0.0100508
0.00931062
0.00857794
0.00785997
0.00716381
0.00649669
0.00586592
0.00527878
0.00474221
0.00426218
0.0038429
0.00348609
0.0031904
0.0029516
0.0027632
0.0026176
0.00250707
0.00242457
0.00236405
0.00232062
0.0022904
0.00227038
0.00225826
0.00225228
0.00225108
0.0022536
0.00225903
0.00226672
0.00227617
0.00228695
0.00229874
0.00231126
0.00232429
0.00233762
0.0023511
0.00236459
0.00237797
0.00239127
0.00240452
0.00241761
0.00243046
0.00244294
0.00245495
0.00246639
0.00247716
0.00248713
0.00249619
0.00250424
0.00251115
0.0025168
0.00252108
0.00252386
0.00252501
0.00252441
0.00252193
0.00251744
0.00251082
0.00250192
0.00249063
0.00247682
0.00246035
0.0024411
0.00241895
0.00239378
0.00236548
0.00233394
0.00229905
0.00226072
0.00221887
0.00217342
0.00212431
0.0020715
0.00201495
0.00195466
0.00189063
0.00182291
0.00175156
0.00167668
0.00159842
0.00151694
0.00143248
0.00134532
0.0012558
0.00116433
0.00107138
0.000977515
0.000883383
0.000789715
0.000697334
0.000607146
0.000520132
0.000437321
0.000359746
0.000288391
0.000224106
0.000167513
0.000118926
7.83174e-05
4.53979e-05
1.99248e-05
3.95074e-06
1.87284e-07
3.59558e-09
6.35021e-11
1.11025e-12
1.9134e-14
3.22907e-16
5.30534e-18
9.02792e-20
1.01264e-20
1e-20
1e-20
1e-20
1e-20
1e-20
1e-20
1e-20
1e-20
1e-20
1e-20
1e-20
1e-20
1e-20
1e-20
1e-20
1e-20
1e-20
1e-20
1e-20
1e-20
1e-20
1e-20
1e-20
1e-20
1e-20
1e-20
1e-20
1e-20
1e-20
1e-20
1e-20
1e-20
1e-20
1e-20
1e-20
1e-20
1e-20
1e-20
1e-20
1e-20
1e-20
1e-20
1e-20
1e-20
1e-20
1e-20
1e-20
1e-20
1e-20
1e-20
1e-20
1e-20
1e-20
1e-20
1e-20
1e-20
1e-20
1e-20
1e-20
1e-20
1e-20
1e-20
1e-20
1e-20
1e-20
1e-20
1e-20
1e-20
1e-20
1e-20
1e-20
1e-20
1e-20
1e-20
1e-20
1e-20
1e-20
1e-20
1e-20
1e-20
1e-20
1e-20
1e-20
1e-20
1e-20
1e-20
)
;

boundaryField
{
    inandouthalf11
    {
        type            cyclic;
    }
    inandouthalf12
    {
        type            cyclic;
    }
    inandouthalf21
    {
        type            cyclic;
    }
    inandouthalf22
    {
        type            cyclic;
    }
    inandouthalf31
    {
        type            cyclic;
    }
    inandouthalf32
    {
        type            cyclic;
    }
    inandouthalf41
    {
        type            cyclic;
    }
    inandouthalf42
    {
        type            cyclic;
    }
    top
    {
        type            symmetryPlane;
    }
    walls
    {
        type            zeroGradient;
    }
    frontAndBackPlanes
    {
        type            empty;
    }
}


// ************************************************************************* //
