/*--------------------------------*- C++ -*----------------------------------*\
| =========                 |                                                 |
| \\      /  F ield         | OpenFOAM: The Open Source CFD Toolbox           |
|  \\    /   O peration     | Version:  2.4.x                                 |
|   \\  /    A nd           | Web:      www.OpenFOAM.org                      |
|    \\/     M anipulation  |                                                 |
\*---------------------------------------------------------------------------*/
FoamFile
{
    version     2.0;
    format      ascii;
    class       volScalarField;
    location    "8.45";
    object      pa;
}
// * * * * * * * * * * * * * * * * * * * * * * * * * * * * * * * * * * * * * //

dimensions      [1 -1 -2 0 0 0 0];

internalField   nonuniform List<scalar> 
360
(
2.90285e-16
2.92788e-16
2.93045e-16
2.92786e-16
2.92665e-16
2.92626e-16
2.92577e-16
2.92513e-16
2.92447e-16
2.9238e-16
2.92312e-16
2.92244e-16
2.92176e-16
2.92106e-16
2.92036e-16
2.91965e-16
2.91894e-16
2.91821e-16
2.91748e-16
2.91674e-16
2.916e-16
2.91524e-16
2.91448e-16
2.91371e-16
2.91294e-16
2.91215e-16
2.91137e-16
2.91057e-16
2.90976e-16
2.90895e-16
2.90813e-16
2.9073e-16
2.90648e-16
2.90563e-16
2.90479e-16
2.90393e-16
2.90307e-16
2.90219e-16
2.90131e-16
2.90043e-16
2.89952e-16
2.89862e-16
2.89771e-16
2.89678e-16
2.89585e-16
2.8949e-16
2.89395e-16
2.89299e-16
2.89202e-16
2.89103e-16
2.89004e-16
2.88903e-16
2.88802e-16
2.88699e-16
2.88596e-16
2.8849e-16
2.88384e-16
2.88276e-16
2.88167e-16
2.88057e-16
2.87945e-16
2.87833e-16
2.87718e-16
2.87602e-16
2.87485e-16
2.87366e-16
2.87246e-16
2.87124e-16
2.87e-16
2.86876e-16
2.86748e-16
2.86619e-16
2.8649e-16
2.86357e-16
2.86223e-16
2.86087e-16
2.85949e-16
2.85809e-16
2.85667e-16
2.85523e-16
2.85377e-16
2.85228e-16
2.85077e-16
2.84923e-16
2.84768e-16
2.84609e-16
2.84448e-16
2.84285e-16
2.84118e-16
2.83949e-16
2.83777e-16
2.83602e-16
2.83424e-16
2.83242e-16
2.83057e-16
2.82869e-16
2.82677e-16
2.82481e-16
2.82282e-16
2.82078e-16
2.81871e-16
2.81659e-16
2.81443e-16
2.81222e-16
2.80996e-16
2.80765e-16
2.80529e-16
2.80288e-16
2.80041e-16
2.79789e-16
2.7953e-16
2.79265e-16
2.78993e-16
2.78715e-16
2.78429e-16
2.78137e-16
2.77836e-16
2.77527e-16
2.7721e-16
2.76884e-16
2.76548e-16
2.76203e-16
2.75847e-16
2.75479e-16
2.75101e-16
2.74709e-16
2.74304e-16
2.73884e-16
2.73448e-16
2.72994e-16
2.72522e-16
2.72031e-16
2.71486e-16
6.24041e-16
7.68184e-15
1.14776e-13
1.87322e-12
3.33068e-11
6.45395e-10
1.37177e-08
3.24607e-07
9.13307e-06
0.000708046
0.0676012
1.71206
12.7815
12.0625
11.6133
10.4586
9.19798
7.97285
6.87028
5.88168
5.00097
4.22236
3.53912
2.94395
2.42947
1.98809
1.61247
1.29558
1.03064
0.8113
0.631612
0.486073
0.369625
0.277672
0.206072
0.151141
0.109638
0.0787618
0.0561258
0.0397409
0.0279995
0.019662
0.0138132
0.00977865
0.00704184
0.00520052
0.00395414
0.00309376
0.00248308
0.00203641
0.00170022
0.00144064
0.00123572
0.00107082
0.000935931
0.000823992
0.000729939
0.000650046
0.000581525
0.000522253
0.000470592
0.000425255
0.000385224
0.000349678
0.000317955
0.000289508
0.000263889
0.00024072
0.000219476
0.000199771
0.000181469
0.000164452
0.000148617
0.000133873
0.000120144
0.000107372
9.55074e-05
8.45164e-05
7.43711e-05
6.50449e-05
5.65178e-05
4.87818e-05
4.18181e-05
3.55932e-05
3.00776e-05
2.52371e-05
2.10274e-05
1.73919e-05
1.42733e-05
1.16261e-05
9.39572e-06
7.52693e-06
5.97454e-06
4.69605e-06
3.6496e-06
2.80137e-06
2.11595e-06
1.57229e-06
1.13827e-06
8.02131e-07
5.32448e-07
3.45415e-07
1.8971e-07
0
0
0
0
0
0
0
0
0
0
0
0
0
0
0
0
0
0
0
0
0
0
0
0
0
0
0
0
0
0
0
0
0
0
0
0
0
0
0
0
0
0
0
0
0
0
0
0
0
0
0
0
0
0
0
0
0
0
0
0
0
0
0
0
0
0
0
0
0
0
0
0
0
0
0
0
0
0
0
0
0
0
0
0
0
0
0
0
0
0
0
0
0
0
0
0
0
0
0
0
0
0
0
0
0
0
0
0
0
0
0
0
0
0
0
0
0
0
0
0
0
0
0
0
)
;

boundaryField
{
    inandouthalf11
    {
        type            cyclic;
    }
    inandouthalf12
    {
        type            cyclic;
    }
    inandouthalf21
    {
        type            cyclic;
    }
    inandouthalf22
    {
        type            cyclic;
    }
    inandouthalf31
    {
        type            cyclic;
    }
    inandouthalf32
    {
        type            cyclic;
    }
    inandouthalf41
    {
        type            cyclic;
    }
    inandouthalf42
    {
        type            cyclic;
    }
    top
    {
        type            symmetryPlane;
    }
    walls
    {
        type            calculated;
        value           uniform 2.90285e-16;
    }
    frontAndBackPlanes
    {
        type            empty;
    }
}


// ************************************************************************* //
