/*--------------------------------*- C++ -*----------------------------------*\
| =========                 |                                                 |
| \\      /  F ield         | OpenFOAM: The Open Source CFD Toolbox           |
|  \\    /   O peration     | Version:  2.4.x                                 |
|   \\  /    A nd           | Web:      www.OpenFOAM.org                      |
|    \\/     M anipulation  |                                                 |
\*---------------------------------------------------------------------------*/
FoamFile
{
    version     2.0;
    format      ascii;
    class       surfaceScalarField;
    location    "8.45";
    object      phib;
}
// * * * * * * * * * * * * * * * * * * * * * * * * * * * * * * * * * * * * * //

dimensions      [0 3 -1 0 0 0 0];

internalField   nonuniform List<scalar> 
359
(
1.993e-13
5.0345e-13
7.89907e-13
1.07026e-12
1.36252e-12
1.66445e-12
1.97062e-12
2.279e-12
2.58926e-12
2.90152e-12
3.21564e-12
3.53119e-12
3.84778e-12
4.16498e-12
4.48248e-12
4.80001e-12
5.11731e-12
5.43407e-12
5.74998e-12
6.06485e-12
6.37831e-12
6.69021e-12
7.00033e-12
7.30848e-12
7.61451e-12
7.91829e-12
8.21966e-12
8.51862e-12
8.81507e-12
9.10897e-12
9.40028e-12
9.68909e-12
9.97528e-12
1.0259e-11
1.05403e-11
1.08192e-11
1.10957e-11
1.137e-11
1.16422e-11
1.19122e-11
1.21803e-11
1.24465e-11
1.27107e-11
1.29733e-11
1.32342e-11
1.34935e-11
1.37513e-11
1.40075e-11
1.42623e-11
1.45159e-11
1.47681e-11
1.5019e-11
1.52687e-11
1.55172e-11
1.57645e-11
1.60107e-11
1.62556e-11
1.64994e-11
1.6742e-11
1.69832e-11
1.72234e-11
1.74622e-11
1.77e-11
1.79365e-11
1.81718e-11
1.84057e-11
1.86382e-11
1.88694e-11
1.90991e-11
1.93271e-11
1.95537e-11
1.97788e-11
2.00022e-11
2.0224e-11
2.04442e-11
2.06627e-11
2.08794e-11
2.10942e-11
2.1307e-11
2.15178e-11
2.17265e-11
2.1933e-11
2.21375e-11
2.23397e-11
2.25398e-11
2.27377e-11
2.29333e-11
2.31265e-11
2.33173e-11
2.35056e-11
2.36912e-11
2.38742e-11
2.40546e-11
2.42323e-11
2.44073e-11
2.45797e-11
2.47494e-11
2.49164e-11
2.50805e-11
2.52419e-11
2.54005e-11
2.55561e-11
2.57089e-11
2.58588e-11
2.60059e-11
2.61501e-11
2.62916e-11
2.64304e-11
2.65666e-11
2.67003e-11
2.68318e-11
2.69613e-11
2.70889e-11
2.72149e-11
2.73397e-11
2.74634e-11
2.75864e-11
2.77089e-11
2.7831e-11
2.79528e-11
2.80743e-11
2.81954e-11
2.83158e-11
2.84352e-11
2.85531e-11
2.86691e-11
2.8783e-11
2.88946e-11
2.90043e-11
2.91126e-11
2.92204e-11
2.93288e-11
2.94397e-11
2.95551e-11
2.96772e-11
2.98074e-11
2.9944e-11
3.00814e-11
3.02085e-11
3.03077e-11
3.036e-11
3.03565e-11
3.03103e-11
3.02385e-11
2.83987e-11
-3.32528e-09
-4.69662e-09
-4.76253e-09
-4.64274e-09
-4.44255e-09
-4.20748e-09
-3.96147e-09
-3.71702e-09
-3.47692e-09
-3.24075e-09
-3.00727e-09
-2.77552e-09
-2.54508e-09
-2.31664e-09
-2.09122e-09
-1.87046e-09
-1.65632e-09
-1.45088e-09
-1.2562e-09
-1.07418e-09
-9.06405e-10
-7.54144e-10
-6.18242e-10
-4.99109e-10
-3.9668e-10
-3.10383e-10
-2.39118e-10
-1.81336e-10
-1.3529e-10
-9.93701e-11
-7.2175e-11
-5.23191e-11
-3.82863e-11
-2.85506e-11
-2.17989e-11
-1.70484e-11
-1.36296e-11
-1.1107e-11
-9.20061e-12
-7.7285e-12
-6.57005e-12
-5.64327e-12
-4.89111e-12
-4.27292e-12
-3.75917e-12
-3.32796e-12
-2.96282e-12
-2.65114e-12
-2.38312e-12
-2.1511e-12
-1.94897e-12
-1.77182e-12
-1.61568e-12
-1.47728e-12
-1.35394e-12
-1.24342e-12
-1.14193e-12
-1.04842e-12
-9.61983e-13
-8.81794e-13
-8.07134e-13
-7.37379e-13
-6.72016e-13
-6.10638e-13
-5.52936e-13
-4.98691e-13
-4.47747e-13
-4.00007e-13
-3.55466e-13
-3.14169e-13
-2.7611e-13
-2.41263e-13
-2.09626e-13
-1.8115e-13
-1.55708e-13
-1.33105e-13
-1.13175e-13
-9.57493e-14
-8.05909e-14
-6.74735e-14
-5.62033e-14
-4.65739e-14
-3.83907e-14
-3.14621e-14
-2.56381e-14
-2.07588e-14
-1.66931e-14
-1.32706e-14
-1.05899e-14
-8.55429e-15
-6.55619e-15
-4.82048e-15
-3.48142e-15
-2.45926e-15
-1.69946e-15
-1.10715e-15
-7.2628e-16
-3.6554e-16
-2.3561e-16
8.2016e-17
7.45261e-18
7.23404e-18
7.02208e-18
6.79327e-18
6.57117e-18
6.33234e-18
6.09712e-18
5.8427e-18
5.59069e-18
5.32236e-18
5.05685e-18
4.77945e-18
4.50577e-18
4.22435e-18
3.94826e-18
3.67314e-18
3.41001e-18
3.16433e-18
2.94373e-18
2.75289e-18
2.59151e-18
2.49323e-18
2.37578e-18
2.27425e-18
2.18276e-18
2.09928e-18
2.02561e-18
1.96019e-18
1.90021e-18
1.84218e-18
1.78115e-18
1.72102e-18
1.65459e-18
1.58784e-18
1.52396e-18
1.47189e-18
1.42131e-18
1.37134e-18
1.30958e-18
1.25242e-18
1.17923e-18
1.02646e-18
9.38247e-19
8.61694e-19
7.74738e-19
6.85094e-19
5.8007e-19
4.78937e-19
3.73073e-19
2.76512e-19
2.37402e-19
1.46602e-19
1.47575e-19
1.62069e-19
1.68917e-19
1.92305e-19
2.08538e-19
2.27173e-19
2.38034e-19
2.65499e-19
2.84179e-19
3.05872e-19
3.08298e-19
3.27371e-19
3.24819e-19
3.26436e-19
3.21213e-19
3.43539e-19
3.59362e-19
3.76937e-19
3.74444e-19
3.88598e-19
3.78261e-19
3.71976e-19
3.54515e-19
3.66246e-19
3.59262e-19
3.55148e-19
3.29748e-19
3.14058e-19
3.11436e-19
3.64144e-19
9.26621e-19
1.15189e-18
1.82868e-18
2.55697e-18
3.16432e-18
3.92166e-18
4.40708e-18
4.9129e-18
5.1715e-18
5.95017e-18
6.3537e-18
6.76847e-18
6.60693e-18
6.91073e-18
6.53742e-18
6.22502e-18
5.55712e-18
5.89463e-18
5.72537e-18
5.59996e-18
4.50851e-18
4.0415e-18
2.6172e-18
1.12157e-18
-1.05004e-18
-3.32295e-18
-5.79548e-18
-8.3964e-18
-1.04848e-17
-1.48221e-17
-1.58429e-17
-1.60962e-17
)
;

boundaryField
{
    inandouthalf11
    {
        type            cyclic;
        value           nonuniform List<scalar> 
100
(
-2.05518e-10
-2.04424e-10
-2.04279e-10
-2.04447e-10
-2.04539e-10
-2.04582e-10
-2.04631e-10
-2.04688e-10
-2.04746e-10
-2.04805e-10
-2.04865e-10
-2.04924e-10
-2.04984e-10
-2.05045e-10
-2.05106e-10
-2.05167e-10
-2.05229e-10
-2.05291e-10
-2.05353e-10
-2.05416e-10
-2.05479e-10
-2.05543e-10
-2.05606e-10
-2.0567e-10
-2.05735e-10
-2.05799e-10
-2.05864e-10
-2.05929e-10
-2.05995e-10
-2.0606e-10
-2.06126e-10
-2.06193e-10
-2.06259e-10
-2.06327e-10
-2.06394e-10
-2.06462e-10
-2.0653e-10
-2.06598e-10
-2.06668e-10
-2.06736e-10
-2.06807e-10
-2.06877e-10
-2.06947e-10
-2.07019e-10
-2.0709e-10
-2.07163e-10
-2.07236e-10
-2.07309e-10
-2.07383e-10
-2.07458e-10
-2.07532e-10
-2.07608e-10
-2.07685e-10
-2.07762e-10
-2.0784e-10
-2.07919e-10
-2.07997e-10
-2.08078e-10
-2.08159e-10
-2.0824e-10
-2.08323e-10
-2.08405e-10
-2.0849e-10
-2.08574e-10
-2.0866e-10
-2.08747e-10
-2.08834e-10
-2.08923e-10
-2.09013e-10
-2.09103e-10
-2.09194e-10
-2.09287e-10
-2.0938e-10
-2.09475e-10
-2.09571e-10
-2.09668e-10
-2.09766e-10
-2.09866e-10
-2.09966e-10
-2.10068e-10
-2.10172e-10
-2.10276e-10
-2.10382e-10
-2.1049e-10
-2.10599e-10
-2.10709e-10
-2.10822e-10
-2.10935e-10
-2.11051e-10
-2.11168e-10
-2.11287e-10
-2.11408e-10
-2.11531e-10
-2.11656e-10
-2.11783e-10
-2.11912e-10
-2.12043e-10
-2.12177e-10
-2.12313e-10
-2.12452e-10
)
;
    }
    inandouthalf12
    {
        type            cyclic;
        value           nonuniform List<scalar> 
100
(
2.05518e-10
2.04424e-10
2.04279e-10
2.04447e-10
2.04539e-10
2.04582e-10
2.04631e-10
2.04688e-10
2.04746e-10
2.04805e-10
2.04865e-10
2.04924e-10
2.04984e-10
2.05045e-10
2.05106e-10
2.05167e-10
2.05229e-10
2.05291e-10
2.05353e-10
2.05416e-10
2.05479e-10
2.05543e-10
2.05606e-10
2.0567e-10
2.05735e-10
2.05799e-10
2.05864e-10
2.05929e-10
2.05995e-10
2.0606e-10
2.06126e-10
2.06193e-10
2.06259e-10
2.06327e-10
2.06394e-10
2.06462e-10
2.0653e-10
2.06598e-10
2.06668e-10
2.06736e-10
2.06807e-10
2.06877e-10
2.06947e-10
2.07019e-10
2.0709e-10
2.07163e-10
2.07236e-10
2.07309e-10
2.07383e-10
2.07458e-10
2.07532e-10
2.07608e-10
2.07685e-10
2.07762e-10
2.0784e-10
2.07919e-10
2.07997e-10
2.08078e-10
2.08159e-10
2.0824e-10
2.08323e-10
2.08405e-10
2.0849e-10
2.08574e-10
2.0866e-10
2.08747e-10
2.08834e-10
2.08923e-10
2.09013e-10
2.09103e-10
2.09194e-10
2.09287e-10
2.0938e-10
2.09475e-10
2.09571e-10
2.09668e-10
2.09766e-10
2.09866e-10
2.09966e-10
2.10068e-10
2.10172e-10
2.10276e-10
2.10382e-10
2.1049e-10
2.10599e-10
2.10709e-10
2.10822e-10
2.10935e-10
2.11051e-10
2.11168e-10
2.11287e-10
2.11408e-10
2.11531e-10
2.11656e-10
2.11783e-10
2.11912e-10
2.12043e-10
2.12177e-10
2.12313e-10
2.12452e-10
)
;
    }
    inandouthalf21
    {
        type            cyclic;
        value           nonuniform List<scalar> 
100
(
-2.12594e-10
-2.12738e-10
-2.12885e-10
-2.13035e-10
-2.13188e-10
-2.13345e-10
-2.13505e-10
-2.13668e-10
-2.13835e-10
-2.14007e-10
-2.14182e-10
-2.14361e-10
-2.14545e-10
-2.14734e-10
-2.14928e-10
-2.15127e-10
-2.15331e-10
-2.15541e-10
-2.15757e-10
-2.1598e-10
-2.16209e-10
-2.16445e-10
-2.16689e-10
-2.16941e-10
-2.17201e-10
-2.1747e-10
-2.17749e-10
-2.18039e-10
-2.1834e-10
-2.18654e-10
-2.18982e-10
-2.19323e-10
-2.19681e-10
-2.20058e-10
-2.20458e-10
-2.20882e-10
-2.21326e-10
-2.21798e-10
-2.2232e-10
-2.22917e-10
-2.23564e-10
-2.24189e-10
-2.24935e-10
-2.25899e-10
-2.28823e-10
-1.24144e-09
-9.85589e-08
-2.23365e-07
-3.28061e-07
-4.18138e-07
-4.9734e-07
-5.67869e-07
-6.31334e-07
-6.88862e-07
-7.41306e-07
-7.89335e-07
-8.33491e-07
-8.74213e-07
-9.11868e-07
-9.46764e-07
-9.79157e-07
-1.00927e-06
-1.03728e-06
-1.06335e-06
-1.0876e-06
-1.11016e-06
-1.13109e-06
-1.15047e-06
-1.16834e-06
-1.18474e-06
-1.19969e-06
-1.21318e-06
-1.22523e-06
-1.23582e-06
-1.245e-06
-1.2528e-06
-1.25929e-06
-1.26461e-06
-1.26888e-06
-1.27225e-06
-1.27489e-06
-1.27691e-06
-1.27845e-06
-1.27958e-06
-1.2804e-06
-1.28096e-06
-1.2813e-06
-1.28146e-06
-1.28148e-06
-1.28137e-06
-1.28115e-06
-1.28084e-06
-1.28044e-06
-1.27997e-06
-1.27944e-06
-1.27885e-06
-1.2782e-06
-1.27751e-06
-1.27677e-06
-1.276e-06
)
;
    }
    inandouthalf22
    {
        type            cyclic;
        value           nonuniform List<scalar> 
100
(
2.12594e-10
2.12738e-10
2.12885e-10
2.13035e-10
2.13188e-10
2.13345e-10
2.13505e-10
2.13668e-10
2.13835e-10
2.14007e-10
2.14182e-10
2.14361e-10
2.14545e-10
2.14734e-10
2.14928e-10
2.15127e-10
2.15331e-10
2.15541e-10
2.15757e-10
2.1598e-10
2.16209e-10
2.16445e-10
2.16689e-10
2.16941e-10
2.17201e-10
2.1747e-10
2.17749e-10
2.18039e-10
2.1834e-10
2.18654e-10
2.18982e-10
2.19323e-10
2.19681e-10
2.20058e-10
2.20458e-10
2.20882e-10
2.21326e-10
2.21798e-10
2.2232e-10
2.22917e-10
2.23564e-10
2.24189e-10
2.24935e-10
2.25899e-10
2.28823e-10
1.24144e-09
9.85589e-08
2.23365e-07
3.28061e-07
4.18138e-07
4.9734e-07
5.67869e-07
6.31334e-07
6.88862e-07
7.41306e-07
7.89335e-07
8.33491e-07
8.74213e-07
9.11868e-07
9.46764e-07
9.79157e-07
1.00927e-06
1.03728e-06
1.06335e-06
1.0876e-06
1.11016e-06
1.13109e-06
1.15047e-06
1.16834e-06
1.18474e-06
1.19969e-06
1.21318e-06
1.22523e-06
1.23582e-06
1.245e-06
1.2528e-06
1.25929e-06
1.26461e-06
1.26888e-06
1.27225e-06
1.27489e-06
1.27691e-06
1.27845e-06
1.27958e-06
1.2804e-06
1.28096e-06
1.2813e-06
1.28146e-06
1.28148e-06
1.28137e-06
1.28115e-06
1.28084e-06
1.28044e-06
1.27997e-06
1.27944e-06
1.27885e-06
1.2782e-06
1.27751e-06
1.27677e-06
1.276e-06
)
;
    }
    inandouthalf31
    {
        type            cyclic;
        value           nonuniform List<scalar> 
110
(
-1.27519e-06
-1.3002e-06
-1.32564e-06
-1.35153e-06
-1.37787e-06
-1.40466e-06
-1.43191e-06
-1.45964e-06
-1.48783e-06
-1.51651e-06
-1.54567e-06
-1.57533e-06
-1.60549e-06
-1.63615e-06
-1.66733e-06
-1.69902e-06
-1.73124e-06
-1.764e-06
-1.7973e-06
-1.83114e-06
-1.86554e-06
-1.9005e-06
-1.93603e-06
-1.97214e-06
-2.00884e-06
-2.04613e-06
-2.08403e-06
-2.12254e-06
-2.16167e-06
-2.20144e-06
-2.24186e-06
-2.28293e-06
-2.32467e-06
-2.3671e-06
-2.41022e-06
-2.45406e-06
-2.49862e-06
-2.54394e-06
-2.59002e-06
-2.63689e-06
-2.68458e-06
-2.73311e-06
-2.78251e-06
-2.83281e-06
-2.88405e-06
-2.93628e-06
-2.98953e-06
-3.04386e-06
-3.09934e-06
-3.15602e-06
-3.21398e-06
-3.2733e-06
-3.33409e-06
-3.39645e-06
-3.46049e-06
-3.52634e-06
-3.59415e-06
-3.66404e-06
-3.73617e-06
-3.81064e-06
-3.88754e-06
-3.96691e-06
-4.04869e-06
-4.13269e-06
-4.21827e-06
-4.30438e-06
-4.39178e-06
-4.48092e-06
-4.57187e-06
-4.66467e-06
-4.75935e-06
-4.85595e-06
-4.95451e-06
-5.05508e-06
-5.15768e-06
-5.26237e-06
-5.36918e-06
-5.47816e-06
-5.58935e-06
-5.7028e-06
-5.81855e-06
-5.93665e-06
-6.05715e-06
-6.1801e-06
-6.30553e-06
-6.43352e-06
-6.5641e-06
-6.69734e-06
-6.83328e-06
-6.97197e-06
-7.11349e-06
-7.25787e-06
-7.40519e-06
-7.55549e-06
-7.70885e-06
-7.86532e-06
-8.02496e-06
-8.18785e-06
-8.35404e-06
-8.5236e-06
-8.69661e-06
-8.87313e-06
-9.05323e-06
-9.23698e-06
-9.42447e-06
-9.61576e-06
-9.81094e-06
-1.00101e-05
-1.02133e-05
-1.04206e-05
)
;
    }
    inandouthalf32
    {
        type            cyclic;
        value           nonuniform List<scalar> 
110
(
1.27519e-06
1.3002e-06
1.32564e-06
1.35153e-06
1.37787e-06
1.40466e-06
1.43191e-06
1.45964e-06
1.48783e-06
1.51651e-06
1.54567e-06
1.57533e-06
1.60549e-06
1.63615e-06
1.66733e-06
1.69902e-06
1.73124e-06
1.764e-06
1.7973e-06
1.83114e-06
1.86554e-06
1.9005e-06
1.93603e-06
1.97214e-06
2.00884e-06
2.04613e-06
2.08403e-06
2.12254e-06
2.16167e-06
2.20144e-06
2.24186e-06
2.28293e-06
2.32467e-06
2.3671e-06
2.41022e-06
2.45406e-06
2.49862e-06
2.54394e-06
2.59002e-06
2.63689e-06
2.68458e-06
2.73311e-06
2.78251e-06
2.83281e-06
2.88405e-06
2.93628e-06
2.98953e-06
3.04386e-06
3.09934e-06
3.15602e-06
3.21398e-06
3.2733e-06
3.33409e-06
3.39645e-06
3.46049e-06
3.52634e-06
3.59415e-06
3.66404e-06
3.73617e-06
3.81064e-06
3.88754e-06
3.96691e-06
4.04869e-06
4.13269e-06
4.21827e-06
4.30438e-06
4.39178e-06
4.48092e-06
4.57187e-06
4.66467e-06
4.75935e-06
4.85595e-06
4.95451e-06
5.05508e-06
5.15768e-06
5.26237e-06
5.36918e-06
5.47816e-06
5.58935e-06
5.7028e-06
5.81855e-06
5.93665e-06
6.05715e-06
6.1801e-06
6.30553e-06
6.43352e-06
6.5641e-06
6.69734e-06
6.83328e-06
6.97197e-06
7.11349e-06
7.25787e-06
7.40519e-06
7.55549e-06
7.70885e-06
7.86532e-06
8.02496e-06
8.18785e-06
8.35404e-06
8.5236e-06
8.69661e-06
8.87313e-06
9.05323e-06
9.23698e-06
9.42447e-06
9.61576e-06
9.81094e-06
1.00101e-05
1.02133e-05
1.04206e-05
)
;
    }
    inandouthalf41
    {
        type            cyclic;
        value           nonuniform List<scalar> 
50
(
-9.32746e-06
-9.32746e-06
-9.32746e-06
-9.32746e-06
-9.32746e-06
-9.32746e-06
-9.32746e-06
-9.32746e-06
-9.32746e-06
-9.32746e-06
-9.32746e-06
-9.32746e-06
-9.32746e-06
-9.32746e-06
-9.32746e-06
-9.32746e-06
-9.32746e-06
-9.32746e-06
-9.32746e-06
-9.32746e-06
-9.32746e-06
-9.32746e-06
-9.32746e-06
-9.32746e-06
-9.32746e-06
-9.32746e-06
-9.32746e-06
-9.32746e-06
-9.32746e-06
-9.32746e-06
-9.32746e-06
-9.32746e-06
-9.32746e-06
-9.32746e-06
-9.32746e-06
-9.32746e-06
-9.32746e-06
-9.32746e-06
-9.32746e-06
-9.32746e-06
-9.32746e-06
-9.32746e-06
-9.32746e-06
-9.32746e-06
-9.32746e-06
-9.32746e-06
-9.32746e-06
-9.32746e-06
-9.32746e-06
-9.32746e-06
)
;
    }
    inandouthalf42
    {
        type            cyclic;
        value           nonuniform List<scalar> 
50
(
9.32746e-06
9.32746e-06
9.32746e-06
9.32746e-06
9.32746e-06
9.32746e-06
9.32746e-06
9.32746e-06
9.32746e-06
9.32746e-06
9.32746e-06
9.32746e-06
9.32746e-06
9.32746e-06
9.32746e-06
9.32746e-06
9.32746e-06
9.32746e-06
9.32746e-06
9.32746e-06
9.32746e-06
9.32746e-06
9.32746e-06
9.32746e-06
9.32746e-06
9.32746e-06
9.32746e-06
9.32746e-06
9.32746e-06
9.32746e-06
9.32746e-06
9.32746e-06
9.32746e-06
9.32746e-06
9.32746e-06
9.32746e-06
9.32746e-06
9.32746e-06
9.32746e-06
9.32746e-06
9.32746e-06
9.32746e-06
9.32746e-06
9.32746e-06
9.32746e-06
9.32746e-06
9.32746e-06
9.32746e-06
9.32746e-06
9.32746e-06
)
;
    }
    top
    {
        type            symmetryPlane;
        value           uniform 0;
    }
    walls
    {
        type            fixedValue;
        value           uniform 0;
    }
    frontAndBackPlanes
    {
        type            empty;
        value           nonuniform 0();
    }
}


// ************************************************************************* //
