/*--------------------------------*- C++ -*----------------------------------*\
| =========                 |                                                 |
| \\      /  F ield         | OpenFOAM: The Open Source CFD Toolbox           |
|  \\    /   O peration     | Version:  2.4.x                                 |
|   \\  /    A nd           | Web:      www.OpenFOAM.org                      |
|    \\/     M anipulation  |                                                 |
\*---------------------------------------------------------------------------*/
FoamFile
{
    version     2.0;
    format      ascii;
    class       volTensorField;
    location    "8.45";
    object      Tauf;
}
// * * * * * * * * * * * * * * * * * * * * * * * * * * * * * * * * * * * * * //

dimensions      [0 2 -2 0 0 0 0];

internalField   nonuniform List<tensor> 
360
(
(0 4.09941e-07 0 4.09941e-07 2.23431e-10 0 0 0 0)
(0 -1.23818e-09 0 -1.23818e-09 2.74319e-10 0 0 0 0)
(0 2.31285e-11 0 2.31285e-11 2.90541e-10 0 0 0 0)
(0 2.59878e-10 0 2.59878e-10 2.84974e-10 0 0 0 0)
(-5.16988e-23 1.35716e-10 0 1.35716e-10 2.91675e-10 0 0 0 0)
(-5.16988e-23 9.17978e-11 0 9.17978e-11 3.00535e-10 0 0 0 0)
(-2.58494e-23 1.05499e-10 0 1.05499e-10 3.05664e-10 0 0 0 0)
(0 1.15228e-10 0 1.15228e-10 3.08304e-10 0 0 0 0)
(-5.16988e-23 1.17216e-10 0 1.17216e-10 3.10292e-10 0 0 0 0)
(0 1.18519e-10 0 1.18519e-10 3.12226e-10 0 0 0 0)
(-5.16988e-23 1.19178e-10 0 1.19178e-10 3.14011e-10 0 0 0 0)
(0 1.19698e-10 0 1.19698e-10 3.1545e-10 0 0 0 0)
(-2.58494e-23 1.20495e-10 0 1.20495e-10 3.16482e-10 0 0 0 0)
(0 1.21263e-10 0 1.21263e-10 3.17123e-10 0 0 0 0)
(0 1.22234e-10 0 1.22234e-10 3.17434e-10 0 0 0 0)
(0 1.2318e-10 0 1.2318e-10 3.17465e-10 0 0 0 0)
(0 1.2387e-10 0 1.2387e-10 3.1722e-10 0 0 0 0)
(-2.58494e-23 1.24428e-10 0 1.24428e-10 3.16681e-10 0 0 0 0)
(0 1.25313e-10 0 1.25313e-10 3.15865e-10 0 0 0 0)
(0 1.25829e-10 0 1.25829e-10 3.14777e-10 0 0 0 0)
(0 1.26346e-10 0 1.26346e-10 3.13421e-10 0 0 0 0)
(-5.16988e-23 1.27187e-10 0 1.27187e-10 3.11846e-10 0 0 0 0)
(0 1.27686e-10 0 1.27686e-10 3.10071e-10 0 0 0 0)
(0 1.28297e-10 0 1.28297e-10 3.08113e-10 0 0 0 0)
(0 1.2891e-10 0 1.2891e-10 3.05998e-10 0 0 0 0)
(-2.58494e-23 1.29315e-10 0 1.29315e-10 3.03737e-10 0 0 0 0)
(0 1.30016e-10 0 1.30016e-10 3.01369e-10 0 0 0 0)
(0 1.30753e-10 0 1.30753e-10 2.98936e-10 0 0 0 0)
(0 1.31151e-10 0 1.31151e-10 2.9644e-10 0 0 0 0)
(0 1.31683e-10 0 1.31683e-10 2.93889e-10 0 0 0 0)
(0 1.32612e-10 0 1.32612e-10 2.91338e-10 0 0 0 0)
(0 1.32891e-10 0 1.32891e-10 2.88775e-10 0 0 0 0)
(0 1.33734e-10 0 1.33734e-10 2.86237e-10 0 0 0 0)
(0 1.34612e-10 0 1.34612e-10 2.83753e-10 0 0 0 0)
(0 1.35015e-10 0 1.35015e-10 2.813e-10 0 0 0 0)
(2.58494e-23 1.35788e-10 0 1.35788e-10 2.78897e-10 0 0 0 0)
(0 1.36521e-10 0 1.36521e-10 2.76556e-10 0 0 0 0)
(0 1.37824e-10 0 1.37824e-10 2.74331e-10 0 0 0 0)
(0 1.38001e-10 0 1.38001e-10 2.7216e-10 0 0 0 0)
(0 1.39003e-10 0 1.39003e-10 2.7006e-10 0 0 0 0)
(0 1.40512e-10 0 1.40512e-10 2.68086e-10 0 0 0 0)
(0 1.40563e-10 0 1.40563e-10 2.66152e-10 0 0 0 0)
(2.58494e-23 1.41929e-10 0 1.41929e-10 2.64308e-10 0 0 0 0)
(0 1.43177e-10 0 1.43177e-10 2.62574e-10 0 0 0 0)
(0 1.43871e-10 0 1.43871e-10 2.60905e-10 0 0 0 0)
(0 1.45427e-10 0 1.45427e-10 2.59333e-10 0 0 0 0)
(0 1.45924e-10 0 1.45924e-10 2.57784e-10 0 0 0 0)
(0 1.46863e-10 0 1.46863e-10 2.56258e-10 0 0 0 0)
(0 1.49131e-10 0 1.49131e-10 2.54867e-10 0 0 0 0)
(0 1.49787e-10 0 1.49787e-10 2.53529e-10 0 0 0 0)
(2.58494e-23 1.50699e-10 0 1.50699e-10 2.52215e-10 0 0 0 0)
(0 1.52402e-10 0 1.52402e-10 2.50944e-10 0 0 0 0)
(0 1.53755e-10 0 1.53755e-10 2.49714e-10 0 0 0 0)
(0 1.54803e-10 0 1.54803e-10 2.48493e-10 0 0 0 0)
(0 1.56518e-10 0 1.56518e-10 2.47309e-10 0 0 0 0)
(0 1.579e-10 0 1.579e-10 2.46137e-10 0 0 0 0)
(0 1.59193e-10 0 1.59193e-10 2.44948e-10 0 0 0 0)
(0 1.61122e-10 0 1.61122e-10 2.43779e-10 0 0 0 0)
(0 1.61798e-10 0 1.61798e-10 2.42533e-10 0 0 0 0)
(0 1.63995e-10 0 1.63995e-10 2.41314e-10 0 0 0 0)
(0 1.65707e-10 0 1.65707e-10 2.40112e-10 0 0 0 0)
(0 1.6712e-10 0 1.6712e-10 2.38911e-10 0 0 0 0)
(0 1.6915e-10 0 1.6915e-10 2.37728e-10 0 0 0 0)
(0 1.70622e-10 0 1.70622e-10 2.36501e-10 0 0 0 0)
(0 1.72332e-10 0 1.72332e-10 2.35229e-10 0 0 0 0)
(0 1.742e-10 0 1.742e-10 2.33906e-10 0 0 0 0)
(0 1.76366e-10 0 1.76366e-10 2.32554e-10 0 0 0 0)
(0 1.78107e-10 0 1.78107e-10 2.31145e-10 0 0 0 0)
(0 1.79452e-10 0 1.79452e-10 2.29637e-10 0 0 0 0)
(0 1.81836e-10 0 1.81836e-10 2.28095e-10 0 0 0 0)
(0 1.84732e-10 0 1.84732e-10 2.26598e-10 0 0 0 0)
(0 1.859e-10 0 1.859e-10 2.2503e-10 0 0 0 0)
(0 1.88005e-10 0 1.88005e-10 2.23428e-10 0 0 0 0)
(0 1.9077e-10 0 1.9077e-10 2.21812e-10 0 0 0 0)
(0 1.93129e-10 0 1.93129e-10 2.20169e-10 0 0 0 0)
(0 1.95334e-10 0 1.95334e-10 2.18476e-10 0 0 0 0)
(0 1.97285e-10 0 1.97285e-10 2.16664e-10 0 0 0 0)
(0 2.00012e-10 0 2.00012e-10 2.1477e-10 0 0 0 0)
(0 2.02698e-10 0 2.02698e-10 2.12804e-10 0 0 0 0)
(0 2.05077e-10 0 2.05077e-10 2.10763e-10 0 0 0 0)
(0 2.07698e-10 0 2.07698e-10 2.08667e-10 0 0 0 0)
(0 2.10714e-10 0 2.10714e-10 2.0655e-10 0 0 0 0)
(0 2.13576e-10 0 2.13576e-10 2.04413e-10 0 0 0 0)
(0 2.16539e-10 0 2.16539e-10 2.02263e-10 0 0 0 0)
(0 2.19602e-10 0 2.19602e-10 2.00084e-10 0 0 0 0)
(0 2.22778e-10 0 2.22778e-10 1.97862e-10 0 0 0 0)
(0 2.25989e-10 0 2.25989e-10 1.95577e-10 0 0 0 0)
(0 2.29186e-10 0 2.29186e-10 1.93206e-10 0 0 0 0)
(0 2.32636e-10 0 2.32636e-10 1.90753e-10 0 0 0 0)
(0 2.36219e-10 0 2.36219e-10 1.88225e-10 0 0 0 0)
(0 2.39869e-10 0 2.39869e-10 1.85635e-10 0 0 0 0)
(0 2.43738e-10 0 2.43738e-10 1.83009e-10 0 0 0 0)
(0 2.47799e-10 0 2.47799e-10 1.80364e-10 0 0 0 0)
(0 2.51957e-10 0 2.51957e-10 1.77709e-10 0 0 0 0)
(0 2.56263e-10 0 2.56263e-10 1.75047e-10 0 0 0 0)
(0 2.60723e-10 0 2.60723e-10 1.72371e-10 0 0 0 0)
(0 2.65327e-10 0 2.65327e-10 1.69672e-10 0 0 0 0)
(0 2.70095e-10 0 2.70095e-10 1.6694e-10 0 0 0 0)
(0 2.75063e-10 0 2.75063e-10 1.64171e-10 0 0 0 0)
(0 2.8024e-10 0 2.8024e-10 1.61364e-10 0 0 0 0)
(0 2.85635e-10 0 2.85635e-10 1.58524e-10 0 0 0 0)
(0 2.91274e-10 0 2.91274e-10 1.55661e-10 0 0 0 0)
(0 2.97162e-10 0 2.97162e-10 1.52787e-10 0 0 0 0)
(0 3.033e-10 0 3.033e-10 1.49916e-10 0 0 0 0)
(0 3.09705e-10 0 3.09705e-10 1.47062e-10 0 0 0 0)
(0 3.16393e-10 0 3.16393e-10 1.44243e-10 0 0 0 0)
(0 3.23381e-10 0 3.23381e-10 1.41481e-10 0 0 0 0)
(0 3.3069e-10 0 3.3069e-10 1.38801e-10 0 0 0 0)
(0 3.38342e-10 0 3.38342e-10 1.3623e-10 0 0 0 0)
(0 3.46356e-10 0 3.46356e-10 1.338e-10 0 0 0 0)
(0 3.54752e-10 0 3.54752e-10 1.31544e-10 0 0 0 0)
(0 3.63551e-10 0 3.63551e-10 1.29492e-10 0 0 0 0)
(0 3.72778e-10 0 3.72778e-10 1.27674e-10 0 0 0 0)
(0 3.82454e-10 0 3.82454e-10 1.26112e-10 0 0 0 0)
(0 3.92608e-10 0 3.92608e-10 1.24821e-10 0 0 0 0)
(0 4.03267e-10 0 4.03267e-10 1.23801e-10 0 0 0 0)
(0 4.14465e-10 0 4.14465e-10 1.23036e-10 0 0 0 0)
(0 4.2624e-10 0 4.2624e-10 1.22491e-10 0 0 0 0)
(0 4.38639e-10 0 4.38639e-10 1.22107e-10 0 0 0 0)
(0 4.51711e-10 0 4.51711e-10 1.21804e-10 0 0 0 0)
(0 4.65511e-10 0 4.65511e-10 1.21479e-10 0 0 0 0)
(0 4.80095e-10 0 4.80095e-10 1.21016e-10 0 0 0 0)
(0 4.95524e-10 0 4.95524e-10 1.20297e-10 0 0 0 0)
(0 5.1188e-10 0 5.1188e-10 1.19227e-10 0 0 0 0)
(0 5.29306e-10 0 5.29306e-10 1.17758e-10 0 0 0 0)
(0 5.48051e-10 0 5.48051e-10 1.15915e-10 0 0 0 0)
(0 5.68464e-10 0 5.68464e-10 1.13821e-10 0 0 0 0)
(0 5.90894e-10 0 5.90894e-10 1.11691e-10 0 0 0 0)
(0 6.15435e-10 0 6.15435e-10 1.09808e-10 0 0 0 0)
(0 6.41742e-10 0 6.41742e-10 1.08483e-10 0 0 0 0)
(0 6.69412e-10 0 6.69412e-10 1.08032e-10 0 0 0 0)
(0 6.99356e-10 0 6.99356e-10 1.08806e-10 0 0 0 0)
(0 7.34669e-10 0 7.34669e-10 1.1127e-10 0 0 0 0)
(0 7.77511e-10 0 7.77511e-10 1.15882e-10 0 0 0 0)
(0 8.23877e-10 0 8.23877e-10 1.22493e-10 0 0 0 0)
(0 8.6776e-10 0 8.6776e-10 1.29674e-10 0 0 0 0)
(0 9.15952e-10 0 9.15952e-10 1.34671e-10 0 0 0 0)
(0 9.93697e-10 0 9.93697e-10 1.33807e-10 0 0 0 0)
(0 1.11943e-09 0 1.11943e-09 1.22686e-10 0 0 0 0)
(0 1.24414e-09 0 1.24414e-09 9.61154e-11 0 0 0 0)
(0 1.2712e-09 0 1.2712e-09 -7.84164e-11 0 0 0 0)
(0 1.37124e-09 0 1.37124e-09 3.22938e-09 0 0 0 0)
(0 1.71026e-09 0 1.71026e-09 -1.86822e-08 0 0 0 0)
(0 3.89533e-09 0 3.89533e-09 6.78347e-08 0 0 0 0)
(0 1.08164e-06 0 1.08164e-06 -2.65237e-07 0 0 0 0)
(0 0.00024304 0 0.00024304 -6.24446e-06 0 0 0 0)
(0 0.00250112 0 0.00250112 -2.58681e-05 0 0 0 0)
(0 0.00517032 0 0.00517032 8.26766e-07 0 0 0 0)
(0 0.00621698 0 0.00621698 8.183e-06 0 0 0 0)
(0 0.00675832 0 0.00675832 8.79039e-06 0 0 0 0)
(0 0.00701373 0 0.00701373 1.13909e-05 0 0 0 0)
(0 0.0070845 0 0.0070845 1.37172e-05 0 0 0 0)
(0 0.00703374 0 0.00703374 1.44724e-05 0 0 0 0)
(0 0.00689515 0 0.00689515 1.51925e-05 0 0 0 0)
(0 0.00669352 0 0.00669352 1.58404e-05 0 0 0 0)
(0 0.00644698 0 0.00644698 1.64117e-05 0 0 0 0)
(0 0.00616924 0 0.00616924 1.69081e-05 0 0 0 0)
(0 0.00587056 0 0.00587056 1.72999e-05 0 0 0 0)
(0 0.0055587 0 0.0055587 1.75375e-05 0 0 0 0)
(0 0.00523951 0 0.00523951 1.75773e-05 0 0 0 0)
(0 0.0049174 0 0.0049174 1.73869e-05 0 0 0 0)
(0 0.00459569 0 0.00459569 1.69472e-05 0 0 0 0)
(0 0.00427693 0 0.00427693 1.62589e-05 0 0 0 0)
(0 0.00396305 0 0.00396305 1.53403e-05 0 0 0 0)
(0 0.00365563 0 0.00365563 1.42244e-05 0 0 0 0)
(0 0.00335593 0 0.00335593 1.29552e-05 0 0 0 0)
(0 0.00306504 0 0.00306504 1.15829e-05 0 0 0 0)
(0 0.00278395 0 0.00278395 1.01605e-05 0 0 0 0)
(0 0.00251363 0 0.00251363 8.7403e-06 0 0 0 0)
(0 0.00225509 0 0.00225509 7.37194e-06 0 0 0 0)
(0 0.00200941 0 0.00200941 6.10102e-06 0 0 0 0)
(0 0.00177777 0 0.00177777 4.96565e-06 0 0 0 0)
(0 0.00156144 0 0.00156144 3.98914e-06 0 0 0 0)
(0 0.00136166 0 0.00136166 3.17215e-06 0 0 0 0)
(0 0.00117939 0 0.00117939 2.49427e-06 0 0 0 0)
(0 0.00101517 0 0.00101517 1.92918e-06 0 0 0 0)
(0 0.000868837 0 0.000868837 1.46076e-06 0 0 0 0)
(0 0.000739553 0 0.000739553 1.08475e-06 0 0 0 0)
(0 0.000625875 0 0.000625875 7.98248e-07 0 0 0 0)
(0 0.000525998 0 0.000525998 5.90972e-07 0 0 0 0)
(0 0.000438 0 0.000438 4.45905e-07 0 0 0 0)
(0 0.000360035 0 0.000360035 3.45027e-07 0 0 0 0)
(0 0.000290448 0 0.000290448 2.73742e-07 0 0 0 0)
(0 0.000227823 0 0.000227823 2.21964e-07 0 0 0 0)
(0 0.000170988 0 0.000170988 1.83234e-07 0 0 0 0)
(0 0.000118996 0 0.000118996 1.53479e-07 0 0 0 0)
(0 7.10848e-05 0 7.10848e-05 1.30092e-07 0 0 0 0)
(0 2.66536e-05 0 2.66536e-05 1.11352e-07 0 0 0 0)
(0 -1.47755e-05 0 -1.47755e-05 9.60942e-08 0 0 0 0)
(0 -5.3582e-05 0 -5.3582e-05 8.35048e-08 0 0 0 0)
(0 -9.00677e-05 0 -9.00677e-05 7.30023e-08 0 0 0 0)
(0 -0.000124475 0 -0.000124475 6.41606e-08 0 0 0 0)
(0 -0.000156999 0 -0.000156999 5.66597e-08 0 0 0 0)
(0 -0.000187799 0 -0.000187799 5.0255e-08 0 0 0 0)
(0 -0.000217008 0 -0.000217008 4.47569e-08 0 0 0 0)
(0 -0.000244736 0 -0.000244736 4.0016e-08 0 0 0 0)
(0 -0.000271074 0 -0.000271074 3.59129e-08 0 0 0 0)
(0 -0.000296101 0 -0.000296101 3.23514e-08 0 0 0 0)
(0 -0.000319889 0 -0.000319889 2.92536e-08 0 0 0 0)
(0 -0.000342501 0 -0.000342501 2.65552e-08 0 0 0 0)
(0 -0.000364008 0 -0.000364008 2.42013e-08 0 0 0 0)
(0 -0.000384696 0 -0.000384696 2.21264e-08 0 0 0 0)
(-4.59216e-17 -0.000404814 0 -0.000404814 2.02766e-08 0 0 0 0)
(0 -0.000424367 0 -0.000424367 1.86278e-08 0 0 0 0)
(0 -0.000443344 0 -0.000443344 1.71586e-08 0 0 0 0)
(4.49512e-17 -0.000461729 0 -0.000461729 1.58489e-08 0 0 0 0)
(0 -0.000479501 0 -0.000479501 1.46777e-08 0 0 0 0)
(-8.82688e-17 -0.000496636 0 -0.000496636 1.36225e-08 0 0 0 0)
(0 -0.00051311 0 -0.00051311 1.26606e-08 0 0 0 0)
(8.64036e-17 -0.000528895 0 -0.000528895 1.17713e-08 0 0 0 0)
(0 -0.000543964 0 -0.000543964 1.09374e-08 0 0 0 0)
(0 -0.000558288 0 -0.000558288 1.01451e-08 0 0 0 0)
(0 -0.000571835 0 -0.000571835 9.38095e-09 0 0 0 0)
(4.10452e-17 -0.000584573 0 -0.000584573 8.63106e-09 0 0 0 0)
(0 -0.000596469 0 -0.000596469 7.88988e-09 0 0 0 0)
(0 -0.00060749 0 -0.00060749 7.16199e-09 0 0 0 0)
(0 -0.0006176 0 -0.0006176 6.45187e-09 0 0 0 0)
(0 -0.000626764 0 -0.000626764 5.76163e-09 0 0 0 0)
(0 -0.000634945 0 -0.000634945 5.09869e-09 0 0 0 0)
(-7.44665e-17 -0.000642107 0 -0.000642107 4.47553e-09 0 0 0 0)
(0 -0.000648214 0 -0.000648214 3.89995e-09 0 0 0 0)
(-7.16729e-17 -0.000653227 0 -0.000653227 3.37168e-09 0 0 0 0)
(0 -0.000657111 0 -0.000657111 2.89118e-09 0 0 0 0)
(0 -0.000659829 0 -0.000659829 2.46193e-09 0 0 0 0)
(0 -0.000661344 0 -0.000661344 2.08303e-09 0 0 0 0)
(0 -0.000661621 0 -0.000661621 1.7501e-09 0 0 0 0)
(0 -0.000660624 0 -0.000660624 1.46021e-09 0 0 0 0)
(0 -0.00065832 0 -0.00065832 1.21094e-09 0 0 0 0)
(6.10614e-17 -0.000654676 0 -0.000654676 9.98273e-10 0 0 0 0)
(0 -0.000649661 0 -0.000649661 8.17733e-10 0 0 0 0)
(0 -0.000643245 0 -0.000643245 6.66403e-10 0 0 0 0)
(0 -0.000635403 0 -0.000635403 5.41632e-10 0 0 0 0)
(0 -0.000626111 0 -0.000626111 4.33271e-10 0 0 0 0)
(0 -0.000615347 0 -0.000615347 3.32721e-10 0 0 0 0)
(0 -0.000603096 0 -0.000603096 2.59724e-10 0 0 0 0)
(0 -0.000589346 0 -0.000589346 2.23723e-10 0 0 0 0)
(0 -0.00057409 0 -0.00057409 1.91457e-10 0 0 0 0)
(0 -0.000557329 0 -0.000557329 1.47499e-10 0 0 0 0)
(0 -0.00053907 0 -0.00053907 1.06674e-10 0 0 0 0)
(0 -0.000519331 0 -0.000519331 7.65074e-11 0 0 0 0)
(0 -0.000498136 0 -0.000498136 5.42085e-11 0 0 0 0)
(0 -0.000475526 0 -0.000475526 3.81645e-11 0 0 0 0)
(0 -0.000451551 0 -0.000451551 2.54538e-11 0 0 0 0)
(-6.96148e-17 -0.000426279 0 -0.000426279 1.92435e-11 0 0 0 0)
(6.58791e-17 -0.000399796 0 -0.000399796 1.48166e-11 0 0 0 0)
(0 -0.000372208 0 -0.000372208 2.1197e-12 0 0 0 0)
(0 -0.000343646 0 -0.000343646 -2.98435e-12 0 0 0 0)
(-2.73128e-17 -0.000314268 0 -0.000314268 2.97046e-15 0 0 0 0)
(0 -0.000284264 0 -0.000284264 1.71183e-13 0 0 0 0)
(0 -0.000253859 0 -0.000253859 2.01016e-14 0 0 0 0)
(-4.34426e-17 -0.00022332 0 -0.00022332 -2.11465e-14 0 0 0 0)
(0 -0.000192957 0 -0.000192957 -1.5819e-14 0 0 0 0)
(0 -0.00016313 0 -0.00016313 -1.29536e-14 0 0 0 0)
(0 -0.000134251 0 -0.000134251 -8.8816e-15 0 0 0 0)
(0 -0.00010678 0 -0.00010678 1.85714e-14 0 0 0 0)
(0 -8.12243e-05 0 -8.12243e-05 5.5658e-14 0 0 0 0)
(0 -5.81189e-05 0 -5.81189e-05 -5.45647e-13 0 0 0 0)
(0 -3.80028e-05 0 -3.80028e-05 1.30008e-12 0 0 0 0)
(0 -2.13739e-05 0 -2.13739e-05 -2.0678e-12 0 0 0 0)
(0 -8.62755e-06 0 -8.62755e-06 2.59696e-12 0 0 0 0)
(0 1.88134e-08 0 1.88134e-08 -2.81019e-12 0 0 0 0)
(0 4.60755e-06 0 4.60755e-06 2.63273e-12 0 0 0 0)
(0 5.52064e-06 0 5.52064e-06 -2.10776e-12 0 0 0 0)
(0 3.44323e-06 0 3.44323e-06 1.29835e-12 0 0 0 0)
(0 6.57885e-07 0 6.57885e-07 -4.27658e-13 0 0 0 0)
(0 4.44731e-08 0 4.44731e-08 1.27072e-13 0 0 0 0)
(2.25586e-19 1.9728e-09 0 1.9728e-09 -1.0836e-13 0 0 0 0)
(0 4.82193e-11 0 4.82193e-11 1.06143e-13 0 0 0 0)
(0 6.91712e-12 0 6.91712e-12 -1.04377e-13 0 0 0 0)
(0 4.51647e-12 0 4.51647e-12 1.02605e-13 0 0 0 0)
(0 3.25966e-12 0 3.25966e-12 -1.01012e-13 0 0 0 0)
(0 2.34369e-12 0 2.34369e-12 9.94112e-14 0 0 0 0)
(0 1.67394e-12 0 1.67394e-12 -9.7944e-14 0 0 0 0)
(0 1.18757e-12 0 1.18757e-12 9.64668e-14 0 0 0 0)
(0 8.3672e-13 0 8.3672e-13 -9.50883e-14 0 0 0 0)
(0 5.85235e-13 0 5.85235e-13 9.36906e-14 0 0 0 0)
(0 4.06338e-13 0 4.06338e-13 -9.23736e-14 0 0 0 0)
(0 2.80068e-13 0 2.80068e-13 9.10238e-14 0 0 0 0)
(0 1.91645e-13 0 1.91645e-13 -8.97445e-14 0 0 0 0)
(0 1.30158e-13 0 1.30158e-13 8.8421e-14 0 0 0 0)
(0 8.77355e-14 0 8.77355e-14 -8.71548e-14 0 0 0 0)
(0 5.86113e-14 0 5.86113e-14 8.58482e-14 0 0 0 0)
(0 3.88125e-14 0 3.88125e-14 -8.45809e-14 0 0 0 0)
(0 2.54868e-14 0 2.54868e-14 8.32695e-14 0 0 0 0)
(0 1.65879e-14 0 1.65879e-14 -8.19961e-14 0 0 0 0)
(0 1.0777e-14 0 1.0777e-14 8.06692e-14 0 0 0 0)
(1.50452e-19 6.8819e-15 0 6.8819e-15 -7.93957e-14 0 0 0 0)
(0 4.34031e-15 0 4.34031e-15 7.80287e-14 0 0 0 0)
(0 2.70704e-15 0 2.70704e-15 -7.67229e-14 0 0 0 0)
(0 1.64272e-15 0 1.64272e-15 7.53488e-14 0 0 0 0)
(0 1.07678e-15 0 1.07678e-15 -7.4018e-14 0 0 0 0)
(0 6.943e-16 0 6.943e-16 7.26122e-14 0 0 0 0)
(0 3.93023e-16 0 3.93023e-16 -7.12562e-14 0 0 0 0)
(0 2.15869e-16 0 2.15869e-16 6.98206e-14 0 0 0 0)
(0 1.90564e-16 0 1.90564e-16 -6.84328e-14 0 0 0 0)
(0 1.36486e-16 0 1.36486e-16 6.69785e-14 0 0 0 0)
(2.46128e-19 -3.13198e-17 0 -3.13198e-17 -6.55501e-14 0 0 0 0)
(0 -5.89811e-17 0 -5.89811e-17 6.40764e-14 0 0 0 0)
(0 7.03387e-18 0 7.03387e-18 -6.25982e-14 0 0 0 0)
(-2.31729e-19 4.53609e-17 0 4.53609e-17 6.11087e-14 0 0 0 0)
(0 1.05554e-16 0 1.05554e-16 -5.95965e-14 0 0 0 0)
(0 4.26281e-17 0 4.26281e-17 5.80776e-14 0 0 0 0)
(0 -8.08875e-17 0 -8.08875e-17 -5.65318e-14 0 0 0 0)
(0 -4.143e-17 0 -4.143e-17 5.49769e-14 0 0 0 0)
(0 4.61073e-18 0 4.61073e-18 -5.33962e-14 0 0 0 0)
(0 5.10955e-17 0 5.10955e-17 5.18081e-14 0 0 0 0)
(0 6.54299e-19 0 6.54299e-19 -5.01904e-14 0 0 0 0)
(0 -2.21983e-17 0 -2.21983e-17 4.85604e-14 0 0 0 0)
(0 3.53425e-17 0 3.53425e-17 -4.69041e-14 0 0 0 0)
(0 -5.47312e-17 0 -5.47312e-17 4.52664e-14 0 0 0 0)
(0 -9.62971e-17 0 -9.62971e-17 -4.98813e-14 0 0 0 0)
(0 -4.85985e-17 0 -4.85985e-17 4.9322e-14 0 0 0 0)
(0 4.17693e-17 0 4.17693e-17 -4.87915e-14 0 0 0 0)
(0 2.79521e-17 0 2.79521e-17 4.82627e-14 0 0 0 0)
(0 8.52327e-18 0 8.52327e-18 -4.77205e-14 0 0 0 0)
(0 4.35163e-17 0 4.35163e-17 4.71791e-14 0 0 0 0)
(0 -2.51992e-17 0 -2.51992e-17 -4.66285e-14 0 0 0 0)
(0 -1.16996e-17 0 -1.16996e-17 4.60736e-14 0 0 0 0)
(0 2.64698e-17 0 2.64698e-17 -4.55141e-14 0 0 0 0)
(0 -8.95208e-17 0 -8.95208e-17 4.49441e-14 0 0 0 0)
(0 -4.54751e-17 0 -4.54751e-17 -4.4371e-14 0 0 0 0)
(0 6.36334e-17 0 6.36334e-17 4.37899e-14 0 0 0 0)
(0 4.4628e-17 0 4.4628e-17 -4.32029e-14 0 0 0 0)
(0 4.92338e-18 0 4.92338e-18 4.26029e-14 0 0 0 0)
(0 -3.12343e-18 0 -3.12343e-18 -4.20023e-14 0 0 0 0)
(0 -1.28114e-17 0 -1.28114e-17 4.1389e-14 0 0 0 0)
(0 -1.4929e-17 0 -1.4929e-17 -4.07478e-14 0 0 0 0)
(0 3.70048e-17 0 3.70048e-17 4.0188e-14 0 0 0 0)
(0 -4.34104e-18 0 -4.34104e-18 -3.94575e-14 0 0 0 0)
(0 -5.39984e-18 0 -5.39984e-18 3.89376e-14 0 0 0 0)
(0 -1.16467e-18 0 -1.16467e-18 -3.81279e-14 0 0 0 0)
(0 -3.34578e-17 0 -3.34578e-17 3.76354e-14 0 0 0 0)
(0 -4.07635e-18 0 -4.07635e-18 -3.67955e-14 0 0 0 0)
(0 3.764e-17 0 3.764e-17 3.62588e-14 0 0 0 0)
(0 6.93508e-18 0 6.93508e-18 -3.5431e-14 0 0 0 0)
(0 8.47033e-19 0 8.47033e-19 3.48242e-14 0 0 0 0)
(0 -3.65283e-18 0 -3.65283e-18 -3.39674e-14 0 0 0 0)
(0 -9.74088e-18 0 -9.74088e-18 3.33527e-14 0 0 0 0)
(0 -4.65868e-17 0 -4.65868e-17 -3.2492e-14 0 0 0 0)
(0 -1.55907e-16 0 -1.55907e-16 3.17517e-14 0 0 0 0)
(0 -3.78094e-16 0 -3.78094e-16 -3.09307e-14 0 0 0 0)
(0 -9.05266e-18 0 -9.05266e-18 3.0081e-14 0 0 0 0)
(0 3.7963e-16 0 3.7963e-16 -2.93021e-14 0 0 0 0)
(0 1.56066e-16 0 1.56066e-16 2.83296e-14 0 0 0 0)
(0 3.31931e-17 0 3.31931e-17 -2.74712e-14 0 0 0 0)
(0 1.30231e-17 0 1.30231e-17 2.65287e-14 0 0 0 0)
(0 5.49513e-17 0 5.49513e-17 -2.56111e-14 0 0 0 0)
(0 2.55698e-17 0 2.55698e-17 2.44656e-14 0 0 0 0)
(0 -2.54639e-17 0 -2.54639e-17 -2.36035e-14 0 0 0 0)
(0 -1.0122e-16 0 -1.0122e-16 2.22378e-14 0 0 0 0)
(0 8.94679e-18 0 8.94679e-18 -2.14265e-14 0 0 0 0)
(0 1.54742e-16 0 1.54742e-16 1.97438e-14 0 0 0 0)
(0 8.92561e-17 0 8.92561e-17 -1.89876e-14 0 0 0 0)
(0 -4.32516e-17 0 -4.32516e-17 1.6993e-14 0 0 0 0)
(0 -7.69212e-17 0 -7.69212e-17 -1.60757e-14 0 0 0 0)
(0 -6.7445e-17 0 -6.7445e-17 1.3721e-14 0 0 0 0)
(0 -4.60045e-17 0 -4.60045e-17 -1.24857e-14 0 0 0 0)
(0 2.95932e-17 0 2.95932e-17 9.52812e-15 0 0 0 0)
(0 -6.73391e-17 0 -6.73391e-17 -6.32313e-15 0 0 0 0)
(0 -9.34913e-17 0 -9.34913e-17 4.07851e-15 0 0 0 0)
)
;

boundaryField
{
    inandouthalf11
    {
        type            cyclic;
    }
    inandouthalf12
    {
        type            cyclic;
    }
    inandouthalf21
    {
        type            cyclic;
    }
    inandouthalf22
    {
        type            cyclic;
    }
    inandouthalf31
    {
        type            cyclic;
    }
    inandouthalf32
    {
        type            cyclic;
    }
    inandouthalf41
    {
        type            cyclic;
    }
    inandouthalf42
    {
        type            cyclic;
    }
    top
    {
        type            symmetryPlane;
    }
    walls
    {
        type            zeroGradient;
    }
    frontAndBackPlanes
    {
        type            empty;
    }
}


// ************************************************************************* //
