/*--------------------------------*- C++ -*----------------------------------*\
| =========                 |                                                 |
| \\      /  F ield         | OpenFOAM: The Open Source CFD Toolbox           |
|  \\    /   O peration     | Version:  2.4.x                                 |
|   \\  /    A nd           | Web:      www.OpenFOAM.org                      |
|    \\/     M anipulation  |                                                 |
\*---------------------------------------------------------------------------*/
FoamFile
{
    version     2.0;
    format      ascii;
    class       volVectorField;
    location    "8.45";
    object      Ua;
}
// * * * * * * * * * * * * * * * * * * * * * * * * * * * * * * * * * * * * * //

dimensions      [0 1 -1 0 0 0 0];

internalField   nonuniform List<vector> 
360
(
(1.98874e-32 -9.95784e-32 0)
(1.65656e-08 -5.82397e-08 0)
(3.48293e-08 -1.05193e-07 0)
(5.15152e-08 -1.47282e-07 0)
(6.87138e-08 -1.92322e-07 0)
(8.68007e-08 -2.39961e-07 0)
(1.05302e-07 -2.88451e-07 0)
(1.23964e-07 -3.37266e-07 0)
(1.42743e-07 -3.86399e-07 0)
(1.61642e-07 -4.35864e-07 0)
(1.80656e-07 -4.85655e-07 0)
(1.99766e-07 -5.35723e-07 0)
(2.18949e-07 -5.85998e-07 0)
(2.38177e-07 -6.36411e-07 0)
(2.57428e-07 -6.86905e-07 0)
(2.76686e-07 -7.37435e-07 0)
(2.95932e-07 -7.87961e-07 0)
(3.15151e-07 -8.38437e-07 0)
(3.34323e-07 -8.88814e-07 0)
(3.53434e-07 -9.39052e-07 0)
(3.72465e-07 -9.89106e-07 0)
(3.91403e-07 -1.03893e-06 0)
(4.10234e-07 -1.08851e-06 0)
(4.28949e-07 -1.13779e-06 0)
(4.47536e-07 -1.18677e-06 0)
(4.65987e-07 -1.2354e-06 0)
(4.84295e-07 -1.28368e-06 0)
(5.02453e-07 -1.33158e-06 0)
(5.20461e-07 -1.37911e-06 0)
(5.38313e-07 -1.42624e-06 0)
(5.56009e-07 -1.47298e-06 0)
(5.73549e-07 -1.51932e-06 0)
(5.90933e-07 -1.56527e-06 0)
(6.08164e-07 -1.61083e-06 0)
(6.25247e-07 -1.65601e-06 0)
(6.42182e-07 -1.70081e-06 0)
(6.58975e-07 -1.74525e-06 0)
(6.75629e-07 -1.78933e-06 0)
(6.92153e-07 -1.83309e-06 0)
(7.08549e-07 -1.87651e-06 0)
(7.24823e-07 -1.91962e-06 0)
(7.40982e-07 -1.96244e-06 0)
(7.57029e-07 -2.00497e-06 0)
(7.7297e-07 -2.04723e-06 0)
(7.88811e-07 -2.08923e-06 0)
(8.04558e-07 -2.13099e-06 0)
(8.20214e-07 -2.17252e-06 0)
(8.3578e-07 -2.21381e-06 0)
(8.51261e-07 -2.25488e-06 0)
(8.66664e-07 -2.29576e-06 0)
(8.81991e-07 -2.33644e-06 0)
(8.97245e-07 -2.37693e-06 0)
(9.12426e-07 -2.41723e-06 0)
(9.27539e-07 -2.45736e-06 0)
(9.42583e-07 -2.49731e-06 0)
(9.57562e-07 -2.5371e-06 0)
(9.72474e-07 -2.57671e-06 0)
(9.8732e-07 -2.61615e-06 0)
(1.0021e-06 -2.65542e-06 0)
(1.01681e-06 -2.6945e-06 0)
(1.03145e-06 -2.73341e-06 0)
(1.04602e-06 -2.77215e-06 0)
(1.06053e-06 -2.81071e-06 0)
(1.07497e-06 -2.84911e-06 0)
(1.08934e-06 -2.88732e-06 0)
(1.10364e-06 -2.92535e-06 0)
(1.11787e-06 -2.96318e-06 0)
(1.13201e-06 -3.00081e-06 0)
(1.14608e-06 -3.03824e-06 0)
(1.16006e-06 -3.07543e-06 0)
(1.17396e-06 -3.1124e-06 0)
(1.18777e-06 -3.14915e-06 0)
(1.20149e-06 -3.18567e-06 0)
(1.21513e-06 -3.22196e-06 0)
(1.22867e-06 -3.258e-06 0)
(1.24212e-06 -3.29381e-06 0)
(1.25548e-06 -3.32936e-06 0)
(1.26873e-06 -3.36464e-06 0)
(1.28187e-06 -3.39963e-06 0)
(1.2949e-06 -3.43433e-06 0)
(1.30782e-06 -3.46872e-06 0)
(1.32062e-06 -3.5028e-06 0)
(1.3333e-06 -3.53656e-06 0)
(1.34586e-06 -3.57001e-06 0)
(1.3583e-06 -3.60313e-06 0)
(1.37063e-06 -3.63594e-06 0)
(1.38282e-06 -3.66842e-06 0)
(1.39489e-06 -3.70055e-06 0)
(1.40683e-06 -3.73233e-06 0)
(1.41863e-06 -3.76373e-06 0)
(1.43029e-06 -3.79476e-06 0)
(1.44181e-06 -3.8254e-06 0)
(1.45319e-06 -3.85565e-06 0)
(1.46442e-06 -3.8855e-06 0)
(1.4755e-06 -3.91497e-06 0)
(1.48644e-06 -3.94404e-06 0)
(1.49724e-06 -3.97272e-06 0)
(1.50789e-06 -4.001e-06 0)
(1.5184e-06 -4.02888e-06 0)
(1.52876e-06 -4.05635e-06 0)
(1.53897e-06 -4.08341e-06 0)
(1.54903e-06 -4.11005e-06 0)
(1.55894e-06 -4.13628e-06 0)
(1.5687e-06 -4.16208e-06 0)
(1.57831e-06 -4.18747e-06 0)
(1.58778e-06 -4.21245e-06 0)
(1.5971e-06 -4.23703e-06 0)
(1.60629e-06 -4.26122e-06 0)
(1.61535e-06 -4.28503e-06 0)
(1.62429e-06 -4.3085e-06 0)
(1.63313e-06 -4.33164e-06 0)
(1.64186e-06 -4.3545e-06 0)
(1.65052e-06 -4.3771e-06 0)
(1.65912e-06 -4.39949e-06 0)
(1.66767e-06 -4.42172e-06 0)
(1.67619e-06 -4.44384e-06 0)
(1.68471e-06 -4.46588e-06 0)
(1.69325e-06 -4.4879e-06 0)
(1.70181e-06 -4.50993e-06 0)
(1.71041e-06 -4.532e-06 0)
(1.71905e-06 -4.55412e-06 0)
(1.72774e-06 -4.57627e-06 0)
(1.73646e-06 -4.59844e-06 0)
(1.74521e-06 -4.62058e-06 0)
(1.75395e-06 -4.64262e-06 0)
(1.76267e-06 -4.66451e-06 0)
(1.77136e-06 -4.68619e-06 0)
(1.78e-06 -4.70764e-06 0)
(1.78861e-06 -4.72889e-06 0)
(1.79723e-06 -4.75002e-06 0)
(1.8059e-06 -4.77114e-06 0)
(1.81472e-06 -4.79243e-06 0)
(1.82379e-06 -4.81416e-06 0)
(1.83326e-06 -4.83668e-06 0)
(1.84332e-06 -4.86041e-06 0)
(1.85412e-06 -4.88571e-06 0)
(1.86567e-06 -4.91259e-06 0)
(1.87781e-06 -4.94059e-06 0)
(1.89008e-06 -4.96873e-06 0)
(1.90148e-06 -4.99495e-06 0)
(1.91025e-06 -5.01532e-06 0)
(1.91503e-06 -5.02628e-06 0)
(1.91663e-06 -5.0297e-06 0)
(1.91695e-06 -5.0302e-06 0)
(1.91714e-06 -5.03024e-06 0)
(1.91752e-06 -5.03012e-06 0)
(0.0879595 0.001856 0)
(0.210349 0.00291372 0)
(0.316318 0.00355622 0)
(0.407359 0.00397722 0)
(0.487063 0.00437207 0)
(0.558274 0.0046793 0)
(0.622331 0.00502016 0)
(0.680332 0.00538224 0)
(0.733135 0.00576757 0)
(0.781418 0.00617882 0)
(0.825725 0.00661706 0)
(0.866498 0.00708115 0)
(0.904103 0.00756864 0)
(0.938843 0.00807613 0)
(0.970972 0.00859938 0)
(1.0007 0.00913364 0)
(1.02819 0.00967379 0)
(1.05359 0.0102143 0)
(1.07698 0.0107494 0)
(1.09846 0.0112725 0)
(1.11806 0.0117767 0)
(1.13583 0.0122543 0)
(1.15178 0.0126971 0)
(1.16593 0.0130967 0)
(1.17832 0.0134449 0)
(1.18901 0.0137326 0)
(1.19808 0.0139467 0)
(1.20565 0.0140668 0)
(1.21186 0.0140679 0)
(1.21689 0.0139325 0)
(1.22092 0.0136643 0)
(1.22414 0.0132896 0)
(1.22669 0.0128471 0)
(1.22871 0.0123741 0)
(1.23029 0.0118989 0)
(1.23151 0.0114396 0)
(1.23243 0.0110059 0)
(1.2331 0.0106022 0)
(1.23356 0.0102299 0)
(1.23384 0.00988845 0)
(1.23397 0.00957652 0)
(1.23396 0.00929246 0)
(1.23385 0.00903446 0)
(1.23364 0.00880075 0)
(1.23335 0.00858962 0)
(1.23299 0.00839952 0)
(1.23257 0.00822896 0)
(1.23211 0.00807663 0)
(1.23161 0.00794128 0)
(1.23108 0.00782178 0)
(1.23053 0.00771708 0)
(1.22996 0.00762621 0)
(1.22939 0.00754826 0)
(1.22881 0.00748236 0)
(1.22823 0.00742765 0)
(1.22766 0.00738289 0)
(1.22708 0.00734725 0)
(1.2265 0.00732041 0)
(1.22592 0.00730197 0)
(1.22535 0.00729147 0)
(1.22477 0.00728835 0)
(1.2242 0.00729197 0)
(1.22364 0.0073016 0)
(1.22308 0.00731645 0)
(1.22253 0.00733568 0)
(1.22199 0.00735839 0)
(1.22146 0.0073837 0)
(1.22094 0.0074107 0)
(1.22044 0.00743853 0)
(1.21994 0.00746646 0)
(1.21946 0.00749383 0)
(1.21899 0.00752004 0)
(1.21853 0.00754461 0)
(1.21808 0.00756722 0)
(1.21765 0.0075876 0)
(1.21722 0.00760548 0)
(1.21681 0.00762064 0)
(1.21641 0.00763299 0)
(1.21602 0.0076424 0)
(1.21565 0.00764873 0)
(1.21529 0.00765194 0)
(1.21494 0.00765202 0)
(1.2146 0.00764906 0)
(1.21428 0.00764308 0)
(1.21399 0.00763448 0)
(1.21371 0.00762351 0)
(1.21347 0.00761122 0)
(1.21325 0.00759599 0)
(1.21309 0.00758495 0)
(1.21298 0.00759144 0)
(1.21292 0.00761054 0)
(1.20456 0.00781495 0)
(1.20148 0.0074148 0)
(1.19888 0.00777311 0)
(1.1961 0.00633893 0)
(1.19368 0.00889311 0)
(1.19076 0.00413671 0)
(1.18858 0.0106637 0)
(1.18543 0.00375707 0)
(1.18394 -0.0300198 0)
(1.18186 -0.0396533 0)
(1.17918 -0.0395719 0)
(1.17683 -0.0395793 0)
(1.17452 -0.039578 0)
(1.17232 -0.039577 0)
(1.17024 -0.0395753 0)
(1.16829 -0.039573 0)
(1.1665 -0.0395701 0)
(1.1649 -0.0395666 0)
(1.1635 -0.0395626 0)
(1.16233 -0.0395579 0)
(1.16142 -0.0395528 0)
(1.16077 -0.0395471 0)
(1.16044 -0.0395422 0)
(1.16036 -0.039537 0)
(1.16054 -0.0395314 0)
(1.16094 -0.0395262 0)
(1.16148 -0.0395198 0)
(1.16189 -0.0395109 0)
(1.16199 -0.0395054 0)
(1.16199 -0.0395043 0)
(1.16199 -0.0395042 0)
(1.16199 -0.0395042 0)
(1.16199 -0.0395042 0)
(1.16199 -0.0395042 0)
(1.16199 -0.0395042 0)
(1.16199 -0.0395042 0)
(1.16199 -0.0395042 0)
(1.16199 -0.0395042 0)
(1.16199 -0.0395042 0)
(1.16199 -0.0395042 0)
(1.16199 -0.0395042 0)
(1.16199 -0.0395042 0)
(1.16199 -0.0395042 0)
(1.16199 -0.0395042 0)
(1.16199 -0.0395042 0)
(1.16199 -0.0395042 0)
(1.16199 -0.0395042 0)
(1.16199 -0.0395042 0)
(1.16199 -0.0395042 0)
(1.16199 -0.0395042 0)
(1.16199 -0.0395042 0)
(1.16199 -0.0395042 0)
(1.16199 -0.0395042 0)
(1.16199 -0.0395042 0)
(1.16199 -0.0395042 0)
(1.16199 -0.0395042 0)
(1.16199 -0.0395042 0)
(1.16199 -0.0395042 0)
(1.16199 -0.0395042 0)
(1.16199 -0.0395042 0)
(1.16199 -0.0395042 0)
(1.16199 -0.0395042 0)
(1.16199 -0.0395042 0)
(1.16199 -0.0395042 0)
(1.16199 -0.0395042 0)
(1.16199 -0.0395042 0)
(1.16199 -0.0395042 0)
(1.16199 -0.0395042 0)
(1.16199 -0.0395042 0)
(1.16199 -0.0395042 0)
(1.16199 -0.0395042 0)
(1.16199 -0.0395042 0)
(1.16199 -0.0395042 0)
(1.16199 -0.0395042 0)
(1.16199 -0.0395042 0)
(1.16199 -0.0395042 0)
(1.16199 -0.0395042 0)
(1.16199 -0.0395042 0)
(1.16199 -0.0395042 0)
(1.16199 -0.0395042 0)
(1.16199 -0.0395042 0)
(1.16199 -0.0395042 0)
(1.16199 -0.0395042 0)
(1.16199 -0.0395042 0)
(1.16199 -0.0395042 0)
(1.16199 -0.0395042 0)
(1.16199 -0.0395042 0)
(1.16199 -0.0395042 0)
(1.16199 -0.0395042 0)
(1.16199 -0.0395042 0)
(1.16199 -0.0395042 0)
(1.16199 -0.0395042 0)
(1.16199 -0.0395042 0)
(1.16199 -0.0395042 0)
(1.16199 -0.0395042 0)
(1.16199 -0.0395042 0)
(1.16199 -0.0395042 0)
(1.16199 -0.0395042 0)
(1.16199 -0.0395042 0)
(1.16199 -0.0395042 0)
(1.16199 -0.0395042 0)
(1.16199 -0.0395042 0)
(1.16199 -0.0395042 0)
(1.16199 -0.0395042 0)
(1.16199 -0.0395042 0)
(1.16199 -0.0395042 0)
(1.16199 -0.0395042 0)
(1.16199 -0.0395042 0)
(1.16199 -0.0395042 0)
(1.16199 -0.0395042 0)
(1.16199 -0.0395042 0)
(1.16199 -0.0395042 0)
(1.16199 -0.0395042 0)
(1.16199 -0.0395042 0)
(1.16199 -0.0395042 0)
(1.16199 -0.0395042 0)
(1.16199 -0.0395042 0)
(1.16199 -0.0395042 0)
(1.16199 -0.0395042 0)
(1.16199 -0.039504 0)
(1.16199 -0.0394956 0)
(1.16197 -0.0391499 0)
(1.16134 -0.0224095 0)
)
;

boundaryField
{
    inandouthalf11
    {
        type            cyclic;
    }
    inandouthalf12
    {
        type            cyclic;
    }
    inandouthalf21
    {
        type            cyclic;
    }
    inandouthalf22
    {
        type            cyclic;
    }
    inandouthalf31
    {
        type            cyclic;
    }
    inandouthalf32
    {
        type            cyclic;
    }
    inandouthalf41
    {
        type            cyclic;
    }
    inandouthalf42
    {
        type            cyclic;
    }
    top
    {
        type            symmetryPlane;
    }
    walls
    {
        type            fixedValue;
        value           uniform (0 0 0);
    }
    frontAndBackPlanes
    {
        type            empty;
    }
}


// ************************************************************************* //
