/*--------------------------------*- C++ -*----------------------------------*\
| =========                 |                                                 |
| \\      /  F ield         | OpenFOAM: The Open Source CFD Toolbox           |
|  \\    /   O peration     | Version:  2.4.x                                 |
|   \\  /    A nd           | Web:      www.OpenFOAM.org                      |
|    \\/     M anipulation  |                                                 |
\*---------------------------------------------------------------------------*/
FoamFile
{
    version     2.0;
    format      ascii;
    class       volVectorField;
    location    "8.45";
    object      Ua_0;
}
// * * * * * * * * * * * * * * * * * * * * * * * * * * * * * * * * * * * * * //

dimensions      [0 1 -1 0 0 0 0];

internalField   nonuniform List<vector> 
360
(
(1.98867e-32 -9.95782e-32 0)
(1.65675e-08 -5.82488e-08 0)
(3.48334e-08 -1.05209e-07 0)
(5.15211e-08 -1.47305e-07 0)
(6.87214e-08 -1.92351e-07 0)
(8.68102e-08 -2.39997e-07 0)
(1.05314e-07 -2.88495e-07 0)
(1.23977e-07 -3.37317e-07 0)
(1.42758e-07 -3.86456e-07 0)
(1.61658e-07 -4.35927e-07 0)
(1.80673e-07 -4.85724e-07 0)
(1.99785e-07 -5.35798e-07 0)
(2.18968e-07 -5.86078e-07 0)
(2.38197e-07 -6.36497e-07 0)
(2.5745e-07 -6.86997e-07 0)
(2.76708e-07 -7.37532e-07 0)
(2.95955e-07 -7.88062e-07 0)
(3.15174e-07 -8.38542e-07 0)
(3.34347e-07 -8.88924e-07 0)
(3.53457e-07 -9.39166e-07 0)
(3.72489e-07 -9.89223e-07 0)
(3.91426e-07 -1.03905e-06 0)
(4.10258e-07 -1.08863e-06 0)
(4.28972e-07 -1.13792e-06 0)
(4.4756e-07 -1.1869e-06 0)
(4.6601e-07 -1.23554e-06 0)
(4.84317e-07 -1.28381e-06 0)
(5.02476e-07 -1.33172e-06 0)
(5.20483e-07 -1.37925e-06 0)
(5.38335e-07 -1.42638e-06 0)
(5.5603e-07 -1.47312e-06 0)
(5.73569e-07 -1.51947e-06 0)
(5.90953e-07 -1.56542e-06 0)
(6.08184e-07 -1.61098e-06 0)
(6.25267e-07 -1.65616e-06 0)
(6.42202e-07 -1.70097e-06 0)
(6.58994e-07 -1.74541e-06 0)
(6.75648e-07 -1.7895e-06 0)
(6.92172e-07 -1.83326e-06 0)
(7.08567e-07 -1.87669e-06 0)
(7.24841e-07 -1.9198e-06 0)
(7.41e-07 -1.96262e-06 0)
(7.57047e-07 -2.00516e-06 0)
(7.72987e-07 -2.04741e-06 0)
(7.88829e-07 -2.08942e-06 0)
(8.04576e-07 -2.13118e-06 0)
(8.20232e-07 -2.17272e-06 0)
(8.35798e-07 -2.21402e-06 0)
(8.51279e-07 -2.25509e-06 0)
(8.66682e-07 -2.29597e-06 0)
(8.8201e-07 -2.33666e-06 0)
(8.97263e-07 -2.37715e-06 0)
(9.12445e-07 -2.41746e-06 0)
(9.27558e-07 -2.4576e-06 0)
(9.42603e-07 -2.49755e-06 0)
(9.57581e-07 -2.53734e-06 0)
(9.72494e-07 -2.57696e-06 0)
(9.8734e-07 -2.6164e-06 0)
(1.00212e-06 -2.65568e-06 0)
(1.01683e-06 -2.69477e-06 0)
(1.03147e-06 -2.73368e-06 0)
(1.04604e-06 -2.77242e-06 0)
(1.06055e-06 -2.81099e-06 0)
(1.07499e-06 -2.84939e-06 0)
(1.08936e-06 -2.88761e-06 0)
(1.10366e-06 -2.92564e-06 0)
(1.11789e-06 -2.96348e-06 0)
(1.13204e-06 -3.00112e-06 0)
(1.14611e-06 -3.03855e-06 0)
(1.16009e-06 -3.07575e-06 0)
(1.17398e-06 -3.11272e-06 0)
(1.1878e-06 -3.14948e-06 0)
(1.20152e-06 -3.18601e-06 0)
(1.21515e-06 -3.2223e-06 0)
(1.2287e-06 -3.25835e-06 0)
(1.24215e-06 -3.29416e-06 0)
(1.2555e-06 -3.32972e-06 0)
(1.26875e-06 -3.365e-06 0)
(1.2819e-06 -3.4e-06 0)
(1.29493e-06 -3.4347e-06 0)
(1.30785e-06 -3.4691e-06 0)
(1.32064e-06 -3.50318e-06 0)
(1.33332e-06 -3.53695e-06 0)
(1.34589e-06 -3.5704e-06 0)
(1.35833e-06 -3.60353e-06 0)
(1.37065e-06 -3.63634e-06 0)
(1.38285e-06 -3.66882e-06 0)
(1.39492e-06 -3.70096e-06 0)
(1.40686e-06 -3.73274e-06 0)
(1.41866e-06 -3.76416e-06 0)
(1.43032e-06 -3.79519e-06 0)
(1.44184e-06 -3.82583e-06 0)
(1.45321e-06 -3.85608e-06 0)
(1.46444e-06 -3.88594e-06 0)
(1.47553e-06 -3.91541e-06 0)
(1.48647e-06 -3.94449e-06 0)
(1.49727e-06 -3.97318e-06 0)
(1.50792e-06 -4.00146e-06 0)
(1.51842e-06 -4.02935e-06 0)
(1.52878e-06 -4.05682e-06 0)
(1.53899e-06 -4.08388e-06 0)
(1.54905e-06 -4.11053e-06 0)
(1.55896e-06 -4.13675e-06 0)
(1.56872e-06 -4.16256e-06 0)
(1.57833e-06 -4.18796e-06 0)
(1.5878e-06 -4.21294e-06 0)
(1.59712e-06 -4.23752e-06 0)
(1.60631e-06 -4.26171e-06 0)
(1.61537e-06 -4.28553e-06 0)
(1.62431e-06 -4.30901e-06 0)
(1.63314e-06 -4.33215e-06 0)
(1.64188e-06 -4.35501e-06 0)
(1.65054e-06 -4.37762e-06 0)
(1.65913e-06 -4.40001e-06 0)
(1.66768e-06 -4.42224e-06 0)
(1.6762e-06 -4.44436e-06 0)
(1.68472e-06 -4.46641e-06 0)
(1.69325e-06 -4.48843e-06 0)
(1.70181e-06 -4.51047e-06 0)
(1.71041e-06 -4.53254e-06 0)
(1.71905e-06 -4.55466e-06 0)
(1.72774e-06 -4.57682e-06 0)
(1.73646e-06 -4.599e-06 0)
(1.74521e-06 -4.62114e-06 0)
(1.75395e-06 -4.64318e-06 0)
(1.76267e-06 -4.66508e-06 0)
(1.77135e-06 -4.68676e-06 0)
(1.77999e-06 -4.70822e-06 0)
(1.7886e-06 -4.72948e-06 0)
(1.79721e-06 -4.7506e-06 0)
(1.80589e-06 -4.77173e-06 0)
(1.8147e-06 -4.79303e-06 0)
(1.82376e-06 -4.81475e-06 0)
(1.83323e-06 -4.83727e-06 0)
(1.84328e-06 -4.86099e-06 0)
(1.85407e-06 -4.88628e-06 0)
(1.86561e-06 -4.91315e-06 0)
(1.87774e-06 -4.94114e-06 0)
(1.89e-06 -4.96928e-06 0)
(1.90139e-06 -4.99551e-06 0)
(1.91017e-06 -5.0159e-06 0)
(1.91496e-06 -5.02689e-06 0)
(1.91656e-06 -5.03033e-06 0)
(1.91688e-06 -5.03084e-06 0)
(1.91707e-06 -5.03087e-06 0)
(1.91746e-06 -5.03076e-06 0)
(0.0878905 0.00184696 0)
(0.210256 0.00290673 0)
(0.31622 0.00355043 0)
(0.407263 0.00397208 0)
(0.486971 0.00436744 0)
(0.558189 0.00467541 0)
(0.622251 0.00501704 0)
(0.680258 0.00537989 0)
(0.733066 0.00576598 0)
(0.781353 0.00617796 0)
(0.825663 0.00661688 0)
(0.866437 0.00708161 0)
(0.904043 0.00756969 0)
(0.938784 0.00807772 0)
(0.970913 0.00860144 0)
(1.00064 0.00913612 0)
(1.02813 0.00967661 0)
(1.05352 0.0102174 0)
(1.07691 0.0107526 0)
(1.09839 0.0112758 0)
(1.11798 0.01178 0)
(1.13574 0.0122575 0)
(1.15168 0.0127 0)
(1.16583 0.0130993 0)
(1.17822 0.013447 0)
(1.1889 0.013734 0)
(1.19796 0.0139474 0)
(1.20551 0.0140667 0)
(1.21172 0.0140667 0)
(1.21674 0.0139303 0)
(1.22077 0.013661 0)
(1.22399 0.0132855 0)
(1.22654 0.0128425 0)
(1.22855 0.0123692 0)
(1.23013 0.0118939 0)
(1.23134 0.0114346 0)
(1.23226 0.0110011 0)
(1.23293 0.0105976 0)
(1.23339 0.0102254 0)
(1.23367 0.00988404 0)
(1.23379 0.00957226 0)
(1.23379 0.00928833 0)
(1.23367 0.00903046 0)
(1.23346 0.00879686 0)
(1.23317 0.00858586 0)
(1.23281 0.00839586 0)
(1.23239 0.00822541 0)
(1.23193 0.00807317 0)
(1.23143 0.00793791 0)
(1.2309 0.00781849 0)
(1.23035 0.00771388 0)
(1.22978 0.00762309 0)
(1.2292 0.00754521 0)
(1.22863 0.00747938 0)
(1.22805 0.00742474 0)
(1.22747 0.00738004 0)
(1.2269 0.00734447 0)
(1.22632 0.00731768 0)
(1.22574 0.0072993 0)
(1.22516 0.00728885 0)
(1.22459 0.00728577 0)
(1.22402 0.00728944 0)
(1.22345 0.00729912 0)
(1.22289 0.00731401 0)
(1.22235 0.00733326 0)
(1.22181 0.00735601 0)
(1.22128 0.00738134 0)
(1.22076 0.00740836 0)
(1.22025 0.00743621 0)
(1.21975 0.00746416 0)
(1.21927 0.00749154 0)
(1.2188 0.00751776 0)
(1.21834 0.00754234 0)
(1.21789 0.00756495 0)
(1.21746 0.00758534 0)
(1.21703 0.00760322 0)
(1.21662 0.00761838 0)
(1.21622 0.00763073 0)
(1.21584 0.00764014 0)
(1.21546 0.00764647 0)
(1.2151 0.00764968 0)
(1.21475 0.00764975 0)
(1.21441 0.00764679 0)
(1.21409 0.0076408 0)
(1.2138 0.0076322 0)
(1.21352 0.00762123 0)
(1.21328 0.00760894 0)
(1.21306 0.00759371 0)
(1.2129 0.00758269 0)
(1.21279 0.00758921 0)
(1.21273 0.00760833 0)
(1.20436 0.00781321 0)
(1.20128 0.00741236 0)
(1.19868 0.00777232 0)
(1.1959 0.006334 0)
(1.19348 0.0088956 0)
(1.19056 0.00412365 0)
(1.18839 0.0106725 0)
(1.18523 0.0037179 0)
(1.18374 -0.0300546 0)
(1.18166 -0.0396536 0)
(1.17898 -0.0395719 0)
(1.17663 -0.0395793 0)
(1.17433 -0.039578 0)
(1.17212 -0.039577 0)
(1.17004 -0.0395753 0)
(1.16809 -0.039573 0)
(1.16631 -0.0395701 0)
(1.1647 -0.0395666 0)
(1.1633 -0.0395625 0)
(1.16214 -0.0395579 0)
(1.16123 -0.0395527 0)
(1.16058 -0.0395471 0)
(1.16025 -0.0395422 0)
(1.16017 -0.039537 0)
(1.16035 -0.0395313 0)
(1.16075 -0.0395262 0)
(1.16129 -0.0395198 0)
(1.16169 -0.0395109 0)
(1.16179 -0.0395054 0)
(1.1618 -0.0395043 0)
(1.1618 -0.0395042 0)
(1.1618 -0.0395042 0)
(1.1618 -0.0395042 0)
(1.1618 -0.0395042 0)
(1.1618 -0.0395042 0)
(1.1618 -0.0395042 0)
(1.1618 -0.0395042 0)
(1.1618 -0.0395042 0)
(1.1618 -0.0395042 0)
(1.1618 -0.0395042 0)
(1.1618 -0.0395042 0)
(1.1618 -0.0395042 0)
(1.1618 -0.0395042 0)
(1.1618 -0.0395042 0)
(1.1618 -0.0395042 0)
(1.1618 -0.0395042 0)
(1.1618 -0.0395042 0)
(1.1618 -0.0395042 0)
(1.1618 -0.0395042 0)
(1.1618 -0.0395042 0)
(1.1618 -0.0395042 0)
(1.1618 -0.0395042 0)
(1.1618 -0.0395042 0)
(1.1618 -0.0395042 0)
(1.1618 -0.0395042 0)
(1.1618 -0.0395042 0)
(1.1618 -0.0395042 0)
(1.1618 -0.0395042 0)
(1.1618 -0.0395042 0)
(1.1618 -0.0395042 0)
(1.1618 -0.0395042 0)
(1.1618 -0.0395042 0)
(1.1618 -0.0395042 0)
(1.1618 -0.0395042 0)
(1.1618 -0.0395042 0)
(1.1618 -0.0395042 0)
(1.1618 -0.0395042 0)
(1.1618 -0.0395042 0)
(1.1618 -0.0395042 0)
(1.1618 -0.0395042 0)
(1.1618 -0.0395042 0)
(1.1618 -0.0395042 0)
(1.1618 -0.0395042 0)
(1.1618 -0.0395042 0)
(1.1618 -0.0395042 0)
(1.1618 -0.0395042 0)
(1.1618 -0.0395042 0)
(1.1618 -0.0395042 0)
(1.1618 -0.0395042 0)
(1.1618 -0.0395042 0)
(1.1618 -0.0395042 0)
(1.1618 -0.0395042 0)
(1.1618 -0.0395042 0)
(1.1618 -0.0395042 0)
(1.1618 -0.0395042 0)
(1.1618 -0.0395042 0)
(1.1618 -0.0395042 0)
(1.1618 -0.0395042 0)
(1.1618 -0.0395042 0)
(1.1618 -0.0395042 0)
(1.1618 -0.0395042 0)
(1.1618 -0.0395042 0)
(1.1618 -0.0395042 0)
(1.1618 -0.0395042 0)
(1.1618 -0.0395042 0)
(1.1618 -0.0395042 0)
(1.1618 -0.0395042 0)
(1.1618 -0.0395042 0)
(1.1618 -0.0395042 0)
(1.1618 -0.0395042 0)
(1.1618 -0.0395042 0)
(1.1618 -0.0395042 0)
(1.1618 -0.0395042 0)
(1.1618 -0.0395042 0)
(1.1618 -0.0395042 0)
(1.1618 -0.0395042 0)
(1.1618 -0.0395042 0)
(1.1618 -0.0395042 0)
(1.1618 -0.0395042 0)
(1.1618 -0.0395042 0)
(1.1618 -0.0395042 0)
(1.1618 -0.0395042 0)
(1.1618 -0.0395042 0)
(1.1618 -0.0395042 0)
(1.1618 -0.0395042 0)
(1.1618 -0.0395042 0)
(1.1618 -0.0395042 0)
(1.1618 -0.0395042 0)
(1.1618 -0.0395042 0)
(1.1618 -0.039504 0)
(1.1618 -0.0394955 0)
(1.16177 -0.0391498 0)
(1.16114 -0.0224095 0)
)
;

boundaryField
{
    inandouthalf11
    {
        type            cyclic;
    }
    inandouthalf12
    {
        type            cyclic;
    }
    inandouthalf21
    {
        type            cyclic;
    }
    inandouthalf22
    {
        type            cyclic;
    }
    inandouthalf31
    {
        type            cyclic;
    }
    inandouthalf32
    {
        type            cyclic;
    }
    inandouthalf41
    {
        type            cyclic;
    }
    inandouthalf42
    {
        type            cyclic;
    }
    top
    {
        type            symmetryPlane;
    }
    walls
    {
        type            fixedValue;
        value           uniform (0 0 0);
    }
    frontAndBackPlanes
    {
        type            empty;
    }
}


// ************************************************************************* //
