/*--------------------------------*- C++ -*----------------------------------*\
| =========                 |                                                 |
| \\      /  F ield         | OpenFOAM: The Open Source CFD Toolbox           |
|  \\    /   O peration     | Version:  2.4.x                                 |
|   \\  /    A nd           | Web:      www.OpenFOAM.org                      |
|    \\/     M anipulation  |                                                 |
\*---------------------------------------------------------------------------*/
FoamFile
{
    version     2.0;
    format      ascii;
    class       volVectorField;
    location    "8.45";
    object      Ub_0;
}
// * * * * * * * * * * * * * * * * * * * * * * * * * * * * * * * * * * * * * //

dimensions      [0 1 -1 0 0 0 0];

internalField   nonuniform List<vector> 
360
(
(0.000205565 2.44638e-08 0)
(0.000204471 8.72691e-08 0)
(0.000204326 1.61645e-07 0)
(0.000204494 2.32562e-07 0)
(0.000204586 3.04153e-07 0)
(0.00020463 3.78421e-07 0)
(0.000204678 4.54442e-07 0)
(0.000204735 5.31274e-07 0)
(0.000204793 6.08615e-07 0)
(0.000204852 6.86441e-07 0)
(0.000204912 7.64748e-07 0)
(0.000204972 8.43465e-07 0)
(0.000205032 9.22491e-07 0)
(0.000205092 1.00172e-06 0)
(0.000205153 1.08107e-06 0)
(0.000205214 1.16046e-06 0)
(0.000205276 1.23982e-06 0)
(0.000205338 1.31908e-06 0)
(0.000205401 1.39817e-06 0)
(0.000205464 1.47703e-06 0)
(0.000205527 1.55557e-06 0)
(0.00020559 1.63375e-06 0)
(0.000205654 1.71151e-06 0)
(0.000205718 1.78879e-06 0)
(0.000205782 1.86557e-06 0)
(0.000205847 1.9418e-06 0)
(0.000205911 2.01745e-06 0)
(0.000205977 2.0925e-06 0)
(0.000206042 2.16693e-06 0)
(0.000206108 2.24072e-06 0)
(0.000206174 2.31388e-06 0)
(0.00020624 2.3864e-06 0)
(0.000206307 2.45827e-06 0)
(0.000206374 2.52953e-06 0)
(0.000206441 2.60016e-06 0)
(0.000206509 2.67019e-06 0)
(0.000206577 2.73962e-06 0)
(0.000206646 2.80847e-06 0)
(0.000206715 2.87679e-06 0)
(0.000206784 2.94457e-06 0)
(0.000206854 3.01183e-06 0)
(0.000206924 3.07862e-06 0)
(0.000206995 3.14492e-06 0)
(0.000207066 3.21079e-06 0)
(0.000207138 3.27622e-06 0)
(0.00020721 3.34125e-06 0)
(0.000207283 3.4059e-06 0)
(0.000207356 3.47016e-06 0)
(0.00020743 3.53404e-06 0)
(0.000207505 3.5976e-06 0)
(0.00020758 3.66082e-06 0)
(0.000207656 3.72373e-06 0)
(0.000207732 3.78631e-06 0)
(0.00020781 3.8486e-06 0)
(0.000207887 3.91057e-06 0)
(0.000207966 3.97227e-06 0)
(0.000208045 4.03366e-06 0)
(0.000208126 4.09476e-06 0)
(0.000208206 4.15556e-06 0)
(0.000208287 4.21604e-06 0)
(0.00020837 4.27623e-06 0)
(0.000208453 4.33611e-06 0)
(0.000208538 4.39571e-06 0)
(0.000208622 4.45499e-06 0)
(0.000208708 4.51397e-06 0)
(0.000208795 4.57263e-06 0)
(0.000208882 4.63094e-06 0)
(0.000208971 4.68892e-06 0)
(0.000209061 4.74653e-06 0)
(0.000209151 4.80376e-06 0)
(0.000209242 4.8606e-06 0)
(0.000209335 4.91707e-06 0)
(0.000209428 4.97313e-06 0)
(0.000209523 5.0288e-06 0)
(0.000209619 5.08405e-06 0)
(0.000209717 5.1389e-06 0)
(0.000209815 5.19331e-06 0)
(0.000209914 5.24725e-06 0)
(0.000210015 5.30071e-06 0)
(0.000210117 5.35367e-06 0)
(0.00021022 5.40611e-06 0)
(0.000210324 5.45802e-06 0)
(0.000210431 5.5094e-06 0)
(0.000210538 5.56024e-06 0)
(0.000210647 5.61055e-06 0)
(0.000210758 5.6603e-06 0)
(0.00021087 5.70949e-06 0)
(0.000210984 5.7581e-06 0)
(0.000211099 5.80611e-06 0)
(0.000211216 5.85349e-06 0)
(0.000211335 5.90024e-06 0)
(0.000211456 5.94633e-06 0)
(0.000211579 5.99176e-06 0)
(0.000211704 6.03652e-06 0)
(0.000211831 6.08062e-06 0)
(0.00021196 6.12406e-06 0)
(0.000212092 6.16682e-06 0)
(0.000212226 6.20891e-06 0)
(0.000212362 6.25031e-06 0)
(0.000212501 6.29101e-06 0)
(0.000212642 6.331e-06 0)
(0.000212787 6.37028e-06 0)
(0.000212934 6.40884e-06 0)
(0.000213084 6.44669e-06 0)
(0.000213237 6.48381e-06 0)
(0.000213394 6.52023e-06 0)
(0.000213554 6.55594e-06 0)
(0.000213717 6.59098e-06 0)
(0.000213884 6.62536e-06 0)
(0.000214056 6.65911e-06 0)
(0.000214231 6.69227e-06 0)
(0.00021441 6.72489e-06 0)
(0.000214594 6.75702e-06 0)
(0.000214783 6.78873e-06 0)
(0.000214977 6.82009e-06 0)
(0.000215176 6.85115e-06 0)
(0.00021538 6.882e-06 0)
(0.00021559 6.91268e-06 0)
(0.000215807 6.94325e-06 0)
(0.000216029 6.97375e-06 0)
(0.000216258 7.00417e-06 0)
(0.000216495 7.0345e-06 0)
(0.000216739 7.06469e-06 0)
(0.00021699 7.09466e-06 0)
(0.000217251 7.12431e-06 0)
(0.00021752 7.15355e-06 0)
(0.000217799 7.18229e-06 0)
(0.000218088 7.21048e-06 0)
(0.00021839 7.23815e-06 0)
(0.000218704 7.26539e-06 0)
(0.000219032 7.2924e-06 0)
(0.000219374 7.31942e-06 0)
(0.000219731 7.3468e-06 0)
(0.000220108 7.37504e-06 0)
(0.000220509 7.40473e-06 0)
(0.000220932 7.43626e-06 0)
(0.000221377 7.46953e-06 0)
(0.000221849 7.50357e-06 0)
(0.000222371 7.53642e-06 0)
(0.000222968 7.56492e-06 0)
(0.000223615 7.58452e-06 0)
(0.00022424 7.52698e-06 0)
(0.000224987 9.18434e-06 0)
(0.00022595 -1.76413e-06 0)
(0.000228865 4.28471e-05 0)
(0.00123723 -0.000125609 0)
(0.098474 -0.0012152 0)
(0.223267 -0.00127282 0)
(0.327962 -0.00119995 0)
(0.418042 -0.0011453 0)
(0.497249 -0.0010905 0)
(0.567784 -0.0010243 0)
(0.631255 -0.000961304 0)
(0.688789 -0.000900257 0)
(0.741237 -0.000840496 0)
(0.789271 -0.000781633 0)
(0.83343 -0.00072335 0)
(0.874154 -0.000665448 0)
(0.911811 -0.000607943 0)
(0.946707 -0.000551042 0)
(0.9791 -0.000495088 0)
(1.00921 -0.000440537 0)
(1.03722 -0.000387904 0)
(1.06329 -0.000337719 0)
(1.08754 -0.00029048 0)
(1.11009 -0.000246631 0)
(1.13102 -0.000206534 0)
(1.15039 -0.000170454 0)
(1.16826 -0.000138552 0)
(1.18466 -0.000110872 0)
(1.1996 -8.73327e-05 0)
(1.21308 -6.77202e-05 0)
(1.22512 -5.16913e-05 0)
(1.23571 -3.88214e-05 0)
(1.24488 -2.86835e-05 0)
(1.25267 -2.09e-05 0)
(1.25916 -1.51242e-05 0)
(1.26446 -1.09907e-05 0)
(1.26873 -8.11198e-06 0)
(1.2721 -6.12594e-06 0)
(1.27473 -4.74299e-06 0)
(1.27675 -3.759e-06 0)
(1.27828 -3.04049e-06 0)
(1.27942 -2.50246e-06 0)
(1.28023 -2.09035e-06 0)
(1.28078 -1.76838e-06 0)
(1.28112 -1.51244e-06 0)
(1.28129 -1.3059e-06 0)
(1.2813 -1.13701e-06 0)
(1.28119 -9.97291e-07 0)
(1.28097 -8.80501e-07 0)
(1.28066 -7.81973e-07 0)
(1.28026 -6.98156e-07 0)
(1.27979 -6.26311e-07 0)
(1.27926 -5.64298e-07 0)
(1.27866 -5.10423e-07 0)
(1.27802 -4.63333e-07 0)
(1.27733 -4.21934e-07 0)
(1.27659 -3.85335e-07 0)
(1.27581 -3.52799e-07 0)
(1.275 -3.23717e-07 0)
(1.27414 -2.97317e-07 0)
(1.27323 -2.73033e-07 0)
(1.27227 -2.5062e-07 0)
(1.27126 -2.29862e-07 0)
(1.2702 -2.10568e-07 0)
(1.26909 -1.9257e-07 0)
(1.26792 -1.75725e-07 0)
(1.2667 -1.5992e-07 0)
(1.26543 -1.45066e-07 0)
(1.26411 -1.31097e-07 0)
(1.26273 -1.17967e-07 0)
(1.2613 -1.05646e-07 0)
(1.25982 -9.41219e-08 0)
(1.25829 -8.34017e-08 0)
(1.2567 -7.34913e-08 0)
(1.25506 -6.43882e-08 0)
(1.25336 -5.60895e-08 0)
(1.25161 -4.85891e-08 0)
(1.24981 -4.18652e-08 0)
(1.24796 -3.5877e-08 0)
(1.24606 -3.05789e-08 0)
(1.2441 -2.59279e-08 0)
(1.24209 -2.18732e-08 0)
(1.24003 -1.83569e-08 0)
(1.23793 -1.53256e-08 0)
(1.23577 -1.27291e-08 0)
(1.23357 -1.05174e-08 0)
(1.23132 -8.64211e-09 0)
(1.22903 -7.06053e-09 0)
(1.22669 -5.73373e-09 0)
(1.22431 -4.62336e-09 0)
(1.2219 -3.69442e-09 0)
(1.21945 -2.9421e-09 0)
(1.21696 -2.36211e-09 0)
(1.21444 -1.86643e-09 0)
(1.2119 -1.40234e-09 0)
(1.20933 -1.01526e-09 0)
(1.20674 -7.21546e-10 0)
(1.20414 -5.02882e-10 0)
(1.20153 -3.38277e-10 0)
(1.19891 -2.19089e-10 0)
(1.1963 -1.28904e-10 0)
(1.1937 -7.25279e-11 0)
(1.19111 -1.18916e-11 0)
(1.18855 2.22582e-11 0)
(1.18604 1.89043e-12 0)
(1.18357 7.89326e-13 0)
(1.18116 1.9063e-12 0)
(1.17884 2.17455e-12 0)
(1.1766 2.05331e-12 0)
(1.17448 1.93949e-12 0)
(1.1725 1.85643e-12 0)
(1.17066 1.75918e-12 0)
(1.16901 1.71359e-12 0)
(1.16756 2.00652e-12 0)
(1.16633 2.61287e-12 0)
(1.16536 -8.47003e-12 0)
(1.16466 3.17803e-11 0)
(1.16425 -6.40501e-11 0)
(1.16412 1.17524e-10 0)
(1.16425 -1.8242e-10 0)
(1.16462 2.67086e-10 0)
(1.16513 -3.60359e-10 0)
(1.1656 4.67052e-10 0)
(1.16573 -5.7594e-10 0)
(1.16574 6.91902e-10 0)
(1.16574 -8.07199e-10 0)
(1.16574 9.28343e-10 0)
(1.16574 -1.04917e-09 0)
(1.16574 1.17581e-09 0)
(1.16574 -1.30261e-09 0)
(1.16574 1.43523e-09 0)
(1.16574 -1.56842e-09 0)
(1.16574 1.70743e-09 0)
(1.16574 -1.84738e-09 0)
(1.16574 1.99316e-09 0)
(1.16574 -2.14021e-09 0)
(1.16574 2.29307e-09 0)
(1.16574 -2.44751e-09 0)
(1.16574 2.60772e-09 0)
(1.16574 -2.76981e-09 0)
(1.16574 2.93765e-09 0)
(1.16574 -3.10761e-09 0)
(1.16574 3.28328e-09 0)
(1.16574 -3.46132e-09 0)
(1.16574 3.645e-09 0)
(1.16574 -3.83135e-09 0)
(1.16574 4.02313e-09 0)
(1.16574 -4.2179e-09 0)
(1.16574 4.41797e-09 0)
(1.16574 -4.6213e-09 0)
(1.16574 4.82974e-09 0)
(1.16574 -5.04173e-09 0)
(1.16574 5.25863e-09 0)
(1.16574 -5.47935e-09 0)
(1.16574 5.70479e-09 0)
(1.16574 -5.93425e-09 0)
(1.16574 6.16831e-09 0)
(1.16574 -6.40645e-09 0)
(1.16574 6.64918e-09 0)
(1.16574 -6.89598e-09 0)
(1.16574 7.14736e-09 0)
(1.16574 -7.40274e-09 0)
(1.16574 7.66268e-09 0)
(1.16574 -7.92654e-09 0)
(1.16574 8.19491e-09 0)
(1.16574 -8.46708e-09 0)
(1.16574 8.74369e-09 0)
(1.16574 -9.02394e-09 0)
(1.16574 8.17262e-09 0)
(1.16574 -8.27161e-09 0)
(1.16574 8.36992e-09 0)
(1.16574 -8.46679e-09 0)
(1.16574 8.56297e-09 0)
(1.16574 -8.65768e-09 0)
(1.16574 8.7517e-09 0)
(1.16574 -8.84421e-09 0)
(1.16574 8.936e-09 0)
(1.16574 -9.02627e-09 0)
(1.16574 9.11579e-09 0)
(1.16574 -9.20376e-09 0)
(1.16574 9.29096e-09 0)
(1.16574 -9.37657e-09 0)
(1.16574 9.46139e-09 0)
(1.16574 -9.54458e-09 0)
(1.16574 9.62697e-09 0)
(1.16574 -9.70761e-09 0)
(1.16574 9.78766e-09 0)
(1.16574 -9.8655e-09 0)
(1.16574 9.94333e-09 0)
(1.16574 -1.00181e-08 0)
(1.16574 1.00938e-08 0)
(1.16574 -1.01654e-08 0)
(1.16574 1.02387e-08 0)
(1.16574 -1.03072e-08 0)
(1.16574 1.0378e-08 0)
(1.16574 -1.04432e-08 0)
(1.16574 1.05113e-08 0)
(1.16574 -1.05732e-08 0)
(1.16574 1.06384e-08 0)
(1.16574 -1.06969e-08 0)
(1.16574 1.07588e-08 0)
(1.16574 -1.08139e-08 0)
(1.16574 1.08722e-08 0)
(1.16574 -1.09238e-08 0)
(1.16574 1.09783e-08 0)
(1.16574 -1.10261e-08 0)
(1.16574 1.10764e-08 0)
(1.16574 -1.11204e-08 0)
(1.16574 1.11656e-08 0)
(1.16574 -1.12057e-08 0)
(1.16574 1.12451e-08 0)
(1.16574 -1.12811e-08 0)
(1.16574 1.13136e-08 0)
(1.16574 -1.13449e-08 0)
(1.16574 1.1369e-08 0)
(1.16574 -1.13943e-08 0)
(1.16574 1.14076e-08 0)
(1.16574 -1.14205e-08 0)
)
;

boundaryField
{
    inandouthalf11
    {
        type            cyclic;
    }
    inandouthalf12
    {
        type            cyclic;
    }
    inandouthalf21
    {
        type            cyclic;
    }
    inandouthalf22
    {
        type            cyclic;
    }
    inandouthalf31
    {
        type            cyclic;
    }
    inandouthalf32
    {
        type            cyclic;
    }
    inandouthalf41
    {
        type            cyclic;
    }
    inandouthalf42
    {
        type            cyclic;
    }
    top
    {
        type            symmetryPlane;
    }
    walls
    {
        type            fixedValue;
        value           uniform (0 0 0);
    }
    frontAndBackPlanes
    {
        type            empty;
    }
}


// ************************************************************************* //
