/*--------------------------------*- C++ -*----------------------------------*\
| =========                 |                                                 |
| \\      /  F ield         | OpenFOAM: The Open Source CFD Toolbox           |
|  \\    /   O peration     | Version:  2.4.x                                 |
|   \\  /    A nd           | Web:      www.OpenFOAM.org                      |
|    \\/     M anipulation  |                                                 |
\*---------------------------------------------------------------------------*/
FoamFile
{
    version     2.0;
    format      ascii;
    class       volScalarField;
    location    "10";
    object      alpha;
}
// * * * * * * * * * * * * * * * * * * * * * * * * * * * * * * * * * * * * * //

dimensions      [0 0 0 0 0 0 0];

internalField   nonuniform List<scalar> 
360
(
0.610883
0.611746
0.611836
0.611747
0.611705
0.611691
0.611675
0.611653
0.61163
0.611608
0.611585
0.611562
0.611539
0.611516
0.611493
0.611469
0.611445
0.611421
0.611396
0.611371
0.611346
0.611321
0.611295
0.61127
0.611244
0.611217
0.611191
0.611164
0.611136
0.611109
0.611081
0.611053
0.611024
0.610996
0.610967
0.610937
0.610908
0.610877
0.610847
0.610816
0.610785
0.610754
0.610722
0.61069
0.610658
0.610625
0.610591
0.610558
0.610524
0.610489
0.610455
0.610419
0.610384
0.610348
0.610311
0.610274
0.610237
0.610199
0.610161
0.610122
0.610082
0.610043
0.610002
0.609961
0.60992
0.609878
0.609836
0.609792
0.609749
0.609705
0.60966
0.609614
0.609568
0.609521
0.609473
0.609425
0.609376
0.609326
0.609276
0.609225
0.609173
0.60912
0.609066
0.609011
0.608956
0.608899
0.608842
0.608783
0.608724
0.608664
0.608602
0.608539
0.608475
0.60841
0.608344
0.608276
0.608207
0.608137
0.608065
0.607992
0.607917
0.607841
0.607763
0.607683
0.607602
0.607518
0.607433
0.607346
0.607256
0.607164
0.60707
0.606974
0.606875
0.606774
0.60667
0.606563
0.606453
0.60634
0.606223
0.606104
0.60598
0.605853
0.605722
0.605586
0.605446
0.6053
0.60515
0.604994
0.604832
0.604663
0.604487
0.604305
0.604113
0.603912
0.603698
0.603472
0.603233
0.60298
0.602699
0.602377
0.602029
0.601632
0.597395
0.596732
0.596412
0.595324
0.593707
0.406272
0.260921
0.200796
0.159516
0.129288
0.106794
0.0894925
0.0758916
0.0650284
0.0562369
0.0490362
0.0430728
0.0380814
0.0338624
0.0302635
0.0271674
0.0244832
0.0221393
0.0200797
0.018259
0.0166412
0.0151968
0.0139017
0.0127358
0.0116827
0.0107284
0.00986126
0.00907126
0.00834989
0.00768984
0.00708477
0.00652918
0.00601827
0.00554781
0.00511409
0.00471382
0.00434408
0.00400224
0.00368597
0.00339316
0.00312191
0.0028705
0.00263734
0.002421
0.00222016
0.00203363
0.00186033
0.00169937
0.00155003
0.0014118
0.00128433
0.00116738
0.00106069
0.000963878
0.000875488
0.000794291
0.00071984
0.000651615
0.000589093
0.000531775
0.000479195
0.000430916
0.000386518
0.000345593
0.000307737
0.000272563
0.000239742
0.000209052
0.000180437
0.000154025
0.000130072
0.000108847
9.05e-05
7.49941e-05
6.21074e-05
5.15076e-05
4.28172e-05
3.56846e-05
2.97935e-05
2.49113e-05
2.07964e-05
1.73868e-05
1.44084e-05
1.203e-05
9.80749e-06
8.21732e-06
6.491e-06
5.56713e-06
4.09315e-06
4.56397e-06
3.49462e-06
2.34123e-06
1.62041e-06
1.10164e-06
7.51297e-07
5.09631e-07
3.41798e-07
2.30362e-07
1.48404e-07
9.97041e-08
5.83895e-08
3.95103e-08
1.79304e-08
1.24539e-08
7.79385e-10
1.16525e-21
1.04407e-33
1.59565e-35
1.28969e-39
2.15029e-40
3.64817e-45
6.49811e-46
1.02657e-50
1.95569e-51
2.90723e-56
5.94948e-57
9.0374e-60
4.7066e-60
1.52393e-60
7.18806e-61
3.33203e-61
1.51696e-61
6.77878e-62
2.9715e-62
1.27694e-62
5.37504e-63
2.21433e-63
8.92384e-64
3.51549e-64
1.35263e-64
5.07867e-65
1.85902e-65
6.62741e-66
2.29861e-66
7.74722e-67
2.53426e-67
8.03536e-68
2.46596e-68
7.31344e-69
2.09259e-69
5.76604e-70
1.52699e-70
3.87803e-71
9.42216e-72
2.18421e-72
4.81672e-73
1.0071e-73
1.98893e-74
3.69436e-75
6.42239e-76
1.03902e-76
1.5539e-77
2.13134e-78
2.65554e-79
2.97024e-80
2.93824e-81
2.52106e-82
1.82718e-83
1.07681e-84
4.86133e-86
1.51066e-87
2.51279e-89
3.82137e-92
3.24815e-98
2.18574e-100
7.28192e-103
2.85986e-113
5.72481e-124
8.5824e-135
9.35754e-146
8.90273e-157
6.53448e-168
4.12899e-179
1.0292e-189
4.59257e-200
2.81444e-208
1.32964e-218
9.67933e-227
5.40749e-237
3.33204e-245
2.28299e-255
1.14848e-263
1.46304e-273
4.05754e-282
9.69704e-292
1.48553e-300
4.79922e-310
1.74154e-318
7.5098e-321
2.51973e-321
8.86848e-321
4.57737e-319
2.8055e-319
6.80328e-321
7.09478e-321
6.08689e-321
8.5424e-321
0
0
0
0
0
0
0
0
0
0
0
0
0
0
0
0
)
;

boundaryField
{
    inandouthalf11
    {
        type            cyclic;
    }
    inandouthalf12
    {
        type            cyclic;
    }
    inandouthalf21
    {
        type            cyclic;
    }
    inandouthalf22
    {
        type            cyclic;
    }
    inandouthalf31
    {
        type            cyclic;
    }
    inandouthalf32
    {
        type            cyclic;
    }
    inandouthalf41
    {
        type            cyclic;
    }
    inandouthalf42
    {
        type            cyclic;
    }
    top
    {
        type            symmetryPlane;
    }
    walls
    {
        type            zeroGradient;
    }
    frontAndBackPlanes
    {
        type            empty;
    }
}


// ************************************************************************* //
