/*--------------------------------*- C++ -*----------------------------------*\
| =========                 |                                                 |
| \\      /  F ield         | OpenFOAM: The Open Source CFD Toolbox           |
|  \\    /   O peration     | Version:  2.4.x                                 |
|   \\  /    A nd           | Web:      www.OpenFOAM.org                      |
|    \\/     M anipulation  |                                                 |
\*---------------------------------------------------------------------------*/
FoamFile
{
    version     2.0;
    format      ascii;
    class       volScalarField;
    location    "10";
    object      alpha_0;
}
// * * * * * * * * * * * * * * * * * * * * * * * * * * * * * * * * * * * * * //

dimensions      [0 0 0 0 0 0 0];

internalField   nonuniform List<scalar> 
360
(
0.610883
0.611746
0.611836
0.611747
0.611705
0.611691
0.611675
0.611653
0.61163
0.611608
0.611585
0.611562
0.611539
0.611516
0.611493
0.611469
0.611445
0.611421
0.611396
0.611371
0.611346
0.611321
0.611295
0.61127
0.611244
0.611217
0.611191
0.611164
0.611136
0.611109
0.611081
0.611053
0.611024
0.610995
0.610967
0.610937
0.610907
0.610877
0.610847
0.610816
0.610785
0.610754
0.610722
0.61069
0.610658
0.610625
0.610591
0.610558
0.610524
0.610489
0.610455
0.610419
0.610384
0.610348
0.610311
0.610274
0.610237
0.610199
0.610161
0.610122
0.610082
0.610043
0.610002
0.609961
0.60992
0.609878
0.609836
0.609792
0.609749
0.609705
0.60966
0.609614
0.609568
0.609521
0.609473
0.609425
0.609376
0.609326
0.609276
0.609225
0.609173
0.60912
0.609066
0.609011
0.608956
0.608899
0.608842
0.608783
0.608724
0.608664
0.608602
0.608539
0.608475
0.60841
0.608344
0.608276
0.608207
0.608137
0.608065
0.607992
0.607917
0.607841
0.607763
0.607683
0.607602
0.607518
0.607433
0.607346
0.607256
0.607164
0.60707
0.606974
0.606875
0.606774
0.60667
0.606563
0.606453
0.60634
0.606223
0.606104
0.60598
0.605853
0.605722
0.605586
0.605446
0.6053
0.60515
0.604994
0.604832
0.604663
0.604487
0.604305
0.604113
0.603912
0.603698
0.603472
0.603233
0.60298
0.602699
0.602377
0.602029
0.601632
0.597392
0.596725
0.596408
0.595317
0.593701
0.405935
0.26085
0.200771
0.159512
0.129317
0.106838
0.0895373
0.0759331
0.0650651
0.0562688
0.0490638
0.0430966
0.0381022
0.0338805
0.0302794
0.0271814
0.0244955
0.0221503
0.0200894
0.0182678
0.0166491
0.0152038
0.0139079
0.0127414
0.0116878
0.010733
0.00986538
0.00907497
0.00835324
0.00769286
0.00708748
0.00653163
0.00602046
0.00554979
0.00511587
0.00471542
0.0043455
0.00400352
0.00368711
0.00339418
0.00312282
0.0028713
0.00263805
0.00242162
0.00222071
0.0020341
0.00186074
0.00169972
0.00155033
0.00141205
0.00128454
0.00116756
0.00106085
0.000964016
0.00087561
0.000794399
0.000719936
0.000651699
0.000589166
0.000531838
0.000479249
0.000430961
0.000386555
0.000345622
0.000307758
0.000272578
0.00023975
0.000209054
0.000180433
0.000154017
0.000130061
0.000108835
9.0488e-05
7.4983e-05
6.20977e-05
5.14994e-05
4.28104e-05
3.5679e-05
2.97888e-05
2.49075e-05
2.07933e-05
1.73842e-05
1.44063e-05
1.20283e-05
9.80606e-06
8.21613e-06
6.49003e-06
5.56635e-06
4.0925e-06
4.56319e-06
3.49406e-06
2.34088e-06
1.6202e-06
1.10152e-06
7.5123e-07
5.09592e-07
3.41781e-07
2.30348e-07
1.48401e-07
9.9698e-08
5.83893e-08
3.95074e-08
1.79302e-08
1.24529e-08
7.78966e-10
1.14806e-21
1.01956e-33
1.61302e-35
1.29973e-39
2.17226e-40
3.67483e-45
6.56189e-46
1.03359e-50
1.97413e-51
2.92576e-56
6.00326e-57
9.06584e-60
4.72653e-60
1.52914e-60
7.21265e-61
3.34343e-61
1.52215e-61
6.80201e-62
2.9817e-62
1.28133e-62
5.3935e-63
2.22194e-63
8.95453e-64
3.52759e-64
1.35729e-64
5.09617e-65
1.86543e-65
6.65029e-66
2.30655e-66
7.774e-67
2.54303e-67
8.06319e-68
2.47451e-68
7.33881e-69
2.09985e-69
5.78607e-70
1.5323e-70
3.89153e-71
9.45499e-72
2.19183e-72
4.83354e-73
1.01062e-73
1.99589e-74
3.70729e-75
6.4449e-76
1.04266e-76
1.55936e-77
2.13884e-78
2.66489e-79
2.98072e-80
2.94862e-81
2.52997e-82
1.83365e-83
1.08063e-84
4.8786e-86
1.51604e-87
2.52175e-89
3.83521e-92
3.26081e-98
2.19431e-100
7.31059e-103
2.87074e-113
5.74581e-124
8.61296e-135
9.38957e-146
8.93231e-157
6.55518e-168
4.14165e-179
1.03303e-189
4.61007e-200
2.82552e-208
1.33473e-218
9.71744e-227
5.42839e-237
3.34516e-245
2.29184e-255
1.153e-263
1.46857e-273
4.07347e-282
9.73316e-292
1.49132e-300
4.81691e-310
1.74154e-318
7.5098e-321
2.51973e-321
8.86848e-321
4.57737e-319
2.8055e-319
6.80328e-321
7.09478e-321
6.08689e-321
8.5424e-321
0
0
0
0
0
0
0
0
0
0
0
0
0
0
0
0
)
;

boundaryField
{
    inandouthalf11
    {
        type            cyclic;
    }
    inandouthalf12
    {
        type            cyclic;
    }
    inandouthalf21
    {
        type            cyclic;
    }
    inandouthalf22
    {
        type            cyclic;
    }
    inandouthalf31
    {
        type            cyclic;
    }
    inandouthalf32
    {
        type            cyclic;
    }
    inandouthalf41
    {
        type            cyclic;
    }
    inandouthalf42
    {
        type            cyclic;
    }
    top
    {
        type            symmetryPlane;
    }
    walls
    {
        type            zeroGradient;
    }
    frontAndBackPlanes
    {
        type            empty;
    }
}


// ************************************************************************* //
