/*--------------------------------*- C++ -*----------------------------------*\
| =========                 |                                                 |
| \\      /  F ield         | OpenFOAM: The Open Source CFD Toolbox           |
|  \\    /   O peration     | Version:  2.4.x                                 |
|   \\  /    A nd           | Web:      www.OpenFOAM.org                      |
|    \\/     M anipulation  |                                                 |
\*---------------------------------------------------------------------------*/
FoamFile
{
    version     2.0;
    format      ascii;
    class       surfaceScalarField;
    location    "10";
    object      ddt0(phia);
}
// * * * * * * * * * * * * * * * * * * * * * * * * * * * * * * * * * * * * * //

dimensions      [0 3 -2 0 0 0 0];

internalField   nonuniform List<scalar> 
359
(
1.55885e-14
3.91447e-14
6.06299e-14
8.14105e-14
1.03485e-13
1.27119e-13
1.52208e-13
1.78845e-13
2.07198e-13
2.37424e-13
2.69621e-13
3.03824e-13
3.40045e-13
3.78271e-13
4.18483e-13
4.60656e-13
5.04754e-13
5.50729e-13
5.98526e-13
6.48099e-13
6.99379e-13
7.52317e-13
8.06857e-13
8.62941e-13
9.20516e-13
9.79524e-13
1.03991e-12
1.10162e-12
1.16462e-12
1.22883e-12
1.29422e-12
1.36073e-12
1.4283e-12
1.49691e-12
1.56648e-12
1.63698e-12
1.70833e-12
1.7805e-12
1.85344e-12
1.92706e-12
2.00136e-12
2.07625e-12
2.15166e-12
2.22757e-12
2.30389e-12
2.38058e-12
2.45758e-12
2.53478e-12
2.61215e-12
2.68966e-12
2.76719e-12
2.84471e-12
2.92213e-12
2.9994e-12
3.07643e-12
3.15319e-12
3.22956e-12
3.30552e-12
3.38096e-12
3.4558e-12
3.53003e-12
3.60354e-12
3.6763e-12
3.74824e-12
3.81928e-12
3.88935e-12
3.95842e-12
4.0264e-12
4.09324e-12
4.15886e-12
4.22325e-12
4.28637e-12
4.34814e-12
4.40855e-12
4.46756e-12
4.52514e-12
4.58124e-12
4.63583e-12
4.68887e-12
4.74035e-12
4.79023e-12
4.83853e-12
4.88522e-12
4.93031e-12
4.9738e-12
5.0157e-12
5.056e-12
5.0947e-12
5.13181e-12
5.16733e-12
5.20128e-12
5.23367e-12
5.26452e-12
5.29386e-12
5.32171e-12
5.34809e-12
5.37303e-12
5.39657e-12
5.41871e-12
5.43949e-12
5.45893e-12
5.47707e-12
5.49394e-12
5.50955e-12
5.52395e-12
5.53716e-12
5.54921e-12
5.56011e-12
5.56989e-12
5.57857e-12
5.58616e-12
5.59267e-12
5.59811e-12
5.60248e-12
5.60579e-12
5.608e-12
5.6091e-12
5.60903e-12
5.60773e-12
5.60513e-12
5.6012e-12
5.59595e-12
5.58948e-12
5.58206e-12
5.5741e-12
5.56613e-12
5.55875e-12
5.55243e-12
5.54737e-12
5.54334e-12
5.53961e-12
5.53505e-12
5.52805e-12
5.51673e-12
5.49899e-12
5.47387e-12
5.44313e-12
5.41324e-12
5.39077e-12
5.37827e-12
5.37164e-12
5.37181e-12
1.95339e-09
9.7216e-09
1.53711e-08
3.48389e-08
3.67878e-09
7.48309e-08
1.3113e-07
2.20476e-07
2.62541e-07
1.04665e-07
-6.10828e-09
-7.21873e-08
-1.04877e-07
-1.1668e-07
-1.17506e-07
-1.13165e-07
-1.0671e-07
-9.97973e-08
-9.32441e-08
-8.74025e-08
-8.23862e-08
-7.8182e-08
-7.47152e-08
-7.18857e-08
-6.95872e-08
-6.77192e-08
-6.61919e-08
-6.49287e-08
-6.38663e-08
-6.29544e-08
-6.21536e-08
-6.14338e-08
-6.07729e-08
-6.01547e-08
-5.95674e-08
-5.90026e-08
-5.8454e-08
-5.79161e-08
-5.73848e-08
-5.68557e-08
-5.63237e-08
-5.57829e-08
-5.52262e-08
-5.46449e-08
-5.40279e-08
-5.33615e-08
-5.2628e-08
-5.18049e-08
-5.08638e-08
-4.97713e-08
-4.84953e-08
-4.70178e-08
-4.5356e-08
-4.35857e-08
-4.18561e-08
-4.038e-08
-3.93903e-08
-3.90621e-08
-3.94095e-08
-4.02801e-08
-4.14573e-08
-4.278e-08
-4.41547e-08
-4.55253e-08
-4.68563e-08
-4.81197e-08
-4.92872e-08
-5.03222e-08
-5.11734e-08
-5.17697e-08
-5.20201e-08
-5.18254e-08
-5.11029e-08
-4.98212e-08
-4.80278e-08
-4.58519e-08
-4.34733e-08
-4.10741e-08
-3.87994e-08
-3.67394e-08
-3.49355e-08
-3.33939e-08
-3.20998e-08
-3.10328e-08
-3.01619e-08
-2.94725e-08
-2.89288e-08
-2.85298e-08
-2.8241e-08
-2.80649e-08
-2.79853e-08
-2.79654e-08
-2.8083e-08
-2.82994e-08
-1.69184e-08
-1.58061e-08
-1.63793e-08
-1.68156e-08
-1.9058e-08
-2.04615e-08
-2.43476e-08
-2.47262e-08
-3.02335e-08
-2.84347e-08
-3.61922e-08
-3.12998e-08
-4.06229e-08
-3.24492e-08
-2.97953e-08
3.20147e-08
7.65759e-09
7.35858e-10
3.74674e-10
4.03626e-10
4.01194e-10
3.99088e-10
3.95032e-10
3.89271e-10
3.81819e-10
3.7267e-10
3.61787e-10
3.49105e-10
3.3453e-10
3.17917e-10
2.99e-10
2.773e-10
2.50296e-10
2.18706e-10
7.34026e-11
1.94652e-10
3.03821e-10
3.04087e-10
3.03757e-10
3.03753e-10
3.03752e-10
3.03752e-10
3.03753e-10
3.03752e-10
3.03753e-10
3.03753e-10
3.03753e-10
3.03752e-10
3.03752e-10
3.03752e-10
3.03752e-10
3.03752e-10
3.03752e-10
3.03752e-10
3.03751e-10
3.03751e-10
3.03751e-10
3.0375e-10
3.0375e-10
3.0375e-10
3.03749e-10
3.0375e-10
3.03749e-10
3.0375e-10
3.03749e-10
3.0375e-10
3.03749e-10
3.0375e-10
3.03749e-10
3.0375e-10
3.03749e-10
3.0375e-10
3.03749e-10
3.0375e-10
3.03749e-10
3.0375e-10
3.03749e-10
3.0375e-10
3.03749e-10
3.0375e-10
3.03749e-10
3.0375e-10
3.0375e-10
3.0375e-10
3.0375e-10
3.0375e-10
3.0375e-10
3.0375e-10
3.0375e-10
3.0375e-10
3.0375e-10
3.0375e-10
3.0375e-10
3.0375e-10
3.0375e-10
3.0375e-10
3.0375e-10
3.03751e-10
3.0375e-10
3.03751e-10
3.03751e-10
3.03751e-10
3.03751e-10
3.03751e-10
3.03751e-10
3.03752e-10
3.03752e-10
3.03752e-10
3.03752e-10
3.03752e-10
3.03751e-10
3.03751e-10
3.03751e-10
3.0375e-10
3.0375e-10
3.0375e-10
3.03749e-10
3.03748e-10
3.03747e-10
3.03753e-10
3.03912e-10
3.07403e-10
4.66548e-10
)
;

boundaryField
{
    inandouthalf11
    {
        type            cyclic;
        value           nonuniform List<scalar> 
100
(
2.60265e-38
5.53172e-15
1.12639e-14
1.62034e-14
2.10726e-14
2.60126e-14
3.09207e-14
3.57668e-14
4.05777e-14
4.53861e-14
5.02178e-14
5.50923e-14
6.00248e-14
6.50288e-14
7.01168e-14
7.53008e-14
8.05922e-14
8.60007e-14
9.15348e-14
9.72024e-14
1.0301e-13
1.08965e-13
1.15072e-13
1.21337e-13
1.27765e-13
1.34359e-13
1.41122e-13
1.48059e-13
1.55172e-13
1.62463e-13
1.69935e-13
1.77587e-13
1.85422e-13
1.93441e-13
2.01644e-13
2.10031e-13
2.18601e-13
2.27355e-13
2.36292e-13
2.4541e-13
2.54708e-13
2.64186e-13
2.73839e-13
2.83667e-13
2.93667e-13
3.03837e-13
3.14174e-13
3.24673e-13
3.35329e-13
3.46142e-13
3.57107e-13
3.68219e-13
3.79473e-13
3.90865e-13
4.02389e-13
4.1404e-13
4.25813e-13
4.37701e-13
4.49698e-13
4.61794e-13
4.73985e-13
4.86266e-13
4.9863e-13
5.11071e-13
5.2358e-13
5.36148e-13
5.48769e-13
5.61435e-13
5.74135e-13
5.8686e-13
5.99604e-13
6.12362e-13
6.25123e-13
6.3788e-13
6.50627e-13
6.63356e-13
6.7606e-13
6.88726e-13
7.01346e-13
7.13912e-13
7.26416e-13
7.38851e-13
7.51211e-13
7.63491e-13
7.75685e-13
7.87788e-13
7.99793e-13
8.11694e-13
8.23483e-13
8.35152e-13
8.46696e-13
8.58109e-13
8.69388e-13
8.80529e-13
8.91528e-13
9.02385e-13
9.13095e-13
9.23655e-13
9.34063e-13
9.44316e-13
)
;
    }
    inandouthalf12
    {
        type            cyclic;
        value           nonuniform List<scalar> 
100
(
-2.60265e-38
-5.53172e-15
-1.12639e-14
-1.62034e-14
-2.10726e-14
-2.60126e-14
-3.09207e-14
-3.57668e-14
-4.05777e-14
-4.53861e-14
-5.02178e-14
-5.50923e-14
-6.00248e-14
-6.50288e-14
-7.01168e-14
-7.53008e-14
-8.05922e-14
-8.60007e-14
-9.15348e-14
-9.72024e-14
-1.0301e-13
-1.08965e-13
-1.15072e-13
-1.21337e-13
-1.27765e-13
-1.34359e-13
-1.41122e-13
-1.48059e-13
-1.55172e-13
-1.62463e-13
-1.69935e-13
-1.77587e-13
-1.85422e-13
-1.93441e-13
-2.01644e-13
-2.10031e-13
-2.18601e-13
-2.27355e-13
-2.36292e-13
-2.4541e-13
-2.54708e-13
-2.64186e-13
-2.73839e-13
-2.83667e-13
-2.93667e-13
-3.03837e-13
-3.14174e-13
-3.24673e-13
-3.35329e-13
-3.46142e-13
-3.57107e-13
-3.68219e-13
-3.79473e-13
-3.90865e-13
-4.02389e-13
-4.1404e-13
-4.25813e-13
-4.37701e-13
-4.49698e-13
-4.61794e-13
-4.73985e-13
-4.86266e-13
-4.9863e-13
-5.11071e-13
-5.2358e-13
-5.36148e-13
-5.48769e-13
-5.61435e-13
-5.74135e-13
-5.8686e-13
-5.99604e-13
-6.12362e-13
-6.25123e-13
-6.3788e-13
-6.50627e-13
-6.63356e-13
-6.7606e-13
-6.88726e-13
-7.01346e-13
-7.13912e-13
-7.26416e-13
-7.38851e-13
-7.51211e-13
-7.63491e-13
-7.75685e-13
-7.87788e-13
-7.99793e-13
-8.11694e-13
-8.23483e-13
-8.35152e-13
-8.46696e-13
-8.58109e-13
-8.69388e-13
-8.80529e-13
-8.91528e-13
-9.02385e-13
-9.13095e-13
-9.23655e-13
-9.34063e-13
-9.44316e-13
)
;
    }
    inandouthalf21
    {
        type            cyclic;
        value           nonuniform List<scalar> 
100
(
9.54411e-13
9.64346e-13
9.74121e-13
9.83736e-13
9.93189e-13
1.00248e-12
1.01161e-12
1.02058e-12
1.02939e-12
1.03804e-12
1.04652e-12
1.05484e-12
1.06299e-12
1.07098e-12
1.07879e-12
1.08643e-12
1.09389e-12
1.10117e-12
1.10825e-12
1.11513e-12
1.1218e-12
1.12823e-12
1.13442e-12
1.14036e-12
1.14604e-12
1.1515e-12
1.15677e-12
1.16189e-12
1.1669e-12
1.17181e-12
1.17661e-12
1.18122e-12
1.18555e-12
1.18947e-12
1.19279e-12
1.19533e-12
1.19706e-12
1.19844e-12
1.20011e-12
1.20156e-12
1.20151e-12
1.20041e-12
1.20011e-12
1.72914e-10
8.94676e-10
2.61782e-09
1.00994e-08
9.28523e-07
1.16941e-06
8.59682e-07
7.41662e-07
7.25621e-07
7.53352e-07
7.95375e-07
8.37595e-07
8.75684e-07
9.08968e-07
9.37936e-07
9.63321e-07
9.85802e-07
1.00593e-06
1.02412e-06
1.0407e-06
1.05593e-06
1.06999e-06
1.08304e-06
1.0952e-06
1.10657e-06
1.11723e-06
1.12725e-06
1.13668e-06
1.14559e-06
1.15401e-06
1.16199e-06
1.16955e-06
1.17672e-06
1.18354e-06
1.19002e-06
1.19618e-06
1.20205e-06
1.20763e-06
1.21295e-06
1.21801e-06
1.22283e-06
1.22741e-06
1.23177e-06
1.2359e-06
1.23983e-06
1.24355e-06
1.24707e-06
1.25039e-06
1.25353e-06
1.25649e-06
1.25927e-06
1.26188e-06
1.26433e-06
1.26663e-06
1.2688e-06
1.27083e-06
1.27274e-06
)
;
    }
    inandouthalf22
    {
        type            cyclic;
        value           nonuniform List<scalar> 
100
(
-9.54411e-13
-9.64346e-13
-9.74121e-13
-9.83736e-13
-9.93189e-13
-1.00248e-12
-1.01161e-12
-1.02058e-12
-1.02939e-12
-1.03804e-12
-1.04652e-12
-1.05484e-12
-1.06299e-12
-1.07098e-12
-1.07879e-12
-1.08643e-12
-1.09389e-12
-1.10117e-12
-1.10825e-12
-1.11513e-12
-1.1218e-12
-1.12823e-12
-1.13442e-12
-1.14036e-12
-1.14604e-12
-1.1515e-12
-1.15677e-12
-1.16189e-12
-1.1669e-12
-1.17181e-12
-1.17661e-12
-1.18122e-12
-1.18555e-12
-1.18947e-12
-1.19279e-12
-1.19533e-12
-1.19706e-12
-1.19844e-12
-1.20011e-12
-1.20156e-12
-1.20151e-12
-1.20041e-12
-1.20011e-12
-1.72914e-10
-8.94676e-10
-2.61782e-09
-1.00994e-08
-9.28523e-07
-1.16941e-06
-8.59682e-07
-7.41662e-07
-7.25621e-07
-7.53352e-07
-7.95375e-07
-8.37595e-07
-8.75684e-07
-9.08968e-07
-9.37936e-07
-9.63321e-07
-9.85802e-07
-1.00593e-06
-1.02412e-06
-1.0407e-06
-1.05593e-06
-1.06999e-06
-1.08304e-06
-1.0952e-06
-1.10657e-06
-1.11723e-06
-1.12725e-06
-1.13668e-06
-1.14559e-06
-1.15401e-06
-1.16199e-06
-1.16955e-06
-1.17672e-06
-1.18354e-06
-1.19002e-06
-1.19618e-06
-1.20205e-06
-1.20763e-06
-1.21295e-06
-1.21801e-06
-1.22283e-06
-1.22741e-06
-1.23177e-06
-1.2359e-06
-1.23983e-06
-1.24355e-06
-1.24707e-06
-1.25039e-06
-1.25353e-06
-1.25649e-06
-1.25927e-06
-1.26188e-06
-1.26433e-06
-1.26663e-06
-1.2688e-06
-1.27083e-06
-1.27274e-06
)
;
    }
    inandouthalf31
    {
        type            cyclic;
        value           nonuniform List<scalar> 
110
(
1.27455e-06
1.30218e-06
1.33032e-06
1.35898e-06
1.38815e-06
1.41782e-06
1.44799e-06
1.47864e-06
1.50977e-06
1.54135e-06
1.57339e-06
1.60587e-06
1.63879e-06
1.67214e-06
1.70594e-06
1.7402e-06
1.77495e-06
1.81024e-06
1.84611e-06
1.8826e-06
1.91975e-06
1.95761e-06
1.9962e-06
2.03555e-06
2.07566e-06
2.11657e-06
2.1583e-06
2.20088e-06
2.24432e-06
2.28866e-06
2.33393e-06
2.38016e-06
2.42739e-06
2.47567e-06
2.52503e-06
2.57554e-06
2.62698e-06
2.59634e-06
2.64241e-06
2.68714e-06
2.73314e-06
2.7811e-06
2.83058e-06
2.88171e-06
2.9344e-06
2.98905e-06
3.04405e-06
3.1024e-06
3.15878e-06
3.22075e-06
3.2779e-06
3.34289e-06
3.41148e-06
3.47653e-06
3.54528e-06
3.61459e-06
3.68566e-06
3.75842e-06
3.83294e-06
3.90926e-06
3.98746e-06
4.06761e-06
4.14979e-06
4.23408e-06
4.32058e-06
4.4094e-06
4.50066e-06
4.59446e-06
4.69092e-06
4.78985e-06
4.89276e-06
4.99832e-06
5.10224e-06
5.20593e-06
5.3116e-06
5.41941e-06
5.52941e-06
5.64164e-06
5.75615e-06
5.87298e-06
5.99219e-06
6.11382e-06
6.23791e-06
6.36452e-06
6.49371e-06
6.62551e-06
6.75999e-06
6.8972e-06
7.0372e-06
7.18003e-06
7.32577e-06
7.47446e-06
7.62617e-06
7.78096e-06
7.9389e-06
8.10003e-06
8.26444e-06
8.43219e-06
8.60334e-06
8.77797e-06
8.95614e-06
9.13792e-06
9.3234e-06
9.51264e-06
9.70572e-06
9.90272e-06
1.01037e-05
1.03088e-05
1.0518e-05
1.07315e-05
)
;
    }
    inandouthalf32
    {
        type            cyclic;
        value           nonuniform List<scalar> 
110
(
-1.27455e-06
-1.30218e-06
-1.33032e-06
-1.35898e-06
-1.38815e-06
-1.41782e-06
-1.44799e-06
-1.47864e-06
-1.50977e-06
-1.54135e-06
-1.57339e-06
-1.60587e-06
-1.63879e-06
-1.67214e-06
-1.70594e-06
-1.7402e-06
-1.77495e-06
-1.81024e-06
-1.84611e-06
-1.8826e-06
-1.91975e-06
-1.95761e-06
-1.9962e-06
-2.03555e-06
-2.07566e-06
-2.11657e-06
-2.1583e-06
-2.20088e-06
-2.24432e-06
-2.28866e-06
-2.33393e-06
-2.38016e-06
-2.42739e-06
-2.47567e-06
-2.52503e-06
-2.57554e-06
-2.62698e-06
-2.59634e-06
-2.64241e-06
-2.68714e-06
-2.73314e-06
-2.7811e-06
-2.83058e-06
-2.88171e-06
-2.9344e-06
-2.98905e-06
-3.04405e-06
-3.1024e-06
-3.15878e-06
-3.22075e-06
-3.2779e-06
-3.34289e-06
-3.41148e-06
-3.47653e-06
-3.54528e-06
-3.61459e-06
-3.68566e-06
-3.75842e-06
-3.83294e-06
-3.90926e-06
-3.98746e-06
-4.06761e-06
-4.14979e-06
-4.23408e-06
-4.32058e-06
-4.4094e-06
-4.50066e-06
-4.59446e-06
-4.69092e-06
-4.78985e-06
-4.89276e-06
-4.99832e-06
-5.10224e-06
-5.20593e-06
-5.3116e-06
-5.41941e-06
-5.52941e-06
-5.64164e-06
-5.75615e-06
-5.87298e-06
-5.99219e-06
-6.11382e-06
-6.23791e-06
-6.36452e-06
-6.49371e-06
-6.62551e-06
-6.75999e-06
-6.8972e-06
-7.0372e-06
-7.18003e-06
-7.32577e-06
-7.47446e-06
-7.62617e-06
-7.78096e-06
-7.9389e-06
-8.10003e-06
-8.26444e-06
-8.43219e-06
-8.60334e-06
-8.77797e-06
-8.95614e-06
-9.13792e-06
-9.3234e-06
-9.51264e-06
-9.70572e-06
-9.90272e-06
-1.01037e-05
-1.03088e-05
-1.0518e-05
-1.07315e-05
)
;
    }
    inandouthalf41
    {
        type            cyclic;
        value           nonuniform List<scalar> 
50
(
9.60581e-06
9.60581e-06
9.60581e-06
9.60581e-06
9.60581e-06
9.60581e-06
9.60581e-06
9.60581e-06
9.60581e-06
9.60581e-06
9.60581e-06
9.60581e-06
9.60581e-06
9.60581e-06
9.60581e-06
9.60581e-06
9.60581e-06
9.60581e-06
9.60581e-06
9.60581e-06
9.60581e-06
9.60581e-06
9.60581e-06
9.60581e-06
9.60581e-06
9.60581e-06
9.60581e-06
9.60581e-06
9.60581e-06
9.60581e-06
9.60581e-06
9.60581e-06
9.60581e-06
9.60581e-06
9.60581e-06
9.60581e-06
9.60581e-06
9.60581e-06
9.60581e-06
9.60581e-06
9.60581e-06
9.60581e-06
9.60581e-06
9.60581e-06
9.60581e-06
9.60581e-06
9.60581e-06
9.6058e-06
9.60566e-06
9.60243e-06
)
;
    }
    inandouthalf42
    {
        type            cyclic;
        value           nonuniform List<scalar> 
50
(
-9.60581e-06
-9.60581e-06
-9.60581e-06
-9.60581e-06
-9.60581e-06
-9.60581e-06
-9.60581e-06
-9.60581e-06
-9.60581e-06
-9.60581e-06
-9.60581e-06
-9.60581e-06
-9.60581e-06
-9.60581e-06
-9.60581e-06
-9.60581e-06
-9.60581e-06
-9.60581e-06
-9.60581e-06
-9.60581e-06
-9.60581e-06
-9.60581e-06
-9.60581e-06
-9.60581e-06
-9.60581e-06
-9.60581e-06
-9.60581e-06
-9.60581e-06
-9.60581e-06
-9.60581e-06
-9.60581e-06
-9.60581e-06
-9.60581e-06
-9.60581e-06
-9.60581e-06
-9.60581e-06
-9.60581e-06
-9.60581e-06
-9.60581e-06
-9.60581e-06
-9.60581e-06
-9.60581e-06
-9.60581e-06
-9.60581e-06
-9.60581e-06
-9.60581e-06
-9.60581e-06
-9.6058e-06
-9.60566e-06
-9.60243e-06
)
;
    }
    top
    {
        type            symmetryPlane;
        value           uniform 0;
    }
    walls
    {
        type            calculated;
        value           uniform 0;
    }
    frontAndBackPlanes
    {
        type            empty;
        value           nonuniform 0();
    }
}


// ************************************************************************* //
