/*--------------------------------*- C++ -*----------------------------------*\
| =========                 |                                                 |
| \\      /  F ield         | OpenFOAM: The Open Source CFD Toolbox           |
|  \\    /   O peration     | Version:  2.4.x                                 |
|   \\  /    A nd           | Web:      www.OpenFOAM.org                      |
|    \\/     M anipulation  |                                                 |
\*---------------------------------------------------------------------------*/
FoamFile
{
    version     2.0;
    format      ascii;
    class       volScalarField;
    location    "10";
    object      ddt0(((1.5*(alpha+1e-08))*rho),Theta);
}
// * * * * * * * * * * * * * * * * * * * * * * * * * * * * * * * * * * * * * //

dimensions      [1 -1 -3 0 0 0 0];

internalField   nonuniform List<scalar> 
360
(
-7.10466e-23
-2.31248e-22
-1.49543e-22
-1.33322e-22
-1.47337e-22
-1.58622e-22
-1.65305e-22
-1.72728e-22
-1.82384e-22
-1.93913e-22
-2.06804e-22
-2.2061e-22
-2.35085e-22
-2.50142e-22
-2.65775e-22
-2.81985e-22
-2.98693e-22
-3.15783e-22
-3.33222e-22
-3.50958e-22
-3.68913e-22
-3.87112e-22
-4.05542e-22
-4.24132e-22
-4.42846e-22
-4.61611e-22
-4.8043e-22
-4.99338e-22
-5.18219e-22
-5.36969e-22
-5.5565e-22
-5.74175e-22
-5.92489e-22
-6.10661e-22
-6.28508e-22
-6.45909e-22
-6.62944e-22
-6.79709e-22
-6.95945e-22
-7.11507e-22
-7.26673e-22
-7.41118e-22
-7.54733e-22
-7.67836e-22
-7.80225e-22
-7.91784e-22
-8.02278e-22
-8.11567e-22
-8.2028e-22
-8.28268e-22
-8.34908e-22
-8.40428e-22
-8.45007e-22
-8.48405e-22
-8.50675e-22
-8.51872e-22
-8.5181e-22
-8.50511e-22
-8.47758e-22
-8.43734e-22
-8.38873e-22
-8.32965e-22
-8.25975e-22
-8.17822e-22
-8.08362e-22
-7.97764e-22
-7.86202e-22
-7.73547e-22
-7.59545e-22
-7.44601e-22
-7.29301e-22
-7.13254e-22
-6.96193e-22
-6.78654e-22
-6.608e-22
-6.4235e-22
-6.23102e-22
-6.03247e-22
-5.8308e-22
-5.62603e-22
-5.41877e-22
-5.21142e-22
-5.00532e-22
-4.80051e-22
-4.59719e-22
-4.39544e-22
-4.19511e-22
-3.99602e-22
-3.79864e-22
-3.60393e-22
-3.41266e-22
-3.22566e-22
-3.04375e-22
-2.86731e-22
-2.69644e-22
-2.53111e-22
-2.37125e-22
-2.2168e-22
-2.0678e-22
-1.92438e-22
-1.78669e-22
-1.65484e-22
-1.5289e-22
-1.40885e-22
-1.29456e-22
-1.18583e-22
-1.0824e-22
-9.83974e-23
-8.90225e-23
-8.00844e-23
-7.15536e-23
-6.34025e-23
-5.5603e-23
-4.81215e-23
-4.09123e-23
-3.39125e-23
-2.70415e-23
-2.02122e-23
-1.33541e-23
-6.45664e-24
3.76749e-25
6.86475e-24
1.2517e-23
1.66548e-23
1.85746e-23
-1.86292e-23
-2.32254e-17
-2.30596e-16
-1.42518e-15
-7.14628e-15
-3.1779e-14
-1.3107e-13
-5.17423e-13
-2.00273e-12
-7.73131e-12
-3.02323e-11
-1.2263e-10
-5.32954e-10
-2.55428e-09
-1.3888e-08
-8.98174e-08
-7.29845e-07
-8.07601e-06
-0.000110932
-0.00249521
-0.0925989
-1.48332
-9.72276
-4.73418
-2.07771
-2.62123
-2.26457
-1.80951
-1.44141
-1.16845
-0.971021
-0.825353
-0.714777
-0.627822
-0.557301
-0.498475
-0.448205
-0.40449
-0.365966
-0.331717
-0.301003
-0.273337
-0.248287
-0.225555
-0.204859
-0.185999
-0.168776
-0.153033
-0.138643
-0.125477
-0.113431
-0.10241
-0.0923357
-0.083127
-0.0747145
-0.0670447
-0.0600513
-0.0536836
-0.0478945
-0.0426378
-0.0378727
-0.0335601
-0.0296636
-0.026149
-0.0229845
-0.0201403
-0.0175883
-0.0153026
-0.0132593
-0.0114365
-0.00981512
-0.00837801
-0.00711009
-0.00599758
-0.00502739
-0.00418673
-0.00345611
-0.00282053
-0.00227244
-0.00180363
-0.00140593
-0.00107161
-0.000793486
-0.000564976
-0.000380029
-0.000233108
-0.000119162
-3.36092e-05
2.77235e-05
6.86926e-05
9.29685e-05
0.000104127
0.000105631
0.000100679
9.19781e-05
8.15832e-05
7.08643e-05
6.0621e-05
5.12388e-05
4.28615e-05
3.54843e-05
2.90734e-05
2.34995e-05
1.87833e-05
1.46759e-05
1.13681e-05
8.42896e-06
6.2556e-06
4.21082e-06
2.88351e-06
1.47246e-06
0
0
0
0
0
0
0
0
0
0
0
0
0
0
0
0
0
0
0
0
0
0
0
0
0
0
0
0
0
0
0
0
0
0
0
0
0
0
0
0
0
0
0
0
0
0
0
0
0
0
0
0
0
0
0
0
0
0
0
0
0
0
0
0
0
0
0
0
0
0
0
0
0
0
0
0
0
0
0
0
0
0
0
0
0
0
0
0
0
0
0
0
0
0
0
0
0
0
0
0
0
0
0
0
0
0
0
0
0
0
0
0
0
0
0
0
0
0
0
0
0
0
0
0
)
;

boundaryField
{
    inandouthalf11
    {
        type            cyclic;
    }
    inandouthalf12
    {
        type            cyclic;
    }
    inandouthalf21
    {
        type            cyclic;
    }
    inandouthalf22
    {
        type            cyclic;
    }
    inandouthalf31
    {
        type            cyclic;
    }
    inandouthalf32
    {
        type            cyclic;
    }
    inandouthalf41
    {
        type            cyclic;
    }
    inandouthalf42
    {
        type            cyclic;
    }
    top
    {
        type            symmetryPlane;
    }
    walls
    {
        type            calculated;
        value           uniform -7.10466e-23;
    }
    frontAndBackPlanes
    {
        type            empty;
    }
}


// ************************************************************************* //
