/*--------------------------------*- C++ -*----------------------------------*\
| =========                 |                                                 |
| \\      /  F ield         | OpenFOAM: The Open Source CFD Toolbox           |
|  \\    /   O peration     | Version:  2.4.x                                 |
|   \\  /    A nd           | Web:      www.OpenFOAM.org                      |
|    \\/     M anipulation  |                                                 |
\*---------------------------------------------------------------------------*/
FoamFile
{
    version     2.0;
    format      ascii;
    class       volVectorField;
    location    "10";
    object      ddt0(Ua);
}
// * * * * * * * * * * * * * * * * * * * * * * * * * * * * * * * * * * * * * //

dimensions      [0 1 -2 0 0 0 0];

internalField   nonuniform List<vector> 
360
(
(-2.60265e-32 -3.21083e-34 0)
(-5.53172e-09 7.1976e-09 0)
(-1.12639e-08 1.28089e-08 0)
(-1.62034e-08 1.77084e-08 0)
(-2.10726e-08 2.29835e-08 0)
(-2.60126e-08 2.87296e-08 0)
(-3.09207e-08 3.48279e-08 0)
(-3.57668e-08 4.12807e-08 0)
(-4.05777e-08 4.8142e-08 0)
(-4.53861e-08 5.54568e-08 0)
(-5.02178e-08 6.32557e-08 0)
(-5.50923e-08 7.15544e-08 0)
(-6.00248e-08 8.03577e-08 0)
(-6.50288e-08 8.96646e-08 0)
(-7.01168e-08 9.94708e-08 0)
(-7.53008e-08 1.09771e-07 0)
(-8.05922e-08 1.20557e-07 0)
(-8.60007e-08 1.3182e-07 0)
(-9.15348e-08 1.43544e-07 0)
(-9.72024e-08 1.55719e-07 0)
(-1.0301e-07 1.6833e-07 0)
(-1.08965e-07 1.8136e-07 0)
(-1.15072e-07 1.94798e-07 0)
(-1.21337e-07 2.0863e-07 0)
(-1.27765e-07 2.22841e-07 0)
(-1.34359e-07 2.37417e-07 0)
(-1.41122e-07 2.52344e-07 0)
(-1.48059e-07 2.6761e-07 0)
(-1.55172e-07 2.83202e-07 0)
(-1.62463e-07 2.99106e-07 0)
(-1.69935e-07 3.15309e-07 0)
(-1.77587e-07 3.318e-07 0)
(-1.85422e-07 3.48564e-07 0)
(-1.93441e-07 3.6559e-07 0)
(-2.01644e-07 3.82866e-07 0)
(-2.10031e-07 4.00377e-07 0)
(-2.18601e-07 4.1811e-07 0)
(-2.27355e-07 4.36053e-07 0)
(-2.36292e-07 4.54196e-07 0)
(-2.4541e-07 4.72521e-07 0)
(-2.54708e-07 4.91014e-07 0)
(-2.64186e-07 5.09667e-07 0)
(-2.73839e-07 5.28458e-07 0)
(-2.83667e-07 5.47375e-07 0)
(-2.93667e-07 5.66408e-07 0)
(-3.03837e-07 5.85539e-07 0)
(-3.14174e-07 6.04755e-07 0)
(-3.24673e-07 6.24033e-07 0)
(-3.35329e-07 6.43357e-07 0)
(-3.46142e-07 6.62722e-07 0)
(-3.57107e-07 6.82107e-07 0)
(-3.68219e-07 7.01492e-07 0)
(-3.79473e-07 7.20863e-07 0)
(-3.90865e-07 7.40203e-07 0)
(-4.02389e-07 7.59495e-07 0)
(-4.1404e-07 7.78722e-07 0)
(-4.25813e-07 7.97869e-07 0)
(-4.37701e-07 8.16915e-07 0)
(-4.49698e-07 8.35844e-07 0)
(-4.61794e-07 8.54633e-07 0)
(-4.73985e-07 8.7327e-07 0)
(-4.86266e-07 8.91741e-07 0)
(-4.9863e-07 9.1003e-07 0)
(-5.11071e-07 9.28121e-07 0)
(-5.2358e-07 9.45997e-07 0)
(-5.36148e-07 9.63641e-07 0)
(-5.48769e-07 9.81037e-07 0)
(-5.61435e-07 9.98172e-07 0)
(-5.74135e-07 1.01503e-06 0)
(-5.8686e-07 1.03159e-06 0)
(-5.99604e-07 1.04784e-06 0)
(-6.12362e-07 1.06378e-06 0)
(-6.25123e-07 1.0794e-06 0)
(-6.3788e-07 1.09467e-06 0)
(-6.50627e-07 1.1096e-06 0)
(-6.63356e-07 1.12418e-06 0)
(-6.7606e-07 1.13839e-06 0)
(-6.88726e-07 1.15223e-06 0)
(-7.01346e-07 1.16568e-06 0)
(-7.13912e-07 1.17875e-06 0)
(-7.26416e-07 1.19142e-06 0)
(-7.38851e-07 1.20369e-06 0)
(-7.51211e-07 1.21557e-06 0)
(-7.63491e-07 1.22704e-06 0)
(-7.75685e-07 1.23811e-06 0)
(-7.87788e-07 1.24879e-06 0)
(-7.99793e-07 1.25906e-06 0)
(-8.11694e-07 1.26894e-06 0)
(-8.23483e-07 1.27841e-06 0)
(-8.35152e-07 1.28749e-06 0)
(-8.46696e-07 1.29617e-06 0)
(-8.58109e-07 1.30446e-06 0)
(-8.69388e-07 1.31237e-06 0)
(-8.80529e-07 1.31989e-06 0)
(-8.91528e-07 1.32704e-06 0)
(-9.02385e-07 1.33382e-06 0)
(-9.13095e-07 1.34023e-06 0)
(-9.23655e-07 1.34629e-06 0)
(-9.34063e-07 1.35199e-06 0)
(-9.44316e-07 1.35736e-06 0)
(-9.54411e-07 1.36238e-06 0)
(-9.64346e-07 1.36708e-06 0)
(-9.74121e-07 1.37146e-06 0)
(-9.83736e-07 1.37551e-06 0)
(-9.93189e-07 1.37926e-06 0)
(-1.00248e-06 1.38271e-06 0)
(-1.01161e-06 1.38587e-06 0)
(-1.02058e-06 1.38874e-06 0)
(-1.02939e-06 1.39132e-06 0)
(-1.03804e-06 1.39363e-06 0)
(-1.04652e-06 1.39566e-06 0)
(-1.05484e-06 1.39742e-06 0)
(-1.06299e-06 1.39891e-06 0)
(-1.07098e-06 1.40014e-06 0)
(-1.07879e-06 1.4011e-06 0)
(-1.08643e-06 1.40179e-06 0)
(-1.09389e-06 1.40221e-06 0)
(-1.10117e-06 1.40234e-06 0)
(-1.10825e-06 1.40217e-06 0)
(-1.11513e-06 1.40169e-06 0)
(-1.1218e-06 1.40088e-06 0)
(-1.12823e-06 1.39972e-06 0)
(-1.13442e-06 1.39825e-06 0)
(-1.14036e-06 1.39649e-06 0)
(-1.14604e-06 1.39454e-06 0)
(-1.1515e-06 1.39251e-06 0)
(-1.15677e-06 1.39056e-06 0)
(-1.16189e-06 1.38882e-06 0)
(-1.1669e-06 1.3874e-06 0)
(-1.17181e-06 1.38629e-06 0)
(-1.17661e-06 1.38538e-06 0)
(-1.18122e-06 1.38443e-06 0)
(-1.18555e-06 1.3831e-06 0)
(-1.18947e-06 1.38093e-06 0)
(-1.19279e-06 1.37744e-06 0)
(-1.19533e-06 1.37206e-06 0)
(-1.19706e-06 1.36488e-06 0)
(-1.19844e-06 1.35669e-06 0)
(-1.20011e-06 1.34993e-06 0)
(-1.20156e-06 1.34545e-06 0)
(-1.20151e-06 1.34369e-06 0)
(-1.20041e-06 1.34255e-06 0)
(-1.20011e-06 1.34132e-06 0)
(-0.000172914 0.00113075 0)
(-0.000894676 0.003225 0)
(-0.00261782 0.00513603 0)
(-0.0100994 0.0070771 0)
(-0.928523 0.000281492 0)
(-1.16941 0.0263263 0)
(-0.859682 0.047961 0)
(-0.741662 0.0626056 0)
(-0.725621 0.0464574 0)
(-0.753352 0.0115554 0)
(-0.795375 -0.0109079 0)
(-0.837595 -0.0229512 0)
(-0.875684 -0.0282022 0)
(-0.908968 -0.0295581 0)
(-0.937936 -0.0289688 0)
(-0.963321 -0.0275309 0)
(-0.985802 -0.025812 0)
(-1.00593 -0.0241039 0)
(-1.02412 -0.0225436 0)
(-1.0407 -0.0211835 0)
(-1.05593 -0.0200324 0)
(-1.06999 -0.0190773 0)
(-1.08304 -0.018295 0)
(-1.0952 -0.017659 0)
(-1.10657 -0.0171429 0)
(-1.11723 -0.0167227 0)
(-1.12725 -0.0163775 0)
(-1.13668 -0.0160897 0)
(-1.14559 -0.0158453 0)
(-1.15401 -0.0156331 0)
(-1.16199 -0.0154445 0)
(-1.16955 -0.0152729 0)
(-1.17672 -0.0151138 0)
(-1.18354 -0.0149637 0)
(-1.19002 -0.0148201 0)
(-1.19618 -0.0146813 0)
(-1.20205 -0.0145457 0)
(-1.20763 -0.0144124 0)
(-1.21295 -0.0142801 0)
(-1.21801 -0.0141478 0)
(-1.22283 -0.0140141 0)
(-1.22741 -0.0138774 0)
(-1.23177 -0.0137358 0)
(-1.2359 -0.0135868 0)
(-1.23983 -0.0134274 0)
(-1.24355 -0.0132537 0)
(-1.24707 -0.0130608 0)
(-1.25039 -0.0128422 0)
(-1.25353 -0.0125898 0)
(-1.25649 -0.0122949 0)
(-1.25927 -0.0119499 0)
(-1.26188 -0.0115537 0)
(-1.26433 -0.0111171 0)
(-1.26663 -0.0106685 0)
(-1.2688 -0.0102555 0)
(-1.27083 -0.0099377 0)
(-1.27274 -0.00976998 0)
(-1.27455 -0.00977672 0)
(-1.27627 -0.00993699 0)
(-1.27791 -0.0102029 0)
(-1.27947 -0.0105238 0)
(-1.28094 -0.0108665 0)
(-1.28229 -0.0112129 0)
(-1.28352 -0.0115527 0)
(-1.28462 -0.0118788 0)
(-1.28557 -0.0121847 0)
(-1.28635 -0.0124628 0)
(-1.28697 -0.0127023 0)
(-1.2874 -0.012888 0)
(-1.28766 -0.012999 0)
(-1.28773 -0.0130104 0)
(-1.28762 -0.0128977 0)
(-1.28735 -0.0126452 0)
(-1.28694 -0.0122546 0)
(-1.28641 -0.0117491 0)
(-1.2858 -0.0111693 0)
(-1.28513 -0.0105627 0)
(-1.28443 -0.00997176 0)
(-1.2837 -0.00942608 0)
(-1.28297 -0.00894173 0)
(-1.28222 -0.00852384 0)
(-1.28148 -0.00817065 0)
(-1.28075 -0.00787715 0)
(-1.28002 -0.00763668 0)
(-1.2793 -0.00744321 0)
(-1.2786 -0.00729054 0)
(-1.27792 -0.00717395 0)
(-1.27727 -0.00708898 0)
(-1.27666 -0.00703195 0)
(-1.27609 -0.00700027 0)
(-1.27558 -0.00698967 0)
(-1.27514 -0.00700385 0)
(-1.27477 -0.00703448 0)
(-1.27436 -0.0070442 0)
(-1.23444 -0.00167871 0)
(-1.23135 -0.00521418 0)
(-1.22729 -0.00369691 0)
(-1.22346 -0.00419837 0)
(-1.22017 -0.00596152 0)
(-1.21717 -0.00326316 0)
(-1.2145 -0.00934347 0)
(-1.21211 -0.00298614 0)
(-1.21012 -0.0109665 0)
(-1.20787 -0.00466497 0)
(-1.20653 -0.00919613 0)
(-1.20402 -0.00994547 0)
(-1.20322 -0.00178299 0)
(-1.20021 -0.020989 0)
(-1.19965 0.00659605 0)
(-1.19991 0.00633137 0)
(-1.19847 0.000279617 0)
(-1.19786 8.58822e-05 0)
(-1.19698 0.000101175 0)
(-1.19623 0.000100244 0)
(-1.19558 0.000100005 0)
(-1.19503 9.92158e-05 0)
(-1.19458 9.79953e-05 0)
(-1.19424 9.63473e-05 0)
(-1.194 9.4275e-05 0)
(-1.19389 9.1773e-05 0)
(-1.19391 8.88284e-05 0)
(-1.19407 8.54209e-05 0)
(-1.19437 8.15197e-05 0)
(-1.19484 7.70671e-05 0)
(-1.19548 7.19257e-05 0)
(-1.19629 6.58568e-05 0)
(-1.19722 5.9042e-05 0)
(-1.19862 3.35873e-05 0)
(-1.20012 3.69399e-05 0)
(-1.2007 6.26254e-05 0)
(-1.20073 7.52558e-05 0)
(-1.20073 7.59293e-05 0)
(-1.20073 7.59385e-05 0)
(-1.20073 7.5938e-05 0)
(-1.20073 7.59382e-05 0)
(-1.20073 7.5938e-05 0)
(-1.20073 7.59382e-05 0)
(-1.20073 7.5938e-05 0)
(-1.20073 7.59383e-05 0)
(-1.20073 7.5938e-05 0)
(-1.20073 7.59383e-05 0)
(-1.20073 7.5938e-05 0)
(-1.20073 7.59383e-05 0)
(-1.20073 7.59379e-05 0)
(-1.20073 7.59382e-05 0)
(-1.20073 7.59378e-05 0)
(-1.20073 7.59381e-05 0)
(-1.20073 7.59376e-05 0)
(-1.20073 7.5938e-05 0)
(-1.20073 7.59375e-05 0)
(-1.20073 7.59379e-05 0)
(-1.20073 7.59373e-05 0)
(-1.20073 7.59377e-05 0)
(-1.20073 7.59372e-05 0)
(-1.20073 7.59376e-05 0)
(-1.20073 7.59371e-05 0)
(-1.20073 7.59377e-05 0)
(-1.20073 7.59371e-05 0)
(-1.20073 7.59377e-05 0)
(-1.20073 7.59371e-05 0)
(-1.20073 7.59377e-05 0)
(-1.20073 7.59371e-05 0)
(-1.20073 7.59377e-05 0)
(-1.20073 7.5937e-05 0)
(-1.20073 7.59378e-05 0)
(-1.20073 7.5937e-05 0)
(-1.20073 7.59378e-05 0)
(-1.20073 7.5937e-05 0)
(-1.20073 7.59377e-05 0)
(-1.20073 7.5937e-05 0)
(-1.20073 7.59377e-05 0)
(-1.20073 7.5937e-05 0)
(-1.20073 7.59378e-05 0)
(-1.20073 7.5937e-05 0)
(-1.20073 7.59378e-05 0)
(-1.20073 7.5937e-05 0)
(-1.20073 7.59378e-05 0)
(-1.20073 7.5937e-05 0)
(-1.20073 7.59378e-05 0)
(-1.20073 7.59371e-05 0)
(-1.20073 7.59379e-05 0)
(-1.20073 7.59371e-05 0)
(-1.20073 7.59379e-05 0)
(-1.20073 7.59371e-05 0)
(-1.20073 7.59379e-05 0)
(-1.20073 7.59371e-05 0)
(-1.20073 7.59379e-05 0)
(-1.20073 7.59371e-05 0)
(-1.20073 7.5938e-05 0)
(-1.20073 7.59371e-05 0)
(-1.20073 7.5938e-05 0)
(-1.20073 7.59372e-05 0)
(-1.20073 7.59381e-05 0)
(-1.20073 7.59372e-05 0)
(-1.20073 7.59381e-05 0)
(-1.20073 7.59373e-05 0)
(-1.20073 7.59382e-05 0)
(-1.20073 7.59374e-05 0)
(-1.20073 7.59384e-05 0)
(-1.20073 7.59376e-05 0)
(-1.20073 7.59384e-05 0)
(-1.20073 7.59375e-05 0)
(-1.20073 7.59384e-05 0)
(-1.20073 7.59374e-05 0)
(-1.20073 7.59382e-05 0)
(-1.20073 7.59372e-05 0)
(-1.20073 7.59381e-05 0)
(-1.20073 7.59371e-05 0)
(-1.20073 7.59379e-05 0)
(-1.20073 7.59368e-05 0)
(-1.20073 7.59375e-05 0)
(-1.20073 7.59363e-05 0)
(-1.20073 7.59372e-05 0)
(-1.20073 7.59392e-05 0)
(-1.20073 7.60169e-05 0)
(-1.20071 7.76843e-05 0)
(-1.2003 0.00014607 0)
)
;

boundaryField
{
    inandouthalf11
    {
        type            cyclic;
    }
    inandouthalf12
    {
        type            cyclic;
    }
    inandouthalf21
    {
        type            cyclic;
    }
    inandouthalf22
    {
        type            cyclic;
    }
    inandouthalf31
    {
        type            cyclic;
    }
    inandouthalf32
    {
        type            cyclic;
    }
    inandouthalf41
    {
        type            cyclic;
    }
    inandouthalf42
    {
        type            cyclic;
    }
    top
    {
        type            symmetryPlane;
    }
    walls
    {
        type            calculated;
        value           uniform (0 0 0);
    }
    frontAndBackPlanes
    {
        type            empty;
    }
}


// ************************************************************************* //
