/*--------------------------------*- C++ -*----------------------------------*\
| =========                 |                                                 |
| \\      /  F ield         | OpenFOAM: The Open Source CFD Toolbox           |
|  \\    /   O peration     | Version:  2.4.x                                 |
|   \\  /    A nd           | Web:      www.OpenFOAM.org                      |
|    \\/     M anipulation  |                                                 |
\*---------------------------------------------------------------------------*/
FoamFile
{
    version     2.0;
    format      ascii;
    class       surfaceScalarField;
    location    "10";
    object      ddt0(phib);
}
// * * * * * * * * * * * * * * * * * * * * * * * * * * * * * * * * * * * * * //

dimensions      [0 3 -2 0 0 0 0];

internalField   nonuniform List<scalar> 
359
(
-2.45271e-14
-6.16791e-14
-9.55553e-14
-1.28259e-13
-1.63003e-13
-2.00233e-13
-2.39759e-13
-2.81692e-13
-3.26304e-13
-3.73881e-13
-4.24524e-13
-4.78339e-13
-5.3527e-13
-5.95407e-13
-6.5862e-13
-7.24925e-13
-7.94252e-13
-8.66523e-13
-9.41619e-13
-1.01952e-12
-1.10006e-12
-1.18319e-12
-1.26881e-12
-1.35685e-12
-1.44723e-12
-1.53985e-12
-1.6346e-12
-1.73141e-12
-1.83018e-12
-1.93086e-12
-2.03337e-12
-2.13765e-12
-2.24353e-12
-2.35104e-12
-2.46e-12
-2.57036e-12
-2.68207e-12
-2.79499e-12
-2.90913e-12
-3.02432e-12
-3.1405e-12
-3.25759e-12
-3.37543e-12
-3.49403e-12
-3.61326e-12
-3.733e-12
-3.85318e-12
-3.97368e-12
-4.09436e-12
-4.21523e-12
-4.33611e-12
-4.45688e-12
-4.57748e-12
-4.69782e-12
-4.8177e-12
-4.93714e-12
-5.05592e-12
-5.17402e-12
-5.29122e-12
-5.40747e-12
-5.52271e-12
-5.63676e-12
-5.7496e-12
-5.86109e-12
-5.97112e-12
-6.0796e-12
-6.18644e-12
-6.29155e-12
-6.39484e-12
-6.49611e-12
-6.59544e-12
-6.6927e-12
-6.78782e-12
-6.88078e-12
-6.97146e-12
-7.05988e-12
-7.14593e-12
-7.22959e-12
-7.31076e-12
-7.38941e-12
-7.46554e-12
-7.53915e-12
-7.61016e-12
-7.67866e-12
-7.74457e-12
-7.80795e-12
-7.86877e-12
-7.92704e-12
-7.98276e-12
-8.03597e-12
-8.08669e-12
-8.13492e-12
-8.18064e-12
-8.22398e-12
-8.26494e-12
-8.30356e-12
-8.33985e-12
-8.37389e-12
-8.40571e-12
-8.43534e-12
-8.4628e-12
-8.48817e-12
-8.51149e-12
-8.53284e-12
-8.5522e-12
-8.56961e-12
-8.58518e-12
-8.59888e-12
-8.61076e-12
-8.62083e-12
-8.62911e-12
-8.63565e-12
-8.64043e-12
-8.64346e-12
-8.64476e-12
-8.64424e-12
-8.6419e-12
-8.63764e-12
-8.63139e-12
-8.62303e-12
-8.61247e-12
-8.59973e-12
-8.58502e-12
-8.56869e-12
-8.55134e-12
-8.53387e-12
-8.5171e-12
-8.50179e-12
-8.48818e-12
-8.47596e-12
-8.46391e-12
-8.45035e-12
-8.43272e-12
-8.40816e-12
-8.3734e-12
-8.32702e-12
-8.27176e-12
-8.2172e-12
-8.17287e-12
-8.14259e-12
-8.12043e-12
-7.70588e-12
-2.88488e-09
-1.43441e-08
-2.26186e-08
-5.10058e-08
-1.31767e-09
-1.11124e-08
-3.16593e-08
-4.56681e-08
-4.71267e-08
-2.27301e-08
-1.02571e-08
-4.35577e-09
-1.94561e-09
-1.15221e-09
-9.82618e-10
-1.00868e-09
-1.06691e-09
-1.0989e-09
-1.09203e-09
-1.05064e-09
-9.83691e-10
-9.0034e-10
-8.08295e-10
-7.1347e-10
-6.20117e-10
-5.31105e-10
-4.48224e-10
-3.72449e-10
-3.04177e-10
-2.43399e-10
-1.89841e-10
-1.43067e-10
-1.02551e-10
-6.77324e-11
-3.80489e-11
-1.29579e-11
8.04789e-12
2.54326e-11
3.96217e-11
5.09949e-11
5.9891e-11
6.66113e-11
7.14223e-11
7.45593e-11
7.62292e-11
7.66139e-11
7.58714e-11
7.41384e-11
7.15318e-11
6.81561e-11
6.41159e-11
5.95388e-11
5.46001e-11
4.95401e-11
4.46536e-11
4.0246e-11
3.65619e-11
3.37094e-11
3.16014e-11
2.99652e-11
2.85674e-11
2.72583e-11
2.59609e-11
2.46368e-11
2.3268e-11
2.18459e-11
2.03652e-11
1.88197e-11
1.72e-11
1.54951e-11
1.36987e-11
1.18212e-11
9.90431e-12
8.02611e-12
6.28771e-12
4.78229e-12
3.56342e-12
2.63306e-12
1.95308e-12
1.46795e-12
1.12345e-12
8.76094e-13
6.94687e-13
5.58286e-13
4.52797e-13
3.70025e-13
3.02924e-13
2.49479e-13
2.04609e-13
1.69163e-13
1.38286e-13
1.15219e-13
9.29116e-14
8.32176e-14
4.75628e-14
3.35502e-14
2.65619e-14
2.09142e-14
1.77171e-14
1.39785e-14
1.1986e-14
8.91915e-15
7.71905e-15
5.58673e-15
4.98143e-15
3.68942e-15
3.3532e-15
2.68612e-15
2.38816e-15
2.27012e-15
2.13794e-15
2.08922e-15
2.02346e-15
1.93681e-15
1.84798e-15
1.7497e-15
1.64259e-15
1.5253e-15
1.42738e-15
1.34401e-15
1.32997e-15
1.38312e-15
1.52345e-15
1.73171e-15
2.01724e-15
2.32613e-15
2.64491e-15
2.95293e-15
3.26156e-15
3.56947e-15
3.88181e-15
4.16759e-15
4.39752e-15
4.54643e-15
4.66711e-15
4.66622e-15
4.66229e-15
4.67978e-15
4.7827e-15
4.89897e-15
5.02219e-15
4.97239e-15
4.9745e-15
4.74894e-15
4.46899e-15
4.08841e-15
3.85016e-15
3.51384e-15
3.15424e-15
2.55785e-15
2.02762e-15
1.34382e-15
7.13674e-16
5.79689e-16
8.1819e-17
1.60419e-16
3.10851e-16
3.89076e-16
5.12221e-16
5.24132e-16
5.32384e-16
4.6819e-16
4.96185e-16
5.08476e-16
5.10693e-16
4.82567e-16
4.60066e-16
4.37045e-16
4.25925e-16
4.22212e-16
4.12417e-16
4.32319e-16
4.5117e-16
5.12604e-16
5.46718e-16
6.35522e-16
7.22066e-16
8.52171e-16
9.70493e-16
1.11081e-15
1.26365e-15
1.41209e-15
1.6279e-15
1.69544e-15
1.75405e-15
1.44814e-15
1.49389e-15
1.20035e-15
8.94414e-16
4.91786e-16
9.10098e-17
-1.5518e-16
-4.16684e-16
-5.97646e-16
-1.05554e-15
-1.30188e-15
-1.53166e-15
-1.36664e-15
-1.42653e-15
-1.14602e-15
-1.02054e-15
-2.18491e-15
-3.5403e-15
-5.89439e-15
-8.32572e-15
-9.92326e-15
-1.19794e-14
-1.30355e-14
-1.41458e-14
-1.54292e-14
-1.87372e-14
-2.15243e-14
-2.43719e-14
-2.4751e-14
-2.87868e-14
-2.85347e-14
-2.80072e-14
)
;

boundaryField
{
    inandouthalf11
    {
        type            cyclic;
        value           nonuniform List<scalar> 
100
(
1.3849e-10
1.37717e-10
1.37621e-10
1.37732e-10
1.37786e-10
1.37806e-10
1.37831e-10
1.37862e-10
1.37893e-10
1.37924e-10
1.37955e-10
1.37987e-10
1.38018e-10
1.3805e-10
1.38082e-10
1.38115e-10
1.38147e-10
1.38181e-10
1.38214e-10
1.38248e-10
1.38283e-10
1.38318e-10
1.38353e-10
1.38389e-10
1.38425e-10
1.38462e-10
1.38499e-10
1.38537e-10
1.38575e-10
1.38614e-10
1.38653e-10
1.38693e-10
1.38733e-10
1.38775e-10
1.38816e-10
1.38858e-10
1.38901e-10
1.38944e-10
1.38988e-10
1.39033e-10
1.39078e-10
1.39124e-10
1.3917e-10
1.39217e-10
1.39264e-10
1.39312e-10
1.39361e-10
1.39411e-10
1.39461e-10
1.39512e-10
1.39563e-10
1.39615e-10
1.39668e-10
1.39721e-10
1.39775e-10
1.3983e-10
1.39885e-10
1.39942e-10
1.39998e-10
1.40056e-10
1.40114e-10
1.40173e-10
1.40233e-10
1.40293e-10
1.40354e-10
1.40416e-10
1.40479e-10
1.40542e-10
1.40606e-10
1.40671e-10
1.40737e-10
1.40804e-10
1.40871e-10
1.40939e-10
1.41008e-10
1.41078e-10
1.41149e-10
1.4122e-10
1.41293e-10
1.41366e-10
1.41441e-10
1.41516e-10
1.41592e-10
1.4167e-10
1.41748e-10
1.41827e-10
1.41908e-10
1.41989e-10
1.42072e-10
1.42156e-10
1.42241e-10
1.42327e-10
1.42415e-10
1.42504e-10
1.42594e-10
1.42686e-10
1.42779e-10
1.42874e-10
1.4297e-10
1.43069e-10
)
;
    }
    inandouthalf12
    {
        type            cyclic;
        value           nonuniform List<scalar> 
100
(
-1.3849e-10
-1.37717e-10
-1.37621e-10
-1.37732e-10
-1.37786e-10
-1.37806e-10
-1.37831e-10
-1.37862e-10
-1.37893e-10
-1.37924e-10
-1.37955e-10
-1.37987e-10
-1.38018e-10
-1.3805e-10
-1.38082e-10
-1.38115e-10
-1.38147e-10
-1.38181e-10
-1.38214e-10
-1.38248e-10
-1.38283e-10
-1.38318e-10
-1.38353e-10
-1.38389e-10
-1.38425e-10
-1.38462e-10
-1.38499e-10
-1.38537e-10
-1.38575e-10
-1.38614e-10
-1.38653e-10
-1.38693e-10
-1.38733e-10
-1.38775e-10
-1.38816e-10
-1.38858e-10
-1.38901e-10
-1.38944e-10
-1.38988e-10
-1.39033e-10
-1.39078e-10
-1.39124e-10
-1.3917e-10
-1.39217e-10
-1.39264e-10
-1.39312e-10
-1.39361e-10
-1.39411e-10
-1.39461e-10
-1.39512e-10
-1.39563e-10
-1.39615e-10
-1.39668e-10
-1.39721e-10
-1.39775e-10
-1.3983e-10
-1.39885e-10
-1.39942e-10
-1.39998e-10
-1.40056e-10
-1.40114e-10
-1.40173e-10
-1.40233e-10
-1.40293e-10
-1.40354e-10
-1.40416e-10
-1.40479e-10
-1.40542e-10
-1.40606e-10
-1.40671e-10
-1.40737e-10
-1.40804e-10
-1.40871e-10
-1.40939e-10
-1.41008e-10
-1.41078e-10
-1.41149e-10
-1.4122e-10
-1.41293e-10
-1.41366e-10
-1.41441e-10
-1.41516e-10
-1.41592e-10
-1.4167e-10
-1.41748e-10
-1.41827e-10
-1.41908e-10
-1.41989e-10
-1.42072e-10
-1.42156e-10
-1.42241e-10
-1.42327e-10
-1.42415e-10
-1.42504e-10
-1.42594e-10
-1.42686e-10
-1.42779e-10
-1.42874e-10
-1.4297e-10
-1.43069e-10
)
;
    }
    inandouthalf21
    {
        type            cyclic;
        value           nonuniform List<scalar> 
100
(
1.43168e-10
1.4327e-10
1.43373e-10
1.43479e-10
1.43586e-10
1.43696e-10
1.43808e-10
1.43922e-10
1.44039e-10
1.44158e-10
1.44279e-10
1.44404e-10
1.44531e-10
1.44662e-10
1.44796e-10
1.44933e-10
1.45073e-10
1.45217e-10
1.45365e-10
1.45517e-10
1.45674e-10
1.45835e-10
1.46001e-10
1.46172e-10
1.46349e-10
1.46531e-10
1.46721e-10
1.46917e-10
1.47121e-10
1.47333e-10
1.47554e-10
1.47783e-10
1.48022e-10
1.48273e-10
1.48539e-10
1.48819e-10
1.49114e-10
1.4943e-10
1.49782e-10
1.50187e-10
1.50624e-10
1.51135e-10
1.18616e-10
2.28992e-10
9.60049e-10
2.71206e-09
1.31943e-08
1.00095e-06
1.12406e-06
8.13495e-07
7.12991e-07
7.1422e-07
7.536e-07
8.00773e-07
8.44916e-07
8.83418e-07
9.16452e-07
9.44915e-07
9.69733e-07
9.91669e-07
1.01131e-06
1.02908e-06
1.04532e-06
1.06026e-06
1.07409e-06
1.08696e-06
1.09898e-06
1.11025e-06
1.12083e-06
1.1308e-06
1.14022e-06
1.14912e-06
1.15756e-06
1.16557e-06
1.17319e-06
1.18044e-06
1.18736e-06
1.19397e-06
1.20028e-06
1.20633e-06
1.21213e-06
1.21769e-06
1.22304e-06
1.22817e-06
1.23312e-06
1.23787e-06
1.24246e-06
1.24688e-06
1.25114e-06
1.25525e-06
1.25921e-06
1.26304e-06
1.26673e-06
1.27029e-06
1.27373e-06
1.27704e-06
1.28024e-06
1.28331e-06
1.28628e-06
1.28912e-06
)
;
    }
    inandouthalf22
    {
        type            cyclic;
        value           nonuniform List<scalar> 
100
(
-1.43168e-10
-1.4327e-10
-1.43373e-10
-1.43479e-10
-1.43586e-10
-1.43696e-10
-1.43808e-10
-1.43922e-10
-1.44039e-10
-1.44158e-10
-1.44279e-10
-1.44404e-10
-1.44531e-10
-1.44662e-10
-1.44796e-10
-1.44933e-10
-1.45073e-10
-1.45217e-10
-1.45365e-10
-1.45517e-10
-1.45674e-10
-1.45835e-10
-1.46001e-10
-1.46172e-10
-1.46349e-10
-1.46531e-10
-1.46721e-10
-1.46917e-10
-1.47121e-10
-1.47333e-10
-1.47554e-10
-1.47783e-10
-1.48022e-10
-1.48273e-10
-1.48539e-10
-1.48819e-10
-1.49114e-10
-1.4943e-10
-1.49782e-10
-1.50187e-10
-1.50624e-10
-1.51135e-10
-1.18616e-10
-2.28992e-10
-9.60049e-10
-2.71206e-09
-1.31943e-08
-1.00095e-06
-1.12406e-06
-8.13495e-07
-7.12991e-07
-7.1422e-07
-7.536e-07
-8.00773e-07
-8.44916e-07
-8.83418e-07
-9.16452e-07
-9.44915e-07
-9.69733e-07
-9.91669e-07
-1.01131e-06
-1.02908e-06
-1.04532e-06
-1.06026e-06
-1.07409e-06
-1.08696e-06
-1.09898e-06
-1.11025e-06
-1.12083e-06
-1.1308e-06
-1.14022e-06
-1.14912e-06
-1.15756e-06
-1.16557e-06
-1.17319e-06
-1.18044e-06
-1.18736e-06
-1.19397e-06
-1.20028e-06
-1.20633e-06
-1.21213e-06
-1.21769e-06
-1.22304e-06
-1.22817e-06
-1.23312e-06
-1.23787e-06
-1.24246e-06
-1.24688e-06
-1.25114e-06
-1.25525e-06
-1.25921e-06
-1.26304e-06
-1.26673e-06
-1.27029e-06
-1.27373e-06
-1.27704e-06
-1.28024e-06
-1.28331e-06
-1.28628e-06
-1.28912e-06
)
;
    }
    inandouthalf31
    {
        type            cyclic;
        value           nonuniform List<scalar> 
110
(
1.29186e-06
1.32079e-06
1.3503e-06
1.38038e-06
1.41106e-06
1.44232e-06
1.47417e-06
1.5066e-06
1.53962e-06
1.57322e-06
1.60738e-06
1.6421e-06
1.67737e-06
1.71314e-06
1.74942e-06
1.78615e-06
1.8233e-06
1.86082e-06
1.89866e-06
1.93674e-06
1.97501e-06
2.01337e-06
2.05172e-06
2.08997e-06
2.12802e-06
2.16576e-06
2.20311e-06
2.23998e-06
2.27637e-06
2.31228e-06
2.34783e-06
2.3832e-06
2.41866e-06
2.45452e-06
2.49116e-06
2.52891e-06
2.56807e-06
2.60885e-06
2.65139e-06
2.69574e-06
2.74188e-06
2.78978e-06
2.83938e-06
2.8906e-06
2.9434e-06
2.99773e-06
3.05355e-06
3.11086e-06
3.16964e-06
3.22989e-06
3.29162e-06
3.35486e-06
3.41962e-06
3.48593e-06
3.55382e-06
3.62332e-06
3.69449e-06
3.76736e-06
3.84198e-06
3.91841e-06
3.99672e-06
4.07697e-06
4.15924e-06
4.24363e-06
4.33023e-06
4.41914e-06
4.51047e-06
4.60435e-06
4.7009e-06
4.80023e-06
4.90228e-06
5.00873e-06
5.11357e-06
5.21753e-06
5.32343e-06
5.43148e-06
5.54173e-06
5.65421e-06
5.76898e-06
5.88607e-06
6.00554e-06
6.12744e-06
6.25181e-06
6.3787e-06
6.50817e-06
6.64027e-06
6.77505e-06
6.91257e-06
7.05288e-06
7.19603e-06
7.34209e-06
7.49111e-06
7.64316e-06
7.7983e-06
7.95659e-06
8.11808e-06
8.28286e-06
8.45098e-06
8.62251e-06
8.79752e-06
8.97609e-06
9.15828e-06
9.34417e-06
9.53383e-06
9.72734e-06
9.92478e-06
1.01262e-05
1.03318e-05
1.05415e-05
1.07554e-05
)
;
    }
    inandouthalf32
    {
        type            cyclic;
        value           nonuniform List<scalar> 
110
(
-1.29186e-06
-1.32079e-06
-1.3503e-06
-1.38038e-06
-1.41106e-06
-1.44232e-06
-1.47417e-06
-1.5066e-06
-1.53962e-06
-1.57322e-06
-1.60738e-06
-1.6421e-06
-1.67737e-06
-1.71314e-06
-1.74942e-06
-1.78615e-06
-1.8233e-06
-1.86082e-06
-1.89866e-06
-1.93674e-06
-1.97501e-06
-2.01337e-06
-2.05172e-06
-2.08997e-06
-2.12802e-06
-2.16576e-06
-2.20311e-06
-2.23998e-06
-2.27637e-06
-2.31228e-06
-2.34783e-06
-2.3832e-06
-2.41866e-06
-2.45452e-06
-2.49116e-06
-2.52891e-06
-2.56807e-06
-2.60885e-06
-2.65139e-06
-2.69574e-06
-2.74188e-06
-2.78978e-06
-2.83938e-06
-2.8906e-06
-2.9434e-06
-2.99773e-06
-3.05355e-06
-3.11086e-06
-3.16964e-06
-3.22989e-06
-3.29162e-06
-3.35486e-06
-3.41962e-06
-3.48593e-06
-3.55382e-06
-3.62332e-06
-3.69449e-06
-3.76736e-06
-3.84198e-06
-3.91841e-06
-3.99672e-06
-4.07697e-06
-4.15924e-06
-4.24363e-06
-4.33023e-06
-4.41914e-06
-4.51047e-06
-4.60435e-06
-4.7009e-06
-4.80023e-06
-4.90228e-06
-5.00873e-06
-5.11357e-06
-5.21753e-06
-5.32343e-06
-5.43148e-06
-5.54173e-06
-5.65421e-06
-5.76898e-06
-5.88607e-06
-6.00554e-06
-6.12744e-06
-6.25181e-06
-6.3787e-06
-6.50817e-06
-6.64027e-06
-6.77505e-06
-6.91257e-06
-7.05288e-06
-7.19603e-06
-7.34209e-06
-7.49111e-06
-7.64316e-06
-7.7983e-06
-7.95659e-06
-8.11808e-06
-8.28286e-06
-8.45098e-06
-8.62251e-06
-8.79752e-06
-8.97609e-06
-9.15828e-06
-9.34417e-06
-9.53383e-06
-9.72734e-06
-9.92478e-06
-1.01262e-05
-1.03318e-05
-1.05415e-05
-1.07554e-05
)
;
    }
    inandouthalf41
    {
        type            cyclic;
        value           nonuniform List<scalar> 
50
(
9.62721e-06
9.62721e-06
9.62721e-06
9.62721e-06
9.62721e-06
9.62721e-06
9.62721e-06
9.62721e-06
9.62721e-06
9.62721e-06
9.62721e-06
9.62721e-06
9.62721e-06
9.62721e-06
9.62721e-06
9.62721e-06
9.62721e-06
9.62721e-06
9.62721e-06
9.62721e-06
9.62721e-06
9.62721e-06
9.62721e-06
9.62721e-06
9.62721e-06
9.62721e-06
9.62721e-06
9.62721e-06
9.62721e-06
9.62721e-06
9.62721e-06
9.62721e-06
9.62721e-06
9.62721e-06
9.62721e-06
9.62721e-06
9.62721e-06
9.62721e-06
9.62721e-06
9.62721e-06
9.62721e-06
9.62721e-06
9.62721e-06
9.62721e-06
9.62721e-06
9.62721e-06
9.62721e-06
9.62721e-06
9.62721e-06
9.62721e-06
)
;
    }
    inandouthalf42
    {
        type            cyclic;
        value           nonuniform List<scalar> 
50
(
-9.62721e-06
-9.62721e-06
-9.62721e-06
-9.62721e-06
-9.62721e-06
-9.62721e-06
-9.62721e-06
-9.62721e-06
-9.62721e-06
-9.62721e-06
-9.62721e-06
-9.62721e-06
-9.62721e-06
-9.62721e-06
-9.62721e-06
-9.62721e-06
-9.62721e-06
-9.62721e-06
-9.62721e-06
-9.62721e-06
-9.62721e-06
-9.62721e-06
-9.62721e-06
-9.62721e-06
-9.62721e-06
-9.62721e-06
-9.62721e-06
-9.62721e-06
-9.62721e-06
-9.62721e-06
-9.62721e-06
-9.62721e-06
-9.62721e-06
-9.62721e-06
-9.62721e-06
-9.62721e-06
-9.62721e-06
-9.62721e-06
-9.62721e-06
-9.62721e-06
-9.62721e-06
-9.62721e-06
-9.62721e-06
-9.62721e-06
-9.62721e-06
-9.62721e-06
-9.62721e-06
-9.62721e-06
-9.62721e-06
-9.62721e-06
)
;
    }
    top
    {
        type            symmetryPlane;
        value           uniform 0;
    }
    walls
    {
        type            calculated;
        value           uniform 0;
    }
    frontAndBackPlanes
    {
        type            empty;
        value           nonuniform 0();
    }
}


// ************************************************************************* //
