/*--------------------------------*- C++ -*----------------------------------*\
| =========                 |                                                 |
| \\      /  F ield         | OpenFOAM: The Open Source CFD Toolbox           |
|  \\    /   O peration     | Version:  2.4.x                                 |
|   \\  /    A nd           | Web:      www.OpenFOAM.org                      |
|    \\/     M anipulation  |                                                 |
\*---------------------------------------------------------------------------*/
FoamFile
{
    version     2.0;
    format      ascii;
    class       volScalarField;
    location    "10";
    object      ddt0(alpha);
}
// * * * * * * * * * * * * * * * * * * * * * * * * * * * * * * * * * * * * * //

dimensions      [0 0 -1 0 0 0 0];

internalField   nonuniform List<scalar> 
360
(
1.05691e-05
1.56982e-05
1.39532e-05
1.28383e-05
1.27712e-05
1.27091e-05
1.24988e-05
1.22973e-05
1.21676e-05
1.21105e-05
1.21056e-05
1.21348e-05
1.21939e-05
1.22777e-05
1.23858e-05
1.25167e-05
1.26672e-05
1.28335e-05
1.30132e-05
1.32071e-05
1.3408e-05
1.36205e-05
1.38405e-05
1.40669e-05
1.42989e-05
1.45346e-05
1.47724e-05
1.5015e-05
1.5258e-05
1.55006e-05
1.57425e-05
1.59868e-05
1.62228e-05
1.64654e-05
1.66979e-05
1.69304e-05
1.71557e-05
1.73795e-05
1.76017e-05
1.78083e-05
1.80202e-05
1.82214e-05
1.84108e-05
1.86035e-05
1.87831e-05
1.89577e-05
1.91254e-05
1.92753e-05
1.94246e-05
1.95727e-05
1.96993e-05
1.98247e-05
1.99365e-05
2.00444e-05
2.01341e-05
2.02268e-05
2.02964e-05
2.03649e-05
2.04174e-05
2.04529e-05
2.04939e-05
2.05132e-05
2.05331e-05
2.05357e-05
2.05294e-05
2.05087e-05
2.04809e-05
2.04409e-05
2.03869e-05
2.03171e-05
2.02482e-05
2.01717e-05
2.00724e-05
1.99756e-05
1.98654e-05
1.97516e-05
1.96182e-05
1.94747e-05
1.93218e-05
1.91603e-05
1.89869e-05
1.88083e-05
1.86242e-05
1.84338e-05
1.82377e-05
1.80339e-05
1.7823e-05
1.76021e-05
1.73721e-05
1.71344e-05
1.68899e-05
1.66396e-05
1.63859e-05
1.61291e-05
1.58694e-05
1.56068e-05
1.53408e-05
1.50713e-05
1.47983e-05
1.45225e-05
1.42445e-05
1.39654e-05
1.3686e-05
1.3407e-05
1.31289e-05
1.2852e-05
1.25765e-05
1.23024e-05
1.20297e-05
1.17582e-05
1.14879e-05
1.12187e-05
1.09509e-05
1.06846e-05
1.04207e-05
1.01599e-05
9.90336e-06
9.65159e-06
9.40437e-06
9.15973e-06
8.91315e-06
8.65674e-06
8.37908e-06
8.06604e-06
7.70321e-06
7.28001e-06
6.7946e-06
6.25816e-06
5.69668e-06
5.1497e-06
4.66673e-06
4.30253e-06
4.11219e-06
4.14343e-06
4.40806e-06
4.7996e-06
4.98029e-06
4.4152e-06
2.813e-06
7.40599e-07
-7.49389e-07
-2.16107e-05
0.0159297
0.0358343
0.0213781
0.0368541
0.0276972
1.69351
0.35579
0.124337
0.0211191
-0.148614
-0.217758
-0.225372
-0.208588
-0.184342
-0.160076
-0.138383
-0.119788
-0.10409
-0.09088
-0.0797297
-0.0702632
-0.0621704
-0.0552024
-0.0491628
-0.0438947
-0.0392743
-0.0352017
-0.0315967
-0.0283935
-0.0255382
-0.0229857
-0.0206984
-0.0186443
-0.0167961
-0.0151305
-0.0136272
-0.0122685
-0.0110393
-0.00992592
-0.00891666
-0.00800103
-0.00716978
-0.00641468
-0.00572841
-0.00510441
-0.00453679
-0.00402025
-0.00354993
-0.00312144
-0.00273087
-0.00237492
-0.00205131
-0.00175902
-0.00149841
-0.00127085
-0.00107768
-0.000918988
-0.000792472
-0.000692937
-0.000612112
-0.000542607
-0.000480087
-0.000422396
-0.000368564
-0.000318157
-0.000270943
-0.00022671
-0.000185171
-0.000145934
-0.000108562
-7.27616e-05
-3.86747e-05
-7.17258e-06
2.01184e-05
4.12621e-05
5.48585e-05
6.07888e-05
6.03395e-05
5.5613e-05
4.87473e-05
4.13571e-05
3.44118e-05
2.83461e-05
2.32496e-05
1.90926e-05
1.56665e-05
1.29343e-05
1.06331e-05
8.79643e-06
7.21391e-06
5.95324e-06
4.8526e-06
3.94739e-06
3.25754e-06
3.93747e-06
2.80016e-06
1.74929e-06
1.04655e-06
6.07663e-07
3.37439e-07
1.97079e-07
8.80138e-08
7.0082e-08
1.49083e-08
3.04861e-08
6.14869e-10
1.45436e-08
9.31397e-10
4.74635e-09
2.11183e-09
9.64322e-20
1.35955e-31
-8.88248e-34
-5.06236e-38
-1.11051e-38
-1.34397e-43
-3.22281e-44
-3.53852e-49
-9.31484e-50
-9.33608e-55
-2.71625e-55
-1.42953e-58
-1.00273e-58
-2.61993e-59
-1.23737e-59
-5.73954e-60
-2.61471e-60
-1.16919e-60
-5.12857e-61
-2.20538e-61
-9.28859e-62
-3.8291e-62
-1.54424e-62
-6.08779e-63
-2.34407e-63
-8.80769e-64
-3.22643e-64
-1.1511e-64
-3.99549e-65
-1.3477e-65
-4.4121e-66
-1.40008e-66
-4.30023e-67
-1.27642e-67
-3.65531e-68
-1.00808e-68
-2.67203e-69
-6.79214e-70
-1.65176e-70
-3.83265e-71
-8.46004e-72
-1.77059e-72
-3.50029e-73
-6.50834e-74
-1.13263e-74
-1.83437e-75
-2.74647e-76
-3.77145e-77
-4.70468e-78
-5.26883e-79
-5.21891e-80
-4.48412e-81
-3.25475e-82
-1.92118e-83
-8.68879e-85
-2.70568e-86
-4.51315e-88
-6.96472e-91
-6.37322e-97
-4.31023e-99
-1.44322e-101
-5.47851e-112
-1.05726e-122
-1.53773e-133
-1.61108e-144
-1.48727e-155
-1.04011e-166
-6.34929e-178
-1.92911e-188
-8.80186e-199
-5.57701e-207
-2.55933e-217
-1.91814e-225
-1.05059e-235
-6.60298e-244
-4.44951e-254
-2.27447e-262
-2.7829e-272
-8.0165e-281
-1.81824e-290
-2.9127e-299
-8.90498e-309
2.4694e-316
-1.48798e-319
0
0
0
0
0
0
0
0
0
0
0
0
0
0
0
0
0
0
0
0
0
0
0
0
)
;

boundaryField
{
    inandouthalf11
    {
        type            cyclic;
    }
    inandouthalf12
    {
        type            cyclic;
    }
    inandouthalf21
    {
        type            cyclic;
    }
    inandouthalf22
    {
        type            cyclic;
    }
    inandouthalf31
    {
        type            cyclic;
    }
    inandouthalf32
    {
        type            cyclic;
    }
    inandouthalf41
    {
        type            cyclic;
    }
    inandouthalf42
    {
        type            cyclic;
    }
    top
    {
        type            symmetryPlane;
    }
    walls
    {
        type            calculated;
        value           uniform 1.05691e-05;
    }
    frontAndBackPlanes
    {
        type            empty;
    }
}


// ************************************************************************* //
