/*--------------------------------*- C++ -*----------------------------------*\
| =========                 |                                                 |
| \\      /  F ield         | OpenFOAM: The Open Source CFD Toolbox           |
|  \\    /   O peration     | Version:  2.4.x                                 |
|   \\  /    A nd           | Web:      www.OpenFOAM.org                      |
|    \\/     M anipulation  |                                                 |
\*---------------------------------------------------------------------------*/
FoamFile
{
    version     2.0;
    format      ascii;
    class       volVectorField;
    location    "10";
    object      ddt0(Ub);
}
// * * * * * * * * * * * * * * * * * * * * * * * * * * * * * * * * * * * * * //

dimensions      [0 1 -2 0 0 0 0];

internalField   nonuniform List<vector> 
360
(
(-0.00013849 -3.01373e-09 0)
(-0.000137717 -1.07079e-08 0)
(-0.000137621 -1.96493e-08 0)
(-0.000137732 -2.79775e-08 0)
(-0.000137786 -3.64089e-08 0)
(-0.000137806 -4.54032e-08 0)
(-0.000137831 -5.49972e-08 0)
(-0.000137862 -6.518e-08 0)
(-0.000137893 -7.59982e-08 0)
(-0.000137924 -8.75218e-08 0)
(-0.000137955 -9.97993e-08 0)
(-0.000137987 -1.12856e-07 0)
(-0.000138018 -1.267e-07 0)
(-0.00013805 -1.41333e-07 0)
(-0.000138082 -1.56752e-07 0)
(-0.000138115 -1.72941e-07 0)
(-0.000138147 -1.89895e-07 0)
(-0.000138181 -2.07595e-07 0)
(-0.000138214 -2.26016e-07 0)
(-0.000138248 -2.4514e-07 0)
(-0.000138283 -2.64945e-07 0)
(-0.000138318 -2.85405e-07 0)
(-0.000138353 -3.06498e-07 0)
(-0.000138389 -3.28206e-07 0)
(-0.000138425 -3.50508e-07 0)
(-0.000138462 -3.73383e-07 0)
(-0.000138499 -3.96804e-07 0)
(-0.000138537 -4.20748e-07 0)
(-0.000138575 -4.45196e-07 0)
(-0.000138614 -4.70126e-07 0)
(-0.000138653 -4.95524e-07 0)
(-0.000138693 -5.21374e-07 0)
(-0.000138733 -5.47643e-07 0)
(-0.000138775 -5.74318e-07 0)
(-0.000138816 -6.01376e-07 0)
(-0.000138858 -6.28792e-07 0)
(-0.000138901 -6.5655e-07 0)
(-0.000138944 -6.84628e-07 0)
(-0.000138988 -7.13012e-07 0)
(-0.000139033 -7.41676e-07 0)
(-0.000139078 -7.70598e-07 0)
(-0.000139124 -7.99757e-07 0)
(-0.00013917 -8.29123e-07 0)
(-0.000139217 -8.5868e-07 0)
(-0.000139264 -8.88407e-07 0)
(-0.000139312 -9.18279e-07 0)
(-0.000139361 -9.4827e-07 0)
(-0.000139411 -9.78353e-07 0)
(-0.000139461 -1.0085e-06 0)
(-0.000139512 -1.0387e-06 0)
(-0.000139563 -1.06891e-06 0)
(-0.000139615 -1.09912e-06 0)
(-0.000139668 -1.12929e-06 0)
(-0.000139721 -1.15941e-06 0)
(-0.000139775 -1.18943e-06 0)
(-0.00013983 -1.21935e-06 0)
(-0.000139885 -1.24913e-06 0)
(-0.000139942 -1.27874e-06 0)
(-0.000139998 -1.30815e-06 0)
(-0.000140056 -1.33733e-06 0)
(-0.000140114 -1.36627e-06 0)
(-0.000140173 -1.39493e-06 0)
(-0.000140233 -1.42329e-06 0)
(-0.000140293 -1.45133e-06 0)
(-0.000140354 -1.47902e-06 0)
(-0.000140416 -1.50633e-06 0)
(-0.000140479 -1.53325e-06 0)
(-0.000140542 -1.55974e-06 0)
(-0.000140606 -1.58579e-06 0)
(-0.000140671 -1.61136e-06 0)
(-0.000140737 -1.63644e-06 0)
(-0.000140804 -1.66101e-06 0)
(-0.000140871 -1.68506e-06 0)
(-0.000140939 -1.70857e-06 0)
(-0.000141008 -1.73152e-06 0)
(-0.000141078 -1.75391e-06 0)
(-0.000141149 -1.77572e-06 0)
(-0.00014122 -1.79693e-06 0)
(-0.000141293 -1.81754e-06 0)
(-0.000141366 -1.83752e-06 0)
(-0.000141441 -1.85686e-06 0)
(-0.000141516 -1.87558e-06 0)
(-0.000141592 -1.89366e-06 0)
(-0.00014167 -1.9111e-06 0)
(-0.000141748 -1.9279e-06 0)
(-0.000141827 -1.94406e-06 0)
(-0.000141908 -1.95958e-06 0)
(-0.000141989 -1.97447e-06 0)
(-0.000142072 -1.98872e-06 0)
(-0.000142156 -2.00234e-06 0)
(-0.000142241 -2.01533e-06 0)
(-0.000142327 -2.02769e-06 0)
(-0.000142415 -2.03944e-06 0)
(-0.000142504 -2.05057e-06 0)
(-0.000142594 -2.06111e-06 0)
(-0.000142686 -2.07105e-06 0)
(-0.000142779 -2.08042e-06 0)
(-0.000142874 -2.08921e-06 0)
(-0.00014297 -2.09744e-06 0)
(-0.000143069 -2.10512e-06 0)
(-0.000143168 -2.11226e-06 0)
(-0.00014327 -2.11886e-06 0)
(-0.000143373 -2.12495e-06 0)
(-0.000143479 -2.13053e-06 0)
(-0.000143586 -2.13562e-06 0)
(-0.000143696 -2.14022e-06 0)
(-0.000143808 -2.14434e-06 0)
(-0.000143922 -2.148e-06 0)
(-0.000144039 -2.15119e-06 0)
(-0.000144158 -2.15394e-06 0)
(-0.000144279 -2.15623e-06 0)
(-0.000144404 -2.15808e-06 0)
(-0.000144531 -2.1595e-06 0)
(-0.000144662 -2.16048e-06 0)
(-0.000144796 -2.16102e-06 0)
(-0.000144933 -2.16111e-06 0)
(-0.000145073 -2.16075e-06 0)
(-0.000145217 -2.15993e-06 0)
(-0.000145365 -2.15861e-06 0)
(-0.000145517 -2.15679e-06 0)
(-0.000145674 -2.15442e-06 0)
(-0.000145835 -2.15151e-06 0)
(-0.000146001 -2.14808e-06 0)
(-0.000146172 -2.1442e-06 0)
(-0.000146349 -2.13999e-06 0)
(-0.000146531 -2.13563e-06 0)
(-0.000146721 -2.13135e-06 0)
(-0.000146917 -2.12734e-06 0)
(-0.000147121 -2.12372e-06 0)
(-0.000147333 -2.12049e-06 0)
(-0.000147554 -2.11745e-06 0)
(-0.000147783 -2.11425e-06 0)
(-0.000148022 -2.11034e-06 0)
(-0.000148273 -2.10506e-06 0)
(-0.000148539 -2.09765e-06 0)
(-0.000148819 -2.08751e-06 0)
(-0.000149114 -2.07479e-06 0)
(-0.00014943 -2.061e-06 0)
(-0.000149782 -2.04806e-06 0)
(-0.000150187 -2.02871e-06 0)
(-0.000150624 -9.42613e-06 0)
(-0.000151135 5.45085e-05 0)
(-0.000118616 -0.000171018 0)
(-0.000228992 -0.00206682 0)
(-0.000960049 -0.00431975 0)
(-0.00271206 -0.0102452 0)
(-0.0131943 -0.00721799 0)
(-1.00095 0.00401756 0)
(-1.12406 -0.00774369 0)
(-0.813495 -0.0100114 0)
(-0.712991 -0.0120843 0)
(-0.71422 -0.00853318 0)
(-0.7536 -0.00384279 0)
(-0.800773 -0.00156532 0)
(-0.844916 -0.000654952 0)
(-0.883418 -0.000331868 0)
(-0.916452 -0.000246783 0)
(-0.944915 -0.000244276 0)
(-0.969733 -0.000260631 0)
(-0.991669 -0.000273463 0)
(-1.01131 -0.000276568 0)
(-1.02908 -0.000269977 0)
(-1.04532 -0.000255784 0)
(-1.06026 -0.000236419 0)
(-1.07409 -0.000214035 0)
(-1.08696 -0.000190335 0)
(-1.09898 -0.000166573 0)
(-1.11025 -0.000143619 0)
(-1.12083 -0.000122036 0)
(-1.1308 -0.000102154 0)
(-1.14022 -8.41298e-05 0)
(-1.14912 -6.80028e-05 0)
(-1.15756 -5.37294e-05 0)
(-1.16557 -4.12151e-05 0)
(-1.17319 -3.03356e-05 0)
(-1.18044 -2.09523e-05 0)
(-1.18736 -1.29227e-05 0)
(-1.19397 -6.10771e-06 0)
(-1.20028 -3.75302e-07 0)
(-1.20633 4.39629e-06 0)
(-1.21213 8.31837e-06 0)
(-1.21769 1.14915e-05 0)
(-1.22304 1.40054e-05 0)
(-1.22817 1.59399e-05 0)
(-1.23312 1.73658e-05 0)
(-1.23787 1.83456e-05 0)
(-1.24246 1.89344e-05 0)
(-1.24688 1.91808e-05 0)
(-1.25114 1.91269e-05 0)
(-1.25525 1.88096e-05 0)
(-1.25921 1.82601e-05 0)
(-1.26304 1.75053e-05 0)
(-1.26673 1.65704e-05 0)
(-1.27029 1.54831e-05 0)
(-1.27373 1.42804e-05 0)
(-1.27704 1.30145e-05 0)
(-1.28024 1.1754e-05 0)
(-1.28331 1.05772e-05 0)
(-1.28628 9.55704e-06 0)
(-1.28912 8.73982e-06 0)
(-1.29186 8.12709e-06 0)
(-1.29451 7.66934e-06 0)
(-1.2971 7.30136e-06 0)
(-1.29963 6.97157e-06 0)
(-1.30208 6.65055e-06 0)
(-1.30445 6.32504e-06 0)
(-1.30673 5.98936e-06 0)
(-1.30891 5.64094e-06 0)
(-1.31099 5.27845e-06 0)
(-1.31295 4.9006e-06 0)
(-1.31477 4.5054e-06 0)
(-1.31645 4.09004e-06 0)
(-1.31797 3.65184e-06 0)
(-1.3193 3.19073e-06 0)
(-1.32043 2.71291e-06 0)
(-1.32134 2.23368e-06 0)
(-1.32199 1.7765e-06 0)
(-1.32235 1.36705e-06 0)
(-1.3224 1.02476e-06 0)
(-1.32209 7.56845e-07 0)
(-1.3214 5.58145e-07 0)
(-1.32026 4.15887e-07 0)
(-1.31865 3.15422e-07 0)
(-1.31651 2.44044e-07 0)
(-1.31381 1.92327e-07 0)
(-1.31051 1.53863e-07 0)
(-1.30659 1.24458e-07 0)
(-1.30203 1.01455e-07 0)
(-1.29686 8.3082e-08 0)
(-1.29111 6.8246e-08 0)
(-1.28488 5.61367e-08 0)
(-1.27829 4.62126e-08 0)
(-1.2715 3.80067e-08 0)
(-1.26469 3.12689e-08 0)
(-1.25803 2.58109e-08 0)
(-1.25169 2.24711e-08 0)
(-1.24578 1.62643e-08 0)
(-1.24039 9.28357e-09 0)
(-1.23554 7.02345e-09 0)
(-1.23121 5.83526e-09 0)
(-1.22738 4.78067e-09 0)
(-1.22397 3.90806e-09 0)
(-1.22095 3.19885e-09 0)
(-1.21825 2.55546e-09 0)
(-1.21582 2.05332e-09 0)
(-1.21363 1.63945e-09 0)
(-1.21164 1.28974e-09 0)
(-1.20982 1.07733e-09 0)
(-1.20816 8.57993e-10 0)
(-1.20663 7.49518e-10 0)
(-1.20523 6.22302e-10 0)
(-1.20395 5.73424e-10 0)
(-1.20278 5.46888e-10 0)
(-1.20171 5.24663e-10 0)
(-1.20074 5.12945e-10 0)
(-1.19987 4.94836e-10 0)
(-1.1991 4.72852e-10 0)
(-1.19842 4.49312e-10 0)
(-1.19785 4.23557e-10 0)
(-1.19737 3.95398e-10 0)
(-1.19701 3.68296e-10 0)
(-1.19675 3.45524e-10 0)
(-1.19661 3.34631e-10 0)
(-1.1966 3.4262e-10 0)
(-1.19673 3.33277e-10 0)
(-1.19701 4.74821e-10 0)
(-1.19744 3.48982e-10 0)
(-1.19805 7.22926e-10 0)
(-1.19884 3.77952e-10 0)
(-1.19982 1.00836e-09 0)
(-1.20095 4.08008e-10 0)
(-1.20262 1.2705e-09 0)
(-1.20336 4.79205e-10 0)
(-1.2034 1.48271e-09 0)
(-1.2034 5.65006e-10 0)
(-1.2034 1.64245e-09 0)
(-1.2034 5.95453e-10 0)
(-1.2034 1.74267e-09 0)
(-1.2034 5.58072e-10 0)
(-1.2034 1.80297e-09 0)
(-1.2034 5.23869e-10 0)
(-1.2034 1.89778e-09 0)
(-1.2034 5.18972e-10 0)
(-1.2034 1.99528e-09 0)
(-1.2034 4.60055e-10 0)
(-1.2034 2.02383e-09 0)
(-1.2034 3.05511e-10 0)
(-1.2034 1.94674e-09 0)
(-1.2034 8.22052e-11 0)
(-1.2034 1.86354e-09 0)
(-1.2034 -1.48919e-10 0)
(-1.2034 1.72907e-09 0)
(-1.2034 -4.83335e-10 0)
(-1.2034 1.51981e-09 0)
(-1.2034 -8.74508e-10 0)
(-1.2034 1.34658e-09 0)
(-1.2034 -1.11186e-09 0)
(-1.2034 1.28167e-09 0)
(-1.2034 -1.22969e-09 0)
(-1.2034 1.42492e-09 0)
(-1.2034 -1.26969e-09 0)
(-1.2034 1.55607e-09 0)
(-1.2034 -1.3403e-09 0)
(-1.2034 1.6436e-09 0)
(-1.2034 -1.44399e-09 0)
(-1.2034 1.73887e-09 0)
(-1.2034 -1.5327e-09 0)
(-1.2034 1.8338e-09 0)
(-1.2034 -1.64287e-09 0)
(-1.2034 1.92503e-09 0)
(-1.2034 -1.52719e-09 0)
(-1.2034 1.75394e-09 0)
(-1.2034 -1.56207e-09 0)
(-1.2034 1.78598e-09 0)
(-1.2034 -1.58114e-09 0)
(-1.2034 1.82807e-09 0)
(-1.2034 -1.58839e-09 0)
(-1.2034 1.8862e-09 0)
(-1.2034 -1.57914e-09 0)
(-1.2034 1.9565e-09 0)
(-1.2034 -1.55124e-09 0)
(-1.2034 2.05512e-09 0)
(-1.2034 -1.5043e-09 0)
(-1.2034 2.15432e-09 0)
(-1.2034 -1.44922e-09 0)
(-1.2034 2.24412e-09 0)
(-1.2034 -1.51845e-09 0)
(-1.2034 2.24563e-09 0)
(-1.2034 -1.54934e-09 0)
(-1.2034 2.16119e-09 0)
(-1.2034 -1.66336e-09 0)
(-1.2034 2.10071e-09 0)
(-1.2034 -1.85737e-09 0)
(-1.2034 1.96305e-09 0)
(-1.2034 -2.01161e-09 0)
(-1.2034 1.80675e-09 0)
(-1.2034 -2.20664e-09 0)
(-1.2034 1.72862e-09 0)
(-1.2034 -2.29528e-09 0)
(-1.2034 1.64516e-09 0)
(-1.2034 -2.33738e-09 0)
(-1.2034 1.75077e-09 0)
(-1.2034 -2.30503e-09 0)
(-1.2034 1.51355e-09 0)
(-1.2034 -2.85445e-09 0)
(-1.2034 8.99024e-10 0)
(-1.2034 -3.73846e-09 0)
(-1.2034 -1.82821e-10 0)
(-1.2034 -4.76438e-09 0)
(-1.2034 -9.46294e-10 0)
(-1.2034 -5.41684e-09 0)
(-1.2034 -1.64042e-09 0)
(-1.2034 -6.39643e-09 0)
(-1.2034 -2.88069e-09 0)
(-1.2034 -7.77617e-09 0)
(-1.2034 -3.97891e-09 0)
(-1.2034 -8.80691e-09 0)
(-1.2034 -5.02779e-09 0)
(-1.2034 -9.25824e-09 0)
(-1.2034 -1.41059e-09 0)
)
;

boundaryField
{
    inandouthalf11
    {
        type            cyclic;
    }
    inandouthalf12
    {
        type            cyclic;
    }
    inandouthalf21
    {
        type            cyclic;
    }
    inandouthalf22
    {
        type            cyclic;
    }
    inandouthalf31
    {
        type            cyclic;
    }
    inandouthalf32
    {
        type            cyclic;
    }
    inandouthalf41
    {
        type            cyclic;
    }
    inandouthalf42
    {
        type            cyclic;
    }
    top
    {
        type            symmetryPlane;
    }
    walls
    {
        type            calculated;
        value           uniform (0 0 0);
    }
    frontAndBackPlanes
    {
        type            empty;
    }
}


// ************************************************************************* //
