/*--------------------------------*- C++ -*----------------------------------*\
| =========                 |                                                 |
| \\      /  F ield         | OpenFOAM: The Open Source CFD Toolbox           |
|  \\    /   O peration     | Version:  2.4.x                                 |
|   \\  /    A nd           | Web:      www.OpenFOAM.org                      |
|    \\/     M anipulation  |                                                 |
\*---------------------------------------------------------------------------*/
FoamFile
{
    version     2.0;
    format      ascii;
    class       volScalarField;
    location    "10";
    object      epsilon;
}
// * * * * * * * * * * * * * * * * * * * * * * * * * * * * * * * * * * * * * //

dimensions      [0 2 -3 0 0 0 0];

internalField   nonuniform List<scalar> 
360
(
1e-20
1e-20
1e-20
1e-20
1e-20
1e-20
1e-20
1e-20
1e-20
1e-20
1e-20
1e-20
1e-20
1e-20
1e-20
1e-20
1e-20
1e-20
1e-20
1e-20
1e-20
1e-20
1e-20
1e-20
1e-20
1e-20
1e-20
1e-20
1e-20
1e-20
1e-20
1e-20
1e-20
1e-20
1e-20
1e-20
1e-20
1e-20
1e-20
1e-20
1e-20
1e-20
1e-20
1e-20
1e-20
1e-20
1e-20
1e-20
1e-20
1e-20
1e-20
1e-20
1e-20
1e-20
1e-20
1e-20
1e-20
1e-20
1e-20
1e-20
1e-20
1e-20
1e-20
1e-20
1e-20
1e-20
1e-20
1e-20
1e-20
1e-20
1e-20
1e-20
1e-20
1e-20
1e-20
1e-20
1e-20
1e-20
1e-20
1e-20
1e-20
1e-20
1e-20
1e-20
1e-20
1e-20
1e-20
1e-20
1e-20
1e-20
1e-20
1e-20
1e-20
1e-20
1e-20
1e-20
1e-20
1e-20
1e-20
1e-20
1e-20
1e-20
1e-20
1e-20
1e-20
1e-20
1e-20
1e-20
1e-20
1e-20
1e-20
1e-20
1e-20
1e-20
1e-20
1e-20
1e-20
1e-20
1e-20
1e-20
1e-20
1e-20
1e-20
1e-20
1e-20
1e-20
2.76781e-20
1.08795e-19
4.24823e-19
1.61093e-18
5.95631e-18
2.16542e-17
7.82278e-17
2.84164e-16
1.05159e-15
4.03038e-15
1.63657e-14
7.24913e-14
3.62512e-13
2.13327e-12
1.54849e-11
1.44343e-10
1.76945e-09
2.64089e-08
5.02606e-07
1.30768e-05
0.000451983
0.012874
0.0650753
0.0771858
0.0791994
0.0791173
0.0779402
0.0761861
0.0742016
0.0721778
0.0702119
0.0683455
0.066591
0.0649455
0.0633998
0.0619426
0.0605622
0.0592481
0.0579909
0.0567825
0.0556161
0.054486
0.0533873
0.0523161
0.0512688
0.0502427
0.0492353
0.0482447
0.0472691
0.0463069
0.0453571
0.0444185
0.0434901
0.0425712
0.0416611
0.0407593
0.0398651
0.0389783
0.0380985
0.0372252
0.0363584
0.0354979
0.0346434
0.0337949
0.0329523
0.0321156
0.0312848
0.0304599
0.0296409
0.0288281
0.0280214
0.027221
0.0264272
0.02564
0.0248596
0.0240786
0.0232894
0.0224925
0.0216883
0.0208773
0.0200602
0.0192376
0.0184102
0.0175789
0.0167447
0.0159086
0.0150719
0.0142361
0.0134028
0.0125738
0.011751
0.0109369
0.010134
0.00934502
0.0085731
0.00782155
0.00709391
0.00639393
0.00572543
0.00509227
0.00449816
0.00394653
0.00344029
0.00298159
0.00257167
0.00221057
0.00189714
0.00162897
0.00140262
0.00121385
0.00105797
0.000930206
0.000825977
0.000741111
0.000671946
0.000615363
0.000568762
0.000530001
0.000497333
0.00046934
0.000444869
0.000422982
0.000402921
0.00038407
0.000365931
0.000348108
0.000330291
0.000312245
0.000293801
0.000274854
0.000255349
0.000235289
0.000214721
0.000193742
0.000172493
0.000151159
0.000129965
0.000109176
8.90953e-05
7.00599e-05
5.24372e-05
3.6621e-05
2.30302e-05
1.21083e-05
4.30595e-06
5.76901e-07
1.60559e-08
1.80883e-10
1.8409e-12
1.78236e-14
1.64418e-16
1.4539e-18
2.04725e-20
1e-20
1e-20
1e-20
1e-20
1e-20
1e-20
1e-20
1e-20
1e-20
1e-20
1e-20
1e-20
1e-20
1e-20
1e-20
1e-20
1e-20
1e-20
1e-20
1e-20
1e-20
1e-20
1e-20
1e-20
1e-20
1e-20
1e-20
1e-20
1e-20
1e-20
1e-20
1e-20
1e-20
1e-20
1e-20
1e-20
1e-20
1e-20
1e-20
1e-20
1e-20
1e-20
1e-20
1e-20
1e-20
1e-20
1e-20
1e-20
1e-20
1e-20
1e-20
1e-20
1e-20
1e-20
1e-20
1e-20
1e-20
1e-20
1e-20
1e-20
1e-20
1e-20
1e-20
1e-20
1e-20
1e-20
1e-20
1e-20
1e-20
1e-20
1e-20
1e-20
1e-20
1e-20
1e-20
1e-20
1e-20
1e-20
1e-20
1e-20
1e-20
)
;

boundaryField
{
    inandouthalf11
    {
        type            cyclic;
    }
    inandouthalf12
    {
        type            cyclic;
    }
    inandouthalf21
    {
        type            cyclic;
    }
    inandouthalf22
    {
        type            cyclic;
    }
    inandouthalf31
    {
        type            cyclic;
    }
    inandouthalf32
    {
        type            cyclic;
    }
    inandouthalf41
    {
        type            cyclic;
    }
    inandouthalf42
    {
        type            cyclic;
    }
    top
    {
        type            symmetryPlane;
    }
    walls
    {
        type            zeroGradient;
    }
    frontAndBackPlanes
    {
        type            empty;
    }
}


// ************************************************************************* //
