/*--------------------------------*- C++ -*----------------------------------*\
| =========                 |                                                 |
| \\      /  F ield         | OpenFOAM: The Open Source CFD Toolbox           |
|  \\    /   O peration     | Version:  2.4.x                                 |
|   \\  /    A nd           | Web:      www.OpenFOAM.org                      |
|    \\/     M anipulation  |                                                 |
\*---------------------------------------------------------------------------*/
FoamFile
{
    version     2.0;
    format      ascii;
    class       volScalarField;
    location    "10";
    object      epsilon_0;
}
// * * * * * * * * * * * * * * * * * * * * * * * * * * * * * * * * * * * * * //

dimensions      [0 2 -3 0 0 0 0];

internalField   nonuniform List<scalar> 
360
(
1.60309e-27
1e-20
1e-20
1e-20
1e-20
1e-20
1e-20
1e-20
1e-20
1e-20
1e-20
1e-20
1e-20
1e-20
1e-20
1e-20
1e-20
1e-20
1e-20
1e-20
1e-20
1e-20
1e-20
1e-20
1e-20
1e-20
1e-20
1e-20
1e-20
1e-20
1e-20
1e-20
1e-20
1e-20
1e-20
1e-20
1e-20
1e-20
1e-20
1e-20
1e-20
1e-20
1e-20
1e-20
1e-20
1e-20
1e-20
1e-20
1e-20
1e-20
1e-20
1e-20
1e-20
1e-20
1e-20
1e-20
1e-20
1e-20
1e-20
1e-20
1e-20
1e-20
1e-20
1e-20
1e-20
1e-20
1e-20
1e-20
1e-20
1e-20
1e-20
1e-20
1e-20
1e-20
1e-20
1e-20
1e-20
1e-20
1e-20
1e-20
1e-20
1e-20
1e-20
1e-20
1e-20
1e-20
1e-20
1e-20
1e-20
1e-20
1e-20
1e-20
1e-20
1e-20
1e-20
1e-20
1e-20
1e-20
1e-20
1e-20
1e-20
1e-20
1e-20
1e-20
1e-20
1e-20
1e-20
1e-20
1e-20
1e-20
1e-20
1e-20
1e-20
1e-20
1e-20
1e-20
1e-20
1e-20
1e-20
1e-20
1e-20
1e-20
1e-20
1e-20
1e-20
1e-20
2.76834e-20
1.08834e-19
4.25054e-19
1.61208e-18
5.96159e-18
2.16771e-17
7.83248e-17
2.84572e-16
1.05333e-15
4.03803e-15
1.64013e-14
7.26728e-14
3.63557e-13
2.14031e-12
1.55426e-11
1.44947e-10
1.77767e-09
2.65438e-08
5.05325e-07
1.31479e-05
0.000454356
0.0129246
0.0650737
0.0771754
0.07923
0.0791655
0.077991
0.0762336
0.0742444
0.0722164
0.0702468
0.0683775
0.0666205
0.0649731
0.0634257
0.0619671
0.0605854
0.0592702
0.0580119
0.0568026
0.0556353
0.0545044
0.0534049
0.0523329
0.0512849
0.0502581
0.0492501
0.0482588
0.0472826
0.0463199
0.0453695
0.0444303
0.0435014
0.042582
0.0416715
0.0407691
0.0398745
0.0389873
0.038107
0.0372334
0.0363662
0.0355052
0.0346504
0.0338015
0.0329585
0.0321215
0.0312903
0.0304651
0.0296458
0.0288326
0.0280256
0.0272249
0.0264308
0.0256433
0.0248627
0.0240814
0.0232919
0.0224947
0.0216902
0.020879
0.0200616
0.0192388
0.0184111
0.0175796
0.0167451
0.0159088
0.0150719
0.0142359
0.0134024
0.0125731
0.0117502
0.0109359
0.0101328
0.00934374
0.00857171
0.00782008
0.00709238
0.00639236
0.00572385
0.0050907
0.00449664
0.00394508
0.00343892
0.00298034
0.00257053
0.00220957
0.00189628
0.00162825
0.00140202
0.00121337
0.00105759
0.000929913
0.000825756
0.000740949
0.000671831
0.000615287
0.000568715
0.000529976
0.000497327
0.000469346
0.000444884
0.000423005
0.000402948
0.000384099
0.000365961
0.000348138
0.000330319
0.000312271
0.000293825
0.000274874
0.000255367
0.000235302
0.000214731
0.000193748
0.000172496
0.000151158
0.000129961
0.00010917
8.90874e-05
7.00508e-05
5.24273e-05
3.66112e-05
2.30213e-05
1.2101e-05
4.30103e-06
5.75572e-07
1.59975e-08
1.80182e-10
1.83369e-12
1.77531e-14
1.63762e-16
1.44808e-18
2.0424e-20
1e-20
1e-20
1e-20
1e-20
1e-20
1e-20
1e-20
1e-20
1e-20
1e-20
1e-20
1e-20
1e-20
1e-20
1e-20
1e-20
1e-20
1e-20
1e-20
1e-20
1e-20
1e-20
1e-20
1e-20
1e-20
1e-20
1e-20
1e-20
1e-20
1e-20
1e-20
1e-20
1e-20
1e-20
1e-20
1e-20
1e-20
1e-20
1e-20
1e-20
1e-20
1e-20
1e-20
1e-20
1e-20
1e-20
1e-20
1e-20
1e-20
1e-20
1e-20
1e-20
1e-20
1e-20
1e-20
1e-20
1e-20
1e-20
1e-20
1e-20
1e-20
1e-20
1e-20
1e-20
1e-20
1e-20
1e-20
1e-20
1e-20
1e-20
1e-20
1e-20
1e-20
1e-20
1e-20
1e-20
1e-20
1e-20
1e-20
1e-20
1e-20
)
;

boundaryField
{
    inandouthalf11
    {
        type            cyclic;
    }
    inandouthalf12
    {
        type            cyclic;
    }
    inandouthalf21
    {
        type            cyclic;
    }
    inandouthalf22
    {
        type            cyclic;
    }
    inandouthalf31
    {
        type            cyclic;
    }
    inandouthalf32
    {
        type            cyclic;
    }
    inandouthalf41
    {
        type            cyclic;
    }
    inandouthalf42
    {
        type            cyclic;
    }
    top
    {
        type            symmetryPlane;
    }
    walls
    {
        type            zeroGradient;
    }
    frontAndBackPlanes
    {
        type            empty;
    }
}


// ************************************************************************* //
