/*--------------------------------*- C++ -*----------------------------------*\
| =========                 |                                                 |
| \\      /  F ield         | OpenFOAM: The Open Source CFD Toolbox           |
|  \\    /   O peration     | Version:  2.4.x                                 |
|   \\  /    A nd           | Web:      www.OpenFOAM.org                      |
|    \\/     M anipulation  |                                                 |
\*---------------------------------------------------------------------------*/
FoamFile
{
    version     2.0;
    format      ascii;
    class       volVectorField;
    location    "10";
    object      gradPs;
}
// * * * * * * * * * * * * * * * * * * * * * * * * * * * * * * * * * * * * * //

dimensions      [0 1 -2 0 0 0 0];

internalField   nonuniform List<vector> 
360
(
(0 1.54878e-18 0)
(0 1.70891e-18 0)
(0 1.18076e-21 0)
(0 -2.37067e-19 0)
(-1.45029e-32 -9.98778e-20 0)
(-1.45032e-32 -5.42642e-20 0)
(-1.45036e-32 -6.95786e-20 0)
(0 -7.95456e-20 0)
(-1.45047e-32 -8.0943e-20 0)
(0 -8.16753e-20 0)
(-1.45058e-32 -8.19707e-20 0)
(0 -8.22894e-20 0)
(-2.90137e-32 -8.29887e-20 0)
(0 -8.37214e-20 0)
(0 -8.46948e-20 0)
(0 -8.5689e-20 0)
(0 -8.64855e-20 0)
(-1.45097e-32 -8.72105e-20 0)
(0 -8.8304e-20 0)
(0 -8.90806e-20 0)
(0 -8.98913e-20 0)
(-2.90241e-32 -9.10447e-20 0)
(0 -9.18898e-20 0)
(0 -9.28692e-20 0)
(0 -9.38732e-20 0)
(-1.45145e-32 -9.46884e-20 0)
(0 -9.57969e-20 0)
(0 -9.6947e-20 0)
(0 -9.77748e-20 0)
(0 -9.87388e-20 0)
(0 -1.00081e-19 0)
(0 -1.00787e-19 0)
(0 -1.02031e-19 0)
(0 -1.03301e-19 0)
(0 -1.04108e-19 0)
(1.45212e-32 -1.05258e-19 0)
(0 -1.06353e-19 0)
(0 -1.07978e-19 0)
(0 -1.08508e-19 0)
(0 -1.09825e-19 0)
(0 -1.1161e-19 0)
(0 -1.11979e-19 0)
(1.45263e-32 -1.13595e-19 0)
(0 -1.15074e-19 0)
(0 -1.16014e-19 0)
(0 -1.17785e-19 0)
(0 -1.18528e-19 0)
(0 -1.19674e-19 0)
(0 -1.22067e-19 0)
(0 -1.22906e-19 0)
(1.45326e-32 -1.23998e-19 0)
(0 -1.25843e-19 0)
(0 -1.27333e-19 0)
(0 -1.28526e-19 0)
(0 -1.30356e-19 0)
(0 -1.3186e-19 0)
(0 -1.3329e-19 0)
(0 -1.35329e-19 0)
(0 -1.36163e-19 0)
(0 -1.38436e-19 0)
(0 -1.40225e-19 0)
(0 -1.41727e-19 0)
(0 -1.43834e-19 0)
(0 -1.45416e-19 0)
(0 -1.4723e-19 0)
(0 -1.49197e-19 0)
(0 -1.51454e-19 0)
(0 -1.53313e-19 0)
(0 -1.54791e-19 0)
(0 -1.5725e-19 0)
(0 -1.6018e-19 0)
(0 -1.61467e-19 0)
(0 -1.6366e-19 0)
(0 -1.66475e-19 0)
(0 -1.68903e-19 0)
(0 -1.71209e-19 0)
(0 -1.73296e-19 0)
(0 -1.76125e-19 0)
(0 -1.78906e-19 0)
(0 -1.81388e-19 0)
(0 -1.84098e-19 0)
(0 -1.87171e-19 0)
(0 -1.90087e-19 0)
(0 -1.931e-19 0)
(0 -1.96214e-19 0)
(0 -1.99447e-19 0)
(0 -2.02723e-19 0)
(0 -2.05997e-19 0)
(0 -2.09513e-19 0)
(0 -2.13149e-19 0)
(0 -2.16837e-19 0)
(0 -2.20721e-19 0)
(0 -2.24772e-19 0)
(0 -2.28904e-19 0)
(0 -2.3317e-19 0)
(0 -2.37577e-19 0)
(0 -2.42116e-19 0)
(0 -2.46806e-19 0)
(0 -2.51677e-19 0)
(0 -2.56734e-19 0)
(0 -2.61982e-19 0)
(0 -2.67441e-19 0)
(0 -2.73113e-19 0)
(0 -2.78995e-19 0)
(0 -2.851e-19 0)
(0 -2.91441e-19 0)
(0 -2.98026e-19 0)
(0 -3.04872e-19 0)
(0 -3.11994e-19 0)
(0 -3.19404e-19 0)
(0 -3.27117e-19 0)
(0 -3.35149e-19 0)
(0 -3.4352e-19 0)
(0 -3.52252e-19 0)
(0 -3.61369e-19 0)
(0 -3.70903e-19 0)
(0 -3.8089e-19 0)
(0 -3.91372e-19 0)
(0 -4.02397e-19 0)
(0 -4.14018e-19 0)
(0 -4.26286e-19 0)
(0 -4.39247e-19 0)
(0 -4.52938e-19 0)
(0 -4.67401e-19 0)
(0 -4.82477e-19 0)
(0 3.27908e-16 0)
(0 1.72498e-15 0)
(0 6.59861e-15 0)
(0 2.37458e-14 0)
(0 8.25298e-14 0)
(0 2.79534e-13 0)
(0 9.31759e-13 0)
(0 3.08966e-12 0)
(0 1.0309e-11 0)
(0 3.50904e-11 0)
(0 1.24246e-10 0)
(0 4.69813e-10 0)
(0 1.95845e-09 0)
(0 9.37433e-09 0)
(0 5.41791e-08 0)
(0 3.95855e-07 0)
(0 3.85495e-06 0)
(0 4.69882e-05 0)
(0 0.000842292 0)
(0 0.0300604 0)
(0 0.638698 0)
(0 1.73697 0)
(0 1.75632 0)
(0 -0.570691 0)
(0 -1.82453 0)
(0 -1.85915 0)
(0 -1.66564 0)
(0 -1.5136 0)
(0 -1.41567 0)
(0 -1.34402 0)
(0 -1.2878 0)
(0 -1.24211 0)
(0 -1.20451 0)
(0 -1.17364 0)
(0 -1.14834 0)
(0 -1.12797 0)
(0 -1.11181 0)
(0 -1.09918 0)
(0 -1.08949 0)
(0 -1.08236 0)
(0 -1.07741 0)
(0 -1.0743 0)
(0 -1.07276 0)
(0 -1.07253 0)
(0 -1.07342 0)
(0 -1.07525 0)
(0 -1.07791 0)
(0 -1.08121 0)
(0 -1.08508 0)
(0 -1.08945 0)
(0 -1.09423 0)
(0 -1.09934 0)
(0 -1.10474 0)
(0 -1.11042 0)
(0 -1.11632 0)
(0 -1.12244 0)
(0 -1.12877 0)
(0 -1.1353 0)
(0 -1.14206 0)
(0 -1.14905 0)
(0 -1.15629 0)
(0 -1.16385 0)
(0 -1.17181 0)
(0 -1.18024 0)
(0 -1.18929 0)
(0 -1.19911 0)
(0 -1.20986 0)
(0 -1.22158 0)
(0 -1.23409 0)
(0 -1.24677 0)
(0 -1.25848 0)
(0 -1.26762 0)
(0 -1.27236 0)
(0 -1.27117 0)
(0 -1.26335 0)
(0 -1.24939 0)
(0 -1.23101 0)
(-3.72809e-16 -1.21011 0)
(0 -1.18841 0)
(0 -1.16693 0)
(4.71222e-16 -1.14623 0)
(0 -1.12666 0)
(-5.5435e-16 -1.1086 0)
(0 -1.0926 0)
(6.56975e-16 -1.0795 0)
(0 -1.07055 0)
(0 -1.06722 0)
(0 -1.07081 0)
(4.81264e-16 -1.08161 0)
(0 -1.09796 0)
(0 -1.11558 0)
(0 -1.12785 0)
(0 -1.1274 0)
(0 -1.10857 0)
(-2.65026e-16 -1.06949 0)
(0 -1.01259 0)
(-1.77415e-16 -0.943337 0)
(0 -0.868038 0)
(0 -0.792033 0)
(0 -0.718971 0)
(0 -0.650165 0)
(0 -0.587214 0)
(0 -0.527399 0)
(1.01457e-16 -0.473287 0)
(1.11573e-16 -0.419805 0)
(0 -0.370528 0)
(0 -0.322047 0)
(0 -0.27628 0)
(0 -0.235522 0)
(0 -0.195004 0)
(0 -0.219096 0)
(0 -0.106542 0)
(0 0 0)
(0 0 0)
(0 0 0)
(0 0 0)
(0 0 0)
(0 0 0)
(0 0 0)
(0 0 0)
(0 0 0)
(0 0 0)
(0 0 0)
(0 0 0)
(0 0 0)
(0 0 0)
(0 0 0)
(0 0 0)
(0 0 0)
(0 0 0)
(0 0 0)
(0 0 0)
(0 0 0)
(0 0 0)
(0 0 0)
(0 0 0)
(0 0 0)
(0 0 0)
(0 0 0)
(0 0 0)
(0 0 0)
(0 0 0)
(0 0 0)
(0 0 0)
(0 0 0)
(0 0 0)
(0 0 0)
(0 0 0)
(0 0 0)
(0 0 0)
(0 0 0)
(0 0 0)
(0 0 0)
(0 0 0)
(0 0 0)
(0 0 0)
(0 0 0)
(0 0 0)
(0 0 0)
(0 0 0)
(0 0 0)
(0 0 0)
(0 0 0)
(0 0 0)
(0 0 0)
(0 0 0)
(0 0 0)
(0 0 0)
(0 0 0)
(0 0 0)
(0 0 0)
(0 0 0)
(0 0 0)
(0 0 0)
(0 0 0)
(0 0 0)
(0 0 0)
(0 0 0)
(0 0 0)
(0 0 0)
(0 0 0)
(0 0 0)
(0 0 0)
(0 0 0)
(0 0 0)
(0 0 0)
(0 0 0)
(0 0 0)
(0 0 0)
(0 0 0)
(0 0 0)
(0 0 0)
(0 0 0)
(0 0 0)
(0 0 0)
(0 0 0)
(0 0 0)
(0 0 0)
(0 0 0)
(0 0 0)
(0 0 0)
(0 0 0)
(0 0 0)
(0 0 0)
(0 0 0)
(0 0 0)
(0 0 0)
(0 0 0)
(0 0 0)
(0 0 0)
(0 0 0)
(0 0 0)
(0 0 0)
(0 0 0)
(0 0 0)
(0 0 0)
(0 0 0)
(0 0 0)
(0 0 0)
(0 0 0)
(0 0 0)
(0 0 0)
(0 0 0)
(0 0 0)
(0 0 0)
(0 0 0)
(0 0 0)
(0 0 0)
(0 0 0)
(0 0 0)
(0 0 0)
(0 0 0)
(0 0 0)
(0 0 0)
(0 0 0)
)
;

boundaryField
{
    inandouthalf11
    {
        type            cyclic;
    }
    inandouthalf12
    {
        type            cyclic;
    }
    inandouthalf21
    {
        type            cyclic;
    }
    inandouthalf22
    {
        type            cyclic;
    }
    inandouthalf31
    {
        type            cyclic;
    }
    inandouthalf32
    {
        type            cyclic;
    }
    inandouthalf41
    {
        type            cyclic;
    }
    inandouthalf42
    {
        type            cyclic;
    }
    top
    {
        type            symmetryPlane;
    }
    walls
    {
        type            calculated;
        value           uniform (0 0 0);
    }
    frontAndBackPlanes
    {
        type            empty;
    }
}


// ************************************************************************* //
