/*--------------------------------*- C++ -*----------------------------------*\
| =========                 |                                                 |
| \\      /  F ield         | OpenFOAM: The Open Source CFD Toolbox           |
|  \\    /   O peration     | Version:  2.4.x                                 |
|   \\  /    A nd           | Web:      www.OpenFOAM.org                      |
|    \\/     M anipulation  |                                                 |
\*---------------------------------------------------------------------------*/
FoamFile
{
    version     2.0;
    format      ascii;
    class       volVectorField;
    location    "10";
    object      gradPf;
}
// * * * * * * * * * * * * * * * * * * * * * * * * * * * * * * * * * * * * * //

dimensions      [0 1 -2 0 0 0 0];

internalField   nonuniform List<vector> 
360
(
(0 71.7437 0)
(0 80.3555 0)
(0 0.132375 0)
(0 -12.5543 0)
(-3.34415e-14 -5.21496 0)
(-3.34422e-14 -2.80365 0)
(-3.34431e-14 -3.57444 0)
(0 -4.06471 0)
(-3.34455e-14 -4.11062 0)
(0 -4.12121 0)
(-3.3448e-14 -4.10907 0)
(0 -4.09755 0)
(-3.34505e-14 -4.10463 0)
(0 -4.11273 0)
(0 -4.13197 0)
(0 -4.15141 0)
(0 -4.16051 0)
(-3.3457e-14 -4.16552 0)
(0 -4.18732 0)
(0 -4.19349 0)
(0 -4.20043 0)
(-3.34625e-14 -4.22274 0)
(0 -4.2299 0)
(0 -4.24247 0)
(0 -4.25539 0)
(-3.34682e-14 -4.25906 0)
(0 -4.27507 0)
(0 -4.29213 0)
(0 -4.29407 0)
(0 -4.3013 0)
(0 -4.324 0)
(0 -4.31871 0)
(0 -4.33524 0)
(0 -4.35236 0)
(0 -4.34876 0)
(1.67417e-14 -4.359 0)
(0 -4.36596 0)
(0 -4.39358 0)
(0 -4.37607 0)
(0 -4.38912 0)
(0 -4.4201 0)
(0 -4.39402 0)
(3.34953e-14 -4.41595 0)
(0 -4.43179 0)
(0 -4.42554 0)
(0 -4.45001 0)
(0 -4.43487 0)
(0 -4.43389 0)
(0 -4.47794 0)
(0 -4.46384 0)
(3.351e-14 -4.45775 0)
(0 -4.47816 0)
(0 -4.4843 0)
(0 -4.47932 0)
(0 -4.49496 0)
(0 -4.49869 0)
(0 -4.49817 0)
(0 -4.51732 0)
(0 -4.49509 0)
(0 -4.51905 0)
(0 -4.52626 0)
(0 -4.52234 0)
(0 -4.53685 0)
(0 -4.53309 0)
(0 -4.53553 0)
(0 -4.5412 0)
(0 -4.5542 0)
(0 -4.55363 0)
(0 -4.54068 0)
(0 -4.555 0)
(0 -4.58114 0)
(0 -4.5587 0)
(0 -4.56029 0)
(0 -4.57797 0)
(0 -4.58256 0)
(0 -4.5824 0)
(0 -4.57453 0)
(0 -4.58472 0)
(0 -4.59158 0)
(0 -4.58891 0)
(0 -4.5901 0)
(0 -4.59836 0)
(0 -4.60057 0)
(0 -4.60294 0)
(0 -4.60556 0)
(0 -4.60863 0)
(0 -4.61039 0)
(0 -4.60972 0)
(0 -4.61209 0)
(0 -4.61457 0)
(0 -4.61557 0)
(0 -4.61805 0)
(0 -4.62123 0)
(0 -4.62313 0)
(0 -4.62474 0)
(0 -4.62607 0)
(0 -4.62681 0)
(0 -4.62715 0)
(0 -4.62754 0)
(0 -4.62786 0)
(0 -4.62799 0)
(0 -4.62812 0)
(0 -4.62804 0)
(0 -4.62748 0)
(0 -4.62645 0)
(0 -4.62491 0)
(0 -4.62279 0)
(0 -4.6201 0)
(0 -4.61679 0)
(0 -4.61279 0)
(0 -4.60803 0)
(0 -4.60246 0)
(0 -4.59604 0)
(0 -4.58875 0)
(0 -4.58057 0)
(0 -4.57154 0)
(0 -4.56169 0)
(0 -4.55111 0)
(0 -4.53989 0)
(0 -4.52809 0)
(0 -4.51568 0)
(0 -4.50255 0)
(0 -4.48842 0)
(0 -4.47308 0)
(0 -4.45661 0)
(0 -4.4397 0)
(0 -4.42354 0)
(0 -4.40896 0)
(0 -4.39478 0)
(0 -4.37717 0)
(0 -4.35294 0)
(0 -4.32803 0)
(0 -4.32029 0)
(0 -4.33846 0)
(0 -4.3558 0)
(0 -4.33901 0)
(0 -4.31855 0)
(0 -4.39411 0)
(0 -4.60661 0)
(0 -4.73098 0)
(0 -4.80939 0)
(0 -17.8691 0)
(0 -16.811 0)
(0 -1.83537 0)
(0 -2.13852 0)
(0 -3.30838 0)
(0 -5.24948 0)
(0 -5.15372 0)
(0 0 0)
(0 0 0)
(0 0 0)
(0 0 0)
(0 0 0)
(0 0 0)
(0 0 0)
(0 0 0)
(0 0 0)
(0 0 0)
(0 0 0)
(0 0 0)
(0 0 0)
(0 0 0)
(0 0 0)
(0 0 0)
(0 0 0)
(0 0 0)
(0 0 0)
(0 0 0)
(0 0 0)
(0 0 0)
(0 0 0)
(0 0 0)
(0 0 0)
(0 0 0)
(0 0 0)
(0 0 0)
(0 0 0)
(0 0 0)
(0 0 0)
(0 0 0)
(0 0 0)
(0 0 0)
(0 0 0)
(0 0 0)
(0 0 0)
(0 0 0)
(0 0 0)
(0 0 0)
(0 0 0)
(0 0 0)
(0 0 0)
(0 0 0)
(0 0 0)
(0 0 0)
(0 0 0)
(0 0 0)
(0 0 0)
(0 0 0)
(0 0 0)
(0 0 0)
(0 0 0)
(0 0 0)
(0 0 0)
(0 0 0)
(0 0 0)
(0 0 0)
(0 0 0)
(0 0 0)
(0 0 0)
(0 0 0)
(0 0 0)
(0 0 0)
(0 0 0)
(0 0 0)
(0 0 0)
(0 0 0)
(0 0 0)
(0 0 0)
(0 0 0)
(0 0 0)
(0 0 0)
(0 0 0)
(0 0 0)
(0 0 0)
(0 0 0)
(0 0 0)
(0 0 0)
(0 0 0)
(0 0 0)
(0 0 0)
(0 0 0)
(0 0 0)
(0 0 0)
(0 0 0)
(0 0 0)
(0 0 0)
(0 0 0)
(0 0 0)
(0 0 0)
(0 0 0)
(0 0 0)
(0 0 0)
(0 0 0)
(0 0 0)
(0 0 0)
(0 0 0)
(0 0 0)
(0 0 0)
(0 0 0)
(0 0 0)
(0 0 0)
(0 0 0)
(0 0 0)
(0 0 0)
(0 0 0)
(0 0 0)
(0 0 0)
(0 0 0)
(0 0 0)
(0 0 0)
(0 0 0)
(0 0 0)
(0 0 0)
(0 0 0)
(0 0 0)
(0 0 0)
(0 0 0)
(0 0 0)
(0 0 0)
(0 0 0)
(0 0 0)
(0 0 0)
(0 0 0)
(0 0 0)
(0 0 0)
(0 0 0)
(0 0 0)
(0 0 0)
(0 0 0)
(0 0 0)
(0 0 0)
(0 0 0)
(0 0 0)
(0 0 0)
(0 0 0)
(0 0 0)
(0 0 0)
(0 0 0)
(0 0 0)
(0 0 0)
(0 0 0)
(0 0 0)
(0 0 0)
(0 0 0)
(0 0 0)
(0 0 0)
(0 0 0)
(0 0 0)
(0 0 0)
(0 0 0)
(0 0 0)
(0 0 0)
(0 0 0)
(0 0 0)
(0 0 0)
(0 0 0)
(0 0 0)
(0 0 0)
(0 0 0)
(0 0 0)
(0 0 0)
(0 0 0)
(0 0 0)
(0 0 0)
(0 0 0)
(0 0 0)
(0 0 0)
(0 0 0)
(0 0 0)
(0 0 0)
(0 0 0)
(0 0 0)
(0 0 0)
(0 0 0)
(0 0 0)
(0 0 0)
(0 0 0)
(0 0 0)
(0 0 0)
(0 0 0)
(0 0 0)
(0 0 0)
(0 0 0)
(0 0 0)
(0 0 0)
(0 0 0)
(0 0 0)
(0 0 0)
(0 0 0)
(0 0 0)
(0 0 0)
(0 0 0)
(0 0 0)
(0 0 0)
(0 0 0)
(0 0 0)
(0 0 0)
(0 0 0)
(0 0 0)
(0 0 0)
(0 0 0)
(0 0 0)
(0 0 0)
(0 0 0)
(0 0 0)
(0 0 0)
(0 0 0)
(0 0 0)
(0 0 0)
(0 0 0)
)
;

boundaryField
{
    inandouthalf11
    {
        type            cyclic;
    }
    inandouthalf12
    {
        type            cyclic;
    }
    inandouthalf21
    {
        type            cyclic;
    }
    inandouthalf22
    {
        type            cyclic;
    }
    inandouthalf31
    {
        type            cyclic;
    }
    inandouthalf32
    {
        type            cyclic;
    }
    inandouthalf41
    {
        type            cyclic;
    }
    inandouthalf42
    {
        type            cyclic;
    }
    top
    {
        type            symmetryPlane;
    }
    walls
    {
        type            calculated;
        value           uniform (0 0 0);
    }
    frontAndBackPlanes
    {
        type            empty;
    }
}


// ************************************************************************* //
