/*--------------------------------*- C++ -*----------------------------------*\
| =========                 |                                                 |
| \\      /  F ield         | OpenFOAM: The Open Source CFD Toolbox           |
|  \\    /   O peration     | Version:  2.4.x                                 |
|   \\  /    A nd           | Web:      www.OpenFOAM.org                      |
|    \\/     M anipulation  |                                                 |
\*---------------------------------------------------------------------------*/
FoamFile
{
    version     2.0;
    format      ascii;
    class       volScalarField;
    location    "10";
    object      k;
}
// * * * * * * * * * * * * * * * * * * * * * * * * * * * * * * * * * * * * * //

dimensions      [0 2 -2 0 0 0 0];

internalField   nonuniform List<scalar> 
360
(
1e-20
1e-20
1e-20
1e-20
1e-20
1e-20
1e-20
1e-20
1e-20
1e-20
1e-20
1e-20
1e-20
1e-20
1e-20
1e-20
1e-20
1e-20
1e-20
1e-20
1e-20
1e-20
1e-20
1e-20
1e-20
1e-20
1e-20
1e-20
1e-20
1e-20
1e-20
1e-20
1e-20
1e-20
1e-20
1e-20
1e-20
1e-20
1e-20
1e-20
1e-20
1e-20
1e-20
1e-20
1e-20
1e-20
1e-20
1e-20
1e-20
1e-20
1e-20
1e-20
1e-20
1e-20
1e-20
1e-20
1e-20
1e-20
1e-20
1e-20
1e-20
1e-20
1e-20
1e-20
1e-20
1e-20
1e-20
1e-20
1e-20
1e-20
1e-20
1e-20
1e-20
1e-20
1e-20
1e-20
1e-20
1e-20
1e-20
1e-20
1e-20
1e-20
1e-20
1e-20
1e-20
1e-20
1e-20
1e-20
1e-20
1e-20
1e-20
1e-20
1e-20
1e-20
1e-20
1e-20
1e-20
1e-20
1e-20
1e-20
1e-20
1e-20
1e-20
1e-20
1e-20
1e-20
1e-20
1e-20
1e-20
1e-20
1e-20
1e-20
1e-20
1e-20
1e-20
1e-20
1e-20
1e-20
1e-20
1e-20
1e-20
1e-20
1e-20
1e-20
1e-20
1e-20
2.91974e-20
1.10984e-19
4.1592e-19
1.50438e-18
5.2652e-18
1.79523e-17
6.01714e-17
2.00304e-16
6.69626e-16
2.27848e-15
8.04167e-15
3.02099e-14
1.2474e-13
5.9032e-13
3.37172e-12
2.4393e-11
2.44459e-10
2.91862e-09
4.21866e-08
8.28972e-07
2.15546e-05
0.000509702
0.00244095
0.00361764
0.00443418
0.00511933
0.00570791
0.006221
0.00667436
0.0070793
0.00744376
0.00777339
0.00807234
0.00834381
0.00859031
0.00881394
0.00901643
0.00919932
0.0093639
0.00951136
0.00964272
0.00975894
0.00986086
0.00994924
0.0100248
0.0100881
0.0101399
0.0101806
0.0102108
0.0102308
0.0102413
0.0102424
0.0102347
0.0102185
0.0101941
0.0101618
0.0101219
0.0100748
0.0100206
0.00995965
0.0098922
0.00981847
0.00973869
0.00965309
0.00956188
0.00946527
0.00936348
0.0092567
0.00914513
0.00902897
0.00890841
0.00878364
0.00865484
0.00852218
0.00838586
0.00824461
0.008097
0.00794295
0.00778239
0.00761529
0.00744161
0.00726135
0.00707453
0.00688121
0.00668147
0.00647546
0.00626335
0.00604538
0.00582186
0.00559316
0.00535974
0.00512215
0.00488105
0.00463721
0.00439152
0.00414503
0.00389894
0.00365459
0.00341352
0.00317739
0.00294798
0.00272718
0.00251687
0.00231885
0.00213474
0.00196586
0.00181307
0.00167675
0.00155671
0.00145222
0.00136213
0.00128498
0.00121915
0.00116298
0.00111485
0.00107328
0.00103694
0.00100465
0.000975377
0.00094825
0.000922503
0.00089748
0.000872617
0.000847427
0.000821498
0.00079448
0.000766082
0.000736067
0.000704254
0.000670511
0.000634758
0.000596968
0.000557166
0.000515434
0.00047191
0.0004268
0.000380373
0.000332979
0.000285052
0.000237124
0.000189846
0.000144014
0.000100631
6.09993e-05
2.69077e-05
4.71161e-06
1.55441e-07
1.77787e-09
1.81026e-11
1.75422e-13
1.62063e-15
1.42924e-17
1.27359e-19
1.01416e-20
1e-20
1e-20
1e-20
1e-20
1e-20
1e-20
1e-20
1e-20
1e-20
1e-20
1e-20
1e-20
1e-20
1e-20
1e-20
1e-20
1e-20
1e-20
1e-20
1e-20
1e-20
1e-20
1e-20
1e-20
1e-20
1e-20
1e-20
1e-20
1e-20
1e-20
1e-20
1e-20
1e-20
1e-20
1e-20
1e-20
1e-20
1e-20
1e-20
1e-20
1e-20
1e-20
1e-20
1e-20
1e-20
1e-20
1e-20
1e-20
1e-20
1e-20
1e-20
1e-20
1e-20
1e-20
1e-20
1e-20
1e-20
1e-20
1e-20
1e-20
1e-20
1e-20
1e-20
1e-20
1e-20
1e-20
1e-20
1e-20
1e-20
1e-20
1e-20
1e-20
1e-20
1e-20
1e-20
1e-20
1e-20
1e-20
1e-20
1e-20
)
;

boundaryField
{
    inandouthalf11
    {
        type            cyclic;
    }
    inandouthalf12
    {
        type            cyclic;
    }
    inandouthalf21
    {
        type            cyclic;
    }
    inandouthalf22
    {
        type            cyclic;
    }
    inandouthalf31
    {
        type            cyclic;
    }
    inandouthalf32
    {
        type            cyclic;
    }
    inandouthalf41
    {
        type            cyclic;
    }
    inandouthalf42
    {
        type            cyclic;
    }
    top
    {
        type            symmetryPlane;
    }
    walls
    {
        type            zeroGradient;
    }
    frontAndBackPlanes
    {
        type            empty;
    }
}


// ************************************************************************* //
