/*--------------------------------*- C++ -*----------------------------------*\
| =========                 |                                                 |
| \\      /  F ield         | OpenFOAM: The Open Source CFD Toolbox           |
|  \\    /   O peration     | Version:  2.4.x                                 |
|   \\  /    A nd           | Web:      www.OpenFOAM.org                      |
|    \\/     M anipulation  |                                                 |
\*---------------------------------------------------------------------------*/
FoamFile
{
    version     2.0;
    format      ascii;
    class       volScalarField;
    location    "10";
    object      k_0;
}
// * * * * * * * * * * * * * * * * * * * * * * * * * * * * * * * * * * * * * //

dimensions      [0 2 -2 0 0 0 0];

internalField   nonuniform List<scalar> 
360
(
1e-20
1e-20
1e-20
1e-20
1e-20
1e-20
1e-20
1e-20
1e-20
1e-20
1e-20
1e-20
1e-20
1e-20
1e-20
1e-20
1e-20
1e-20
1e-20
1e-20
1e-20
1e-20
1e-20
1e-20
1e-20
1e-20
1e-20
1e-20
1e-20
1e-20
1e-20
1e-20
1e-20
1e-20
1e-20
1e-20
1e-20
1e-20
1e-20
1e-20
1e-20
1e-20
1e-20
1e-20
1e-20
1e-20
1e-20
1e-20
1e-20
1e-20
1e-20
1e-20
1e-20
1e-20
1e-20
1e-20
1e-20
1e-20
1e-20
1e-20
1e-20
1e-20
1e-20
1e-20
1e-20
1e-20
1e-20
1e-20
1e-20
1e-20
1e-20
1e-20
1e-20
1e-20
1e-20
1e-20
1e-20
1e-20
1e-20
1e-20
1e-20
1e-20
1e-20
1e-20
1e-20
1e-20
1e-20
1e-20
1e-20
1e-20
1e-20
1e-20
1e-20
1e-20
1e-20
1e-20
1e-20
1e-20
1e-20
1e-20
1e-20
1e-20
1e-20
1e-20
1e-20
1e-20
1e-20
1e-20
1e-20
1e-20
1e-20
1e-20
1e-20
1e-20
1e-20
1e-20
1e-20
1e-20
1e-20
1e-20
1e-20
1e-20
1e-20
1e-20
1e-20
1e-20
2.92003e-20
1.11012e-19
4.16098e-19
1.50527e-18
5.26915e-18
1.79686e-17
6.02358e-17
2.00553e-16
6.70587e-16
2.28224e-15
8.05692e-15
3.02762e-14
1.25058e-13
5.92048e-13
3.3829e-12
2.44839e-11
2.45467e-10
2.93207e-09
4.23984e-08
8.33214e-07
2.16591e-05
0.00051154
0.00244251
0.00361851
0.00443598
0.00512159
0.0057102
0.00622316
0.00667637
0.00708118
0.00744554
0.00777509
0.00807399
0.00834542
0.00859189
0.00881549
0.00901797
0.00920083
0.0093654
0.00951283
0.00964418
0.00976037
0.00986226
0.00995062
0.0100261
0.0100895
0.0101412
0.0101819
0.010212
0.010232
0.0102424
0.0102435
0.0102358
0.0102195
0.0101951
0.0101628
0.0101229
0.0100757
0.0100215
0.00996048
0.00989299
0.00981922
0.0097394
0.00965376
0.00956251
0.00946586
0.00936402
0.0092572
0.00914558
0.00902938
0.00890878
0.00878396
0.00865512
0.00852242
0.00838605
0.00824476
0.0080971
0.007943
0.0077824
0.00761525
0.00744152
0.00726121
0.00707434
0.00688097
0.00668119
0.00647512
0.00626297
0.00604495
0.00582138
0.00559263
0.00535917
0.00512155
0.00488041
0.00463654
0.00439082
0.00414431
0.00389819
0.00365384
0.00341277
0.00317664
0.00294725
0.00272647
0.00251619
0.00231821
0.00213416
0.00196533
0.00181261
0.00167636
0.00155638
0.00145195
0.00136192
0.00128482
0.00121903
0.00116289
0.0011148
0.00107326
0.00103694
0.00100466
0.000975401
0.000948283
0.000922543
0.000897525
0.000872663
0.000847474
0.000821544
0.000794524
0.000766122
0.000736104
0.000704286
0.000670537
0.000634779
0.000596983
0.000557175
0.000515436
0.000471907
0.00042679
0.000380358
0.000332959
0.000285028
0.000237096
0.000189815
0.000143982
0.000100599
6.09697e-05
2.68823e-05
4.70165e-06
1.54881e-07
1.77095e-09
1.80314e-11
1.74725e-13
1.61414e-15
1.42347e-17
1.26872e-19
1.01397e-20
1e-20
1e-20
1e-20
1e-20
1e-20
1e-20
1e-20
1e-20
1e-20
1e-20
1e-20
1e-20
1e-20
1e-20
1e-20
1e-20
1e-20
1e-20
1e-20
1e-20
1e-20
1e-20
1e-20
1e-20
1e-20
1e-20
1e-20
1e-20
1e-20
1e-20
1e-20
1e-20
1e-20
1e-20
1e-20
1e-20
1e-20
1e-20
1e-20
1e-20
1e-20
1e-20
1e-20
1e-20
1e-20
1e-20
1e-20
1e-20
1e-20
1e-20
1e-20
1e-20
1e-20
1e-20
1e-20
1e-20
1e-20
1e-20
1e-20
1e-20
1e-20
1e-20
1e-20
1e-20
1e-20
1e-20
1e-20
1e-20
1e-20
1e-20
1e-20
1e-20
1e-20
1e-20
1e-20
1e-20
1e-20
1e-20
1e-20
1e-20
)
;

boundaryField
{
    inandouthalf11
    {
        type            cyclic;
    }
    inandouthalf12
    {
        type            cyclic;
    }
    inandouthalf21
    {
        type            cyclic;
    }
    inandouthalf22
    {
        type            cyclic;
    }
    inandouthalf31
    {
        type            cyclic;
    }
    inandouthalf32
    {
        type            cyclic;
    }
    inandouthalf41
    {
        type            cyclic;
    }
    inandouthalf42
    {
        type            cyclic;
    }
    top
    {
        type            symmetryPlane;
    }
    walls
    {
        type            zeroGradient;
    }
    frontAndBackPlanes
    {
        type            empty;
    }
}


// ************************************************************************* //
