/*--------------------------------*- C++ -*----------------------------------*\
| =========                 |                                                 |
| \\      /  F ield         | OpenFOAM: The Open Source CFD Toolbox           |
|  \\    /   O peration     | Version:  2.4.x                                 |
|   \\  /    A nd           | Web:      www.OpenFOAM.org                      |
|    \\/     M anipulation  |                                                 |
\*---------------------------------------------------------------------------*/
FoamFile
{
    version     2.0;
    format      ascii;
    class       volScalarField;
    location    "10";
    object      mua;
}
// * * * * * * * * * * * * * * * * * * * * * * * * * * * * * * * * * * * * * //

dimensions      [1 -1 -1 0 0 0 0];

internalField   nonuniform List<scalar> 
360
(
1.06925e+07
7.76674e+06
1.00323e+07
1.06002e+07
1.03057e+07
1.02791e+07
1.04229e+07
1.05354e+07
1.05757e+07
1.05557e+07
1.04912e+07
1.03964e+07
1.02777e+07
1.01392e+07
9.98271e+06
9.81069e+06
9.6271e+06
9.43604e+06
9.2397e+06
9.03983e+06
8.83959e+06
8.63874e+06
8.43878e+06
8.24117e+06
8.04661e+06
7.85618e+06
7.67017e+06
7.48795e+06
7.31089e+06
7.13956e+06
6.97324e+06
6.81201e+06
6.65691e+06
6.50576e+06
6.36074e+06
6.22113e+06
6.08674e+06
5.95632e+06
5.83074e+06
5.7112e+06
5.59454e+06
5.48298e+06
5.37655e+06
5.27273e+06
5.17315e+06
5.07719e+06
4.98536e+06
4.89854e+06
4.81349e+06
4.73063e+06
4.65261e+06
4.57729e+06
4.50469e+06
4.43488e+06
4.36816e+06
4.30324e+06
4.2417e+06
4.1822e+06
4.12594e+06
4.07243e+06
4.01963e+06
3.96929e+06
3.92039e+06
3.8738e+06
3.8295e+06
3.7873e+06
3.74652e+06
3.70765e+06
3.67148e+06
3.63725e+06
3.60295e+06
3.57006e+06
3.53988e+06
3.51017e+06
3.48128e+06
3.4536e+06
3.42836e+06
3.40484e+06
3.38239e+06
3.36123e+06
3.34153e+06
3.32252e+06
3.304e+06
3.28615e+06
3.26899e+06
3.25268e+06
3.23738e+06
3.22342e+06
3.21077e+06
3.19918e+06
3.18852e+06
3.17855e+06
3.16892e+06
3.15951e+06
3.15033e+06
3.1414e+06
3.1328e+06
3.12459e+06
3.11675e+06
3.10918e+06
3.10172e+06
3.09417e+06
3.08633e+06
3.07801e+06
3.06907e+06
3.05942e+06
3.04896e+06
3.03763e+06
3.0254e+06
3.01223e+06
2.99807e+06
2.98288e+06
2.96655e+06
2.94888e+06
2.92961e+06
2.90837e+06
2.88473e+06
2.85835e+06
2.82911e+06
2.79736e+06
2.76427e+06
2.73204e+06
2.7041e+06
2.68509e+06
2.68038e+06
2.6954e+06
2.7343e+06
2.79824e+06
2.88271e+06
2.97384e+06
3.0437e+06
3.04795e+06
2.93498e+06
2.67779e+06
2.31461e+06
1.94822e+06
1.69399e+06
1.65777e+06
2.04081e+06
3.67285e+06
1.19529e+07
6.85441e+07
200.836
85.2986
94.8222
62.4173
0.188411
0.0116404
0.00760068
0.00627212
0.00560491
0.00530823
0.00519845
0.00518127
0.00521281
0.00527005
0.00533996
0.0054151
0.00549093
0.00556494
0.00563563
0.00570214
0.00576407
0.0058213
0.00587387
0.00592183
0.00596537
0.00600464
0.00603986
0.00607119
0.00609884
0.00612298
0.00614377
0.0061614
0.00617601
0.00618774
0.00619673
0.00620312
0.00620701
0.00620853
0.00620776
0.00620482
0.00619978
0.00619274
0.00618377
0.00617293
0.0061603
0.00614594
0.0061299
0.00611224
0.00609299
0.0060722
0.0060499
0.00602612
0.0060009
0.00597425
0.0059462
0.00591675
0.00588594
0.00585377
0.00582027
0.00578513
0.00574795
0.0057087
0.00566734
0.00562385
0.00557818
0.00553032
0.00548025
0.00542793
0.00537334
0.00531646
0.00525724
0.00519563
0.00513156
0.00506495
0.00499566
0.00492353
0.00484832
0.00476977
0.00468754
0.00460123
0.00451037
0.00441437
0.00431257
0.00420411
0.00408798
0.00396284
0.00382699
0.00367818
0.00351325
0.00332768
0.00311452
0.00286209
0.00254794
0.00211698
0
0
0
0
0
0
0
0
0
0
0
0
0
0
0
0
0
0
0
0
0
0
0
0
0
0
0
0
0
0
0
0
0
0
0
0
0
0
0
0
0
0
0
0
0
0
0
0
0
0
0
0
0
0
0
0
0
0
0
0
0
0
0
0
0
0
0
0
0
0
0
0
0
0
0
0
0
0
0
0
0
0
0
0
0
0
0
0
0
0
0
0
0
0
0
0
0
0
0
0
0
0
0
0
0
0
0
0
0
0
0
0
0
0
0
0
0
0
0
0
0
0
0
0
)
;

boundaryField
{
    inandouthalf11
    {
        type            cyclic;
    }
    inandouthalf12
    {
        type            cyclic;
    }
    inandouthalf21
    {
        type            cyclic;
    }
    inandouthalf22
    {
        type            cyclic;
    }
    inandouthalf31
    {
        type            cyclic;
    }
    inandouthalf32
    {
        type            cyclic;
    }
    inandouthalf41
    {
        type            cyclic;
    }
    inandouthalf42
    {
        type            cyclic;
    }
    top
    {
        type            symmetryPlane;
    }
    walls
    {
        type            calculated;
        value           uniform 1e+30;
    }
    frontAndBackPlanes
    {
        type            empty;
    }
}


// ************************************************************************* //
