/*--------------------------------*- C++ -*----------------------------------*\
| =========                 |                                                 |
| \\      /  F ield         | OpenFOAM: The Open Source CFD Toolbox           |
|  \\    /   O peration     | Version:  2.4.x                                 |
|   \\  /    A nd           | Web:      www.OpenFOAM.org                      |
|    \\/     M anipulation  |                                                 |
\*---------------------------------------------------------------------------*/
FoamFile
{
    version     2.0;
    format      ascii;
    class       volScalarField;
    location    "10";
    object      nutb;
}
// * * * * * * * * * * * * * * * * * * * * * * * * * * * * * * * * * * * * * //

dimensions      [0 2 -1 0 0 0 0];

internalField   nonuniform List<scalar> 
360
(
9e-22
9e-22
9e-22
9e-22
9e-22
9e-22
9e-22
9e-22
9e-22
9e-22
9e-22
9e-22
9e-22
9e-22
9e-22
9e-22
9e-22
9e-22
9e-22
9e-22
9e-22
9e-22
9e-22
9e-22
9e-22
9e-22
9e-22
9e-22
9e-22
9e-22
9e-22
9e-22
9e-22
9e-22
9e-22
9e-22
9e-22
9e-22
9e-22
9e-22
9e-22
9e-22
9e-22
9e-22
9e-22
9e-22
9e-22
9e-22
9e-22
9e-22
9e-22
9e-22
9e-22
9e-22
9e-22
9e-22
9e-22
9e-22
9e-22
9e-22
9e-22
9e-22
9e-22
9e-22
9e-22
9e-22
9e-22
9e-22
9e-22
9e-22
9e-22
9e-22
9e-22
9e-22
9e-22
9e-22
9e-22
9e-22
9e-22
9e-22
9e-22
9e-22
9e-22
9e-22
9e-22
9e-22
9e-22
9e-22
9e-22
9e-22
9e-22
9e-22
9e-22
9e-22
9e-22
9e-22
9e-22
9e-22
9e-22
9e-22
9e-22
9e-22
9e-22
9e-22
9e-22
9e-22
9e-22
9e-22
9e-22
9e-22
9e-22
9e-22
9e-22
9e-22
9e-22
9e-22
9e-22
9e-22
9e-22
9e-22
9e-22
9e-22
9e-22
9e-22
9e-22
9e-22
2.77201e-21
1.01895e-20
3.66484e-20
1.2644e-19
4.18885e-19
1.33949e-18
4.16545e-18
1.27073e-17
3.83762e-17
1.15927e-16
3.55631e-16
1.13307e-15
3.86305e-15
1.47018e-14
6.60751e-14
3.71003e-13
3.0396e-12
2.90301e-11
3.18687e-10
4.72958e-09
9.25127e-08
1.81619e-06
8.2403e-06
1.526e-05
2.23433e-05
2.98124e-05
3.76214e-05
4.5718e-05
5.40317e-05
6.24913e-05
7.10259e-05
7.95707e-05
8.80697e-05
9.64766e-05
0.000104754
0.000112874
0.000120812
0.000128552
0.000136081
0.000143388
0.000150467
0.000157312
0.000163921
0.000170289
0.000176417
0.000182303
0.000187946
0.000193349
0.00019851
0.000203432
0.000208115
0.000212561
0.000216772
0.000220749
0.000224494
0.000228011
0.000231299
0.000234363
0.000237204
0.000239824
0.000242227
0.000244415
0.00024639
0.000248155
0.000249714
0.000251069
0.000252222
0.000253178
0.000253939
0.000254509
0.00025489
0.000255086
0.0002551
0.000254934
0.000254591
0.000254069
0.000253357
0.000252446
0.00025133
0.00025
0.000248451
0.000246676
0.000244669
0.000242426
0.000239944
0.00023722
0.000234254
0.000231045
0.000227599
0.000223919
0.000220016
0.0002159
0.000211587
0.000207098
0.000202458
0.0001977
0.000192863
0.000187998
0.000183164
0.000178432
0.000173883
0.000169611
0.000165718
0.000162307
0.000159484
0.000157341
0.000155946
0.000155334
0.000155495
0.000156366
0.000157837
0.000159755
0.000161953
0.000164248
0.000166472
0.000168477
0.000170145
0.000171392
0.000172163
0.000172425
0.000172166
0.000171384
0.000170086
0.000168282
0.00016598
0.000163191
0.000159918
0.000156164
0.000151931
0.000147215
0.000142012
0.000136315
0.000130118
0.000123414
0.000116195
0.000108457
0.000100193
9.1401e-05
8.20799e-05
7.22312e-05
6.18592e-05
5.09709e-05
3.95735e-05
2.76573e-05
1.51331e-05
3.46321e-06
1.35437e-07
1.57269e-09
1.60212e-11
1.55386e-13
1.43767e-15
1.26449e-17
7.13071e-20
9.2567e-22
9e-22
9e-22
9e-22
9e-22
9e-22
9e-22
9e-22
9e-22
9e-22
9e-22
9e-22
9e-22
9e-22
9e-22
9e-22
9e-22
9e-22
9e-22
9e-22
9e-22
9e-22
9e-22
9e-22
9e-22
9e-22
9e-22
9e-22
9e-22
9e-22
9e-22
9e-22
9e-22
9e-22
9e-22
9e-22
9e-22
9e-22
9e-22
9e-22
9e-22
9e-22
9e-22
9e-22
9e-22
9e-22
9e-22
9e-22
9e-22
9e-22
9e-22
9e-22
9e-22
9e-22
9e-22
9e-22
9e-22
9e-22
9e-22
9e-22
9e-22
9e-22
9e-22
9e-22
9e-22
9e-22
9e-22
9e-22
9e-22
9e-22
9e-22
9e-22
9e-22
9e-22
9e-22
9e-22
9e-22
9e-22
9e-22
9e-22
9e-22
)
;

boundaryField
{
    inandouthalf11
    {
        type            cyclic;
    }
    inandouthalf12
    {
        type            cyclic;
    }
    inandouthalf21
    {
        type            cyclic;
    }
    inandouthalf22
    {
        type            cyclic;
    }
    inandouthalf31
    {
        type            cyclic;
    }
    inandouthalf32
    {
        type            cyclic;
    }
    inandouthalf41
    {
        type            cyclic;
    }
    inandouthalf42
    {
        type            cyclic;
    }
    top
    {
        type            symmetryPlane;
    }
    walls
    {
        type            calculated;
        value           uniform 0;
    }
    frontAndBackPlanes
    {
        type            empty;
    }
}


// ************************************************************************* //
