/*--------------------------------*- C++ -*----------------------------------*\
| =========                 |                                                 |
| \\      /  F ield         | OpenFOAM: The Open Source CFD Toolbox           |
|  \\    /   O peration     | Version:  2.4.x                                 |
|   \\  /    A nd           | Web:      www.OpenFOAM.org                      |
|    \\/     M anipulation  |                                                 |
\*---------------------------------------------------------------------------*/
FoamFile
{
    version     2.0;
    format      ascii;
    class       volScalarField;
    location    "10";
    object      p;
}
// * * * * * * * * * * * * * * * * * * * * * * * * * * * * * * * * * * * * * //

dimensions      [1 -1 -2 0 0 0 0];

internalField   nonuniform List<scalar> 
360
(
4897.5
4892.59
4887.69
4882.78
4877.88
4872.97
4868.07
4863.16
4858.26
4853.35
4848.44
4843.54
4838.63
4833.73
4828.82
4823.92
4819.01
4814.1
4809.2
4804.29
4799.39
4794.48
4789.57
4784.67
4779.76
4774.85
4769.95
4765.04
4760.13
4755.23
4750.32
4745.41
4740.5
4735.6
4730.69
4725.78
4720.88
4715.97
4711.06
4706.15
4701.24
4696.34
4691.43
4686.52
4681.61
4676.7
4671.8
4666.89
4661.98
4657.07
4652.16
4647.25
4642.34
4637.43
4632.53
4627.62
4622.71
4617.8
4612.89
4607.98
4603.07
4598.16
4593.25
4588.34
4583.43
4578.52
4573.61
4568.7
4563.79
4558.88
4553.97
4549.06
4544.14
4539.23
4534.32
4529.41
4524.5
4519.59
4514.68
4509.77
4504.85
4499.94
4495.03
4490.12
4485.21
4480.29
4475.38
4470.47
4465.56
4460.65
4455.73
4450.82
4445.91
4441
4436.08
4431.17
4426.26
4421.34
4416.43
4411.52
4406.6
4401.69
4396.78
4391.86
4386.95
4382.04
4377.12
4372.21
4367.3
4362.38
4357.47
4352.56
4347.64
4342.73
4337.81
4332.9
4327.99
4323.07
4318.16
4313.24
4308.33
4303.42
4298.5
4293.59
4288.67
4283.76
4278.84
4273.93
4269.02
4264.1
4259.19
4254.27
4249.36
4244.44
4239.53
4234.61
4229.7
4224.79
4219.87
4214.96
4210.04
4205.13
4200.22
4195.24
4190.11
4184.89
4179.5
4173.53
4165.06
4158.13
4151.66
4145.43
4139.4
4133.52
4127.76
4122.12
4116.56
4111.07
4105.65
4100.28
4094.96
4089.68
4084.44
4079.23
4074.05
4068.9
4063.77
4058.66
4053.58
4048.51
4043.46
4038.43
4033.41
4028.4
4023.41
4018.43
4013.46
4008.5
4003.55
3998.61
3993.69
3988.76
3983.85
3978.94
3974.05
3969.15
3964.27
3959.39
3954.52
3949.65
3944.79
3939.93
3935.08
3930.23
3925.39
3920.55
3915.71
3910.88
3906.05
3901.23
3896.41
3891.54
3886.58
3881.52
3876.36
3871.1
3865.73
3860.25
3854.67
3848.98
3843.17
3837.25
3831.21
3825.04
3818.76
3812.34
3805.8
3799.12
3792.31
3785.36
3778.26
3771.02
3763.62
3756.08
3748.37
3740.5
3732.47
3724.26
3715.88
3707.31
3698.56
3689.62
3680.48
3671.15
3661.61
3651.87
3641.92
3631.76
3621.38
3610.78
3599.97
3588.93
3577.66
3566.16
3554.42
3542.44
3530.22
3517.75
3505.03
3492.05
3478.8
3465.29
3451.5
3437.43
3423.08
3408.44
3393.5
3378.26
3362.71
3346.84
3330.66
3314.15
3297.3
3280.11
3262.57
3244.67
3226.41
3207.78
3188.76
3169.36
3149.56
3129.35
3108.72
3087.66
3066.18
3044.26
3021.9
2999.08
2975.8
2952.05
2927.81
2903.09
2877.86
2852.12
2825.86
2799.06
2771.72
2743.82
2715.36
2686.32
2656.7
2626.47
2595.62
2564.15
2532.05
2499.29
2465.86
2431.76
2396.96
2361.46
2325.24
2288.28
2250.57
2212.1
2172.85
2132.8
2091.93
2050.24
2007.7
1964.3
1922.76
1883.52
1844.28
1805.04
1765.8
1726.56
1687.32
1648.08
1608.84
1569.6
1530.36
1491.12
1451.88
1412.64
1373.4
1334.16
1294.92
1255.68
1216.44
1177.2
1137.96
1098.72
1059.48
1020.24
981
941.76
902.52
863.28
824.04
784.8
745.56
706.32
667.08
627.84
588.6
549.36
510.12
470.88
431.64
392.4
353.16
313.92
274.68
235.44
196.2
156.96
117.72
78.48
39.24
3.7742e-08
)
;

boundaryField
{
    inandouthalf11
    {
        type            cyclic;
    }
    inandouthalf12
    {
        type            cyclic;
    }
    inandouthalf21
    {
        type            cyclic;
    }
    inandouthalf22
    {
        type            cyclic;
    }
    inandouthalf31
    {
        type            cyclic;
    }
    inandouthalf32
    {
        type            cyclic;
    }
    inandouthalf41
    {
        type            cyclic;
    }
    inandouthalf42
    {
        type            cyclic;
    }
    top
    {
        type            symmetryPlane;
    }
    walls
    {
        type            slip;
    }
    frontAndBackPlanes
    {
        type            empty;
    }
}


// ************************************************************************* //
