/*--------------------------------*- C++ -*----------------------------------*\
| =========                 |                                                 |
| \\      /  F ield         | OpenFOAM: The Open Source CFD Toolbox           |
|  \\    /   O peration     | Version:  2.4.x                                 |
|   \\  /    A nd           | Web:      www.OpenFOAM.org                      |
|    \\/     M anipulation  |                                                 |
\*---------------------------------------------------------------------------*/
FoamFile
{
    version     2.0;
    format      ascii;
    class       volScalarField;
    location    "10";
    object      pa;
}
// * * * * * * * * * * * * * * * * * * * * * * * * * * * * * * * * * * * * * //

dimensions      [1 -1 -2 0 0 0 0];

internalField   nonuniform List<scalar> 
360
(
2.90359e-16
2.92866e-16
2.93129e-16
2.92868e-16
2.92745e-16
2.92706e-16
2.92657e-16
2.92593e-16
2.92528e-16
2.92462e-16
2.92396e-16
2.92329e-16
2.92262e-16
2.92195e-16
2.92127e-16
2.92058e-16
2.91988e-16
2.91918e-16
2.91847e-16
2.91774e-16
2.91702e-16
2.91629e-16
2.91555e-16
2.9148e-16
2.91404e-16
2.91328e-16
2.91251e-16
2.91173e-16
2.91094e-16
2.91014e-16
2.90934e-16
2.90852e-16
2.90771e-16
2.90687e-16
2.90604e-16
2.90519e-16
2.90433e-16
2.90346e-16
2.90258e-16
2.90171e-16
2.90081e-16
2.8999e-16
2.89899e-16
2.89806e-16
2.89713e-16
2.89619e-16
2.89523e-16
2.89427e-16
2.89329e-16
2.89229e-16
2.8913e-16
2.89029e-16
2.88926e-16
2.88823e-16
2.88719e-16
2.88612e-16
2.88505e-16
2.88396e-16
2.88287e-16
2.88176e-16
2.88063e-16
2.87949e-16
2.87834e-16
2.87717e-16
2.87598e-16
2.87479e-16
2.87357e-16
2.87234e-16
2.8711e-16
2.86984e-16
2.86856e-16
2.86725e-16
2.86595e-16
2.86461e-16
2.86326e-16
2.86188e-16
2.86049e-16
2.85908e-16
2.85765e-16
2.85619e-16
2.85472e-16
2.85322e-16
2.8517e-16
2.85015e-16
2.84858e-16
2.84699e-16
2.84536e-16
2.84372e-16
2.84204e-16
2.84034e-16
2.8386e-16
2.83684e-16
2.83504e-16
2.83321e-16
2.83135e-16
2.82946e-16
2.82752e-16
2.82555e-16
2.82355e-16
2.8215e-16
2.81941e-16
2.81728e-16
2.8151e-16
2.81288e-16
2.81061e-16
2.80829e-16
2.80592e-16
2.80349e-16
2.80101e-16
2.79847e-16
2.79587e-16
2.79321e-16
2.79048e-16
2.78768e-16
2.78482e-16
2.78187e-16
2.77885e-16
2.77575e-16
2.77256e-16
2.76929e-16
2.76591e-16
2.76244e-16
2.75886e-16
2.75517e-16
2.75136e-16
2.74743e-16
8.01125e-16
3.04105e-15
1.13804e-14
4.11015e-14
1.43625e-13
4.88892e-13
1.63578e-12
5.43522e-12
1.81343e-11
6.15738e-11
2.16833e-10
8.12614e-10
3.34628e-09
1.57851e-08
8.98337e-08
6.47333e-07
6.23597e-06
7.50354e-05
0.00133821
0.047586
1.00897
2.78045
2.89991
2.38583
1.92901
1.59989
1.3583
1.17149
1.02253
0.901158
0.800571
0.716017
0.644018
0.582024
0.528102
0.480775
0.438907
0.401612
0.368192
0.338082
0.310833
0.286072
0.263497
0.242851
0.223924
0.206533
0.190524
0.175766
0.16214
0.149548
0.137899
0.127116
0.117128
0.107874
0.0992952
0.0913422
0.0839679
0.0771303
0.0707905
0.0649131
0.0594654
0.0544171
0.04974
0.0454079
0.0413966
0.0376831
0.0342464
0.0310674
0.0281297
0.0254198
0.0229271
0.0206437
0.0185629
0.0166776
0.0149784
0.0134377
0.0120325
0.010754
0.00959237
0.00853787
0.00758127
0.00671395
0.00592786
0.00521543
0.00456936
0.00398271
0.003449
0.00296272
0.00251992
0.00211873
0.00175931
0.00144302
0.00117087
0.000942175
0.000754025
0.000601651
0.00047944
0.000381755
0.00030365
0.000240925
0.000190467
0.000149418
0.000116502
8.91816e-05
6.7932e-05
4.96856e-05
3.64668e-05
2.43254e-05
1.65345e-05
8.3921e-06
0
0
0
0
0
0
0
0
0
0
0
0
0
0
0
0
0
0
0
0
0
0
0
0
0
0
0
0
0
0
0
0
0
0
0
0
0
0
0
0
0
0
0
0
0
0
0
0
0
0
0
0
0
0
0
0
0
0
0
0
0
0
0
0
0
0
0
0
0
0
0
0
0
0
0
0
0
0
0
0
0
0
0
0
0
0
0
0
0
0
0
0
0
0
0
0
0
0
0
0
0
0
0
0
0
0
0
0
0
0
0
0
0
0
0
0
0
0
0
0
0
0
0
0
)
;

boundaryField
{
    inandouthalf11
    {
        type            cyclic;
    }
    inandouthalf12
    {
        type            cyclic;
    }
    inandouthalf21
    {
        type            cyclic;
    }
    inandouthalf22
    {
        type            cyclic;
    }
    inandouthalf31
    {
        type            cyclic;
    }
    inandouthalf32
    {
        type            cyclic;
    }
    inandouthalf41
    {
        type            cyclic;
    }
    inandouthalf42
    {
        type            cyclic;
    }
    top
    {
        type            symmetryPlane;
    }
    walls
    {
        type            calculated;
        value           uniform 2.90359e-16;
    }
    frontAndBackPlanes
    {
        type            empty;
    }
}


// ************************************************************************* //
