/*--------------------------------*- C++ -*----------------------------------*\
| =========                 |                                                 |
| \\      /  F ield         | OpenFOAM: The Open Source CFD Toolbox           |
|  \\    /   O peration     | Version:  2.4.x                                 |
|   \\  /    A nd           | Web:      www.OpenFOAM.org                      |
|    \\/     M anipulation  |                                                 |
\*---------------------------------------------------------------------------*/
FoamFile
{
    version     2.0;
    format      ascii;
    class       surfaceScalarField;
    location    "10";
    object      phia;
}
// * * * * * * * * * * * * * * * * * * * * * * * * * * * * * * * * * * * * * //

dimensions      [0 3 -1 0 0 0 0];

internalField   nonuniform List<scalar> 
359
(
-3.45145e-14
-8.58482e-14
-1.31476e-13
-1.73442e-13
-2.15196e-13
-2.56746e-13
-2.97612e-13
-3.37823e-13
-3.77613e-13
-4.17217e-13
-4.56808e-13
-4.96497e-13
-5.36382e-13
-5.76543e-13
-6.1706e-13
-6.58008e-13
-6.99451e-13
-7.4144e-13
-7.84021e-13
-8.27239e-13
-8.71117e-13
-9.15694e-13
-9.60994e-13
-1.00704e-12
-1.05385e-12
-1.10143e-12
-1.14979e-12
-1.19896e-12
-1.24892e-12
-1.29968e-12
-1.35124e-12
-1.4036e-12
-1.45674e-12
-1.51068e-12
-1.56539e-12
-1.62086e-12
-1.67708e-12
-1.73404e-12
-1.79173e-12
-1.8501e-12
-1.90917e-12
-1.96891e-12
-2.02928e-12
-2.09028e-12
-2.15188e-12
-2.21406e-12
-2.2768e-12
-2.34004e-12
-2.40377e-12
-2.468e-12
-2.53265e-12
-2.59773e-12
-2.66317e-12
-2.72899e-12
-2.7951e-12
-2.86153e-12
-2.9282e-12
-2.9951e-12
-3.06219e-12
-3.1294e-12
-3.19676e-12
-3.2642e-12
-3.33171e-12
-3.39924e-12
-3.46677e-12
-3.53424e-12
-3.60163e-12
-3.6689e-12
-3.73601e-12
-3.80291e-12
-3.86959e-12
-3.93604e-12
-4.00217e-12
-4.06801e-12
-4.1335e-12
-4.19863e-12
-4.26333e-12
-4.32759e-12
-4.39136e-12
-4.45461e-12
-4.51732e-12
-4.57945e-12
-4.641e-12
-4.70194e-12
-4.76226e-12
-4.82192e-12
-4.88092e-12
-4.9392e-12
-4.99675e-12
-5.05355e-12
-5.10956e-12
-5.16476e-12
-5.21916e-12
-5.27274e-12
-5.32548e-12
-5.37739e-12
-5.42844e-12
-5.47863e-12
-5.52795e-12
-5.57639e-12
-5.62395e-12
-5.67061e-12
-5.71638e-12
-5.76126e-12
-5.80525e-12
-5.84837e-12
-5.89061e-12
-5.93198e-12
-5.97248e-12
-6.01212e-12
-6.05091e-12
-6.08885e-12
-6.12595e-12
-6.16221e-12
-6.19763e-12
-6.23225e-12
-6.26605e-12
-6.29908e-12
-6.33134e-12
-6.36284e-12
-6.39357e-12
-6.42352e-12
-6.45261e-12
-6.48073e-12
-6.50771e-12
-6.53336e-12
-6.55747e-12
-6.57989e-12
-6.60053e-12
-6.61945e-12
-6.63686e-12
-6.65316e-12
-6.66894e-12
-6.68496e-12
-6.70202e-12
-6.72052e-12
-6.73979e-12
-6.75744e-12
-6.77017e-12
-6.7764e-12
-6.77811e-12
-6.77775e-12
-5.93344e-11
-1.7641e-10
-2.46272e-10
-3.62983e-10
-6.84031e-10
-1.13923e-08
-1.89161e-08
-2.55963e-08
-3.22256e-08
-3.69822e-08
-4.00908e-08
-4.21564e-08
-4.35639e-08
-4.4545e-08
-4.52263e-08
-4.56758e-08
-4.59322e-08
-4.60207e-08
-4.59586e-08
-4.57598e-08
-4.54368e-08
-4.5001e-08
-4.44629e-08
-4.38326e-08
-4.31192e-08
-4.23314e-08
-4.14774e-08
-4.05644e-08
-3.95991e-08
-3.85875e-08
-3.75353e-08
-3.64474e-08
-3.53282e-08
-3.41819e-08
-3.30121e-08
-3.18223e-08
-3.06156e-08
-2.93949e-08
-2.81633e-08
-2.69235e-08
-2.56783e-08
-2.44306e-08
-2.31836e-08
-2.19406e-08
-2.07053e-08
-1.94819e-08
-1.82751e-08
-1.70906e-08
-1.59352e-08
-1.4817e-08
-1.3745e-08
-1.27289e-08
-1.17773e-08
-1.08953e-08
-1.00816e-08
-9.32656e-09
-8.61121e-09
-7.90964e-09
-7.1945e-09
-6.42876e-09
-5.59712e-09
-4.6919e-09
-3.71024e-09
-2.65221e-09
-1.51986e-09
-3.16932e-10
9.50852e-10
2.27501e-09
3.64301e-09
5.03657e-09
6.43011e-09
7.79021e-09
9.07711e-09
1.02491e-08
1.12694e-08
1.21133e-08
1.27724e-08
1.32549e-08
1.35811e-08
1.37777e-08
1.38725e-08
1.38908e-08
1.38543e-08
1.37784e-08
1.36779e-08
1.35547e-08
1.34259e-08
1.32703e-08
1.31252e-08
1.29236e-08
1.27591e-08
1.245e-08
1.2299e-08
1.13215e-08
6.59955e-09
6.2767e-09
5.46637e-09
4.59649e-09
3.82949e-09
3.19484e-09
2.5844e-09
2.39326e-09
1.82931e-09
2.20773e-09
1.52694e-09
2.41381e-09
1.46441e-09
2.4639e-09
1.68901e-09
-9.64289e-08
-1.56882e-07
-1.58217e-07
-1.58065e-07
-1.5808e-07
-1.58084e-07
-1.58088e-07
-1.58091e-07
-1.58093e-07
-1.58094e-07
-1.58095e-07
-1.58093e-07
-1.5809e-07
-1.58085e-07
-1.58079e-07
-1.5807e-07
-1.58058e-07
-1.58042e-07
-1.58022e-07
-1.57985e-07
-1.57938e-07
-1.5793e-07
-1.5793e-07
-1.5793e-07
-1.5793e-07
-1.5793e-07
-1.5793e-07
-1.5793e-07
-1.5793e-07
-1.5793e-07
-1.5793e-07
-1.5793e-07
-1.5793e-07
-1.5793e-07
-1.5793e-07
-1.5793e-07
-1.5793e-07
-1.5793e-07
-1.5793e-07
-1.5793e-07
-1.5793e-07
-1.5793e-07
-1.5793e-07
-1.5793e-07
-1.5793e-07
-1.5793e-07
-1.5793e-07
-1.5793e-07
-1.5793e-07
-1.5793e-07
-1.5793e-07
-1.5793e-07
-1.5793e-07
-1.5793e-07
-1.5793e-07
-1.5793e-07
-1.5793e-07
-1.5793e-07
-1.5793e-07
-1.5793e-07
-1.5793e-07
-1.5793e-07
-1.5793e-07
-1.5793e-07
-1.5793e-07
-1.5793e-07
-1.5793e-07
-1.5793e-07
-1.5793e-07
-1.5793e-07
-1.5793e-07
-1.5793e-07
-1.5793e-07
-1.5793e-07
-1.5793e-07
-1.5793e-07
-1.5793e-07
-1.5793e-07
-1.5793e-07
-1.5793e-07
-1.5793e-07
-1.5793e-07
-1.5793e-07
-1.5793e-07
-1.5793e-07
-1.5793e-07
-1.5793e-07
-1.5793e-07
-1.5793e-07
-1.5793e-07
-1.5793e-07
-1.5793e-07
-1.5793e-07
-1.5793e-07
-1.5793e-07
-1.5793e-07
-1.5793e-07
-1.5793e-07
-1.5793e-07
-1.5793e-07
-1.5793e-07
-1.5793e-07
-1.5793e-07
-1.5793e-07
-1.5793e-07
-1.57912e-07
-1.57203e-07
-1.32188e-07
)
;

boundaryField
{
    inandouthalf11
    {
        type            cyclic;
        value           nonuniform List<scalar> 
100
(
1.0711e-39
1.99775e-16
3.73768e-16
4.95812e-16
5.89182e-16
6.57022e-16
6.98154e-16
7.13323e-16
7.0365e-16
6.69802e-16
6.1204e-16
5.30363e-16
4.24598e-16
2.94419e-16
1.39359e-16
-4.11929e-17
-2.47964e-16
-4.81752e-16
-7.43415e-16
-1.03388e-15
-1.35409e-15
-1.70506e-15
-2.08784e-15
-2.50349e-15
-2.9531e-15
-3.43776e-15
-3.95853e-15
-4.51654e-15
-5.1129e-15
-5.74866e-15
-6.42488e-15
-7.14263e-15
-7.9029e-15
-8.70673e-15
-9.55513e-15
-1.0449e-14
-1.13891e-14
-1.23766e-14
-1.34122e-14
-1.44967e-14
-1.56308e-14
-1.68154e-14
-1.80509e-14
-1.93381e-14
-2.06777e-14
-2.20701e-14
-2.35159e-14
-2.50152e-14
-2.65683e-14
-2.81761e-14
-2.98385e-14
-3.15557e-14
-3.33279e-14
-3.51552e-14
-3.70374e-14
-3.89748e-14
-4.09671e-14
-4.30141e-14
-4.51155e-14
-4.72705e-14
-4.9479e-14
-5.17408e-14
-5.40557e-14
-5.6423e-14
-5.8842e-14
-6.13118e-14
-6.38316e-14
-6.64007e-14
-6.90178e-14
-7.16814e-14
-7.4391e-14
-7.71461e-14
-7.99453e-14
-8.27872e-14
-8.56712e-14
-8.85964e-14
-9.15611e-14
-9.45632e-14
-9.76013e-14
-1.00674e-13
-1.03779e-13
-1.06916e-13
-1.10082e-13
-1.13278e-13
-1.16502e-13
-1.19752e-13
-1.23027e-13
-1.26326e-13
-1.29646e-13
-1.32984e-13
-1.3634e-13
-1.39712e-13
-1.43098e-13
-1.46498e-13
-1.49909e-13
-1.53331e-13
-1.56764e-13
-1.60205e-13
-1.63653e-13
-1.67108e-13
)
;
    }
    inandouthalf12
    {
        type            cyclic;
        value           nonuniform List<scalar> 
100
(
-1.0711e-39
-1.99775e-16
-3.73768e-16
-4.95812e-16
-5.89182e-16
-6.57022e-16
-6.98154e-16
-7.13323e-16
-7.0365e-16
-6.69802e-16
-6.1204e-16
-5.30363e-16
-4.24598e-16
-2.94419e-16
-1.39359e-16
4.11929e-17
2.47964e-16
4.81752e-16
7.43415e-16
1.03388e-15
1.35409e-15
1.70506e-15
2.08784e-15
2.50349e-15
2.9531e-15
3.43776e-15
3.95853e-15
4.51654e-15
5.1129e-15
5.74866e-15
6.42488e-15
7.14263e-15
7.9029e-15
8.70673e-15
9.55513e-15
1.0449e-14
1.13891e-14
1.23766e-14
1.34122e-14
1.44967e-14
1.56308e-14
1.68154e-14
1.80509e-14
1.93381e-14
2.06777e-14
2.20701e-14
2.35159e-14
2.50152e-14
2.65683e-14
2.81761e-14
2.98385e-14
3.15557e-14
3.33279e-14
3.51552e-14
3.70374e-14
3.89748e-14
4.09671e-14
4.30141e-14
4.51155e-14
4.72705e-14
4.9479e-14
5.17408e-14
5.40557e-14
5.6423e-14
5.8842e-14
6.13118e-14
6.38316e-14
6.64007e-14
6.90178e-14
7.16814e-14
7.4391e-14
7.71461e-14
7.99453e-14
8.27872e-14
8.56712e-14
8.85964e-14
9.15611e-14
9.45632e-14
9.76013e-14
1.00674e-13
1.03779e-13
1.06916e-13
1.10082e-13
1.13278e-13
1.16502e-13
1.19752e-13
1.23027e-13
1.26326e-13
1.29646e-13
1.32984e-13
1.3634e-13
1.39712e-13
1.43098e-13
1.46498e-13
1.49909e-13
1.53331e-13
1.56764e-13
1.60205e-13
1.63653e-13
1.67108e-13
)
;
    }
    inandouthalf21
    {
        type            cyclic;
        value           nonuniform List<scalar> 
100
(
-1.70567e-13
-1.74032e-13
-1.775e-13
-1.80971e-13
-1.84447e-13
-1.87925e-13
-1.91408e-13
-1.94894e-13
-1.98385e-13
-2.01882e-13
-2.05384e-13
-2.08893e-13
-2.1241e-13
-2.15936e-13
-2.19473e-13
-2.23023e-13
-2.26589e-13
-2.30175e-13
-2.33785e-13
-2.37423e-13
-2.41092e-13
-2.44796e-13
-2.48531e-13
-2.5229e-13
-2.56057e-13
-2.59807e-13
-2.6351e-13
-2.67131e-13
-2.70643e-13
-2.7403e-13
-2.77304e-13
-2.80514e-13
-2.83756e-13
-2.8719e-13
-2.91038e-13
-2.95548e-13
-3.00855e-13
-3.06669e-13
-3.1198e-13
-3.15419e-13
-3.1663e-13
-3.16799e-13
-3.16861e-13
-2.97522e-12
-1.04796e-11
-2.2667e-11
-6.25874e-11
-1.48903e-08
-1.01556e-07
-1.68908e-07
-2.18418e-07
-2.57652e-07
-2.90191e-07
-3.18043e-07
-3.42428e-07
-3.64148e-07
-3.83766e-07
-4.01693e-07
-4.18233e-07
-4.33622e-07
-4.48039e-07
-4.61629e-07
-4.74503e-07
-4.86755e-07
-4.98458e-07
-5.09675e-07
-5.20456e-07
-5.30845e-07
-5.40878e-07
-5.50586e-07
-5.59997e-07
-5.69134e-07
-5.78016e-07
-5.86662e-07
-5.95087e-07
-6.03305e-07
-6.11327e-07
-6.19165e-07
-6.26828e-07
-6.34324e-07
-6.4166e-07
-6.48843e-07
-6.55879e-07
-6.62772e-07
-6.69526e-07
-6.76145e-07
-6.82631e-07
-6.88986e-07
-6.95212e-07
-7.01308e-07
-7.07277e-07
-7.13117e-07
-7.18828e-07
-7.24409e-07
-7.29859e-07
-7.35176e-07
-7.40359e-07
-7.45406e-07
-7.50316e-07
-7.55086e-07
)
;
    }
    inandouthalf22
    {
        type            cyclic;
        value           nonuniform List<scalar> 
100
(
1.70567e-13
1.74032e-13
1.775e-13
1.80971e-13
1.84447e-13
1.87925e-13
1.91408e-13
1.94894e-13
1.98385e-13
2.01882e-13
2.05384e-13
2.08893e-13
2.1241e-13
2.15936e-13
2.19473e-13
2.23023e-13
2.26589e-13
2.30175e-13
2.33785e-13
2.37423e-13
2.41092e-13
2.44796e-13
2.48531e-13
2.5229e-13
2.56057e-13
2.59807e-13
2.6351e-13
2.67131e-13
2.70643e-13
2.7403e-13
2.77304e-13
2.80514e-13
2.83756e-13
2.8719e-13
2.91038e-13
2.95548e-13
3.00855e-13
3.06669e-13
3.1198e-13
3.15419e-13
3.1663e-13
3.16799e-13
3.16861e-13
2.97522e-12
1.04796e-11
2.2667e-11
6.25874e-11
1.48903e-08
1.01556e-07
1.68908e-07
2.18418e-07
2.57652e-07
2.90191e-07
3.18043e-07
3.42428e-07
3.64148e-07
3.83766e-07
4.01693e-07
4.18233e-07
4.33622e-07
4.48039e-07
4.61629e-07
4.74503e-07
4.86755e-07
4.98458e-07
5.09675e-07
5.20456e-07
5.30845e-07
5.40878e-07
5.50586e-07
5.59997e-07
5.69134e-07
5.78016e-07
5.86662e-07
5.95087e-07
6.03305e-07
6.11327e-07
6.19165e-07
6.26828e-07
6.34324e-07
6.4166e-07
6.48843e-07
6.55879e-07
6.62772e-07
6.69526e-07
6.76145e-07
6.82631e-07
6.88986e-07
6.95212e-07
7.01308e-07
7.07277e-07
7.13117e-07
7.18828e-07
7.24409e-07
7.29859e-07
7.35176e-07
7.40359e-07
7.45406e-07
7.50316e-07
7.55086e-07
)
;
    }
    inandouthalf31
    {
        type            cyclic;
        value           nonuniform List<scalar> 
110
(
-7.59717e-07
-7.79762e-07
-8.0025e-07
-8.21184e-07
-8.42566e-07
-8.64398e-07
-8.86681e-07
-9.09415e-07
-9.32596e-07
-9.56223e-07
-9.80292e-07
-1.0048e-06
-1.02973e-06
-1.0551e-06
-1.08088e-06
-1.10708e-06
-1.13368e-06
-1.16071e-06
-1.18814e-06
-1.216e-06
-1.24428e-06
-1.27299e-06
-1.30215e-06
-1.33176e-06
-1.36183e-06
-1.39237e-06
-1.42338e-06
-1.45486e-06
-1.48683e-06
-1.51928e-06
-1.55222e-06
-1.58566e-06
-1.61958e-06
-1.65398e-06
-1.68884e-06
-1.72412e-06
-1.76017e-06
-1.93939e-06
-1.98126e-06
-2.02177e-06
-2.06255e-06
-2.1038e-06
-2.14547e-06
-2.18765e-06
-2.2303e-06
-2.27355e-06
-2.31726e-06
-2.36167e-06
-2.40644e-06
-2.45209e-06
-2.49795e-06
-2.54377e-06
-2.58693e-06
-2.63507e-06
-2.68399e-06
-2.73389e-06
-2.78461e-06
-2.83622e-06
-2.88875e-06
-2.94226e-06
-2.99679e-06
-3.0524e-06
-3.10917e-06
-3.16716e-06
-3.22646e-06
-3.28717e-06
-3.3494e-06
-3.41326e-06
-3.47889e-06
-3.54645e-06
-3.61609e-06
-3.68832e-06
-3.76297e-06
-3.83934e-06
-3.91727e-06
-3.99678e-06
-4.07791e-06
-4.16068e-06
-4.24513e-06
-4.33129e-06
-4.41921e-06
-4.5089e-06
-4.60042e-06
-4.6938e-06
-4.78907e-06
-4.88628e-06
-4.98546e-06
-5.08665e-06
-5.18989e-06
-5.29523e-06
-5.40271e-06
-5.51237e-06
-5.62426e-06
-5.73842e-06
-5.85489e-06
-5.97373e-06
-6.09498e-06
-6.21869e-06
-6.34492e-06
-6.4737e-06
-6.6051e-06
-6.73917e-06
-6.87595e-06
-7.01552e-06
-7.15791e-06
-7.3032e-06
-7.45143e-06
-7.60268e-06
-7.75699e-06
-7.91444e-06
)
;
    }
    inandouthalf32
    {
        type            cyclic;
        value           nonuniform List<scalar> 
110
(
7.59717e-07
7.79762e-07
8.0025e-07
8.21184e-07
8.42566e-07
8.64398e-07
8.86681e-07
9.09415e-07
9.32596e-07
9.56223e-07
9.80292e-07
1.0048e-06
1.02973e-06
1.0551e-06
1.08088e-06
1.10708e-06
1.13368e-06
1.16071e-06
1.18814e-06
1.216e-06
1.24428e-06
1.27299e-06
1.30215e-06
1.33176e-06
1.36183e-06
1.39237e-06
1.42338e-06
1.45486e-06
1.48683e-06
1.51928e-06
1.55222e-06
1.58566e-06
1.61958e-06
1.65398e-06
1.68884e-06
1.72412e-06
1.76017e-06
1.93939e-06
1.98126e-06
2.02177e-06
2.06255e-06
2.1038e-06
2.14547e-06
2.18765e-06
2.2303e-06
2.27355e-06
2.31726e-06
2.36167e-06
2.40644e-06
2.45209e-06
2.49795e-06
2.54377e-06
2.58693e-06
2.63507e-06
2.68399e-06
2.73389e-06
2.78461e-06
2.83622e-06
2.88875e-06
2.94226e-06
2.99679e-06
3.0524e-06
3.10917e-06
3.16716e-06
3.22646e-06
3.28717e-06
3.3494e-06
3.41326e-06
3.47889e-06
3.54645e-06
3.61609e-06
3.68832e-06
3.76297e-06
3.83934e-06
3.91727e-06
3.99678e-06
4.07791e-06
4.16068e-06
4.24513e-06
4.33129e-06
4.41921e-06
4.5089e-06
4.60042e-06
4.6938e-06
4.78907e-06
4.88628e-06
4.98546e-06
5.08665e-06
5.18989e-06
5.29523e-06
5.40271e-06
5.51237e-06
5.62426e-06
5.73842e-06
5.85489e-06
5.97373e-06
6.09498e-06
6.21869e-06
6.34492e-06
6.4737e-06
6.6051e-06
6.73917e-06
6.87595e-06
7.01552e-06
7.15791e-06
7.3032e-06
7.45143e-06
7.60268e-06
7.75699e-06
7.91444e-06
)
;
    }
    inandouthalf41
    {
        type            cyclic;
        value           nonuniform List<scalar> 
50
(
-7.08423e-06
-7.08423e-06
-7.08423e-06
-7.08423e-06
-7.08423e-06
-7.08423e-06
-7.08423e-06
-7.08423e-06
-7.08423e-06
-7.08423e-06
-7.08423e-06
-7.08423e-06
-7.08423e-06
-7.08423e-06
-7.08423e-06
-7.08423e-06
-7.08423e-06
-7.08423e-06
-7.08423e-06
-7.08423e-06
-7.08423e-06
-7.08423e-06
-7.08423e-06
-7.08423e-06
-7.08423e-06
-7.08423e-06
-7.08423e-06
-7.08423e-06
-7.08423e-06
-7.08423e-06
-7.08423e-06
-7.08423e-06
-7.08423e-06
-7.08423e-06
-7.08423e-06
-7.08423e-06
-7.08423e-06
-7.08423e-06
-7.08423e-06
-7.08423e-06
-7.08423e-06
-7.08423e-06
-7.08423e-06
-7.08423e-06
-7.08423e-06
-7.08423e-06
-7.08423e-06
-7.08424e-06
-7.0845e-06
-7.09054e-06
)
;
    }
    inandouthalf42
    {
        type            cyclic;
        value           nonuniform List<scalar> 
50
(
7.08423e-06
7.08423e-06
7.08423e-06
7.08423e-06
7.08423e-06
7.08423e-06
7.08423e-06
7.08423e-06
7.08423e-06
7.08423e-06
7.08423e-06
7.08423e-06
7.08423e-06
7.08423e-06
7.08423e-06
7.08423e-06
7.08423e-06
7.08423e-06
7.08423e-06
7.08423e-06
7.08423e-06
7.08423e-06
7.08423e-06
7.08423e-06
7.08423e-06
7.08423e-06
7.08423e-06
7.08423e-06
7.08423e-06
7.08423e-06
7.08423e-06
7.08423e-06
7.08423e-06
7.08423e-06
7.08423e-06
7.08423e-06
7.08423e-06
7.08423e-06
7.08423e-06
7.08423e-06
7.08423e-06
7.08423e-06
7.08423e-06
7.08423e-06
7.08423e-06
7.08423e-06
7.08423e-06
7.08424e-06
7.0845e-06
7.09054e-06
)
;
    }
    top
    {
        type            symmetryPlane;
        value           uniform 0;
    }
    walls
    {
        type            fixedValue;
        value           uniform 0;
    }
    frontAndBackPlanes
    {
        type            empty;
        value           nonuniform 0();
    }
}


// ************************************************************************* //
