/*--------------------------------*- C++ -*----------------------------------*\
| =========                 |                                                 |
| \\      /  F ield         | OpenFOAM: The Open Source CFD Toolbox           |
|  \\    /   O peration     | Version:  2.4.x                                 |
|   \\  /    A nd           | Web:      www.OpenFOAM.org                      |
|    \\/     M anipulation  |                                                 |
\*---------------------------------------------------------------------------*/
FoamFile
{
    version     2.0;
    format      ascii;
    class       surfaceScalarField;
    location    "10";
    object      phia_0;
}
// * * * * * * * * * * * * * * * * * * * * * * * * * * * * * * * * * * * * * //

dimensions      [0 3 -1 0 0 0 0];

internalField   nonuniform List<scalar> 
359
(
-3.45176e-14
-8.5856e-14
-1.31488e-13
-1.73459e-13
-2.15216e-13
-2.56771e-13
-2.97643e-13
-3.37859e-13
-3.77654e-13
-4.17265e-13
-4.56862e-13
-4.96558e-13
-5.3645e-13
-5.76618e-13
-6.17143e-13
-6.58099e-13
-6.99551e-13
-7.4155e-13
-7.8414e-13
-8.27368e-13
-8.71256e-13
-9.15844e-13
-9.61155e-13
-1.00721e-12
-1.05403e-12
-1.10162e-12
-1.15e-12
-1.19918e-12
-1.24915e-12
-1.29993e-12
-1.3515e-12
-1.40387e-12
-1.45703e-12
-1.51098e-12
-1.5657e-12
-1.62119e-12
-1.67742e-12
-1.73439e-12
-1.79209e-12
-1.85048e-12
-1.90957e-12
-1.96932e-12
-2.02971e-12
-2.09073e-12
-2.15234e-12
-2.21454e-12
-2.27729e-12
-2.34054e-12
-2.40429e-12
-2.46854e-12
-2.5332e-12
-2.59829e-12
-2.66376e-12
-2.72958e-12
-2.79571e-12
-2.86216e-12
-2.92884e-12
-2.99576e-12
-3.06286e-12
-3.13009e-12
-3.19746e-12
-3.26491e-12
-3.33244e-12
-3.39999e-12
-3.46753e-12
-3.53501e-12
-3.60242e-12
-3.6697e-12
-3.73683e-12
-3.80373e-12
-3.87043e-12
-3.93689e-12
-4.00304e-12
-4.06889e-12
-4.13439e-12
-4.19953e-12
-4.26425e-12
-4.32851e-12
-4.39229e-12
-4.45556e-12
-4.51827e-12
-4.58041e-12
-4.64197e-12
-4.70292e-12
-4.76325e-12
-4.82292e-12
-4.88192e-12
-4.94022e-12
-4.99778e-12
-5.05458e-12
-5.11059e-12
-5.16581e-12
-5.22021e-12
-5.27379e-12
-5.32654e-12
-5.37845e-12
-5.42951e-12
-5.47971e-12
-5.52903e-12
-5.57748e-12
-5.62503e-12
-5.6717e-12
-5.71747e-12
-5.76236e-12
-5.80635e-12
-5.84947e-12
-5.89171e-12
-5.93308e-12
-5.97359e-12
-6.01324e-12
-6.05203e-12
-6.08997e-12
-6.12706e-12
-6.16332e-12
-6.19875e-12
-6.23336e-12
-6.26717e-12
-6.3002e-12
-6.33245e-12
-6.36395e-12
-6.39469e-12
-6.42464e-12
-6.45372e-12
-6.48184e-12
-6.50882e-12
-6.53447e-12
-6.55858e-12
-6.581e-12
-6.60164e-12
-6.62056e-12
-6.63796e-12
-6.65426e-12
-6.67004e-12
-6.68606e-12
-6.70311e-12
-6.72161e-12
-6.74087e-12
-6.75852e-12
-6.77124e-12
-6.77747e-12
-6.77918e-12
-6.77882e-12
-5.97513e-11
-1.78407e-10
-2.49399e-10
-3.69876e-10
-6.85267e-10
-1.14074e-08
-1.89415e-08
-2.56392e-08
-3.22777e-08
-3.70034e-08
-4.00899e-08
-4.21422e-08
-4.35431e-08
-4.45218e-08
-4.52029e-08
-4.56532e-08
-4.5911e-08
-4.60008e-08
-4.594e-08
-4.57424e-08
-4.54204e-08
-4.49854e-08
-4.4448e-08
-4.38182e-08
-4.31053e-08
-4.2318e-08
-4.14642e-08
-4.05514e-08
-3.95863e-08
-3.8575e-08
-3.75229e-08
-3.64352e-08
-3.53161e-08
-3.41699e-08
-3.30003e-08
-3.18105e-08
-3.06039e-08
-2.93834e-08
-2.81519e-08
-2.69121e-08
-2.5667e-08
-2.44195e-08
-2.31726e-08
-2.19298e-08
-2.06946e-08
-1.94712e-08
-1.82646e-08
-1.70803e-08
-1.59251e-08
-1.48071e-08
-1.37353e-08
-1.27196e-08
-1.17683e-08
-1.08866e-08
-1.00733e-08
-9.31852e-09
-8.60336e-09
-7.90186e-09
-7.18665e-09
-6.42074e-09
-5.58887e-09
-4.68338e-09
-3.70145e-09
-2.64315e-09
-1.51053e-09
-3.07348e-10
9.60668e-10
2.28504e-09
3.6532e-09
5.04688e-09
6.44047e-09
7.80054e-09
9.08728e-09
1.0259e-08
1.1279e-08
1.21224e-08
1.27811e-08
1.32631e-08
1.35888e-08
1.3785e-08
1.38795e-08
1.38975e-08
1.38607e-08
1.37846e-08
1.36839e-08
1.35606e-08
1.34317e-08
1.3276e-08
1.31308e-08
1.29292e-08
1.27647e-08
1.24555e-08
1.23046e-08
1.13271e-08
6.60292e-09
6.27984e-09
5.46963e-09
4.59984e-09
3.83329e-09
3.19892e-09
2.58925e-09
2.39818e-09
1.83533e-09
2.21339e-09
1.53415e-09
2.42004e-09
1.4725e-09
2.47036e-09
1.69495e-09
-9.64353e-08
-1.56884e-07
-1.58217e-07
-1.58065e-07
-1.5808e-07
-1.58084e-07
-1.58088e-07
-1.58091e-07
-1.58093e-07
-1.58095e-07
-1.58095e-07
-1.58093e-07
-1.5809e-07
-1.58086e-07
-1.58079e-07
-1.5807e-07
-1.58058e-07
-1.58042e-07
-1.58022e-07
-1.57985e-07
-1.57938e-07
-1.5793e-07
-1.5793e-07
-1.5793e-07
-1.5793e-07
-1.5793e-07
-1.5793e-07
-1.5793e-07
-1.5793e-07
-1.5793e-07
-1.5793e-07
-1.5793e-07
-1.5793e-07
-1.5793e-07
-1.5793e-07
-1.5793e-07
-1.5793e-07
-1.5793e-07
-1.5793e-07
-1.5793e-07
-1.5793e-07
-1.5793e-07
-1.5793e-07
-1.5793e-07
-1.5793e-07
-1.5793e-07
-1.5793e-07
-1.5793e-07
-1.5793e-07
-1.5793e-07
-1.5793e-07
-1.5793e-07
-1.5793e-07
-1.5793e-07
-1.5793e-07
-1.5793e-07
-1.5793e-07
-1.5793e-07
-1.5793e-07
-1.5793e-07
-1.5793e-07
-1.5793e-07
-1.5793e-07
-1.5793e-07
-1.5793e-07
-1.5793e-07
-1.5793e-07
-1.5793e-07
-1.5793e-07
-1.5793e-07
-1.5793e-07
-1.5793e-07
-1.5793e-07
-1.5793e-07
-1.5793e-07
-1.5793e-07
-1.5793e-07
-1.5793e-07
-1.5793e-07
-1.5793e-07
-1.5793e-07
-1.5793e-07
-1.5793e-07
-1.5793e-07
-1.5793e-07
-1.5793e-07
-1.5793e-07
-1.5793e-07
-1.5793e-07
-1.5793e-07
-1.5793e-07
-1.5793e-07
-1.5793e-07
-1.5793e-07
-1.5793e-07
-1.5793e-07
-1.5793e-07
-1.5793e-07
-1.5793e-07
-1.5793e-07
-1.5793e-07
-1.5793e-07
-1.5793e-07
-1.5793e-07
-1.5793e-07
-1.57912e-07
-1.57203e-07
-1.32188e-07
)
;

boundaryField
{
    inandouthalf11
    {
        type            cyclic;
        value           nonuniform List<scalar> 
100
(
1.06591e-39
1.98673e-16
3.71524e-16
4.92585e-16
5.84985e-16
6.51841e-16
6.91995e-16
7.06199e-16
6.95568e-16
6.60762e-16
6.02038e-16
5.19391e-16
4.12643e-16
2.81468e-16
1.25395e-16
-5.61898e-17
-2.64015e-16
-4.9888e-16
-7.61645e-16
-1.05324e-15
-1.37461e-15
-1.72676e-15
-2.11076e-15
-2.52766e-15
-2.97855e-15
-3.46452e-15
-3.98663e-15
-4.54602e-15
-5.1438e-15
-5.78102e-15
-6.45873e-15
-7.178e-15
-7.93983e-15
-8.74525e-15
-9.59529e-15
-1.04908e-14
-1.14327e-14
-1.24218e-14
-1.34592e-14
-1.45455e-14
-1.56815e-14
-1.6868e-14
-1.81054e-14
-1.93946e-14
-2.07362e-14
-2.21306e-14
-2.35785e-14
-2.50799e-14
-2.66351e-14
-2.8245e-14
-2.99097e-14
-3.16291e-14
-3.34035e-14
-3.5233e-14
-3.71176e-14
-3.90572e-14
-4.10519e-14
-4.31013e-14
-4.5205e-14
-4.73624e-14
-4.95733e-14
-5.18377e-14
-5.4155e-14
-5.65248e-14
-5.89463e-14
-6.14185e-14
-6.39409e-14
-6.65125e-14
-6.91322e-14
-7.17983e-14
-7.45104e-14
-7.72681e-14
-8.00698e-14
-8.29142e-14
-8.58007e-14
-8.87285e-14
-9.16957e-14
-9.47004e-14
-9.77409e-14
-1.00816e-13
-1.03924e-13
-1.07063e-13
-1.10232e-13
-1.1343e-13
-1.16656e-13
-1.19909e-13
-1.23187e-13
-1.26488e-13
-1.2981e-13
-1.33151e-13
-1.36509e-13
-1.39883e-13
-1.43271e-13
-1.46673e-13
-1.50086e-13
-1.53511e-13
-1.56945e-13
-1.60388e-13
-1.63839e-13
-1.67296e-13
)
;
    }
    inandouthalf12
    {
        type            cyclic;
        value           nonuniform List<scalar> 
100
(
-1.06591e-39
-1.98673e-16
-3.71524e-16
-4.92585e-16
-5.84985e-16
-6.51841e-16
-6.91995e-16
-7.06199e-16
-6.95568e-16
-6.60762e-16
-6.02038e-16
-5.19391e-16
-4.12643e-16
-2.81468e-16
-1.25395e-16
5.61898e-17
2.64015e-16
4.9888e-16
7.61645e-16
1.05324e-15
1.37461e-15
1.72676e-15
2.11076e-15
2.52766e-15
2.97855e-15
3.46452e-15
3.98663e-15
4.54602e-15
5.1438e-15
5.78102e-15
6.45873e-15
7.178e-15
7.93983e-15
8.74525e-15
9.59529e-15
1.04908e-14
1.14327e-14
1.24218e-14
1.34592e-14
1.45455e-14
1.56815e-14
1.6868e-14
1.81054e-14
1.93946e-14
2.07362e-14
2.21306e-14
2.35785e-14
2.50799e-14
2.66351e-14
2.8245e-14
2.99097e-14
3.16291e-14
3.34035e-14
3.5233e-14
3.71176e-14
3.90572e-14
4.10519e-14
4.31013e-14
4.5205e-14
4.73624e-14
4.95733e-14
5.18377e-14
5.4155e-14
5.65248e-14
5.89463e-14
6.14185e-14
6.39409e-14
6.65125e-14
6.91322e-14
7.17983e-14
7.45104e-14
7.72681e-14
8.00698e-14
8.29142e-14
8.58007e-14
8.87285e-14
9.16957e-14
9.47004e-14
9.77409e-14
1.00816e-13
1.03924e-13
1.07063e-13
1.10232e-13
1.1343e-13
1.16656e-13
1.19909e-13
1.23187e-13
1.26488e-13
1.2981e-13
1.33151e-13
1.36509e-13
1.39883e-13
1.43271e-13
1.46673e-13
1.50086e-13
1.53511e-13
1.56945e-13
1.60388e-13
1.63839e-13
1.67296e-13
)
;
    }
    inandouthalf21
    {
        type            cyclic;
        value           nonuniform List<scalar> 
100
(
-1.70757e-13
-1.74224e-13
-1.77694e-13
-1.81167e-13
-1.84644e-13
-1.88125e-13
-1.91609e-13
-1.95097e-13
-1.9859e-13
-2.02088e-13
-2.05592e-13
-2.09103e-13
-2.12622e-13
-2.16149e-13
-2.19688e-13
-2.2324e-13
-2.26807e-13
-2.30394e-13
-2.34006e-13
-2.37645e-13
-2.41316e-13
-2.45021e-13
-2.48757e-13
-2.52517e-13
-2.56285e-13
-2.60036e-13
-2.6374e-13
-2.67363e-13
-2.70875e-13
-2.74264e-13
-2.77539e-13
-2.80749e-13
-2.83992e-13
-2.87427e-13
-2.91275e-13
-2.95786e-13
-3.01093e-13
-3.06908e-13
-3.12219e-13
-3.15659e-13
-3.1687e-13
-3.17038e-13
-3.17101e-13
-3.0109e-12
-1.06598e-11
-2.31847e-11
-6.45538e-11
-1.50748e-08
-1.01789e-07
-1.6908e-07
-2.18566e-07
-2.57797e-07
-2.90341e-07
-3.18202e-07
-3.42595e-07
-3.64323e-07
-3.83947e-07
-4.01879e-07
-4.18425e-07
-4.33818e-07
-4.4824e-07
-4.61833e-07
-4.74711e-07
-4.86965e-07
-4.98671e-07
-5.0989e-07
-5.20674e-07
-5.31065e-07
-5.411e-07
-5.50811e-07
-5.60224e-07
-5.69362e-07
-5.78246e-07
-5.86894e-07
-5.9532e-07
-6.03539e-07
-6.11563e-07
-6.19402e-07
-6.27066e-07
-6.34563e-07
-6.41901e-07
-6.49085e-07
-6.56122e-07
-6.63016e-07
-6.69771e-07
-6.76391e-07
-6.82877e-07
-6.89233e-07
-6.95459e-07
-7.01557e-07
-7.07526e-07
-7.13367e-07
-7.19078e-07
-7.2466e-07
-7.3011e-07
-7.35428e-07
-7.40611e-07
-7.45659e-07
-7.50569e-07
-7.55339e-07
)
;
    }
    inandouthalf22
    {
        type            cyclic;
        value           nonuniform List<scalar> 
100
(
1.70757e-13
1.74224e-13
1.77694e-13
1.81167e-13
1.84644e-13
1.88125e-13
1.91609e-13
1.95097e-13
1.9859e-13
2.02088e-13
2.05592e-13
2.09103e-13
2.12622e-13
2.16149e-13
2.19688e-13
2.2324e-13
2.26807e-13
2.30394e-13
2.34006e-13
2.37645e-13
2.41316e-13
2.45021e-13
2.48757e-13
2.52517e-13
2.56285e-13
2.60036e-13
2.6374e-13
2.67363e-13
2.70875e-13
2.74264e-13
2.77539e-13
2.80749e-13
2.83992e-13
2.87427e-13
2.91275e-13
2.95786e-13
3.01093e-13
3.06908e-13
3.12219e-13
3.15659e-13
3.1687e-13
3.17038e-13
3.17101e-13
3.0109e-12
1.06598e-11
2.31847e-11
6.45538e-11
1.50748e-08
1.01789e-07
1.6908e-07
2.18566e-07
2.57797e-07
2.90341e-07
3.18202e-07
3.42595e-07
3.64323e-07
3.83947e-07
4.01879e-07
4.18425e-07
4.33818e-07
4.4824e-07
4.61833e-07
4.74711e-07
4.86965e-07
4.98671e-07
5.0989e-07
5.20674e-07
5.31065e-07
5.411e-07
5.50811e-07
5.60224e-07
5.69362e-07
5.78246e-07
5.86894e-07
5.9532e-07
6.03539e-07
6.11563e-07
6.19402e-07
6.27066e-07
6.34563e-07
6.41901e-07
6.49085e-07
6.56122e-07
6.63016e-07
6.69771e-07
6.76391e-07
6.82877e-07
6.89233e-07
6.95459e-07
7.01557e-07
7.07526e-07
7.13367e-07
7.19078e-07
7.2466e-07
7.3011e-07
7.35428e-07
7.40611e-07
7.45659e-07
7.50569e-07
7.55339e-07
)
;
    }
    inandouthalf31
    {
        type            cyclic;
        value           nonuniform List<scalar> 
110
(
-7.59971e-07
-7.80022e-07
-8.00515e-07
-8.21455e-07
-8.42843e-07
-8.64681e-07
-8.8697e-07
-9.09709e-07
-9.32897e-07
-9.5653e-07
-9.80606e-07
-1.00512e-06
-1.03006e-06
-1.05543e-06
-1.08122e-06
-1.10742e-06
-1.13404e-06
-1.16107e-06
-1.18851e-06
-1.21637e-06
-1.24466e-06
-1.27338e-06
-1.30255e-06
-1.33217e-06
-1.36225e-06
-1.39279e-06
-1.42381e-06
-1.4553e-06
-1.48727e-06
-1.51974e-06
-1.55269e-06
-1.58613e-06
-1.62006e-06
-1.65448e-06
-1.68934e-06
-1.72463e-06
-1.7607e-06
-1.93991e-06
-1.98178e-06
-2.0223e-06
-2.0631e-06
-2.10435e-06
-2.14603e-06
-2.18822e-06
-2.23088e-06
-2.27415e-06
-2.31786e-06
-2.36229e-06
-2.40707e-06
-2.45273e-06
-2.4986e-06
-2.54443e-06
-2.5876e-06
-2.63576e-06
-2.68469e-06
-2.73461e-06
-2.78535e-06
-2.83697e-06
-2.88952e-06
-2.94304e-06
-2.99758e-06
-3.05321e-06
-3.10999e-06
-3.168e-06
-3.22732e-06
-3.28805e-06
-3.35029e-06
-3.41418e-06
-3.47983e-06
-3.5474e-06
-3.61706e-06
-3.68931e-06
-3.76399e-06
-3.84038e-06
-3.91833e-06
-3.99786e-06
-4.07901e-06
-4.1618e-06
-4.24627e-06
-4.33246e-06
-4.4204e-06
-4.51012e-06
-4.60167e-06
-4.69507e-06
-4.79037e-06
-4.8876e-06
-4.9868e-06
-5.08802e-06
-5.19129e-06
-5.29666e-06
-5.40417e-06
-5.51386e-06
-5.62578e-06
-5.73997e-06
-5.85647e-06
-5.97534e-06
-6.09663e-06
-6.22037e-06
-6.34663e-06
-6.47545e-06
-6.60688e-06
-6.74099e-06
-6.87781e-06
-7.01741e-06
-7.15985e-06
-7.30517e-06
-7.45345e-06
-7.60473e-06
-7.75909e-06
-7.91658e-06
)
;
    }
    inandouthalf32
    {
        type            cyclic;
        value           nonuniform List<scalar> 
110
(
7.59971e-07
7.80022e-07
8.00515e-07
8.21455e-07
8.42843e-07
8.64681e-07
8.8697e-07
9.09709e-07
9.32897e-07
9.5653e-07
9.80606e-07
1.00512e-06
1.03006e-06
1.05543e-06
1.08122e-06
1.10742e-06
1.13404e-06
1.16107e-06
1.18851e-06
1.21637e-06
1.24466e-06
1.27338e-06
1.30255e-06
1.33217e-06
1.36225e-06
1.39279e-06
1.42381e-06
1.4553e-06
1.48727e-06
1.51974e-06
1.55269e-06
1.58613e-06
1.62006e-06
1.65448e-06
1.68934e-06
1.72463e-06
1.7607e-06
1.93991e-06
1.98178e-06
2.0223e-06
2.0631e-06
2.10435e-06
2.14603e-06
2.18822e-06
2.23088e-06
2.27415e-06
2.31786e-06
2.36229e-06
2.40707e-06
2.45273e-06
2.4986e-06
2.54443e-06
2.5876e-06
2.63576e-06
2.68469e-06
2.73461e-06
2.78535e-06
2.83697e-06
2.88952e-06
2.94304e-06
2.99758e-06
3.05321e-06
3.10999e-06
3.168e-06
3.22732e-06
3.28805e-06
3.35029e-06
3.41418e-06
3.47983e-06
3.5474e-06
3.61706e-06
3.68931e-06
3.76399e-06
3.84038e-06
3.91833e-06
3.99786e-06
4.07901e-06
4.1618e-06
4.24627e-06
4.33246e-06
4.4204e-06
4.51012e-06
4.60167e-06
4.69507e-06
4.79037e-06
4.8876e-06
4.9868e-06
5.08802e-06
5.19129e-06
5.29666e-06
5.40417e-06
5.51386e-06
5.62578e-06
5.73997e-06
5.85647e-06
5.97534e-06
6.09663e-06
6.22037e-06
6.34663e-06
6.47545e-06
6.60688e-06
6.74099e-06
6.87781e-06
7.01741e-06
7.15985e-06
7.30517e-06
7.45345e-06
7.60473e-06
7.75909e-06
7.91658e-06
)
;
    }
    inandouthalf41
    {
        type            cyclic;
        value           nonuniform List<scalar> 
50
(
-7.08614e-06
-7.08614e-06
-7.08614e-06
-7.08614e-06
-7.08614e-06
-7.08614e-06
-7.08614e-06
-7.08614e-06
-7.08614e-06
-7.08614e-06
-7.08614e-06
-7.08614e-06
-7.08614e-06
-7.08614e-06
-7.08614e-06
-7.08614e-06
-7.08614e-06
-7.08614e-06
-7.08614e-06
-7.08614e-06
-7.08614e-06
-7.08614e-06
-7.08614e-06
-7.08614e-06
-7.08614e-06
-7.08614e-06
-7.08614e-06
-7.08614e-06
-7.08614e-06
-7.08614e-06
-7.08614e-06
-7.08614e-06
-7.08614e-06
-7.08614e-06
-7.08614e-06
-7.08614e-06
-7.08614e-06
-7.08614e-06
-7.08614e-06
-7.08614e-06
-7.08614e-06
-7.08614e-06
-7.08614e-06
-7.08614e-06
-7.08614e-06
-7.08614e-06
-7.08614e-06
-7.08615e-06
-7.08641e-06
-7.09246e-06
)
;
    }
    inandouthalf42
    {
        type            cyclic;
        value           nonuniform List<scalar> 
50
(
7.08614e-06
7.08614e-06
7.08614e-06
7.08614e-06
7.08614e-06
7.08614e-06
7.08614e-06
7.08614e-06
7.08614e-06
7.08614e-06
7.08614e-06
7.08614e-06
7.08614e-06
7.08614e-06
7.08614e-06
7.08614e-06
7.08614e-06
7.08614e-06
7.08614e-06
7.08614e-06
7.08614e-06
7.08614e-06
7.08614e-06
7.08614e-06
7.08614e-06
7.08614e-06
7.08614e-06
7.08614e-06
7.08614e-06
7.08614e-06
7.08614e-06
7.08614e-06
7.08614e-06
7.08614e-06
7.08614e-06
7.08614e-06
7.08614e-06
7.08614e-06
7.08614e-06
7.08614e-06
7.08614e-06
7.08614e-06
7.08614e-06
7.08614e-06
7.08614e-06
7.08614e-06
7.08614e-06
7.08615e-06
7.08641e-06
7.09246e-06
)
;
    }
    top
    {
        type            symmetryPlane;
        value           uniform 0;
    }
    walls
    {
        type            fixedValue;
        value           uniform 0;
    }
    frontAndBackPlanes
    {
        type            empty;
        value           nonuniform 0();
    }
}


// ************************************************************************* //
