/*--------------------------------*- C++ -*----------------------------------*\
| =========                 |                                                 |
| \\      /  F ield         | OpenFOAM: The Open Source CFD Toolbox           |
|  \\    /   O peration     | Version:  2.4.x                                 |
|   \\  /    A nd           | Web:      www.OpenFOAM.org                      |
|    \\/     M anipulation  |                                                 |
\*---------------------------------------------------------------------------*/
FoamFile
{
    version     2.0;
    format      ascii;
    class       surfaceScalarField;
    location    "10";
    object      phib_0;
}
// * * * * * * * * * * * * * * * * * * * * * * * * * * * * * * * * * * * * * //

dimensions      [0 3 -1 0 0 0 0];

internalField   nonuniform List<scalar> 
359
(
5.42884e-14
1.35303e-13
2.07217e-13
2.73284e-13
3.39034e-13
4.04471e-13
4.68814e-13
5.32109e-13
5.94727e-13
6.57043e-13
7.19325e-13
7.81751e-13
8.44472e-13
9.07615e-13
9.71306e-13
1.03566e-12
1.10078e-12
1.16675e-12
1.23363e-12
1.30151e-12
1.3704e-12
1.44038e-12
1.51148e-12
1.58373e-12
1.65716e-12
1.7318e-12
1.80765e-12
1.88473e-12
1.96305e-12
2.0426e-12
2.12339e-12
2.20542e-12
2.28864e-12
2.3731e-12
2.45874e-12
2.54556e-12
2.63352e-12
2.72262e-12
2.81284e-12
2.90411e-12
2.99645e-12
3.0898e-12
3.18411e-12
3.27939e-12
3.37557e-12
3.47263e-12
3.57053e-12
3.66919e-12
3.76858e-12
3.86872e-12
3.96948e-12
4.07087e-12
4.1728e-12
4.27527e-12
4.37817e-12
4.48152e-12
4.58521e-12
4.68922e-12
4.79348e-12
4.89789e-12
5.00248e-12
5.10714e-12
5.21188e-12
5.31661e-12
5.42127e-12
5.52579e-12
5.63015e-12
5.73426e-12
5.83807e-12
5.94149e-12
6.04452e-12
6.14713e-12
6.24919e-12
6.35072e-12
6.45165e-12
6.55197e-12
6.65156e-12
6.75039e-12
6.84839e-12
6.94552e-12
7.04173e-12
7.13698e-12
7.23125e-12
7.32451e-12
7.41671e-12
7.50784e-12
7.59783e-12
7.68666e-12
7.77426e-12
7.8606e-12
7.94564e-12
8.02935e-12
8.11172e-12
8.19272e-12
8.27234e-12
8.35056e-12
8.42738e-12
8.50276e-12
8.57668e-12
8.64915e-12
8.72013e-12
8.78962e-12
8.85763e-12
8.92414e-12
8.98917e-12
9.05272e-12
9.11479e-12
9.17539e-12
9.23452e-12
9.29219e-12
9.34841e-12
9.40317e-12
9.45647e-12
9.50834e-12
9.55877e-12
9.60777e-12
9.65537e-12
9.70159e-12
9.74644e-12
9.78993e-12
9.83205e-12
9.87275e-12
9.9119e-12
9.94933e-12
9.98478e-12
1.00179e-11
1.00485e-11
1.00761e-11
1.01007e-11
1.01223e-11
1.01414e-11
1.01583e-11
1.0174e-11
1.01896e-11
1.02062e-11
1.02244e-11
1.02432e-11
1.02586e-11
1.0265e-11
1.026e-11
1.02467e-11
1.01476e-11
8.85366e-11
2.63814e-10
3.67716e-10
5.42293e-10
6.84768e-10
5.70523e-09
5.68378e-09
5.63351e-09
5.44817e-09
4.95425e-09
4.36491e-09
3.80113e-09
3.30258e-09
2.87545e-09
2.51302e-09
2.20533e-09
1.94284e-09
1.71744e-09
1.5226e-09
1.35307e-09
1.20472e-09
1.07425e-09
9.58991e-10
8.56805e-10
7.65922e-10
6.84882e-10
6.12463e-10
5.47632e-10
4.89511e-10
4.37343e-10
3.90477e-10
3.48346e-10
3.10454e-10
2.76364e-10
2.45693e-10
2.18101e-10
1.93285e-10
1.70976e-10
1.50934e-10
1.32944e-10
1.16813e-10
1.02367e-10
8.945e-11
7.79213e-11
6.76536e-11
5.85318e-11
5.04519e-11
4.33198e-11
3.70508e-11
3.15678e-11
2.68007e-11
2.26841e-11
1.91548e-11
1.6149e-11
1.36001e-11
1.1439e-11
9.5966e-12
8.0082e-12
6.61966e-12
5.36845e-12
4.23701e-12
3.21576e-12
2.29909e-12
1.48308e-12
7.64424e-13
1.40016e-13
-3.93054e-13
-8.37301e-13
-1.19455e-12
-1.46576e-12
-1.6513e-12
-1.75205e-12
-1.77134e-12
-1.71721e-12
-1.60364e-12
-1.44946e-12
-1.27508e-12
-1.09845e-12
-9.32326e-13
-7.83744e-13
-6.55121e-13
-5.4592e-13
-4.54139e-13
-3.7733e-13
-3.12972e-13
-2.59091e-13
-2.13702e-13
-1.75631e-13
-1.43497e-13
-1.16609e-13
-9.39696e-14
-7.51408e-14
-5.95138e-14
-4.89937e-14
-2.66345e-14
-1.8356e-14
-1.08509e-14
-6.26997e-15
-3.55604e-15
-2.01874e-15
-1.10261e-15
-6.85586e-16
-3.4653e-16
-2.73318e-16
-1.19793e-16
-1.16898e-16
-4.0669e-17
-3.58273e-17
-9.56202e-18
3.96689e-17
1.70239e-18
1.67204e-18
1.6333e-18
1.59431e-18
1.55121e-18
1.50865e-18
1.46682e-18
1.42726e-18
1.39756e-18
1.37919e-18
1.3859e-18
1.41775e-18
1.48252e-18
1.57433e-18
1.69151e-18
1.82242e-18
1.96088e-18
2.09935e-18
2.23786e-18
2.37919e-18
2.52452e-18
2.65519e-18
2.76432e-18
2.83362e-18
2.89257e-18
2.90685e-18
2.91695e-18
2.944e-18
3.01982e-18
3.10264e-18
3.18104e-18
3.1718e-18
3.18264e-18
3.0692e-18
2.98353e-18
2.76113e-18
2.62041e-18
2.41039e-18
2.18228e-18
1.8255e-18
1.49836e-18
1.10475e-18
7.32042e-19
5.7965e-19
1.71611e-19
1.81371e-19
2.36e-19
3.97133e-19
4.77315e-19
5.2301e-19
5.70226e-19
5.86551e-19
6.5296e-19
7.01232e-19
7.52303e-19
7.57677e-19
7.99094e-19
7.95249e-19
7.96503e-19
7.86055e-19
8.34332e-19
8.68388e-19
9.05388e-19
8.99001e-19
9.30588e-19
9.01555e-19
8.77508e-19
8.36948e-19
8.74888e-19
8.47843e-19
8.21682e-19
7.12332e-19
6.23887e-19
5.46742e-19
6.33319e-19
2.46553e-18
3.18657e-18
5.57846e-18
8.12547e-18
1.04833e-17
1.31055e-17
1.51973e-17
1.73283e-17
1.89938e-17
2.18473e-17
2.38801e-17
2.59171e-17
2.6574e-17
2.84477e-17
2.84747e-17
2.87944e-17
2.90417e-17
3.26521e-17
3.53924e-17
3.83224e-17
3.77793e-17
3.98331e-17
3.78686e-17
3.59472e-17
3.15118e-17
3.1367e-17
2.84887e-17
2.5565e-17
1.87027e-17
1.3248e-17
6.06412e-18
-4.30545e-19
)
;

boundaryField
{
    inandouthalf11
    {
        type            cyclic;
        value           nonuniform List<scalar> 
100
(
2.54602e-10
2.53192e-10
2.52999e-10
2.53189e-10
2.53279e-10
2.53307e-10
2.53343e-10
2.5339e-10
2.53437e-10
2.53486e-10
2.53534e-10
2.53583e-10
2.53632e-10
2.53681e-10
2.53731e-10
2.53782e-10
2.53833e-10
2.53884e-10
2.53936e-10
2.53989e-10
2.54042e-10
2.54095e-10
2.5415e-10
2.54204e-10
2.5426e-10
2.54316e-10
2.54372e-10
2.54429e-10
2.54487e-10
2.54545e-10
2.54604e-10
2.54664e-10
2.54724e-10
2.54785e-10
2.54846e-10
2.54908e-10
2.54971e-10
2.55034e-10
2.55099e-10
2.55163e-10
2.55229e-10
2.55295e-10
2.55361e-10
2.55429e-10
2.55498e-10
2.55567e-10
2.55637e-10
2.55707e-10
2.55779e-10
2.55852e-10
2.55924e-10
2.55999e-10
2.56073e-10
2.56149e-10
2.56226e-10
2.56304e-10
2.56382e-10
2.56462e-10
2.56542e-10
2.56623e-10
2.56707e-10
2.5679e-10
2.56875e-10
2.56961e-10
2.57048e-10
2.57136e-10
2.57225e-10
2.57316e-10
2.57408e-10
2.575e-10
2.57595e-10
2.57691e-10
2.57788e-10
2.57887e-10
2.57987e-10
2.58089e-10
2.58192e-10
2.58296e-10
2.58403e-10
2.58511e-10
2.58621e-10
2.58733e-10
2.58846e-10
2.58962e-10
2.59079e-10
2.59199e-10
2.59321e-10
2.59445e-10
2.59571e-10
2.59699e-10
2.5983e-10
2.59963e-10
2.60099e-10
2.60238e-10
2.60379e-10
2.60524e-10
2.60671e-10
2.60821e-10
2.60975e-10
2.61132e-10
)
;
    }
    inandouthalf12
    {
        type            cyclic;
        value           nonuniform List<scalar> 
100
(
-2.54602e-10
-2.53192e-10
-2.52999e-10
-2.53189e-10
-2.53279e-10
-2.53307e-10
-2.53343e-10
-2.5339e-10
-2.53437e-10
-2.53486e-10
-2.53534e-10
-2.53583e-10
-2.53632e-10
-2.53681e-10
-2.53731e-10
-2.53782e-10
-2.53833e-10
-2.53884e-10
-2.53936e-10
-2.53989e-10
-2.54042e-10
-2.54095e-10
-2.5415e-10
-2.54204e-10
-2.5426e-10
-2.54316e-10
-2.54372e-10
-2.54429e-10
-2.54487e-10
-2.54545e-10
-2.54604e-10
-2.54664e-10
-2.54724e-10
-2.54785e-10
-2.54846e-10
-2.54908e-10
-2.54971e-10
-2.55034e-10
-2.55099e-10
-2.55163e-10
-2.55229e-10
-2.55295e-10
-2.55361e-10
-2.55429e-10
-2.55498e-10
-2.55567e-10
-2.55637e-10
-2.55707e-10
-2.55779e-10
-2.55852e-10
-2.55924e-10
-2.55999e-10
-2.56073e-10
-2.56149e-10
-2.56226e-10
-2.56304e-10
-2.56382e-10
-2.56462e-10
-2.56542e-10
-2.56623e-10
-2.56707e-10
-2.5679e-10
-2.56875e-10
-2.56961e-10
-2.57048e-10
-2.57136e-10
-2.57225e-10
-2.57316e-10
-2.57408e-10
-2.575e-10
-2.57595e-10
-2.57691e-10
-2.57788e-10
-2.57887e-10
-2.57987e-10
-2.58089e-10
-2.58192e-10
-2.58296e-10
-2.58403e-10
-2.58511e-10
-2.58621e-10
-2.58733e-10
-2.58846e-10
-2.58962e-10
-2.59079e-10
-2.59199e-10
-2.59321e-10
-2.59445e-10
-2.59571e-10
-2.59699e-10
-2.5983e-10
-2.59963e-10
-2.60099e-10
-2.60238e-10
-2.60379e-10
-2.60524e-10
-2.60671e-10
-2.60821e-10
-2.60975e-10
-2.61132e-10
)
;
    }
    inandouthalf21
    {
        type            cyclic;
        value           nonuniform List<scalar> 
100
(
2.61292e-10
2.61456e-10
2.61624e-10
2.61795e-10
2.61971e-10
2.62151e-10
2.62335e-10
2.62524e-10
2.62718e-10
2.62916e-10
2.6312e-10
2.63329e-10
2.63544e-10
2.63764e-10
2.63991e-10
2.64224e-10
2.64464e-10
2.64711e-10
2.64966e-10
2.65228e-10
2.65499e-10
2.65778e-10
2.66067e-10
2.66366e-10
2.66675e-10
2.66995e-10
2.67328e-10
2.67673e-10
2.68033e-10
2.68409e-10
2.688e-10
2.69209e-10
2.69636e-10
2.70087e-10
2.70567e-10
2.71075e-10
2.7161e-10
2.72181e-10
2.72815e-10
2.73546e-10
2.74342e-10
2.7526e-10
2.85145e-10
2.83962e-10
2.7688e-10
2.66337e-10
1.86805e-10
-1.72978e-08
-1.06152e-07
-1.70227e-07
-2.17519e-07
-2.55354e-07
-2.8701e-07
-3.14272e-07
-3.38239e-07
-3.59649e-07
-3.7903e-07
-3.96769e-07
-4.1316e-07
-4.28427e-07
-4.42745e-07
-4.56253e-07
-4.69062e-07
-4.81259e-07
-4.9292e-07
-5.04103e-07
-5.1486e-07
-5.25233e-07
-5.35257e-07
-5.44964e-07
-5.5438e-07
-5.63528e-07
-5.72428e-07
-5.81098e-07
-5.89553e-07
-5.97807e-07
-6.05873e-07
-6.1376e-07
-6.21479e-07
-6.2904e-07
-6.36449e-07
-6.43714e-07
-6.50841e-07
-6.57837e-07
-6.64707e-07
-6.71455e-07
-6.78086e-07
-6.84605e-07
-6.91015e-07
-6.97318e-07
-7.0352e-07
-7.09621e-07
-7.15626e-07
-7.21535e-07
-7.27352e-07
-7.33078e-07
-7.38715e-07
-7.44264e-07
-7.49727e-07
-7.55106e-07
)
;
    }
    inandouthalf22
    {
        type            cyclic;
        value           nonuniform List<scalar> 
100
(
-2.61292e-10
-2.61456e-10
-2.61624e-10
-2.61795e-10
-2.61971e-10
-2.62151e-10
-2.62335e-10
-2.62524e-10
-2.62718e-10
-2.62916e-10
-2.6312e-10
-2.63329e-10
-2.63544e-10
-2.63764e-10
-2.63991e-10
-2.64224e-10
-2.64464e-10
-2.64711e-10
-2.64966e-10
-2.65228e-10
-2.65499e-10
-2.65778e-10
-2.66067e-10
-2.66366e-10
-2.66675e-10
-2.66995e-10
-2.67328e-10
-2.67673e-10
-2.68033e-10
-2.68409e-10
-2.688e-10
-2.69209e-10
-2.69636e-10
-2.70087e-10
-2.70567e-10
-2.71075e-10
-2.7161e-10
-2.72181e-10
-2.72815e-10
-2.73546e-10
-2.74342e-10
-2.7526e-10
-2.85145e-10
-2.83962e-10
-2.7688e-10
-2.66337e-10
-1.86805e-10
1.72978e-08
1.06152e-07
1.70227e-07
2.17519e-07
2.55354e-07
2.8701e-07
3.14272e-07
3.38239e-07
3.59649e-07
3.7903e-07
3.96769e-07
4.1316e-07
4.28427e-07
4.42745e-07
4.56253e-07
4.69062e-07
4.81259e-07
4.9292e-07
5.04103e-07
5.1486e-07
5.25233e-07
5.35257e-07
5.44964e-07
5.5438e-07
5.63528e-07
5.72428e-07
5.81098e-07
5.89553e-07
5.97807e-07
6.05873e-07
6.1376e-07
6.21479e-07
6.2904e-07
6.36449e-07
6.43714e-07
6.50841e-07
6.57837e-07
6.64707e-07
6.71455e-07
6.78086e-07
6.84605e-07
6.91015e-07
6.97318e-07
7.0352e-07
7.09621e-07
7.15626e-07
7.21535e-07
7.27352e-07
7.33078e-07
7.38715e-07
7.44264e-07
7.49727e-07
7.55106e-07
)
;
    }
    inandouthalf31
    {
        type            cyclic;
        value           nonuniform List<scalar> 
110
(
-7.60403e-07
-7.81209e-07
-8.02568e-07
-8.24493e-07
-8.46997e-07
-8.70091e-07
-8.93788e-07
-9.18099e-07
-9.43036e-07
-9.68609e-07
-9.94829e-07
-1.02171e-06
-1.04925e-06
-1.07746e-06
-1.10635e-06
-1.13592e-06
-1.16618e-06
-1.19712e-06
-1.22873e-06
-1.26102e-06
-1.29398e-06
-1.32758e-06
-1.36181e-06
-1.39664e-06
-1.43205e-06
-1.468e-06
-1.50445e-06
-1.54135e-06
-1.57866e-06
-1.61633e-06
-1.6543e-06
-1.69254e-06
-1.73102e-06
-1.7697e-06
-1.80858e-06
-1.84767e-06
-1.88698e-06
-1.92655e-06
-1.9664e-06
-2.00659e-06
-2.04715e-06
-2.08812e-06
-2.12953e-06
-2.17142e-06
-2.21382e-06
-2.25676e-06
-2.30025e-06
-2.34433e-06
-2.38901e-06
-2.43433e-06
-2.4803e-06
-2.52695e-06
-2.57431e-06
-2.62239e-06
-2.67124e-06
-2.72089e-06
-2.77136e-06
-2.82271e-06
-2.87496e-06
-2.92817e-06
-2.9824e-06
-3.03769e-06
-3.09412e-06
-3.15176e-06
-3.2107e-06
-3.27102e-06
-3.33284e-06
-3.39627e-06
-3.46145e-06
-3.52853e-06
-3.59768e-06
-3.66928e-06
-3.74348e-06
-3.81946e-06
-3.89698e-06
-3.97608e-06
-4.05678e-06
-4.13913e-06
-4.22314e-06
-4.30886e-06
-4.39632e-06
-4.48555e-06
-4.57659e-06
-4.66949e-06
-4.76427e-06
-4.86097e-06
-4.95963e-06
-5.0603e-06
-5.16301e-06
-5.26781e-06
-5.37473e-06
-5.48382e-06
-5.59513e-06
-5.70869e-06
-5.82456e-06
-5.94279e-06
-6.06341e-06
-6.18648e-06
-6.31205e-06
-6.44017e-06
-6.57089e-06
-6.70426e-06
-6.84034e-06
-6.97918e-06
-7.12084e-06
-7.26537e-06
-7.41284e-06
-7.5633e-06
-7.71681e-06
-7.87344e-06
)
;
    }
    inandouthalf32
    {
        type            cyclic;
        value           nonuniform List<scalar> 
110
(
7.60403e-07
7.81209e-07
8.02568e-07
8.24493e-07
8.46997e-07
8.70091e-07
8.93788e-07
9.18099e-07
9.43036e-07
9.68609e-07
9.94829e-07
1.02171e-06
1.04925e-06
1.07746e-06
1.10635e-06
1.13592e-06
1.16618e-06
1.19712e-06
1.22873e-06
1.26102e-06
1.29398e-06
1.32758e-06
1.36181e-06
1.39664e-06
1.43205e-06
1.468e-06
1.50445e-06
1.54135e-06
1.57866e-06
1.61633e-06
1.6543e-06
1.69254e-06
1.73102e-06
1.7697e-06
1.80858e-06
1.84767e-06
1.88698e-06
1.92655e-06
1.9664e-06
2.00659e-06
2.04715e-06
2.08812e-06
2.12953e-06
2.17142e-06
2.21382e-06
2.25676e-06
2.30025e-06
2.34433e-06
2.38901e-06
2.43433e-06
2.4803e-06
2.52695e-06
2.57431e-06
2.62239e-06
2.67124e-06
2.72089e-06
2.77136e-06
2.82271e-06
2.87496e-06
2.92817e-06
2.9824e-06
3.03769e-06
3.09412e-06
3.15176e-06
3.2107e-06
3.27102e-06
3.33284e-06
3.39627e-06
3.46145e-06
3.52853e-06
3.59768e-06
3.66928e-06
3.74348e-06
3.81946e-06
3.89698e-06
3.97608e-06
4.05678e-06
4.13913e-06
4.22314e-06
4.30886e-06
4.39632e-06
4.48555e-06
4.57659e-06
4.66949e-06
4.76427e-06
4.86097e-06
4.95963e-06
5.0603e-06
5.16301e-06
5.26781e-06
5.37473e-06
5.48382e-06
5.59513e-06
5.70869e-06
5.82456e-06
5.94279e-06
6.06341e-06
6.18648e-06
6.31205e-06
6.44017e-06
6.57089e-06
6.70426e-06
6.84034e-06
6.97918e-06
7.12084e-06
7.26537e-06
7.41284e-06
7.5633e-06
7.71681e-06
7.87344e-06
)
;
    }
    inandouthalf41
    {
        type            cyclic;
        value           nonuniform List<scalar> 
50
(
-7.04754e-06
-7.04754e-06
-7.04754e-06
-7.04754e-06
-7.04754e-06
-7.04754e-06
-7.04754e-06
-7.04754e-06
-7.04754e-06
-7.04754e-06
-7.04754e-06
-7.04754e-06
-7.04754e-06
-7.04754e-06
-7.04754e-06
-7.04754e-06
-7.04754e-06
-7.04754e-06
-7.04754e-06
-7.04754e-06
-7.04754e-06
-7.04754e-06
-7.04754e-06
-7.04754e-06
-7.04754e-06
-7.04754e-06
-7.04754e-06
-7.04754e-06
-7.04754e-06
-7.04754e-06
-7.04754e-06
-7.04754e-06
-7.04754e-06
-7.04754e-06
-7.04754e-06
-7.04754e-06
-7.04754e-06
-7.04754e-06
-7.04754e-06
-7.04754e-06
-7.04754e-06
-7.04754e-06
-7.04754e-06
-7.04754e-06
-7.04754e-06
-7.04754e-06
-7.04754e-06
-7.04754e-06
-7.04754e-06
-7.04754e-06
)
;
    }
    inandouthalf42
    {
        type            cyclic;
        value           nonuniform List<scalar> 
50
(
7.04754e-06
7.04754e-06
7.04754e-06
7.04754e-06
7.04754e-06
7.04754e-06
7.04754e-06
7.04754e-06
7.04754e-06
7.04754e-06
7.04754e-06
7.04754e-06
7.04754e-06
7.04754e-06
7.04754e-06
7.04754e-06
7.04754e-06
7.04754e-06
7.04754e-06
7.04754e-06
7.04754e-06
7.04754e-06
7.04754e-06
7.04754e-06
7.04754e-06
7.04754e-06
7.04754e-06
7.04754e-06
7.04754e-06
7.04754e-06
7.04754e-06
7.04754e-06
7.04754e-06
7.04754e-06
7.04754e-06
7.04754e-06
7.04754e-06
7.04754e-06
7.04754e-06
7.04754e-06
7.04754e-06
7.04754e-06
7.04754e-06
7.04754e-06
7.04754e-06
7.04754e-06
7.04754e-06
7.04754e-06
7.04754e-06
7.04754e-06
)
;
    }
    top
    {
        type            symmetryPlane;
        value           uniform 0;
    }
    walls
    {
        type            fixedValue;
        value           uniform 0;
    }
    frontAndBackPlanes
    {
        type            empty;
        value           nonuniform 0();
    }
}


// ************************************************************************* //
