/*--------------------------------*- C++ -*----------------------------------*\
| =========                 |                                                 |
| \\      /  F ield         | OpenFOAM: The Open Source CFD Toolbox           |
|  \\    /   O peration     | Version:  2.4.x                                 |
|   \\  /    A nd           | Web:      www.OpenFOAM.org                      |
|    \\/     M anipulation  |                                                 |
\*---------------------------------------------------------------------------*/
FoamFile
{
    version     2.0;
    format      ascii;
    class       surfaceScalarField;
    location    "10";
    object      phib;
}
// * * * * * * * * * * * * * * * * * * * * * * * * * * * * * * * * * * * * * //

dimensions      [0 3 -1 0 0 0 0];

internalField   nonuniform List<scalar> 
359
(
5.42835e-14
1.35291e-13
2.07198e-13
2.73259e-13
3.39001e-13
4.04431e-13
4.68766e-13
5.32052e-13
5.94662e-13
6.56968e-13
7.19241e-13
7.81655e-13
8.44365e-13
9.07497e-13
9.71175e-13
1.03552e-12
1.10063e-12
1.16658e-12
1.23345e-12
1.3013e-12
1.37018e-12
1.44014e-12
1.51122e-12
1.58346e-12
1.65688e-12
1.73149e-12
1.80732e-12
1.88438e-12
1.96268e-12
2.04222e-12
2.12298e-12
2.20499e-12
2.2882e-12
2.37263e-12
2.45825e-12
2.54505e-12
2.63299e-12
2.72206e-12
2.81226e-12
2.90351e-12
2.99582e-12
3.08915e-12
3.18344e-12
3.27869e-12
3.37485e-12
3.47189e-12
3.56977e-12
3.66839e-12
3.76777e-12
3.86788e-12
3.96862e-12
4.06998e-12
4.17189e-12
4.27433e-12
4.37721e-12
4.48054e-12
4.5842e-12
4.68819e-12
4.79242e-12
4.89681e-12
5.00138e-12
5.10602e-12
5.21074e-12
5.31544e-12
5.42008e-12
5.52458e-12
5.62891e-12
5.73301e-12
5.8368e-12
5.9402e-12
6.0432e-12
6.14579e-12
6.24784e-12
6.34935e-12
6.45027e-12
6.55056e-12
6.65014e-12
6.74895e-12
6.84693e-12
6.94405e-12
7.04024e-12
7.13548e-12
7.22974e-12
7.32298e-12
7.41517e-12
7.50628e-12
7.59627e-12
7.68508e-12
7.77267e-12
7.859e-12
7.94403e-12
8.02773e-12
8.11009e-12
8.19108e-12
8.27069e-12
8.34891e-12
8.42572e-12
8.50109e-12
8.57501e-12
8.64747e-12
8.71844e-12
8.78793e-12
8.85593e-12
8.92244e-12
8.98747e-12
9.05101e-12
9.11308e-12
9.17367e-12
9.23281e-12
9.29048e-12
9.34669e-12
9.40145e-12
9.45475e-12
9.50662e-12
9.55704e-12
9.60605e-12
9.65365e-12
9.69987e-12
9.74472e-12
9.78821e-12
9.83034e-12
9.87104e-12
9.91019e-12
9.94763e-12
9.98308e-12
1.00162e-11
1.00468e-11
1.00744e-11
1.0099e-11
1.01207e-11
1.01397e-11
1.01566e-11
1.01724e-11
1.0188e-11
1.02046e-11
1.02228e-11
1.02416e-11
1.02569e-11
1.02633e-11
1.02584e-11
1.02451e-11
1.0146e-11
8.79207e-11
2.60868e-10
3.63113e-10
5.322e-10
6.84002e-10
5.70288e-09
5.67768e-09
5.62464e-09
5.43881e-09
4.94969e-09
4.36283e-09
3.80025e-09
3.30218e-09
2.87521e-09
2.51282e-09
2.20513e-09
1.94262e-09
1.71722e-09
1.52238e-09
1.35286e-09
1.20453e-09
1.07407e-09
9.58831e-10
8.56663e-10
7.65799e-10
6.84777e-10
6.12374e-10
5.47558e-10
4.8945e-10
4.37295e-10
3.9044e-10
3.48318e-10
3.10433e-10
2.76351e-10
2.45686e-10
2.18098e-10
1.93286e-10
1.70981e-10
1.50942e-10
1.32954e-10
1.16825e-10
1.0238e-10
8.94642e-11
7.79362e-11
6.76688e-11
5.8547e-11
5.0467e-11
4.33346e-11
3.7065e-11
3.15813e-11
2.68134e-11
2.2696e-11
1.91657e-11
1.61588e-11
1.3609e-11
1.1447e-11
9.60388e-12
8.01492e-12
6.62595e-12
5.37442e-12
4.2427e-12
3.22118e-12
2.30426e-12
1.48799e-12
7.69057e-13
1.44366e-13
-3.88999e-13
-8.33554e-13
-1.19113e-12
-1.46267e-12
-1.64857e-12
-1.74969e-12
-1.76937e-12
-1.71562e-12
-1.60239e-12
-1.4485e-12
-1.27437e-12
-1.09792e-12
-9.31938e-13
-7.83452e-13
-6.54897e-13
-5.45746e-13
-4.54001e-13
-3.77219e-13
-3.12882e-13
-2.59017e-13
-2.13642e-13
-1.75582e-13
-1.43457e-13
-1.16576e-13
-9.39425e-14
-7.51183e-14
-5.94957e-14
-4.89775e-14
-2.66255e-14
-1.83498e-14
-1.08461e-14
-6.26632e-15
-3.55302e-15
-2.01648e-15
-1.10076e-15
-6.84359e-16
-3.45547e-16
-2.72768e-16
-1.19369e-16
-1.16738e-16
-4.05775e-17
-3.58683e-17
-9.65888e-18
3.95532e-17
1.57287e-18
1.54501e-18
1.51114e-18
1.47604e-18
1.43742e-18
1.3984e-18
1.36109e-18
1.32667e-18
1.30144e-18
1.28697e-18
1.2977e-18
1.33213e-18
1.39702e-18
1.48833e-18
1.60438e-18
1.7339e-18
1.87061e-18
2.00735e-18
2.14361e-18
2.28232e-18
2.42541e-18
2.55447e-18
2.6625e-18
2.73091e-18
2.78927e-18
2.80511e-18
2.8172e-18
2.84695e-18
2.92389e-18
3.00822e-18
3.08772e-18
3.08237e-18
3.09565e-18
2.98665e-18
2.90549e-18
2.68825e-18
2.55284e-18
2.34833e-18
2.12634e-18
1.77679e-18
1.45523e-18
1.06909e-18
7.02908e-19
5.54658e-19
1.5067e-19
1.61992e-19
2.17776e-19
3.80264e-19
4.62037e-19
5.09561e-19
5.58141e-19
5.75679e-19
6.43729e-19
6.92109e-19
7.44127e-19
7.49106e-19
7.90289e-19
7.85499e-19
7.85396e-19
7.73464e-19
8.21846e-19
8.54712e-19
8.91612e-19
8.83129e-19
9.1359e-19
8.81484e-19
8.5408e-19
8.08411e-19
8.42225e-19
8.11545e-19
7.81218e-19
6.6891e-19
5.74954e-19
4.96778e-19
5.79668e-19
2.39463e-18
3.09688e-18
5.45306e-18
7.96321e-18
1.02826e-17
1.28671e-17
1.49155e-17
1.7003e-17
1.86226e-17
2.14303e-17
2.34159e-17
2.54048e-17
2.60131e-17
2.78303e-17
2.78167e-17
2.80908e-17
2.83038e-17
3.181e-17
3.44817e-17
3.73414e-17
3.6796e-17
3.87889e-17
3.68567e-17
3.49632e-17
3.06155e-17
3.0428e-17
2.75967e-17
2.47223e-17
1.80486e-17
1.27183e-17
5.75093e-18
-5.41305e-19
)
;

boundaryField
{
    inandouthalf11
    {
        type            cyclic;
        value           nonuniform List<scalar> 
100
(
2.5463e-10
2.5322e-10
2.53026e-10
2.53216e-10
2.53306e-10
2.53335e-10
2.53371e-10
2.53417e-10
2.53465e-10
2.53513e-10
2.53562e-10
2.5361e-10
2.53659e-10
2.53709e-10
2.53758e-10
2.53809e-10
2.5386e-10
2.53912e-10
2.53964e-10
2.54016e-10
2.54069e-10
2.54123e-10
2.54177e-10
2.54232e-10
2.54287e-10
2.54343e-10
2.544e-10
2.54457e-10
2.54515e-10
2.54573e-10
2.54632e-10
2.54691e-10
2.54751e-10
2.54812e-10
2.54874e-10
2.54936e-10
2.54998e-10
2.55062e-10
2.55126e-10
2.5519e-10
2.55256e-10
2.55323e-10
2.55389e-10
2.55457e-10
2.55525e-10
2.55594e-10
2.55665e-10
2.55735e-10
2.55806e-10
2.55879e-10
2.55952e-10
2.56026e-10
2.56101e-10
2.56177e-10
2.56253e-10
2.56332e-10
2.5641e-10
2.5649e-10
2.5657e-10
2.56651e-10
2.56734e-10
2.56818e-10
2.56903e-10
2.56988e-10
2.57076e-10
2.57163e-10
2.57253e-10
2.57344e-10
2.57436e-10
2.57528e-10
2.57623e-10
2.57719e-10
2.57816e-10
2.57915e-10
2.58015e-10
2.58117e-10
2.5822e-10
2.58324e-10
2.58431e-10
2.58539e-10
2.58649e-10
2.58761e-10
2.58875e-10
2.5899e-10
2.59108e-10
2.59227e-10
2.59349e-10
2.59473e-10
2.59599e-10
2.59727e-10
2.59858e-10
2.59992e-10
2.60128e-10
2.60266e-10
2.60408e-10
2.60552e-10
2.60699e-10
2.6085e-10
2.61003e-10
2.6116e-10
)
;
    }
    inandouthalf12
    {
        type            cyclic;
        value           nonuniform List<scalar> 
100
(
-2.5463e-10
-2.5322e-10
-2.53026e-10
-2.53216e-10
-2.53306e-10
-2.53335e-10
-2.53371e-10
-2.53417e-10
-2.53465e-10
-2.53513e-10
-2.53562e-10
-2.5361e-10
-2.53659e-10
-2.53709e-10
-2.53758e-10
-2.53809e-10
-2.5386e-10
-2.53912e-10
-2.53964e-10
-2.54016e-10
-2.54069e-10
-2.54123e-10
-2.54177e-10
-2.54232e-10
-2.54287e-10
-2.54343e-10
-2.544e-10
-2.54457e-10
-2.54515e-10
-2.54573e-10
-2.54632e-10
-2.54691e-10
-2.54751e-10
-2.54812e-10
-2.54874e-10
-2.54936e-10
-2.54998e-10
-2.55062e-10
-2.55126e-10
-2.5519e-10
-2.55256e-10
-2.55323e-10
-2.55389e-10
-2.55457e-10
-2.55525e-10
-2.55594e-10
-2.55665e-10
-2.55735e-10
-2.55806e-10
-2.55879e-10
-2.55952e-10
-2.56026e-10
-2.56101e-10
-2.56177e-10
-2.56253e-10
-2.56332e-10
-2.5641e-10
-2.5649e-10
-2.5657e-10
-2.56651e-10
-2.56734e-10
-2.56818e-10
-2.56903e-10
-2.56988e-10
-2.57076e-10
-2.57163e-10
-2.57253e-10
-2.57344e-10
-2.57436e-10
-2.57528e-10
-2.57623e-10
-2.57719e-10
-2.57816e-10
-2.57915e-10
-2.58015e-10
-2.58117e-10
-2.5822e-10
-2.58324e-10
-2.58431e-10
-2.58539e-10
-2.58649e-10
-2.58761e-10
-2.58875e-10
-2.5899e-10
-2.59108e-10
-2.59227e-10
-2.59349e-10
-2.59473e-10
-2.59599e-10
-2.59727e-10
-2.59858e-10
-2.59992e-10
-2.60128e-10
-2.60266e-10
-2.60408e-10
-2.60552e-10
-2.60699e-10
-2.6085e-10
-2.61003e-10
-2.6116e-10
)
;
    }
    inandouthalf21
    {
        type            cyclic;
        value           nonuniform List<scalar> 
100
(
2.61321e-10
2.61485e-10
2.61652e-10
2.61824e-10
2.62e-10
2.6218e-10
2.62364e-10
2.62553e-10
2.62746e-10
2.62945e-10
2.63149e-10
2.63358e-10
2.63572e-10
2.63793e-10
2.6402e-10
2.64253e-10
2.64493e-10
2.6474e-10
2.64995e-10
2.65257e-10
2.65528e-10
2.65807e-10
2.66096e-10
2.66395e-10
2.66704e-10
2.67025e-10
2.67357e-10
2.67703e-10
2.68063e-10
2.68438e-10
2.6883e-10
2.69238e-10
2.69666e-10
2.70117e-10
2.70596e-10
2.71105e-10
2.7164e-10
2.7221e-10
2.72845e-10
2.73576e-10
2.74371e-10
2.7529e-10
2.85169e-10
2.8401e-10
2.77074e-10
2.66877e-10
1.89388e-10
-1.70992e-08
-1.05929e-07
-1.70065e-07
-2.17376e-07
-2.55212e-07
-2.8686e-07
-3.14113e-07
-3.3807e-07
-3.59473e-07
-3.78847e-07
-3.96581e-07
-4.12967e-07
-4.28229e-07
-4.42544e-07
-4.56048e-07
-4.68853e-07
-4.81048e-07
-4.92706e-07
-5.03887e-07
-5.14641e-07
-5.25011e-07
-5.35034e-07
-5.44739e-07
-5.54153e-07
-5.63299e-07
-5.72198e-07
-5.80866e-07
-5.89319e-07
-5.97572e-07
-6.05636e-07
-6.13522e-07
-6.2124e-07
-6.28799e-07
-6.36207e-07
-6.43471e-07
-6.50598e-07
-6.57592e-07
-6.64461e-07
-6.71208e-07
-6.77839e-07
-6.84357e-07
-6.90765e-07
-6.97068e-07
-7.03269e-07
-7.0937e-07
-7.15373e-07
-7.21282e-07
-7.27098e-07
-7.32823e-07
-7.3846e-07
-7.44009e-07
-7.49471e-07
-7.54849e-07
)
;
    }
    inandouthalf22
    {
        type            cyclic;
        value           nonuniform List<scalar> 
100
(
-2.61321e-10
-2.61485e-10
-2.61652e-10
-2.61824e-10
-2.62e-10
-2.6218e-10
-2.62364e-10
-2.62553e-10
-2.62746e-10
-2.62945e-10
-2.63149e-10
-2.63358e-10
-2.63572e-10
-2.63793e-10
-2.6402e-10
-2.64253e-10
-2.64493e-10
-2.6474e-10
-2.64995e-10
-2.65257e-10
-2.65528e-10
-2.65807e-10
-2.66096e-10
-2.66395e-10
-2.66704e-10
-2.67025e-10
-2.67357e-10
-2.67703e-10
-2.68063e-10
-2.68438e-10
-2.6883e-10
-2.69238e-10
-2.69666e-10
-2.70117e-10
-2.70596e-10
-2.71105e-10
-2.7164e-10
-2.7221e-10
-2.72845e-10
-2.73576e-10
-2.74371e-10
-2.7529e-10
-2.85169e-10
-2.8401e-10
-2.77074e-10
-2.66877e-10
-1.89388e-10
1.70992e-08
1.05929e-07
1.70065e-07
2.17376e-07
2.55212e-07
2.8686e-07
3.14113e-07
3.3807e-07
3.59473e-07
3.78847e-07
3.96581e-07
4.12967e-07
4.28229e-07
4.42544e-07
4.56048e-07
4.68853e-07
4.81048e-07
4.92706e-07
5.03887e-07
5.14641e-07
5.25011e-07
5.35034e-07
5.44739e-07
5.54153e-07
5.63299e-07
5.72198e-07
5.80866e-07
5.89319e-07
5.97572e-07
6.05636e-07
6.13522e-07
6.2124e-07
6.28799e-07
6.36207e-07
6.43471e-07
6.50598e-07
6.57592e-07
6.64461e-07
6.71208e-07
6.77839e-07
6.84357e-07
6.90765e-07
6.97068e-07
7.03269e-07
7.0937e-07
7.15373e-07
7.21282e-07
7.27098e-07
7.32823e-07
7.3846e-07
7.44009e-07
7.49471e-07
7.54849e-07
)
;
    }
    inandouthalf31
    {
        type            cyclic;
        value           nonuniform List<scalar> 
110
(
-7.60146e-07
-7.80946e-07
-8.02299e-07
-8.24218e-07
-8.46716e-07
-8.69804e-07
-8.93494e-07
-9.17799e-07
-9.42729e-07
-9.68296e-07
-9.94509e-07
-1.02138e-06
-1.04891e-06
-1.07712e-06
-1.106e-06
-1.13557e-06
-1.16582e-06
-1.19675e-06
-1.22836e-06
-1.26064e-06
-1.29358e-06
-1.32718e-06
-1.3614e-06
-1.39623e-06
-1.43163e-06
-1.46757e-06
-1.50401e-06
-1.5409e-06
-1.57821e-06
-1.61587e-06
-1.65384e-06
-1.69207e-06
-1.73054e-06
-1.76921e-06
-1.80808e-06
-1.84716e-06
-1.88647e-06
-1.92603e-06
-1.96587e-06
-2.00605e-06
-2.0466e-06
-2.08756e-06
-2.12896e-06
-2.17085e-06
-2.21323e-06
-2.25616e-06
-2.29964e-06
-2.34371e-06
-2.38838e-06
-2.43369e-06
-2.47965e-06
-2.52628e-06
-2.57363e-06
-2.6217e-06
-2.67054e-06
-2.72017e-06
-2.77063e-06
-2.82196e-06
-2.87419e-06
-2.92739e-06
-2.9816e-06
-3.03688e-06
-3.09329e-06
-3.15092e-06
-3.20984e-06
-3.27014e-06
-3.33194e-06
-3.39535e-06
-3.46052e-06
-3.52758e-06
-3.5967e-06
-3.66828e-06
-3.74246e-06
-3.81842e-06
-3.89592e-06
-3.975e-06
-4.05568e-06
-4.138e-06
-4.22199e-06
-4.30769e-06
-4.39512e-06
-4.48433e-06
-4.57535e-06
-4.66822e-06
-4.76297e-06
-4.85964e-06
-4.95828e-06
-5.05892e-06
-5.1616e-06
-5.26637e-06
-5.37327e-06
-5.48233e-06
-5.5936e-06
-5.70714e-06
-5.82298e-06
-5.94117e-06
-6.06176e-06
-6.1848e-06
-6.31033e-06
-6.43842e-06
-6.5691e-06
-6.70243e-06
-6.83848e-06
-6.97728e-06
-7.1189e-06
-7.26339e-06
-7.41082e-06
-7.56124e-06
-7.71471e-06
-7.8713e-06
)
;
    }
    inandouthalf32
    {
        type            cyclic;
        value           nonuniform List<scalar> 
110
(
7.60146e-07
7.80946e-07
8.02299e-07
8.24218e-07
8.46716e-07
8.69804e-07
8.93494e-07
9.17799e-07
9.42729e-07
9.68296e-07
9.94509e-07
1.02138e-06
1.04891e-06
1.07712e-06
1.106e-06
1.13557e-06
1.16582e-06
1.19675e-06
1.22836e-06
1.26064e-06
1.29358e-06
1.32718e-06
1.3614e-06
1.39623e-06
1.43163e-06
1.46757e-06
1.50401e-06
1.5409e-06
1.57821e-06
1.61587e-06
1.65384e-06
1.69207e-06
1.73054e-06
1.76921e-06
1.80808e-06
1.84716e-06
1.88647e-06
1.92603e-06
1.96587e-06
2.00605e-06
2.0466e-06
2.08756e-06
2.12896e-06
2.17085e-06
2.21323e-06
2.25616e-06
2.29964e-06
2.34371e-06
2.38838e-06
2.43369e-06
2.47965e-06
2.52628e-06
2.57363e-06
2.6217e-06
2.67054e-06
2.72017e-06
2.77063e-06
2.82196e-06
2.87419e-06
2.92739e-06
2.9816e-06
3.03688e-06
3.09329e-06
3.15092e-06
3.20984e-06
3.27014e-06
3.33194e-06
3.39535e-06
3.46052e-06
3.52758e-06
3.5967e-06
3.66828e-06
3.74246e-06
3.81842e-06
3.89592e-06
3.975e-06
4.05568e-06
4.138e-06
4.22199e-06
4.30769e-06
4.39512e-06
4.48433e-06
4.57535e-06
4.66822e-06
4.76297e-06
4.85964e-06
4.95828e-06
5.05892e-06
5.1616e-06
5.26637e-06
5.37327e-06
5.48233e-06
5.5936e-06
5.70714e-06
5.82298e-06
5.94117e-06
6.06176e-06
6.1848e-06
6.31033e-06
6.43842e-06
6.5691e-06
6.70243e-06
6.83848e-06
6.97728e-06
7.1189e-06
7.26339e-06
7.41082e-06
7.56124e-06
7.71471e-06
7.8713e-06
)
;
    }
    inandouthalf41
    {
        type            cyclic;
        value           nonuniform List<scalar> 
50
(
-7.04562e-06
-7.04562e-06
-7.04562e-06
-7.04562e-06
-7.04562e-06
-7.04562e-06
-7.04562e-06
-7.04562e-06
-7.04562e-06
-7.04562e-06
-7.04562e-06
-7.04562e-06
-7.04562e-06
-7.04562e-06
-7.04562e-06
-7.04562e-06
-7.04562e-06
-7.04562e-06
-7.04562e-06
-7.04562e-06
-7.04562e-06
-7.04562e-06
-7.04562e-06
-7.04562e-06
-7.04562e-06
-7.04562e-06
-7.04562e-06
-7.04562e-06
-7.04562e-06
-7.04562e-06
-7.04562e-06
-7.04562e-06
-7.04562e-06
-7.04562e-06
-7.04562e-06
-7.04562e-06
-7.04562e-06
-7.04562e-06
-7.04562e-06
-7.04562e-06
-7.04562e-06
-7.04562e-06
-7.04562e-06
-7.04562e-06
-7.04562e-06
-7.04562e-06
-7.04562e-06
-7.04562e-06
-7.04562e-06
-7.04562e-06
)
;
    }
    inandouthalf42
    {
        type            cyclic;
        value           nonuniform List<scalar> 
50
(
7.04562e-06
7.04562e-06
7.04562e-06
7.04562e-06
7.04562e-06
7.04562e-06
7.04562e-06
7.04562e-06
7.04562e-06
7.04562e-06
7.04562e-06
7.04562e-06
7.04562e-06
7.04562e-06
7.04562e-06
7.04562e-06
7.04562e-06
7.04562e-06
7.04562e-06
7.04562e-06
7.04562e-06
7.04562e-06
7.04562e-06
7.04562e-06
7.04562e-06
7.04562e-06
7.04562e-06
7.04562e-06
7.04562e-06
7.04562e-06
7.04562e-06
7.04562e-06
7.04562e-06
7.04562e-06
7.04562e-06
7.04562e-06
7.04562e-06
7.04562e-06
7.04562e-06
7.04562e-06
7.04562e-06
7.04562e-06
7.04562e-06
7.04562e-06
7.04562e-06
7.04562e-06
7.04562e-06
7.04562e-06
7.04562e-06
7.04562e-06
)
;
    }
    top
    {
        type            symmetryPlane;
        value           uniform 0;
    }
    walls
    {
        type            fixedValue;
        value           uniform 0;
    }
    frontAndBackPlanes
    {
        type            empty;
        value           nonuniform 0();
    }
}


// ************************************************************************* //
