/*--------------------------------*- C++ -*----------------------------------*\
| =========                 |                                                 |
| \\      /  F ield         | OpenFOAM: The Open Source CFD Toolbox           |
|  \\    /   O peration     | Version:  2.4.x                                 |
|   \\  /    A nd           | Web:      www.OpenFOAM.org                      |
|    \\/     M anipulation  |                                                 |
\*---------------------------------------------------------------------------*/
FoamFile
{
    version     2.0;
    format      ascii;
    class       volVectorField;
    location    "10";
    object      susb;
}
// * * * * * * * * * * * * * * * * * * * * * * * * * * * * * * * * * * * * * //

dimensions      [0 1 -2 0 0 0 0];

internalField   nonuniform List<vector> 
360
(
(0 5.99669e-18 0)
(0 6.66631e-18 0)
(0 9.783e-21 0)
(0 -9.20026e-19 0)
(-3.70036e-31 -3.88249e-19 0)
(-3.70003e-31 -2.10645e-19 0)
(-3.6996e-31 -2.69994e-19 0)
(0 -3.08856e-19 0)
(-3.6985e-31 -3.14457e-19 0)
(0 -3.17438e-19 0)
(-3.69736e-31 -3.1869e-19 0)
(0 -3.20012e-19 0)
(-3.69621e-31 -3.22805e-19 0)
(0 -3.25725e-19 0)
(0 -3.29581e-19 0)
(0 -3.33514e-19 0)
(0 -3.36675e-19 0)
(-3.69324e-31 -3.39554e-19 0)
(0 -3.43865e-19 0)
(0 -3.4694e-19 0)
(0 -3.50147e-19 0)
(-3.69075e-31 -3.54688e-19 0)
(0 -3.58028e-19 0)
(0 -3.61889e-19 0)
(0 -3.65843e-19 0)
(-3.68815e-31 -3.69062e-19 0)
(0 -3.73424e-19 0)
(0 -3.77946e-19 0)
(0 -3.81211e-19 0)
(0 -3.85006e-19 0)
(0 -3.90272e-19 0)
(0 -3.93064e-19 0)
(0 -3.97948e-19 0)
(0 -4.02933e-19 0)
(0 -4.06113e-19 0)
(3.68116e-31 -4.10625e-19 0)
(0 -4.14931e-19 0)
(0 -4.21296e-19 0)
(0 -4.23393e-19 0)
(0 -4.28562e-19 0)
(0 -4.35548e-19 0)
(0 -4.37014e-19 0)
(7.35163e-31 -4.43349e-19 0)
(0 -4.49149e-19 0)
(0 -4.52846e-19 0)
(0 -4.59777e-19 0)
(0 -4.62694e-19 0)
(0 -4.67197e-19 0)
(0 -4.7657e-19 0)
(0 -4.79868e-19 0)
(3.66917e-31 -4.84153e-19 0)
(0 -4.91384e-19 0)
(0 -4.97226e-19 0)
(0 -5.01912e-19 0)
(0 -5.09087e-19 0)
(0 -5.14987e-19 0)
(0 -5.20603e-19 0)
(0 -5.28586e-19 0)
(0 -5.31868e-19 0)
(0 -5.40785e-19 0)
(0 -5.47813e-19 0)
(0 -5.53726e-19 0)
(0 -5.61994e-19 0)
(0 -5.68212e-19 0)
(0 -5.75336e-19 0)
(0 -5.83069e-19 0)
(0 -5.91936e-19 0)
(0 -5.9924e-19 0)
(0 -6.05062e-19 0)
(0 -6.14742e-19 0)
(0 -6.26266e-19 0)
(0 -6.31355e-19 0)
(0 -6.39998e-19 0)
(0 -6.51088e-19 0)
(0 -6.60664e-19 0)
(0 -6.69754e-19 0)
(0 -6.77988e-19 0)
(0 -6.89142e-19 0)
(0 -7.00115e-19 0)
(0 -7.09924e-19 0)
(0 -7.20637e-19 0)
(0 -7.32783e-19 0)
(0 -7.44321e-19 0)
(0 -7.56244e-19 0)
(0 -7.6857e-19 0)
(0 -7.81366e-19 0)
(0 -7.94336e-19 0)
(0 -8.07301e-19 0)
(0 -8.2123e-19 0)
(0 -8.35638e-19 0)
(0 -8.50262e-19 0)
(0 -8.65669e-19 0)
(0 -8.81746e-19 0)
(0 -8.98151e-19 0)
(0 -9.15092e-19 0)
(0 -9.32598e-19 0)
(0 -9.50636e-19 0)
(0 -9.69275e-19 0)
(0 -9.88642e-19 0)
(0 -1.00876e-18 0)
(0 -1.02963e-18 0)
(0 -1.05136e-18 0)
(0 -1.07394e-18 0)
(0 -1.09737e-18 0)
(0 -1.12169e-18 0)
(0 -1.14696e-18 0)
(0 -1.17322e-18 0)
(0 -1.20052e-18 0)
(0 -1.22893e-18 0)
(0 -1.2585e-18 0)
(0 -1.28929e-18 0)
(0 -1.32136e-18 0)
(0 -1.3548e-18 0)
(0 -1.3897e-18 0)
(0 -1.42616e-18 0)
(0 -1.4643e-18 0)
(0 -1.50426e-18 0)
(0 -1.54622e-18 0)
(0 -1.59038e-18 0)
(0 -1.63693e-18 0)
(0 -1.68609e-18 0)
(0 -1.73803e-18 0)
(0 -1.79291e-18 0)
(0 -1.8509e-18 0)
(0 -1.91234e-18 0)
(0 -1.97789e-18 0)
(0 -6.30953e-18 0)
(0 -2.40619e-17 0)
(0 -8.99222e-17 0)
(0 -3.22593e-16 0)
(0 -1.11138e-15 0)
(0 -3.70157e-15 0)
(0 -1.20612e-14 0)
(0 -3.88787e-14 0)
(0 -1.24373e-13 0)
(0 -3.95979e-13 0)
(0 -1.28337e-12 0)
(0 -4.43671e-12 0)
(0 -1.70217e-11 0)
(0 -7.18544e-11 0)
(0 -3.58351e-10 0)
(0 -1.24758e-08 0)
(0 -1.05076e-07 0)
(0 -2.00475e-07 0)
(0 -3.14623e-06 0)
(0 -8.90674e-05 0)
(0 -0.120429 0)
(0 -1.34804 0)
(0 -1.65561 0)
(0 -1.01614 0)
(0 -0.862651 0)
(0 -0.767178 0)
(0 -0.678567 0)
(0 -0.60441 0)
(0 -0.540177 0)
(0 -0.483804 0)
(0 -0.434231 0)
(0 -0.39069 0)
(0 -0.352492 0)
(0 -0.318996 0)
(0 -0.289562 0)
(0 -0.263637 0)
(0 -0.24073 0)
(0 -0.220414 0)
(0 -0.202315 0)
(0 -0.18612 0)
(0 -0.171568 0)
(0 -0.158436 0)
(0 -0.146541 0)
(0 -0.135723 0)
(0 -0.125852 0)
(0 -0.116813 0)
(0 -0.108516 0)
(0 -0.100876 0)
(0 -0.0938238 0)
(0 -0.0873008 0)
(0 -0.0812557 0)
(0 -0.0756428 0)
(0 -0.0704229 0)
(0 -0.0655623 0)
(0 -0.0610305 0)
(0 -0.0568008 0)
(0 -0.0528497 0)
(0 -0.049156 0)
(0 -0.0457009 0)
(0 -0.0424677 0)
(0 -0.0394409 0)
(0 -0.036607 0)
(0 -0.0339539 0)
(0 -0.0314709 0)
(0 -0.0291479 0)
(0 -0.0269747 0)
(0 -0.0249392 0)
(0 -0.0230259 0)
(0 -0.0212153 0)
(0 -0.0194858 0)
(0 -0.0178188 0)
(0 -0.0162053 0)
(0 -0.0146535 0)
(0 -0.0131939 0)
(0 -0.0118767 0)
(0 -0.0107315 0)
(-3.23518e-18 -0.00974428 0)
(0 -0.00888012 0)
(0 -0.00810752 0)
(3.19441e-18 -0.00740804 0)
(0 -0.00677122 0)
(-3.1719e-18 -0.00619071 0)
(0 -0.00566271 0)
(1.5703e-18 -0.00518527 0)
(0 -0.00475741 0)
(0 -0.00437752 0)
(0 -0.00404104 0)
(1.52087e-18 -0.003738 0)
(0 -0.00345214 0)
(0 -0.00316364 0)
(0 -0.0028557 0)
(0 -0.00252219 0)
(0 -0.00217148 0)
(-6.95274e-19 -0.00182262 0)
(0 -0.00149698 0)
(-3.32706e-19 -0.00121035 0)
(0 -0.00096985 0)
(-3.16112e-19 -0.000774763 0)
(0 -0.000620088 0)
(0 -0.000498159 0)
(0 -0.000403668 0)
(0 -0.000327519 0)
(1.36343e-19 -0.00026973 0)
(6.62166e-20 -0.000219801 0)
(0 -0.000183561 0)
(0 -0.000148592 0)
(0 -0.00012624 0)
(0 -9.94291e-05 0)
(0 -8.8228e-05 0)
(0 -3.73196e-05 0)
(0 -2.10928e-05 0)
(0 -4.73899e-05 0)
(0 -4.07004e-05 0)
(0 -2.65871e-05 0)
(0 -1.85361e-05 0)
(0 -1.24998e-05 0)
(0 -8.5579e-06 0)
(-1.03833e-21 -5.75517e-06 0)
(1.02372e-21 -3.92741e-06 0)
(0 -2.60289e-06 0)
(0 -1.76016e-06 0)
(-2.40239e-22 -1.15e-06 0)
(0 -7.5751e-07 0)
(0 -4.94453e-07 0)
(0 -3.06702e-07 0)
(0 -2.17193e-07 0)
(0 -1.7828e-08 0)
(0 -2.59933e-20 0)
(0 -2.21862e-32 0)
(0 -3.2212e-34 0)
(0 -2.45344e-38 0)
(0 -3.86122e-39 0)
(0 -6.10705e-44 0)
(0 -1.01482e-44 0)
(0 -1.47381e-49 0)
(0 -2.57838e-50 0)
(0 -3.45525e-55 0)
(0 -6.34489e-56 0)
(0 -6.99878e-59 0)
(0 -3.21815e-59 0)
(0 -8.04603e-60 0)
(0 -3.095e-60 0)
(0 -1.10232e-60 0)
(0 -3.47042e-61 0)
(0 -8.3949e-62 0)
(0 -8.33068e-63 0)
(0 -1.38477e-64 0)
(0 -6.69368e-67 0)
(0 -2.77752e-69 0)
(0 -1.07322e-71 0)
(0 -3.86643e-74 0)
(0 -1.2931e-76 0)
(0 -2.7053e-79 0)
(0 -1.26998e-81 0)
(0 -4.34807e-82 0)
(0 -1.48934e-82 0)
(0 -4.95649e-83 0)
(0 -1.60066e-83 0)
(0 -5.0095e-84 0)
(0 -1.51717e-84 0)
(6.43466e-101 -4.4396e-85 0)
(0 -1.25312e-85 0)
(0 -3.40556e-86 0)
(0 -8.89321e-87 0)
(0 -2.22664e-87 0)
(0 -5.3323e-88 0)
(0 -1.21811e-88 0)
(0 -2.6465e-89 0)
(0 -5.45026e-90 0)
(0 -1.05996e-90 0)
(2.50974e-107 -1.9383e-91 0)
(0 -3.31651e-92 0)
(0 -5.27955e-93 0)
(-4.61507e-110 -7.76727e-94 0)
(0 -1.04773e-94 0)
(0 -1.28343e-95 0)
(0 -1.41094e-96 0)
(0 -1.37141e-97 0)
(0 -1.15581e-98 0)
(0 -8.22554e-100 0)
(0 -4.75829e-101 0)
(0 -2.10785e-102 0)
(0 -6.4248e-104 0)
(0 -1.04787e-105 0)
(0 -1.66493e-108 0)
(0 -1.49807e-114 0)
(0 -1.00811e-116 0)
(0 -3.35855e-119 0)
(0 -1.31902e-129 0)
(0 -2.64038e-140 0)
(0 -3.95836e-151 0)
(0 -4.31587e-162 0)
(0 -4.1061e-173 0)
(0 -3.01382e-184 0)
(0 -1.90436e-195 0)
(0 -4.74685e-206 0)
(0 -2.11818e-216 0)
(0 -1.29807e-224 0)
(0 -6.13253e-235 0)
(0 -4.46428e-243 0)
(0 -2.49403e-253 0)
(0 -1.5368e-261 0)
(0 -1.05296e-271 0)
(0 -5.297e-280 0)
(0 -6.74781e-290 0)
(0 -1.87141e-298 0)
(0 -4.47245e-308 0)
(0 -6.85154e-317 0)
(0 -0 0)
(0 -0 0)
(0 0 0)
(0 0 0)
(0 0 0)
(0 0 0)
(0 0 0)
(0 0 0)
(0 0 0)
(0 0 0)
(0 0 0)
(0 0 0)
(0 0 0)
(0 0 0)
(0 0 0)
(0 0 0)
(0 0 0)
(0 0 0)
(0 0 0)
(0 0 0)
(0 0 0)
(0 0 0)
(0 0 0)
(0 0 0)
(0 0 0)
(0 0 0)
)
;

boundaryField
{
    inandouthalf11
    {
        type            cyclic;
    }
    inandouthalf12
    {
        type            cyclic;
    }
    inandouthalf21
    {
        type            cyclic;
    }
    inandouthalf22
    {
        type            cyclic;
    }
    inandouthalf31
    {
        type            cyclic;
    }
    inandouthalf32
    {
        type            cyclic;
    }
    inandouthalf41
    {
        type            cyclic;
    }
    inandouthalf42
    {
        type            cyclic;
    }
    top
    {
        type            symmetryPlane;
    }
    walls
    {
        type            zeroGradient;
    }
    frontAndBackPlanes
    {
        type            empty;
    }
}


// ************************************************************************* //
