/*--------------------------------*- C++ -*----------------------------------*\
| =========                 |                                                 |
| \\      /  F ield         | OpenFOAM: The Open Source CFD Toolbox           |
|  \\    /   O peration     | Version:  2.4.x                                 |
|   \\  /    A nd           | Web:      www.OpenFOAM.org                      |
|    \\/     M anipulation  |                                                 |
\*---------------------------------------------------------------------------*/
FoamFile
{
    version     2.0;
    format      ascii;
    class       volTensorField;
    location    "10";
    object      Tauf;
}
// * * * * * * * * * * * * * * * * * * * * * * * * * * * * * * * * * * * * * //

dimensions      [0 2 -2 0 0 0 0];

internalField   nonuniform List<tensor> 
360
(
(0 -5.0785e-07 0 -5.0785e-07 6.04861e-11 0 0 0 0)
(0 1.60368e-09 0 1.60368e-09 7.22485e-11 0 0 0 0)
(0 3.79656e-12 0 3.79656e-12 7.30013e-11 0 0 0 0)
(0 -2.80109e-10 0 -2.80109e-10 6.74594e-11 0 0 0 0)
(5.16988e-23 -1.18602e-10 0 -1.18602e-10 6.57318e-11 0 0 0 0)
(5.16988e-23 -6.43995e-11 0 -6.43995e-11 6.52234e-11 0 0 0 0)
(5.16988e-23 -8.23984e-11 0 -8.23984e-11 6.43468e-11 0 0 0 0)
(0 -9.42252e-11 0 -9.42252e-11 6.33811e-11 0 0 0 0)
(5.16988e-23 -9.59234e-11 0 -9.59234e-11 6.27029e-11 0 0 0 0)
(0 -9.68168e-11 0 -9.68168e-11 6.23737e-11 0 0 0 0)
(5.16988e-23 -9.7183e-11 0 -9.7183e-11 6.23164e-11 0 0 0 0)
(0 -9.75711e-11 0 -9.75711e-11 6.24525e-11 0 0 0 0)
(5.16988e-23 -9.84077e-11 0 -9.84077e-11 6.27412e-11 0 0 0 0)
(0 -9.92839e-11 0 -9.92839e-11 6.31626e-11 0 0 0 0)
(0 -1.00446e-10 0 -1.00446e-10 6.37076e-11 0 0 0 0)
(0 -1.01631e-10 0 -1.01631e-10 6.43677e-11 0 0 0 0)
(0 -1.0258e-10 0 -1.0258e-10 6.51277e-11 0 0 0 0)
(5.16988e-23 -1.03442e-10 0 -1.03442e-10 6.59703e-11 0 0 0 0)
(0 -1.04741e-10 0 -1.04741e-10 6.68863e-11 0 0 0 0)
(0 -1.05662e-10 0 -1.05662e-10 6.78641e-11 0 0 0 0)
(0 -1.06622e-10 0 -1.06622e-10 6.8893e-11 0 0 0 0)
(5.16988e-23 -1.0799e-10 0 -1.0799e-10 6.99708e-11 0 0 0 0)
(0 -1.08989e-10 0 -1.08989e-10 7.10897e-11 0 0 0 0)
(0 -1.10147e-10 0 -1.10147e-10 7.2242e-11 0 0 0 0)
(0 -1.11332e-10 0 -1.11332e-10 7.34214e-11 0 0 0 0)
(5.16988e-23 -1.12292e-10 0 -1.12292e-10 7.46194e-11 0 0 0 0)
(0 -1.13601e-10 0 -1.13601e-10 7.58339e-11 0 0 0 0)
(0 -1.14958e-10 0 -1.14958e-10 7.70636e-11 0 0 0 0)
(0 -1.15929e-10 0 -1.15929e-10 7.82989e-11 0 0 0 0)
(0 -1.17062e-10 0 -1.17062e-10 7.95326e-11 0 0 0 0)
(0 -1.18646e-10 0 -1.18646e-10 8.0768e-11 0 0 0 0)
(0 -1.1947e-10 0 -1.1947e-10 8.19949e-11 0 0 0 0)
(0 -1.20936e-10 0 -1.20936e-10 8.32137e-11 0 0 0 0)
(0 -1.22432e-10 0 -1.22432e-10 8.44251e-11 0 0 0 0)
(0 -1.23374e-10 0 -1.23374e-10 8.56172e-11 0 0 0 0)
(-5.16988e-23 -1.24725e-10 0 -1.24725e-10 8.67882e-11 0 0 0 0)
(0 -1.26013e-10 0 -1.26013e-10 8.79367e-11 0 0 0 0)
(0 -1.27934e-10 0 -1.27934e-10 8.9073e-11 0 0 0 0)
(0 -1.28542e-10 0 -1.28542e-10 9.01774e-11 0 0 0 0)
(0 -1.30096e-10 0 -1.30096e-10 9.12492e-11 0 0 0 0)
(0 -1.32211e-10 0 -1.32211e-10 9.2303e-11 0 0 0 0)
(0 -1.32625e-10 0 -1.32625e-10 9.3313e-11 0 0 0 0)
(-5.16988e-23 -1.3454e-10 0 -1.3454e-10 9.42894e-11 0 0 0 0)
(0 -1.36293e-10 0 -1.36293e-10 9.52398e-11 0 0 0 0)
(0 -1.37397e-10 0 -1.37397e-10 9.61509e-11 0 0 0 0)
(0 -1.395e-10 0 -1.395e-10 9.70292e-11 0 0 0 0)
(0 -1.40365e-10 0 -1.40365e-10 9.7854e-11 0 0 0 0)
(0 -1.41723e-10 0 -1.41723e-10 9.86234e-11 0 0 0 0)
(0 -1.44587e-10 0 -1.44587e-10 9.93736e-11 0 0 0 0)
(0 -1.45575e-10 0 -1.45575e-10 1.00083e-10 0 0 0 0)
(-5.16988e-23 -1.46869e-10 0 -1.46869e-10 1.00736e-10 0 0 0 0)
(0 -1.49079e-10 0 -1.49079e-10 1.01344e-10 0 0 0 0)
(0 -1.50861e-10 0 -1.50861e-10 1.01907e-10 0 0 0 0)
(0 -1.52288e-10 0 -1.52288e-10 1.02417e-10 0 0 0 0)
(0 -1.54489e-10 0 -1.54489e-10 1.02883e-10 0 0 0 0)
(0 -1.56298e-10 0 -1.56298e-10 1.033e-10 0 0 0 0)
(0 -1.58023e-10 0 -1.58023e-10 1.03659e-10 0 0 0 0)
(0 -1.60486e-10 0 -1.60486e-10 1.03971e-10 0 0 0 0)
(0 -1.61493e-10 0 -1.61493e-10 1.04206e-10 0 0 0 0)
(0 -1.64256e-10 0 -1.64256e-10 1.04395e-10 0 0 0 0)
(0 -1.66436e-10 0 -1.66436e-10 1.04543e-10 0 0 0 0)
(0 -1.68273e-10 0 -1.68273e-10 1.04641e-10 0 0 0 0)
(0 -1.70848e-10 0 -1.70848e-10 1.04695e-10 0 0 0 0)
(0 -1.7279e-10 0 -1.7279e-10 1.04688e-10 0 0 0 0)
(0 -1.7502e-10 0 -1.7502e-10 1.04621e-10 0 0 0 0)
(0 -1.77447e-10 0 -1.77447e-10 1.04494e-10 0 0 0 0)
(0 -1.80233e-10 0 -1.80233e-10 1.04316e-10 0 0 0 0)
(0 -1.82538e-10 0 -1.82538e-10 1.04078e-10 0 0 0 0)
(0 -1.84386e-10 0 -1.84386e-10 1.03764e-10 0 0 0 0)
(0 -1.87449e-10 0 -1.87449e-10 1.03397e-10 0 0 0 0)
(0 -1.91096e-10 0 -1.91096e-10 1.03007e-10 0 0 0 0)
(0 -1.92735e-10 0 -1.92735e-10 1.02554e-10 0 0 0 0)
(0 -1.95494e-10 0 -1.95494e-10 1.02046e-10 0 0 0 0)
(0 -1.9903e-10 0 -1.9903e-10 1.01498e-10 0 0 0 0)
(0 -2.02099e-10 0 -2.02099e-10 1.00909e-10 0 0 0 0)
(0 -2.05024e-10 0 -2.05024e-10 1.00272e-10 0 0 0 0)
(0 -2.0769e-10 0 -2.0769e-10 9.95613e-11 0 0 0 0)
(0 -2.11284e-10 0 -2.11284e-10 9.87932e-11 0 0 0 0)
(0 -2.14833e-10 0 -2.14833e-10 9.79744e-11 0 0 0 0)
(0 -2.18025e-10 0 -2.18025e-10 9.71032e-11 0 0 0 0)
(0 -2.21513e-10 0 -2.21513e-10 9.61846e-11 0 0 0 0)
(0 -2.25464e-10 0 -2.25464e-10 9.5232e-11 0 0 0 0)
(0 -2.29234e-10 0 -2.29234e-10 9.42469e-11 0 0 0 0)
(0 -2.33138e-10 0 -2.33138e-10 9.32319e-11 0 0 0 0)
(0 -2.3718e-10 0 -2.3718e-10 9.21837e-11 0 0 0 0)
(0 -2.41384e-10 0 -2.41384e-10 9.10991e-11 0 0 0 0)
(0 -2.45657e-10 0 -2.45657e-10 8.99732e-11 0 0 0 0)
(0 -2.49943e-10 0 -2.49943e-10 8.87991e-11 0 0 0 0)
(0 -2.5455e-10 0 -2.5455e-10 8.75797e-11 0 0 0 0)
(0 -2.59325e-10 0 -2.59325e-10 8.6319e-11 0 0 0 0)
(0 -2.64185e-10 0 -2.64185e-10 8.50218e-11 0 0 0 0)
(0 -2.69309e-10 0 -2.69309e-10 8.36967e-11 0 0 0 0)
(0 -2.74665e-10 0 -2.74665e-10 8.23507e-11 0 0 0 0)
(0 -2.80141e-10 0 -2.80141e-10 8.09874e-11 0 0 0 0)
(0 -2.85806e-10 0 -2.85806e-10 7.96084e-11 0 0 0 0)
(0 -2.91671e-10 0 -2.91671e-10 7.82128e-11 0 0 0 0)
(0 -2.97725e-10 0 -2.97725e-10 7.67993e-11 0 0 0 0)
(0 -3.03992e-10 0 -3.03992e-10 7.53669e-11 0 0 0 0)
(0 -3.10513e-10 0 -3.10513e-10 7.39165e-11 0 0 0 0)
(0 -3.17297e-10 0 -3.17297e-10 7.24505e-11 0 0 0 0)
(0 -3.24349e-10 0 -3.24349e-10 7.09725e-11 0 0 0 0)
(0 -3.31699e-10 0 -3.31699e-10 6.94871e-11 0 0 0 0)
(0 -3.39349e-10 0 -3.39349e-10 6.79985e-11 0 0 0 0)
(0 -3.47297e-10 0 -3.47297e-10 6.65102e-11 0 0 0 0)
(0 -3.55563e-10 0 -3.55563e-10 6.50247e-11 0 0 0 0)
(0 -3.64161e-10 0 -3.64161e-10 6.35435e-11 0 0 0 0)
(0 -3.73109e-10 0 -3.73109e-10 6.20674e-11 0 0 0 0)
(0 -3.82429e-10 0 -3.82429e-10 6.05964e-11 0 0 0 0)
(0 -3.92141e-10 0 -3.92141e-10 5.91304e-11 0 0 0 0)
(0 -4.02266e-10 0 -4.02266e-10 5.76687e-11 0 0 0 0)
(0 -4.12826e-10 0 -4.12826e-10 5.62108e-11 0 0 0 0)
(0 -4.23846e-10 0 -4.23846e-10 5.47567e-11 0 0 0 0)
(0 -4.35355e-10 0 -4.35355e-10 5.33067e-11 0 0 0 0)
(0 -4.47384e-10 0 -4.47384e-10 5.18628e-11 0 0 0 0)
(0 -4.59972e-10 0 -4.59972e-10 5.04281e-11 0 0 0 0)
(0 -4.73162e-10 0 -4.73162e-10 4.90065e-11 0 0 0 0)
(0 -4.87005e-10 0 -4.87005e-10 4.76024e-11 0 0 0 0)
(0 -5.01562e-10 0 -5.01562e-10 4.62177e-11 0 0 0 0)
(0 -5.16903e-10 0 -5.16903e-10 4.48499e-11 0 0 0 0)
(0 -5.33105e-10 0 -5.33105e-10 4.34874e-11 0 0 0 0)
(0 -5.50245e-10 0 -5.50245e-10 4.21059e-11 0 0 0 0)
(0 -5.68397e-10 0 -5.68397e-10 4.06648e-11 0 0 0 0)
(0 -5.87632e-10 0 -5.87632e-10 3.91069e-11 0 0 0 0)
(0 -6.08035e-10 0 -6.08035e-10 3.7363e-11 0 0 0 0)
(0 -6.29744e-10 0 -6.29744e-10 3.53646e-11 0 0 0 0)
(0 -6.5301e-10 0 -6.5301e-10 3.30631e-11 0 0 0 0)
(0 -6.78193e-10 0 -6.78193e-10 3.04539e-11 0 0 0 0)
(0 -7.05644e-10 0 -7.05644e-10 2.75963e-11 0 0 0 0)
(0 -7.35419e-10 0 -7.35419e-10 2.46216e-11 0 0 0 0)
(0 -7.67067e-10 0 -7.67067e-10 2.17252e-11 0 0 0 0)
(0 -8.00131e-10 0 -8.00131e-10 1.91437e-11 0 0 0 0)
(0 -8.35864e-10 0 -8.35864e-10 1.71332e-11 0 0 0 0)
(0 -8.78314e-10 0 -8.78314e-10 1.59613e-11 0 0 0 0)
(0 -9.30522e-10 0 -9.30522e-10 1.58539e-11 0 0 0 0)
(0 -9.88033e-10 0 -9.88033e-10 1.6761e-11 0 0 0 0)
(0 -1.04372e-09 0 -1.04372e-09 1.79343e-11 0 0 0 0)
(0 -1.10574e-09 0 -1.10574e-09 1.76177e-11 0 0 0 0)
(0 -1.20516e-09 0 -1.20516e-09 1.36981e-11 0 0 0 0)
(0 -1.3654e-09 0 -1.3654e-09 -2.09544e-12 0 0 0 0)
(0 -1.52645e-09 0 -1.52645e-09 4.53212e-10 0 0 0 0)
(0 -1.71434e-09 0 -1.71434e-09 -3.77904e-09 0 0 0 0)
(0 -1.07975e-08 0 -1.07975e-08 1.30053e-08 0 0 0 0)
(0 -8.71997e-09 0 -8.71997e-09 8.49457e-08 0 0 0 0)
(0 8.09502e-09 0 8.09502e-09 1.35737e-07 0 0 0 0)
(0 1.71386e-08 0 1.71386e-08 1.60915e-07 0 0 0 0)
(0 8.81007e-08 0 8.81007e-08 -4.26667e-08 0 0 0 0)
(0 1.89727e-05 0 1.89727e-05 7.30398e-07 0 0 0 0)
(0 0.000298848 0 0.000298848 1.02835e-05 0 0 0 0)
(0 0.00141345 0 0.00141345 1.58433e-05 0 0 0 0)
(0 0.00181214 0 0.00181214 -1.52702e-05 0 0 0 0)
(0 0.00198761 0 0.00198761 1.03375e-07 0 0 0 0)
(0 0.00214095 0 0.00214095 -1.48611e-05 0 0 0 0)
(0 0.00227482 0 0.00227482 -2.29268e-05 0 0 0 0)
(0 0.00239245 0 0.00239245 -2.66897e-05 0 0 0 0)
(0 0.00249626 0 0.00249626 -2.76798e-05 0 0 0 0)
(0 0.00258898 0 0.00258898 -2.72844e-05 0 0 0 0)
(0 0.00267274 0 0.00267274 -2.62168e-05 0 0 0 0)
(0 0.00274904 0 0.00274904 -2.48644e-05 0 0 0 0)
(0 0.00281893 0 0.00281893 -2.34275e-05 0 0 0 0)
(0 0.00288308 0 0.00288308 -2.20007e-05 0 0 0 0)
(0 0.00294197 0 0.00294197 -2.06252e-05 0 0 0 0)
(0 0.00299595 0 0.00299595 -1.93164e-05 0 0 0 0)
(0 0.00304527 0 0.00304527 -1.80777e-05 0 0 0 0)
(0 0.00309013 0 0.00309013 -1.69071e-05 0 0 0 0)
(0 0.00313072 0 0.00313072 -1.58009e-05 0 0 0 0)
(0 0.0031672 0 0.0031672 -1.47548e-05 0 0 0 0)
(0 0.00319972 0 0.00319972 -1.37651e-05 0 0 0 0)
(0 0.00322842 0 0.00322842 -1.28284e-05 0 0 0 0)
(0 0.00325343 0 0.00325343 -1.19419e-05 0 0 0 0)
(0 0.00327489 0 0.00327489 -1.11032e-05 0 0 0 0)
(0 0.00329292 0 0.00329292 -1.03101e-05 0 0 0 0)
(0 0.00330764 0 0.00330764 -9.56075e-06 0 0 0 0)
(0 0.00331917 0 0.00331917 -8.8535e-06 0 0 0 0)
(0 0.0033276 0 0.0033276 -8.18663e-06 0 0 0 0)
(0 0.00333306 0 0.00333306 -7.55858e-06 0 0 0 0)
(0 0.00333563 0 0.00333563 -6.96778e-06 0 0 0 0)
(0 0.00333541 0 0.00333541 -6.41268e-06 0 0 0 0)
(0 0.00333249 0 0.00333249 -5.89173e-06 0 0 0 0)
(0 0.00332697 0 0.00332697 -5.40343e-06 0 0 0 0)
(0 0.00331891 0 0.00331891 -4.94626e-06 0 0 0 0)
(0 0.00330841 0 0.00330841 -4.51874e-06 0 0 0 0)
(0 0.00329553 0 0.00329553 -4.11942e-06 0 0 0 0)
(0 0.00328035 0 0.00328035 -3.74688e-06 0 0 0 0)
(0 0.00326294 0 0.00326294 -3.39973e-06 0 0 0 0)
(0 0.00324337 0 0.00324337 -3.07662e-06 0 0 0 0)
(0 0.0032217 0 0.0032217 -2.77624e-06 0 0 0 0)
(0 0.00319801 0 0.00319801 -2.49732e-06 0 0 0 0)
(0 0.00317234 0 0.00317234 -2.23862e-06 0 0 0 0)
(0 0.00314476 0 0.00314476 -1.99893e-06 0 0 0 0)
(0 0.00311532 0 0.00311532 -1.77706e-06 0 0 0 0)
(0 0.0030841 0 0.0030841 -1.57185e-06 0 0 0 0)
(0 0.00305114 0 0.00305114 -1.38221e-06 0 0 0 0)
(0 0.00301649 0 0.00301649 -1.20725e-06 0 0 0 0)
(0 0.00298021 0 0.00298021 -1.04647e-06 0 0 0 0)
(0 0.00294236 0 0.00294236 -8.99928e-07 0 0 0 0)
(0 0.00290299 0 0.00290299 -7.68283e-07 0 0 0 0)
(0 0.00286214 0 0.00286214 -6.52597e-07 0 0 0 0)
(0 0.00281987 0 0.00281987 -5.53851e-07 0 0 0 0)
(0 0.00277623 0 0.00277623 -4.72292e-07 0 0 0 0)
(0 0.00273128 0 0.00273128 -4.06867e-07 0 0 0 0)
(0 0.00268512 0 0.00268512 -3.54988e-07 0 0 0 0)
(0 0.00263738 0 0.00263738 -3.12705e-07 0 0 0 0)
(-2.58701e-17 0.00258765 0 0.00258765 -2.76334e-07 0 0 0 0)
(0 0.00253589 0 0.00253589 -2.43647e-07 0 0 0 0)
(0 0.00248207 0 0.00248207 -2.13458e-07 0 0 0 0)
(2.40353e-17 0.00242615 0 0.00242615 -1.85289e-07 0 0 0 0)
(0 0.00236806 0 0.00236806 -1.5897e-07 0 0 0 0)
(-2.27827e-17 0.00230779 0 0.00230779 -1.34427e-07 0 0 0 0)
(0 0.00224528 0 0.00224528 -1.11582e-07 0 0 0 0)
(4.30195e-17 0.00218051 0 0.00218051 -9.03171e-08 0 0 0 0)
(0 0.00211348 0 0.00211348 -7.04604e-08 0 0 0 0)
(0 0.00204416 0 0.00204416 -5.18272e-08 0 0 0 0)
(0 0.00197257 0 0.00197257 -3.43117e-08 0 0 0 0)
(3.78411e-17 0.00189874 0 0.00189874 -1.80217e-08 0 0 0 0)
(0 0.00182268 0 0.00182268 -3.38238e-09 0 0 0 0)
(0 0.00174448 0 0.00174448 8.89642e-09 0 0 0 0)
(0 0.0016642 0 0.0016642 1.80525e-08 0 0 0 0)
(0 0.00158196 0 0.00158196 2.36279e-08 0 0 0 0)
(0 0.0014979 0 0.0014979 2.5739e-08 0 0 0 0)
(-3.00814e-17 0.00141222 0 0.00141222 2.50761e-08 0 0 0 0)
(0 0.00132515 0 0.00132515 2.26385e-08 0 0 0 0)
(-2.75914e-17 0.00123697 0 0.00123697 1.93939e-08 0 0 0 0)
(0 0.00114802 0 0.00114802 1.60519e-08 0 0 0 0)
(-2.52105e-17 0.0010587 0 0.0010587 1.30138e-08 0 0 0 0)
(0 0.000969477 0 0.000969477 1.04383e-08 0 0 0 0)
(0 0.000880867 0 0.000880867 8.34072e-09 0 0 0 0)
(0 0.000793451 0 0.000793451 6.6677e-09 0 0 0 0)
(0 0.000707857 0 0.000707857 5.34523e-09 0 0 0 0)
(2.01127e-17 0.000624748 0 0.000624748 4.3016e-09 0 0 0 0)
(1.93094e-17 0.000544793 0 0.000544793 3.47401e-09 0 0 0 0)
(0 0.000468635 0 0.000468635 2.81505e-09 0 0 0 0)
(0 0.000396849 0 0.000396849 2.28981e-09 0 0 0 0)
(0 0.000329901 0 0.000329901 1.86717e-09 0 0 0 0)
(0 0.000268108 0 0.000268108 1.49968e-09 0 0 0 0)
(0 0.000211625 0 0.000211625 1.12894e-09 0 0 0 0)
(0 0.000160439 0 0.000160439 1.15602e-09 0 0 0 0)
(0 0.000114407 0 0.000114407 1.3239e-09 0 0 0 0)
(0 7.32116e-05 0 7.32116e-05 8.90274e-10 0 0 0 0)
(0 3.65089e-05 0 3.65089e-05 4.73772e-10 0 0 0 0)
(0 4.00592e-06 0 4.00592e-06 3.55295e-10 0 0 0 0)
(0 -2.4661e-05 0 -2.4661e-05 2.09124e-10 0 0 0 0)
(0 -4.98331e-05 0 -4.98331e-05 1.15485e-10 0 0 0 0)
(0 -7.18169e-05 0 -7.18169e-05 6.3013e-11 0 0 0 0)
(-3.07707e-17 -9.08795e-05 0 -9.08795e-05 3.43111e-11 0 0 0 0)
(3.02933e-17 -0.000107249 0 -0.000107249 1.89637e-11 0 0 0 0)
(0 -0.00012112 0 -0.00012112 1.00397e-11 0 0 0 0)
(0 -0.000132655 0 -0.000132655 6.072e-12 0 0 0 0)
(-2.83928e-17 -0.000141993 0 -0.000141993 3.67371e-12 0 0 0 0)
(0 -0.000149255 0 -0.000149255 2.39593e-12 0 0 0 0)
(0 -0.000154548 0 -0.000154548 1.76331e-12 0 0 0 0)
(0 -0.000157969 0 -0.000157969 1.70034e-12 0 0 0 0)
(0 -0.000159606 0 -0.000159606 1.39518e-12 0 0 0 0)
(0 -0.000159547 0 -0.000159547 -5.49714e-13 0 0 0 0)
(0 -0.000157875 0 -0.000157875 -7.28524e-13 0 0 0 0)
(0 -0.000154676 0 -0.000154676 2.3932e-14 0 0 0 0)
(0 -0.000150037 0 -0.000150037 5.10854e-14 0 0 0 0)
(0 -0.000144051 0 -0.000144051 4.75125e-15 0 0 0 0)
(0 -0.000136816 0 -0.000136816 -4.85794e-15 0 0 0 0)
(0 -0.000128441 0 -0.000128441 -2.27206e-15 0 0 0 0)
(0 -0.000119044 0 -0.000119044 -6.1645e-16 0 0 0 0)
(0 -0.00010876 0 -0.00010876 -2.65925e-15 0 0 0 0)
(0 -9.77399e-05 0 -9.77399e-05 -9.18618e-15 0 0 0 0)
(0 -8.61561e-05 0 -8.61561e-05 5.15651e-15 0 0 0 0)
(0 -7.42064e-05 0 -7.42064e-05 2.08049e-13 0 0 0 0)
(0 -6.21177e-05 0 -6.21177e-05 -7.14993e-13 0 0 0 0)
(0 -5.015e-05 0 -5.015e-05 1.34828e-12 0 0 0 0)
(7.0676e-18 -3.86004e-05 0 -3.86004e-05 -1.88963e-12 0 0 0 0)
(0 -2.78055e-05 0 -2.78055e-05 2.20666e-12 0 0 0 0)
(0 -1.81443e-05 0 -1.81443e-05 -2.19409e-12 0 0 0 0)
(0 -1.00428e-05 0 -1.00428e-05 1.83207e-12 0 0 0 0)
(0 -3.76074e-06 0 -3.76074e-06 -1.13997e-12 0 0 0 0)
(0 -4.38993e-07 0 -4.38993e-07 3.30606e-13 0 0 0 0)
(0 -1.7766e-08 0 -1.7766e-08 -8.46045e-14 0 0 0 0)
(0 -4.73482e-10 0 -4.73482e-10 7.36949e-14 0 0 0 0)
(0 -4.06836e-12 0 -4.06836e-12 -7.21078e-14 0 0 0 0)
(0 5.63725e-13 0 5.63725e-13 7.07278e-14 0 0 0 0)
(0 4.22871e-13 0 4.22871e-13 -6.93441e-14 0 0 0 0)
(0 2.91992e-13 0 2.91992e-13 6.80612e-14 0 0 0 0)
(0 1.99516e-13 0 1.99516e-13 -6.68052e-14 0 0 0 0)
(0 1.35147e-13 0 1.35147e-13 6.56053e-14 0 0 0 0)
(0 9.11682e-14 0 9.11682e-14 -6.44147e-14 0 0 0 0)
(0 6.11588e-14 0 6.11588e-14 6.33109e-14 0 0 0 0)
(0 4.03997e-14 0 4.03997e-14 -6.21677e-14 0 0 0 0)
(0 2.67181e-14 0 2.67181e-14 6.10895e-14 0 0 0 0)
(0 1.74117e-14 0 1.74117e-14 -6.00107e-14 0 0 0 0)
(0 1.11312e-14 0 1.11312e-14 5.89268e-14 0 0 0 0)
(1.50452e-19 7.17878e-15 0 7.17878e-15 -5.79025e-14 0 0 0 0)
(0 4.50458e-15 0 4.50458e-15 5.67965e-14 0 0 0 0)
(0 2.82439e-15 0 2.82439e-15 -5.58081e-14 0 0 0 0)
(0 1.71634e-15 0 1.71634e-15 5.47042e-14 0 0 0 0)
(0 1.0216e-15 0 1.0216e-15 -5.37266e-14 0 0 0 0)
(0 7.38013e-16 0 7.38013e-16 5.25816e-14 0 0 0 0)
(0 5.01214e-16 0 5.01214e-16 -5.16299e-14 0 0 0 0)
(0 2.05967e-16 0 2.05967e-16 5.04533e-14 0 0 0 0)
(0 4.62478e-17 0 4.62478e-17 -4.9494e-14 0 0 0 0)
(0 -9.71534e-17 0 -9.71534e-17 4.83377e-14 0 0 0 0)
(1.23064e-19 7.22077e-17 0 7.22077e-17 -4.73376e-14 0 0 0 0)
(0 1.81738e-16 0 1.81738e-16 4.61986e-14 0 0 0 0)
(0 2.17813e-17 0 2.17813e-17 -4.51008e-14 0 0 0 0)
(-1.15864e-19 -1.25684e-16 0 -1.25684e-16 4.40309e-14 0 0 0 0)
(0 1.70907e-17 0 1.70907e-17 -4.2884e-14 0 0 0 0)
(0 1.83367e-17 0 1.83367e-17 4.17732e-14 0 0 0 0)
(0 -1.7372e-17 0 -1.7372e-17 -4.06193e-14 0 0 0 0)
(0 1.61898e-16 0 1.61898e-16 3.94727e-14 0 0 0 0)
(0 -1.4309e-16 0 -1.4309e-16 -3.82928e-14 0 0 0 0)
(0 -2.51395e-16 0 -2.51395e-16 3.7123e-14 0 0 0 0)
(0 2.02984e-16 0 2.02984e-16 -3.5911e-14 0 0 0 0)
(0 2.86555e-16 0 2.86555e-16 3.47005e-14 0 0 0 0)
(0 -7.16036e-17 0 -7.16036e-17 -3.34588e-14 0 0 0 0)
(0 -2.48162e-16 0 -2.48162e-16 3.22361e-14 0 0 0 0)
(0 -1.50719e-16 0 -1.50719e-16 -3.54695e-14 0 0 0 0)
(0 -4.24046e-17 0 -4.24046e-17 3.50323e-14 0 0 0 0)
(0 5.43954e-17 0 5.43954e-17 -3.46188e-14 0 0 0 0)
(0 1.19643e-17 0 1.19643e-17 3.42171e-14 0 0 0 0)
(0 2.98314e-17 0 2.98314e-17 -3.37953e-14 0 0 0 0)
(0 5.26484e-17 0 5.26484e-17 3.33834e-14 0 0 0 0)
(0 9.55559e-18 0 9.55559e-18 -3.29621e-14 0 0 0 0)
(0 -5.66453e-18 0 -5.66453e-18 3.25392e-14 0 0 0 0)
(0 -2.91962e-17 0 -2.91962e-17 -3.21207e-14 0 0 0 0)
(0 -1.08579e-16 0 -1.08579e-16 3.16843e-14 0 0 0 0)
(0 -5.51366e-17 0 -5.51366e-17 -3.12541e-14 0 0 0 0)
(0 1.10829e-16 0 1.10829e-16 3.08163e-14 0 0 0 0)
(0 5.83923e-17 0 5.83923e-17 -3.03825e-14 0 0 0 0)
(0 -4.05782e-17 0 -4.05782e-17 2.99191e-14 0 0 0 0)
(0 1.20173e-17 0 1.20173e-17 -2.94949e-14 0 0 0 0)
(0 -6.24687e-18 0 -6.24687e-18 2.9018e-14 0 0 0 0)
(0 9.74088e-18 0 9.74088e-18 -2.85206e-14 0 0 0 0)
(0 3.24255e-17 0 3.24255e-17 2.8268e-14 0 0 0 0)
(0 -4.92338e-17 0 -4.92338e-17 -2.74893e-14 0 0 0 0)
(0 1.06144e-17 0 1.06144e-17 2.74311e-14 0 0 0 0)
(0 3.13932e-17 0 3.13932e-17 -2.63907e-14 0 0 0 0)
(0 -5.20925e-17 0 -5.20925e-17 2.65213e-14 0 0 0 0)
(0 -3.96253e-17 0 -3.96253e-17 -2.54267e-14 0 0 0 0)
(0 5.2516e-17 0 5.2516e-17 2.55044e-14 0 0 0 0)
(0 9.97911e-18 0 9.97911e-18 -2.44826e-14 0 0 0 0)
(0 3.09167e-17 0 3.09167e-17 2.44573e-14 0 0 0 0)
(0 4.54751e-17 0 4.54751e-17 -2.33869e-14 0 0 0 0)
(0 -3.989e-17 0 -3.989e-17 2.34242e-14 0 0 0 0)
(0 -7.30831e-17 0 -7.30831e-17 -2.23905e-14 0 0 0 0)
(0 -1.39734e-16 0 -1.39734e-16 2.21823e-14 0 0 0 0)
(0 -3.60121e-16 0 -3.60121e-16 -2.13153e-14 0 0 0 0)
(0 -5.76512e-17 0 -5.76512e-17 2.09251e-14 0 0 0 0)
(0 3.44954e-16 0 3.44954e-16 -2.02467e-14 0 0 0 0)
(0 1.90582e-16 0 1.90582e-16 1.97525e-14 0 0 0 0)
(0 5.26749e-17 0 5.26749e-17 -1.86694e-14 0 0 0 0)
(0 1.83436e-17 0 1.83436e-17 1.87187e-14 0 0 0 0)
(0 4.32252e-17 0 4.32252e-17 -1.74048e-14 0 0 0 0)
(0 1.09055e-17 0 1.09055e-17 1.70398e-14 0 0 0 0)
(0 -2.50139e-17 0 -2.50139e-17 -1.61309e-14 0 0 0 0)
(0 -7.08331e-17 0 -7.08331e-17 1.53046e-14 0 0 0 0)
(0 1.50878e-17 0 1.50878e-17 -1.49253e-14 0 0 0 0)
(0 1.17076e-16 0 1.17076e-16 1.33528e-14 0 0 0 0)
(0 7.53859e-17 0 7.53859e-17 -1.29948e-14 0 0 0 0)
(0 -3.09961e-17 0 -3.09961e-17 1.15402e-14 0 0 0 0)
(0 -7.59418e-17 0 -7.59418e-17 -1.11866e-14 0 0 0 0)
(0 -8.51268e-17 0 -8.51268e-17 8.78834e-15 0 0 0 0)
(0 -5.23043e-17 0 -5.23043e-17 -8.82598e-15 0 0 0 0)
(0 4.7275e-17 0 4.7275e-17 5.57012e-15 0 0 0 0)
(0 -6.50892e-17 0 -6.50892e-17 -4.76713e-15 0 0 0 0)
(0 -1.01591e-16 0 -1.01591e-16 1.31247e-15 0 0 0 0)
)
;

boundaryField
{
    inandouthalf11
    {
        type            cyclic;
    }
    inandouthalf12
    {
        type            cyclic;
    }
    inandouthalf21
    {
        type            cyclic;
    }
    inandouthalf22
    {
        type            cyclic;
    }
    inandouthalf31
    {
        type            cyclic;
    }
    inandouthalf32
    {
        type            cyclic;
    }
    inandouthalf41
    {
        type            cyclic;
    }
    inandouthalf42
    {
        type            cyclic;
    }
    top
    {
        type            symmetryPlane;
    }
    walls
    {
        type            zeroGradient;
    }
    frontAndBackPlanes
    {
        type            empty;
    }
}


// ************************************************************************* //
