/*--------------------------------*- C++ -*----------------------------------*\
| =========                 |                                                 |
| \\      /  F ield         | OpenFOAM: The Open Source CFD Toolbox           |
|  \\    /   O peration     | Version:  2.4.x                                 |
|   \\  /    A nd           | Web:      www.OpenFOAM.org                      |
|    \\/     M anipulation  |                                                 |
\*---------------------------------------------------------------------------*/
FoamFile
{
    version     2.0;
    format      ascii;
    class       volTensorField;
    location    "10";
    object      Taus;
}
// * * * * * * * * * * * * * * * * * * * * * * * * * * * * * * * * * * * * * //

dimensions      [0 2 -2 0 0 0 0];

internalField   nonuniform List<tensor> 
360
(
(0 -0.00131951 0 -0.00131951 -0.210314 0 0 0 0)
(0 -0.00179068 0 -0.00179068 -0.268262 0 0 0 0)
(0 -0.00183172 0 -0.00183172 -0.275304 0 0 0 0)
(0 -0.00140852 0 -0.00140852 -0.268374 0 0 0 0)
(6.26893e-19 -0.00102488 0 -0.00102488 -0.265165 0 0 0 0)
(1.25058e-18 -0.000691007 0 -0.000691007 -0.264162 0 0 0 0)
(1.26811e-18 -0.000362022 0 -0.000362022 -0.262899 0 0 0 0)
(0 -3.57229e-05 0 -3.57229e-05 -0.26127 0 0 0 0)
(6.43396e-19 0.000283967 0 0.000283967 -0.259608 0 0 0 0)
(0 0.000596627 0 0.000596627 -0.25794 0 0 0 0)
(6.38302e-19 0.000902605 0 0.000902605 -0.256267 0 0 0 0)
(0 0.00120242 0 0.00120242 -0.254607 0 0 0 0)
(3.1268e-19 0.00149634 0 0.00149634 -0.252941 0 0 0 0)
(0 0.00178463 0 0.00178463 -0.251274 0 0 0 0)
(0 0.00206748 0 0.00206748 -0.2496 0 0 0 0)
(0 0.00234502 0 0.00234502 -0.247916 0 0 0 0)
(0 0.00261752 0 0.00261752 -0.246225 0 0 0 0)
(-5.74258e-19 0.00288535 0 0.00288535 -0.244532 0 0 0 0)
(0 0.00314862 0 0.00314862 -0.242835 0 0 0 0)
(0 0.00340734 0 0.00340734 -0.241123 0 0 0 0)
(0 0.00366213 0 0.00366213 -0.239421 0 0 0 0)
(-2.10329e-18 0.00391266 0 0.00391266 -0.237702 0 0 0 0)
(0 0.00415922 0 0.00415922 -0.23598 0 0 0 0)
(0 0.00440203 0 0.00440203 -0.234254 0 0 0 0)
(0 0.00464105 0 0.00464105 -0.23252 0 0 0 0)
(-3.82616e-18 0.00487656 0 0.00487656 -0.230783 0 0 0 0)
(0 0.00510867 0 0.00510867 -0.229045 0 0 0 0)
(0 0.005337 0 0.005337 -0.227294 0 0 0 0)
(0 0.00556205 0 0.00556205 -0.225541 0 0 0 0)
(0 0.00578401 0 0.00578401 -0.223786 0 0 0 0)
(0 0.00600254 0 0.00600254 -0.222026 0 0 0 0)
(0 0.0062176 0 0.0062176 -0.220252 0 0 0 0)
(0 0.00643022 0 0.00643022 -0.218495 0 0 0 0)
(0 0.00663861 0 0.00663861 -0.216706 0 0 0 0)
(0 0.00684458 0 0.00684458 -0.214934 0 0 0 0)
(6.06247e-18 0.00704729 0 0.00704729 -0.213147 0 0 0 0)
(0 0.00724723 0 0.00724723 -0.211366 0 0 0 0)
(0 0.00744345 0 0.00744345 -0.209572 0 0 0 0)
(0 0.00763645 0 0.00763645 -0.207767 0 0 0 0)
(0 0.00782785 0 0.00782785 -0.205986 0 0 0 0)
(0 0.00801437 0 0.00801437 -0.204169 0 0 0 0)
(0 0.00819856 0 0.00819856 -0.202362 0 0 0 0)
(1.04826e-17 0.0083807 0 0.0083807 -0.200565 0 0 0 0)
(0 0.00855818 0 0.00855818 -0.198739 0 0 0 0)
(0 0.00873351 0 0.00873351 -0.196928 0 0 0 0)
(0 0.00890531 0 0.00890531 -0.195106 0 0 0 0)
(0 0.00907385 0 0.00907385 -0.193274 0 0 0 0)
(0 0.00924123 0 0.00924123 -0.191463 0 0 0 0)
(0 0.00940387 0 0.00940387 -0.189631 0 0 0 0)
(0 0.00956228 0 0.00956228 -0.187783 0 0 0 0)
(1.81502e-17 0.00972 0 0.00972 -0.185962 0 0 0 0)
(0 0.00987356 0 0.00987356 -0.184118 0 0 0 0)
(0 0.010024 0 0.010024 -0.182279 0 0 0 0)
(0 0.0101711 0 0.0101711 -0.180429 0 0 0 0)
(0 0.0103161 0 0.0103161 -0.178593 0 0 0 0)
(0 0.0104562 0 0.0104562 -0.176729 0 0 0 0)
(0 0.010595 0 0.010595 -0.174889 0 0 0 0)
(0 0.010729 0 0.010729 -0.173025 0 0 0 0)
(0 0.0108608 0 0.0108608 -0.171169 0 0 0 0)
(0 0.0109905 0 0.0109905 -0.169322 0 0 0 0)
(0 0.0111145 0 0.0111145 -0.167445 0 0 0 0)
(0 0.0112371 0 0.0112371 -0.165591 0 0 0 0)
(0 0.0113551 0 0.0113551 -0.163717 0 0 0 0)
(0 0.0114706 0 0.0114706 -0.161851 0 0 0 0)
(0 0.0115829 0 0.0115829 -0.159978 0 0 0 0)
(0 0.0116923 0 0.0116923 -0.158109 0 0 0 0)
(0 0.0117975 0 0.0117975 -0.156232 0 0 0 0)
(0 0.0118991 0 0.0118991 -0.154352 0 0 0 0)
(0 0.0119986 0 0.0119986 -0.152474 0 0 0 0)
(0 0.0120958 0 0.0120958 -0.150603 0 0 0 0)
(0 0.0121867 0 0.0121867 -0.148713 0 0 0 0)
(0 0.0122742 0 0.0122742 -0.146821 0 0 0 0)
(0 0.0123615 0 0.0123615 -0.144948 0 0 0 0)
(0 0.0124431 0 0.0124431 -0.143053 0 0 0 0)
(0 0.0125212 0 0.0125212 -0.141166 0 0 0 0)
(0 0.0125952 0 0.0125952 -0.139267 0 0 0 0)
(0 0.0126676 0 0.0126676 -0.137379 0 0 0 0)
(0 0.0127363 0 0.0127363 -0.135486 0 0 0 0)
(0 0.0128008 0 0.0128008 -0.133588 0 0 0 0)
(0 0.0128617 0 0.0128617 -0.131689 0 0 0 0)
(0 0.01292 0 0.01292 -0.129793 0 0 0 0)
(0 0.0129741 0 0.0129741 -0.127893 0 0 0 0)
(0 0.0130243 0 0.0130243 -0.12599 0 0 0 0)
(0 0.0130712 0 0.0130712 -0.124087 0 0 0 0)
(0 0.0131144 0 0.0131144 -0.122181 0 0 0 0)
(0 0.0131541 0 0.0131541 -0.120276 0 0 0 0)
(0 0.0131902 0 0.0131902 -0.118367 0 0 0 0)
(0 0.0132231 0 0.0132231 -0.116459 0 0 0 0)
(0 0.0132527 0 0.0132527 -0.11455 0 0 0 0)
(0 0.0132786 0 0.0132786 -0.11264 0 0 0 0)
(0 0.0133009 0 0.0133009 -0.110729 0 0 0 0)
(0 0.0133198 0 0.0133198 -0.108816 0 0 0 0)
(0 0.0133348 0 0.0133348 -0.106902 0 0 0 0)
(0 0.0133462 0 0.0133462 -0.104987 0 0 0 0)
(0 0.0133541 0 0.0133541 -0.103071 0 0 0 0)
(0 0.0133584 0 0.0133584 -0.101153 0 0 0 0)
(0 0.0133594 0 0.0133594 -0.0992348 0 0 0 0)
(0 0.0133572 0 0.0133572 -0.0973157 0 0 0 0)
(0 0.0133517 0 0.0133517 -0.0953957 0 0 0 0)
(0 0.0133431 0 0.0133431 -0.0934749 0 0 0 0)
(0 0.0133313 0 0.0133313 -0.0915532 0 0 0 0)
(0 0.0133164 0 0.0133164 -0.0896307 0 0 0 0)
(0 0.0132985 0 0.0132985 -0.0877072 0 0 0 0)
(0 0.0132777 0 0.0132777 -0.0857827 0 0 0 0)
(0 0.0132542 0 0.0132542 -0.0838574 0 0 0 0)
(0 0.0132281 0 0.0132281 -0.0819313 0 0 0 0)
(0 0.0131996 0 0.0131996 -0.0800043 0 0 0 0)
(0 0.013169 0 0.013169 -0.0780765 0 0 0 0)
(0 0.0131364 0 0.0131364 -0.0761479 0 0 0 0)
(0 0.0131022 0 0.0131022 -0.0742185 0 0 0 0)
(0 0.0130664 0 0.0130664 -0.0722883 0 0 0 0)
(0 0.0130295 0 0.0130295 -0.0703572 0 0 0 0)
(0 0.0129917 0 0.0129917 -0.0684252 0 0 0 0)
(0 0.0129532 0 0.0129532 -0.0664922 0 0 0 0)
(0 0.0129145 0 0.0129145 -0.0645581 0 0 0 0)
(0 0.0128758 0 0.0128758 -0.0626226 0 0 0 0)
(0 0.0128374 0 0.0128374 -0.0606855 0 0 0 0)
(0 0.0127997 0 0.0127997 -0.0587464 0 0 0 0)
(0 0.0127628 0 0.0127628 -0.0568049 0 0 0 0)
(0 0.0127269 0 0.0127269 -0.0548604 0 0 0 0)
(0 0.012692 0 0.012692 -0.0529123 0 0 0 0)
(0 0.012658 0 0.012658 -0.0509601 0 0 0 0)
(0 0.0126246 0 0.0126246 -0.0490032 0 0 0 0)
(0 0.0125914 0 0.0125914 -0.0470411 0 0 0 0)
(0 0.0125581 0 0.0125581 -0.0450735 0 0 0 0)
(0 0.0125239 0 0.0125239 -0.0430996 0 0 0 0)
(0 0.012488 0 0.012488 -0.0411185 0 0 0 0)
(0 0.0124494 0 0.0124494 -0.0391284 0 0 0 0)
(0 0.0124075 0 0.0124075 -0.0371268 0 0 0 0)
(0 0.0123632 0 0.0123632 -0.0351106 0 0 0 0)
(0 0.0123196 0 0.0123196 -0.0330758 0 0 0 0)
(0 0.0122796 0 0.0122796 -0.0310177 0 0 0 0)
(0 0.0122392 0 0.0122392 -0.0289312 0 0 0 0)
(0 0.0121829 0 0.0121829 -0.0268147 0 0 0 0)
(0 0.0120916 0 0.0120916 -0.0246755 0 0 0 0)
(0 0.0119594 0 0.0119594 -0.0225312 0 0 0 0)
(0 0.0117848 0 0.0117848 -0.0204052 0 0 0 0)
(0 0.0115422 0 0.0115422 -0.0183226 0 0 0 0)
(0 0.0111809 0 0.0111809 -0.0162984 0 0 0 0)
(0 0.010699 0 0.010699 -0.0142822 0 0 0 0)
(0 0.0103358 0 0.0103358 -0.0118975 0 0 0 0)
(0 0.00993883 0 0.00993883 -0.00925887 0 0 0 0)
(0 0.000337249 0 0.000337249 -0.0069361 0 0 0 0)
(0 0.000548178 0 0.000548178 -0.00583531 0 0 0 0)
(0 0.0011814 0 0.0011814 -0.00503272 0 0 0 0)
(0 0.00206158 0 0.00206158 -0.00205841 0 0 0 0)
(0 0.00178042 0 0.00178042 -0.000101036 0 0 0 0)
(0 0.00109732 0 0.00109732 -9.07974e-05 0 0 0 0)
(0 0.00169298 0 0.00169298 -0.000113296 0 0 0 0)
(0 0.00137742 0 0.00137742 -7.15134e-05 0 0 0 0)
(0 0.0011766 0 0.0011766 -8.1058e-05 0 0 0 0)
(0 0.00111192 0 0.00111192 -7.33068e-05 0 0 0 0)
(0 0.00110921 0 0.00110921 -5.92323e-05 0 0 0 0)
(0 0.00114112 0 0.00114112 -4.62837e-05 0 0 0 0)
(0 0.00119487 0 0.00119487 -3.7116e-05 0 0 0 0)
(0 0.00126402 0 0.00126402 -3.0314e-05 0 0 0 0)
(0 0.00134505 0 0.00134505 -2.45463e-05 0 0 0 0)
(0 0.001436 0 0.001436 -1.87899e-05 0 0 0 0)
(0 0.00153562 0 0.00153562 -1.23753e-05 0 0 0 0)
(0 0.00164322 0 0.00164322 -4.90192e-06 0 0 0 0)
(0 0.00175841 0 0.00175841 3.87537e-06 0 0 0 0)
(0 0.00188098 0 0.00188098 1.40939e-05 0 0 0 0)
(0 0.00201095 0 0.00201095 2.58122e-05 0 0 0 0)
(0 0.00214842 0 0.00214842 3.90481e-05 0 0 0 0)
(0 0.00229364 0 0.00229364 5.3805e-05 0 0 0 0)
(0 0.00244687 0 0.00244687 7.00785e-05 0 0 0 0)
(0 0.00260852 0 0.00260852 8.78628e-05 0 0 0 0)
(0 0.00277902 0 0.00277902 0.000107157 0 0 0 0)
(0 0.00295889 0 0.00295889 0.000127971 0 0 0 0)
(0 0.00314869 0 0.00314869 0.00015033 0 0 0 0)
(0 0.00334906 0 0.00334906 0.000174274 0 0 0 0)
(0 0.00356069 0 0.00356069 0.000199858 0 0 0 0)
(0 0.00378434 0 0.00378434 0.000227148 0 0 0 0)
(0 0.00402084 0 0.00402084 0.000256229 0 0 0 0)
(0 0.00427107 0 0.00427107 0.000287201 0 0 0 0)
(0 0.00453599 0 0.00453599 0.000320169 0 0 0 0)
(0 0.00481664 0 0.00481664 0.000355248 0 0 0 0)
(0 0.00511414 0 0.00511414 0.000392561 0 0 0 0)
(0 0.00542966 0 0.00542966 0.000432233 0 0 0 0)
(0 0.00576447 0 0.00576447 0.000474384 0 0 0 0)
(0 0.0061199 0 0.0061199 0.000519122 0 0 0 0)
(0 0.00649739 0 0.00649739 0.000566544 0 0 0 0)
(0 0.00689843 0 0.00689843 0.000616708 0 0 0 0)
(0 0.00732462 0 0.00732462 0.00066963 0 0 0 0)
(0 0.00777764 0 0.00777764 0.000725254 0 0 0 0)
(0 0.00825927 0 0.00825927 0.000783425 0 0 0 0)
(0 0.0087714 0 0.0087714 0.000843851 0 0 0 0)
(0 0.00931608 0 0.00931608 0.000906032 0 0 0 0)
(0 0.0098955 0 0.0098955 0.000969167 0 0 0 0)
(0 0.0105121 0 0.0105121 0.00103202 0 0 0 0)
(0 0.0111686 0 0.0111686 0.00109276 0 0 0 0)
(0 0.0118683 0 0.0118683 0.00114887 0 0 0 0)
(0 0.0126146 0 0.0126146 0.00119726 0 0 0 0)
(0 0.0134117 0 0.0134117 0.00123487 0 0 0 0)
(0 0.0142636 0 0.0142636 0.00125994 0 0 0 0)
(0 0.0151739 0 0.0151739 0.00127393 0 0 0 0)
(0 0.0161447 0 0.0161447 0.0012837 0 0 0 0)
(0 0.0171749 0 0.0171749 0.00130288 0 0 0 0)
(0 0.0182601 0 0.0182601 0.00135117 0 0 0 0)
(0 0.0193918 0 0.0193918 0.00145 0 0 0 0)
(0 0.0205599 0 0.0205599 0.00161459 0 0 0 0)
(0 0.0217723 0 0.0217723 0.00185039 0 0 0 0)
(-5.48579e-16 0.0230409 0 0.0230409 0.00215343 0 0 0 0)
(0 0.024364 0 0.024364 0.00251469 0 0 0 0)
(0 0.0257393 0 0.0257393 0.00292762 0 0 0 0)
(6.7842e-16 0.0271644 0 0.0271644 0.00338954 0 0 0 0)
(0 0.0286375 0 0.0286375 0.0039 0 0 0 0)
(-7.84828e-16 0.0301571 0 0.0301571 0.00445879 0 0 0 0)
(0 0.0317235 0 0.0317235 0.00506406 0 0 0 0)
(9.129e-16 0.0333398 0 0.0333398 0.00570969 0 0 0 0)
(0 0.0350161 0 0.0350161 0.00638185 0 0 0 0)
(0 0.0367734 0 0.0367734 0.00705471 0 0 0 0)
(0 0.0386496 0 0.0386496 0.00768666 0 0 0 0)
(1.28024e-15 0.0407036 0 0.0407036 0.00821902 0 0 0 0)
(0 0.043015 0 0.043015 0.00857961 0 0 0 0)
(0 0.0456744 0 0.0456744 0.00869281 0 0 0 0)
(0 0.048763 0 0.048763 0.00849495 0 0 0 0)
(0 0.0523234 0 0.0523234 0.00795182 0 0 0 0)
(0 0.0563296 0 0.0563296 0.00707165 0 0 0 0)
(-2.58891e-15 0.0606725 0 0.0606725 0.00590875 0 0 0 0)
(0 0.0651631 0 0.0651631 0.00455376 0 0 0 0)
(-3.34369e-15 0.0695635 0 0.0695635 0.0031145 0 0 0 0)
(0 0.0736172 0 0.0736172 0.00169305 0 0 0 0)
(-4.20699e-15 0.0770911 0 0.0770911 0.000369696 0 0 0 0)
(0 0.0797785 0 0.0797785 -0.000807795 0 0 0 0)
(0 0.0815322 0 0.0815322 -0.0018164 0 0 0 0)
(0 0.0821927 0 0.0821927 -0.00267379 0 0 0 0)
(0 0.0817546 0 0.0817546 -0.00339373 0 0 0 0)
(6.36151e-15 0.0799078 0 0.0799078 -0.00403969 0 0 0 0)
(6.72372e-15 0.0769803 0 0.0769803 -0.00464375 0 0 0 0)
(0 0.0721112 0 0.0721112 -0.00528556 0 0 0 0)
(0 0.0663056 0 0.0663056 -0.00601031 0 0 0 0)
(0 0.0577483 0 0.0577483 -0.00694323 0 0 0 0)
(0 0.0484806 0 0.0484806 -0.00810881 0 0 0 0)
(0 0.0357005 0 0.0357005 -0.00983653 0 0 0 0)
(0 0.0283337 0 0.0283337 -0.0136009 0 0 0 0)
(0 0 0 0 -0 0 0 0 0)
(0 0 0 0 -0 0 0 0 0)
(0 0 0 0 0 0 0 0 0)
(0 0 0 0 -0 0 0 0 0)
(0 -0 0 -0 -0 0 0 0 0)
(0 -0 0 -0 -0 0 0 0 0)
(0 -0 0 -0 -0 0 0 0 0)
(-0 -0 0 -0 0 0 0 0 0)
(0 -0 0 -0 -0 0 0 0 0)
(0 -0 0 -0 0 0 0 0 0)
(0 -0 0 -0 -0 0 0 0 0)
(-0 -0 0 -0 0 0 0 0 0)
(0 -0 0 -0 -0 0 0 0 0)
(0 -0 0 -0 0 0 0 0 0)
(-0 -0 0 -0 -0 0 0 0 0)
(0 -0 0 -0 -0 0 0 0 0)
(0 -0 0 -0 -0 0 0 0 0)
(0 -0 0 -0 -0 0 0 0 0)
(0 -0 0 -0 0 0 0 0 0)
(0 -0 0 -0 -0 0 0 0 0)
(0 -0 0 -0 -0 0 0 0 0)
(0 -0 0 -0 -0 0 0 0 0)
(0 -0 0 -0 -0 0 0 0 0)
(0 -0 0 -0 -0 0 0 0 0)
(0 -0 0 -0 -0 0 0 0 0)
(0 -0 0 -0 0 0 0 0 0)
(0 -0 0 -0 0 0 0 0 0)
(0 -0 0 -0 0 0 0 0 0)
(0 -0 0 -0 0 0 0 0 0)
(0 -0 0 -0 0 0 0 0 0)
(0 -0 0 -0 0 0 0 0 0)
(0 -0 0 -0 0 0 0 0 0)
(0 -0 0 -0 0 0 0 0 0)
(0 -0 0 -0 0 0 0 0 0)
(0 -0 0 -0 0 0 0 0 0)
(0 -0 0 -0 0 0 0 0 0)
(0 -0 0 -0 0 0 0 0 0)
(0 -0 0 -0 0 0 0 0 0)
(0 -0 0 -0 0 0 0 0 0)
(0 0 0 0 0 0 0 0 0)
(0 0 0 0 -0 0 0 0 0)
(0 0 0 0 0 0 0 0 0)
(0 0 0 0 -0 0 0 0 0)
(0 0 0 0 0 0 0 0 0)
(0 0 0 0 -0 0 0 0 0)
(0 0 0 0 0 0 0 0 0)
(0 0 0 0 -0 0 0 0 0)
(0 0 0 0 0 0 0 0 0)
(0 0 0 0 -0 0 0 0 0)
(0 0 0 0 0 0 0 0 0)
(0 0 0 0 -0 0 0 0 0)
(0 0 0 0 0 0 0 0 0)
(0 0 0 0 -0 0 0 0 0)
(0 0 0 0 0 0 0 0 0)
(0 0 0 0 -0 0 0 0 0)
(0 -0 0 -0 0 0 0 0 0)
(0 0 0 0 -0 0 0 0 0)
(0 -0 0 -0 0 0 0 0 0)
(0 0 0 0 -0 0 0 0 0)
(0 -0 0 -0 0 0 0 0 0)
(0 0 0 0 -0 0 0 0 0)
(0 -0 0 -0 0 0 0 0 0)
(0 0 0 0 -0 0 0 0 0)
(-0 -0 0 -0 0 0 0 0 0)
(0 0 0 0 -0 0 0 0 0)
(0 -0 0 -0 0 0 0 0 0)
(0 0 0 0 -0 0 0 0 0)
(0 -0 0 -0 0 0 0 0 0)
(0 0 0 0 -0 0 0 0 0)
(0 -0 0 -0 0 0 0 0 0)
(0 0 0 0 -0 0 0 0 0)
(0 -0 0 -0 0 0 0 0 0)
(0 0 0 0 -0 0 0 0 0)
(0 -0 0 -0 0 0 0 0 0)
(0 0 0 0 -0 0 0 0 0)
(0 -0 0 -0 0 0 0 0 0)
(0 0 0 0 -0 0 0 0 0)
(0 -0 0 -0 0 0 0 0 0)
(0 0 0 0 -0 0 0 0 0)
(0 -0 0 -0 0 0 0 0 0)
(0 0 0 0 -0 0 0 0 0)
(0 -0 0 -0 0 0 0 0 0)
(0 0 0 0 -0 0 0 0 0)
(0 -0 0 -0 0 0 0 0 0)
(0 0 0 0 -0 0 0 0 0)
(0 -0 0 -0 0 0 0 0 0)
(0 0 0 0 -0 0 0 0 0)
(0 -0 0 -0 0 0 0 0 0)
(0 0 0 0 -0 0 0 0 0)
(0 -0 0 -0 0 0 0 0 0)
(0 0 0 0 -0 0 0 0 0)
(0 -0 0 -0 0 0 0 0 0)
(0 0 0 0 -0 0 0 0 0)
(0 -0 0 -0 0 0 0 0 0)
(0 0 0 0 -0 0 0 0 0)
(0 -0 0 -0 0 0 0 0 0)
(0 0 0 0 -0 0 0 0 0)
(0 -0 0 -0 0 0 0 0 0)
(0 0 0 0 -0 0 0 0 0)
(0 -0 0 -0 0 0 0 0 0)
(0 0 0 0 -0 0 0 0 0)
(0 -0 0 -0 0 0 0 0 0)
(0 0 0 0 -0 0 0 0 0)
(0 -0 0 -0 0 0 0 0 0)
(0 -0 0 -0 -0 0 0 0 0)
(0 -0 0 -0 0 0 0 0 0)
(0 0 0 0 -0 0 0 0 0)
(0 -0 0 -0 0 0 0 0 0)
(0 0 0 0 -0 0 0 0 0)
(0 -0 0 -0 0 0 0 0 0)
(0 0 0 0 -0 0 0 0 0)
(0 -0 0 -0 0 0 0 0 0)
(0 0 0 0 -0 0 0 0 0)
(0 -0 0 -0 0 0 0 0 0)
(0 0 0 0 -0 0 0 0 0)
(0 -0 0 -0 0 0 0 0 0)
(0 0 0 0 -0 0 0 0 0)
(0 0 0 0 0 0 0 0 0)
(0 0 0 0 0 0 0 0 0)
(0 0 0 0 0 0 0 0 0)
(0 0 0 0 0 0 0 0 0)
(0 0 0 0 0 0 0 0 0)
(0 0 0 0 0 0 0 0 0)
(0 0 0 0 0 0 0 0 0)
)
;

boundaryField
{
    inandouthalf11
    {
        type            cyclic;
    }
    inandouthalf12
    {
        type            cyclic;
    }
    inandouthalf21
    {
        type            cyclic;
    }
    inandouthalf22
    {
        type            cyclic;
    }
    inandouthalf31
    {
        type            cyclic;
    }
    inandouthalf32
    {
        type            cyclic;
    }
    inandouthalf41
    {
        type            cyclic;
    }
    inandouthalf42
    {
        type            cyclic;
    }
    top
    {
        type            symmetryPlane;
    }
    walls
    {
        type            zeroGradient;
    }
    frontAndBackPlanes
    {
        type            empty;
    }
}


// ************************************************************************* //
