/*--------------------------------*- C++ -*----------------------------------*\
| =========                 |                                                 |
| \\      /  F ield         | OpenFOAM: The Open Source CFD Toolbox           |
|  \\    /   O peration     | Version:  2.4.x                                 |
|   \\  /    A nd           | Web:      www.OpenFOAM.org                      |
|    \\/     M anipulation  |                                                 |
\*---------------------------------------------------------------------------*/
FoamFile
{
    version     2.0;
    format      ascii;
    class       volScalarField;
    location    "10";
    object      Theta;
}
// * * * * * * * * * * * * * * * * * * * * * * * * * * * * * * * * * * * * * //

dimensions      [0 2 -2 0 0 0 0];

internalField   nonuniform List<scalar> 
360
(
6.66141e-21
6.6615e-21
6.66147e-21
6.66145e-21
6.66146e-21
6.66146e-21
6.66145e-21
6.66145e-21
6.66145e-21
6.66145e-21
6.66145e-21
6.66145e-21
6.66145e-21
6.66145e-21
6.66145e-21
6.66145e-21
6.66145e-21
6.66145e-21
6.66145e-21
6.66145e-21
6.66145e-21
6.66146e-21
6.66146e-21
6.66146e-21
6.66146e-21
6.66146e-21
6.66146e-21
6.66147e-21
6.66147e-21
6.66147e-21
6.66147e-21
6.66148e-21
6.66148e-21
6.66148e-21
6.66148e-21
6.66148e-21
6.66149e-21
6.66149e-21
6.66149e-21
6.66149e-21
6.66149e-21
6.6615e-21
6.6615e-21
6.6615e-21
6.6615e-21
6.6615e-21
6.66151e-21
6.66151e-21
6.66151e-21
6.66151e-21
6.66151e-21
6.66151e-21
6.66151e-21
6.66151e-21
6.66151e-21
6.66151e-21
6.66151e-21
6.66152e-21
6.66152e-21
6.66151e-21
6.66151e-21
6.66151e-21
6.66151e-21
6.66151e-21
6.66151e-21
6.66151e-21
6.66151e-21
6.66151e-21
6.66151e-21
6.6615e-21
6.6615e-21
6.6615e-21
6.6615e-21
6.6615e-21
6.66149e-21
6.66149e-21
6.66149e-21
6.66148e-21
6.66148e-21
6.66148e-21
6.66147e-21
6.66147e-21
6.66147e-21
6.66146e-21
6.66146e-21
6.66146e-21
6.66145e-21
6.66145e-21
6.66144e-21
6.66144e-21
6.66144e-21
6.66143e-21
6.66143e-21
6.66142e-21
6.66142e-21
6.66141e-21
6.66141e-21
6.6614e-21
6.6614e-21
6.66139e-21
6.66139e-21
6.66139e-21
6.66138e-21
6.66138e-21
6.66137e-21
6.66137e-21
6.66136e-21
6.66136e-21
6.66135e-21
6.66135e-21
6.66135e-21
6.66134e-21
6.66134e-21
6.66133e-21
6.66133e-21
6.66132e-21
6.66132e-21
6.66132e-21
6.66131e-21
6.66131e-21
6.6613e-21
6.6613e-21
6.66129e-21
6.66129e-21
6.66128e-21
6.66129e-21
1.94525e-20
7.39546e-20
2.77201e-19
1.0028e-18
3.51025e-18
1.19703e-17
4.01265e-17
1.33593e-16
4.46665e-16
1.52e-15
5.36525e-15
2.01573e-14
8.32354e-14
3.9388e-13
2.24926e-12
1.62711e-11
1.63368e-10
1.97848e-09
3.5395e-08
1.272e-06
2.73967e-05
0.000393172
0.0013873
0.00197182
0.00241439
0.0028139
0.00317704
0.00350907
0.00381403
0.00409471
0.00435304
0.00459085
0.00480947
0.00501037
0.00519478
0.00536372
0.00551825
0.0056593
0.00578784
0.00590456
0.00601026
0.00610554
0.00619107
0.00626733
0.00633491
0.00639422
0.0064457
0.0064898
0.00652687
0.00655725
0.00658127
0.00659928
0.00661154
0.00661835
0.00661993
0.00661657
0.00660846
0.00659583
0.00657887
0.00655779
0.00653276
0.00650395
0.00647151
0.0064356
0.00639634
0.00635387
0.0063083
0.00625975
0.0062083
0.00615405
0.00609708
0.00603748
0.00597533
0.00591071
0.00584372
0.00577377
0.00570017
0.00562292
0.00554204
0.00545756
0.00536953
0.00527801
0.00518306
0.00508475
0.00498315
0.00487834
0.00477039
0.00465936
0.00454527
0.00442813
0.0043079
0.00418446
0.00405767
0.00392731
0.00379311
0.00365475
0.00351185
0.00336398
0.00321063
0.00305119
0.00288495
0.00271104
0.00252836
0.00233556
0.0021308
0.00191166
0.00167459
0.00141414
0.00112074
0.000773679
0
0
0
0
0
0
0
0
0
0
0
0
0
0
0
0
0
0
0
0
0
0
0
0
0
0
0
0
0
0
0
0
0
0
0
0
0
0
0
0
0
0
0
0
0
0
0
0
0
0
0
0
0
0
0
0
0
0
0
0
0
0
0
0
0
0
0
0
0
0
0
0
0
0
0
0
0
0
0
0
0
0
0
0
0
0
0
0
0
0
0
0
0
0
0
0
0
0
0
0
0
0
0
0
0
0
0
0
0
0
0
0
0
0
0
0
0
0
0
0
0
0
0
0
)
;

boundaryField
{
    inandouthalf11
    {
        type            cyclic;
    }
    inandouthalf12
    {
        type            cyclic;
    }
    inandouthalf21
    {
        type            cyclic;
    }
    inandouthalf22
    {
        type            cyclic;
    }
    inandouthalf31
    {
        type            cyclic;
    }
    inandouthalf32
    {
        type            cyclic;
    }
    inandouthalf41
    {
        type            cyclic;
    }
    inandouthalf42
    {
        type            cyclic;
    }
    top
    {
        type            symmetryPlane;
    }
    walls
    {
        type            zeroGradient;
    }
    frontAndBackPlanes
    {
        type            empty;
    }
}


// ************************************************************************* //
