/*--------------------------------*- C++ -*----------------------------------*\
| =========                 |                                                 |
| \\      /  F ield         | OpenFOAM: The Open Source CFD Toolbox           |
|  \\    /   O peration     | Version:  2.4.x                                 |
|   \\  /    A nd           | Web:      www.OpenFOAM.org                      |
|    \\/     M anipulation  |                                                 |
\*---------------------------------------------------------------------------*/
FoamFile
{
    version     2.0;
    format      ascii;
    class       volScalarField;
    location    "10";
    object      Theta_0;
}
// * * * * * * * * * * * * * * * * * * * * * * * * * * * * * * * * * * * * * //

dimensions      [0 2 -2 0 0 0 0];

internalField   nonuniform List<scalar> 
360
(
6.66141e-21
6.6615e-21
6.66147e-21
6.66145e-21
6.66146e-21
6.66146e-21
6.66145e-21
6.66145e-21
6.66145e-21
6.66145e-21
6.66145e-21
6.66145e-21
6.66145e-21
6.66145e-21
6.66145e-21
6.66145e-21
6.66145e-21
6.66145e-21
6.66145e-21
6.66145e-21
6.66145e-21
6.66146e-21
6.66146e-21
6.66146e-21
6.66146e-21
6.66146e-21
6.66146e-21
6.66147e-21
6.66147e-21
6.66147e-21
6.66147e-21
6.66148e-21
6.66148e-21
6.66148e-21
6.66148e-21
6.66148e-21
6.66149e-21
6.66149e-21
6.66149e-21
6.66149e-21
6.66149e-21
6.6615e-21
6.6615e-21
6.6615e-21
6.6615e-21
6.6615e-21
6.66151e-21
6.66151e-21
6.66151e-21
6.66151e-21
6.66151e-21
6.66151e-21
6.66151e-21
6.66151e-21
6.66151e-21
6.66151e-21
6.66152e-21
6.66152e-21
6.66152e-21
6.66152e-21
6.66151e-21
6.66151e-21
6.66151e-21
6.66151e-21
6.66151e-21
6.66151e-21
6.66151e-21
6.66151e-21
6.66151e-21
6.6615e-21
6.6615e-21
6.6615e-21
6.6615e-21
6.6615e-21
6.66149e-21
6.66149e-21
6.66149e-21
6.66148e-21
6.66148e-21
6.66148e-21
6.66147e-21
6.66147e-21
6.66147e-21
6.66146e-21
6.66146e-21
6.66146e-21
6.66145e-21
6.66145e-21
6.66144e-21
6.66144e-21
6.66144e-21
6.66143e-21
6.66143e-21
6.66142e-21
6.66142e-21
6.66141e-21
6.66141e-21
6.6614e-21
6.6614e-21
6.66139e-21
6.66139e-21
6.66139e-21
6.66138e-21
6.66138e-21
6.66137e-21
6.66137e-21
6.66136e-21
6.66136e-21
6.66135e-21
6.66135e-21
6.66135e-21
6.66134e-21
6.66134e-21
6.66133e-21
6.66133e-21
6.66132e-21
6.66132e-21
6.66132e-21
6.66131e-21
6.66131e-21
6.6613e-21
6.6613e-21
6.66129e-21
6.66129e-21
6.66128e-21
6.66129e-21
1.94544e-20
7.39738e-20
2.77319e-19
1.00339e-18
3.51289e-18
1.19811e-17
4.01694e-17
1.33759e-16
4.47306e-16
1.52251e-15
5.37542e-15
2.02015e-14
8.34474e-14
3.95033e-13
2.25672e-12
1.63318e-11
1.64044e-10
1.98776e-09
3.56036e-08
1.27976e-06
2.75214e-05
0.00039437
0.00138822
0.00197234
0.00241522
0.00281478
0.00317789
0.00350988
0.0038148
0.00409546
0.00435377
0.00459158
0.0048102
0.00501111
0.00519552
0.00536446
0.00551899
0.00566005
0.00578859
0.00590531
0.00601101
0.00610629
0.00619181
0.00626807
0.00633564
0.00639494
0.00644642
0.00649051
0.00652756
0.00655793
0.00658194
0.00659994
0.00661218
0.00661897
0.00662054
0.00661716
0.00660903
0.00659638
0.0065794
0.0065583
0.00653325
0.00650442
0.00647197
0.00643603
0.00639676
0.00635427
0.00630868
0.0062601
0.00620863
0.00615436
0.00609738
0.00603776
0.00597559
0.00591095
0.00584394
0.00577397
0.00570035
0.00562308
0.00554218
0.00545768
0.00536964
0.0052781
0.00518313
0.0050848
0.00498318
0.00487836
0.0047704
0.00465935
0.00454526
0.00442811
0.00430786
0.00418442
0.00405763
0.00392726
0.00379306
0.0036547
0.0035118
0.00336392
0.00321057
0.00305113
0.00288489
0.00271098
0.00252831
0.0023355
0.00213076
0.00191162
0.00167455
0.00141411
0.00112072
0.000773661
0
0
0
0
0
0
0
0
0
0
0
0
0
0
0
0
0
0
0
0
0
0
0
0
0
0
0
0
0
0
0
0
0
0
0
0
0
0
0
0
0
0
0
0
0
0
0
0
0
0
0
0
0
0
0
0
0
0
0
0
0
0
0
0
0
0
0
0
0
0
0
0
0
0
0
0
0
0
0
0
0
0
0
0
0
0
0
0
0
0
0
0
0
0
0
0
0
0
0
0
0
0
0
0
0
0
0
0
0
0
0
0
0
0
0
0
0
0
0
0
0
0
0
0
)
;

boundaryField
{
    inandouthalf11
    {
        type            cyclic;
    }
    inandouthalf12
    {
        type            cyclic;
    }
    inandouthalf21
    {
        type            cyclic;
    }
    inandouthalf22
    {
        type            cyclic;
    }
    inandouthalf31
    {
        type            cyclic;
    }
    inandouthalf32
    {
        type            cyclic;
    }
    inandouthalf41
    {
        type            cyclic;
    }
    inandouthalf42
    {
        type            cyclic;
    }
    top
    {
        type            symmetryPlane;
    }
    walls
    {
        type            zeroGradient;
    }
    frontAndBackPlanes
    {
        type            empty;
    }
}


// ************************************************************************* //
