/*--------------------------------*- C++ -*----------------------------------*\
| =========                 |                                                 |
| \\      /  F ield         | OpenFOAM: The Open Source CFD Toolbox           |
|  \\    /   O peration     | Version:  2.4.x                                 |
|   \\  /    A nd           | Web:      www.OpenFOAM.org                      |
|    \\/     M anipulation  |                                                 |
\*---------------------------------------------------------------------------*/
FoamFile
{
    version     2.0;
    format      ascii;
    class       volScalarField;
    location    "10";
    object      tmf;
}
// * * * * * * * * * * * * * * * * * * * * * * * * * * * * * * * * * * * * * //

dimensions      [0 0 0 0 0 0 0];

internalField   nonuniform List<scalar> 
360
(
0.999207
0.99921
0.99921
0.99921
0.999209
0.999209
0.999209
0.999209
0.999209
0.999209
0.999209
0.999209
0.999209
0.999209
0.999209
0.999209
0.999209
0.999208
0.999208
0.999208
0.999208
0.999208
0.999208
0.999208
0.999208
0.999208
0.999208
0.999208
0.999208
0.999207
0.999207
0.999207
0.999207
0.999207
0.999207
0.999207
0.999207
0.999207
0.999207
0.999206
0.999206
0.999206
0.999206
0.999206
0.999206
0.999206
0.999206
0.999206
0.999206
0.999205
0.999205
0.999205
0.999205
0.999205
0.999205
0.999205
0.999205
0.999204
0.999204
0.999204
0.999204
0.999204
0.999204
0.999204
0.999203
0.999203
0.999203
0.999203
0.999203
0.999203
0.999203
0.999202
0.999202
0.999202
0.999202
0.999202
0.999202
0.999202
0.999201
0.999201
0.999201
0.999201
0.999201
0.9992
0.9992
0.9992
0.9992
0.9992
0.999199
0.999199
0.999199
0.999199
0.999199
0.999198
0.999198
0.999198
0.999198
0.999198
0.999197
0.999197
0.999197
0.999197
0.999196
0.999196
0.999196
0.999195
0.999195
0.999195
0.999195
0.999194
0.999194
0.999194
0.999193
0.999193
0.999193
0.999192
0.999192
0.999191
0.999191
0.999191
0.99919
0.99919
0.999189
0.999189
0.999188
0.999188
0.99923
0.999203
0.999169
0.999128
0.999078
0.999016
0.998939
0.998841
0.998716
0.998553
0.998333
0.998033
0.997615
0.997032
0.996223
0.995128
0.993938
0.992408
0.990004
0.986728
0.982275
0.955517
0.915829
0.907633
0.910422
0.916926
0.92269
0.927736
0.932174
0.936085
0.939533
0.942575
0.945264
0.947645
0.949762
0.95165
0.953341
0.954863
0.956237
0.957483
0.958618
0.959655
0.960606
0.961482
0.962291
0.963041
0.963737
0.964385
0.964991
0.965558
0.966089
0.966589
0.967059
0.967503
0.967921
0.968316
0.968689
0.969042
0.969375
0.969689
0.969984
0.970261
0.970519
0.970758
0.970977
0.971177
0.971355
0.97151
0.971644
0.971754
0.971845
0.971923
0.972008
0.972146
0.972422
0.972925
0.973651
0.974509
0.975421
0.976344
0.97726
0.978161
0.979043
0.979905
0.980747
0.98157
0.982372
0.983155
0.983918
0.984662
0.985387
0.986093
0.98678
0.987448
0.988098
0.988732
0.989348
0.989949
0.990536
0.991107
0.991664
0.992207
0.992733
0.993243
0.993733
0.994201
0.994643
0.995055
0.995436
0.995782
0.996088
0.993871
0.994388
0.99469
0.994981
0.995216
0.995423
0.995591
0.995744
0.995862
0.995987
0.996071
0.996197
0.996266
0.996409
0.996466
0.997449
0.997537
0.997576
0.997618
0.997662
0.99771
0.997761
0.997816
0.997876
0.997942
0.998014
0.998095
0.998184
0.998283
0.998395
0.998522
0.99867
0.998846
0.99907
0.999288
0.999399
0.999408
0.999409
0.999409
0.99941
0.999408
0.999064
0.994279
0.994199
0.994199
0.994199
0.994199
0.994199
0.994199
0.994199
0.994199
0.994199
0.994199
0.994199
0.994199
0.994199
0.994199
0.994199
0.994199
0.994199
0.994199
0.994199
0.994199
0.994199
0.994199
0.994199
0.994199
0.994199
0.994199
0.994199
0.994199
0.994199
0.994199
0.994199
0.994199
0.994199
0.994199
0.994199
0.994199
0.994199
0.994199
0.994199
0.994199
0.994199
0.994199
0.994199
0.994199
0.994199
0.994199
0.994199
0.994199
0.994199
0.994199
0.994199
0.994199
0.994199
0.994199
0.994199
0.994199
0.994199
0.994199
0.994199
0.994199
0.994199
0.994199
0.994199
0.994199
0.994199
0.994199
0.994199
0.994199
0.994199
0.994199
0.994199
0.994199
0.994199
0.994199
0.994199
0.994199
0.994199
0.994199
0.994184
0.993278
)
;

boundaryField
{
    inandouthalf11
    {
        type            cyclic;
    }
    inandouthalf12
    {
        type            cyclic;
    }
    inandouthalf21
    {
        type            cyclic;
    }
    inandouthalf22
    {
        type            cyclic;
    }
    inandouthalf31
    {
        type            cyclic;
    }
    inandouthalf32
    {
        type            cyclic;
    }
    inandouthalf41
    {
        type            cyclic;
    }
    inandouthalf42
    {
        type            cyclic;
    }
    top
    {
        type            symmetryPlane;
    }
    walls
    {
        type            calculated;
        value           uniform 0;
    }
    frontAndBackPlanes
    {
        type            empty;
    }
}


// ************************************************************************* //
