/*--------------------------------*- C++ -*----------------------------------*\
| =========                 |                                                 |
| \\      /  F ield         | OpenFOAM: The Open Source CFD Toolbox           |
|  \\    /   O peration     | Version:  2.4.x                                 |
|   \\  /    A nd           | Web:      www.OpenFOAM.org                      |
|    \\/     M anipulation  |                                                 |
\*---------------------------------------------------------------------------*/
FoamFile
{
    version     2.0;
    format      ascii;
    class       volVectorField;
    location    "10";
    object      U;
}
// * * * * * * * * * * * * * * * * * * * * * * * * * * * * * * * * * * * * * //

dimensions      [0 1 -1 0 0 0 0];

internalField   nonuniform List<vector> 
360
(
(-9.90808e-05 2.60007e-09 0)
(-9.83138e-05 -5.91839e-10 0)
(-9.82158e-05 -5.13877e-10 0)
(-9.83122e-05 -2.98595e-11 0)
(-9.83579e-05 3.90449e-11 0)
(-9.83724e-05 -1.88959e-11 0)
(-9.83907e-05 -3.39095e-11 0)
(-9.84142e-05 -2.24975e-11 0)
(-9.84384e-05 -1.13858e-11 0)
(-9.84629e-05 -3.90137e-12 0)
(-9.84875e-05 1.38337e-12 0)
(-9.85121e-05 5.16024e-12 0)
(-9.85369e-05 8.42163e-12 0)
(-9.85619e-05 1.14597e-11 0)
(-9.85872e-05 1.43796e-11 0)
(-9.86127e-05 1.70453e-11 0)
(-9.86385e-05 1.9247e-11 0)
(-9.86646e-05 2.10805e-11 0)
(-9.86908e-05 2.26266e-11 0)
(-9.87174e-05 2.41011e-11 0)
(-9.87441e-05 2.51178e-11 0)
(-9.87712e-05 2.62946e-11 0)
(-9.87986e-05 2.72167e-11 0)
(-9.88262e-05 2.78865e-11 0)
(-9.88541e-05 2.84259e-11 0)
(-9.88822e-05 2.88435e-11 0)
(-9.89106e-05 2.9125e-11 0)
(-9.89394e-05 2.95125e-11 0)
(-9.89684e-05 2.95023e-11 0)
(-9.89976e-05 2.9425e-11 0)
(-9.90272e-05 2.92394e-11 0)
(-9.90572e-05 2.93683e-11 0)
(-9.90871e-05 2.86103e-11 0)
(-9.91179e-05 2.88942e-11 0)
(-9.91485e-05 2.79287e-11 0)
(-9.91797e-05 2.75639e-11 0)
(-9.9211e-05 2.70002e-11 0)
(-9.92427e-05 2.6475e-11 0)
(-9.9275e-05 2.61425e-11 0)
(-9.9307e-05 2.45601e-11 0)
(-9.934e-05 2.4577e-11 0)
(-9.93731e-05 2.35831e-11 0)
(-9.94062e-05 2.20498e-11 0)
(-9.94402e-05 2.22137e-11 0)
(-9.94742e-05 2.08852e-11 0)
(-9.95087e-05 1.97093e-11 0)
(-9.95437e-05 1.88483e-11 0)
(-9.95786e-05 1.70345e-11 0)
(-9.96143e-05 1.66337e-11 0)
(-9.96506e-05 1.64288e-11 0)
(-9.96867e-05 1.37682e-11 0)
(-9.97236e-05 1.3335e-11 0)
(-9.97608e-05 1.18547e-11 0)
(-9.97986e-05 1.1212e-11 0)
(-9.98364e-05 8.95271e-12 0)
(-9.98753e-05 9.10881e-12 0)
(-9.9914e-05 6.43395e-12 0)
(-9.99537e-05 5.70656e-12 0)
(-9.99937e-05 4.21411e-12 0)
(-0.000100034 1.80713e-12 0)
(-0.000100075 2.64373e-12 0)
(-0.000100116 -1.66897e-14 0)
(-0.000100159 -3.57812e-13 0)
(-0.000100201 -2.41137e-12 0)
(-0.000100244 -3.68102e-12 0)
(-0.000100288 -5.40586e-12 0)
(-0.000100332 -6.46301e-12 0)
(-0.000100377 -8.1125e-12 0)
(-0.000100422 -9.70875e-12 0)
(-0.000100468 -1.1713e-11 0)
(-0.000100515 -1.17307e-11 0)
(-0.000100563 -1.23433e-11 0)
(-0.000100611 -1.58025e-11 0)
(-0.00010066 -1.51709e-11 0)
(-0.000100709 -1.69896e-11 0)
(-0.00010076 -1.76022e-11 0)
(-0.000100811 -2.02187e-11 0)
(-0.000100863 -2.1583e-11 0)
(-0.000100916 -2.26397e-11 0)
(-0.000100969 -2.36479e-11 0)
(-0.000101024 -2.52934e-11 0)
(-0.000101079 -2.59033e-11 0)
(-0.000101136 -2.65051e-11 0)
(-0.000101193 -2.74884e-11 0)
(-0.000101252 -2.8262e-11 0)
(-0.000101311 -2.94322e-11 0)
(-0.000101372 -3.03901e-11 0)
(-0.000101433 -3.17686e-11 0)
(-0.000101496 -3.30372e-11 0)
(-0.00010156 -3.39857e-11 0)
(-0.000101625 -3.48447e-11 0)
(-0.000101691 -3.56352e-11 0)
(-0.000101759 -3.60832e-11 0)
(-0.000101828 -3.6533e-11 0)
(-0.000101899 -3.70244e-11 0)
(-0.000101971 -3.75381e-11 0)
(-0.000102045 -3.80921e-11 0)
(-0.00010212 -3.86816e-11 0)
(-0.000102197 -3.92466e-11 0)
(-0.000102275 -3.97138e-11 0)
(-0.000102356 -4.00924e-11 0)
(-0.000102438 -4.03678e-11 0)
(-0.000102522 -4.05293e-11 0)
(-0.000102608 -4.06254e-11 0)
(-0.000102696 -4.06872e-11 0)
(-0.000102787 -4.07273e-11 0)
(-0.000102879 -4.07684e-11 0)
(-0.000102974 -4.08247e-11 0)
(-0.000103072 -4.09016e-11 0)
(-0.000103172 -4.1005e-11 0)
(-0.000103274 -4.11335e-11 0)
(-0.00010338 -4.12741e-11 0)
(-0.000103488 -4.14033e-11 0)
(-0.000103599 -4.14882e-11 0)
(-0.000103714 -4.14955e-11 0)
(-0.000103832 -4.1406e-11 0)
(-0.000103953 -4.12355e-11 0)
(-0.000104078 -4.10589e-11 0)
(-0.000104207 -4.10369e-11 0)
(-0.00010434 -4.14375e-11 0)
(-0.000104477 -4.26368e-11 0)
(-0.000104619 -4.50815e-11 0)
(-0.000104765 -4.91973e-11 0)
(-0.000104917 -5.52329e-11 0)
(-0.000105074 -6.30547e-11 0)
(-0.000105237 -7.19605e-11 0)
(-0.000105406 -8.0608e-11 0)
(-0.000105583 -8.71204e-11 0)
(-0.000105766 -8.93728e-11 0)
(-0.000105958 -8.55105e-11 0)
(-0.000106158 -7.48243e-11 0)
(-0.000106367 -5.86546e-11 0)
(-0.000106586 -3.90982e-11 0)
(-0.000106816 -1.53709e-11 0)
(-0.000107062 1.13593e-11 0)
(-0.000107322 1.75166e-11 0)
(-0.000107596 -4.63184e-11 0)
(-0.000107888 -2.09289e-10 0)
(-0.000108214 -3.79993e-10 0)
(-0.00010859 -1.90602e-09 0)
(-0.000109001 9.07862e-08 0)
(-0.000109476 -7.51938e-07 0)
(-0.000114621 2.7295e-06 0)
(-0.000112757 7.43322e-08 0)
(-0.000105574 -2.13015e-06 0)
(-9.45044e-05 7.75495e-06 0)
(-3.97886e-05 -2.58418e-05 0)
(0.0162018 7.16144e-05 0)
(0.104788 0.000273777 0)
(0.169833 -8.26927e-05 0)
(0.217543 2.01093e-05 0)
(0.255527 2.18214e-05 0)
(0.287215 1.21228e-05 0)
(0.314464 6.03932e-06 0)
(0.338401 3.09632e-06 0)
(0.359777 1.66889e-06 0)
(0.379124 9.23477e-07 0)
(0.396832 5.18886e-07 0)
(0.413194 2.86475e-07 0)
(0.428435 1.49344e-07 0)
(0.44273 6.51474e-08 0)
(0.456217 1.12443e-08 0)
(0.469007 -2.31244e-08 0)
(0.481188 -4.51518e-08 0)
(0.492833 -5.82642e-08 0)
(0.504003 -6.62865e-08 0)
(0.514747 -7.00581e-08 0)
(0.525109 -7.15126e-08 0)
(0.535123 -7.0919e-08 0)
(0.54482 -6.93356e-08 0)
(0.554227 -6.67971e-08 0)
(0.563367 -6.38669e-08 0)
(0.57226 -6.06887e-08 0)
(0.580923 -5.72905e-08 0)
(0.589372 -5.39178e-08 0)
(0.59762 -5.05849e-08 0)
(0.60568 -4.73503e-08 0)
(0.613562 -4.41993e-08 0)
(0.621277 -4.12138e-08 0)
(0.628833 -3.8356e-08 0)
(0.636238 -3.56546e-08 0)
(0.643499 -3.30839e-08 0)
(0.650623 -3.06649e-08 0)
(0.657615 -2.83678e-08 0)
(0.664481 -2.62023e-08 0)
(0.671227 -2.41471e-08 0)
(0.677855 -2.21971e-08 0)
(0.684371 -2.03417e-08 0)
(0.690778 -1.85698e-08 0)
(0.69708 -1.68726e-08 0)
(0.703279 -1.52437e-08 0)
(0.709378 -1.36817e-08 0)
(0.71538 -1.21913e-08 0)
(0.721288 -1.07845e-08 0)
(0.727103 -9.48035e-09 0)
(0.732827 -8.30164e-09 0)
(0.738462 -7.26681e-09 0)
(0.74401 -6.38006e-09 0)
(0.749472 -5.62722e-09 0)
(0.754849 -4.98987e-09 0)
(0.760143 -4.47065e-09 0)
(0.765406 -4.23464e-09 0)
(0.770691 -4.10457e-09 0)
(0.775996 -4.03982e-09 0)
(0.781318 -3.99685e-09 0)
(0.786655 -3.9456e-09 0)
(0.792005 -3.87331e-09 0)
(0.797364 -3.77693e-09 0)
(0.80273 -3.65606e-09 0)
(0.808097 -3.50871e-09 0)
(0.813463 -3.3294e-09 0)
(0.818821 -3.1101e-09 0)
(0.824166 -2.84537e-09 0)
(0.829492 -2.54243e-09 0)
(0.834791 -2.22709e-09 0)
(0.840056 -1.93312e-09 0)
(0.845276 -1.67329e-09 0)
(0.850441 -1.42372e-09 0)
(0.855539 -1.14376e-09 0)
(0.860557 -8.32932e-10 0)
(0.86548 -5.24184e-10 0)
(0.870291 -2.73063e-10 0)
(0.874972 -9.56167e-11 0)
(0.879504 1.66124e-12 0)
(0.883864 5.61753e-11 0)
(0.888029 5.75003e-11 0)
(0.891975 9.48456e-11 0)
(0.895677 1.412e-11 0)
(0.89911 1.3939e-10 0)
(0.902252 -8.20155e-11 0)
(0.905082 2.21943e-10 0)
(0.907585 -2.14465e-10 0)
(0.909751 3.81993e-10 0)
(0.91158 -3.7807e-10 0)
(0.913077 4.99919e-10 0)
(0.914255 -1.45922e-09 0)
(0.915134 3.72568e-09 0)
(0.915737 -4.09712e-09 0)
(0.916089 1.92142e-09 0)
(0.916216 -7.56693e-10 0)
(0.91614 3.05753e-10 0)
(0.915885 -8.90269e-11 0)
(0.915468 1.30924e-10 0)
(0.914907 -1.40727e-10 0)
(0.914216 1.71257e-10 0)
(0.913407 -1.66903e-10 0)
(0.91249 1.72079e-10 0)
(0.911475 -1.39015e-10 0)
(0.910371 1.33818e-10 0)
(0.909186 -7.84404e-11 0)
(0.907927 7.23723e-11 0)
(0.906601 -1.51592e-13 0)
(0.905217 6.54166e-12 0)
(0.903782 7.65088e-14 0)
(0.902303 -1.18592e-13 0)
(0.900788 3.14398e-13 0)
(0.899246 3.98313e-13 0)
(0.897685 3.64395e-13 0)
(0.896114 3.4283e-13 0)
(0.894543 3.36761e-13 0)
(0.892982 3.34764e-13 0)
(0.891444 2.98536e-13 0)
(0.889941 1.91094e-13 0)
(0.888485 3.90175e-13 0)
(0.887093 4.22008e-12 0)
(0.885781 -1.54156e-11 0)
(0.884566 3.89492e-11 0)
(0.883469 -7.37105e-11 0)
(0.882511 1.23654e-10 0)
(0.881717 -1.84816e-10 0)
(0.881111 2.591e-10 0)
(0.880768 -3.39508e-10 0)
(0.880704 4.27069e-10 0)
(0.880702 -5.14991e-10 0)
(0.880702 6.07316e-10 0)
(0.880702 -6.98877e-10 0)
(0.880702 7.95061e-10 0)
(0.880702 -8.90487e-10 0)
(0.880702 9.90789e-10 0)
(0.880702 -1.09043e-09 0)
(0.880702 1.1951e-09 0)
(0.880702 -1.29918e-09 0)
(0.880702 1.40855e-09 0)
(0.880702 -1.51726e-09 0)
(0.880702 1.63148e-09 0)
(0.880702 -1.74509e-09 0)
(0.880702 1.86425e-09 0)
(0.880702 -1.983e-09 0)
(0.880702 2.10712e-09 0)
(0.880702 -2.23122e-09 0)
(0.880702 2.36039e-09 0)
(0.880702 -2.48997e-09 0)
(0.880702 2.62416e-09 0)
(0.880702 -2.7594e-09 0)
(0.880702 2.89856e-09 0)
(0.880702 -3.03952e-09 0)
(0.880702 3.18379e-09 0)
(0.880702 -3.3304e-09 0)
(0.880702 3.47987e-09 0)
(0.880702 -3.63185e-09 0)
(0.880702 3.7868e-09 0)
(0.880702 -3.94398e-09 0)
(0.880702 4.10428e-09 0)
(0.880702 -4.26664e-09 0)
(0.880702 4.43213e-09 0)
(0.880702 -4.59954e-09 0)
(0.880702 4.77009e-09 0)
(0.880702 -4.94234e-09 0)
(0.880702 5.1177e-09 0)
(0.880702 -5.29456e-09 0)
(0.880702 4.80721e-09 0)
(0.880702 -4.87729e-09 0)
(0.880702 4.94733e-09 0)
(0.880702 -5.01576e-09 0)
(0.880702 5.0842e-09 0)
(0.880702 -5.15094e-09 0)
(0.880702 5.21774e-09 0)
(0.880702 -5.28279e-09 0)
(0.880702 5.34789e-09 0)
(0.880702 -5.41128e-09 0)
(0.880702 5.47463e-09 0)
(0.880702 -5.53629e-09 0)
(0.880702 5.5979e-09 0)
(0.880702 -5.65782e-09 0)
(0.880702 5.71757e-09 0)
(0.880702 -5.7758e-09 0)
(0.880702 5.83365e-09 0)
(0.880702 -5.88988e-09 0)
(0.880702 5.94672e-09 0)
(0.880702 -5.99984e-09 0)
(0.880702 6.05644e-09 0)
(0.880702 -6.1054e-09 0)
(0.880702 6.16253e-09 0)
(0.880702 -6.20711e-09 0)
(0.880702 6.26454e-09 0)
(0.880702 -6.30504e-09 0)
(0.880702 6.36237e-09 0)
(0.880702 -6.39859e-09 0)
(0.880702 6.45607e-09 0)
(0.880702 -6.48815e-09 0)
(0.880702 6.5448e-09 0)
(0.880702 -6.57341e-09 0)
(0.880702 6.6285e-09 0)
(0.880702 -6.6544e-09 0)
(0.880702 6.70751e-09 0)
(0.880702 -6.72908e-09 0)
(0.880702 6.78238e-09 0)
(0.880702 -6.79869e-09 0)
(0.880702 6.85054e-09 0)
(0.880702 -6.86322e-09 0)
(0.880702 6.91176e-09 0)
(0.880702 -6.92292e-09 0)
(0.880702 6.96517e-09 0)
(0.880702 -6.9749e-09 0)
(0.880702 7.01133e-09 0)
(0.880702 -7.01965e-09 0)
(0.880702 7.04649e-09 0)
(0.880702 -7.05495e-09 0)
(0.880702 7.06877e-09 0)
(0.880702 -7.07402e-09 0)
)
;

boundaryField
{
    inandouthalf11
    {
        type            cyclic;
    }
    inandouthalf12
    {
        type            cyclic;
    }
    inandouthalf21
    {
        type            cyclic;
    }
    inandouthalf22
    {
        type            cyclic;
    }
    inandouthalf31
    {
        type            cyclic;
    }
    inandouthalf32
    {
        type            cyclic;
    }
    inandouthalf41
    {
        type            cyclic;
    }
    inandouthalf42
    {
        type            cyclic;
    }
    top
    {
        type            symmetryPlane;
    }
    walls
    {
        type            calculated;
        value           uniform (0 0 0);
    }
    frontAndBackPlanes
    {
        type            empty;
    }
}


// ************************************************************************* //
