/*--------------------------------*- C++ -*----------------------------------*\
| =========                 |                                                 |
| \\      /  F ield         | OpenFOAM: The Open Source CFD Toolbox           |
|  \\    /   O peration     | Version:  2.4.x                                 |
|   \\  /    A nd           | Web:      www.OpenFOAM.org                      |
|    \\/     M anipulation  |                                                 |
\*---------------------------------------------------------------------------*/
FoamFile
{
    version     2.0;
    format      ascii;
    class       volVectorField;
    location    "10";
    object      Ua;
}
// * * * * * * * * * * * * * * * * * * * * * * * * * * * * * * * * * * * * * //

dimensions      [0 1 -1 0 0 0 0];

internalField   nonuniform List<vector> 
360
(
(-1.0711e-33 -1.0476e-31 0)
(-1.99775e-10 -1.59209e-08 0)
(-3.73768e-10 -2.79972e-08 0)
(-4.95812e-10 -3.81677e-08 0)
(-5.89182e-10 -4.85193e-08 0)
(-6.57022e-10 -5.90224e-08 0)
(-6.98154e-10 -6.93484e-08 0)
(-7.13323e-10 -7.94652e-08 0)
(-7.0365e-10 -8.94472e-08 0)
(-6.69802e-10 -9.93591e-08 0)
(-6.1204e-10 -1.0925e-07 0)
(-5.30363e-10 -1.19154e-07 0)
(-4.24598e-10 -1.29095e-07 0)
(-2.94419e-10 -1.39096e-07 0)
(-1.39359e-10 -1.49176e-07 0)
(4.11929e-11 -1.59354e-07 0)
(2.47964e-10 -1.6965e-07 0)
(4.81752e-10 -1.80076e-07 0)
(7.43415e-10 -1.90644e-07 0)
(1.03388e-09 -2.01367e-07 0)
(1.35409e-09 -2.12252e-07 0)
(1.70506e-09 -2.23307e-07 0)
(2.08784e-09 -2.3454e-07 0)
(2.50349e-09 -2.45957e-07 0)
(2.9531e-09 -2.57563e-07 0)
(3.43776e-09 -2.69361e-07 0)
(3.95853e-09 -2.81353e-07 0)
(4.51654e-09 -2.93544e-07 0)
(5.1129e-09 -3.05935e-07 0)
(5.74866e-09 -3.18525e-07 0)
(6.42488e-09 -3.31315e-07 0)
(7.14263e-09 -3.44306e-07 0)
(7.9029e-09 -3.57494e-07 0)
(8.70673e-09 -3.70879e-07 0)
(9.55513e-09 -3.84461e-07 0)
(1.0449e-08 -3.98235e-07 0)
(1.13891e-08 -4.12196e-07 0)
(1.23766e-08 -4.26344e-07 0)
(1.34122e-08 -4.40676e-07 0)
(1.44967e-08 -4.55185e-07 0)
(1.56308e-08 -4.69866e-07 0)
(1.68154e-08 -4.8472e-07 0)
(1.80509e-08 -4.99734e-07 0)
(1.93381e-08 -5.14906e-07 0)
(2.06777e-08 -5.30233e-07 0)
(2.20701e-08 -5.45708e-07 0)
(2.35159e-08 -5.61325e-07 0)
(2.50152e-08 -5.77073e-07 0)
(2.65683e-08 -5.92946e-07 0)
(2.81761e-08 -6.08943e-07 0)
(2.98385e-08 -6.25055e-07 0)
(3.15557e-08 -6.41273e-07 0)
(3.33279e-08 -6.5759e-07 0)
(3.51552e-08 -6.73999e-07 0)
(3.70374e-08 -6.90492e-07 0)
(3.89748e-08 -7.07062e-07 0)
(4.09671e-08 -7.23701e-07 0)
(4.30141e-08 -7.404e-07 0)
(4.51155e-08 -7.57151e-07 0)
(4.72705e-08 -7.7394e-07 0)
(4.9479e-08 -7.90764e-07 0)
(5.17408e-08 -8.07615e-07 0)
(5.40557e-08 -8.24485e-07 0)
(5.6423e-08 -8.41368e-07 0)
(5.8842e-08 -8.58253e-07 0)
(6.13118e-08 -8.75129e-07 0)
(6.38316e-08 -8.91989e-07 0)
(6.64007e-08 -9.08825e-07 0)
(6.90178e-08 -9.25626e-07 0)
(7.16814e-08 -9.42378e-07 0)
(7.4391e-08 -9.59077e-07 0)
(7.71461e-08 -9.75721e-07 0)
(7.99453e-08 -9.92296e-07 0)
(8.27872e-08 -1.00879e-06 0)
(8.56712e-08 -1.02521e-06 0)
(8.85964e-08 -1.04154e-06 0)
(9.15611e-08 -1.05777e-06 0)
(9.45632e-08 -1.07389e-06 0)
(9.76013e-08 -1.0899e-06 0)
(1.00674e-07 -1.10578e-06 0)
(1.03779e-07 -1.12153e-06 0)
(1.06916e-07 -1.13713e-06 0)
(1.10082e-07 -1.15259e-06 0)
(1.13278e-07 -1.16791e-06 0)
(1.16502e-07 -1.18306e-06 0)
(1.19752e-07 -1.19806e-06 0)
(1.23027e-07 -1.2129e-06 0)
(1.26326e-07 -1.22756e-06 0)
(1.29646e-07 -1.24204e-06 0)
(1.32984e-07 -1.25634e-06 0)
(1.3634e-07 -1.27044e-06 0)
(1.39712e-07 -1.28434e-06 0)
(1.43098e-07 -1.29804e-06 0)
(1.46498e-07 -1.31154e-06 0)
(1.49909e-07 -1.32483e-06 0)
(1.53331e-07 -1.33791e-06 0)
(1.56764e-07 -1.35078e-06 0)
(1.60205e-07 -1.36344e-06 0)
(1.63653e-07 -1.37588e-06 0)
(1.67108e-07 -1.3881e-06 0)
(1.70567e-07 -1.4001e-06 0)
(1.74032e-07 -1.41188e-06 0)
(1.775e-07 -1.42343e-06 0)
(1.80971e-07 -1.43476e-06 0)
(1.84447e-07 -1.44587e-06 0)
(1.87925e-07 -1.45676e-06 0)
(1.91408e-07 -1.46743e-06 0)
(1.94894e-07 -1.47788e-06 0)
(1.98385e-07 -1.48811e-06 0)
(2.01882e-07 -1.49813e-06 0)
(2.05384e-07 -1.50793e-06 0)
(2.08893e-07 -1.51752e-06 0)
(2.1241e-07 -1.5269e-06 0)
(2.15936e-07 -1.53607e-06 0)
(2.19473e-07 -1.54503e-06 0)
(2.23023e-07 -1.55379e-06 0)
(2.26589e-07 -1.56234e-06 0)
(2.30175e-07 -1.57069e-06 0)
(2.33785e-07 -1.57885e-06 0)
(2.37423e-07 -1.58682e-06 0)
(2.41092e-07 -1.5946e-06 0)
(2.44796e-07 -1.60219e-06 0)
(2.48531e-07 -1.60957e-06 0)
(2.5229e-07 -1.61673e-06 0)
(2.56057e-07 -1.62363e-06 0)
(2.59807e-07 -1.63022e-06 0)
(2.6351e-07 -1.63646e-06 0)
(2.67131e-07 -1.64228e-06 0)
(2.70643e-07 -1.64766e-06 0)
(2.7403e-07 -1.6526e-06 0)
(2.77304e-07 -1.65712e-06 0)
(2.80514e-07 -1.66131e-06 0)
(2.83756e-07 -1.66527e-06 0)
(2.8719e-07 -1.6692e-06 0)
(2.91038e-07 -1.67329e-06 0)
(2.95548e-07 -1.67772e-06 0)
(3.00855e-07 -1.68253e-06 0)
(3.06669e-07 -1.68735e-06 0)
(3.1198e-07 -1.69136e-06 0)
(3.15419e-07 -1.69373e-06 0)
(3.1663e-07 -1.69447e-06 0)
(3.16799e-07 -1.69452e-06 0)
(3.16861e-07 -1.69458e-06 0)
(2.97522e-06 -2.90321e-05 0)
(1.04796e-05 -5.57856e-05 0)
(2.2667e-05 -7.09754e-05 0)
(6.25874e-05 -8.17993e-05 0)
(0.0148903 -0.000492833 0)
(0.101556 -0.00428082 0)
(0.168908 -0.00564634 0)
(0.218418 -0.00731447 0)
(0.257652 -0.00870319 0)
(0.290191 -0.00968041 0)
(0.318043 -0.0103157 0)
(0.342428 -0.0107398 0)
(0.364148 -0.0110317 0)
(0.383766 -0.0112355 0)
(0.401693 -0.0113743 0)
(0.418233 -0.011461 0)
(0.433622 -0.011503 0)
(0.448039 -0.0115054 0)
(0.461629 -0.0114721 0)
(0.474503 -0.0114063 0)
(0.486755 -0.0113108 0)
(0.498458 -0.0111886 0)
(0.509675 -0.011042 0)
(0.520456 -0.0108736 0)
(0.530845 -0.0106855 0)
(0.540878 -0.0104798 0)
(0.550586 -0.0102586 0)
(0.559997 -0.0100234 0)
(0.569134 -0.00977599 0)
(0.578016 -0.00951773 0)
(0.586662 -0.00924994 0)
(0.595087 -0.0089738 0)
(0.603305 -0.00869039 0)
(0.611327 -0.00840066 0)
(0.619165 -0.00810551 0)
(0.626828 -0.00780575 0)
(0.634324 -0.00750215 0)
(0.64166 -0.00719544 0)
(0.648843 -0.00688633 0)
(0.655879 -0.00657552 0)
(0.662772 -0.00626373 0)
(0.669526 -0.00595169 0)
(0.676145 -0.00564022 0)
(0.682631 -0.00533018 0)
(0.688986 -0.00502254 0)
(0.695212 -0.00471842 0)
(0.701308 -0.00441911 0)
(0.707277 -0.00412616 0)
(0.713117 -0.00384142 0)
(0.718828 -0.00356708 0)
(0.724409 -0.00330555 0)
(0.729859 -0.00305925 0)
(0.735176 -0.00283001 0)
(0.740359 -0.00261848 0)
(0.745406 -0.00242331 0)
(0.750316 -0.00224083 0)
(0.755086 -0.00206519 0)
(0.759715 -0.00188943 0)
(0.764248 -0.00170538 0)
(0.768725 -0.00150638 0)
(0.773141 -0.00128958 0)
(0.777491 -0.00105374 0)
(0.78177 -0.000798627 0)
(0.78597 -0.000524553 0)
(0.790084 -0.000232246 0)
(0.794105 7.71427e-05 0)
(0.798026 0.000401902 0)
(0.801838 0.000739488 0)
(0.805532 0.00108613 0)
(0.809101 0.00143637 0)
(0.812537 0.00178277 0)
(0.815833 0.00211597 0)
(0.818982 0.00242545 0)
(0.821983 0.00270103 0)
(0.824833 0.00293474 0)
(0.827532 0.00312238 0)
(0.830085 0.00326405 0)
(0.832494 0.0033636 0)
(0.834763 0.00342721 0)
(0.836898 0.00346194 0)
(0.838901 0.00347459 0)
(0.840777 0.00347108 0)
(0.842527 0.00345611 0)
(0.844155 0.00343335 0)
(0.845663 0.00340504 0)
(0.847051 0.0033732 0)
(0.848321 0.00333776 0)
(0.849474 0.00330005 0)
(0.85051 0.00325747 0)
(0.851423 0.00321164 0)
(0.852211 0.003155 0)
(0.852858 0.00309142 0)
(0.853354 0.00299701 0)
(0.853868 0.00284849 0)
(0.922092 0.000298056 0)
(0.923257 0.00230523 0)
(0.923393 0.000780388 0)
(0.92328 0.00130103 0)
(0.923008 0.000720668 0)
(0.922564 0.000949846 0)
(0.921988 0.000184039 0)
(0.921265 0.0012542 0)
(0.920449 -0.000643059 0)
(0.919479 0.00219105 0)
(0.918461 -0.00191249 0)
(0.917254 0.00387 0)
(0.91606 -0.00387515 0)
(0.914628 0.00622957 0)
(0.912875 -0.00662651 0)
(0.909895 -0.0371482 0)
(0.908389 -0.0395946 0)
(0.906847 -0.0395129 0)
(0.905331 -0.0395197 0)
(0.903785 -0.0395204 0)
(0.902223 -0.0395215 0)
(0.900653 -0.0395224 0)
(0.899085 -0.039523 0)
(0.897531 -0.0395235 0)
(0.896 -0.0395236 0)
(0.894507 -0.0395235 0)
(0.893064 -0.0395229 0)
(0.891688 -0.039522 0)
(0.890394 -0.0395205 0)
(0.8892 -0.0395185 0)
(0.888128 -0.0395159 0)
(0.887198 -0.0395124 0)
(0.886433 -0.039508 0)
(0.88586 -0.0395006 0)
(0.885579 -0.0394901 0)
(0.88553 -0.0394837 0)
(0.885529 -0.0394825 0)
(0.885529 -0.0394825 0)
(0.885529 -0.0394825 0)
(0.885529 -0.0394825 0)
(0.885529 -0.0394825 0)
(0.885529 -0.0394825 0)
(0.885529 -0.0394825 0)
(0.885529 -0.0394825 0)
(0.885529 -0.0394825 0)
(0.885529 -0.0394825 0)
(0.885529 -0.0394825 0)
(0.885529 -0.0394825 0)
(0.885529 -0.0394825 0)
(0.885529 -0.0394825 0)
(0.885529 -0.0394825 0)
(0.885529 -0.0394825 0)
(0.885529 -0.0394825 0)
(0.885529 -0.0394825 0)
(0.885529 -0.0394825 0)
(0.885529 -0.0394825 0)
(0.885529 -0.0394825 0)
(0.885529 -0.0394825 0)
(0.885529 -0.0394825 0)
(0.885529 -0.0394825 0)
(0.885529 -0.0394825 0)
(0.885529 -0.0394825 0)
(0.885529 -0.0394825 0)
(0.885529 -0.0394825 0)
(0.885529 -0.0394825 0)
(0.885529 -0.0394825 0)
(0.885529 -0.0394825 0)
(0.885529 -0.0394825 0)
(0.885529 -0.0394825 0)
(0.885529 -0.0394825 0)
(0.885529 -0.0394825 0)
(0.885529 -0.0394825 0)
(0.885529 -0.0394825 0)
(0.885529 -0.0394825 0)
(0.885529 -0.0394825 0)
(0.885529 -0.0394825 0)
(0.885529 -0.0394825 0)
(0.885529 -0.0394825 0)
(0.885529 -0.0394825 0)
(0.885529 -0.0394825 0)
(0.885529 -0.0394825 0)
(0.885529 -0.0394825 0)
(0.885529 -0.0394825 0)
(0.885529 -0.0394825 0)
(0.885529 -0.0394825 0)
(0.885529 -0.0394825 0)
(0.885529 -0.0394825 0)
(0.885529 -0.0394825 0)
(0.885529 -0.0394825 0)
(0.885529 -0.0394825 0)
(0.885529 -0.0394825 0)
(0.885529 -0.0394825 0)
(0.885529 -0.0394825 0)
(0.885529 -0.0394825 0)
(0.885529 -0.0394825 0)
(0.885529 -0.0394825 0)
(0.885529 -0.0394825 0)
(0.885529 -0.0394825 0)
(0.885529 -0.0394825 0)
(0.885529 -0.0394825 0)
(0.885529 -0.0394825 0)
(0.885529 -0.0394825 0)
(0.885529 -0.0394825 0)
(0.885529 -0.0394825 0)
(0.885529 -0.0394825 0)
(0.885529 -0.0394825 0)
(0.885529 -0.0394825 0)
(0.885529 -0.0394825 0)
(0.885529 -0.0394825 0)
(0.885529 -0.0394825 0)
(0.885529 -0.0394825 0)
(0.885529 -0.0394825 0)
(0.885529 -0.0394825 0)
(0.885529 -0.0394825 0)
(0.885529 -0.0394825 0)
(0.885529 -0.0394825 0)
(0.885529 -0.0394825 0)
(0.885529 -0.0394825 0)
(0.885529 -0.0394825 0)
(0.885529 -0.0394823 0)
(0.88553 -0.0394738 0)
(0.885563 -0.0391276 0)
(0.886318 -0.0223684 0)
)
;

boundaryField
{
    inandouthalf11
    {
        type            cyclic;
    }
    inandouthalf12
    {
        type            cyclic;
    }
    inandouthalf21
    {
        type            cyclic;
    }
    inandouthalf22
    {
        type            cyclic;
    }
    inandouthalf31
    {
        type            cyclic;
    }
    inandouthalf32
    {
        type            cyclic;
    }
    inandouthalf41
    {
        type            cyclic;
    }
    inandouthalf42
    {
        type            cyclic;
    }
    top
    {
        type            symmetryPlane;
    }
    walls
    {
        type            fixedValue;
        value           uniform (0 0 0);
    }
    frontAndBackPlanes
    {
        type            empty;
    }
}


// ************************************************************************* //
