/*--------------------------------*- C++ -*----------------------------------*\
| =========                 |                                                 |
| \\      /  F ield         | OpenFOAM: The Open Source CFD Toolbox           |
|  \\    /   O peration     | Version:  2.4.x                                 |
|   \\  /    A nd           | Web:      www.OpenFOAM.org                      |
|    \\/     M anipulation  |                                                 |
\*---------------------------------------------------------------------------*/
FoamFile
{
    version     2.0;
    format      ascii;
    class       volVectorField;
    location    "10";
    object      Ua_0;
}
// * * * * * * * * * * * * * * * * * * * * * * * * * * * * * * * * * * * * * //

dimensions      [0 1 -1 0 0 0 0];

internalField   nonuniform List<vector> 
360
(
(-1.06591e-33 -1.0476e-31 0)
(-1.98673e-10 -1.59223e-08 0)
(-3.71524e-10 -2.79997e-08 0)
(-4.92585e-10 -3.81713e-08 0)
(-5.84985e-10 -4.85238e-08 0)
(-6.51841e-10 -5.90281e-08 0)
(-6.91995e-10 -6.93553e-08 0)
(-7.06199e-10 -7.94735e-08 0)
(-6.95568e-10 -8.94567e-08 0)
(-6.60762e-10 -9.93702e-08 0)
(-6.02038e-10 -1.09263e-07 0)
(-5.19391e-10 -1.19168e-07 0)
(-4.12643e-10 -1.29111e-07 0)
(-2.81468e-10 -1.39114e-07 0)
(-1.25395e-10 -1.49195e-07 0)
(5.61898e-11 -1.59376e-07 0)
(2.64015e-10 -1.69674e-07 0)
(4.9888e-10 -1.80102e-07 0)
(7.61645e-10 -1.90673e-07 0)
(1.05324e-09 -2.01398e-07 0)
(1.37461e-09 -2.12285e-07 0)
(1.72676e-09 -2.23343e-07 0)
(2.11076e-09 -2.34579e-07 0)
(2.52766e-09 -2.45999e-07 0)
(2.97855e-09 -2.57607e-07 0)
(3.46452e-09 -2.69408e-07 0)
(3.98663e-09 -2.81404e-07 0)
(4.54602e-09 -2.93597e-07 0)
(5.1438e-09 -3.05991e-07 0)
(5.78102e-09 -3.18585e-07 0)
(6.45873e-09 -3.31378e-07 0)
(7.178e-09 -3.44372e-07 0)
(7.93983e-09 -3.57563e-07 0)
(8.74525e-09 -3.70952e-07 0)
(9.59529e-09 -3.84537e-07 0)
(1.04908e-08 -3.98314e-07 0)
(1.14327e-08 -4.1228e-07 0)
(1.24218e-08 -4.26431e-07 0)
(1.34592e-08 -4.40766e-07 0)
(1.45455e-08 -4.55279e-07 0)
(1.56815e-08 -4.69964e-07 0)
(1.6868e-08 -4.84821e-07 0)
(1.81054e-08 -4.99839e-07 0)
(1.93946e-08 -5.15015e-07 0)
(2.07362e-08 -5.30346e-07 0)
(2.21306e-08 -5.45825e-07 0)
(2.35785e-08 -5.61446e-07 0)
(2.50799e-08 -5.77198e-07 0)
(2.66351e-08 -5.93074e-07 0)
(2.8245e-08 -6.09075e-07 0)
(2.99097e-08 -6.25191e-07 0)
(3.16291e-08 -6.41412e-07 0)
(3.34035e-08 -6.57733e-07 0)
(3.5233e-08 -6.74146e-07 0)
(3.71176e-08 -6.90643e-07 0)
(3.90572e-08 -7.07217e-07 0)
(4.10519e-08 -7.2386e-07 0)
(4.31013e-08 -7.40563e-07 0)
(4.5205e-08 -7.57318e-07 0)
(4.73624e-08 -7.74111e-07 0)
(4.95733e-08 -7.90937e-07 0)
(5.18377e-08 -8.07792e-07 0)
(5.4155e-08 -8.24666e-07 0)
(5.65248e-08 -8.41553e-07 0)
(5.89463e-08 -8.58441e-07 0)
(6.14185e-08 -8.75321e-07 0)
(6.39409e-08 -8.92184e-07 0)
(6.65125e-08 -9.09024e-07 0)
(6.91322e-08 -9.25828e-07 0)
(7.17983e-08 -9.42583e-07 0)
(7.45104e-08 -9.59285e-07 0)
(7.72681e-08 -9.75932e-07 0)
(8.00698e-08 -9.92511e-07 0)
(8.29142e-08 -1.00901e-06 0)
(8.58007e-08 -1.02543e-06 0)
(8.87285e-08 -1.04176e-06 0)
(9.16957e-08 -1.058e-06 0)
(9.47004e-08 -1.07412e-06 0)
(9.77409e-08 -1.09013e-06 0)
(1.00816e-07 -1.10601e-06 0)
(1.03924e-07 -1.12176e-06 0)
(1.07063e-07 -1.13737e-06 0)
(1.10232e-07 -1.15284e-06 0)
(1.1343e-07 -1.16815e-06 0)
(1.16656e-07 -1.18331e-06 0)
(1.19909e-07 -1.19831e-06 0)
(1.23187e-07 -1.21315e-06 0)
(1.26488e-07 -1.22781e-06 0)
(1.2981e-07 -1.2423e-06 0)
(1.33151e-07 -1.25659e-06 0)
(1.36509e-07 -1.2707e-06 0)
(1.39883e-07 -1.2846e-06 0)
(1.43271e-07 -1.2983e-06 0)
(1.46673e-07 -1.3118e-06 0)
(1.50086e-07 -1.32509e-06 0)
(1.53511e-07 -1.33818e-06 0)
(1.56945e-07 -1.35105e-06 0)
(1.60388e-07 -1.36371e-06 0)
(1.63839e-07 -1.37615e-06 0)
(1.67296e-07 -1.38837e-06 0)
(1.70757e-07 -1.40037e-06 0)
(1.74224e-07 -1.41215e-06 0)
(1.77694e-07 -1.4237e-06 0)
(1.81167e-07 -1.43503e-06 0)
(1.84644e-07 -1.44614e-06 0)
(1.88125e-07 -1.45703e-06 0)
(1.91609e-07 -1.4677e-06 0)
(1.95097e-07 -1.47815e-06 0)
(1.9859e-07 -1.48839e-06 0)
(2.02088e-07 -1.49841e-06 0)
(2.05592e-07 -1.50821e-06 0)
(2.09103e-07 -1.5178e-06 0)
(2.12622e-07 -1.52718e-06 0)
(2.16149e-07 -1.53635e-06 0)
(2.19688e-07 -1.54531e-06 0)
(2.2324e-07 -1.55406e-06 0)
(2.26807e-07 -1.56262e-06 0)
(2.30394e-07 -1.57097e-06 0)
(2.34006e-07 -1.57913e-06 0)
(2.37645e-07 -1.5871e-06 0)
(2.41316e-07 -1.59488e-06 0)
(2.45021e-07 -1.60247e-06 0)
(2.48757e-07 -1.60985e-06 0)
(2.52517e-07 -1.61701e-06 0)
(2.56285e-07 -1.62391e-06 0)
(2.60036e-07 -1.6305e-06 0)
(2.6374e-07 -1.63673e-06 0)
(2.67363e-07 -1.64256e-06 0)
(2.70875e-07 -1.64794e-06 0)
(2.74264e-07 -1.65288e-06 0)
(2.77539e-07 -1.6574e-06 0)
(2.80749e-07 -1.66158e-06 0)
(2.83992e-07 -1.66555e-06 0)
(2.87427e-07 -1.66947e-06 0)
(2.91275e-07 -1.67356e-06 0)
(2.95786e-07 -1.678e-06 0)
(3.01093e-07 -1.68281e-06 0)
(3.06908e-07 -1.68762e-06 0)
(3.12219e-07 -1.69163e-06 0)
(3.15659e-07 -1.694e-06 0)
(3.1687e-07 -1.69474e-06 0)
(3.17038e-07 -1.69479e-06 0)
(3.17101e-07 -1.69484e-06 0)
(3.0109e-06 -2.92711e-05 0)
(1.06598e-05 -5.64454e-05 0)
(2.31847e-05 -7.20096e-05 0)
(6.45538e-05 -8.32083e-05 0)
(0.0150748 -0.000493153 0)
(0.101789 -0.00428598 0)
(0.16908 -0.00565561 0)
(0.218566 -0.0073268 0)
(0.257797 -0.00871248 0)
(0.290341 -0.0096828 0)
(0.318202 -0.0103136 0)
(0.342595 -0.0107352 0)
(0.364323 -0.0110261 0)
(0.383947 -0.0112296 0)
(0.401879 -0.0113685 0)
(0.418425 -0.0114555 0)
(0.433818 -0.0114978 0)
(0.44824 -0.0115006 0)
(0.461833 -0.0114676 0)
(0.474711 -0.011402 0)
(0.486965 -0.0113069 0)
(0.498671 -0.0111848 0)
(0.50989 -0.0110384 0)
(0.520674 -0.0108701 0)
(0.531065 -0.0106821 0)
(0.5411 -0.0104765 0)
(0.550811 -0.0102553 0)
(0.560224 -0.0100202 0)
(0.569362 -0.00977283 0)
(0.578246 -0.00951461 0)
(0.586894 -0.00924686 0)
(0.59532 -0.00897076 0)
(0.603539 -0.00868738 0)
(0.611563 -0.00839768 0)
(0.619402 -0.00810256 0)
(0.627066 -0.00780283 0)
(0.634563 -0.00749925 0)
(0.641901 -0.00719257 0)
(0.649085 -0.00688349 0)
(0.656122 -0.0065727 0)
(0.663016 -0.00626093 0)
(0.669771 -0.00594893 0)
(0.676391 -0.00563749 0)
(0.682877 -0.00532747 0)
(0.689233 -0.00501987 0)
(0.695459 -0.00471578 0)
(0.701557 -0.00441651 0)
(0.707526 -0.0041236 0)
(0.713367 -0.00383891 0)
(0.719078 -0.00356463 0)
(0.72466 -0.00330317 0)
(0.73011 -0.00305694 0)
(0.735428 -0.0028278 0)
(0.740611 -0.00261635 0)
(0.745659 -0.00242127 0)
(0.750569 -0.00223885 0)
(0.755339 -0.00206325 0)
(0.759969 -0.00188748 0)
(0.764502 -0.0017034 0)
(0.768979 -0.00150435 0)
(0.773396 -0.00128748 0)
(0.777747 -0.00105158 0)
(0.782025 -0.000796394 0)
(0.786225 -0.000522252 0)
(0.79034 -0.00022988 0)
(0.794361 7.95694e-05 0)
(0.798282 0.000404384 0)
(0.802094 0.000742017 0)
(0.805789 0.00108869 0)
(0.809358 0.00143896 0)
(0.812794 0.00178536 0)
(0.816089 0.00211854 0)
(0.819239 0.00242797 0)
(0.822239 0.00270347 0)
(0.825089 0.00293708 0)
(0.827788 0.0031246 0)
(0.830341 0.00326616 0)
(0.832749 0.00336559 0)
(0.835019 0.00342909 0)
(0.837153 0.00346372 0)
(0.839157 0.00347628 0)
(0.841032 0.00347271 0)
(0.842783 0.00345768 0)
(0.84441 0.00343487 0)
(0.845917 0.00340652 0)
(0.847305 0.00337465 0)
(0.848576 0.00333919 0)
(0.849728 0.00330146 0)
(0.850764 0.00325887 0)
(0.851677 0.00321304 0)
(0.852465 0.00315639 0)
(0.853112 0.00309282 0)
(0.853608 0.00299841 0)
(0.854122 0.00284989 0)
(0.922338 0.00029839 0)
(0.923502 0.00230627 0)
(0.923637 0.000781124 0)
(0.923523 0.00130187 0)
(0.923251 0.000721855 0)
(0.922807 0.000950495 0)
(0.92223 0.0001859 0)
(0.921507 0.00125479 0)
(0.92069 -0.000640875 0)
(0.91972 0.00219198 0)
(0.918702 -0.00191066 0)
(0.917494 0.00387198 0)
(0.916299 -0.00387479 0)
(0.914867 0.00623375 0)
(0.913114 -0.00662782 0)
(0.910134 -0.0371494 0)
(0.908628 -0.0395947 0)
(0.907086 -0.039513 0)
(0.90557 -0.0395197 0)
(0.904024 -0.0395205 0)
(0.902461 -0.0395215 0)
(0.900891 -0.0395224 0)
(0.899323 -0.039523 0)
(0.897769 -0.0395235 0)
(0.896238 -0.0395236 0)
(0.894745 -0.0395235 0)
(0.893302 -0.0395229 0)
(0.891926 -0.039522 0)
(0.890632 -0.0395205 0)
(0.889438 -0.0395185 0)
(0.888366 -0.0395159 0)
(0.887436 -0.0395125 0)
(0.886672 -0.039508 0)
(0.886098 -0.0395006 0)
(0.885818 -0.0394901 0)
(0.885769 -0.0394837 0)
(0.885768 -0.0394826 0)
(0.885768 -0.0394825 0)
(0.885768 -0.0394825 0)
(0.885768 -0.0394825 0)
(0.885768 -0.0394825 0)
(0.885768 -0.0394825 0)
(0.885768 -0.0394825 0)
(0.885768 -0.0394825 0)
(0.885768 -0.0394825 0)
(0.885768 -0.0394825 0)
(0.885768 -0.0394825 0)
(0.885768 -0.0394825 0)
(0.885768 -0.0394825 0)
(0.885768 -0.0394825 0)
(0.885768 -0.0394825 0)
(0.885768 -0.0394825 0)
(0.885768 -0.0394825 0)
(0.885768 -0.0394825 0)
(0.885768 -0.0394825 0)
(0.885768 -0.0394825 0)
(0.885768 -0.0394825 0)
(0.885768 -0.0394825 0)
(0.885768 -0.0394825 0)
(0.885768 -0.0394825 0)
(0.885768 -0.0394825 0)
(0.885768 -0.0394825 0)
(0.885768 -0.0394825 0)
(0.885768 -0.0394825 0)
(0.885768 -0.0394825 0)
(0.885768 -0.0394825 0)
(0.885768 -0.0394825 0)
(0.885768 -0.0394825 0)
(0.885768 -0.0394825 0)
(0.885768 -0.0394825 0)
(0.885768 -0.0394825 0)
(0.885768 -0.0394825 0)
(0.885768 -0.0394825 0)
(0.885768 -0.0394825 0)
(0.885768 -0.0394825 0)
(0.885768 -0.0394825 0)
(0.885768 -0.0394825 0)
(0.885768 -0.0394825 0)
(0.885768 -0.0394825 0)
(0.885768 -0.0394825 0)
(0.885768 -0.0394825 0)
(0.885768 -0.0394825 0)
(0.885768 -0.0394825 0)
(0.885768 -0.0394825 0)
(0.885768 -0.0394825 0)
(0.885768 -0.0394825 0)
(0.885768 -0.0394825 0)
(0.885768 -0.0394825 0)
(0.885768 -0.0394825 0)
(0.885768 -0.0394825 0)
(0.885768 -0.0394825 0)
(0.885768 -0.0394825 0)
(0.885768 -0.0394825 0)
(0.885768 -0.0394825 0)
(0.885768 -0.0394825 0)
(0.885768 -0.0394825 0)
(0.885768 -0.0394825 0)
(0.885768 -0.0394825 0)
(0.885768 -0.0394825 0)
(0.885768 -0.0394825 0)
(0.885768 -0.0394825 0)
(0.885768 -0.0394825 0)
(0.885768 -0.0394825 0)
(0.885768 -0.0394825 0)
(0.885768 -0.0394825 0)
(0.885768 -0.0394825 0)
(0.885768 -0.0394825 0)
(0.885768 -0.0394825 0)
(0.885768 -0.0394825 0)
(0.885768 -0.0394825 0)
(0.885768 -0.0394825 0)
(0.885768 -0.0394825 0)
(0.885768 -0.0394825 0)
(0.885768 -0.0394825 0)
(0.885768 -0.0394825 0)
(0.885768 -0.0394825 0)
(0.885768 -0.0394825 0)
(0.885768 -0.0394825 0)
(0.885768 -0.0394825 0)
(0.885768 -0.0394823 0)
(0.885769 -0.0394738 0)
(0.885802 -0.0391277 0)
(0.886557 -0.0223684 0)
)
;

boundaryField
{
    inandouthalf11
    {
        type            cyclic;
    }
    inandouthalf12
    {
        type            cyclic;
    }
    inandouthalf21
    {
        type            cyclic;
    }
    inandouthalf22
    {
        type            cyclic;
    }
    inandouthalf31
    {
        type            cyclic;
    }
    inandouthalf32
    {
        type            cyclic;
    }
    inandouthalf41
    {
        type            cyclic;
    }
    inandouthalf42
    {
        type            cyclic;
    }
    top
    {
        type            symmetryPlane;
    }
    walls
    {
        type            fixedValue;
        value           uniform (0 0 0);
    }
    frontAndBackPlanes
    {
        type            empty;
    }
}


// ************************************************************************* //
