/*--------------------------------*- C++ -*----------------------------------*\
| =========                 |                                                 |
| \\      /  F ield         | OpenFOAM: The Open Source CFD Toolbox           |
|  \\    /   O peration     | Version:  2.4.x                                 |
|   \\  /    A nd           | Web:      www.OpenFOAM.org                      |
|    \\/     M anipulation  |                                                 |
\*---------------------------------------------------------------------------*/
FoamFile
{
    version     2.0;
    format      ascii;
    class       volVectorField;
    location    "10";
    object      Ub;
}
// * * * * * * * * * * * * * * * * * * * * * * * * * * * * * * * * * * * * * //

dimensions      [0 1 -1 0 0 0 0];

internalField   nonuniform List<vector> 
360
(
(-0.00025463 6.68197e-09 0)
(-0.00025322 2.35611e-08 0)
(-0.000253026 4.28062e-08 0)
(-0.000253216 6.00617e-08 0)
(-0.000253306 7.65359e-08 0)
(-0.000253335 9.29276e-08 0)
(-0.000253371 1.09148e-07 0)
(-0.000253417 1.25101e-07 0)
(-0.000253465 1.40838e-07 0)
(-0.000253513 1.56452e-07 0)
(-0.000253562 1.72025e-07 0)
(-0.00025361 1.87611e-07 0)
(-0.000253659 2.03251e-07 0)
(-0.000253709 2.18981e-07 0)
(-0.000253758 2.34832e-07 0)
(-0.000253809 2.50835e-07 0)
(-0.00025386 2.67016e-07 0)
(-0.000253912 2.83399e-07 0)
(-0.000253964 3.00001e-07 0)
(-0.000254016 3.16842e-07 0)
(-0.000254069 3.33934e-07 0)
(-0.000254123 3.51289e-07 0)
(-0.000254177 3.68919e-07 0)
(-0.000254232 3.86833e-07 0)
(-0.000254287 4.0504e-07 0)
(-0.000254343 4.23544e-07 0)
(-0.0002544 4.4235e-07 0)
(-0.000254457 4.61461e-07 0)
(-0.000254515 4.80881e-07 0)
(-0.000254573 5.00611e-07 0)
(-0.000254632 5.20648e-07 0)
(-0.000254691 5.40995e-07 0)
(-0.000254751 5.61645e-07 0)
(-0.000254812 5.82601e-07 0)
(-0.000254874 6.03858e-07 0)
(-0.000254936 6.2541e-07 0)
(-0.000254998 6.47252e-07 0)
(-0.000255062 6.69378e-07 0)
(-0.000255126 6.91788e-07 0)
(-0.00025519 7.14467e-07 0)
(-0.000255256 7.37413e-07 0)
(-0.000255323 7.60619e-07 0)
(-0.000255389 7.84069e-07 0)
(-0.000255457 8.07763e-07 0)
(-0.000255525 8.31689e-07 0)
(-0.000255594 8.55839e-07 0)
(-0.000255665 8.80204e-07 0)
(-0.000255735 9.04766e-07 0)
(-0.000255806 9.29516e-07 0)
(-0.000255879 9.54453e-07 0)
(-0.000255952 9.79557e-07 0)
(-0.000256026 1.00482e-06 0)
(-0.000256101 1.03023e-06 0)
(-0.000256177 1.05577e-06 0)
(-0.000256253 1.08144e-06 0)
(-0.000256332 1.10722e-06 0)
(-0.00025641 1.13309e-06 0)
(-0.00025649 1.15904e-06 0)
(-0.00025657 1.18507e-06 0)
(-0.000256651 1.21115e-06 0)
(-0.000256734 1.23727e-06 0)
(-0.000256818 1.26342e-06 0)
(-0.000256903 1.28959e-06 0)
(-0.000256988 1.31577e-06 0)
(-0.000257076 1.34193e-06 0)
(-0.000257163 1.36808e-06 0)
(-0.000257253 1.39418e-06 0)
(-0.000257344 1.42023e-06 0)
(-0.000257436 1.44622e-06 0)
(-0.000257528 1.47212e-06 0)
(-0.000257623 1.49792e-06 0)
(-0.000257719 1.52362e-06 0)
(-0.000257816 1.5492e-06 0)
(-0.000257915 1.57464e-06 0)
(-0.000258015 1.59995e-06 0)
(-0.000258117 1.6251e-06 0)
(-0.00025822 1.65008e-06 0)
(-0.000258324 1.67488e-06 0)
(-0.000258431 1.69948e-06 0)
(-0.000258539 1.72387e-06 0)
(-0.000258649 1.74803e-06 0)
(-0.000258761 1.77196e-06 0)
(-0.000258875 1.79564e-06 0)
(-0.00025899 1.81908e-06 0)
(-0.000259108 1.84226e-06 0)
(-0.000259227 1.86517e-06 0)
(-0.000259349 1.88781e-06 0)
(-0.000259473 1.91016e-06 0)
(-0.000259599 1.93221e-06 0)
(-0.000259727 1.95395e-06 0)
(-0.000259858 1.97537e-06 0)
(-0.000259992 1.99646e-06 0)
(-0.000260128 2.01722e-06 0)
(-0.000260266 2.03764e-06 0)
(-0.000260408 2.05771e-06 0)
(-0.000260552 2.07744e-06 0)
(-0.000260699 2.09682e-06 0)
(-0.00026085 2.11584e-06 0)
(-0.000261003 2.1345e-06 0)
(-0.00026116 2.1528e-06 0)
(-0.000261321 2.17073e-06 0)
(-0.000261485 2.18828e-06 0)
(-0.000261652 2.20547e-06 0)
(-0.000261824 2.22228e-06 0)
(-0.000262 2.23873e-06 0)
(-0.00026218 2.2548e-06 0)
(-0.000262364 2.2705e-06 0)
(-0.000262553 2.28583e-06 0)
(-0.000262746 2.3008e-06 0)
(-0.000262945 2.3154e-06 0)
(-0.000263149 2.32963e-06 0)
(-0.000263358 2.3435e-06 0)
(-0.000263572 2.35701e-06 0)
(-0.000263793 2.37015e-06 0)
(-0.00026402 2.38294e-06 0)
(-0.000264253 2.39537e-06 0)
(-0.000264493 2.40744e-06 0)
(-0.00026474 2.41917e-06 0)
(-0.000264995 2.43055e-06 0)
(-0.000265257 2.44159e-06 0)
(-0.000265528 2.4523e-06 0)
(-0.000265807 2.46265e-06 0)
(-0.000266096 2.47263e-06 0)
(-0.000266395 2.4822e-06 0)
(-0.000266704 2.49131e-06 0)
(-0.000267025 2.49988e-06 0)
(-0.000267357 2.50784e-06 0)
(-0.000267703 2.51511e-06 0)
(-0.000268063 2.52164e-06 0)
(-0.000268438 2.52742e-06 0)
(-0.00026883 2.5325e-06 0)
(-0.000269238 2.53699e-06 0)
(-0.000269666 2.54107e-06 0)
(-0.000270117 2.54497e-06 0)
(-0.000270596 2.549e-06 0)
(-0.000271105 2.55335e-06 0)
(-0.00027164 2.55796e-06 0)
(-0.00027221 2.56216e-06 0)
(-0.000272845 2.56481e-06 0)
(-0.000273576 2.56111e-06 0)
(-0.000274371 2.79142e-06 0)
(-0.00027529 6.71594e-07 0)
(-0.000285169 9.29405e-06 0)
(-0.00028401 4.31443e-05 0)
(-0.000277074 7.71605e-05 0)
(-0.000266877 0.000123576 0)
(-0.000189388 5.59276e-05 0)
(0.0170992 0.000457851 0)
(0.105929 0.00188171 0)
(0.170065 0.00131515 0)
(0.217376 0.00141215 0)
(0.255212 0.00131736 0)
(0.28686 0.00117099 0)
(0.314113 0.00102054 0)
(0.33807 0.000885344 0)
(0.359473 0.000769055 0)
(0.378847 0.000670476 0)
(0.396581 0.000587059 0)
(0.412967 0.000516175 0)
(0.428229 0.000455547 0)
(0.442544 0.000403323 0)
(0.456048 0.000358032 0)
(0.468853 0.000318509 0)
(0.481048 0.000283829 0)
(0.492706 0.000253256 0)
(0.503887 0.000226196 0)
(0.514641 0.000202162 0)
(0.525011 0.000180756 0)
(0.535034 0.000161646 0)
(0.544739 0.000144551 0)
(0.554153 0.000129235 0)
(0.563299 0.000115495 0)
(0.572198 0.000103156 0)
(0.580866 9.20666e-05 0)
(0.589319 8.20945e-05 0)
(0.597572 7.31238e-05 0)
(0.605636 6.50526e-05 0)
(0.613522 5.77909e-05 0)
(0.62124 5.12586e-05 0)
(0.628799 4.53847e-05 0)
(0.636207 4.01058e-05 0)
(0.643471 3.53651e-05 0)
(0.650598 3.11118e-05 0)
(0.657592 2.73003e-05 0)
(0.664461 2.38895e-05 0)
(0.671208 2.08424e-05 0)
(0.677839 1.81255e-05 0)
(0.684357 1.57086e-05 0)
(0.690765 1.35646e-05 0)
(0.697068 1.16686e-05 0)
(0.703269 9.9984e-06 0)
(0.70937 8.53385e-06 0)
(0.715373 7.25668e-06 0)
(0.721282 6.15008e-06 0)
(0.727098 5.19814e-06 0)
(0.732823 4.38509e-06 0)
(0.73846 3.6947e-06 0)
(0.744009 3.10994e-06 0)
(0.749471 2.61333e-06 0)
(0.754849 2.18786e-06 0)
(0.760143 1.81846e-06 0)
(0.765407 1.49011e-06 0)
(0.770693 1.19335e-06 0)
(0.775998 9.24915e-07 0)
(0.781321 6.83081e-07 0)
(0.786658 4.66795e-07 0)
(0.792008 2.75217e-07 0)
(0.797368 1.07566e-07 0)
(0.802733 -3.6914e-08 0)
(0.808101 -1.58913e-07 0)
(0.813467 -2.58981e-07 0)
(0.818825 -3.37455e-07 0)
(0.82417 -3.94454e-07 0)
(0.829496 -4.3005e-07 0)
(0.834795 -4.44668e-07 0)
(0.840059 -4.39655e-07 0)
(0.845279 -4.17765e-07 0)
(0.850444 -3.83201e-07 0)
(0.855542 -3.41042e-07 0)
(0.86056 -2.96257e-07 0)
(0.865482 -2.52794e-07 0)
(0.870293 -2.13142e-07 0)
(0.874974 -1.78421e-07 0)
(0.879506 -1.48777e-07 0)
(0.883865 -1.23812e-07 0)
(0.88803 -1.02915e-07 0)
(0.891976 -8.54367e-08 0)
(0.895678 -7.07999e-08 0)
(0.899111 -5.85107e-08 0)
(0.902253 -4.81746e-08 0)
(0.905083 -3.94781e-08 0)
(0.907585 -3.21624e-08 0)
(0.909752 -2.60093e-08 0)
(0.91158 -2.08573e-08 0)
(0.913077 -1.67105e-08 0)
(0.914255 -1.37265e-08 0)
(0.915134 -9.27479e-09 0)
(0.915737 -5.13873e-09 0)
(0.916089 -3.47566e-09 0)
(0.916216 -2.02125e-09 0)
(0.91614 -1.12751e-09 0)
(0.915885 -6.30463e-10 0)
(0.915468 -3.53147e-10 0)
(0.914907 -2.03632e-10 0)
(0.914216 -1.17663e-10 0)
(0.913407 -7.14702e-11 0)
(0.91249 -4.63781e-11 0)
(0.911475 -2.73464e-11 0)
(0.910371 -1.90872e-11 0)
(0.909186 -8.95735e-12 0)
(0.907927 -5.2101e-12 0)
(0.906601 5.01301e-12 0)
(0.905217 6.54166e-12 0)
(0.903782 7.65088e-14 0)
(0.902303 -1.18592e-13 0)
(0.900788 3.14398e-13 0)
(0.899246 3.98313e-13 0)
(0.897685 3.64395e-13 0)
(0.896114 3.4283e-13 0)
(0.894543 3.36761e-13 0)
(0.892982 3.34764e-13 0)
(0.891444 2.98536e-13 0)
(0.889941 1.91094e-13 0)
(0.888485 3.90175e-13 0)
(0.887093 4.22008e-12 0)
(0.885781 -1.54156e-11 0)
(0.884566 3.89492e-11 0)
(0.883469 -7.37105e-11 0)
(0.882511 1.23654e-10 0)
(0.881717 -1.84816e-10 0)
(0.881111 2.591e-10 0)
(0.880768 -3.39508e-10 0)
(0.880704 4.27069e-10 0)
(0.880702 -5.14991e-10 0)
(0.880702 6.07316e-10 0)
(0.880702 -6.98877e-10 0)
(0.880702 7.95061e-10 0)
(0.880702 -8.90487e-10 0)
(0.880702 9.90789e-10 0)
(0.880702 -1.09043e-09 0)
(0.880702 1.1951e-09 0)
(0.880702 -1.29918e-09 0)
(0.880702 1.40855e-09 0)
(0.880702 -1.51726e-09 0)
(0.880702 1.63148e-09 0)
(0.880702 -1.74509e-09 0)
(0.880702 1.86425e-09 0)
(0.880702 -1.983e-09 0)
(0.880702 2.10712e-09 0)
(0.880702 -2.23122e-09 0)
(0.880702 2.36039e-09 0)
(0.880702 -2.48997e-09 0)
(0.880702 2.62416e-09 0)
(0.880702 -2.7594e-09 0)
(0.880702 2.89856e-09 0)
(0.880702 -3.03952e-09 0)
(0.880702 3.18379e-09 0)
(0.880702 -3.3304e-09 0)
(0.880702 3.47987e-09 0)
(0.880702 -3.63185e-09 0)
(0.880702 3.7868e-09 0)
(0.880702 -3.94398e-09 0)
(0.880702 4.10428e-09 0)
(0.880702 -4.26664e-09 0)
(0.880702 4.43213e-09 0)
(0.880702 -4.59954e-09 0)
(0.880702 4.77009e-09 0)
(0.880702 -4.94234e-09 0)
(0.880702 5.1177e-09 0)
(0.880702 -5.29456e-09 0)
(0.880702 4.80721e-09 0)
(0.880702 -4.87729e-09 0)
(0.880702 4.94733e-09 0)
(0.880702 -5.01576e-09 0)
(0.880702 5.0842e-09 0)
(0.880702 -5.15094e-09 0)
(0.880702 5.21774e-09 0)
(0.880702 -5.28279e-09 0)
(0.880702 5.34789e-09 0)
(0.880702 -5.41128e-09 0)
(0.880702 5.47463e-09 0)
(0.880702 -5.53629e-09 0)
(0.880702 5.5979e-09 0)
(0.880702 -5.65782e-09 0)
(0.880702 5.71757e-09 0)
(0.880702 -5.7758e-09 0)
(0.880702 5.83365e-09 0)
(0.880702 -5.88988e-09 0)
(0.880702 5.94672e-09 0)
(0.880702 -5.99984e-09 0)
(0.880702 6.05644e-09 0)
(0.880702 -6.1054e-09 0)
(0.880702 6.16253e-09 0)
(0.880702 -6.20711e-09 0)
(0.880702 6.26454e-09 0)
(0.880702 -6.30504e-09 0)
(0.880702 6.36237e-09 0)
(0.880702 -6.39859e-09 0)
(0.880702 6.45607e-09 0)
(0.880702 -6.48815e-09 0)
(0.880702 6.5448e-09 0)
(0.880702 -6.57341e-09 0)
(0.880702 6.6285e-09 0)
(0.880702 -6.6544e-09 0)
(0.880702 6.70751e-09 0)
(0.880702 -6.72908e-09 0)
(0.880702 6.78238e-09 0)
(0.880702 -6.79869e-09 0)
(0.880702 6.85054e-09 0)
(0.880702 -6.86322e-09 0)
(0.880702 6.91176e-09 0)
(0.880702 -6.92292e-09 0)
(0.880702 6.96517e-09 0)
(0.880702 -6.9749e-09 0)
(0.880702 7.01133e-09 0)
(0.880702 -7.01965e-09 0)
(0.880702 7.04649e-09 0)
(0.880702 -7.05495e-09 0)
(0.880702 7.06877e-09 0)
(0.880702 -7.07402e-09 0)
)
;

boundaryField
{
    inandouthalf11
    {
        type            cyclic;
    }
    inandouthalf12
    {
        type            cyclic;
    }
    inandouthalf21
    {
        type            cyclic;
    }
    inandouthalf22
    {
        type            cyclic;
    }
    inandouthalf31
    {
        type            cyclic;
    }
    inandouthalf32
    {
        type            cyclic;
    }
    inandouthalf41
    {
        type            cyclic;
    }
    inandouthalf42
    {
        type            cyclic;
    }
    top
    {
        type            symmetryPlane;
    }
    walls
    {
        type            fixedValue;
        value           uniform (0 0 0);
    }
    frontAndBackPlanes
    {
        type            empty;
    }
}


// ************************************************************************* //
