/*--------------------------------*- C++ -*----------------------------------*\
| =========                 |                                                 |
| \\      /  F ield         | OpenFOAM: The Open Source CFD Toolbox           |
|  \\    /   O peration     | Version:  2.4.x                                 |
|   \\  /    A nd           | Web:      www.OpenFOAM.org                      |
|    \\/     M anipulation  |                                                 |
\*---------------------------------------------------------------------------*/
FoamFile
{
    version     2.0;
    format      ascii;
    class       volVectorField;
    location    "10";
    object      Ub_0;
}
// * * * * * * * * * * * * * * * * * * * * * * * * * * * * * * * * * * * * * //

dimensions      [0 1 -1 0 0 0 0];

internalField   nonuniform List<vector> 
360
(
(-0.000254602 6.68257e-09 0)
(-0.000253192 2.35632e-08 0)
(-0.000252999 4.28101e-08 0)
(-0.000253189 6.00673e-08 0)
(-0.000253279 7.65431e-08 0)
(-0.000253307 9.29367e-08 0)
(-0.000253343 1.09159e-07 0)
(-0.00025339 1.25114e-07 0)
(-0.000253437 1.40853e-07 0)
(-0.000253486 1.5647e-07 0)
(-0.000253534 1.72045e-07 0)
(-0.000253583 1.87633e-07 0)
(-0.000253632 2.03276e-07 0)
(-0.000253681 2.19009e-07 0)
(-0.000253731 2.34864e-07 0)
(-0.000253782 2.5087e-07 0)
(-0.000253833 2.67054e-07 0)
(-0.000253884 2.8344e-07 0)
(-0.000253936 3.00047e-07 0)
(-0.000253989 3.16891e-07 0)
(-0.000254042 3.33986e-07 0)
(-0.000254095 3.51345e-07 0)
(-0.00025415 3.6898e-07 0)
(-0.000254204 3.86899e-07 0)
(-0.00025426 4.0511e-07 0)
(-0.000254316 4.23619e-07 0)
(-0.000254372 4.42429e-07 0)
(-0.000254429 4.61545e-07 0)
(-0.000254487 4.8097e-07 0)
(-0.000254545 5.00704e-07 0)
(-0.000254604 5.20746e-07 0)
(-0.000254664 5.41098e-07 0)
(-0.000254724 5.61754e-07 0)
(-0.000254785 5.82716e-07 0)
(-0.000254846 6.03978e-07 0)
(-0.000254908 6.25535e-07 0)
(-0.000254971 6.47383e-07 0)
(-0.000255034 6.69515e-07 0)
(-0.000255099 6.9193e-07 0)
(-0.000255163 7.14615e-07 0)
(-0.000255229 7.37566e-07 0)
(-0.000255295 7.60778e-07 0)
(-0.000255361 7.84235e-07 0)
(-0.000255429 8.07934e-07 0)
(-0.000255498 8.31866e-07 0)
(-0.000255567 8.56022e-07 0)
(-0.000255637 8.80393e-07 0)
(-0.000255707 9.04961e-07 0)
(-0.000255779 9.29717e-07 0)
(-0.000255852 9.54659e-07 0)
(-0.000255924 9.7977e-07 0)
(-0.000255999 1.00504e-06 0)
(-0.000256073 1.03045e-06 0)
(-0.000256149 1.05601e-06 0)
(-0.000256226 1.08167e-06 0)
(-0.000256304 1.10746e-06 0)
(-0.000256382 1.13334e-06 0)
(-0.000256462 1.1593e-06 0)
(-0.000256542 1.18533e-06 0)
(-0.000256623 1.21141e-06 0)
(-0.000256707 1.23754e-06 0)
(-0.00025679 1.2637e-06 0)
(-0.000256875 1.28987e-06 0)
(-0.000256961 1.31606e-06 0)
(-0.000257048 1.34223e-06 0)
(-0.000257136 1.36838e-06 0)
(-0.000257225 1.39449e-06 0)
(-0.000257316 1.42055e-06 0)
(-0.000257408 1.44654e-06 0)
(-0.0002575 1.47244e-06 0)
(-0.000257595 1.49824e-06 0)
(-0.000257691 1.52395e-06 0)
(-0.000257788 1.54953e-06 0)
(-0.000257887 1.57498e-06 0)
(-0.000257987 1.60029e-06 0)
(-0.000258089 1.62545e-06 0)
(-0.000258192 1.65043e-06 0)
(-0.000258296 1.67524e-06 0)
(-0.000258403 1.69984e-06 0)
(-0.000258511 1.72423e-06 0)
(-0.000258621 1.7484e-06 0)
(-0.000258733 1.77233e-06 0)
(-0.000258846 1.79602e-06 0)
(-0.000258962 1.81946e-06 0)
(-0.000259079 1.84264e-06 0)
(-0.000259199 1.86556e-06 0)
(-0.000259321 1.8882e-06 0)
(-0.000259445 1.91055e-06 0)
(-0.000259571 1.93261e-06 0)
(-0.000259699 1.95435e-06 0)
(-0.00025983 1.97577e-06 0)
(-0.000259963 1.99686e-06 0)
(-0.000260099 2.01762e-06 0)
(-0.000260238 2.03804e-06 0)
(-0.000260379 2.05812e-06 0)
(-0.000260524 2.07785e-06 0)
(-0.000260671 2.09723e-06 0)
(-0.000260821 2.11626e-06 0)
(-0.000260975 2.13492e-06 0)
(-0.000261132 2.15322e-06 0)
(-0.000261292 2.17115e-06 0)
(-0.000261456 2.18871e-06 0)
(-0.000261624 2.20589e-06 0)
(-0.000261795 2.22271e-06 0)
(-0.000261971 2.23915e-06 0)
(-0.000262151 2.25522e-06 0)
(-0.000262335 2.27092e-06 0)
(-0.000262524 2.28626e-06 0)
(-0.000262718 2.30122e-06 0)
(-0.000262916 2.31582e-06 0)
(-0.00026312 2.33006e-06 0)
(-0.000263329 2.34393e-06 0)
(-0.000263544 2.35744e-06 0)
(-0.000263764 2.37058e-06 0)
(-0.000263991 2.38337e-06 0)
(-0.000264224 2.3958e-06 0)
(-0.000264464 2.40787e-06 0)
(-0.000264711 2.4196e-06 0)
(-0.000264966 2.43098e-06 0)
(-0.000265228 2.44202e-06 0)
(-0.000265499 2.45272e-06 0)
(-0.000265778 2.46308e-06 0)
(-0.000266067 2.47306e-06 0)
(-0.000266366 2.48263e-06 0)
(-0.000266675 2.49174e-06 0)
(-0.000266995 2.50031e-06 0)
(-0.000267328 2.50827e-06 0)
(-0.000267673 2.51553e-06 0)
(-0.000268033 2.52206e-06 0)
(-0.000268409 2.52784e-06 0)
(-0.0002688 2.53292e-06 0)
(-0.000269209 2.53741e-06 0)
(-0.000269636 2.54149e-06 0)
(-0.000270087 2.54539e-06 0)
(-0.000270567 2.54941e-06 0)
(-0.000271075 2.55377e-06 0)
(-0.00027161 2.55838e-06 0)
(-0.000272181 2.56257e-06 0)
(-0.000272815 2.56522e-06 0)
(-0.000273546 2.5615e-06 0)
(-0.000274342 2.79369e-06 0)
(-0.00027526 6.59142e-07 0)
(-0.000285145 9.33166e-06 0)
(-0.000283962 4.35728e-05 0)
(-0.00027688 7.80484e-05 0)
(-0.000266337 0.000125609 0)
(-0.000186805 5.73939e-05 0)
(0.0172978 0.000457273 0)
(0.106152 0.00188318 0)
(0.170227 0.00131708 0)
(0.217519 0.00141452 0)
(0.255354 0.00131906 0)
(0.28701 0.00117177 0)
(0.314272 0.00102086 0)
(0.338239 0.000885478 0)
(0.359649 0.000769122 0)
(0.37903 0.000670526 0)
(0.396769 0.000587108 0)
(0.41316 0.000516227 0)
(0.428427 0.000455601 0)
(0.442745 0.000403378 0)
(0.456253 0.000358086 0)
(0.469062 0.000318559 0)
(0.481259 0.000283876 0)
(0.49292 0.000253299 0)
(0.504103 0.000226233 0)
(0.51486 0.000202195 0)
(0.525233 0.000180785 0)
(0.535257 0.00016167 0)
(0.544964 0.000144572 0)
(0.55438 0.000129252 0)
(0.563528 0.000115509 0)
(0.572428 0.000103167 0)
(0.581098 9.20749e-05 0)
(0.589553 8.21005e-05 0)
(0.597807 7.3128e-05 0)
(0.605873 6.50552e-05 0)
(0.61376 5.77921e-05 0)
(0.621479 5.12587e-05 0)
(0.62904 4.53839e-05 0)
(0.636449 4.01041e-05 0)
(0.643714 3.53628e-05 0)
(0.650841 3.1109e-05 0)
(0.657837 2.72972e-05 0)
(0.664707 2.38861e-05 0)
(0.671455 2.08387e-05 0)
(0.678086 1.81217e-05 0)
(0.684605 1.57048e-05 0)
(0.691015 1.35608e-05 0)
(0.697318 1.16649e-05 0)
(0.70352 9.99477e-06 0)
(0.709621 8.53037e-06 0)
(0.715626 7.25338e-06 0)
(0.721535 6.147e-06 0)
(0.727352 5.1953e-06 0)
(0.733078 4.3825e-06 0)
(0.738715 3.69236e-06 0)
(0.744264 3.10784e-06 0)
(0.749727 2.61142e-06 0)
(0.755106 2.18612e-06 0)
(0.7604 1.81684e-06 0)
(0.765665 1.48858e-06 0)
(0.770951 1.1919e-06 0)
(0.776257 9.23526e-07 0)
(0.78158 6.81757e-07 0)
(0.786918 4.65535e-07 0)
(0.792269 2.74024e-07 0)
(0.797629 1.06442e-07 0)
(0.802995 -3.7965e-08 0)
(0.808363 -1.59889e-07 0)
(0.813729 -2.59878e-07 0)
(0.819087 -3.38269e-07 0)
(0.824433 -3.95181e-07 0)
(0.829759 -4.30686e-07 0)
(0.835058 -4.45208e-07 0)
(0.840323 -4.401e-07 0)
(0.845542 -4.18118e-07 0)
(0.850707 -3.83473e-07 0)
(0.855805 -3.41246e-07 0)
(0.860823 -2.96407e-07 0)
(0.865745 -2.52905e-07 0)
(0.870556 -2.13224e-07 0)
(0.875237 -1.78484e-07 0)
(0.879768 -1.48825e-07 0)
(0.884127 -1.23851e-07 0)
(0.888291 -1.02946e-07 0)
(0.892236 -8.54614e-08 0)
(0.895937 -7.082e-08 0)
(0.89937 -5.85272e-08 0)
(0.90251 -4.81881e-08 0)
(0.905339 -3.94892e-08 0)
(0.90784 -3.21715e-08 0)
(0.910005 -2.60168e-08 0)
(0.911832 -2.08634e-08 0)
(0.913328 -1.67156e-08 0)
(0.914504 -1.37309e-08 0)
(0.915382 -9.27792e-09 0)
(0.915984 -5.14046e-09 0)
(0.916335 -3.47694e-09 0)
(0.916461 -2.02228e-09 0)
(0.916385 -1.12834e-09 0)
(0.916129 -6.3111e-10 0)
(0.915712 -3.53651e-10 0)
(0.91515 -2.04005e-10 0)
(0.914458 -1.17934e-10 0)
(0.913649 -7.1657e-11 0)
(0.912731 -4.64936e-11 0)
(0.911716 -2.74181e-11 0)
(0.910612 -1.91142e-11 0)
(0.909426 -8.96259e-12 0)
(0.908167 -5.1905e-12 0)
(0.906841 5.04132e-12 0)
(0.905457 6.57311e-12 0)
(0.904021 1.09314e-13 0)
(0.902542 -8.72226e-14 0)
(0.901027 3.44483e-13 0)
(0.899485 4.27361e-13 0)
(0.897923 3.9247e-13 0)
(0.896352 3.69914e-13 0)
(0.894781 3.6266e-13 0)
(0.893221 3.59499e-13 0)
(0.891683 3.22246e-13 0)
(0.890179 2.13559e-13 0)
(0.888724 4.11201e-13 0)
(0.887332 4.24745e-12 0)
(0.886019 -1.54077e-11 0)
(0.884805 3.89946e-11 0)
(0.883708 -7.37243e-11 0)
(0.88275 1.23725e-10 0)
(0.881956 -1.84855e-10 0)
(0.88135 2.59197e-10 0)
(0.881008 -3.39567e-10 0)
(0.880944 4.27183e-10 0)
(0.880942 -5.15061e-10 0)
(0.880942 6.07442e-10 0)
(0.880942 -6.98956e-10 0)
(0.880942 7.95197e-10 0)
(0.880942 -8.90576e-10 0)
(0.880942 9.90936e-10 0)
(0.880942 -1.09053e-09 0)
(0.880942 1.19526e-09 0)
(0.880942 -1.29929e-09 0)
(0.880942 1.40872e-09 0)
(0.880942 -1.51739e-09 0)
(0.880942 1.63166e-09 0)
(0.880942 -1.74523e-09 0)
(0.880942 1.86443e-09 0)
(0.880942 -1.98315e-09 0)
(0.880942 2.10731e-09 0)
(0.880942 -2.23139e-09 0)
(0.880942 2.3606e-09 0)
(0.880942 -2.49016e-09 0)
(0.880942 2.62438e-09 0)
(0.880942 -2.75961e-09 0)
(0.880942 2.8988e-09 0)
(0.880942 -3.03975e-09 0)
(0.880942 3.18403e-09 0)
(0.880942 -3.33064e-09 0)
(0.880942 3.48013e-09 0)
(0.880942 -3.63211e-09 0)
(0.880942 3.78708e-09 0)
(0.880942 -3.94426e-09 0)
(0.880942 4.10458e-09 0)
(0.880942 -4.26694e-09 0)
(0.880942 4.43245e-09 0)
(0.880942 -4.59986e-09 0)
(0.880942 4.77042e-09 0)
(0.880942 -4.94268e-09 0)
(0.880942 5.11805e-09 0)
(0.880942 -5.29492e-09 0)
(0.880942 4.80753e-09 0)
(0.880942 -4.87761e-09 0)
(0.880942 4.94767e-09 0)
(0.880942 -5.01609e-09 0)
(0.880942 5.08454e-09 0)
(0.880942 -5.15128e-09 0)
(0.880942 5.21808e-09 0)
(0.880942 -5.28313e-09 0)
(0.880942 5.34825e-09 0)
(0.880942 -5.41162e-09 0)
(0.880942 5.47499e-09 0)
(0.880942 -5.53664e-09 0)
(0.880942 5.59827e-09 0)
(0.880942 -5.65817e-09 0)
(0.880942 5.71795e-09 0)
(0.880942 -5.77615e-09 0)
(0.880942 5.83404e-09 0)
(0.880942 -5.89024e-09 0)
(0.880942 5.94712e-09 0)
(0.880942 -6.00018e-09 0)
(0.880942 6.05686e-09 0)
(0.880942 -6.10574e-09 0)
(0.880942 6.16297e-09 0)
(0.880942 -6.20744e-09 0)
(0.880942 6.26501e-09 0)
(0.880942 -6.30534e-09 0)
(0.880942 6.36287e-09 0)
(0.880942 -6.39888e-09 0)
(0.880942 6.45658e-09 0)
(0.880942 -6.48842e-09 0)
(0.880942 6.54534e-09 0)
(0.880942 -6.57366e-09 0)
(0.880942 6.62907e-09 0)
(0.880942 -6.6546e-09 0)
(0.880942 6.70813e-09 0)
(0.880942 -6.72927e-09 0)
(0.880942 6.78301e-09 0)
(0.880942 -6.79887e-09 0)
(0.880942 6.8512e-09 0)
(0.880942 -6.86339e-09 0)
(0.880942 6.91241e-09 0)
(0.880942 -6.92309e-09 0)
(0.880942 6.96583e-09 0)
(0.880942 -6.9751e-09 0)
(0.880942 7.01196e-09 0)
(0.880942 -7.01989e-09 0)
(0.880942 7.04706e-09 0)
(0.880942 -7.05527e-09 0)
(0.880942 7.06926e-09 0)
(0.880942 -7.07442e-09 0)
)
;

boundaryField
{
    inandouthalf11
    {
        type            cyclic;
    }
    inandouthalf12
    {
        type            cyclic;
    }
    inandouthalf21
    {
        type            cyclic;
    }
    inandouthalf22
    {
        type            cyclic;
    }
    inandouthalf31
    {
        type            cyclic;
    }
    inandouthalf32
    {
        type            cyclic;
    }
    inandouthalf41
    {
        type            cyclic;
    }
    inandouthalf42
    {
        type            cyclic;
    }
    top
    {
        type            symmetryPlane;
    }
    walls
    {
        type            fixedValue;
        value           uniform (0 0 0);
    }
    frontAndBackPlanes
    {
        type            empty;
    }
}


// ************************************************************************* //
