/*--------------------------------*- C++ -*----------------------------------*\
| =========                 |                                                 |
| \\      /  F ield         | OpenFOAM: The Open Source CFD Toolbox           |
|  \\    /   O peration     | Version:  2.4.x                                 |
|   \\  /    A nd           | Web:      www.OpenFOAM.org                      |
|    \\/     M anipulation  |                                                 |
\*---------------------------------------------------------------------------*/
FoamFile
{
    version     2.0;
    format      ascii;
    class       volVectorField;
    location    "10";
    object      Ur;
}
// * * * * * * * * * * * * * * * * * * * * * * * * * * * * * * * * * * * * * //

dimensions      [0 1 -1 0 0 0 0];

internalField   nonuniform List<vector> 
360
(
(-0.00025463 6.68197e-09 0)
(-0.00025322 3.9482e-08 0)
(-0.000253026 7.08034e-08 0)
(-0.000253216 9.82295e-08 0)
(-0.000253306 1.25055e-07 0)
(-0.000253334 1.5195e-07 0)
(-0.00025337 1.78496e-07 0)
(-0.000253416 2.04566e-07 0)
(-0.000253464 2.30285e-07 0)
(-0.000253512 2.55812e-07 0)
(-0.000253561 2.81275e-07 0)
(-0.00025361 3.06764e-07 0)
(-0.000253659 3.32346e-07 0)
(-0.000253708 3.58077e-07 0)
(-0.000253758 3.84008e-07 0)
(-0.000253809 4.10189e-07 0)
(-0.00025386 4.36666e-07 0)
(-0.000253912 4.63475e-07 0)
(-0.000253964 4.90646e-07 0)
(-0.000254017 5.18209e-07 0)
(-0.000254071 5.46185e-07 0)
(-0.000254125 5.74596e-07 0)
(-0.000254179 6.03459e-07 0)
(-0.000254234 6.3279e-07 0)
(-0.00025429 6.62603e-07 0)
(-0.000254347 6.92905e-07 0)
(-0.000254404 7.23703e-07 0)
(-0.000254461 7.55005e-07 0)
(-0.00025452 7.86816e-07 0)
(-0.000254579 8.19136e-07 0)
(-0.000254638 8.51963e-07 0)
(-0.000254699 8.853e-07 0)
(-0.000254759 9.19139e-07 0)
(-0.000254821 9.53481e-07 0)
(-0.000254883 9.88319e-07 0)
(-0.000254946 1.02364e-06 0)
(-0.00025501 1.05945e-06 0)
(-0.000255074 1.09572e-06 0)
(-0.00025514 1.13246e-06 0)
(-0.000255205 1.16965e-06 0)
(-0.000255272 1.20728e-06 0)
(-0.000255339 1.24534e-06 0)
(-0.000255407 1.2838e-06 0)
(-0.000255476 1.32267e-06 0)
(-0.000255546 1.36192e-06 0)
(-0.000255617 1.40155e-06 0)
(-0.000255688 1.44153e-06 0)
(-0.00025576 1.48184e-06 0)
(-0.000255833 1.52246e-06 0)
(-0.000255908 1.5634e-06 0)
(-0.000255982 1.60461e-06 0)
(-0.000256058 1.64609e-06 0)
(-0.000256134 1.68782e-06 0)
(-0.000256212 1.72977e-06 0)
(-0.00025629 1.77193e-06 0)
(-0.000256371 1.81428e-06 0)
(-0.000256451 1.85679e-06 0)
(-0.000256533 1.89945e-06 0)
(-0.000256615 1.94222e-06 0)
(-0.000256698 1.98509e-06 0)
(-0.000256784 2.02803e-06 0)
(-0.000256869 2.07103e-06 0)
(-0.000256957 2.11408e-06 0)
(-0.000257045 2.15713e-06 0)
(-0.000257134 2.20019e-06 0)
(-0.000257225 2.24321e-06 0)
(-0.000257317 2.28617e-06 0)
(-0.00025741 2.32906e-06 0)
(-0.000257505 2.37185e-06 0)
(-0.0002576 2.41449e-06 0)
(-0.000257697 2.457e-06 0)
(-0.000257796 2.49934e-06 0)
(-0.000257896 2.54149e-06 0)
(-0.000257997 2.58344e-06 0)
(-0.0002581 2.62515e-06 0)
(-0.000258205 2.66664e-06 0)
(-0.000258311 2.70785e-06 0)
(-0.000258419 2.74877e-06 0)
(-0.000258529 2.78938e-06 0)
(-0.00025864 2.82965e-06 0)
(-0.000258753 2.86956e-06 0)
(-0.000258868 2.90909e-06 0)
(-0.000258985 2.94824e-06 0)
(-0.000259103 2.98699e-06 0)
(-0.000259224 3.02533e-06 0)
(-0.000259347 3.06324e-06 0)
(-0.000259472 3.10071e-06 0)
(-0.000259599 3.13772e-06 0)
(-0.000259729 3.17425e-06 0)
(-0.00025986 3.21029e-06 0)
(-0.000259995 3.24581e-06 0)
(-0.000260131 3.2808e-06 0)
(-0.000260271 3.31526e-06 0)
(-0.000260413 3.34917e-06 0)
(-0.000260558 3.38254e-06 0)
(-0.000260705 3.41535e-06 0)
(-0.000260856 3.4476e-06 0)
(-0.00026101 3.47928e-06 0)
(-0.000261167 3.51038e-06 0)
(-0.000261327 3.5409e-06 0)
(-0.000261491 3.57083e-06 0)
(-0.000261659 3.60016e-06 0)
(-0.00026183 3.6289e-06 0)
(-0.000262005 3.65704e-06 0)
(-0.000262184 3.68459e-06 0)
(-0.000262368 3.71155e-06 0)
(-0.000262555 3.73792e-06 0)
(-0.000262748 3.76371e-06 0)
(-0.000262945 3.78891e-06 0)
(-0.000263147 3.81352e-06 0)
(-0.000263354 3.83756e-06 0)
(-0.000263567 3.86102e-06 0)
(-0.000263785 3.88391e-06 0)
(-0.000264009 3.90623e-06 0)
(-0.000264239 3.92797e-06 0)
(-0.000264476 3.94915e-06 0)
(-0.00026472 3.96978e-06 0)
(-0.00026497 3.98986e-06 0)
(-0.000265228 4.0094e-06 0)
(-0.000265494 4.02841e-06 0)
(-0.000265769 4.04689e-06 0)
(-0.000266052 4.06483e-06 0)
(-0.000266345 4.0822e-06 0)
(-0.000266647 4.09893e-06 0)
(-0.00026696 4.11494e-06 0)
(-0.000267284 4.13011e-06 0)
(-0.000267621 4.1443e-06 0)
(-0.00026797 4.15739e-06 0)
(-0.000268333 4.1693e-06 0)
(-0.000268712 4.18002e-06 0)
(-0.000269107 4.18963e-06 0)
(-0.000269519 4.1983e-06 0)
(-0.000269949 4.20634e-06 0)
(-0.000270404 4.21417e-06 0)
(-0.000270887 4.22228e-06 0)
(-0.0002714 4.23108e-06 0)
(-0.000271941 4.2405e-06 0)
(-0.000272517 4.24951e-06 0)
(-0.000273157 4.25618e-06 0)
(-0.000273891 4.25484e-06 0)
(-0.000274688 4.48588e-06 0)
(-0.000275607 2.36612e-06 0)
(-0.000285486 1.09886e-05 0)
(-0.000286985 7.21764e-05 0)
(-0.000287554 0.000132946 0)
(-0.000289544 0.000194552 0)
(-0.000251976 0.000137727 0)
(0.00220894 0.000950684 0)
(0.00437271 0.00616253 0)
(0.00115707 0.00696148 0)
(-0.00104204 0.00872662 0)
(-0.00244032 0.0100206 0)
(-0.00333149 0.0108514 0)
(-0.00393091 0.0113362 0)
(-0.0043578 0.0116251 0)
(-0.00467519 0.0118008 0)
(-0.00491921 0.0119059 0)
(-0.00511167 0.0119614 0)
(-0.00526633 0.0119771 0)
(-0.00539225 0.0119585 0)
(-0.00549552 0.0119087 0)
(-0.00558045 0.0118301 0)
(-0.00565015 0.0117248 0)
(-0.00570692 0.0115947 0)
(-0.00575244 0.0114418 0)
(-0.005788 0.0112682 0)
(-0.0058146 0.0110757 0)
(-0.00583301 0.0108662 0)
(-0.00584383 0.0106415 0)
(-0.00584752 0.0104031 0)
(-0.00584442 0.0101527 0)
(-0.00583476 0.00989149 0)
(-0.00581874 0.00962088 0)
(-0.00579641 0.009342 0)
(-0.00576778 0.0090559 0)
(-0.00573277 0.00876351 0)
(-0.00569123 0.00846571 0)
(-0.00564289 0.0081633 0)
(-0.00558737 0.00785701 0)
(-0.0055242 0.00754754 0)
(-0.00545272 0.00723555 0)
(-0.00537216 0.0069217 0)
(-0.00528155 0.00660663 0)
(-0.00517972 0.00629103 0)
(-0.00506531 0.00597558 0)
(-0.00493672 0.00566106 0)
(-0.0047921 0.00534831 0)
(-0.00462938 0.00503825 0)
(-0.00444623 0.00473199 0)
(-0.00424009 0.00443078 0)
(-0.00400818 0.00413616 0)
(-0.00374751 0.00384995 0)
(-0.00345493 0.00357433 0)
(-0.00312717 0.0033117 0)
(-0.00276089 0.00306444 0)
(-0.00235274 0.0028344 0)
(-0.0018994 0.00262217 0)
(-0.00139765 0.00242642 0)
(-0.000844372 0.00224345 0)
(-0.000236647 0.00206738 0)
(0.000428252 0.00189124 0)
(0.00115977 0.00170687 0)
(0.00196832 0.00150758 0)
(0.00285702 0.0012905 0)
(0.00382923 0.00105442 0)
(0.00488853 0.000799094 0)
(0.00603875 0.000524828 0)
(0.00728389 0.000232354 0)
(0.008628 -7.71796e-05 0)
(0.010075 -0.000402061 0)
(0.0116288 -0.000739747 0)
(0.0132926 -0.00108646 0)
(0.0150689 -0.00143676 0)
(0.016959 -0.0017832 0)
(0.0189627 -0.00211641 0)
(0.0210771 -0.00242589 0)
(0.0232964 -0.00270145 0)
(0.0256114 -0.00293512 0)
(0.0280096 -0.00312272 0)
(0.0304749 -0.00326435 0)
(0.0329887 -0.00336386 0)
(0.0355302 -0.00342742 0)
(0.0380767 -0.00346211 0)
(0.0406045 -0.00347474 0)
(0.0430886 -0.0034712 0)
(0.0455029 -0.00345621 0)
(0.0478209 -0.00343344 0)
(0.0500154 -0.00340511 0)
(0.0520606 -0.00337326 0)
(0.0539314 -0.00333781 0)
(0.0556088 -0.00330009 0)
(0.0570756 -0.0032575 0)
(0.0583294 -0.00321167 0)
(0.0593692 -0.00315502 0)
(0.0602192 -0.00309144 0)
(0.0609007 -0.00299702 0)
(0.061266 -0.0028485 0)
(-0.00635497 -0.000298062 0)
(-0.00716762 -0.00230523 0)
(-0.00717734 -0.00078039 0)
(-0.0071395 -0.00130103 0)
(-0.00712292 -0.000720668 0)
(-0.00709603 -0.000949847 0)
(-0.00708089 -0.000184039 0)
(-0.00704913 -0.0012542 0)
(-0.00704188 0.000643059 0)
(-0.00698893 -0.00219105 0)
(-0.00698603 0.00191249 0)
(-0.00688249 -0.00387 0)
(-0.00687377 0.00387515 0)
(-0.00670139 -0.00622957 0)
(-0.00627392 0.00662651 0)
(-0.00467774 0.0371482 0)
(-0.00460735 0.0395946 0)
(-0.00454405 0.0395129 0)
(-0.00454326 0.0395197 0)
(-0.00453968 0.0395204 0)
(-0.0045386 0.0395215 0)
(-0.00453961 0.0395224 0)
(-0.00454281 0.039523 0)
(-0.00454825 0.0395235 0)
(-0.00455601 0.0395236 0)
(-0.00456621 0.0395235 0)
(-0.00457897 0.0395229 0)
(-0.00459446 0.039522 0)
(-0.00461284 0.0395205 0)
(-0.00463428 0.0395185 0)
(-0.00465897 0.0395159 0)
(-0.00468693 0.0395124 0)
(-0.0047164 0.039508 0)
(-0.00474868 0.0395006 0)
(-0.0048107 0.0394901 0)
(-0.00482595 0.0394837 0)
(-0.00482653 0.0394825 0)
(-0.00482653 0.0394825 0)
(-0.00482653 0.0394825 0)
(-0.00482653 0.0394825 0)
(-0.00482653 0.0394825 0)
(-0.00482653 0.0394825 0)
(-0.00482653 0.0394825 0)
(-0.00482653 0.0394825 0)
(-0.00482653 0.0394825 0)
(-0.00482653 0.0394825 0)
(-0.00482653 0.0394825 0)
(-0.00482653 0.0394825 0)
(-0.00482653 0.0394825 0)
(-0.00482653 0.0394825 0)
(-0.00482653 0.0394825 0)
(-0.00482653 0.0394825 0)
(-0.00482653 0.0394825 0)
(-0.00482653 0.0394825 0)
(-0.00482653 0.0394825 0)
(-0.00482653 0.0394825 0)
(-0.00482653 0.0394825 0)
(-0.00482653 0.0394825 0)
(-0.00482653 0.0394825 0)
(-0.00482653 0.0394825 0)
(-0.00482653 0.0394825 0)
(-0.00482653 0.0394825 0)
(-0.00482653 0.0394825 0)
(-0.00482653 0.0394825 0)
(-0.00482653 0.0394825 0)
(-0.00482653 0.0394825 0)
(-0.00482653 0.0394825 0)
(-0.00482653 0.0394825 0)
(-0.00482653 0.0394825 0)
(-0.00482653 0.0394825 0)
(-0.00482653 0.0394825 0)
(-0.00482653 0.0394825 0)
(-0.00482653 0.0394825 0)
(-0.00482653 0.0394825 0)
(-0.00482653 0.0394825 0)
(-0.00482653 0.0394825 0)
(-0.00482653 0.0394825 0)
(-0.00482653 0.0394825 0)
(-0.00482653 0.0394825 0)
(-0.00482653 0.0394825 0)
(-0.00482653 0.0394825 0)
(-0.00482653 0.0394825 0)
(-0.00482653 0.0394825 0)
(-0.00482653 0.0394825 0)
(-0.00482653 0.0394825 0)
(-0.00482653 0.0394825 0)
(-0.00482653 0.0394825 0)
(-0.00482653 0.0394825 0)
(-0.00482653 0.0394825 0)
(-0.00482653 0.0394825 0)
(-0.00482653 0.0394825 0)
(-0.00482653 0.0394825 0)
(-0.00482653 0.0394825 0)
(-0.00482653 0.0394825 0)
(-0.00482653 0.0394825 0)
(-0.00482653 0.0394825 0)
(-0.00482653 0.0394825 0)
(-0.00482653 0.0394825 0)
(-0.00482653 0.0394825 0)
(-0.00482653 0.0394825 0)
(-0.00482653 0.0394825 0)
(-0.00482653 0.0394825 0)
(-0.00482653 0.0394825 0)
(-0.00482653 0.0394825 0)
(-0.00482653 0.0394825 0)
(-0.00482653 0.0394825 0)
(-0.00482653 0.0394825 0)
(-0.00482653 0.0394825 0)
(-0.00482653 0.0394825 0)
(-0.00482653 0.0394825 0)
(-0.00482653 0.0394825 0)
(-0.00482653 0.0394825 0)
(-0.00482653 0.0394825 0)
(-0.00482653 0.0394825 0)
(-0.00482653 0.0394825 0)
(-0.00482653 0.0394825 0)
(-0.00482653 0.0394825 0)
(-0.00482653 0.0394825 0)
(-0.00482654 0.0394825 0)
(-0.00482659 0.0394823 0)
(-0.00482792 0.0394738 0)
(-0.00486049 0.0391277 0)
(-0.0056157 0.0223684 0)
)
;

boundaryField
{
    inandouthalf11
    {
        type            cyclic;
    }
    inandouthalf12
    {
        type            cyclic;
    }
    inandouthalf21
    {
        type            cyclic;
    }
    inandouthalf22
    {
        type            cyclic;
    }
    inandouthalf31
    {
        type            cyclic;
    }
    inandouthalf32
    {
        type            cyclic;
    }
    inandouthalf41
    {
        type            cyclic;
    }
    inandouthalf42
    {
        type            cyclic;
    }
    top
    {
        type            symmetryPlane;
    }
    walls
    {
        type            calculated;
        value           uniform (0 0 0);
    }
    frontAndBackPlanes
    {
        type            empty;
    }
}


// ************************************************************************* //
