/*--------------------------------*- C++ -*----------------------------------*\
| =========                 |                                                 |
| \\      /  F ield         | OpenFOAM: The Open Source CFD Toolbox           |
|  \\    /   O peration     | Version:  2.4.x                                 |
|   \\  /    A nd           | Web:      www.OpenFOAM.org                      |
|    \\/     M anipulation  |                                                 |
\*---------------------------------------------------------------------------*/
FoamFile
{
    version     2.0;
    format      ascii;
    class       volScalarField;
    location    "11.3";
    object      alpha_0;
}
// * * * * * * * * * * * * * * * * * * * * * * * * * * * * * * * * * * * * * //

dimensions      [0 0 0 0 0 0 0];

internalField   nonuniform List<scalar> 
360
(
0.610893
0.61176
0.61185
0.61176
0.611718
0.611704
0.611687
0.611665
0.611642
0.61162
0.611597
0.611574
0.61155
0.611527
0.611503
0.61148
0.611455
0.611431
0.611407
0.611382
0.611357
0.611331
0.611306
0.61128
0.611254
0.611228
0.611201
0.611174
0.611147
0.61112
0.611092
0.611064
0.611035
0.611007
0.610978
0.610948
0.610919
0.610889
0.610859
0.610828
0.610797
0.610766
0.610734
0.610702
0.61067
0.610637
0.610604
0.610571
0.610537
0.610502
0.610468
0.610433
0.610397
0.610361
0.610325
0.610288
0.61025
0.610212
0.610174
0.610136
0.610096
0.610057
0.610016
0.609975
0.609934
0.609892
0.609849
0.609806
0.609763
0.609719
0.609673
0.609628
0.609582
0.609535
0.609487
0.609439
0.60939
0.60934
0.60929
0.609238
0.609186
0.609133
0.609079
0.609025
0.608969
0.608913
0.608855
0.608796
0.608737
0.608676
0.608615
0.608552
0.608488
0.608423
0.608356
0.608289
0.608219
0.608149
0.608077
0.608004
0.607929
0.607852
0.607774
0.607694
0.607613
0.607529
0.607443
0.607356
0.607266
0.607175
0.60708
0.606984
0.606885
0.606783
0.606679
0.606572
0.606462
0.606349
0.606233
0.606113
0.605989
0.605862
0.60573
0.605594
0.605454
0.605309
0.605158
0.605002
0.604841
0.604672
0.604497
0.604315
0.604125
0.603924
0.603711
0.603484
0.603243
0.602987
0.602702
0.602378
0.602028
0.601618
0.598781
0.599204
0.598689
0.597838
0.597035
0.594078
0.420039
0.251255
0.186858
0.1462
0.114128
0.0875346
0.0656992
0.0482678
0.0347924
0.0246788
0.0172835
0.0119923
0.00827405
0.00571271
0.00400502
0.00291056
0.00221808
0.00176672
0.00145773
0.00123599
0.00107028
0.00094215
0.000840217
0.000757184
0.000688185
0.000629871
0.000579872
0.000536464
0.000498367
0.000464613
0.000434454
0.000407307
0.000382708
0.000360284
0.000339733
0.000320806
0.000303298
0.000287037
0.000271878
0.000257698
0.000244393
0.000231873
0.000220061
0.00020889
0.000198302
0.000188247
0.000178683
0.000169572
0.000160881
0.000152583
0.000144653
0.000137071
0.000129819
0.000122811
0.000115976
0.000109316
0.000102834
9.65332e-05
9.04167e-05
8.44873e-05
7.87487e-05
7.32041e-05
6.78578e-05
6.27143e-05
5.77793e-05
5.30593e-05
4.85613e-05
4.42927e-05
4.026e-05
3.64683e-05
3.29202e-05
2.9615e-05
2.65492e-05
2.37161e-05
2.11069e-05
1.87111e-05
1.65175e-05
1.45148e-05
1.26926e-05
1.10408e-05
9.55035e-06
8.21431e-06
7.02405e-06
5.96422e-06
5.04434e-06
4.18247e-06
3.38465e-06
2.48256e-06
1.96366e-06
1.67761e-06
1.36669e-06
1.09899e-06
8.71373e-07
6.80302e-07
5.22168e-07
3.93601e-07
2.89458e-07
2.10491e-07
1.44754e-07
1.02181e-07
6.25725e-08
4.28722e-08
2.05818e-08
1.36146e-08
1.53441e-09
4.04012e-20
6.11809e-31
8.2181e-42
9.89161e-53
1.05869e-63
3.71462e-68
1.97643e-68
9.76491e-69
4.95877e-69
2.44675e-69
1.19903e-69
5.78168e-70
2.74193e-70
1.27828e-70
5.85509e-71
2.63356e-71
1.16253e-71
5.03328e-72
2.13603e-72
8.87932e-73
3.61289e-73
1.43782e-73
5.59216e-74
2.12381e-74
7.86777e-75
2.84025e-75
9.98338e-76
3.41315e-76
1.13367e-76
3.6537e-77
1.14107e-77
3.44822e-78
1.00672e-78
2.83478e-79
7.68468e-80
2.00149e-80
4.99739e-81
1.19327e-81
2.7175e-82
5.88481e-83
1.20771e-83
2.34e-84
4.262e-85
7.2611e-86
1.15051e-86
1.68402e-87
2.25891e-88
2.75001e-89
3.00235e-90
2.89544e-91
2.41836e-92
1.70298e-93
9.72654e-95
4.24002e-96
1.26435e-97
1.98878e-99
2.16692e-102
3.00436e-109
1.79401e-111
5.29822e-114
2.26404e-124
4.95439e-135
8.18055e-146
9.85908e-157
1.04001e-167
8.48695e-179
5.96174e-190
9.43089e-201
3.83983e-211
2.04974e-219
1.07042e-229
7.04881e-238
4.36334e-248
2.42724e-256
1.84473e-266
8.37262e-275
1.19009e-284
2.9769e-293
7.9269e-303
1.10657e-311
6.27463e-322
7.96928e-321
7.83094e-321
2.51973e-321
8.86848e-321
4.57737e-319
2.8055e-319
6.80328e-321
7.09478e-321
6.08689e-321
8.5424e-321
0
0
0
0
0
0
0
0
0
0
0
0
0
0
0
0
)
;

boundaryField
{
    inandouthalf11
    {
        type            cyclic;
    }
    inandouthalf12
    {
        type            cyclic;
    }
    inandouthalf21
    {
        type            cyclic;
    }
    inandouthalf22
    {
        type            cyclic;
    }
    inandouthalf31
    {
        type            cyclic;
    }
    inandouthalf32
    {
        type            cyclic;
    }
    inandouthalf41
    {
        type            cyclic;
    }
    inandouthalf42
    {
        type            cyclic;
    }
    top
    {
        type            symmetryPlane;
    }
    walls
    {
        type            zeroGradient;
    }
    frontAndBackPlanes
    {
        type            empty;
    }
}


// ************************************************************************* //
