/*--------------------------------*- C++ -*----------------------------------*\
| =========                 |                                                 |
| \\      /  F ield         | OpenFOAM: The Open Source CFD Toolbox           |
|  \\    /   O peration     | Version:  2.4.x                                 |
|   \\  /    A nd           | Web:      www.OpenFOAM.org                      |
|    \\/     M anipulation  |                                                 |
\*---------------------------------------------------------------------------*/
FoamFile
{
    version     2.0;
    format      ascii;
    class       volVectorField;
    location    "11.3";
    object      ddt0(Ua);
}
// * * * * * * * * * * * * * * * * * * * * * * * * * * * * * * * * * * * * * //

dimensions      [0 1 -2 0 0 0 0];

internalField   nonuniform List<vector> 
360
(
(-7.72256e-34 3.44485e-34 0)
(2.02508e-09 7.02503e-09 0)
(4.19291e-09 1.25288e-08 0)
(6.10901e-09 1.73443e-08 0)
(7.9983e-09 2.23105e-08 0)
(9.86995e-09 2.72967e-08 0)
(1.16502e-08 3.2063e-08 0)
(1.33005e-08 3.65285e-08 0)
(1.4808e-08 4.0672e-08 0)
(1.61668e-08 4.44795e-08 0)
(1.7374e-08 4.79433e-08 0)
(1.84296e-08 5.10623e-08 0)
(1.93377e-08 5.38438e-08 0)
(2.01057e-08 5.63044e-08 0)
(2.07444e-08 5.84684e-08 0)
(2.1267e-08 6.03658e-08 0)
(2.16883e-08 6.20306e-08 0)
(2.20236e-08 6.34984e-08 0)
(2.22888e-08 6.48056e-08 0)
(2.24994e-08 6.5988e-08 0)
(2.26704e-08 6.70802e-08 0)
(2.28156e-08 6.81143e-08 0)
(2.29479e-08 6.91202e-08 0)
(2.30789e-08 7.01246e-08 0)
(2.32186e-08 7.11513e-08 0)
(2.33761e-08 7.22209e-08 0)
(2.35588e-08 7.3351e-08 0)
(2.37732e-08 7.45567e-08 0)
(2.40245e-08 7.58506e-08 0)
(2.4317e-08 7.72424e-08 0)
(2.4654e-08 7.87403e-08 0)
(2.5038e-08 8.03503e-08 0)
(2.54708e-08 8.20769e-08 0)
(2.59537e-08 8.39231e-08 0)
(2.64873e-08 8.58911e-08 0)
(2.70716e-08 8.79811e-08 0)
(2.77065e-08 9.0193e-08 0)
(2.83915e-08 9.25258e-08 0)
(2.91256e-08 9.49785e-08 0)
(2.99076e-08 9.7548e-08 0)
(3.07364e-08 1.00232e-07 0)
(3.16104e-08 1.03028e-07 0)
(3.25278e-08 1.05931e-07 0)
(3.3487e-08 1.08938e-07 0)
(3.44862e-08 1.12046e-07 0)
(3.55235e-08 1.1525e-07 0)
(3.65969e-08 1.18547e-07 0)
(3.77042e-08 1.21931e-07 0)
(3.88435e-08 1.25397e-07 0)
(4.00131e-08 1.28944e-07 0)
(4.1211e-08 1.32566e-07 0)
(4.2435e-08 1.36259e-07 0)
(4.36834e-08 1.40019e-07 0)
(4.49544e-08 1.43841e-07 0)
(4.6246e-08 1.47722e-07 0)
(4.75567e-08 1.51658e-07 0)
(4.88847e-08 1.55646e-07 0)
(5.02285e-08 1.59681e-07 0)
(5.15864e-08 1.63761e-07 0)
(5.29567e-08 1.67881e-07 0)
(5.43382e-08 1.72038e-07 0)
(5.57297e-08 1.76231e-07 0)
(5.713e-08 1.80455e-07 0)
(5.8538e-08 1.8471e-07 0)
(5.99523e-08 1.88991e-07 0)
(6.13719e-08 1.93296e-07 0)
(6.27956e-08 1.97622e-07 0)
(6.42226e-08 2.01968e-07 0)
(6.56517e-08 2.0633e-07 0)
(6.70817e-08 2.10706e-07 0)
(6.85122e-08 2.15093e-07 0)
(6.99426e-08 2.19493e-07 0)
(7.13718e-08 2.239e-07 0)
(7.27992e-08 2.28314e-07 0)
(7.42242e-08 2.32734e-07 0)
(7.56464e-08 2.37157e-07 0)
(7.70648e-08 2.41583e-07 0)
(7.84786e-08 2.46008e-07 0)
(7.98871e-08 2.50429e-07 0)
(8.12896e-08 2.54847e-07 0)
(8.26857e-08 2.59258e-07 0)
(8.40746e-08 2.63662e-07 0)
(8.54563e-08 2.68057e-07 0)
(8.68302e-08 2.72443e-07 0)
(8.8196e-08 2.76818e-07 0)
(8.95533e-08 2.81181e-07 0)
(9.09015e-08 2.8553e-07 0)
(9.224e-08 2.89863e-07 0)
(9.35681e-08 2.94179e-07 0)
(9.48852e-08 2.98476e-07 0)
(9.61907e-08 3.0275e-07 0)
(9.7484e-08 3.07001e-07 0)
(9.87648e-08 3.11228e-07 0)
(1.00033e-07 3.15428e-07 0)
(1.01287e-07 3.19602e-07 0)
(1.02528e-07 3.23748e-07 0)
(1.03754e-07 3.27864e-07 0)
(1.04966e-07 3.31949e-07 0)
(1.06164e-07 3.36003e-07 0)
(1.07347e-07 3.40025e-07 0)
(1.08516e-07 3.44016e-07 0)
(1.09671e-07 3.47976e-07 0)
(1.10813e-07 3.51908e-07 0)
(1.11945e-07 3.55815e-07 0)
(1.13066e-07 3.597e-07 0)
(1.1418e-07 3.63568e-07 0)
(1.15289e-07 3.67425e-07 0)
(1.16394e-07 3.71276e-07 0)
(1.17498e-07 3.75126e-07 0)
(1.18602e-07 3.78979e-07 0)
(1.19707e-07 3.82838e-07 0)
(1.20812e-07 3.86703e-07 0)
(1.21915e-07 3.9057e-07 0)
(1.23012e-07 3.94434e-07 0)
(1.24098e-07 3.98283e-07 0)
(1.25167e-07 4.02105e-07 0)
(1.26212e-07 4.05884e-07 0)
(1.27226e-07 4.09607e-07 0)
(1.28205e-07 4.13265e-07 0)
(1.29151e-07 4.16857e-07 0)
(1.3007e-07 4.20395e-07 0)
(1.30977e-07 4.23909e-07 0)
(1.31901e-07 4.27451e-07 0)
(1.32879e-07 4.31098e-07 0)
(1.33966e-07 4.34956e-07 0)
(1.35231e-07 4.39167e-07 0)
(1.36765e-07 4.43905e-07 0)
(1.3868e-07 4.49393e-07 0)
(1.41113e-07 4.55892e-07 0)
(1.44219e-07 4.63693e-07 0)
(1.48152e-07 4.73075e-07 0)
(1.5302e-07 4.84216e-07 0)
(1.58818e-07 4.97068e-07 0)
(1.65337e-07 5.1121e-07 0)
(1.7209e-07 5.25715e-07 0)
(1.78313e-07 5.39126e-07 0)
(1.83171e-07 5.49803e-07 0)
(1.86196e-07 5.5674e-07 0)
(1.87578e-07 5.60203e-07 0)
(1.87975e-07 5.61429e-07 0)
(1.88018e-07 5.61715e-07 0)
(1.88024e-07 5.61795e-07 0)
(1.88063e-07 5.61915e-07 0)
(1.89237e-07 5.63941e-07 0)
(1.90925e-07 5.65501e-07 0)
(1.93254e-07 5.67047e-07 0)
(1.98555e-07 5.69413e-07 0)
(2.26504e-07 5.74761e-07 0)
(-0.197682 5.3484e-05 0)
(-0.283392 -0.0031586 0)
(-0.209754 -0.00650789 0)
(-0.168925 -0.00745376 0)
(-0.149032 -0.00790464 0)
(-0.142338 -0.00815985 0)
(-0.145254 -0.00820321 0)
(-0.156135 -0.0079468 0)
(-0.174184 -0.00723412 0)
(-0.198742 -0.00580062 0)
(-0.228745 -0.0032359 0)
(-0.262375 0.00113661 0)
(-0.297092 0.00791281 0)
(-0.330161 0.0165647 0)
(-0.359597 0.0248774 0)
(-0.384864 0.0306296 0)
(-0.406497 0.0334171 0)
(-0.425247 0.0341669 0)
(-0.441702 0.0338397 0)
(-0.456295 0.0329941 0)
(-0.469353 0.0319101 0)
(-0.481129 0.0307268 0)
(-0.491825 0.0295121 0)
(-0.501604 0.0282982 0)
(-0.510597 0.0271005 0)
(-0.518912 0.025926 0)
(-0.52664 0.0247779 0)
(-0.533853 0.0236578 0)
(-0.540615 0.0225665 0)
(-0.546978 0.0215044 0)
(-0.552987 0.0204718 0)
(-0.55868 0.0194689 0)
(-0.56409 0.0184955 0)
(-0.569245 0.0175518 0)
(-0.57417 0.0166373 0)
(-0.578886 0.0157519 0)
(-0.583411 0.0148951 0)
(-0.587763 0.0140664 0)
(-0.591954 0.0132652 0)
(-0.595997 0.012491 0)
(-0.599902 0.0117432 0)
(-0.603679 0.011021 0)
(-0.607336 0.0103239 0)
(-0.610878 0.00965139 0)
(-0.614313 0.00900292 0)
(-0.617644 0.00837809 0)
(-0.620876 0.00777658 0)
(-0.624012 0.00719811 0)
(-0.627055 0.0066425 0)
(-0.630006 0.00610959 0)
(-0.632867 0.00559923 0)
(-0.635639 0.00511125 0)
(-0.638323 0.00464542 0)
(-0.640946 0.0041969 0)
(-0.643533 0.00376162 0)
(-0.646084 0.00333998 0)
(-0.648597 0.00293212 0)
(-0.651071 0.00253793 0)
(-0.653505 0.002157 0)
(-0.655897 0.00178868 0)
(-0.658243 0.00143208 0)
(-0.660543 0.00108617 0)
(-0.662794 0.000749879 0)
(-0.664992 0.000422242 0)
(-0.667135 0.000102507 0)
(-0.669221 -0.000209722 0)
(-0.671246 -0.000514383 0)
(-0.673209 -0.000810884 0)
(-0.675107 -0.00109808 0)
(-0.676938 -0.00137433 0)
(-0.6787 -0.0016376 0)
(-0.680391 -0.0018857 0)
(-0.68201 -0.00211656 0)
(-0.683554 -0.00232841 0)
(-0.685024 -0.00251984 0)
(-0.686415 -0.0026899 0)
(-0.687728 -0.002838 0)
(-0.688961 -0.00296372 0)
(-0.690112 -0.00306668 0)
(-0.691181 -0.00314647 0)
(-0.692168 -0.00320233 0)
(-0.693071 -0.00323276 0)
(-0.693893 -0.0032372 0)
(-0.694633 -0.00321199 0)
(-0.695288 -0.00316054 0)
(-0.69584 -0.00309969 0)
(-0.69624 -0.00310694 0)
(-0.696465 -0.00324634 0)
(-0.696654 -0.00347498 0)
(-0.728547 -0.00387504 0)
(-0.729784 -0.0045228 0)
(-0.730843 -0.00525402 0)
(-0.731722 -0.00583513 0)
(-0.732402 -0.00630455 0)
(-0.732894 -0.00717361 0)
(-0.733044 -0.00655461 0)
(-0.733144 -0.00930147 0)
(-0.732583 -0.00762913 0)
(-0.73244 -0.0114503 0)
(-0.731279 -0.00269266 0)
(-0.730324 -0.00941563 0)
(-0.727589 -0.0190014 0)
(-0.726644 0.00317114 0)
(-0.722527 -0.0322228 0)
(-0.7206 0.0201272 0)
(-0.717066 0.0262117 0)
(-0.715025 -9.6335e-05 0)
(-0.71175 -0.000135954 0)
(-0.708988 -0.000136552 0)
(-0.705846 -0.000125606 0)
(-0.703054 -0.000110148 0)
(-0.701005 -0.000113903 0)
(-0.698625 -9.93589e-05 0)
(-0.696693 -9.06851e-05 0)
(-0.695 -8.21125e-05 0)
(-0.693543 -7.47469e-05 0)
(-0.692304 -6.8649e-05 0)
(-0.691267 -6.3825e-05 0)
(-0.690415 -6.02035e-05 0)
(-0.689733 -5.76778e-05 0)
(-0.689207 -5.61319e-05 0)
(-0.688826 -5.54598e-05 0)
(-0.688583 -5.55818e-05 0)
(-0.688471 -5.64651e-05 0)
(-0.68849 -5.81736e-05 0)
(-0.688646 -6.0976e-05 0)
(-0.688903 -6.50968e-05 0)
(-0.689666 -8.03313e-05 0)
(-0.690839 -8.07077e-05 0)
(-0.691274 -6.9013e-05 0)
(-0.691293 -6.43006e-05 0)
(-0.691293 -6.40995e-05 0)
(-0.691293 -6.40972e-05 0)
(-0.691293 -6.4097e-05 0)
(-0.691293 -6.40971e-05 0)
(-0.691293 -6.4097e-05 0)
(-0.691293 -6.40971e-05 0)
(-0.691293 -6.4097e-05 0)
(-0.691293 -6.40972e-05 0)
(-0.691293 -6.4097e-05 0)
(-0.691293 -6.40972e-05 0)
(-0.691293 -6.4097e-05 0)
(-0.691293 -6.40972e-05 0)
(-0.691293 -6.4097e-05 0)
(-0.691293 -6.40972e-05 0)
(-0.691293 -6.4097e-05 0)
(-0.691293 -6.40972e-05 0)
(-0.691293 -6.4097e-05 0)
(-0.691293 -6.40973e-05 0)
(-0.691293 -6.4097e-05 0)
(-0.691293 -6.40973e-05 0)
(-0.691293 -6.4097e-05 0)
(-0.691293 -6.40973e-05 0)
(-0.691293 -6.4097e-05 0)
(-0.691293 -6.40973e-05 0)
(-0.691293 -6.4097e-05 0)
(-0.691293 -6.40974e-05 0)
(-0.691293 -6.4097e-05 0)
(-0.691293 -6.40974e-05 0)
(-0.691293 -6.4097e-05 0)
(-0.691293 -6.40974e-05 0)
(-0.691293 -6.4097e-05 0)
(-0.691293 -6.40974e-05 0)
(-0.691293 -6.4097e-05 0)
(-0.691293 -6.40975e-05 0)
(-0.691293 -6.4097e-05 0)
(-0.691293 -6.40975e-05 0)
(-0.691293 -6.40971e-05 0)
(-0.691293 -6.40975e-05 0)
(-0.691293 -6.40971e-05 0)
(-0.691293 -6.40975e-05 0)
(-0.691293 -6.40971e-05 0)
(-0.691293 -6.40976e-05 0)
(-0.691293 -6.40971e-05 0)
(-0.691293 -6.40976e-05 0)
(-0.691293 -6.40971e-05 0)
(-0.691293 -6.40976e-05 0)
(-0.691293 -6.40972e-05 0)
(-0.691293 -6.40977e-05 0)
(-0.691293 -6.40973e-05 0)
(-0.691293 -6.4098e-05 0)
(-0.691293 -6.40977e-05 0)
(-0.691293 -6.40985e-05 0)
(-0.691293 -6.40983e-05 0)
(-0.691293 -6.40992e-05 0)
(-0.691293 -6.40989e-05 0)
(-0.691293 -6.40997e-05 0)
(-0.691293 -6.40994e-05 0)
(-0.691293 -6.41002e-05 0)
(-0.691293 -6.40999e-05 0)
(-0.691293 -6.41006e-05 0)
(-0.691293 -6.41002e-05 0)
(-0.691293 -6.41008e-05 0)
(-0.691293 -6.41003e-05 0)
(-0.691293 -6.41008e-05 0)
(-0.691293 -6.41001e-05 0)
(-0.691293 -6.41006e-05 0)
(-0.691293 -6.41001e-05 0)
(-0.691293 -6.41006e-05 0)
(-0.691293 -6.40998e-05 0)
(-0.691293 -6.40999e-05 0)
(-0.691293 -6.40989e-05 0)
(-0.691293 -6.40987e-05 0)
(-0.691293 -6.40972e-05 0)
(-0.691293 -6.40966e-05 0)
(-0.691293 -6.40947e-05 0)
(-0.691293 -6.40939e-05 0)
(-0.691293 -6.40921e-05 0)
(-0.691293 -6.40938e-05 0)
(-0.691294 -6.41602e-05 0)
(-0.691321 -6.56596e-05 0)
(-0.691932 -0.000126629 0)
)
;

boundaryField
{
    inandouthalf11
    {
        type            cyclic;
    }
    inandouthalf12
    {
        type            cyclic;
    }
    inandouthalf21
    {
        type            cyclic;
    }
    inandouthalf22
    {
        type            cyclic;
    }
    inandouthalf31
    {
        type            cyclic;
    }
    inandouthalf32
    {
        type            cyclic;
    }
    inandouthalf41
    {
        type            cyclic;
    }
    inandouthalf42
    {
        type            cyclic;
    }
    top
    {
        type            symmetryPlane;
    }
    walls
    {
        type            calculated;
        value           uniform (0 0 0);
    }
    frontAndBackPlanes
    {
        type            empty;
    }
}


// ************************************************************************* //
