/*--------------------------------*- C++ -*----------------------------------*\
| =========                 |                                                 |
| \\      /  F ield         | OpenFOAM: The Open Source CFD Toolbox           |
|  \\    /   O peration     | Version:  2.4.x                                 |
|   \\  /    A nd           | Web:      www.OpenFOAM.org                      |
|    \\/     M anipulation  |                                                 |
\*---------------------------------------------------------------------------*/
FoamFile
{
    version     2.0;
    format      ascii;
    class       volScalarField;
    location    "11.3";
    object      epsilon;
}
// * * * * * * * * * * * * * * * * * * * * * * * * * * * * * * * * * * * * * //

dimensions      [0 2 -3 0 0 0 0];

internalField   nonuniform List<scalar> 
360
(
1e-20
1e-20
1e-20
1e-20
1e-20
1e-20
1e-20
1e-20
1e-20
1e-20
1e-20
1e-20
1e-20
1e-20
1e-20
1e-20
1e-20
1e-20
1e-20
1e-20
1e-20
1e-20
1e-20
1e-20
1e-20
1e-20
1e-20
1e-20
1e-20
1e-20
1e-20
1e-20
1e-20
1e-20
1e-20
1e-20
1e-20
1e-20
1e-20
1e-20
1e-20
1e-20
1e-20
1e-20
1e-20
1e-20
1e-20
1e-20
1e-20
1e-20
1e-20
1e-20
1e-20
1e-20
1e-20
1e-20
1e-20
1e-20
1e-20
1e-20
1e-20
1e-20
1e-20
1e-20
1e-20
1e-20
1e-20
1e-20
1e-20
1e-20
1e-20
1e-20
1e-20
1e-20
1e-20
1e-20
1e-20
1e-20
1e-20
1e-20
1e-20
1e-20
1e-20
1e-20
1e-20
1e-20
1e-20
1e-20
1e-20
1e-20
1e-20
1e-20
1e-20
1e-20
1e-20
1e-20
1e-20
1e-20
1e-20
1e-20
1e-20
1e-20
1e-20
1e-20
1e-20
1e-20
1e-20
1e-20
1e-20
1e-20
1e-20
1e-20
1e-20
1e-20
1e-20
1e-20
1e-20
1e-20
1e-20
1e-20
1e-20
1e-20
1e-20
1e-20
1e-20
1e-20
1e-20
1e-20
1e-20
1e-20
1e-20
1e-20
1e-20
1.26726e-20
1.99268e-20
4.13918e-20
2.18565e-19
2.64363e-18
3.99184e-17
6.72531e-16
1.27059e-14
2.72652e-13
6.739e-12
1.91111e-10
6.40111e-09
2.57839e-07
1.25725e-05
0.000725778
0.0285406
0.182755
0.229631
0.220228
0.19689
0.170384
0.144412
0.120372
0.0987819
0.0798137
0.0635015
0.0498165
0.0386698
0.0298866
0.0231914
0.0182302
0.014624
0.0120255
0.010152
0.00879128
0.00779211
0.0070495
0.0064912
0.00606738
0.00574331
0.00549448
0.00530328
0.00515688
0.00504573
0.00496263
0.00490207
0.00485975
0.00483226
0.00481689
0.00481144
0.00481408
0.00482331
0.00483789
0.00485674
0.00487896
0.00490376
0.00493049
0.00495855
0.00498744
0.00501672
0.00504599
0.00507491
0.00510317
0.00513053
0.00515673
0.00518157
0.00520488
0.00522649
0.00524647
0.0052648
0.00528124
0.00529556
0.0053075
0.00531682
0.00532326
0.00532657
0.00532648
0.00532275
0.00531509
0.00530326
0.00528699
0.00526603
0.0052401
0.00520897
0.00517238
0.0051301
0.00508189
0.00502755
0.00496685
0.00489963
0.0048257
0.00474492
0.00465717
0.00456235
0.00446041
0.00435131
0.00423507
0.00411176
0.00398149
0.00384442
0.00370079
0.00355089
0.00339509
0.00323386
0.00306774
0.00289736
0.00272346
0.00254688
0.00236859
0.00218962
0.00201117
0.00183448
0.00166094
0.00149197
0.00132903
0.00117361
0.00102714
0.00089091
0.000766047
0.000653395
0.00055345
0.000466306
0.000391629
0.000328679
0.000276381
0.000233426
0.000198398
0.000169886
0.000146572
0.000127294
0.000111067
9.70864e-05
8.47221e-05
7.34991e-05
6.30803e-05
5.32488e-05
4.38927e-05
3.49914e-05
2.66054e-05
1.88702e-05
1.19959e-05
6.27748e-06
2.09137e-06
2.37786e-07
5.85686e-09
7.30474e-11
8.34404e-13
8.96826e-15
9.07893e-17
8.73603e-19
1.60417e-20
1e-20
1e-20
1e-20
1e-20
1e-20
1e-20
1e-20
1e-20
1e-20
1e-20
1e-20
1e-20
1e-20
1e-20
1e-20
1e-20
1e-20
1e-20
1e-20
1e-20
1e-20
1e-20
1e-20
1e-20
1e-20
1e-20
1e-20
1e-20
1e-20
1e-20
1e-20
1e-20
1e-20
1e-20
1e-20
1e-20
1e-20
1e-20
1e-20
1e-20
1e-20
1e-20
1e-20
1e-20
1e-20
1e-20
1e-20
1e-20
1e-20
1e-20
1e-20
1e-20
1e-20
1e-20
1e-20
1e-20
1e-20
1e-20
1e-20
1e-20
1e-20
1e-20
1e-20
1e-20
1e-20
1e-20
1e-20
1e-20
1e-20
1e-20
1e-20
1e-20
1e-20
1e-20
1e-20
1e-20
)
;

boundaryField
{
    inandouthalf11
    {
        type            cyclic;
    }
    inandouthalf12
    {
        type            cyclic;
    }
    inandouthalf21
    {
        type            cyclic;
    }
    inandouthalf22
    {
        type            cyclic;
    }
    inandouthalf31
    {
        type            cyclic;
    }
    inandouthalf32
    {
        type            cyclic;
    }
    inandouthalf41
    {
        type            cyclic;
    }
    inandouthalf42
    {
        type            cyclic;
    }
    top
    {
        type            symmetryPlane;
    }
    walls
    {
        type            zeroGradient;
    }
    frontAndBackPlanes
    {
        type            empty;
    }
}


// ************************************************************************* //
