/*--------------------------------*- C++ -*----------------------------------*\
| =========                 |                                                 |
| \\      /  F ield         | OpenFOAM: The Open Source CFD Toolbox           |
|  \\    /   O peration     | Version:  2.4.x                                 |
|   \\  /    A nd           | Web:      www.OpenFOAM.org                      |
|    \\/     M anipulation  |                                                 |
\*---------------------------------------------------------------------------*/
FoamFile
{
    version     2.0;
    format      ascii;
    class       volScalarField;
    location    "11.3";
    object      mua;
}
// * * * * * * * * * * * * * * * * * * * * * * * * * * * * * * * * * * * * * //

dimensions      [1 -1 -1 0 0 0 0];

internalField   nonuniform List<scalar> 
360
(
2.48639e+07
1.75057e+07
2.09315e+07
2.07451e+07
1.92817e+07
1.85535e+07
1.82814e+07
1.81035e+07
1.79536e+07
1.78443e+07
1.77897e+07
1.77994e+07
1.78706e+07
1.79973e+07
1.81705e+07
1.83823e+07
1.86276e+07
1.89026e+07
1.92003e+07
1.95136e+07
1.98393e+07
2.01673e+07
2.04923e+07
2.08094e+07
2.11128e+07
2.13987e+07
2.16625e+07
2.18974e+07
2.21034e+07
2.2279e+07
2.24204e+07
2.25262e+07
2.25997e+07
2.26338e+07
2.26368e+07
2.26076e+07
2.25479e+07
2.24553e+07
2.23356e+07
2.2196e+07
2.20276e+07
2.18418e+07
2.16417e+07
2.14205e+07
2.11875e+07
2.09427e+07
2.06905e+07
2.0437e+07
2.01717e+07
1.98983e+07
1.96291e+07
1.93571e+07
1.90841e+07
1.88117e+07
1.85424e+07
1.82719e+07
1.80075e+07
1.77447e+07
1.7489e+07
1.72394e+07
1.69881e+07
1.6743e+07
1.65002e+07
1.62635e+07
1.6033e+07
1.58082e+07
1.55866e+07
1.53704e+07
1.51628e+07
1.49612e+07
1.47579e+07
1.4559e+07
1.43695e+07
1.41808e+07
1.39945e+07
1.38119e+07
1.36376e+07
1.34686e+07
1.33027e+07
1.31409e+07
1.29838e+07
1.28288e+07
1.26754e+07
1.25243e+07
1.23756e+07
1.22299e+07
1.20876e+07
1.19497e+07
1.18161e+07
1.16859e+07
1.15588e+07
1.1434e+07
1.13105e+07
1.1188e+07
1.10667e+07
1.09467e+07
1.08281e+07
1.07109e+07
1.05948e+07
1.0479e+07
1.03626e+07
1.02444e+07
1.0123e+07
9.99715e+06
9.86566e+06
9.72746e+06
9.5817e+06
9.42789e+06
9.26598e+06
9.09656e+06
8.92088e+06
8.74095e+06
8.55941e+06
8.37939e+06
8.20415e+06
8.03665e+06
7.87901e+06
7.73181e+06
7.59338e+06
7.4591e+06
7.32084e+06
7.16671e+06
6.98151e+06
6.74808e+06
6.4499e+06
6.07513e+06
5.62145e+06
5.10048e+06
4.53933e+06
3.97704e+06
3.4559e+06
3.01172e+06
2.66982e+06
2.45187e+06
2.39353e+06
2.57431e+06
3.18407e+06
4.72945e+06
8.77476e+06
2.07493e+07
5.44488e+07
6.23836e+07
8.27535e+06
6.72937e+06
7.92574e+06
4.99675e+06
1.05036e+06
0.0997927
0.0168079
0.00926121
0.00756062
0.00661447
0.0059927
0.00557446
0.00528576
0.00507276
0.00489846
0.00474272
0.00459745
0.00446176
0.00433779
0.00422751
0.0041313
0.00404824
0.00397696
0.0039162
0.00386485
0.00382187
0.00378635
0.00375739
0.00373421
0.00371606
0.00370228
0.00369227
0.00368547
0.00368139
0.0036796
0.00367969
0.00368131
0.00368416
0.00368793
0.0036924
0.00369732
0.00370251
0.00370779
0.003713
0.00371801
0.00372269
0.00372693
0.00373065
0.00373375
0.00373617
0.00373785
0.00373872
0.00373874
0.00373788
0.00373609
0.00373336
0.00372965
0.00372494
0.00371924
0.00371245
0.00370444
0.00369515
0.0036845
0.00367241
0.00365879
0.00364357
0.00362667
0.00360799
0.00358744
0.00356493
0.00354035
0.00351359
0.00348455
0.00345308
0.00341904
0.00338227
0.00334258
0.00329976
0.00325355
0.00320367
0.00314976
0.00309143
0.00302817
0.00295939
0.00288435
0.0028021
0.00271145
0.00261077
0.00249784
0.00236944
0.00222059
0.00204295
0.00182045
0.0015136
0
0
0
0
0
0
0
0
0
0
0
0
0
0
0
0
0
0
0
0
0
0
0
0
0
0
0
0
0
0
0
0
0
0
0
0
0
0
0
0
0
0
0
0
0
0
0
0
0
0
0
0
0
0
0
0
0
0
0
0
0
0
0
0
0
0
0
0
0
0
0
0
0
0
0
0
0
0
0
0
0
0
0
0
0
0
0
0
0
0
0
0
0
0
0
0
0
0
0
0
0
0
0
0
0
0
0
0
0
0
0
0
0
0
0
0
0
0
0
0
0
0
0
0
)
;

boundaryField
{
    inandouthalf11
    {
        type            cyclic;
    }
    inandouthalf12
    {
        type            cyclic;
    }
    inandouthalf21
    {
        type            cyclic;
    }
    inandouthalf22
    {
        type            cyclic;
    }
    inandouthalf31
    {
        type            cyclic;
    }
    inandouthalf32
    {
        type            cyclic;
    }
    inandouthalf41
    {
        type            cyclic;
    }
    inandouthalf42
    {
        type            cyclic;
    }
    top
    {
        type            symmetryPlane;
    }
    walls
    {
        type            calculated;
        value           uniform 1e+30;
    }
    frontAndBackPlanes
    {
        type            empty;
    }
}


// ************************************************************************* //
