/*--------------------------------*- C++ -*----------------------------------*\
| =========                 |                                                 |
| \\      /  F ield         | OpenFOAM: The Open Source CFD Toolbox           |
|  \\    /   O peration     | Version:  2.4.x                                 |
|   \\  /    A nd           | Web:      www.OpenFOAM.org                      |
|    \\/     M anipulation  |                                                 |
\*---------------------------------------------------------------------------*/
FoamFile
{
    version     2.0;
    format      ascii;
    class       surfaceScalarField;
    location    "11.3";
    object      phia_0;
}
// * * * * * * * * * * * * * * * * * * * * * * * * * * * * * * * * * * * * * //

dimensions      [0 3 -1 0 0 0 0];

internalField   nonuniform List<scalar> 
359
(
-1.45008e-14
-3.62681e-14
-5.68596e-14
-7.7118e-14
-9.82444e-14
-1.20025e-13
-1.42056e-13
-1.64176e-13
-1.86325e-13
-2.08459e-13
-2.30513e-13
-2.52405e-13
-2.74062e-13
-2.9542e-13
-3.16427e-13
-3.37047e-13
-3.57252e-13
-3.77023e-13
-3.96346e-13
-4.15223e-13
-4.33654e-13
-4.51652e-13
-4.69233e-13
-4.86416e-13
-5.03224e-13
-5.19682e-13
-5.35813e-13
-5.51647e-13
-5.6721e-13
-5.82528e-13
-5.97627e-13
-6.12535e-13
-6.27271e-13
-6.41866e-13
-6.56336e-13
-6.70703e-13
-6.84986e-13
-6.99204e-13
-7.13376e-13
-7.2751e-13
-7.41628e-13
-7.55739e-13
-7.6985e-13
-7.83979e-13
-7.9813e-13
-8.12313e-13
-8.26535e-13
-8.40795e-13
-8.55104e-13
-8.69471e-13
-8.83889e-13
-8.98366e-13
-9.12901e-13
-9.275e-13
-9.42155e-13
-9.56876e-13
-9.71653e-13
-9.86492e-13
-1.00139e-12
-1.01633e-12
-1.03133e-12
-1.04638e-12
-1.06148e-12
-1.07662e-12
-1.09181e-12
-1.10703e-12
-1.12228e-12
-1.13756e-12
-1.15287e-12
-1.16819e-12
-1.18353e-12
-1.19888e-12
-1.21423e-12
-1.22959e-12
-1.24495e-12
-1.2603e-12
-1.27564e-12
-1.29096e-12
-1.30626e-12
-1.32152e-12
-1.33675e-12
-1.35194e-12
-1.36709e-12
-1.38218e-12
-1.39723e-12
-1.41223e-12
-1.42716e-12
-1.44202e-12
-1.45681e-12
-1.47151e-12
-1.48613e-12
-1.50066e-12
-1.51509e-12
-1.52942e-12
-1.54365e-12
-1.55777e-12
-1.57178e-12
-1.58567e-12
-1.59944e-12
-1.61309e-12
-1.62661e-12
-1.64001e-12
-1.65329e-12
-1.66644e-12
-1.67947e-12
-1.6924e-12
-1.70522e-12
-1.71794e-12
-1.73058e-12
-1.74313e-12
-1.75561e-12
-1.76802e-12
-1.78036e-12
-1.79262e-12
-1.80479e-12
-1.81686e-12
-1.82881e-12
-1.84061e-12
-1.85226e-12
-1.86374e-12
-1.87504e-12
-1.88619e-12
-1.89723e-12
-1.90823e-12
-1.9193e-12
-1.93059e-12
-1.94229e-12
-1.95463e-12
-1.96789e-12
-1.98232e-12
-1.99813e-12
-2.01535e-12
-2.03375e-12
-2.05267e-12
-2.0709e-12
-2.0868e-12
-2.09879e-12
-2.10627e-12
-2.10996e-12
-2.11137e-12
-2.11188e-12
-2.11184e-12
-2.11411e-12
-2.11562e-12
-2.11678e-12
-2.11805e-12
-2.11803e-12
5.03544e-11
3.77716e-09
7.20602e-09
9.21694e-09
1.07554e-08
1.21496e-08
1.34893e-08
1.4769e-08
1.59315e-08
1.68702e-08
1.74301e-08
1.73957e-08
1.64719e-08
1.4294e-08
1.05875e-08
5.52064e-09
-2.64565e-10
-6.13789e-09
-1.17461e-08
-1.69365e-08
-2.16576e-08
-2.59103e-08
-2.97196e-08
-3.31188e-08
-3.6143e-08
-3.88259e-08
-4.11987e-08
-4.32894e-08
-4.51237e-08
-4.67245e-08
-4.81123e-08
-4.93057e-08
-5.03215e-08
-5.11748e-08
-5.18795e-08
-5.24482e-08
-5.28924e-08
-5.32226e-08
-5.34487e-08
-5.35798e-08
-5.36241e-08
-5.35897e-08
-5.34838e-08
-5.33135e-08
-5.30852e-08
-5.28052e-08
-5.24792e-08
-5.21126e-08
-5.17107e-08
-5.12782e-08
-5.08196e-08
-5.03388e-08
-4.98396e-08
-4.93253e-08
-4.87881e-08
-4.82298e-08
-4.76523e-08
-4.70572e-08
-4.6446e-08
-4.58201e-08
-4.51805e-08
-4.45283e-08
-4.38644e-08
-4.31893e-08
-4.25035e-08
-4.18072e-08
-4.11005e-08
-4.03831e-08
-3.96549e-08
-3.89156e-08
-3.81651e-08
-3.74039e-08
-3.66326e-08
-3.58523e-08
-3.50644e-08
-3.42706e-08
-3.34724e-08
-3.26717e-08
-3.18702e-08
-3.10695e-08
-3.02708e-08
-2.94754e-08
-2.86836e-08
-2.78937e-08
-2.71128e-08
-2.63259e-08
-2.55858e-08
-2.48341e-08
-2.42884e-08
-2.28222e-08
-2.02861e-08
-1.81409e-08
-1.59614e-08
-1.37604e-08
-1.15513e-08
-9.34587e-09
-7.1758e-09
-5.01854e-09
-2.97622e-09
-1.09654e-09
5.18709e-10
2.52064e-09
3.60345e-09
4.20267e-09
6.64061e-09
-8.68696e-08
-1.54824e-07
-1.5844e-07
-1.58345e-07
-1.58319e-07
-1.58293e-07
-1.5827e-07
-1.5825e-07
-1.58233e-07
-1.58221e-07
-1.58212e-07
-1.58205e-07
-1.582e-07
-1.58197e-07
-1.58195e-07
-1.58193e-07
-1.58192e-07
-1.58191e-07
-1.58189e-07
-1.58186e-07
-1.58181e-07
-1.58175e-07
-1.58165e-07
-1.58139e-07
-1.58111e-07
-1.58107e-07
-1.58108e-07
-1.58108e-07
-1.58108e-07
-1.58108e-07
-1.58108e-07
-1.58108e-07
-1.58108e-07
-1.58108e-07
-1.58108e-07
-1.58108e-07
-1.58108e-07
-1.58108e-07
-1.58108e-07
-1.58108e-07
-1.58108e-07
-1.58108e-07
-1.58108e-07
-1.58108e-07
-1.58108e-07
-1.58108e-07
-1.58108e-07
-1.58108e-07
-1.58108e-07
-1.58108e-07
-1.58108e-07
-1.58108e-07
-1.58108e-07
-1.58108e-07
-1.58108e-07
-1.58108e-07
-1.58108e-07
-1.58108e-07
-1.58108e-07
-1.58108e-07
-1.58108e-07
-1.58108e-07
-1.58108e-07
-1.58108e-07
-1.58108e-07
-1.58108e-07
-1.58108e-07
-1.58108e-07
-1.58108e-07
-1.58108e-07
-1.58108e-07
-1.58108e-07
-1.58108e-07
-1.58108e-07
-1.58108e-07
-1.58108e-07
-1.58108e-07
-1.58108e-07
-1.58108e-07
-1.58108e-07
-1.58108e-07
-1.58108e-07
-1.58108e-07
-1.58108e-07
-1.58108e-07
-1.58108e-07
-1.58108e-07
-1.58108e-07
-1.58108e-07
-1.58108e-07
-1.58108e-07
-1.58108e-07
-1.58108e-07
-1.58108e-07
-1.58108e-07
-1.58108e-07
-1.58108e-07
-1.58108e-07
-1.58108e-07
-1.58108e-07
-1.58108e-07
-1.58108e-07
-1.58108e-07
-1.58107e-07
-1.5809e-07
-1.57383e-07
-1.32461e-07
)
;

boundaryField
{
    inandouthalf11
    {
        type            cyclic;
        value           nonuniform List<scalar> 
100
(
2.13209e-38
2.00482e-15
4.20586e-15
6.22713e-15
8.32246e-15
1.05292e-14
1.27855e-14
1.50589e-14
1.73421e-14
1.96307e-14
2.19183e-14
2.41974e-14
2.64597e-14
2.86979e-14
3.09059e-14
3.3079e-14
3.52138e-14
3.73075e-14
3.93585e-14
4.13658e-14
4.33295e-14
4.52501e-14
4.71289e-14
4.89679e-14
5.0769e-14
5.25346e-14
5.42673e-14
5.59697e-14
5.76448e-14
5.92952e-14
6.09237e-14
6.25329e-14
6.41255e-14
6.5704e-14
6.72709e-14
6.88283e-14
7.03783e-14
7.1923e-14
7.34643e-14
7.50037e-14
7.6543e-14
7.80836e-14
7.96266e-14
8.11732e-14
8.27247e-14
8.4282e-14
8.58459e-14
8.74167e-14
8.89951e-14
9.0582e-14
9.21777e-14
9.37824e-14
9.53964e-14
9.70198e-14
9.86529e-14
1.00296e-13
1.01948e-13
1.0361e-13
1.05281e-13
1.06961e-13
1.0865e-13
1.10348e-13
1.12055e-13
1.1377e-13
1.15493e-13
1.17223e-13
1.18961e-13
1.20705e-13
1.22455e-13
1.24211e-13
1.25972e-13
1.27738e-13
1.29509e-13
1.31283e-13
1.33061e-13
1.34842e-13
1.36626e-13
1.38412e-13
1.40198e-13
1.41986e-13
1.43773e-13
1.4556e-13
1.47346e-13
1.4913e-13
1.50914e-13
1.52695e-13
1.54474e-13
1.56249e-13
1.58021e-13
1.59787e-13
1.61549e-13
1.63304e-13
1.65053e-13
1.66796e-13
1.68531e-13
1.7026e-13
1.7198e-13
1.73692e-13
1.75396e-13
1.77091e-13
)
;
    }
    inandouthalf12
    {
        type            cyclic;
        value           nonuniform List<scalar> 
100
(
-2.13209e-38
-2.00482e-15
-4.20586e-15
-6.22713e-15
-8.32246e-15
-1.05292e-14
-1.27855e-14
-1.50589e-14
-1.73421e-14
-1.96307e-14
-2.19183e-14
-2.41974e-14
-2.64597e-14
-2.86979e-14
-3.09059e-14
-3.3079e-14
-3.52138e-14
-3.73075e-14
-3.93585e-14
-4.13658e-14
-4.33295e-14
-4.52501e-14
-4.71289e-14
-4.89679e-14
-5.0769e-14
-5.25346e-14
-5.42673e-14
-5.59697e-14
-5.76448e-14
-5.92952e-14
-6.09237e-14
-6.25329e-14
-6.41255e-14
-6.5704e-14
-6.72709e-14
-6.88283e-14
-7.03783e-14
-7.1923e-14
-7.34643e-14
-7.50037e-14
-7.6543e-14
-7.80836e-14
-7.96266e-14
-8.11732e-14
-8.27247e-14
-8.4282e-14
-8.58459e-14
-8.74167e-14
-8.89951e-14
-9.0582e-14
-9.21777e-14
-9.37824e-14
-9.53964e-14
-9.70198e-14
-9.86529e-14
-1.00296e-13
-1.01948e-13
-1.0361e-13
-1.05281e-13
-1.06961e-13
-1.0865e-13
-1.10348e-13
-1.12055e-13
-1.1377e-13
-1.15493e-13
-1.17223e-13
-1.18961e-13
-1.20705e-13
-1.22455e-13
-1.24211e-13
-1.25972e-13
-1.27738e-13
-1.29509e-13
-1.31283e-13
-1.33061e-13
-1.34842e-13
-1.36626e-13
-1.38412e-13
-1.40198e-13
-1.41986e-13
-1.43773e-13
-1.4556e-13
-1.47346e-13
-1.4913e-13
-1.50914e-13
-1.52695e-13
-1.54474e-13
-1.56249e-13
-1.58021e-13
-1.59787e-13
-1.61549e-13
-1.63304e-13
-1.65053e-13
-1.66796e-13
-1.68531e-13
-1.7026e-13
-1.7198e-13
-1.73692e-13
-1.75396e-13
-1.77091e-13
)
;
    }
    inandouthalf21
    {
        type            cyclic;
        value           nonuniform List<scalar> 
100
(
1.78777e-13
1.80453e-13
1.82121e-13
1.83781e-13
1.85433e-13
1.87078e-13
1.88717e-13
1.90352e-13
1.91983e-13
1.93613e-13
1.95242e-13
1.96871e-13
1.98502e-13
2.00134e-13
2.01768e-13
2.03401e-13
2.05033e-13
2.06661e-13
2.08284e-13
2.09899e-13
2.11508e-13
2.13111e-13
2.14714e-13
2.16326e-13
2.17964e-13
2.19647e-13
2.21406e-13
2.23277e-13
2.25307e-13
2.27548e-13
2.30054e-13
2.32863e-13
2.35984e-13
2.39361e-13
2.42841e-13
2.46149e-13
2.48925e-13
2.50885e-13
2.51993e-13
2.52473e-13
2.52644e-13
2.52734e-13
2.52851e-13
2.53327e-13
2.53771e-13
2.54226e-13
2.55109e-13
2.59803e-13
3.62612e-08
1.49918e-07
2.5481e-07
3.38023e-07
4.05747e-07
4.61989e-07
5.09247e-07
5.49176e-07
5.82924e-07
6.11321e-07
6.3501e-07
6.54544e-07
6.70462e-07
6.83321e-07
6.93681e-07
7.02055e-07
7.0886e-07
7.14413e-07
7.18948e-07
7.22647e-07
7.2565e-07
7.28066e-07
7.29986e-07
7.31481e-07
7.32611e-07
7.33423e-07
7.3396e-07
7.34256e-07
7.3434e-07
7.34238e-07
7.33973e-07
7.33562e-07
7.33023e-07
7.32371e-07
7.31618e-07
7.30777e-07
7.29859e-07
7.28872e-07
7.27826e-07
7.26728e-07
7.25586e-07
7.24407e-07
7.23197e-07
7.21961e-07
7.20706e-07
7.19437e-07
7.18157e-07
7.16873e-07
7.15589e-07
7.14307e-07
7.13034e-07
7.11772e-07
)
;
    }
    inandouthalf22
    {
        type            cyclic;
        value           nonuniform List<scalar> 
100
(
-1.78777e-13
-1.80453e-13
-1.82121e-13
-1.83781e-13
-1.85433e-13
-1.87078e-13
-1.88717e-13
-1.90352e-13
-1.91983e-13
-1.93613e-13
-1.95242e-13
-1.96871e-13
-1.98502e-13
-2.00134e-13
-2.01768e-13
-2.03401e-13
-2.05033e-13
-2.06661e-13
-2.08284e-13
-2.09899e-13
-2.11508e-13
-2.13111e-13
-2.14714e-13
-2.16326e-13
-2.17964e-13
-2.19647e-13
-2.21406e-13
-2.23277e-13
-2.25307e-13
-2.27548e-13
-2.30054e-13
-2.32863e-13
-2.35984e-13
-2.39361e-13
-2.42841e-13
-2.46149e-13
-2.48925e-13
-2.50885e-13
-2.51993e-13
-2.52473e-13
-2.52644e-13
-2.52734e-13
-2.52851e-13
-2.53327e-13
-2.53771e-13
-2.54226e-13
-2.55109e-13
-2.59803e-13
-3.62612e-08
-1.49918e-07
-2.5481e-07
-3.38023e-07
-4.05747e-07
-4.61989e-07
-5.09247e-07
-5.49176e-07
-5.82924e-07
-6.11321e-07
-6.3501e-07
-6.54544e-07
-6.70462e-07
-6.83321e-07
-6.93681e-07
-7.02055e-07
-7.0886e-07
-7.14413e-07
-7.18948e-07
-7.22647e-07
-7.2565e-07
-7.28066e-07
-7.29986e-07
-7.31481e-07
-7.32611e-07
-7.33423e-07
-7.3396e-07
-7.34256e-07
-7.3434e-07
-7.34238e-07
-7.33973e-07
-7.33562e-07
-7.33023e-07
-7.32371e-07
-7.31618e-07
-7.30777e-07
-7.29859e-07
-7.28872e-07
-7.27826e-07
-7.26728e-07
-7.25586e-07
-7.24407e-07
-7.23197e-07
-7.21961e-07
-7.20706e-07
-7.19437e-07
-7.18157e-07
-7.16873e-07
-7.15589e-07
-7.14307e-07
-7.13034e-07
-7.11772e-07
)
;
    }
    inandouthalf31
    {
        type            cyclic;
        value           nonuniform List<scalar> 
110
(
7.10527e-07
7.23683e-07
7.37075e-07
7.50709e-07
7.64592e-07
7.7873e-07
7.9313e-07
8.078e-07
8.22747e-07
8.37978e-07
8.53503e-07
8.6933e-07
8.85468e-07
9.01925e-07
9.18712e-07
9.35837e-07
9.53309e-07
9.7114e-07
9.89338e-07
1.00791e-06
1.02688e-06
1.04624e-06
1.06601e-06
1.08621e-06
1.10683e-06
1.12791e-06
1.14944e-06
1.17144e-06
1.19392e-06
1.21691e-06
1.24042e-06
1.26448e-06
1.2891e-06
1.31433e-06
1.34021e-06
1.36675e-06
1.39372e-06
1.30507e-06
1.32439e-06
1.34378e-06
1.36348e-06
1.38351e-06
1.40392e-06
1.42471e-06
1.44603e-06
1.46777e-06
1.49023e-06
1.51325e-06
1.53698e-06
1.56179e-06
1.58711e-06
1.61412e-06
1.64124e-06
1.67313e-06
1.7037e-06
1.73491e-06
1.76782e-06
1.80213e-06
1.83796e-06
1.87513e-06
1.91376e-06
1.9538e-06
1.99523e-06
2.038e-06
2.08211e-06
2.12751e-06
2.17418e-06
2.22208e-06
2.27117e-06
2.32141e-06
2.37274e-06
2.42511e-06
2.47845e-06
2.53265e-06
2.58759e-06
2.64308e-06
2.69822e-06
2.75322e-06
2.80911e-06
2.86613e-06
2.92431e-06
2.98366e-06
3.04422e-06
3.10601e-06
3.16905e-06
3.23338e-06
3.29901e-06
3.36597e-06
3.43429e-06
3.50399e-06
3.57512e-06
3.64768e-06
3.72172e-06
3.79726e-06
3.87434e-06
3.95297e-06
4.03321e-06
4.11507e-06
4.1986e-06
4.28382e-06
4.37077e-06
4.45948e-06
4.55e-06
4.64235e-06
4.73658e-06
4.83272e-06
4.93081e-06
5.03089e-06
5.13301e-06
5.23719e-06
)
;
    }
    inandouthalf32
    {
        type            cyclic;
        value           nonuniform List<scalar> 
110
(
-7.10527e-07
-7.23683e-07
-7.37075e-07
-7.50709e-07
-7.64592e-07
-7.7873e-07
-7.9313e-07
-8.078e-07
-8.22747e-07
-8.37978e-07
-8.53503e-07
-8.6933e-07
-8.85468e-07
-9.01925e-07
-9.18712e-07
-9.35837e-07
-9.53309e-07
-9.7114e-07
-9.89338e-07
-1.00791e-06
-1.02688e-06
-1.04624e-06
-1.06601e-06
-1.08621e-06
-1.10683e-06
-1.12791e-06
-1.14944e-06
-1.17144e-06
-1.19392e-06
-1.21691e-06
-1.24042e-06
-1.26448e-06
-1.2891e-06
-1.31433e-06
-1.34021e-06
-1.36675e-06
-1.39372e-06
-1.30507e-06
-1.32439e-06
-1.34378e-06
-1.36348e-06
-1.38351e-06
-1.40392e-06
-1.42471e-06
-1.44603e-06
-1.46777e-06
-1.49023e-06
-1.51325e-06
-1.53698e-06
-1.56179e-06
-1.58711e-06
-1.61412e-06
-1.64124e-06
-1.67313e-06
-1.7037e-06
-1.73491e-06
-1.76782e-06
-1.80213e-06
-1.83796e-06
-1.87513e-06
-1.91376e-06
-1.9538e-06
-1.99523e-06
-2.038e-06
-2.08211e-06
-2.12751e-06
-2.17418e-06
-2.22208e-06
-2.27117e-06
-2.32141e-06
-2.37274e-06
-2.42511e-06
-2.47845e-06
-2.53265e-06
-2.58759e-06
-2.64308e-06
-2.69822e-06
-2.75322e-06
-2.80911e-06
-2.86613e-06
-2.92431e-06
-2.98366e-06
-3.04422e-06
-3.10601e-06
-3.16905e-06
-3.23338e-06
-3.29901e-06
-3.36597e-06
-3.43429e-06
-3.50399e-06
-3.57512e-06
-3.64768e-06
-3.72172e-06
-3.79726e-06
-3.87434e-06
-3.95297e-06
-4.03321e-06
-4.11507e-06
-4.1986e-06
-4.28382e-06
-4.37077e-06
-4.45948e-06
-4.55e-06
-4.64235e-06
-4.73658e-06
-4.83272e-06
-4.93081e-06
-5.03089e-06
-5.13301e-06
-5.23719e-06
)
;
    }
    inandouthalf41
    {
        type            cyclic;
        value           nonuniform List<scalar> 
50
(
4.68782e-06
4.68782e-06
4.68782e-06
4.68782e-06
4.68782e-06
4.68782e-06
4.68782e-06
4.68782e-06
4.68782e-06
4.68782e-06
4.68782e-06
4.68782e-06
4.68782e-06
4.68782e-06
4.68782e-06
4.68782e-06
4.68782e-06
4.68782e-06
4.68782e-06
4.68782e-06
4.68782e-06
4.68782e-06
4.68782e-06
4.68782e-06
4.68782e-06
4.68782e-06
4.68782e-06
4.68782e-06
4.68782e-06
4.68782e-06
4.68782e-06
4.68782e-06
4.68782e-06
4.68782e-06
4.68782e-06
4.68782e-06
4.68782e-06
4.68782e-06
4.68782e-06
4.68782e-06
4.68782e-06
4.68782e-06
4.68782e-06
4.68782e-06
4.68782e-06
4.68782e-06
4.68782e-06
4.68781e-06
4.68766e-06
4.68404e-06
)
;
    }
    inandouthalf42
    {
        type            cyclic;
        value           nonuniform List<scalar> 
50
(
-4.68782e-06
-4.68782e-06
-4.68782e-06
-4.68782e-06
-4.68782e-06
-4.68782e-06
-4.68782e-06
-4.68782e-06
-4.68782e-06
-4.68782e-06
-4.68782e-06
-4.68782e-06
-4.68782e-06
-4.68782e-06
-4.68782e-06
-4.68782e-06
-4.68782e-06
-4.68782e-06
-4.68782e-06
-4.68782e-06
-4.68782e-06
-4.68782e-06
-4.68782e-06
-4.68782e-06
-4.68782e-06
-4.68782e-06
-4.68782e-06
-4.68782e-06
-4.68782e-06
-4.68782e-06
-4.68782e-06
-4.68782e-06
-4.68782e-06
-4.68782e-06
-4.68782e-06
-4.68782e-06
-4.68782e-06
-4.68782e-06
-4.68782e-06
-4.68782e-06
-4.68782e-06
-4.68782e-06
-4.68782e-06
-4.68782e-06
-4.68782e-06
-4.68782e-06
-4.68782e-06
-4.68781e-06
-4.68766e-06
-4.68404e-06
)
;
    }
    top
    {
        type            symmetryPlane;
        value           uniform 0;
    }
    walls
    {
        type            fixedValue;
        value           uniform 0;
    }
    frontAndBackPlanes
    {
        type            empty;
        value           nonuniform 0();
    }
}


// ************************************************************************* //
