/*--------------------------------*- C++ -*----------------------------------*\
| =========                 |                                                 |
| \\      /  F ield         | OpenFOAM: The Open Source CFD Toolbox           |
|  \\    /   O peration     | Version:  2.4.x                                 |
|   \\  /    A nd           | Web:      www.OpenFOAM.org                      |
|    \\/     M anipulation  |                                                 |
\*---------------------------------------------------------------------------*/
FoamFile
{
    version     2.0;
    format      ascii;
    class       volTensorField;
    location    "11.3";
    object      Tauf;
}
// * * * * * * * * * * * * * * * * * * * * * * * * * * * * * * * * * * * * * //

dimensions      [0 2 -2 0 0 0 0];

internalField   nonuniform List<tensor> 
360
(
(0 -2.90134e-07 0 -2.90134e-07 2.54758e-11 0 0 0 0)
(0 9.17166e-10 0 9.17166e-10 3.1063e-11 0 0 0 0)
(0 -4.47361e-12 0 -4.47361e-12 3.29057e-11 0 0 0 0)
(0 -1.65025e-10 0 -1.65025e-10 3.2385e-11 0 0 0 0)
(2.58494e-23 -7.19467e-11 0 -7.19467e-11 3.31738e-11 0 0 0 0)
(2.58494e-23 -4.15011e-11 0 -4.15011e-11 3.41295e-11 0 0 0 0)
(5.16988e-23 -5.21974e-11 0 -5.21974e-11 3.46184e-11 0 0 0 0)
(0 -5.90436e-11 0 -5.90436e-11 3.47909e-11 0 0 0 0)
(2.58494e-23 -5.99914e-11 0 -5.99914e-11 3.48353e-11 0 0 0 0)
(0 -6.04722e-11 0 -6.04722e-11 3.47972e-11 0 0 0 0)
(2.58494e-23 -6.06652e-11 0 -6.06652e-11 3.46578e-11 0 0 0 0)
(0 -6.08645e-11 0 -6.08645e-11 3.43996e-11 0 0 0 0)
(2.58494e-23 -6.13016e-11 0 -6.13016e-11 3.40264e-11 0 0 0 0)
(0 -6.17427e-11 0 -6.17427e-11 3.35535e-11 0 0 0 0)
(0 -6.23292e-11 0 -6.23292e-11 3.3001e-11 0 0 0 0)
(0 -6.29189e-11 0 -6.29189e-11 3.23889e-11 0 0 0 0)
(0 -6.33691e-11 0 -6.33691e-11 3.17323e-11 0 0 0 0)
(2.58494e-23 -6.37678e-11 0 -6.37678e-11 3.1044e-11 0 0 0 0)
(0 -6.44123e-11 0 -6.44123e-11 3.03392e-11 0 0 0 0)
(0 -6.48441e-11 0 -6.48441e-11 2.96298e-11 0 0 0 0)
(0 -6.53012e-11 0 -6.53012e-11 2.8926e-11 0 0 0 0)
(2.58494e-23 -6.59923e-11 0 -6.59923e-11 2.82397e-11 0 0 0 0)
(0 -6.6482e-11 0 -6.6482e-11 2.75783e-11 0 0 0 0)
(0 -6.7069e-11 0 -6.7069e-11 2.69473e-11 0 0 0 0)
(0 -6.76801e-11 0 -6.76801e-11 2.63515e-11 0 0 0 0)
(2.58494e-23 -6.81721e-11 0 -6.81721e-11 2.5793e-11 0 0 0 0)
(0 -6.88703e-11 0 -6.88703e-11 2.52753e-11 0 0 0 0)
(0 -6.96055e-11 0 -6.96055e-11 2.48007e-11 0 0 0 0)
(0 -7.01321e-11 0 -7.01321e-11 2.43679e-11 0 0 0 0)
(0 -7.076e-11 0 -7.076e-11 2.39758e-11 0 0 0 0)
(0 -7.1651e-11 0 -7.1651e-11 2.36261e-11 0 0 0 0)
(0 -7.21218e-11 0 -7.21218e-11 2.3315e-11 0 0 0 0)
(0 -7.29633e-11 0 -7.29633e-11 2.30427e-11 0 0 0 0)
(0 -7.38311e-11 0 -7.38311e-11 2.28082e-11 0 0 0 0)
(0 -7.43941e-11 0 -7.43941e-11 2.2607e-11 0 0 0 0)
(-2.58494e-23 -7.51944e-11 0 -7.51944e-11 2.24376e-11 0 0 0 0)
(0 -7.59666e-11 0 -7.59666e-11 2.22979e-11 0 0 0 0)
(0 -7.71019e-11 0 -7.71019e-11 2.21896e-11 0 0 0 0)
(0 -7.75032e-11 0 -7.75032e-11 2.21048e-11 0 0 0 0)
(0 -7.84443e-11 0 -7.84443e-11 2.20431e-11 0 0 0 0)
(0 -7.97065e-11 0 -7.97065e-11 2.20063e-11 0 0 0 0)
(0 -8.00148e-11 0 -8.00148e-11 2.19853e-11 0 0 0 0)
(-2.58494e-23 -8.11733e-11 0 -8.11733e-11 2.19828e-11 0 0 0 0)
(0 -8.22433e-11 0 -8.22433e-11 2.19979e-11 0 0 0 0)
(0 -8.2953e-11 0 -8.2953e-11 2.20258e-11 0 0 0 0)
(0 -8.42311e-11 0 -8.42311e-11 2.20681e-11 0 0 0 0)
(0 -8.48138e-11 0 -8.48138e-11 2.21173e-11 0 0 0 0)
(0 -8.56745e-11 0 -8.56745e-11 2.21723e-11 0 0 0 0)
(0 -8.73859e-11 0 -8.73859e-11 2.22409e-11 0 0 0 0)
(0 -8.80432e-11 0 -8.80432e-11 2.23151e-11 0 0 0 0)
(-2.58494e-23 -8.88765e-11 0 -8.88765e-11 2.2392e-11 0 0 0 0)
(0 -9.02273e-11 0 -9.02273e-11 2.2473e-11 0 0 0 0)
(0 -9.1337e-11 0 -9.1337e-11 2.2557e-11 0 0 0 0)
(0 -9.22475e-11 0 -9.22475e-11 2.2641e-11 0 0 0 0)
(0 -9.35954e-11 0 -9.35954e-11 2.27271e-11 0 0 0 0)
(0 -9.47236e-11 0 -9.47236e-11 2.28128e-11 0 0 0 0)
(0 -9.58061e-11 0 -9.58061e-11 2.28957e-11 0 0 0 0)
(0 -9.73047e-11 0 -9.73047e-11 2.29788e-11 0 0 0 0)
(0 -9.79829e-11 0 -9.79829e-11 2.30528e-11 0 0 0 0)
(0 -9.96466e-11 0 -9.96466e-11 2.31262e-11 0 0 0 0)
(0 -1.00981e-10 0 -1.00981e-10 2.31974e-11 0 0 0 0)
(0 -1.02123e-10 0 -1.02123e-10 2.32648e-11 0 0 0 0)
(0 -1.03682e-10 0 -1.03682e-10 2.33301e-11 0 0 0 0)
(0 -1.04886e-10 0 -1.04886e-10 2.33882e-11 0 0 0 0)
(0 -1.06249e-10 0 -1.06249e-10 2.34396e-11 0 0 0 0)
(0 -1.07723e-10 0 -1.07723e-10 2.34839e-11 0 0 0 0)
(0 -1.09398e-10 0 -1.09398e-10 2.35234e-11 0 0 0 0)
(0 -1.10802e-10 0 -1.10802e-10 2.35554e-11 0 0 0 0)
(0 -1.11946e-10 0 -1.11946e-10 2.35755e-11 0 0 0 0)
(0 -1.1377e-10 0 -1.1377e-10 2.35889e-11 0 0 0 0)
(0 -1.1592e-10 0 -1.1592e-10 2.36025e-11 0 0 0 0)
(0 -1.1694e-10 0 -1.1694e-10 2.36052e-11 0 0 0 0)
(0 -1.1859e-10 0 -1.1859e-10 2.35998e-11 0 0 0 0)
(0 -1.20674e-10 0 -1.20674e-10 2.35893e-11 0 0 0 0)
(0 -1.22496e-10 0 -1.22496e-10 2.35731e-11 0 0 0 0)
(0 -1.24237e-10 0 -1.24237e-10 2.35494e-11 0 0 0 0)
(0 -1.25833e-10 0 -1.25833e-10 2.35125e-11 0 0 0 0)
(0 -1.27947e-10 0 -1.27947e-10 2.34663e-11 0 0 0 0)
(0 -1.30032e-10 0 -1.30032e-10 2.34114e-11 0 0 0 0)
(0 -1.31913e-10 0 -1.31913e-10 2.33471e-11 0 0 0 0)
(0 -1.33957e-10 0 -1.33957e-10 2.32741e-11 0 0 0 0)
(0 -1.36258e-10 0 -1.36258e-10 2.3195e-11 0 0 0 0)
(0 -1.38456e-10 0 -1.38456e-10 2.31094e-11 0 0 0 0)
(0 -1.40728e-10 0 -1.40728e-10 2.30179e-11 0 0 0 0)
(0 -1.43079e-10 0 -1.43079e-10 2.29191e-11 0 0 0 0)
(0 -1.45521e-10 0 -1.45521e-10 2.28123e-11 0 0 0 0)
(0 -1.48002e-10 0 -1.48002e-10 2.26962e-11 0 0 0 0)
(0 -1.50488e-10 0 -1.50488e-10 2.25689e-11 0 0 0 0)
(0 -1.53152e-10 0 -1.53152e-10 2.24307e-11 0 0 0 0)
(0 -1.55907e-10 0 -1.55907e-10 2.22824e-11 0 0 0 0)
(0 -1.58707e-10 0 -1.58707e-10 2.21244e-11 0 0 0 0)
(0 -1.61652e-10 0 -1.61652e-10 2.19585e-11 0 0 0 0)
(0 -1.64724e-10 0 -1.64724e-10 2.17857e-11 0 0 0 0)
(0 -1.67864e-10 0 -1.67864e-10 2.16064e-11 0 0 0 0)
(0 -1.7111e-10 0 -1.7111e-10 2.14208e-11 0 0 0 0)
(0 -1.74469e-10 0 -1.74469e-10 2.12284e-11 0 0 0 0)
(0 -1.77934e-10 0 -1.77934e-10 2.10288e-11 0 0 0 0)
(0 -1.81519e-10 0 -1.81519e-10 2.08219e-11 0 0 0 0)
(0 -1.85247e-10 0 -1.85247e-10 2.06084e-11 0 0 0 0)
(0 -1.89121e-10 0 -1.89121e-10 2.03894e-11 0 0 0 0)
(0 -1.93145e-10 0 -1.93145e-10 2.01666e-11 0 0 0 0)
(0 -1.97337e-10 0 -1.97337e-10 1.99423e-11 0 0 0 0)
(0 -2.01697e-10 0 -2.01697e-10 1.97191e-11 0 0 0 0)
(0 -2.06227e-10 0 -2.06227e-10 1.94992e-11 0 0 0 0)
(0 -2.10937e-10 0 -2.10937e-10 1.92852e-11 0 0 0 0)
(0 -2.15837e-10 0 -2.15837e-10 1.90791e-11 0 0 0 0)
(0 -2.20938e-10 0 -2.20938e-10 1.88826e-11 0 0 0 0)
(0 -2.26253e-10 0 -2.26253e-10 1.86967e-11 0 0 0 0)
(0 -2.31795e-10 0 -2.31795e-10 1.85217e-11 0 0 0 0)
(0 -2.37575e-10 0 -2.37575e-10 1.83564e-11 0 0 0 0)
(0 -2.43609e-10 0 -2.43609e-10 1.81984e-11 0 0 0 0)
(0 -2.4991e-10 0 -2.4991e-10 1.80435e-11 0 0 0 0)
(0 -2.56496e-10 0 -2.56496e-10 1.78861e-11 0 0 0 0)
(0 -2.63385e-10 0 -2.63385e-10 1.77191e-11 0 0 0 0)
(0 -2.706e-10 0 -2.706e-10 1.75347e-11 0 0 0 0)
(0 -2.78166e-10 0 -2.78166e-10 1.73256e-11 0 0 0 0)
(0 -2.8611e-10 0 -2.8611e-10 1.70861e-11 0 0 0 0)
(0 -2.94468e-10 0 -2.94468e-10 1.68143e-11 0 0 0 0)
(0 -3.03279e-10 0 -3.03279e-10 1.65133e-11 0 0 0 0)
(0 -3.12583e-10 0 -3.12583e-10 1.61936e-11 0 0 0 0)
(0 -3.22425e-10 0 -3.22425e-10 1.58738e-11 0 0 0 0)
(0 -3.32844e-10 0 -3.32844e-10 1.55818e-11 0 0 0 0)
(0 -3.43872e-10 0 -3.43872e-10 1.53542e-11 0 0 0 0)
(0 -3.55548e-10 0 -3.55548e-10 1.52367e-11 0 0 0 0)
(0 -3.6794e-10 0 -3.6794e-10 1.52827e-11 0 0 0 0)
(0 -3.81172e-10 0 -3.81172e-10 1.55522e-11 0 0 0 0)
(0 -3.9544e-10 0 -3.9544e-10 1.61091e-11 0 0 0 0)
(0 -4.10948e-10 0 -4.10948e-10 1.70131e-11 0 0 0 0)
(0 -4.27757e-10 0 -4.27757e-10 1.83026e-11 0 0 0 0)
(0 -4.45679e-10 0 -4.45679e-10 1.99631e-11 0 0 0 0)
(0 -4.6457e-10 0 -4.6457e-10 2.18807e-11 0 0 0 0)
(0 -4.85303e-10 0 -4.85303e-10 2.37943e-11 0 0 0 0)
(0 -5.10391e-10 0 -5.10391e-10 2.52624e-11 0 0 0 0)
(0 -5.41801e-10 0 -5.41801e-10 2.56574e-11 0 0 0 0)
(0 -5.77132e-10 0 -5.77132e-10 2.42416e-11 0 0 0 0)
(0 -6.12003e-10 0 -6.12003e-10 2.04852e-11 0 0 0 0)
(0 -6.49928e-10 0 -6.49928e-10 1.46207e-11 0 0 0 0)
(0 -7.06917e-10 0 -7.06917e-10 7.91104e-12 0 0 0 0)
(0 -7.95171e-10 0 -7.95171e-10 2.12907e-12 0 0 0 0)
(0 -8.81438e-10 0 -8.81438e-10 -1.91651e-12 0 0 0 0)
(0 -9.98814e-10 0 -9.98814e-10 -1.59571e-11 0 0 0 0)
(0 -4.30138e-09 0 -4.30138e-09 -4.20463e-12 0 0 0 0)
(0 -3.19949e-09 0 -3.19949e-09 2.2038e-11 0 0 0 0)
(0 -1.29743e-10 0 -1.29743e-10 -4.93859e-10 0 0 0 0)
(0 -1.83669e-09 0 -1.83669e-09 2.35219e-09 0 0 0 0)
(0 -2.33512e-09 0 -2.33512e-09 -8.42974e-09 0 0 0 0)
(0 -1.01515e-07 0 -1.01515e-07 3.32308e-08 0 0 0 0)
(0 -4.37309e-05 0 -4.37309e-05 -1.81066e-07 0 0 0 0)
(0 -0.000509486 0 -0.000509486 -4.31603e-06 0 0 0 0)
(0 -0.00241288 0 -0.00241288 -7.8317e-06 0 0 0 0)
(0 -0.00317524 0 -0.00317524 8.18075e-06 0 0 0 0)
(0 -0.0032622 0 -0.0032622 3.52031e-06 0 0 0 0)
(0 -0.00316843 0 -0.00316843 6.54035e-06 0 0 0 0)
(0 -0.00298583 0 -0.00298583 7.23709e-06 0 0 0 0)
(0 -0.00276383 0 -0.00276383 7.22388e-06 0 0 0 0)
(0 -0.00252781 0 -0.00252781 6.80631e-06 0 0 0 0)
(0 -0.00229036 0 -0.00229036 6.11388e-06 0 0 0 0)
(0 -0.00205776 0 -0.00205776 5.27184e-06 0 0 0 0)
(0 -0.00183357 0 -0.00183357 4.40145e-06 0 0 0 0)
(0 -0.00162053 0 -0.00162053 3.58728e-06 0 0 0 0)
(0 -0.00142123 0 -0.00142123 2.85873e-06 0 0 0 0)
(0 -0.00123793 0 -0.00123793 2.20116e-06 0 0 0 0)
(0 -0.00107198 0 -0.00107198 1.60383e-06 0 0 0 0)
(0 -0.000923346 0 -0.000923346 1.09629e-06 0 0 0 0)
(0 -0.000790779 0 -0.000790779 7.17731e-07 0 0 0 0)
(0 -0.000672315 0 -0.000672315 4.65666e-07 0 0 0 0)
(0 -0.000565786 0 -0.000565786 3.01978e-07 0 0 0 0)
(0 -0.000469156 0 -0.000469156 1.89835e-07 0 0 0 0)
(0 -0.000380669 0 -0.000380669 1.07745e-07 0 0 0 0)
(0 -0.000298879 0 -0.000298879 4.49629e-08 0 0 0 0)
(0 -0.00022263 0 -0.00022263 -4.30732e-09 0 0 0 0)
(0 -0.000151018 0 -0.000151018 -4.36289e-08 0 0 0 0)
(0 -8.33466e-05 0 -8.33466e-05 -7.53495e-08 0 0 0 0)
(0 -1.90794e-05 0 -1.90794e-05 -1.01076e-07 0 0 0 0)
(0 4.21963e-05 0 4.21963e-05 -1.2195e-07 0 0 0 0)
(0 0.0001008 0 0.0001008 -1.38824e-07 0 0 0 0)
(0 0.000156977 0 0.000156977 -1.52356e-07 0 0 0 0)
(0 0.00021092 0 0.00021092 -1.6307e-07 0 0 0 0)
(0 0.000262782 0 0.000262782 -1.71395e-07 0 0 0 0)
(0 0.000312685 0 0.000312685 -1.77682e-07 0 0 0 0)
(0 0.000360729 0 0.000360729 -1.82229e-07 0 0 0 0)
(0 0.000406996 0 0.000406996 -1.85286e-07 0 0 0 0)
(0 0.000451552 0 0.000451552 -1.87064e-07 0 0 0 0)
(0 0.000494457 0 0.000494457 -1.87746e-07 0 0 0 0)
(0 0.00053576 0 0.00053576 -1.87487e-07 0 0 0 0)
(0 0.000575504 0 0.000575504 -1.8642e-07 0 0 0 0)
(0 0.000613729 0 0.000613729 -1.84661e-07 0 0 0 0)
(0 0.00065047 0 0.00065047 -1.82308e-07 0 0 0 0)
(0 0.000685759 0 0.000685759 -1.79447e-07 0 0 0 0)
(0 0.000719625 0 0.000719625 -1.7615e-07 0 0 0 0)
(0 0.000752097 0 0.000752097 -1.72479e-07 0 0 0 0)
(0 0.0007832 0 0.0007832 -1.6849e-07 0 0 0 0)
(0 0.00081296 0 0.00081296 -1.64229e-07 0 0 0 0)
(0 0.000841401 0 0.000841401 -1.59736e-07 0 0 0 0)
(0 0.000868545 0 0.000868545 -1.55048e-07 0 0 0 0)
(0 0.000894416 0 0.000894416 -1.50197e-07 0 0 0 0)
(0 0.000919036 0 0.000919036 -1.45212e-07 0 0 0 0)
(0 0.000942425 0 0.000942425 -1.40122e-07 0 0 0 0)
(0 0.000964607 0 0.000964607 -1.34954e-07 0 0 0 0)
(0 0.000985613 0 0.000985613 -1.29734e-07 0 0 0 0)
(0 0.00100549 0 0.00100549 -1.24488e-07 0 0 0 0)
(0 0.00102451 0 0.00102451 -1.1919e-07 0 0 0 0)
(6.14738e-17 0.0010429 0 0.0010429 -1.13812e-07 0 0 0 0)
(0 0.00106065 0 0.00106065 -1.0838e-07 0 0 0 0)
(0 0.00107771 0 0.00107771 -1.02924e-07 0 0 0 0)
(-5.90956e-17 0.00109403 0 0.00109403 -9.74708e-08 0 0 0 0)
(0 0.00110958 0 0.00110958 -9.20461e-08 0 0 0 0)
(5.74466e-17 0.00112428 0 0.00112428 -8.66738e-08 0 0 0 0)
(0 0.0011381 0 0.0011381 -8.13739e-08 0 0 0 0)
(-2.78749e-17 0.00115097 0 0.00115097 -7.61618e-08 0 0 0 0)
(0 0.00116285 0 0.00116285 -7.10486e-08 0 0 0 0)
(0 0.00117366 0 0.00117366 -6.60419e-08 0 0 0 0)
(0 0.00118335 0 0.00118335 -6.11472e-08 0 0 0 0)
(-5.22189e-17 0.00119187 0 0.00119187 -5.63706e-08 0 0 0 0)
(0 0.00119915 0 0.00119915 -5.17204e-08 0 0 0 0)
(0 0.00120513 0 0.00120513 -4.72098e-08 0 0 0 0)
(0 0.00120975 0 0.00120975 -4.28574e-08 0 0 0 0)
(0 0.00121295 0 0.00121295 -3.86861e-08 0 0 0 0)
(0 0.00121466 0 0.00121466 -3.47217e-08 0 0 0 0)
(4.65959e-17 0.00121483 0 0.00121483 -3.09888e-08 0 0 0 0)
(0 0.00121338 0 0.00121338 -2.75077e-08 0 0 0 0)
(4.46374e-17 0.00121027 0 0.00121027 -2.42919e-08 0 0 0 0)
(0 0.00120542 0 0.00120542 -2.13469e-08 0 0 0 0)
(0 0.00119879 0 0.00119879 -1.86698e-08 0 0 0 0)
(0 0.00119031 0 0.00119031 -1.62504e-08 0 0 0 0)
(0 0.00117992 0 0.00117992 -1.40735e-08 0 0 0 0)
(0 0.00116757 0 0.00116757 -1.21221e-08 0 0 0 0)
(0 0.00115322 0 0.00115322 -1.03778e-08 0 0 0 0)
(-3.74699e-17 0.0011368 0 0.0011368 -8.82271e-09 0 0 0 0)
(0 0.00111829 0 0.00111829 -7.44395e-09 0 0 0 0)
(0 0.00109765 0 0.00109765 -6.22532e-09 0 0 0 0)
(0 0.00107483 0 0.00107483 -5.17815e-09 0 0 0 0)
(0 0.00104983 0 0.00104983 -4.36245e-09 0 0 0 0)
(0 0.00102262 0 0.00102262 -3.82572e-09 0 0 0 0)
(0 0.000993201 0 0.000993201 -3.36078e-09 0 0 0 0)
(0 0.000961577 0 0.000961577 -2.63214e-09 0 0 0 0)
(0 0.000927769 0 0.000927769 -1.83708e-09 0 0 0 0)
(0 0.000891798 0 0.000891798 -1.34735e-09 0 0 0 0)
(0 0.000853723 0 0.000853723 -1.05727e-09 0 0 0 0)
(0 0.000813646 0 0.000813646 -8.01101e-10 0 0 0 0)
(0 0.000771668 0 0.000771668 -5.83e-10 0 0 0 0)
(0 0.000727919 0 0.000727919 -4.10443e-10 0 0 0 0)
(0 0.000682562 0 0.000682562 -2.79311e-10 0 0 0 0)
(2.10938e-17 0.000635795 0 0.000635795 -1.82437e-10 0 0 0 0)
(-2.00259e-17 0.000587854 0 0.000587854 -1.13074e-10 0 0 0 0)
(0 0.000539021 0 0.000539021 -6.50065e-11 0 0 0 0)
(0 0.000489624 0 0.000489624 -3.33535e-11 0 0 0 0)
(1.69434e-17 0.000440042 0 0.000440042 -1.50264e-11 0 0 0 0)
(0 0.000390701 0 0.000390701 -5.35043e-12 0 0 0 0)
(0 0.000342075 0 0.000342075 3.69709e-13 0 0 0 0)
(1.41442e-17 0.000294675 0 0.000294675 2.35019e-12 0 0 0 0)
(0 0.000249035 0 0.000249035 3.69429e-12 0 0 0 0)
(0 0.000205691 0 0.000205691 3.42018e-12 0 0 0 0)
(0 0.000165152 0 0.000165152 -6.51208e-13 0 0 0 0)
(0 0.000127864 0 0.000127864 -1.44645e-12 0 0 0 0)
(0 9.41795e-05 0 9.41795e-05 8.57663e-14 0 0 0 0)
(0 6.43304e-05 0 6.43304e-05 7.02102e-14 0 0 0 0)
(0 3.84161e-05 0 3.84161e-05 -1.80229e-14 0 0 0 0)
(0 1.64082e-05 0 1.64082e-05 -3.01565e-14 0 0 0 0)
(0 -1.83007e-06 0 -1.83007e-06 -2.38293e-14 0 0 0 0)
(0 -1.65155e-05 0 -1.65155e-05 -2.05635e-14 0 0 0 0)
(0 -2.79166e-05 0 -2.79166e-05 -1.8931e-14 0 0 0 0)
(0 -3.63284e-05 0 -3.63284e-05 -1.69971e-14 0 0 0 0)
(0 -4.20548e-05 0 -4.20548e-05 -1.47454e-14 0 0 0 0)
(0 -4.53975e-05 0 -4.53975e-05 -1.29859e-14 0 0 0 0)
(0 -4.66501e-05 0 -4.66501e-05 -1.04896e-14 0 0 0 0)
(-1.03555e-17 -4.60955e-05 0 -4.60955e-05 2.6379e-16 0 0 0 0)
(0 -4.40058e-05 0 -4.40058e-05 2.09512e-14 0 0 0 0)
(0 -4.06432e-05 0 -4.06432e-05 -2.25124e-13 0 0 0 0)
(0 -3.62617e-05 0 -3.62617e-05 5.58066e-13 0 0 0 0)
(0 -3.1111e-05 0 -3.1111e-05 -9.42004e-13 0 0 0 0)
(0 -2.54408e-05 0 -2.54408e-05 1.2385e-12 0 0 0 0)
(0 -1.95089e-05 0 -1.95089e-05 -1.39667e-12 0 0 0 0)
(0 -1.35952e-05 0 -1.35952e-05 1.3485e-12 0 0 0 0)
(0 -8.0462e-06 0 -8.0462e-06 -1.0934e-12 0 0 0 0)
(0 -3.01761e-06 0 -3.01761e-06 6.36706e-13 0 0 0 0)
(0 -3.17449e-07 0 -3.17449e-07 -1.67081e-13 0 0 0 0)
(0 -1.49503e-08 0 -1.49503e-08 5.58862e-14 0 0 0 0)
(0 -3.77445e-10 0 -3.77445e-10 -5.15414e-14 0 0 0 0)
(0 -4.39804e-12 0 -4.39804e-12 5.04203e-14 0 0 0 0)
(0 4.46989e-14 0 4.46989e-14 -4.94854e-14 0 0 0 0)
(0 6.27303e-14 0 6.27303e-14 4.8469e-14 0 0 0 0)
(0 4.18429e-14 0 4.18429e-14 -4.76003e-14 0 0 0 0)
(0 2.75719e-14 0 2.75719e-14 4.6656e-14 0 0 0 0)
(0 1.79733e-14 0 1.79733e-14 -4.58345e-14 0 0 0 0)
(0 1.15819e-14 0 1.15819e-14 4.49395e-14 0 0 0 0)
(-1.50452e-19 7.44e-15 0 7.44e-15 -4.41447e-14 0 0 0 0)
(0 4.68304e-15 0 4.68304e-15 4.32875e-14 0 0 0 0)
(0 2.91541e-15 0 2.91541e-15 -4.2513e-14 0 0 0 0)
(0 1.7571e-15 0 1.7571e-15 4.16692e-14 0 0 0 0)
(0 1.0746e-15 0 1.0746e-15 -4.09014e-14 0 0 0 0)
(0 7.54512e-16 0 7.54512e-16 4.00699e-14 0 0 0 0)
(0 4.9798e-16 0 4.9798e-16 -3.92979e-14 0 0 0 0)
(0 2.18679e-16 0 2.18679e-16 3.84681e-14 0 0 0 0)
(0 4.38137e-17 0 4.38137e-17 -3.76853e-14 0 0 0 0)
(0 -6.39737e-17 0 -6.39737e-17 3.68557e-14 0 0 0 0)
(-1.23064e-19 7.02387e-17 0 7.02387e-17 -3.60579e-14 0 0 0 0)
(0 1.58519e-16 0 1.58519e-16 3.5217e-14 0 0 0 0)
(0 2.09834e-17 0 2.09834e-17 -3.43963e-14 0 0 0 0)
(0 -1.09521e-16 0 -1.09521e-16 3.35447e-14 0 0 0 0)
(0 4.1648e-17 0 4.1648e-17 -3.27047e-14 0 0 0 0)
(0 5.26173e-17 0 5.26173e-17 3.18369e-14 0 0 0 0)
(0 -3.20441e-17 0 -3.20441e-17 -3.09706e-14 0 0 0 0)
(0 9.74808e-17 0 9.74808e-17 3.0082e-14 0 0 0 0)
(0 -1.38269e-16 0 -1.38269e-16 -2.91894e-14 0 0 0 0)
(0 -2.18504e-16 0 -2.18504e-16 2.82726e-14 0 0 0 0)
(0 1.83984e-16 0 1.83984e-16 -2.73499e-14 0 0 0 0)
(0 2.69906e-16 0 2.69906e-16 2.64044e-14 0 0 0 0)
(0 -6.46173e-17 0 -6.46173e-17 -2.54457e-14 0 0 0 0)
(0 -2.45271e-16 0 -2.45271e-16 2.44902e-14 0 0 0 0)
(0 -1.48972e-16 0 -1.48972e-16 -2.69281e-14 0 0 0 0)
(0 -7.37713e-17 0 -7.37713e-17 2.65858e-14 0 0 0 0)
(0 4.31722e-17 0 4.31722e-17 -2.62674e-14 0 0 0 0)
(0 4.75397e-17 0 4.75397e-17 2.59445e-14 0 0 0 0)
(0 3.22931e-17 0 3.22931e-17 -2.56234e-14 0 0 0 0)
(0 4.89426e-17 0 4.89426e-17 2.52978e-14 0 0 0 0)
(0 1.12497e-17 0 1.12497e-17 -2.49717e-14 0 0 0 0)
(0 -6.43216e-18 0 -6.43216e-18 2.46426e-14 0 0 0 0)
(0 -3.52048e-17 0 -3.52048e-17 -2.43111e-14 0 0 0 0)
(0 -1.32111e-16 0 -1.32111e-16 2.39783e-14 0 0 0 0)
(0 -4.80691e-17 0 -4.80691e-17 -2.36421e-14 0 0 0 0)
(0 1.2867e-16 0 1.2867e-16 2.33031e-14 0 0 0 0)
(0 5.80482e-17 0 5.80482e-17 -2.29617e-14 0 0 0 0)
(0 -3.34049e-17 0 -3.34049e-17 2.26175e-14 0 0 0 0)
(0 7.3586e-18 0 7.3586e-18 -2.22698e-14 0 0 0 0)
(0 -1.08526e-18 0 -1.08526e-18 2.1918e-14 0 0 0 0)
(0 1.06144e-17 0 1.06144e-17 -2.15688e-14 0 0 0 0)
(0 2.56757e-17 0 2.56757e-17 2.11984e-14 0 0 0 0)
(0 -4.02341e-17 0 -4.02341e-17 -2.08604e-14 0 0 0 0)
(0 7.78212e-18 0 7.78212e-18 2.04641e-14 0 0 0 0)
(0 2.41934e-17 0 2.41934e-17 -2.01337e-14 0 0 0 0)
(0 -4.82015e-17 0 -4.82015e-17 1.97195e-14 0 0 0 0)
(0 -3.46225e-17 0 -3.46225e-17 -1.93809e-14 0 0 0 0)
(0 4.66133e-17 0 4.66133e-17 1.89591e-14 0 0 0 0)
(0 1.5326e-17 0 1.5326e-17 -1.86e-14 0 0 0 0)
(0 2.95138e-17 0 2.95138e-17 1.81724e-14 0 0 0 0)
(0 3.97841e-17 0 3.97841e-17 -1.78002e-14 0 0 0 0)
(0 -3.67136e-17 0 -3.67136e-17 1.73551e-14 0 0 0 0)
(0 -1.103e-16 0 -1.103e-16 -1.69575e-14 0 0 0 0)
(0 -1.84097e-16 0 -1.84097e-16 1.6516e-14 0 0 0 0)
(0 -3.80159e-16 0 -3.80159e-16 -1.60767e-14 0 0 0 0)
(0 -5.4713e-17 0 -5.4713e-17 1.56356e-14 0 0 0 0)
(0 3.62345e-16 0 3.62345e-16 -1.51427e-14 0 0 0 0)
(0 2.29387e-16 0 2.29387e-16 1.47018e-14 0 0 0 0)
(0 9.26442e-17 0 9.26442e-17 -1.4186e-14 0 0 0 0)
(0 2.34787e-17 0 2.34787e-17 1.37003e-14 0 0 0 0)
(0 3.84077e-17 0 3.84077e-17 -1.3132e-14 0 0 0 0)
(0 9.50265e-18 0 9.50265e-18 1.26679e-14 0 0 0 0)
(0 -2.4511e-17 0 -2.4511e-17 -1.19888e-14 0 0 0 0)
(0 -9.29619e-17 0 -9.29619e-17 1.15371e-14 0 0 0 0)
(0 1.87671e-17 0 1.87671e-17 -1.07239e-14 0 0 0 0)
(0 1.72795e-16 0 1.72795e-16 1.03038e-14 0 0 0 0)
(0 1.01009e-16 0 1.01009e-16 -9.31152e-15 0 0 0 0)
(0 -5.96099e-17 0 -5.96099e-17 8.89124e-15 0 0 0 0)
(0 -1.04662e-16 0 -1.04662e-16 -7.72335e-15 0 0 0 0)
(0 -8.42268e-17 0 -8.42268e-17 7.15749e-15 0 0 0 0)
(0 -4.76985e-17 0 -4.76985e-17 -5.69921e-15 0 0 0 0)
(0 3.17902e-17 0 3.17902e-17 4.62197e-15 0 0 0 0)
(0 -9.48412e-17 0 -9.48412e-17 -3.19904e-15 0 0 0 0)
(0 -1.17155e-16 0 -1.17155e-16 3.83223e-17 0 0 0 0)
)
;

boundaryField
{
    inandouthalf11
    {
        type            cyclic;
    }
    inandouthalf12
    {
        type            cyclic;
    }
    inandouthalf21
    {
        type            cyclic;
    }
    inandouthalf22
    {
        type            cyclic;
    }
    inandouthalf31
    {
        type            cyclic;
    }
    inandouthalf32
    {
        type            cyclic;
    }
    inandouthalf41
    {
        type            cyclic;
    }
    inandouthalf42
    {
        type            cyclic;
    }
    top
    {
        type            symmetryPlane;
    }
    walls
    {
        type            zeroGradient;
    }
    frontAndBackPlanes
    {
        type            empty;
    }
}


// ************************************************************************* //
