/*--------------------------------*- C++ -*----------------------------------*\
| =========                 |                                                 |
| \\      /  F ield         | OpenFOAM: The Open Source CFD Toolbox           |
|  \\    /   O peration     | Version:  2.4.x                                 |
|   \\  /    A nd           | Web:      www.OpenFOAM.org                      |
|    \\/     M anipulation  |                                                 |
\*---------------------------------------------------------------------------*/
FoamFile
{
    version     2.0;
    format      ascii;
    class       volTensorField;
    location    "11.3";
    object      Taus;
}
// * * * * * * * * * * * * * * * * * * * * * * * * * * * * * * * * * * * * * //

dimensions      [0 2 -2 0 0 0 0];

internalField   nonuniform List<tensor> 
360
(
(0 -0.030785 0 -0.030785 -0.204031 0 0 0 0)
(0 -0.0454061 0 -0.0454061 -0.257645 0 0 0 0)
(0 -0.0544966 0 -0.0544966 -0.259732 0 0 0 0)
(0 -0.0526672 0 -0.0526672 -0.253409 0 0 0 0)
(1.8766e-17 -0.0511615 0 -0.0511615 -0.250923 0 0 0 0)
(1.80577e-17 -0.0510726 0 -0.0510726 -0.249912 0 0 0 0)
(1.77933e-17 -0.051078 0 -0.051078 -0.248548 0 0 0 0)
(0 -0.0508841 0 -0.0508841 -0.246917 0 0 0 0)
(6.99022e-17 -0.0506321 0 -0.0506321 -0.245288 0 0 0 0)
(0 -0.0503759 0 -0.0503759 -0.243661 0 0 0 0)
(3.46347e-17 -0.0501205 0 -0.0501205 -0.242029 0 0 0 0)
(0 -0.0498714 0 -0.0498714 -0.24041 0 0 0 0)
(6.95897e-17 -0.0496229 0 -0.0496229 -0.238786 0 0 0 0)
(0 -0.0493739 0 -0.0493739 -0.237162 0 0 0 0)
(0 -0.0491225 0 -0.0491225 -0.235534 0 0 0 0)
(0 -0.0488668 0 -0.0488668 -0.2339 0 0 0 0)
(0 -0.0486085 0 -0.0486085 -0.232262 0 0 0 0)
(7.36225e-17 -0.0483502 0 -0.0483502 -0.230624 0 0 0 0)
(0 -0.0480901 0 -0.0480901 -0.228985 0 0 0 0)
(0 -0.0478259 0 -0.0478259 -0.227333 0 0 0 0)
(0 -0.0475638 0 -0.0475638 -0.225692 0 0 0 0)
(7.85614e-17 -0.0472974 0 -0.0472974 -0.224037 0 0 0 0)
(0 -0.047029 0 -0.047029 -0.222382 0 0 0 0)
(0 -0.0467594 0 -0.0467594 -0.220725 0 0 0 0)
(0 -0.0464874 0 -0.0464874 -0.219063 0 0 0 0)
(8.33725e-17 -0.0462144 0 -0.0462144 -0.217398 0 0 0 0)
(0 -0.0459409 0 -0.0459409 -0.215735 0 0 0 0)
(0 -0.0456626 0 -0.0456626 -0.21406 0 0 0 0)
(0 -0.0453836 0 -0.0453836 -0.212387 0 0 0 0)
(0 -0.0451047 0 -0.0451047 -0.210712 0 0 0 0)
(0 -0.0448228 0 -0.0448228 -0.209034 0 0 0 0)
(0 -0.0445376 0 -0.0445376 -0.207344 0 0 0 0)
(0 -0.0442557 0 -0.0442557 -0.205671 0 0 0 0)
(0 -0.0439651 0 -0.0439651 -0.203971 0 0 0 0)
(0 -0.0436774 0 -0.0436774 -0.202288 0 0 0 0)
(-3.52491e-16 -0.043387 0 -0.043387 -0.20059 0 0 0 0)
(0 -0.0430968 0 -0.0430968 -0.1989 0 0 0 0)
(0 -0.0428013 0 -0.0428013 -0.1972 0 0 0 0)
(0 -0.0425033 0 -0.0425033 -0.19549 0 0 0 0)
(0 -0.0422113 0 -0.0422113 -0.193803 0 0 0 0)
(0 -0.041908 0 -0.041908 -0.192085 0 0 0 0)
(0 -0.0416069 0 -0.0416069 -0.190377 0 0 0 0)
(-1.68774e-16 -0.0413087 0 -0.0413087 -0.188678 0 0 0 0)
(0 -0.0410012 0 -0.0410012 -0.186955 0 0 0 0)
(0 -0.0406963 0 -0.0406963 -0.185247 0 0 0 0)
(0 -0.0403876 0 -0.0403876 -0.183529 0 0 0 0)
(0 -0.0400763 0 -0.0400763 -0.181804 0 0 0 0)
(0 -0.0397712 0 -0.0397712 -0.180096 0 0 0 0)
(0 -0.0394577 0 -0.0394577 -0.178372 0 0 0 0)
(0 -0.0391381 0 -0.0391381 -0.176636 0 0 0 0)
(-3.06291e-16 -0.0388262 0 -0.0388262 -0.174922 0 0 0 0)
(0 -0.0385085 0 -0.0385085 -0.173189 0 0 0 0)
(0 -0.0381892 0 -0.0381892 -0.171463 0 0 0 0)
(0 -0.0378678 0 -0.0378678 -0.169726 0 0 0 0)
(0 -0.0375483 0 -0.0375483 -0.168003 0 0 0 0)
(0 -0.0372213 0 -0.0372213 -0.166256 0 0 0 0)
(0 -0.036899 0 -0.036899 -0.164531 0 0 0 0)
(0 -0.0365699 0 -0.0365699 -0.162786 0 0 0 0)
(0 -0.0362428 0 -0.0362428 -0.161046 0 0 0 0)
(0 -0.0359177 0 -0.0359177 -0.159316 0 0 0 0)
(0 -0.0355832 0 -0.0355832 -0.157561 0 0 0 0)
(0 -0.0352534 0 -0.0352534 -0.155827 0 0 0 0)
(0 -0.0349183 0 -0.0349183 -0.154075 0 0 0 0)
(0 -0.0345839 0 -0.0345839 -0.152331 0 0 0 0)
(0 -0.0342486 0 -0.0342486 -0.150582 0 0 0 0)
(0 -0.0339132 0 -0.0339132 -0.148836 0 0 0 0)
(0 -0.0335741 0 -0.0335741 -0.147083 0 0 0 0)
(0 -0.0332332 0 -0.0332332 -0.145329 0 0 0 0)
(0 -0.0328945 0 -0.0328945 -0.143576 0 0 0 0)
(0 -0.0325573 0 -0.0325573 -0.14183 0 0 0 0)
(0 -0.0322118 0 -0.0322118 -0.140069 0 0 0 0)
(0 -0.0318658 0 -0.0318658 -0.138306 0 0 0 0)
(0 -0.0315262 0 -0.0315262 -0.136559 0 0 0 0)
(0 -0.0311802 0 -0.0311802 -0.134794 0 0 0 0)
(0 -0.0308335 0 -0.0308335 -0.133036 0 0 0 0)
(0 -0.0304841 0 -0.0304841 -0.131269 0 0 0 0)
(0 -0.0301379 0 -0.0301379 -0.129511 0 0 0 0)
(0 -0.0297906 0 -0.0297906 -0.127749 0 0 0 0)
(0 -0.0294408 0 -0.0294408 -0.125983 0 0 0 0)
(0 -0.0290903 0 -0.0290903 -0.124217 0 0 0 0)
(0 -0.028741 0 -0.028741 -0.122453 0 0 0 0)
(0 -0.0283898 0 -0.0283898 -0.120686 0 0 0 0)
(0 -0.0280373 0 -0.0280373 -0.118917 0 0 0 0)
(0 -0.0276845 0 -0.0276845 -0.117148 0 0 0 0)
(0 -0.0273309 0 -0.0273309 -0.115378 0 0 0 0)
(0 -0.0269768 0 -0.0269768 -0.113607 0 0 0 0)
(0 -0.0266219 0 -0.0266219 -0.111835 0 0 0 0)
(0 -0.0262671 0 -0.0262671 -0.110063 0 0 0 0)
(0 -0.0259123 0 -0.0259123 -0.108291 0 0 0 0)
(0 -0.0255568 0 -0.0255568 -0.106517 0 0 0 0)
(0 -0.0252009 0 -0.0252009 -0.104743 0 0 0 0)
(0 -0.0248449 0 -0.0248449 -0.102968 0 0 0 0)
(0 -0.0244881 0 -0.0244881 -0.101193 0 0 0 0)
(0 -0.0241308 0 -0.0241308 -0.0994163 0 0 0 0)
(0 -0.0237731 0 -0.0237731 -0.0976393 0 0 0 0)
(0 -0.0234153 0 -0.0234153 -0.0958618 0 0 0 0)
(0 -0.0230573 0 -0.0230573 -0.0940838 0 0 0 0)
(0 -0.0226993 0 -0.0226993 -0.0923055 0 0 0 0)
(0 -0.0223414 0 -0.0223414 -0.090527 0 0 0 0)
(0 -0.0219836 0 -0.0219836 -0.0887481 0 0 0 0)
(0 -0.0216259 0 -0.0216259 -0.086969 0 0 0 0)
(0 -0.0212683 0 -0.0212683 -0.0851897 0 0 0 0)
(0 -0.0209108 0 -0.0209108 -0.0834102 0 0 0 0)
(0 -0.0205535 0 -0.0205535 -0.0816307 0 0 0 0)
(0 -0.0201966 0 -0.0201966 -0.0798512 0 0 0 0)
(0 -0.0198401 0 -0.0198401 -0.078072 0 0 0 0)
(0 -0.0194841 0 -0.0194841 -0.0762932 0 0 0 0)
(0 -0.0191287 0 -0.0191287 -0.0745149 0 0 0 0)
(0 -0.018774 0 -0.018774 -0.0727373 0 0 0 0)
(0 -0.0184201 0 -0.0184201 -0.0709606 0 0 0 0)
(0 -0.0180672 0 -0.0180672 -0.069185 0 0 0 0)
(0 -0.0177154 0 -0.0177154 -0.0674107 0 0 0 0)
(0 -0.0173649 0 -0.0173649 -0.0656378 0 0 0 0)
(0 -0.0170159 0 -0.0170159 -0.0638665 0 0 0 0)
(0 -0.0166687 0 -0.0166687 -0.0620968 0 0 0 0)
(0 -0.0163234 0 -0.0163234 -0.0603289 0 0 0 0)
(0 -0.0159804 0 -0.0159804 -0.0585627 0 0 0 0)
(0 -0.0156401 0 -0.0156401 -0.0567983 0 0 0 0)
(0 -0.0153025 0 -0.0153025 -0.0550355 0 0 0 0)
(0 -0.0149681 0 -0.0149681 -0.0532743 0 0 0 0)
(0 -0.014637 0 -0.014637 -0.0515145 0 0 0 0)
(0 -0.0143093 0 -0.0143093 -0.0497561 0 0 0 0)
(0 -0.0139851 0 -0.0139851 -0.0479992 0 0 0 0)
(0 -0.0136644 0 -0.0136644 -0.0462443 0 0 0 0)
(0 -0.0133471 0 -0.0133471 -0.0444918 0 0 0 0)
(0 -0.0130326 0 -0.0130326 -0.0427427 0 0 0 0)
(0 -0.0127199 0 -0.0127199 -0.040998 0 0 0 0)
(0 -0.0124074 0 -0.0124074 -0.0392584 0 0 0 0)
(0 -0.0120938 0 -0.0120938 -0.0375249 0 0 0 0)
(0 -0.0117785 0 -0.0117785 -0.0357982 0 0 0 0)
(0 -0.011463 0 -0.011463 -0.0340794 0 0 0 0)
(0 -0.0111485 0 -0.0111485 -0.0323698 0 0 0 0)
(0 -0.0108315 0 -0.0108315 -0.0306683 0 0 0 0)
(0 -0.0105016 0 -0.0105016 -0.02897 0 0 0 0)
(0 -0.0101517 0 -0.0101517 -0.0272685 0 0 0 0)
(0 -0.00978937 0 -0.00978937 -0.0255642 0 0 0 0)
(0 -0.00943009 0 -0.00943009 -0.0238585 0 0 0 0)
(0 -0.00907613 0 -0.00907613 -0.0221326 0 0 0 0)
(0 -0.00872277 0 -0.00872277 -0.0203188 0 0 0 0)
(0 -0.00846051 0 -0.00846051 -0.0182322 0 0 0 0)
(0 -0.00889661 0 -0.00889661 -0.0149667 0 0 0 0)
(0 -0.00813736 0 -0.00813736 -0.0133918 0 0 0 0)
(0 -0.00309428 0 -0.00309428 -0.00820028 0 0 0 0)
(0 -0.0038934 0 -0.0038934 -0.00849162 0 0 0 0)
(0 -0.00448471 0 -0.00448471 -0.0056003 0 0 0 0)
(0 -0.0042158 0 -0.0042158 -0.00274805 0 0 0 0)
(0 -0.0036982 0 -0.0036982 -0.000557403 0 0 0 0)
(0 -0.00230099 0 -0.00230099 1.18858e-05 0 0 0 0)
(0 -0.00226525 0 -0.00226525 4.47194e-05 0 0 0 0)
(0 -0.00304013 0 -0.00304013 5.69167e-05 0 0 0 0)
(0 -0.00287153 0 -0.00287153 3.18736e-05 0 0 0 0)
(0 -0.00257627 0 -0.00257627 2.50155e-05 0 0 0 0)
(0 -0.00245564 0 -0.00245564 2.72235e-05 0 0 0 0)
(0 -0.00248639 0 -0.00248639 3.21297e-05 0 0 0 0)
(0 -0.0026459 0 -0.0026459 3.88341e-05 0 0 0 0)
(0 -0.00292047 0 -0.00292047 4.60325e-05 0 0 0 0)
(0 -0.00329968 0 -0.00329968 4.99881e-05 0 0 0 0)
(0 -0.00377445 0 -0.00377445 4.1279e-05 0 0 0 0)
(0 -0.00433463 0 -0.00433463 -2.8708e-06 0 0 0 0)
(0 -0.0049716 0 -0.0049716 -0.000133528 0 0 0 0)
(0 -0.00568439 0 -0.00568439 -0.000443119 0 0 0 0)
(0 -0.00647047 0 -0.00647047 -0.00103869 0 0 0 0)
(0 -0.00727238 0 -0.00727238 -0.00194103 0 0 0 0)
(0 -0.00793924 0 -0.00793924 -0.00299098 0 0 0 0)
(0 -0.00832476 0 -0.00832476 -0.00394459 0 0 0 0)
(0 -0.00839348 0 -0.00839348 -0.00466948 0 0 0 0)
(0 -0.00818642 0 -0.00818642 -0.00516389 0 0 0 0)
(0 -0.00776198 0 -0.00776198 -0.00546967 0 0 0 0)
(0 -0.00717363 0 -0.00717363 -0.00562895 0 0 0 0)
(0 -0.00646439 0 -0.00646439 -0.00567607 0 0 0 0)
(0 -0.00566658 0 -0.00566658 -0.005637 0 0 0 0)
(0 -0.00480371 0 -0.00480371 -0.00553087 0 0 0 0)
(0 -0.00389264 0 -0.00389264 -0.00537163 0 0 0 0)
(0 -0.00294533 0 -0.00294533 -0.00516962 0 0 0 0)
(0 -0.00197031 0 -0.00197031 -0.00493257 0 0 0 0)
(0 -0.000973646 0 -0.000973646 -0.00466634 0 0 0 0)
(0 4.02731e-05 0 4.02731e-05 -0.00437549 0 0 0 0)
(0 0.00106825 0 0.00106825 -0.00406358 0 0 0 0)
(0 0.00210788 0 0.00210788 -0.00373347 0 0 0 0)
(0 0.00315729 0 0.00315729 -0.00338748 0 0 0 0)
(0 0.00421497 0 0.00421497 -0.00302755 0 0 0 0)
(0 0.00527961 0 0.00527961 -0.0026553 0 0 0 0)
(0 0.00635001 0 0.00635001 -0.00227217 0 0 0 0)
(0 0.00742502 0 0.00742502 -0.00187944 0 0 0 0)
(0 0.00850348 0 0.00850348 -0.00147832 0 0 0 0)
(0 0.00958419 0 0.00958419 -0.00106996 0 0 0 0)
(0 0.0106659 0 0.0106659 -0.000655487 0 0 0 0)
(0 0.0117472 0 0.0117472 -0.000236059 0 0 0 0)
(0 0.0128266 0 0.0128266 0.00018715 0 0 0 0)
(0 0.0139026 0 0.0139026 0.000612933 0 0 0 0)
(0 0.0149734 0 0.0149734 0.00104006 0 0 0 0)
(0 0.0160371 0 0.0160371 0.00146729 0 0 0 0)
(0 0.0170915 0 0.0170915 0.00189341 0 0 0 0)
(0 0.0181344 0 0.0181344 0.00231727 0 0 0 0)
(0 0.0191631 0 0.0191631 0.00273782 0 0 0 0)
(0 0.0201746 0 0.0201746 0.00315418 0 0 0 0)
(0 0.0211658 0 0.0211658 0.0035657 0 0 0 0)
(0 0.0221328 0 0.0221328 0.00397197 0 0 0 0)
(0 0.0230713 0 0.0230713 0.00437293 0 0 0 0)
(0 0.0239768 0 0.0239768 0.00476887 0 0 0 0)
(0 0.0248478 0 0.0248478 0.00516035 0 0 0 0)
(0 0.025709 0 0.025709 0.00555196 0 0 0 0)
(2.2579e-15 0.0265884 0 0.0265884 0.00594874 0 0 0 0)
(0 0.0274894 0 0.0274894 0.0063524 0 0 0 0)
(0 0.0284112 0 0.0284112 0.00676505 0 0 0 0)
(-1.24601e-15 0.0293531 0 0.0293531 0.00718923 0 0 0 0)
(0 0.0303138 0 0.0303138 0.00762787 0 0 0 0)
(1.33893e-15 0.0312925 0 0.0312925 0.0080843 0 0 0 0)
(0 0.0322881 0 0.0322881 0.00856226 0 0 0 0)
(-1.44633e-15 0.0332997 0 0.0332997 0.00906598 0 0 0 0)
(0 0.0343261 0 0.0343261 0.00960024 0 0 0 0)
(0 0.035366 0 0.035366 0.0101705 0 0 0 0)
(0 0.0364173 0 0.0364173 0.0107826 0 0 0 0)
(-1.7149e-15 0.0374764 0 0.0374764 0.011443 0 0 0 0)
(0 0.0385383 0 0.0385383 0.0121572 0 0 0 0)
(0 0.0395949 0 0.0395949 0.0129294 0 0 0 0)
(0 0.0406353 0 0.0406353 0.0137606 0 0 0 0)
(0 0.0416444 0 0.0416444 0.0146473 0 0 0 0)
(0 0.0426034 0 0.0426034 0.0155813 0 0 0 0)
(0 0.043489 0 0.043489 0.0165498 0 0 0 0)
(0 0.0442747 0 0.0442747 0.017537 0 0 0 0)
(4.9801e-15 0.0449303 0 0.0449303 0.0185253 0 0 0 0)
(0 0.0454233 0 0.0454233 0.0194959 0 0 0 0)
(5.42094e-15 0.045718 0 0.045718 0.0204289 0 0 0 0)
(0 0.0457757 0 0.0457757 0.0213027 0 0 0 0)
(0 0.0455526 0 0.0455526 0.0220945 0 0 0 0)
(0 0.0449973 0 0.0449973 0.0227794 0 0 0 0)
(0 0.0440492 0 0.0440492 0.0233301 0 0 0 0)
(-6.31472e-15 0.0426332 0 0.0426332 0.0237201 0 0 0 0)
(-6.39633e-15 0.0406508 0 0.0406508 0.0239249 0 0 0 0)
(0 0.0379943 0 0.0379943 0.0238975 0 0 0 0)
(0 0.0345363 0 0.0345363 0.0236422 0 0 0 0)
(0 0.0301264 0 0.0301264 0.0229447 0 0 0 0)
(0 0.0248951 0 0.0248951 0.0214578 0 0 0 0)
(0 0.0189738 0 0.0189738 0.0169044 0 0 0 0)
(0 0.0159016 0 0.0159016 0.0104903 0 0 0 0)
(0 0 0 0 0 0 0 0 0)
(0 0 0 0 0 0 0 0 0)
(0 0 0 0 0 0 0 0 0)
(0 0 0 0 0 0 0 0 0)
(0 0 0 0 0 0 0 0 0)
(0 0 0 0 0 0 0 0 0)
(0 0 0 0 0 0 0 0 0)
(0 0 0 0 0 0 0 0 0)
(-0 0 0 0 0 0 0 0 0)
(0 0 0 0 0 0 0 0 0)
(0 0 0 0 0 0 0 0 0)
(0 0 0 0 0 0 0 0 0)
(0 0 0 0 0 0 0 0 0)
(0 0 0 0 -0 0 0 0 0)
(0 0 0 0 0 0 0 0 0)
(0 0 0 0 -0 0 0 0 0)
(0 0 0 0 -0 0 0 0 0)
(0 0 0 0 -0 0 0 0 0)
(0 0 0 0 -0 0 0 0 0)
(0 0 0 0 0 0 0 0 0)
(0 0 0 0 0 0 0 0 0)
(0 0 0 0 0 0 0 0 0)
(0 0 0 0 0 0 0 0 0)
(0 -0 0 -0 0 0 0 0 0)
(0 -0 0 -0 0 0 0 0 0)
(0 -0 0 -0 0 0 0 0 0)
(0 -0 0 -0 0 0 0 0 0)
(0 -0 0 -0 0 0 0 0 0)
(0 -0 0 -0 0 0 0 0 0)
(0 -0 0 -0 0 0 0 0 0)
(-0 -0 0 -0 0 0 0 0 0)
(0 -0 0 -0 0 0 0 0 0)
(0 -0 0 -0 0 0 0 0 0)
(0 -0 0 -0 0 0 0 0 0)
(0 -0 0 -0 0 0 0 0 0)
(0 -0 0 -0 0 0 0 0 0)
(0 -0 0 -0 0 0 0 0 0)
(0 -0 0 -0 0 0 0 0 0)
(0 -0 0 -0 0 0 0 0 0)
(0 -0 0 -0 0 0 0 0 0)
(0 -0 0 -0 0 0 0 0 0)
(0 -0 0 -0 0 0 0 0 0)
(0 -0 0 -0 0 0 0 0 0)
(0 -0 0 -0 0 0 0 0 0)
(0 0 0 0 0 0 0 0 0)
(0 0 0 0 0 0 0 0 0)
(0 0 0 0 -0 0 0 0 0)
(0 0 0 0 0 0 0 0 0)
(0 0 0 0 -0 0 0 0 0)
(0 0 0 0 0 0 0 0 0)
(-0 0 0 0 -0 0 0 0 0)
(0 0 0 0 0 0 0 0 0)
(0 0 0 0 -0 0 0 0 0)
(0 0 0 0 0 0 0 0 0)
(0 0 0 0 -0 0 0 0 0)
(0 0 0 0 0 0 0 0 0)
(0 0 0 0 -0 0 0 0 0)
(0 -0 0 -0 0 0 0 0 0)
(0 0 0 0 -0 0 0 0 0)
(0 -0 0 -0 0 0 0 0 0)
(0 0 0 0 -0 0 0 0 0)
(0 -0 0 -0 0 0 0 0 0)
(0 0 0 0 -0 0 0 0 0)
(0 -0 0 -0 0 0 0 0 0)
(0 0 0 0 -0 0 0 0 0)
(0 -0 0 -0 0 0 0 0 0)
(0 0 0 0 -0 0 0 0 0)
(0 -0 0 -0 0 0 0 0 0)
(0 0 0 0 -0 0 0 0 0)
(0 -0 0 -0 0 0 0 0 0)
(0 0 0 0 -0 0 0 0 0)
(0 0 0 0 0 0 0 0 0)
(0 0 0 0 -0 0 0 0 0)
(0 -0 0 -0 0 0 0 0 0)
(0 -0 0 -0 -0 0 0 0 0)
(0 -0 0 -0 0 0 0 0 0)
(0 0 0 0 -0 0 0 0 0)
(0 -0 0 -0 0 0 0 0 0)
(0 0 0 0 -0 0 0 0 0)
(0 -0 0 -0 0 0 0 0 0)
(0 0 0 0 -0 0 0 0 0)
(0 -0 0 -0 0 0 0 0 0)
(0 0 0 0 -0 0 0 0 0)
(0 -0 0 -0 0 0 0 0 0)
(0 0 0 0 -0 0 0 0 0)
(0 -0 0 -0 0 0 0 0 0)
(0 0 0 0 -0 0 0 0 0)
(0 -0 0 -0 0 0 0 0 0)
(0 0 0 0 -0 0 0 0 0)
(0 -0 0 -0 0 0 0 0 0)
(0 0 0 0 -0 0 0 0 0)
(0 -0 0 -0 0 0 0 0 0)
(0 0 0 0 -0 0 0 0 0)
(0 -0 0 -0 0 0 0 0 0)
(0 0 0 0 -0 0 0 0 0)
(0 -0 0 -0 0 0 0 0 0)
(0 0 0 0 -0 0 0 0 0)
(0 -0 0 -0 0 0 0 0 0)
(0 0 0 0 -0 0 0 0 0)
(0 -0 0 -0 0 0 0 0 0)
(0 0 0 0 -0 0 0 0 0)
(0 -0 0 -0 0 0 0 0 0)
(0 0 0 0 -0 0 0 0 0)
(0 -0 0 -0 0 0 0 0 0)
(0 -0 0 -0 -0 0 0 0 0)
(0 -0 0 -0 0 0 0 0 0)
(0 0 0 0 -0 0 0 0 0)
(0 0 0 0 0 0 0 0 0)
(0 0 0 0 -0 0 0 0 0)
(0 -0 0 -0 0 0 0 0 0)
(0 0 0 0 -0 0 0 0 0)
(0 -0 0 -0 0 0 0 0 0)
(0 0 0 0 -0 0 0 0 0)
(0 -0 0 -0 0 0 0 0 0)
(0 0 0 0 -0 0 0 0 0)
(0 0 0 0 0 0 0 0 0)
(0 0 0 0 -0 0 0 0 0)
(0 0 0 0 0 0 0 0 0)
(0 0 0 0 0 0 0 0 0)
(0 0 0 0 0 0 0 0 0)
(0 0 0 0 0 0 0 0 0)
(0 0 0 0 0 0 0 0 0)
(0 0 0 0 0 0 0 0 0)
(0 0 0 0 0 0 0 0 0)
)
;

boundaryField
{
    inandouthalf11
    {
        type            cyclic;
    }
    inandouthalf12
    {
        type            cyclic;
    }
    inandouthalf21
    {
        type            cyclic;
    }
    inandouthalf22
    {
        type            cyclic;
    }
    inandouthalf31
    {
        type            cyclic;
    }
    inandouthalf32
    {
        type            cyclic;
    }
    inandouthalf41
    {
        type            cyclic;
    }
    inandouthalf42
    {
        type            cyclic;
    }
    top
    {
        type            symmetryPlane;
    }
    walls
    {
        type            zeroGradient;
    }
    frontAndBackPlanes
    {
        type            empty;
    }
}


// ************************************************************************* //
