/*--------------------------------*- C++ -*----------------------------------*\
| =========                 |                                                 |
| \\      /  F ield         | OpenFOAM: The Open Source CFD Toolbox           |
|  \\    /   O peration     | Version:  2.4.x                                 |
|   \\  /    A nd           | Web:      www.OpenFOAM.org                      |
|    \\/     M anipulation  |                                                 |
\*---------------------------------------------------------------------------*/
FoamFile
{
    version     2.0;
    format      ascii;
    class       volScalarField;
    location    "11.3";
    object      Theta_0;
}
// * * * * * * * * * * * * * * * * * * * * * * * * * * * * * * * * * * * * * //

dimensions      [0 2 -2 0 0 0 0];

internalField   nonuniform List<scalar> 
360
(
6.66138e-21
6.66142e-21
6.66141e-21
6.66141e-21
6.66141e-21
6.66141e-21
6.66141e-21
6.66141e-21
6.66141e-21
6.66141e-21
6.66141e-21
6.66141e-21
6.66141e-21
6.66141e-21
6.66141e-21
6.66141e-21
6.6614e-21
6.6614e-21
6.6614e-21
6.6614e-21
6.6614e-21
6.6614e-21
6.6614e-21
6.6614e-21
6.6614e-21
6.66139e-21
6.66139e-21
6.66139e-21
6.66139e-21
6.66139e-21
6.66139e-21
6.66139e-21
6.66139e-21
6.66139e-21
6.66139e-21
6.66139e-21
6.66139e-21
6.66138e-21
6.66138e-21
6.66138e-21
6.66138e-21
6.66138e-21
6.66138e-21
6.66138e-21
6.66138e-21
6.66138e-21
6.66138e-21
6.66138e-21
6.66138e-21
6.66138e-21
6.66138e-21
6.66137e-21
6.66137e-21
6.66137e-21
6.66137e-21
6.66137e-21
6.66137e-21
6.66137e-21
6.66137e-21
6.66137e-21
6.66137e-21
6.66137e-21
6.66137e-21
6.66137e-21
6.66136e-21
6.66136e-21
6.66136e-21
6.66136e-21
6.66136e-21
6.66136e-21
6.66136e-21
6.66136e-21
6.66136e-21
6.66136e-21
6.66135e-21
6.66135e-21
6.66135e-21
6.66135e-21
6.66135e-21
6.66135e-21
6.66135e-21
6.66135e-21
6.66135e-21
6.66134e-21
6.66134e-21
6.66134e-21
6.66134e-21
6.66134e-21
6.66134e-21
6.66134e-21
6.66133e-21
6.66133e-21
6.66133e-21
6.66133e-21
6.66133e-21
6.66133e-21
6.66132e-21
6.66132e-21
6.66132e-21
6.66132e-21
6.66132e-21
6.66132e-21
6.66131e-21
6.66131e-21
6.66131e-21
6.66131e-21
6.66131e-21
6.6613e-21
6.6613e-21
6.6613e-21
6.6613e-21
6.6613e-21
6.66129e-21
6.66129e-21
6.66129e-21
6.66129e-21
6.66128e-21
6.66128e-21
6.66128e-21
6.66128e-21
6.66127e-21
6.66127e-21
6.66127e-21
6.66126e-21
6.66126e-21
6.66126e-21
6.66125e-21
6.66125e-21
6.66125e-21
6.66125e-21
6.66124e-21
6.66124e-21
6.66124e-21
9.48353e-21
1.30402e-20
1.71265e-20
4.72878e-20
4.55458e-19
5.8772e-18
8.40803e-17
1.3349e-15
2.38169e-14
4.9129e-13
1.14505e-11
3.28445e-10
2.5781e-08
2.17721e-06
5.08421e-05
0.000660427
0.00233542
0.0033366
0.00379469
0.00401485
0.00410555
0.0041066
0.00403803
0.00391466
0.00375406
0.00357461
0.00339297
0.00322194
0.00306881
0.00293571
0.00282175
0.00272497
0.00264342
0.00257526
0.00251883
0.0024726
0.00243523
0.00240552
0.0023824
0.00236494
0.00235231
0.00234379
0.00233872
0.00233655
0.00233676
0.00233891
0.0023426
0.00234748
0.00235323
0.00235957
0.00236626
0.00237306
0.00237978
0.00238625
0.0023923
0.00239779
0.00240262
0.00240665
0.0024098
0.00241199
0.00241315
0.00241321
0.00241211
0.00240983
0.00240632
0.00240156
0.00239553
0.00238821
0.00237952
0.00236929
0.00235743
0.00234388
0.00232853
0.00231131
0.00229214
0.00227093
0.00224761
0.00222209
0.0021943
0.00216415
0.00213158
0.00209649
0.0020588
0.00201842
0.00197524
0.00192917
0.00188006
0.00182778
0.00177217
0.00171304
0.00165017
0.00158333
0.00151223
0.00143651
0.00135576
0.00126946
0.00117694
0.00107732
0.000969407
0.000851437
0.00072066
0.000572233
0.000395586
0
0
0
0
0
0
0
0
0
0
0
0
0
0
0
0
0
0
0
0
0
0
0
0
0
0
0
0
0
0
0
0
0
0
0
0
0
0
0
0
0
0
0
0
0
0
0
0
0
0
0
0
0
0
0
0
0
0
0
0
0
0
0
0
0
0
0
0
0
0
0
0
0
0
0
0
0
0
0
0
0
0
0
0
0
0
0
0
0
0
0
0
0
0
0
0
0
0
0
0
0
0
0
0
0
0
0
0
0
0
0
0
0
0
0
0
0
0
0
0
0
0
0
0
)
;

boundaryField
{
    inandouthalf11
    {
        type            cyclic;
    }
    inandouthalf12
    {
        type            cyclic;
    }
    inandouthalf21
    {
        type            cyclic;
    }
    inandouthalf22
    {
        type            cyclic;
    }
    inandouthalf31
    {
        type            cyclic;
    }
    inandouthalf32
    {
        type            cyclic;
    }
    inandouthalf41
    {
        type            cyclic;
    }
    inandouthalf42
    {
        type            cyclic;
    }
    top
    {
        type            symmetryPlane;
    }
    walls
    {
        type            zeroGradient;
    }
    frontAndBackPlanes
    {
        type            empty;
    }
}


// ************************************************************************* //
