/*--------------------------------*- C++ -*----------------------------------*\
| =========                 |                                                 |
| \\      /  F ield         | OpenFOAM: The Open Source CFD Toolbox           |
|  \\    /   O peration     | Version:  2.4.x                                 |
|   \\  /    A nd           | Web:      www.OpenFOAM.org                      |
|    \\/     M anipulation  |                                                 |
\*---------------------------------------------------------------------------*/
FoamFile
{
    version     2.0;
    format      ascii;
    class       volVectorField;
    location    "11.3";
    object      Ua;
}
// * * * * * * * * * * * * * * * * * * * * * * * * * * * * * * * * * * * * * //

dimensions      [0 1 -1 0 0 0 0];

internalField   nonuniform List<vector> 
360
(
(-2.13211e-32 -1.01217e-31 0)
(-2.00442e-09 -6.64224e-09 0)
(-4.20503e-09 -1.19302e-08 0)
(-6.22592e-09 -1.67021e-08 0)
(-8.32087e-09 -2.18319e-08 0)
(-1.05272e-08 -2.72501e-08 0)
(-1.27831e-08 -3.27494e-08 0)
(-1.50563e-08 -3.82694e-08 0)
(-1.73392e-08 -4.38036e-08 0)
(-1.96274e-08 -4.93419e-08 0)
(-2.19149e-08 -5.48696e-08 0)
(-2.41937e-08 -6.03671e-08 0)
(-2.64558e-08 -6.58147e-08 0)
(-2.86939e-08 -7.11945e-08 0)
(-3.09017e-08 -7.64923e-08 0)
(-3.30748e-08 -8.16974e-08 0)
(-3.52095e-08 -8.68018e-08 0)
(-3.73031e-08 -9.17994e-08 0)
(-3.9354e-08 -9.66863e-08 0)
(-4.13613e-08 -1.01461e-07 0)
(-4.33249e-08 -1.06124e-07 0)
(-4.52455e-08 -1.10676e-07 0)
(-4.71244e-08 -1.15122e-07 0)
(-4.89633e-08 -1.19466e-07 0)
(-5.07644e-08 -1.23714e-07 0)
(-5.253e-08 -1.2787e-07 0)
(-5.42626e-08 -1.31942e-07 0)
(-5.5965e-08 -1.35935e-07 0)
(-5.764e-08 -1.39858e-07 0)
(-5.92904e-08 -1.43716e-07 0)
(-6.09187e-08 -1.47517e-07 0)
(-6.25279e-08 -1.51266e-07 0)
(-6.41204e-08 -1.54969e-07 0)
(-6.56988e-08 -1.58634e-07 0)
(-6.72656e-08 -1.62265e-07 0)
(-6.88229e-08 -1.65868e-07 0)
(-7.03728e-08 -1.69448e-07 0)
(-7.19173e-08 -1.73009e-07 0)
(-7.34585e-08 -1.76556e-07 0)
(-7.49978e-08 -1.80093e-07 0)
(-7.65369e-08 -1.83623e-07 0)
(-7.80773e-08 -1.8715e-07 0)
(-7.96201e-08 -1.90677e-07 0)
(-8.11666e-08 -1.94206e-07 0)
(-8.27179e-08 -1.97739e-07 0)
(-8.42749e-08 -2.0128e-07 0)
(-8.58386e-08 -2.0483e-07 0)
(-8.74092e-08 -2.08389e-07 0)
(-8.89873e-08 -2.11959e-07 0)
(-9.0574e-08 -2.15543e-07 0)
(-9.21695e-08 -2.1914e-07 0)
(-9.37739e-08 -2.22751e-07 0)
(-9.53877e-08 -2.26377e-07 0)
(-9.70109e-08 -2.30018e-07 0)
(-9.86436e-08 -2.33674e-07 0)
(-1.00286e-07 -2.37345e-07 0)
(-1.01938e-07 -2.41031e-07 0)
(-1.036e-07 -2.44733e-07 0)
(-1.05271e-07 -2.48449e-07 0)
(-1.06951e-07 -2.52178e-07 0)
(-1.0864e-07 -2.5592e-07 0)
(-1.10337e-07 -2.59675e-07 0)
(-1.12044e-07 -2.63443e-07 0)
(-1.13758e-07 -2.67223e-07 0)
(-1.15481e-07 -2.71013e-07 0)
(-1.17211e-07 -2.74813e-07 0)
(-1.18948e-07 -2.78622e-07 0)
(-1.20692e-07 -2.82439e-07 0)
(-1.22442e-07 -2.86262e-07 0)
(-1.24198e-07 -2.90089e-07 0)
(-1.25958e-07 -2.9392e-07 0)
(-1.27724e-07 -2.97756e-07 0)
(-1.29494e-07 -3.01594e-07 0)
(-1.31268e-07 -3.05432e-07 0)
(-1.33046e-07 -3.09271e-07 0)
(-1.34827e-07 -3.13109e-07 0)
(-1.36611e-07 -3.16946e-07 0)
(-1.38396e-07 -3.20778e-07 0)
(-1.40182e-07 -3.24604e-07 0)
(-1.41969e-07 -3.28423e-07 0)
(-1.43756e-07 -3.32234e-07 0)
(-1.45543e-07 -3.36036e-07 0)
(-1.47329e-07 -3.39827e-07 0)
(-1.49113e-07 -3.43607e-07 0)
(-1.50896e-07 -3.47375e-07 0)
(-1.52677e-07 -3.5113e-07 0)
(-1.54456e-07 -3.5487e-07 0)
(-1.56231e-07 -3.58594e-07 0)
(-1.58002e-07 -3.623e-07 0)
(-1.59768e-07 -3.65986e-07 0)
(-1.6153e-07 -3.69651e-07 0)
(-1.63285e-07 -3.73294e-07 0)
(-1.65034e-07 -3.76913e-07 0)
(-1.66776e-07 -3.80507e-07 0)
(-1.68511e-07 -3.84077e-07 0)
(-1.70239e-07 -3.87619e-07 0)
(-1.71959e-07 -3.91135e-07 0)
(-1.73671e-07 -3.94622e-07 0)
(-1.75375e-07 -3.98079e-07 0)
(-1.77069e-07 -4.01506e-07 0)
(-1.78755e-07 -4.04902e-07 0)
(-1.80432e-07 -4.08267e-07 0)
(-1.82099e-07 -4.116e-07 0)
(-1.83759e-07 -4.14902e-07 0)
(-1.8541e-07 -4.18175e-07 0)
(-1.87055e-07 -4.21418e-07 0)
(-1.88694e-07 -4.24635e-07 0)
(-1.90328e-07 -4.27827e-07 0)
(-1.9196e-07 -4.30996e-07 0)
(-1.93589e-07 -4.34144e-07 0)
(-1.95218e-07 -4.37272e-07 0)
(-1.96847e-07 -4.40382e-07 0)
(-1.98478e-07 -4.43474e-07 0)
(-2.0011e-07 -4.46548e-07 0)
(-2.01743e-07 -4.49602e-07 0)
(-2.03376e-07 -4.52633e-07 0)
(-2.05008e-07 -4.55636e-07 0)
(-2.06636e-07 -4.58606e-07 0)
(-2.08258e-07 -4.61538e-07 0)
(-2.09874e-07 -4.64428e-07 0)
(-2.11482e-07 -4.67274e-07 0)
(-2.13084e-07 -4.70078e-07 0)
(-2.14687e-07 -4.72847e-07 0)
(-2.163e-07 -4.75596e-07 0)
(-2.17937e-07 -4.78346e-07 0)
(-2.1962e-07 -4.8113e-07 0)
(-2.21378e-07 -4.83989e-07 0)
(-2.23249e-07 -4.86978e-07 0)
(-2.25278e-07 -4.90159e-07 0)
(-2.27519e-07 -4.93603e-07 0)
(-2.30024e-07 -4.97371e-07 0)
(-2.32833e-07 -5.01501e-07 0)
(-2.35952e-07 -5.05977e-07 0)
(-2.39328e-07 -5.10696e-07 0)
(-2.42807e-07 -5.15432e-07 0)
(-2.46113e-07 -5.1981e-07 0)
(-2.48889e-07 -5.23373e-07 0)
(-2.50848e-07 -5.25799e-07 0)
(-2.51955e-07 -5.27112e-07 0)
(-2.52436e-07 -5.27648e-07 0)
(-2.52606e-07 -5.27813e-07 0)
(-2.52696e-07 -5.27868e-07 0)
(-2.52814e-07 -5.27984e-07 0)
(-2.5329e-07 -5.28654e-07 0)
(-2.53733e-07 -5.28986e-07 0)
(-2.54187e-07 -5.29214e-07 0)
(-2.55069e-07 -5.29422e-07 0)
(-2.59758e-07 -5.29634e-07 0)
(-0.0363006 9.32255e-05 0)
(-0.149975 0.00147983 0)
(-0.254852 0.00213907 0)
(-0.338057 0.00252367 0)
(-0.405777 0.00287181 0)
(-0.462018 0.00321079 0)
(-0.509276 0.00354053 0)
(-0.549207 0.00385064 0)
(-0.582958 0.00412122 0)
(-0.611361 0.00432143 0)
(-0.635055 0.00440609 0)
(-0.654596 0.00430711 0)
(-0.670522 0.00392981 0)
(-0.683387 0.00318494 0)
(-0.693753 0.00206522 0)
(-0.702131 0.00068345 0)
(-0.708941 -0.000795802 0)
(-0.714497 -0.00224624 0)
(-0.719036 -0.00360383 0)
(-0.722738 -0.00484533 0)
(-0.725743 -0.00596698 0)
(-0.728162 -0.00697349 0)
(-0.730084 -0.00787288 0)
(-0.731581 -0.00867406 0)
(-0.732712 -0.00938577 0)
(-0.733526 -0.0100162 0)
(-0.734065 -0.0105727 0)
(-0.734362 -0.0110621 0)
(-0.734448 -0.0114904 0)
(-0.734347 -0.0118629 0)
(-0.734083 -0.0121847 0)
(-0.733673 -0.0124601 0)
(-0.733135 -0.012693 0)
(-0.732484 -0.0128871 0)
(-0.731732 -0.0130457 0)
(-0.730893 -0.0131718 0)
(-0.729975 -0.0132682 0)
(-0.728989 -0.0133373 0)
(-0.727944 -0.0133816 0)
(-0.726847 -0.0134031 0)
(-0.725706 -0.0134041 0)
(-0.724527 -0.0133862 0)
(-0.723318 -0.0133514 0)
(-0.722083 -0.0133013 0)
(-0.720829 -0.0132375 0)
(-0.71956 -0.0131616 0)
(-0.718281 -0.0130748 0)
(-0.716998 -0.0129785 0)
(-0.715713 -0.0128741 0)
(-0.714433 -0.0127625 0)
(-0.71316 -0.0126449 0)
(-0.711898 -0.0125223 0)
(-0.710652 -0.0123955 0)
(-0.709411 -0.012264 0)
(-0.708166 -0.0121271 0)
(-0.706918 -0.011985 0)
(-0.705668 -0.0118384 0)
(-0.70442 -0.0116876 0)
(-0.703174 -0.0115329 0)
(-0.701933 -0.0113747 0)
(-0.7007 -0.0112133 0)
(-0.699475 -0.0110488 0)
(-0.698262 -0.0108814 0)
(-0.697062 -0.0107113 0)
(-0.695878 -0.0105386 0)
(-0.694712 -0.0103633 0)
(-0.693565 -0.0101853 0)
(-0.692439 -0.0100047 0)
(-0.691335 -0.00982128 0)
(-0.690256 -0.00963509 0)
(-0.689203 -0.00944614 0)
(-0.688176 -0.00925455 0)
(-0.687177 -0.00906056 0)
(-0.686207 -0.00886447 0)
(-0.685266 -0.00866668 0)
(-0.684358 -0.0084676 0)
(-0.683481 -0.00826767 0)
(-0.682638 -0.00806732 0)
(-0.681829 -0.00786697 0)
(-0.681056 -0.00766699 0)
(-0.680322 -0.00746771 0)
(-0.679627 -0.00726929 0)
(-0.678976 -0.00707169 0)
(-0.678374 -0.006875 0)
(-0.677827 -0.00667823 0)
(-0.677346 -0.00648326 0)
(-0.676939 -0.00629527 0)
(-0.676615 -0.0061577 0)
(-0.676237 -0.00606413 0)
(-0.620645 -0.00513132 0)
(-0.617304 -0.00484584 0)
(-0.613882 -0.00426191 0)
(-0.610492 -0.00371861 0)
(-0.607138 -0.00315631 0)
(-0.603839 -0.00268252 0)
(-0.600591 -0.00183522 0)
(-0.597456 -0.00201373 0)
(-0.594373 -0.000141537 0)
(-0.591465 -0.00173937 0)
(-0.588655 0.00151877 0)
(-0.585992 -0.00154925 0)
(-0.583606 0.00352715 0)
(-0.581267 -0.00274864 0)
(-0.579399 0.00615682 0)
(-0.577413 -0.0046986 0)
(-0.576922 -0.0352931 0)
(-0.575777 -0.0396304 0)
(-0.57466 -0.0395894 0)
(-0.573911 -0.0395838 0)
(-0.573412 -0.0395764 0)
(-0.573177 -0.0395706 0)
(-0.573136 -0.0395653 0)
(-0.573306 -0.0395605 0)
(-0.573657 -0.0395569 0)
(-0.574165 -0.0395542 0)
(-0.574808 -0.0395521 0)
(-0.575565 -0.0395507 0)
(-0.576415 -0.0395497 0)
(-0.577341 -0.039549 0)
(-0.578321 -0.0395486 0)
(-0.579338 -0.0395482 0)
(-0.580372 -0.0395479 0)
(-0.581405 -0.0395475 0)
(-0.582416 -0.0395468 0)
(-0.583384 -0.0395459 0)
(-0.584282 -0.0395445 0)
(-0.585081 -0.0395424 0)
(-0.585739 -0.0395378 0)
(-0.586064 -0.0395312 0)
(-0.586114 -0.0395275 0)
(-0.586115 -0.0395269 0)
(-0.586115 -0.0395269 0)
(-0.586115 -0.0395269 0)
(-0.586115 -0.0395269 0)
(-0.586115 -0.0395269 0)
(-0.586115 -0.0395269 0)
(-0.586115 -0.0395269 0)
(-0.586115 -0.0395269 0)
(-0.586115 -0.0395269 0)
(-0.586115 -0.0395269 0)
(-0.586115 -0.0395269 0)
(-0.586115 -0.0395269 0)
(-0.586115 -0.0395269 0)
(-0.586115 -0.0395269 0)
(-0.586115 -0.0395269 0)
(-0.586115 -0.0395269 0)
(-0.586115 -0.0395269 0)
(-0.586115 -0.0395269 0)
(-0.586115 -0.0395269 0)
(-0.586115 -0.0395269 0)
(-0.586115 -0.0395269 0)
(-0.586115 -0.0395269 0)
(-0.586115 -0.0395269 0)
(-0.586115 -0.0395269 0)
(-0.586115 -0.0395269 0)
(-0.586115 -0.0395269 0)
(-0.586115 -0.0395269 0)
(-0.586115 -0.0395269 0)
(-0.586115 -0.0395269 0)
(-0.586115 -0.0395269 0)
(-0.586115 -0.0395269 0)
(-0.586115 -0.0395269 0)
(-0.586115 -0.0395269 0)
(-0.586115 -0.0395269 0)
(-0.586115 -0.0395269 0)
(-0.586115 -0.0395269 0)
(-0.586115 -0.0395269 0)
(-0.586115 -0.0395269 0)
(-0.586115 -0.0395269 0)
(-0.586115 -0.0395269 0)
(-0.586115 -0.0395269 0)
(-0.586115 -0.0395269 0)
(-0.586115 -0.0395269 0)
(-0.586115 -0.0395269 0)
(-0.586115 -0.0395269 0)
(-0.586115 -0.0395269 0)
(-0.586115 -0.0395269 0)
(-0.586115 -0.0395269 0)
(-0.586115 -0.0395269 0)
(-0.586115 -0.0395269 0)
(-0.586115 -0.0395269 0)
(-0.586115 -0.0395269 0)
(-0.586115 -0.0395269 0)
(-0.586115 -0.0395269 0)
(-0.586115 -0.0395269 0)
(-0.586115 -0.0395269 0)
(-0.586115 -0.0395269 0)
(-0.586115 -0.0395269 0)
(-0.586115 -0.0395269 0)
(-0.586115 -0.0395269 0)
(-0.586115 -0.0395269 0)
(-0.586115 -0.0395269 0)
(-0.586115 -0.0395269 0)
(-0.586115 -0.0395269 0)
(-0.586115 -0.0395269 0)
(-0.586115 -0.0395269 0)
(-0.586115 -0.0395269 0)
(-0.586115 -0.0395269 0)
(-0.586115 -0.0395269 0)
(-0.586115 -0.0395269 0)
(-0.586115 -0.0395269 0)
(-0.586115 -0.0395269 0)
(-0.586115 -0.0395269 0)
(-0.586115 -0.0395269 0)
(-0.586115 -0.0395269 0)
(-0.586115 -0.0395269 0)
(-0.586115 -0.0395269 0)
(-0.586115 -0.0395269 0)
(-0.586115 -0.0395267 0)
(-0.586114 -0.0395182 0)
(-0.586095 -0.0391731 0)
(-0.585642 -0.022454 0)
)
;

boundaryField
{
    inandouthalf11
    {
        type            cyclic;
    }
    inandouthalf12
    {
        type            cyclic;
    }
    inandouthalf21
    {
        type            cyclic;
    }
    inandouthalf22
    {
        type            cyclic;
    }
    inandouthalf31
    {
        type            cyclic;
    }
    inandouthalf32
    {
        type            cyclic;
    }
    inandouthalf41
    {
        type            cyclic;
    }
    inandouthalf42
    {
        type            cyclic;
    }
    top
    {
        type            symmetryPlane;
    }
    walls
    {
        type            fixedValue;
        value           uniform (0 0 0);
    }
    frontAndBackPlanes
    {
        type            empty;
    }
}


// ************************************************************************* //
