/*--------------------------------*- C++ -*----------------------------------*\
| =========                 |                                                 |
| \\      /  F ield         | OpenFOAM: The Open Source CFD Toolbox           |
|  \\    /   O peration     | Version:  2.4.x                                 |
|   \\  /    A nd           | Web:      www.OpenFOAM.org                      |
|    \\/     M anipulation  |                                                 |
\*---------------------------------------------------------------------------*/
FoamFile
{
    version     2.0;
    format      ascii;
    class       volVectorField;
    location    "11.3";
    object      Ua_0;
}
// * * * * * * * * * * * * * * * * * * * * * * * * * * * * * * * * * * * * * //

dimensions      [0 1 -1 0 0 0 0];

internalField   nonuniform List<vector> 
360
(
(-2.13209e-32 -1.01217e-31 0)
(-2.00482e-09 -6.64364e-09 0)
(-4.20586e-09 -1.19327e-08 0)
(-6.22713e-09 -1.67056e-08 0)
(-8.32246e-09 -2.18363e-08 0)
(-1.05292e-08 -2.72556e-08 0)
(-1.27855e-08 -3.27558e-08 0)
(-1.50589e-08 -3.82767e-08 0)
(-1.73421e-08 -4.38117e-08 0)
(-1.96307e-08 -4.93508e-08 0)
(-2.19183e-08 -5.48791e-08 0)
(-2.41974e-08 -6.03773e-08 0)
(-2.64597e-08 -6.58254e-08 0)
(-2.86979e-08 -7.12057e-08 0)
(-3.09059e-08 -7.6504e-08 0)
(-3.3079e-08 -8.17094e-08 0)
(-3.52138e-08 -8.68141e-08 0)
(-3.73075e-08 -9.18121e-08 0)
(-3.93585e-08 -9.66992e-08 0)
(-4.13658e-08 -1.01474e-07 0)
(-4.33295e-08 -1.06137e-07 0)
(-4.52501e-08 -1.1069e-07 0)
(-4.71289e-08 -1.15136e-07 0)
(-4.89679e-08 -1.1948e-07 0)
(-5.0769e-08 -1.23728e-07 0)
(-5.25346e-08 -1.27884e-07 0)
(-5.42673e-08 -1.31956e-07 0)
(-5.59697e-08 -1.3595e-07 0)
(-5.76448e-08 -1.39873e-07 0)
(-5.92952e-08 -1.43732e-07 0)
(-6.09237e-08 -1.47532e-07 0)
(-6.25329e-08 -1.51282e-07 0)
(-6.41255e-08 -1.54986e-07 0)
(-6.5704e-08 -1.58651e-07 0)
(-6.72709e-08 -1.62282e-07 0)
(-6.88283e-08 -1.65886e-07 0)
(-7.03783e-08 -1.69466e-07 0)
(-7.1923e-08 -1.73027e-07 0)
(-7.34643e-08 -1.76575e-07 0)
(-7.50037e-08 -1.80112e-07 0)
(-7.6543e-08 -1.83643e-07 0)
(-7.80836e-08 -1.87171e-07 0)
(-7.96266e-08 -1.90698e-07 0)
(-8.11732e-08 -1.94227e-07 0)
(-8.27247e-08 -1.97762e-07 0)
(-8.4282e-08 -2.01303e-07 0)
(-8.58459e-08 -2.04854e-07 0)
(-8.74167e-08 -2.08414e-07 0)
(-8.89951e-08 -2.11984e-07 0)
(-9.0582e-08 -2.15568e-07 0)
(-9.21777e-08 -2.19166e-07 0)
(-9.37824e-08 -2.22778e-07 0)
(-9.53964e-08 -2.26405e-07 0)
(-9.70198e-08 -2.30046e-07 0)
(-9.86529e-08 -2.33703e-07 0)
(-1.00296e-07 -2.37375e-07 0)
(-1.01948e-07 -2.41062e-07 0)
(-1.0361e-07 -2.44765e-07 0)
(-1.05281e-07 -2.48481e-07 0)
(-1.06961e-07 -2.52211e-07 0)
(-1.0865e-07 -2.55954e-07 0)
(-1.10348e-07 -2.5971e-07 0)
(-1.12055e-07 -2.63479e-07 0)
(-1.1377e-07 -2.6726e-07 0)
(-1.15493e-07 -2.71051e-07 0)
(-1.17223e-07 -2.74852e-07 0)
(-1.18961e-07 -2.78661e-07 0)
(-1.20705e-07 -2.82479e-07 0)
(-1.22455e-07 -2.86303e-07 0)
(-1.24211e-07 -2.90131e-07 0)
(-1.25972e-07 -2.93963e-07 0)
(-1.27738e-07 -2.978e-07 0)
(-1.29509e-07 -3.01639e-07 0)
(-1.31283e-07 -3.05478e-07 0)
(-1.33061e-07 -3.09317e-07 0)
(-1.34842e-07 -3.13157e-07 0)
(-1.36626e-07 -3.16994e-07 0)
(-1.38412e-07 -3.20827e-07 0)
(-1.40198e-07 -3.24654e-07 0)
(-1.41986e-07 -3.28474e-07 0)
(-1.43773e-07 -3.32286e-07 0)
(-1.4556e-07 -3.36089e-07 0)
(-1.47346e-07 -3.39881e-07 0)
(-1.4913e-07 -3.43662e-07 0)
(-1.50914e-07 -3.47431e-07 0)
(-1.52695e-07 -3.51186e-07 0)
(-1.54474e-07 -3.54927e-07 0)
(-1.56249e-07 -3.58652e-07 0)
(-1.58021e-07 -3.62359e-07 0)
(-1.59787e-07 -3.66046e-07 0)
(-1.61549e-07 -3.69712e-07 0)
(-1.63304e-07 -3.73355e-07 0)
(-1.65053e-07 -3.76975e-07 0)
(-1.66796e-07 -3.8057e-07 0)
(-1.68531e-07 -3.8414e-07 0)
(-1.7026e-07 -3.87684e-07 0)
(-1.7198e-07 -3.912e-07 0)
(-1.73692e-07 -3.94688e-07 0)
(-1.75396e-07 -3.98146e-07 0)
(-1.77091e-07 -4.01574e-07 0)
(-1.78777e-07 -4.04971e-07 0)
(-1.80453e-07 -4.08336e-07 0)
(-1.82121e-07 -4.1167e-07 0)
(-1.83781e-07 -4.14973e-07 0)
(-1.85433e-07 -4.18246e-07 0)
(-1.87078e-07 -4.21491e-07 0)
(-1.88717e-07 -4.24709e-07 0)
(-1.90352e-07 -4.27901e-07 0)
(-1.91983e-07 -4.31071e-07 0)
(-1.93613e-07 -4.34219e-07 0)
(-1.95242e-07 -4.37348e-07 0)
(-1.96871e-07 -4.40459e-07 0)
(-1.98502e-07 -4.43552e-07 0)
(-2.00134e-07 -4.46627e-07 0)
(-2.01768e-07 -4.49682e-07 0)
(-2.03401e-07 -4.52713e-07 0)
(-2.05033e-07 -4.55717e-07 0)
(-2.06661e-07 -4.58687e-07 0)
(-2.08284e-07 -4.6162e-07 0)
(-2.09899e-07 -4.64511e-07 0)
(-2.11508e-07 -4.67357e-07 0)
(-2.13111e-07 -4.70162e-07 0)
(-2.14714e-07 -4.72932e-07 0)
(-2.16326e-07 -4.75682e-07 0)
(-2.17964e-07 -4.78433e-07 0)
(-2.19647e-07 -4.81217e-07 0)
(-2.21406e-07 -4.84077e-07 0)
(-2.23277e-07 -4.87067e-07 0)
(-2.25307e-07 -4.9025e-07 0)
(-2.27548e-07 -4.93695e-07 0)
(-2.30054e-07 -4.97465e-07 0)
(-2.32863e-07 -5.01598e-07 0)
(-2.35984e-07 -5.06076e-07 0)
(-2.39361e-07 -5.10798e-07 0)
(-2.42841e-07 -5.15537e-07 0)
(-2.46149e-07 -5.19917e-07 0)
(-2.48925e-07 -5.23482e-07 0)
(-2.50885e-07 -5.2591e-07 0)
(-2.51993e-07 -5.27223e-07 0)
(-2.52473e-07 -5.2776e-07 0)
(-2.52644e-07 -5.27925e-07 0)
(-2.52734e-07 -5.27979e-07 0)
(-2.52851e-07 -5.28096e-07 0)
(-2.53327e-07 -5.28766e-07 0)
(-2.53771e-07 -5.29099e-07 0)
(-2.54226e-07 -5.29327e-07 0)
(-2.55109e-07 -5.29535e-07 0)
(-2.59803e-07 -5.29749e-07 0)
(-0.0362612 9.32148e-05 0)
(-0.149918 0.00148046 0)
(-0.25481 0.00214037 0)
(-0.338023 0.00252515 0)
(-0.405747 0.00287338 0)
(-0.461989 0.00321242 0)
(-0.509247 0.00354216 0)
(-0.549176 0.00385222 0)
(-0.582924 0.00412266 0)
(-0.611321 0.00432258 0)
(-0.63501 0.00440674 0)
(-0.654544 0.00430689 0)
(-0.670462 0.00392824 0)
(-0.683321 0.00318164 0)
(-0.693681 0.00206027 0)
(-0.702055 0.000677353 0)
(-0.70886 -0.000802456 0)
(-0.714413 -0.00225304 0)
(-0.718948 -0.00361057 0)
(-0.722647 -0.0048519 0)
(-0.72565 -0.00597333 0)
(-0.728066 -0.00697961 0)
(-0.729986 -0.00787876 0)
(-0.731481 -0.0086797 0)
(-0.732611 -0.00939117 0)
(-0.733423 -0.0100213 0)
(-0.73396 -0.0105776 0)
(-0.734256 -0.0110668 0)
(-0.73434 -0.0114949 0)
(-0.734238 -0.0118672 0)
(-0.733973 -0.0121888 0)
(-0.733562 -0.0124639 0)
(-0.733023 -0.0126967 0)
(-0.732371 -0.0128906 0)
(-0.731618 -0.0130491 0)
(-0.730777 -0.013175 0)
(-0.729859 -0.0132712 0)
(-0.728872 -0.0133401 0)
(-0.727826 -0.0133842 0)
(-0.726728 -0.0134056 0)
(-0.725586 -0.0134064 0)
(-0.724407 -0.0133884 0)
(-0.723197 -0.0133535 0)
(-0.721961 -0.0133033 0)
(-0.720706 -0.0132393 0)
(-0.719437 -0.0131632 0)
(-0.718157 -0.0130763 0)
(-0.716873 -0.01298 0)
(-0.715589 -0.0128754 0)
(-0.714307 -0.0127637 0)
(-0.713034 -0.0126461 0)
(-0.711772 -0.0125233 0)
(-0.710525 -0.0123965 0)
(-0.709284 -0.0122649 0)
(-0.708038 -0.0121278 0)
(-0.706789 -0.0119857 0)
(-0.705539 -0.011839 0)
(-0.70429 -0.0116881 0)
(-0.703044 -0.0115334 0)
(-0.701803 -0.0113751 0)
(-0.700569 -0.0112135 0)
(-0.699344 -0.011049 0)
(-0.69813 -0.0108815 0)
(-0.69693 -0.0107114 0)
(-0.695745 -0.0105386 0)
(-0.694579 -0.0103632 0)
(-0.693431 -0.0101852 0)
(-0.692305 -0.0100045 0)
(-0.691201 -0.00982107 0)
(-0.690122 -0.00963482 0)
(-0.689068 -0.00944581 0)
(-0.68804 -0.00925418 0)
(-0.687041 -0.00906014 0)
(-0.68607 -0.00886401 0)
(-0.68513 -0.00866618 0)
(-0.684221 -0.00846707 0)
(-0.683344 -0.0082671 0)
(-0.6825 -0.00806673 0)
(-0.681692 -0.00786636 0)
(-0.680919 -0.00766637 0)
(-0.680184 -0.00746707 0)
(-0.679489 -0.00726864 0)
(-0.678838 -0.00707104 0)
(-0.678236 -0.00687437 0)
(-0.677689 -0.0066776 0)
(-0.677207 -0.00648265 0)
(-0.676801 -0.00629465 0)
(-0.676476 -0.00615705 0)
(-0.676098 -0.00606344 0)
(-0.6205 -0.00513055 0)
(-0.617159 -0.00484494 0)
(-0.613737 -0.00426087 0)
(-0.610346 -0.00371745 0)
(-0.606992 -0.00315506 0)
(-0.603693 -0.00268109 0)
(-0.600445 -0.00183391 0)
(-0.59731 -0.00201188 0)
(-0.594227 -0.000140013 0)
(-0.59132 -0.00173709 0)
(-0.588509 0.00151929 0)
(-0.585847 -0.00154737 0)
(-0.583461 0.00353093 0)
(-0.581122 -0.00274928 0)
(-0.579255 0.00616323 0)
(-0.57727 -0.0047026 0)
(-0.576779 -0.0352984 0)
(-0.575635 -0.0396304 0)
(-0.574518 -0.0395893 0)
(-0.57377 -0.0395838 0)
(-0.573271 -0.0395764 0)
(-0.573037 -0.0395706 0)
(-0.572996 -0.0395653 0)
(-0.573167 -0.0395605 0)
(-0.573518 -0.0395569 0)
(-0.574026 -0.0395542 0)
(-0.574669 -0.0395521 0)
(-0.575427 -0.0395507 0)
(-0.576278 -0.0395497 0)
(-0.577203 -0.039549 0)
(-0.578184 -0.0395485 0)
(-0.579201 -0.0395482 0)
(-0.580235 -0.0395479 0)
(-0.581268 -0.0395474 0)
(-0.582279 -0.0395468 0)
(-0.583247 -0.0395459 0)
(-0.584145 -0.0395445 0)
(-0.584944 -0.0395424 0)
(-0.585601 -0.0395378 0)
(-0.585927 -0.0395311 0)
(-0.585976 -0.0395275 0)
(-0.585978 -0.0395269 0)
(-0.585978 -0.0395269 0)
(-0.585978 -0.0395269 0)
(-0.585978 -0.0395269 0)
(-0.585978 -0.0395269 0)
(-0.585978 -0.0395269 0)
(-0.585978 -0.0395269 0)
(-0.585978 -0.0395269 0)
(-0.585978 -0.0395269 0)
(-0.585978 -0.0395269 0)
(-0.585978 -0.0395269 0)
(-0.585978 -0.0395269 0)
(-0.585978 -0.0395269 0)
(-0.585978 -0.0395269 0)
(-0.585978 -0.0395269 0)
(-0.585978 -0.0395269 0)
(-0.585978 -0.0395269 0)
(-0.585978 -0.0395269 0)
(-0.585978 -0.0395269 0)
(-0.585978 -0.0395269 0)
(-0.585978 -0.0395269 0)
(-0.585978 -0.0395269 0)
(-0.585978 -0.0395269 0)
(-0.585978 -0.0395269 0)
(-0.585978 -0.0395269 0)
(-0.585978 -0.0395269 0)
(-0.585978 -0.0395269 0)
(-0.585978 -0.0395269 0)
(-0.585978 -0.0395269 0)
(-0.585978 -0.0395269 0)
(-0.585978 -0.0395269 0)
(-0.585978 -0.0395269 0)
(-0.585978 -0.0395269 0)
(-0.585978 -0.0395269 0)
(-0.585978 -0.0395269 0)
(-0.585978 -0.0395269 0)
(-0.585978 -0.0395269 0)
(-0.585978 -0.0395269 0)
(-0.585978 -0.0395269 0)
(-0.585978 -0.0395269 0)
(-0.585978 -0.0395269 0)
(-0.585978 -0.0395269 0)
(-0.585978 -0.0395269 0)
(-0.585978 -0.0395269 0)
(-0.585978 -0.0395269 0)
(-0.585978 -0.0395269 0)
(-0.585978 -0.0395269 0)
(-0.585978 -0.0395269 0)
(-0.585978 -0.0395269 0)
(-0.585978 -0.0395269 0)
(-0.585978 -0.0395269 0)
(-0.585978 -0.0395269 0)
(-0.585978 -0.0395269 0)
(-0.585978 -0.0395269 0)
(-0.585978 -0.0395269 0)
(-0.585978 -0.0395269 0)
(-0.585978 -0.0395269 0)
(-0.585978 -0.0395269 0)
(-0.585978 -0.0395269 0)
(-0.585978 -0.0395269 0)
(-0.585978 -0.0395269 0)
(-0.585978 -0.0395269 0)
(-0.585978 -0.0395269 0)
(-0.585978 -0.0395269 0)
(-0.585978 -0.0395269 0)
(-0.585978 -0.0395269 0)
(-0.585978 -0.0395269 0)
(-0.585978 -0.0395269 0)
(-0.585978 -0.0395269 0)
(-0.585978 -0.0395269 0)
(-0.585978 -0.0395269 0)
(-0.585978 -0.0395269 0)
(-0.585978 -0.0395269 0)
(-0.585978 -0.0395269 0)
(-0.585978 -0.0395269 0)
(-0.585978 -0.0395269 0)
(-0.585978 -0.0395269 0)
(-0.585978 -0.0395269 0)
(-0.585978 -0.0395267 0)
(-0.585977 -0.0395182 0)
(-0.585957 -0.0391731 0)
(-0.585504 -0.022454 0)
)
;

boundaryField
{
    inandouthalf11
    {
        type            cyclic;
    }
    inandouthalf12
    {
        type            cyclic;
    }
    inandouthalf21
    {
        type            cyclic;
    }
    inandouthalf22
    {
        type            cyclic;
    }
    inandouthalf31
    {
        type            cyclic;
    }
    inandouthalf32
    {
        type            cyclic;
    }
    inandouthalf41
    {
        type            cyclic;
    }
    inandouthalf42
    {
        type            cyclic;
    }
    top
    {
        type            symmetryPlane;
    }
    walls
    {
        type            fixedValue;
        value           uniform (0 0 0);
    }
    frontAndBackPlanes
    {
        type            empty;
    }
}


// ************************************************************************* //
