/*--------------------------------*- C++ -*----------------------------------*\
| =========                 |                                                 |
| \\      /  F ield         | OpenFOAM: The Open Source CFD Toolbox           |
|  \\    /   O peration     | Version:  2.4.x                                 |
|   \\  /    A nd           | Web:      www.OpenFOAM.org                      |
|    \\/     M anipulation  |                                                 |
\*---------------------------------------------------------------------------*/
FoamFile
{
    version     2.0;
    format      ascii;
    class       volVectorField;
    location    "11.3";
    object      Ub;
}
// * * * * * * * * * * * * * * * * * * * * * * * * * * * * * * * * * * * * * //

dimensions      [0 1 -1 0 0 0 0];

internalField   nonuniform List<vector> 
360
(
(-0.000145472 2.80543e-09 0)
(-0.000144662 9.93249e-09 0)
(-0.000144555 1.83369e-08 0)
(-0.000144666 2.63853e-08 0)
(-0.00014472 3.45294e-08 0)
(-0.000144738 4.29722e-08 0)
(-0.000144761 5.15942e-08 0)
(-0.00014479 6.02814e-08 0)
(-0.00014482 6.89896e-08 0)
(-0.00014485 7.7699e-08 0)
(-0.000144881 8.63882e-08 0)
(-0.000144911 9.5028e-08 0)
(-0.000144942 1.03588e-07 0)
(-0.000144972 1.12041e-07 0)
(-0.000145003 1.20365e-07 0)
(-0.000145035 1.28542e-07 0)
(-0.000145066 1.36559e-07 0)
(-0.000145098 1.44408e-07 0)
(-0.00014513 1.52081e-07 0)
(-0.000145163 1.59577e-07 0)
(-0.000145195 1.66896e-07 0)
(-0.000145228 1.7404e-07 0)
(-0.000145261 1.81016e-07 0)
(-0.000145294 1.8783e-07 0)
(-0.000145328 1.9449e-07 0)
(-0.000145362 2.01005e-07 0)
(-0.000145396 2.07386e-07 0)
(-0.000145431 2.13643e-07 0)
(-0.000145466 2.19786e-07 0)
(-0.000145501 2.25827e-07 0)
(-0.000145537 2.31774e-07 0)
(-0.000145573 2.3764e-07 0)
(-0.000145609 2.43432e-07 0)
(-0.000145646 2.49161e-07 0)
(-0.000145683 2.54836e-07 0)
(-0.00014572 2.60465e-07 0)
(-0.000145758 2.66055e-07 0)
(-0.000145796 2.71614e-07 0)
(-0.000145835 2.7715e-07 0)
(-0.000145873 2.82666e-07 0)
(-0.000145913 2.88171e-07 0)
(-0.000145953 2.93669e-07 0)
(-0.000145993 2.99164e-07 0)
(-0.000146034 3.04661e-07 0)
(-0.000146076 3.10163e-07 0)
(-0.000146117 3.15674e-07 0)
(-0.00014616 3.21197e-07 0)
(-0.000146202 3.26732e-07 0)
(-0.000146245 3.32283e-07 0)
(-0.00014629 3.37853e-07 0)
(-0.000146333 3.43441e-07 0)
(-0.000146378 3.49049e-07 0)
(-0.000146424 3.54677e-07 0)
(-0.00014647 3.60327e-07 0)
(-0.000146516 3.65998e-07 0)
(-0.000146563 3.71691e-07 0)
(-0.000146611 3.77404e-07 0)
(-0.000146659 3.83139e-07 0)
(-0.000146708 3.88893e-07 0)
(-0.000146757 3.94665e-07 0)
(-0.000146808 4.00456e-07 0)
(-0.000146858 4.06264e-07 0)
(-0.00014691 4.12089e-07 0)
(-0.000146962 4.17929e-07 0)
(-0.000147015 4.23783e-07 0)
(-0.000147068 4.29649e-07 0)
(-0.000147122 4.35525e-07 0)
(-0.000147177 4.4141e-07 0)
(-0.000147233 4.47303e-07 0)
(-0.000147289 4.53198e-07 0)
(-0.000147347 4.59097e-07 0)
(-0.000147405 4.64999e-07 0)
(-0.000147464 4.709e-07 0)
(-0.000147524 4.76799e-07 0)
(-0.000147585 4.82694e-07 0)
(-0.000147646 4.88586e-07 0)
(-0.000147709 4.94469e-07 0)
(-0.000147772 5.00342e-07 0)
(-0.000147837 5.06202e-07 0)
(-0.000147902 5.12048e-07 0)
(-0.000147969 5.17876e-07 0)
(-0.000148036 5.23685e-07 0)
(-0.000148105 5.29473e-07 0)
(-0.000148175 5.35239e-07 0)
(-0.000148246 5.40982e-07 0)
(-0.000148318 5.46699e-07 0)
(-0.000148391 5.52388e-07 0)
(-0.000148466 5.58047e-07 0)
(-0.000148542 5.63673e-07 0)
(-0.000148619 5.69263e-07 0)
(-0.000148698 5.74814e-07 0)
(-0.000148778 5.80325e-07 0)
(-0.000148859 5.85793e-07 0)
(-0.000148942 5.91218e-07 0)
(-0.000149027 5.96596e-07 0)
(-0.000149113 6.01928e-07 0)
(-0.000149202 6.07211e-07 0)
(-0.000149291 6.12442e-07 0)
(-0.000149383 6.17622e-07 0)
(-0.000149477 6.22747e-07 0)
(-0.000149572 6.27816e-07 0)
(-0.00014967 6.3283e-07 0)
(-0.000149769 6.37787e-07 0)
(-0.000149871 6.42689e-07 0)
(-0.000149976 6.47537e-07 0)
(-0.000150082 6.52332e-07 0)
(-0.000150192 6.57077e-07 0)
(-0.000150303 6.61773e-07 0)
(-0.000150418 6.66425e-07 0)
(-0.000150535 6.71034e-07 0)
(-0.000150655 6.75603e-07 0)
(-0.000150779 6.80133e-07 0)
(-0.000150905 6.84625e-07 0)
(-0.000151035 6.89076e-07 0)
(-0.000151169 6.93484e-07 0)
(-0.000151306 6.97844e-07 0)
(-0.000151447 7.02147e-07 0)
(-0.000151592 7.06387e-07 0)
(-0.000151741 7.10554e-07 0)
(-0.000151895 7.14643e-07 0)
(-0.000152054 7.18651e-07 0)
(-0.000152218 7.2258e-07 0)
(-0.000152387 7.26442e-07 0)
(-0.000152562 7.30257e-07 0)
(-0.000152742 7.3406e-07 0)
(-0.000152929 7.37899e-07 0)
(-0.000153123 7.41836e-07 0)
(-0.000153325 7.45953e-07 0)
(-0.000153534 7.50343e-07 0)
(-0.000153753 7.55105e-07 0)
(-0.00015398 7.60325e-07 0)
(-0.000154217 7.66045e-07 0)
(-0.000154465 7.72222e-07 0)
(-0.000154728 7.78676e-07 0)
(-0.000155007 7.8505e-07 0)
(-0.000155305 7.90797e-07 0)
(-0.000155619 7.95293e-07 0)
(-0.000155955 7.98107e-07 0)
(-0.000156326 7.99249e-07 0)
(-0.00015675 7.99172e-07 0)
(-0.000157208 7.9829e-07 0)
(-0.000157749 7.91193e-07 0)
(-0.000161509 7.96188e-07 0)
(-0.000160948 8.02212e-07 0)
(-0.000161639 5.49258e-07 0)
(-0.000162785 1.97831e-06 0)
(-0.000163974 -3.66527e-06 0)
(-0.000264046 1.85522e-05 0)
(-0.0402952 -8.67463e-05 0)
(-0.164407 -0.000676702 0)
(-0.268082 -0.00045642 0)
(-0.349362 -0.000438441 0)
(-0.415957 -0.000376632 0)
(-0.471733 -0.000312139 0)
(-0.519123 -0.000251606 0)
(-0.559774 -0.000197082 0)
(-0.594837 -0.000149672 0)
(-0.625113 -0.000109875 0)
(-0.651149 -7.75385e-05 0)
(-0.673321 -5.20134e-05 0)
(-0.691905 -3.24297e-05 0)
(-0.707154 -1.79871e-05 0)
(-0.719369 -8.01258e-06 0)
(-0.728925 -1.70084e-06 0)
(-0.736253 2.01094e-06 0)
(-0.741791 4.13773e-06 0)
(-0.745929 5.36179e-06 0)
(-0.748993 6.05995e-06 0)
(-0.751236 6.43548e-06 0)
(-0.752847 6.60534e-06 0)
(-0.753967 6.64093e-06 0)
(-0.7547 6.58742e-06 0)
(-0.755123 6.47409e-06 0)
(-0.755291 6.32047e-06 0)
(-0.755249 6.13985e-06 0)
(-0.755029 5.9415e-06 0)
(-0.754656 5.73199e-06 0)
(-0.754152 5.51606e-06 0)
(-0.753532 5.29714e-06 0)
(-0.752808 5.07775e-06 0)
(-0.751992 4.85978e-06 0)
(-0.751093 4.64459e-06 0)
(-0.750118 4.43322e-06 0)
(-0.749074 4.22643e-06 0)
(-0.747967 4.02476e-06 0)
(-0.746801 3.82862e-06 0)
(-0.745581 3.63828e-06 0)
(-0.74431 3.45394e-06 0)
(-0.742993 3.27571e-06 0)
(-0.741633 3.10366e-06 0)
(-0.740232 2.93779e-06 0)
(-0.738794 2.77812e-06 0)
(-0.73732 2.62459e-06 0)
(-0.735814 2.47715e-06 0)
(-0.734277 2.33574e-06 0)
(-0.732712 2.20027e-06 0)
(-0.73112 2.07065e-06 0)
(-0.729504 1.94679e-06 0)
(-0.727864 1.82859e-06 0)
(-0.726203 1.71591e-06 0)
(-0.724522 1.60865e-06 0)
(-0.722806 1.50563e-06 0)
(-0.721036 1.40592e-06 0)
(-0.719213 1.30964e-06 0)
(-0.717335 1.21689e-06 0)
(-0.715402 1.12775e-06 0)
(-0.713414 1.04229e-06 0)
(-0.71137 9.6056e-07 0)
(-0.709269 8.82584e-07 0)
(-0.707112 8.08386e-07 0)
(-0.704897 7.37977e-07 0)
(-0.702625 6.71361e-07 0)
(-0.700295 6.08541e-07 0)
(-0.697907 5.49516e-07 0)
(-0.695461 4.94282e-07 0)
(-0.692957 4.42825e-07 0)
(-0.690395 3.95117e-07 0)
(-0.687776 3.51109e-07 0)
(-0.6851 3.10721e-07 0)
(-0.682368 2.73845e-07 0)
(-0.679579 2.4034e-07 0)
(-0.676735 2.10037e-07 0)
(-0.673837 1.8275e-07 0)
(-0.670886 1.58277e-07 0)
(-0.667883 1.36415e-07 0)
(-0.664829 1.16965e-07 0)
(-0.661728 9.9735e-08 0)
(-0.65858 8.45457e-08 0)
(-0.655388 7.12302e-08 0)
(-0.652155 5.96325e-08 0)
(-0.648884 4.95986e-08 0)
(-0.645578 4.09959e-08 0)
(-0.642241 3.36097e-08 0)
(-0.638877 2.70837e-08 0)
(-0.635492 2.09913e-08 0)
(-0.632091 1.56101e-08 0)
(-0.628681 1.16833e-08 0)
(-0.625267 8.86518e-09 0)
(-0.621859 6.53514e-09 0)
(-0.618465 4.65763e-09 0)
(-0.615095 3.20926e-09 0)
(-0.611759 2.12798e-09 0)
(-0.60847 1.34448e-09 0)
(-0.605242 7.96733e-10 0)
(-0.602088 4.30571e-10 0)
(-0.599027 2.00261e-10 0)
(-0.596074 6.88381e-11 0)
(-0.59325 4.15231e-12 0)
(-0.590576 -2.47015e-11 0)
(-0.588072 -3.10907e-11 0)
(-0.585761 -2.19422e-11 0)
(-0.583663 -1.35051e-11 0)
(-0.581798 7.59668e-12 0)
(-0.580182 1.53164e-11 0)
(-0.578829 1.52181e-12 0)
(-0.577743 1.64427e-12 0)
(-0.576925 2.39599e-12 0)
(-0.576368 2.38827e-12 0)
(-0.576059 2.19024e-12 0)
(-0.575979 2.02856e-12 0)
(-0.576107 1.89003e-12 0)
(-0.576421 1.75445e-12 0)
(-0.576898 1.62252e-12 0)
(-0.577515 1.49893e-12 0)
(-0.578251 1.38554e-12 0)
(-0.579086 1.2744e-12 0)
(-0.579999 1.18937e-12 0)
(-0.580972 1.28158e-12 0)
(-0.581984 1.66475e-12 0)
(-0.583018 -4.45039e-12 0)
(-0.584054 1.78718e-11 0)
(-0.58507 -3.62928e-11 0)
(-0.586047 6.8e-11 0)
(-0.586959 -1.06708e-10 0)
(-0.587774 1.58112e-10 0)
(-0.588454 -2.14835e-10 0)
(-0.588844 2.80051e-10 0)
(-0.588908 -3.4624e-10 0)
(-0.588909 4.16672e-10 0)
(-0.588909 -4.86411e-10 0)
(-0.588909 5.5956e-10 0)
(-0.588909 -6.32372e-10 0)
(-0.588909 7.08402e-10 0)
(-0.588909 -7.84486e-10 0)
(-0.588909 8.6361e-10 0)
(-0.588909 -9.43135e-10 0)
(-0.588909 1.02553e-09 0)
(-0.588909 -1.10862e-09 0)
(-0.588909 1.19443e-09 0)
(-0.588909 -1.28121e-09 0)
(-0.588909 1.37053e-09 0)
(-0.588909 -1.46107e-09 0)
(-0.588909 1.55399e-09 0)
(-0.588909 -1.64833e-09 0)
(-0.588909 1.74489e-09 0)
(-0.588909 -1.84305e-09 0)
(-0.588909 1.94329e-09 0)
(-0.588909 -2.04526e-09 0)
(-0.588909 2.14916e-09 0)
(-0.588909 -2.25487e-09 0)
(-0.588909 2.36241e-09 0)
(-0.588909 -2.4718e-09 0)
(-0.588909 2.58291e-09 0)
(-0.588909 -2.69585e-09 0)
(-0.588909 2.81042e-09 0)
(-0.588909 -2.92679e-09 0)
(-0.588909 3.04464e-09 0)
(-0.588909 -3.16423e-09 0)
(-0.588909 3.28516e-09 0)
(-0.588909 -3.40771e-09 0)
(-0.588909 3.10154e-09 0)
(-0.588909 -3.15512e-09 0)
(-0.588909 3.20789e-09 0)
(-0.588909 -3.26019e-09 0)
(-0.588909 3.31166e-09 0)
(-0.588909 -3.36269e-09 0)
(-0.588909 3.41285e-09 0)
(-0.588909 -3.46257e-09 0)
(-0.588909 3.51142e-09 0)
(-0.588909 -3.55982e-09 0)
(-0.588909 3.60734e-09 0)
(-0.588909 -3.65439e-09 0)
(-0.588909 3.70055e-09 0)
(-0.588909 -3.74623e-09 0)
(-0.588909 3.79102e-09 0)
(-0.588909 -3.83531e-09 0)
(-0.588909 3.87869e-09 0)
(-0.588909 -3.92159e-09 0)
(-0.588909 3.96349e-09 0)
(-0.588909 -4.00503e-09 0)
(-0.588909 4.04534e-09 0)
(-0.588909 -4.08556e-09 0)
(-0.588909 4.12422e-09 0)
(-0.588909 -4.16309e-09 0)
(-0.588909 4.20006e-09 0)
(-0.588909 -4.23749e-09 0)
(-0.588909 4.27275e-09 0)
(-0.588909 -4.30869e-09 0)
(-0.588909 4.34217e-09 0)
(-0.588909 -4.37652e-09 0)
(-0.588909 4.40823e-09 0)
(-0.588909 -4.44083e-09 0)
(-0.588909 4.47077e-09 0)
(-0.588909 -4.5014e-09 0)
(-0.588909 4.52958e-09 0)
(-0.588909 -4.55814e-09 0)
(-0.588909 4.58438e-09 0)
(-0.588909 -4.61067e-09 0)
(-0.588909 4.63505e-09 0)
(-0.588909 -4.65862e-09 0)
(-0.588909 4.6812e-09 0)
(-0.588909 -4.70152e-09 0)
(-0.588909 4.72242e-09 0)
(-0.588909 -4.73877e-09 0)
(-0.588909 4.75798e-09 0)
(-0.588909 -4.76966e-09 0)
(-0.588909 4.78661e-09 0)
(-0.588909 -4.79246e-09 0)
(-0.588909 4.8051e-09 0)
(-0.588909 -4.80525e-09 0)
)
;

boundaryField
{
    inandouthalf11
    {
        type            cyclic;
    }
    inandouthalf12
    {
        type            cyclic;
    }
    inandouthalf21
    {
        type            cyclic;
    }
    inandouthalf22
    {
        type            cyclic;
    }
    inandouthalf31
    {
        type            cyclic;
    }
    inandouthalf32
    {
        type            cyclic;
    }
    inandouthalf41
    {
        type            cyclic;
    }
    inandouthalf42
    {
        type            cyclic;
    }
    top
    {
        type            symmetryPlane;
    }
    walls
    {
        type            fixedValue;
        value           uniform (0 0 0);
    }
    frontAndBackPlanes
    {
        type            empty;
    }
}


// ************************************************************************* //
