/*--------------------------------*- C++ -*----------------------------------*\
| =========                 |                                                 |
| \\      /  F ield         | OpenFOAM: The Open Source CFD Toolbox           |
|  \\    /   O peration     | Version:  2.4.x                                 |
|   \\  /    A nd           | Web:      www.OpenFOAM.org                      |
|    \\/     M anipulation  |                                                 |
\*---------------------------------------------------------------------------*/
FoamFile
{
    version     2.0;
    format      ascii;
    class       volScalarField;
    location    "4.1";
    object      alpha_0;
}
// * * * * * * * * * * * * * * * * * * * * * * * * * * * * * * * * * * * * * //

dimensions      [0 0 0 0 0 0 0];

internalField   nonuniform List<scalar> 
360
(
0.610372
0.6109
0.611055
0.611018
0.610968
0.610936
0.610907
0.61088
0.610854
0.610827
0.610799
0.61077
0.61074
0.61071
0.610681
0.61065
0.61062
0.610589
0.610558
0.610528
0.610498
0.610468
0.610438
0.610409
0.610378
0.610346
0.610311
0.610271
0.610224
0.610172
0.610117
0.610066
0.610028
0.610004
0.609991
0.609984
0.609978
0.609973
0.609966
0.609961
0.609954
0.609947
0.60994
0.609931
0.609922
0.609912
0.609902
0.609891
0.609879
0.609866
0.609852
0.609837
0.609821
0.609804
0.609787
0.609767
0.609747
0.609725
0.609702
0.609679
0.609653
0.609627
0.6096
0.609573
0.609544
0.609515
0.609485
0.609454
0.609422
0.60939
0.609355
0.609319
0.609282
0.609244
0.609205
0.609164
0.609124
0.609082
0.609039
0.608996
0.608951
0.608905
0.608858
0.60881
0.60876
0.608709
0.608657
0.608604
0.60855
0.608495
0.608438
0.608381
0.608322
0.608261
0.608199
0.608136
0.608071
0.608005
0.607937
0.607868
0.607797
0.607724
0.60765
0.607573
0.607495
0.607415
0.607333
0.607249
0.607162
0.607073
0.606982
0.606888
0.606792
0.606693
0.606591
0.606486
0.606379
0.606267
0.606153
0.606035
0.605913
0.605787
0.605657
0.605523
0.605384
0.605241
0.605093
0.604939
0.604779
0.604612
0.604439
0.604259
0.604071
0.603873
0.603663
0.603441
0.603207
0.60296
0.602686
0.602372
0.602031
0.601707
0.601322
0.600823
0.600212
0.599185
0.596615
0.584178
0.339187
0.23637
0.190721
0.156905
0.128544
0.104058
0.083071
0.0654305
0.0509253
0.0392377
0.0299794
0.0227429
0.0171454
0.0128512
0.00957962
0.00710188
0.00523426
0.0038296
0.00277386
0.00198705
0.00141728
0.00102221
0.000757048
0.000579557
0.000457947
0.000371671
0.000308233
0.000260039
0.000222358
0.000192151
0.000167386
0.000146651
0.00012893
0.00011347
9.96954e-05
8.7161e-05
7.55341e-05
6.46096e-05
5.43693e-05
4.50445e-05
3.70626e-05
3.0761e-05
2.60339e-05
2.23467e-05
1.91903e-05
1.64273e-05
1.41305e-05
1.22566e-05
1.06536e-05
9.25286e-06
8.06486e-06
7.0756e-06
6.23251e-06
5.46248e-06
4.75394e-06
4.1678e-06
3.69677e-06
3.23974e-06
2.78119e-06
2.41895e-06
2.15129e-06
1.86313e-06
1.58678e-06
1.39064e-06
1.21187e-06
1.02905e-06
8.93051e-07
7.78016e-07
6.50781e-07
5.51777e-07
4.85618e-07
4.07512e-07
3.33219e-07
2.87605e-07
2.39863e-07
1.96772e-07
1.66647e-07
1.33686e-07
1.08908e-07
9.19711e-08
7.03279e-08
5.55895e-08
4.49944e-08
3.5574e-08
3.19676e-08
2.93467e-08
2.5039e-08
1.72161e-08
5.41304e-09
2.49293e-13
2.91845e-16
2.31072e-16
1.91016e-16
1.77875e-16
1.6916e-16
1.56251e-16
1.3438e-16
1.02199e-16
6.48608e-17
4.44615e-17
3.69279e-17
3.33963e-17
3.11783e-17
2.82061e-17
2.30573e-17
1.5513e-17
7.75219e-18
4.49579e-18
3.19467e-18
2.54727e-18
2.0482e-18
1.31482e-18
4.77234e-19
1.72158e-19
7.54671e-20
3.8083e-20
2.10282e-20
1.25016e-20
7.96486e-21
5.09196e-21
2.90754e-21
1.39069e-21
7.10362e-22
3.85034e-22
2.16982e-22
1.16748e-22
5.59538e-23
2.77956e-23
1.37729e-23
6.694e-24
3.18114e-24
1.47629e-24
6.68289e-25
2.9475e-25
1.26505e-25
5.27665e-26
2.13603e-26
8.37935e-27
3.18036e-27
1.1659e-27
4.1205e-28
1.40107e-28
4.57325e-29
1.42947e-29
4.26704e-30
1.21272e-30
3.27038e-31
8.33607e-32
1.99959e-32
4.4909e-33
9.38803e-34
1.81398e-34
3.21274e-35
5.16249e-36
7.4307e-37
9.4239e-38
1.03013e-38
9.4087e-40
6.85021e-41
3.66935e-42
1.22118e-43
1.32769e-45
2.31507e-48
3.71861e-50
2.96367e-52
4.50426e-63
3.47397e-74
2.06259e-85
8.85482e-97
3.43758e-108
1.10273e-119
4.40381e-131
3.3149e-139
8.05914e-150
1.14155e-157
2.61788e-168
3.92711e-176
1.12677e-186
1.35066e-194
5.09394e-205
4.64901e-213
3.48366e-223
1.61487e-231
2.32957e-241
5.69031e-250
1.17609e-259
2.03339e-268
5.57134e-278
7.36609e-287
2.45661e-296
2.70915e-305
1.05262e-314
3.00886e-321
7.09478e-321
6.08689e-321
8.5424e-321
0
0
0
0
0
0
0
0
0
0
0
0
0
0
0
0
)
;

boundaryField
{
    inandouthalf11
    {
        type            cyclic;
    }
    inandouthalf12
    {
        type            cyclic;
    }
    inandouthalf21
    {
        type            cyclic;
    }
    inandouthalf22
    {
        type            cyclic;
    }
    inandouthalf31
    {
        type            cyclic;
    }
    inandouthalf32
    {
        type            cyclic;
    }
    inandouthalf41
    {
        type            cyclic;
    }
    inandouthalf42
    {
        type            cyclic;
    }
    top
    {
        type            symmetryPlane;
    }
    walls
    {
        type            zeroGradient;
    }
    frontAndBackPlanes
    {
        type            empty;
    }
}


// ************************************************************************* //
