/*--------------------------------*- C++ -*----------------------------------*\
| =========                 |                                                 |
| \\      /  F ield         | OpenFOAM: The Open Source CFD Toolbox           |
|  \\    /   O peration     | Version:  2.4.x                                 |
|   \\  /    A nd           | Web:      www.OpenFOAM.org                      |
|    \\/     M anipulation  |                                                 |
\*---------------------------------------------------------------------------*/
FoamFile
{
    version     2.0;
    format      ascii;
    class       volVectorField;
    location    "4.1";
    object      ddt0(Ua);
}
// * * * * * * * * * * * * * * * * * * * * * * * * * * * * * * * * * * * * * //

dimensions      [0 1 -2 0 0 0 0];

internalField   nonuniform List<vector> 
360
(
(1.12803e-33 -1.08605e-32 0)
(4.27965e-08 1.57226e-07 0)
(1.0904e-07 3.81988e-07 0)
(1.69563e-07 5.71688e-07 0)
(2.23455e-07 7.37363e-07 0)
(2.75027e-07 8.96501e-07 0)
(3.26986e-07 1.05946e-06 0)
(3.80135e-07 1.22931e-06 0)
(4.33969e-07 1.4036e-06 0)
(4.87737e-07 1.57908e-06 0)
(5.41172e-07 1.75492e-06 0)
(5.94398e-07 1.93195e-06 0)
(6.47457e-07 2.11066e-06 0)
(6.99877e-07 2.28942e-06 0)
(7.50485e-07 2.46375e-06 0)
(7.97497e-07 2.62673e-06 0)
(8.38785e-07 2.7701e-06 0)
(8.72341e-07 2.88593e-06 0)
(8.96957e-07 2.96926e-06 0)
(9.13046e-07 3.02134e-06 0)
(9.23349e-07 3.05239e-06 0)
(9.33328e-07 3.08317e-06 0)
(9.51105e-07 3.14484e-06 0)
(9.87154e-07 3.27768e-06 0)
(1.05406e-06 3.53045e-06 0)
(1.16617e-06 3.95997e-06 0)
(1.33762e-06 4.62566e-06 0)
(1.57386e-06 5.56127e-06 0)
(1.84776e-06 6.68587e-06 0)
(2.05886e-06 7.63382e-06 0)
(2.02535e-06 7.68053e-06 0)
(1.61769e-06 6.23817e-06 0)
(9.7169e-07 3.78195e-06 0)
(4.12443e-07 1.6236e-06 0)
(1.08568e-07 4.60439e-07 0)
(-5.2498e-09 3.34103e-08 0)
(-3.86467e-08 -8.88702e-08 0)
(-4.75648e-08 -1.20741e-07 0)
(-4.99542e-08 -1.29131e-07 0)
(-5.05343e-08 -1.312e-07 0)
(-5.05051e-08 -1.31235e-07 0)
(-5.01739e-08 -1.30345e-07 0)
(-4.96135e-08 -1.2882e-07 0)
(-4.88458e-08 -1.26773e-07 0)
(-4.79056e-08 -1.24337e-07 0)
(-4.68556e-08 -1.21704e-07 0)
(-4.57705e-08 -1.19078e-07 0)
(-4.47107e-08 -1.16607e-07 0)
(-4.37056e-08 -1.1435e-07 0)
(-4.27537e-08 -1.12286e-07 0)
(-4.18358e-08 -1.10356e-07 0)
(-4.09253e-08 -1.08489e-07 0)
(-3.99964e-08 -1.06622e-07 0)
(-3.90274e-08 -1.04708e-07 0)
(-3.80016e-08 -1.02711e-07 0)
(-3.69072e-08 -1.00612e-07 0)
(-3.57365e-08 -9.83983e-08 0)
(-3.44856e-08 -9.60668e-08 0)
(-3.31538e-08 -9.36198e-08 0)
(-3.17432e-08 -9.10659e-08 0)
(-3.02577e-08 -8.84151e-08 0)
(-2.87033e-08 -8.56804e-08 0)
(-2.70878e-08 -8.2878e-08 0)
(-2.54197e-08 -8.00244e-08 0)
(-2.37074e-08 -7.71349e-08 0)
(-2.19563e-08 -7.42197e-08 0)
(-2.01682e-08 -7.12813e-08 0)
(-1.83402e-08 -6.83146e-08 0)
(-1.64658e-08 -6.53084e-08 0)
(-1.45349e-08 -6.22471e-08 0)
(-1.25348e-08 -5.91096e-08 0)
(-1.04516e-08 -5.58739e-08 0)
(-8.27422e-09 -5.25243e-08 0)
(-5.99396e-09 -4.9049e-08 0)
(-3.60541e-09 -4.54411e-08 0)
(-1.10764e-09 -4.1701e-08 0)
(1.49571e-09 -3.78368e-08 0)
(4.19809e-09 -3.38609e-08 0)
(6.99294e-09 -2.97847e-08 0)
(9.8752e-09 -2.56169e-08 0)
(1.28421e-08 -2.1363e-08 0)
(1.58941e-08 -1.70233e-08 0)
(1.90346e-08 -1.25933e-08 0)
(2.22688e-08 -8.06648e-09 0)
(2.56021e-08 -3.4363e-09 0)
(2.90385e-08 1.30178e-09 0)
(3.258e-08 6.14904e-09 0)
(3.62258e-08 1.11027e-08 0)
(3.99725e-08 1.61561e-08 0)
(4.38154e-08 2.13012e-08 0)
(4.77491e-08 2.65293e-08 0)
(5.17689e-08 3.18324e-08 0)
(5.5871e-08 3.72047e-08 0)
(6.00532e-08 4.26421e-08 0)
(6.43142e-08 4.8142e-08 0)
(6.86533e-08 5.37026e-08 0)
(7.30701e-08 5.93221e-08 0)
(7.75635e-08 6.49982e-08 0)
(8.21323e-08 7.07277e-08 0)
(8.67743e-08 7.65067e-08 0)
(9.14871e-08 8.23308e-08 0)
(9.62679e-08 8.81949e-08 0)
(1.01114e-07 9.40936e-08 0)
(1.06021e-07 1.00022e-07 0)
(1.10986e-07 1.05973e-07 0)
(1.16005e-07 1.11941e-07 0)
(1.21075e-07 1.17921e-07 0)
(1.26191e-07 1.23906e-07 0)
(1.3135e-07 1.29889e-07 0)
(1.36549e-07 1.35865e-07 0)
(1.41784e-07 1.41829e-07 0)
(1.47054e-07 1.47778e-07 0)
(1.52359e-07 1.53707e-07 0)
(1.57698e-07 1.59615e-07 0)
(1.63075e-07 1.65503e-07 0)
(1.68494e-07 1.71373e-07 0)
(1.73962e-07 1.77228e-07 0)
(1.79489e-07 1.83075e-07 0)
(1.85086e-07 1.88922e-07 0)
(1.90769e-07 1.94776e-07 0)
(1.96551e-07 2.00648e-07 0)
(2.02448e-07 2.06544e-07 0)
(2.08476e-07 2.1247e-07 0)
(2.14644e-07 2.18425e-07 0)
(2.20957e-07 2.24401e-07 0)
(2.2741e-07 2.30381e-07 0)
(2.3399e-07 2.36336e-07 0)
(2.4067e-07 2.42228e-07 0)
(2.47411e-07 2.48008e-07 0)
(2.54158e-07 2.53618e-07 0)
(2.60844e-07 2.5899e-07 0)
(2.67397e-07 2.64058e-07 0)
(2.7375e-07 2.68766e-07 0)
(2.79864e-07 2.73084e-07 0)
(2.85722e-07 2.77013e-07 0)
(2.91329e-07 2.8056e-07 0)
(2.96688e-07 2.83733e-07 0)
(3.01817e-07 2.86539e-07 0)
(3.0674e-07 2.89005e-07 0)
(3.11424e-07 2.91153e-07 0)
(3.15641e-07 2.92913e-07 0)
(3.18977e-07 2.94105e-07 0)
(3.21191e-07 2.94726e-07 0)
(3.2242e-07 2.94973e-07 0)
(3.2301e-07 2.95029e-07 0)
(3.23334e-07 2.95016e-07 0)
(3.23573e-07 2.9509e-07 0)
(2.38541e-07 3.03271e-07 0)
(-0.145827 0.00459521 0)
(-0.126236 0.00162188 0)
(-0.0947393 0.00125199 0)
(-0.0717582 0.000510617 0)
(-0.0553805 -0.000123397 0)
(-0.0437502 -0.000710634 0)
(-0.0357338 -0.00126362 0)
(-0.0306478 -0.0017976 0)
(-0.0281027 -0.00231908 0)
(-0.0279243 -0.00282441 0)
(-0.0300885 -0.00329979 0)
(-0.0346683 -0.00372017 0)
(-0.0417734 -0.00404933 0)
(-0.05148 -0.00424347 0)
(-0.0637623 -0.00425303 0)
(-0.0784294 -0.00400331 0)
(-0.0950765 -0.00332144 0)
(-0.113047 -0.00186073 0)
(-0.131426 0.000740856 0)
(-0.149136 0.00435881 0)
(-0.165249 0.00813872 0)
(-0.179333 0.0111011 0)
(-0.191477 0.0128506 0)
(-0.202013 0.0135671 0)
(-0.211276 0.0136162 0)
(-0.219517 0.0132993 0)
(-0.226917 0.0128062 0)
(-0.233604 0.0122434 0)
(-0.239675 0.0116678 0)
(-0.245205 0.0111082 0)
(-0.250254 0.010579 0)
(-0.254872 0.0100879 0)
(-0.259098 0.00964047 0)
(-0.262965 0.00924235 0)
(-0.266502 0.00890091 0)
(-0.269732 0.00862516 0)
(-0.272678 0.00842541 0)
(-0.275364 0.00830917 0)
(-0.277812 0.00828156 0)
(-0.280088 0.00828617 0)
(-0.282186 0.00836655 0)
(-0.284136 0.00845269 0)
(-0.285956 0.008527 0)
(-0.287661 0.00859091 0)
(-0.289264 0.00865705 0)
(-0.290783 0.00872945 0)
(-0.292225 0.0088023 0)
(-0.293598 0.00887158 0)
(-0.294907 0.00893986 0)
(-0.296161 0.00900919 0)
(-0.297364 0.00907733 0)
(-0.298515 0.00914178 0)
(-0.299617 0.00920363 0)
(-0.300687 0.00926685 0)
(-0.301741 0.00933173 0)
(-0.302778 0.00939188 0)
(-0.303789 0.00944473 0)
(-0.304785 0.00949732 0)
(-0.305783 0.00955172 0)
(-0.306777 0.00959604 0)
(-0.307752 0.00962491 0)
(-0.308725 0.00964663 0)
(-0.309716 0.00965657 0)
(-0.310711 0.00963998 0)
(-0.311711 0.00959657 0)
(-0.312744 0.00953683 0)
(-0.313804 0.00946903 0)
(-0.31488 0.00940441 0)
(-0.316001 0.00935509 0)
(-0.317169 0.00931589 0)
(-0.318346 0.00927652 0)
(-0.319553 0.00924956 0)
(-0.320833 0.00924209 0)
(-0.322149 0.0092404 0)
(-0.323494 0.00924806 0)
(-0.324903 0.00927418 0)
(-0.326353 0.00931206 0)
(-0.327862 0.00936842 0)
(-0.329448 0.00944575 0)
(-0.331058 0.0095352 0)
(-0.332742 0.00965035 0)
(-0.334538 0.00979591 0)
(-0.33638 0.00995996 0)
(-0.338248 0.0101462 0)
(-0.340039 0.0103515 0)
(-0.341592 0.0105697 0)
(-0.342854 0.0108055 0)
(-0.343824 0.0110503 0)
(-0.345014 0.0114265 0)
(-0.424526 0.0165403 0)
(-0.415005 -0.000350332 0)
(-0.414061 -6.07944e-05 0)
(-0.414047 -3.29248e-05 0)
(-0.414048 -3.43553e-05 0)
(-0.414048 -3.42579e-05 0)
(-0.414048 -3.4258e-05 0)
(-0.414048 -3.4257e-05 0)
(-0.414048 -3.4253e-05 0)
(-0.414048 -3.42533e-05 0)
(-0.414048 -3.42498e-05 0)
(-0.414047 -3.42508e-05 0)
(-0.414047 -3.42476e-05 0)
(-0.414047 -3.42491e-05 0)
(-0.414047 -3.42462e-05 0)
(-0.414047 -3.42481e-05 0)
(-0.414047 -3.42452e-05 0)
(-0.414047 -3.42474e-05 0)
(-0.414047 -3.42445e-05 0)
(-0.414047 -3.4247e-05 0)
(-0.414047 -3.4244e-05 0)
(-0.414047 -3.42468e-05 0)
(-0.414047 -3.42437e-05 0)
(-0.414047 -3.42467e-05 0)
(-0.414047 -3.42435e-05 0)
(-0.414047 -3.42466e-05 0)
(-0.414047 -3.42433e-05 0)
(-0.414047 -3.42467e-05 0)
(-0.414047 -3.42432e-05 0)
(-0.414047 -3.42467e-05 0)
(-0.414047 -3.42432e-05 0)
(-0.414047 -3.42464e-05 0)
(-0.414047 -3.42436e-05 0)
(-0.414047 -3.42463e-05 0)
(-0.414047 -3.42431e-05 0)
(-0.414047 -3.42467e-05 0)
(-0.414047 -3.4243e-05 0)
(-0.414047 -3.42468e-05 0)
(-0.414047 -3.42429e-05 0)
(-0.414047 -3.42469e-05 0)
(-0.414047 -3.42428e-05 0)
(-0.414047 -3.4247e-05 0)
(-0.414047 -3.42427e-05 0)
(-0.414047 -3.42471e-05 0)
(-0.414047 -3.42426e-05 0)
(-0.414047 -3.42472e-05 0)
(-0.414047 -3.42425e-05 0)
(-0.414047 -3.42474e-05 0)
(-0.414047 -3.42423e-05 0)
(-0.414047 -3.42475e-05 0)
(-0.414047 -3.42422e-05 0)
(-0.414047 -3.42476e-05 0)
(-0.414047 -3.42421e-05 0)
(-0.414047 -3.42478e-05 0)
(-0.414047 -3.42419e-05 0)
(-0.414047 -3.42479e-05 0)
(-0.414047 -3.42418e-05 0)
(-0.414047 -3.42481e-05 0)
(-0.414047 -3.42416e-05 0)
(-0.414047 -3.42482e-05 0)
(-0.414047 -3.42415e-05 0)
(-0.414047 -3.42484e-05 0)
(-0.414047 -3.42413e-05 0)
(-0.414047 -3.42486e-05 0)
(-0.414047 -3.42412e-05 0)
(-0.414047 -3.42487e-05 0)
(-0.414047 -3.4241e-05 0)
(-0.414047 -3.42489e-05 0)
(-0.414047 -3.42408e-05 0)
(-0.414047 -3.42491e-05 0)
(-0.414047 -3.42406e-05 0)
(-0.414047 -3.42492e-05 0)
(-0.414047 -3.42404e-05 0)
(-0.414047 -3.42488e-05 0)
(-0.414047 -3.42409e-05 0)
(-0.414047 -3.42487e-05 0)
(-0.414047 -3.42408e-05 0)
(-0.414047 -3.42487e-05 0)
(-0.414047 -3.42408e-05 0)
(-0.414047 -3.42486e-05 0)
(-0.414047 -3.42407e-05 0)
(-0.414047 -3.42485e-05 0)
(-0.414047 -3.42407e-05 0)
(-0.414047 -3.42484e-05 0)
(-0.414047 -3.42406e-05 0)
(-0.414047 -3.42482e-05 0)
(-0.414047 -3.42404e-05 0)
(-0.414047 -3.4248e-05 0)
(-0.414047 -3.42402e-05 0)
(-0.414047 -3.42476e-05 0)
(-0.414047 -3.42399e-05 0)
(-0.414047 -3.42469e-05 0)
(-0.414047 -3.42388e-05 0)
(-0.414047 -3.42454e-05 0)
(-0.414047 -3.42372e-05 0)
(-0.414047 -3.42437e-05 0)
(-0.414047 -3.42356e-05 0)
(-0.414047 -3.42419e-05 0)
(-0.414047 -3.42339e-05 0)
(-0.414047 -3.424e-05 0)
(-0.414047 -3.42321e-05 0)
(-0.414047 -3.4238e-05 0)
(-0.414047 -3.42304e-05 0)
(-0.414047 -3.42363e-05 0)
(-0.414047 -3.42289e-05 0)
(-0.414047 -3.42348e-05 0)
(-0.414047 -3.42279e-05 0)
(-0.414047 -3.42332e-05 0)
(-0.414047 -3.42257e-05 0)
(-0.414047 -3.42309e-05 0)
(-0.414047 -3.42247e-05 0)
(-0.414047 -3.42298e-05 0)
(-0.414047 -3.42247e-05 0)
(-0.414047 -3.42307e-05 0)
(-0.414047 -3.42269e-05 0)
(-0.414047 -3.42334e-05 0)
(-0.414047 -3.42301e-05 0)
(-0.414047 -3.42374e-05 0)
(-0.414047 -3.42349e-05 0)
(-0.414047 -3.42459e-05 0)
(-0.414048 -3.4281e-05 0)
(-0.414072 -3.51097e-05 0)
(-0.414626 -6.85271e-05 0)
)
;

boundaryField
{
    inandouthalf11
    {
        type            cyclic;
    }
    inandouthalf12
    {
        type            cyclic;
    }
    inandouthalf21
    {
        type            cyclic;
    }
    inandouthalf22
    {
        type            cyclic;
    }
    inandouthalf31
    {
        type            cyclic;
    }
    inandouthalf32
    {
        type            cyclic;
    }
    inandouthalf41
    {
        type            cyclic;
    }
    inandouthalf42
    {
        type            cyclic;
    }
    top
    {
        type            symmetryPlane;
    }
    walls
    {
        type            calculated;
        value           uniform (0 0 0);
    }
    frontAndBackPlanes
    {
        type            empty;
    }
}


// ************************************************************************* //
