/*--------------------------------*- C++ -*----------------------------------*\
| =========                 |                                                 |
| \\      /  F ield         | OpenFOAM: The Open Source CFD Toolbox           |
|  \\    /   O peration     | Version:  2.4.x                                 |
|   \\  /    A nd           | Web:      www.OpenFOAM.org                      |
|    \\/     M anipulation  |                                                 |
\*---------------------------------------------------------------------------*/
FoamFile
{
    version     2.0;
    format      ascii;
    class       surfaceScalarField;
    location    "4.1";
    object      ddt0(phia);
}
// * * * * * * * * * * * * * * * * * * * * * * * * * * * * * * * * * * * * * //

dimensions      [0 3 -2 0 0 0 0];

internalField   nonuniform List<scalar> 
359
(
3.15794e-13
1.08788e-12
1.89972e-12
2.6152e-12
3.26739e-12
3.91165e-12
4.57744e-12
5.26622e-12
5.96559e-12
6.66797e-12
7.3737e-12
8.08508e-12
8.80013e-12
9.50632e-12
1.01809e-11
1.07936e-11
1.1312e-11
1.17104e-11
1.19812e-11
1.21477e-11
1.22714e-11
1.24564e-11
1.28455e-11
1.36169e-11
1.49818e-11
1.71725e-11
2.03732e-11
2.44887e-11
2.86273e-11
3.06242e-11
2.78554e-11
2.00528e-11
1.08081e-11
4.16123e-12
9.86149e-13
-1.11174e-13
-4.19234e-13
-4.99741e-13
-5.20663e-13
-5.2487e-13
-5.2316e-13
-5.18328e-13
-5.11187e-13
-5.0222e-13
-4.92082e-13
-4.81564e-13
-4.71368e-13
-4.61914e-13
-4.53274e-13
-4.45283e-13
-4.37691e-13
-4.30222e-13
-4.22661e-13
-4.14837e-13
-4.06649e-13
-3.9802e-13
-3.88931e-13
-3.79373e-13
-3.6937e-13
-3.58964e-13
-3.4819e-13
-3.37118e-13
-3.25804e-13
-3.14319e-13
-3.02709e-13
-2.91002e-13
-2.79192e-13
-2.67246e-13
-2.5511e-13
-2.42714e-13
-2.29968e-13
-2.16795e-13
-2.03148e-13
-1.8898e-13
-1.74285e-13
-1.59075e-13
-1.43395e-13
-1.27291e-13
-1.10804e-13
-9.39593e-14
-7.67727e-14
-5.92334e-14
-4.13195e-14
-2.30058e-14
-4.26899e-15
1.49013e-14
3.45034e-14
5.45176e-14
7.49146e-14
9.5661e-14
1.16724e-13
1.38074e-13
1.59693e-13
1.81568e-13
2.03689e-13
2.26049e-13
2.48641e-13
2.71452e-13
2.94469e-13
3.17675e-13
3.41051e-13
3.64577e-13
3.8823e-13
4.11989e-13
4.35829e-13
4.59725e-13
4.83653e-13
5.07589e-13
5.31508e-13
5.55389e-13
5.79214e-13
6.02969e-13
6.26644e-13
6.50237e-13
6.73753e-13
6.97203e-13
7.20607e-13
7.43994e-13
7.67395e-13
7.90847e-13
8.14383e-13
8.38028e-13
8.6179e-13
8.85652e-13
9.09564e-13
9.33433e-13
9.57127e-13
9.80472e-13
1.00325e-12
1.02521e-12
1.0461e-12
1.06565e-12
1.0837e-12
1.10019e-12
1.11514e-12
1.12859e-12
1.14056e-12
1.1511e-12
1.16029e-12
1.16809e-12
1.1741e-12
1.17767e-12
1.17938e-12
1.18003e-12
1.18014e-12
1.17987e-12
1.20622e-12
1.00584e-08
1.01703e-08
6.52164e-09
3.39034e-09
7.05974e-10
-1.70787e-09
-3.96028e-09
-6.11965e-09
-8.22069e-09
-1.02714e-08
-1.22296e-08
-1.40234e-08
-1.55262e-08
-1.65728e-08
-1.69512e-08
-1.6386e-08
-1.4457e-08
-1.03546e-08
-2.68758e-09
9.59736e-09
2.48945e-08
3.8856e-08
4.82414e-08
5.2948e-08
5.43579e-08
5.37963e-08
5.21816e-08
5.00793e-08
4.78101e-08
4.5545e-08
4.33708e-08
4.13324e-08
3.94569e-08
3.77666e-08
3.62878e-08
3.50529e-08
3.40996e-08
3.34632e-08
3.31723e-08
3.3122e-08
3.33031e-08
3.36513e-08
3.3973e-08
3.4236e-08
3.44874e-08
3.47701e-08
3.50683e-08
3.53501e-08
3.56201e-08
3.58966e-08
3.61747e-08
3.64403e-08
3.66904e-08
3.6936e-08
3.71952e-08
3.74517e-08
3.76734e-08
3.78754e-08
3.80955e-08
3.83042e-08
3.84397e-08
3.85333e-08
3.86122e-08
3.85994e-08
3.84791e-08
3.82655e-08
3.80097e-08
3.77466e-08
3.75084e-08
3.73493e-08
3.71953e-08
3.70399e-08
3.69815e-08
3.6978e-08
3.69669e-08
3.70444e-08
3.71781e-08
3.73502e-08
3.76325e-08
3.79625e-08
3.83605e-08
3.88952e-08
3.95076e-08
4.02134e-08
4.09899e-08
4.18303e-08
4.27289e-08
4.36357e-08
4.52699e-08
5.80192e-08
1.05252e-08
-2.03666e-10
-1.22836e-10
-1.33453e-10
-1.37214e-10
-1.37033e-10
-1.37029e-10
-1.37021e-10
-1.37011e-10
-1.37008e-10
-1.37e-10
-1.36998e-10
-1.36992e-10
-1.36992e-10
-1.36987e-10
-1.36988e-10
-1.36983e-10
-1.36986e-10
-1.36981e-10
-1.36984e-10
-1.36979e-10
-1.36983e-10
-1.36979e-10
-1.36983e-10
-1.36978e-10
-1.36982e-10
-1.36978e-10
-1.36982e-10
-1.36977e-10
-1.36982e-10
-1.36977e-10
-1.36982e-10
-1.36978e-10
-1.36981e-10
-1.36977e-10
-1.36982e-10
-1.36977e-10
-1.36982e-10
-1.36977e-10
-1.36982e-10
-1.36977e-10
-1.36982e-10
-1.36977e-10
-1.36982e-10
-1.36977e-10
-1.36982e-10
-1.36978e-10
-1.36981e-10
-1.36978e-10
-1.36981e-10
-1.36978e-10
-1.36981e-10
-1.36978e-10
-1.36981e-10
-1.36978e-10
-1.36981e-10
-1.36978e-10
-1.36981e-10
-1.36978e-10
-1.36981e-10
-1.36979e-10
-1.3698e-10
-1.36979e-10
-1.3698e-10
-1.36979e-10
-1.3698e-10
-1.36979e-10
-1.3698e-10
-1.3698e-10
-1.36979e-10
-1.3698e-10
-1.36979e-10
-1.3698e-10
-1.36979e-10
-1.3698e-10
-1.36978e-10
-1.3698e-10
-1.36978e-10
-1.3698e-10
-1.36977e-10
-1.3698e-10
-1.36977e-10
-1.3698e-10
-1.36976e-10
-1.36979e-10
-1.36975e-10
-1.36979e-10
-1.36974e-10
-1.36978e-10
-1.36973e-10
-1.36976e-10
-1.36969e-10
-1.36971e-10
-1.36963e-10
-1.36964e-10
-1.36956e-10
-1.36957e-10
-1.36949e-10
-1.3695e-10
-1.36942e-10
-1.36942e-10
-1.36935e-10
-1.36936e-10
-1.36928e-10
-1.36929e-10
-1.36923e-10
-1.36925e-10
-1.36916e-10
-1.36914e-10
-1.3691e-10
-1.3691e-10
-1.36908e-10
-1.36911e-10
-1.36914e-10
-1.36921e-10
-1.36926e-10
-1.36935e-10
-1.36944e-10
-1.36958e-10
-1.37059e-10
-1.38785e-10
-2.1607e-10
)
;

boundaryField
{
    inandouthalf11
    {
        type            cyclic;
        value           nonuniform List<scalar> 
100
(
-1.12803e-39
-4.27965e-14
-1.0904e-13
-1.69563e-13
-2.23455e-13
-2.75027e-13
-3.26986e-13
-3.80135e-13
-4.33969e-13
-4.87737e-13
-5.41172e-13
-5.94398e-13
-6.47457e-13
-6.99877e-13
-7.50485e-13
-7.97497e-13
-8.38785e-13
-8.72341e-13
-8.96957e-13
-9.13046e-13
-9.23349e-13
-9.33328e-13
-9.51105e-13
-9.87154e-13
-1.05406e-12
-1.16617e-12
-1.33762e-12
-1.57386e-12
-1.84776e-12
-2.05886e-12
-2.02535e-12
-1.61769e-12
-9.7169e-13
-4.12443e-13
-1.08568e-13
5.2498e-15
3.86467e-14
4.75648e-14
4.99542e-14
5.05343e-14
5.05051e-14
5.01739e-14
4.96135e-14
4.88458e-14
4.79056e-14
4.68556e-14
4.57705e-14
4.47107e-14
4.37056e-14
4.27537e-14
4.18358e-14
4.09253e-14
3.99964e-14
3.90274e-14
3.80016e-14
3.69072e-14
3.57365e-14
3.44856e-14
3.31538e-14
3.17432e-14
3.02577e-14
2.87033e-14
2.70878e-14
2.54197e-14
2.37074e-14
2.19563e-14
2.01682e-14
1.83402e-14
1.64658e-14
1.45349e-14
1.25348e-14
1.04516e-14
8.27422e-15
5.99396e-15
3.60541e-15
1.10764e-15
-1.49571e-15
-4.19809e-15
-6.99294e-15
-9.8752e-15
-1.28421e-14
-1.58941e-14
-1.90346e-14
-2.22688e-14
-2.56021e-14
-2.90385e-14
-3.258e-14
-3.62258e-14
-3.99725e-14
-4.38154e-14
-4.77491e-14
-5.17689e-14
-5.5871e-14
-6.00532e-14
-6.43142e-14
-6.86533e-14
-7.30701e-14
-7.75635e-14
-8.21323e-14
-8.67743e-14
)
;
    }
    inandouthalf12
    {
        type            cyclic;
        value           nonuniform List<scalar> 
100
(
1.12803e-39
4.27965e-14
1.0904e-13
1.69563e-13
2.23455e-13
2.75027e-13
3.26986e-13
3.80135e-13
4.33969e-13
4.87737e-13
5.41172e-13
5.94398e-13
6.47457e-13
6.99877e-13
7.50485e-13
7.97497e-13
8.38785e-13
8.72341e-13
8.96957e-13
9.13046e-13
9.23349e-13
9.33328e-13
9.51105e-13
9.87154e-13
1.05406e-12
1.16617e-12
1.33762e-12
1.57386e-12
1.84776e-12
2.05886e-12
2.02535e-12
1.61769e-12
9.7169e-13
4.12443e-13
1.08568e-13
-5.2498e-15
-3.86467e-14
-4.75648e-14
-4.99542e-14
-5.05343e-14
-5.05051e-14
-5.01739e-14
-4.96135e-14
-4.88458e-14
-4.79056e-14
-4.68556e-14
-4.57705e-14
-4.47107e-14
-4.37056e-14
-4.27537e-14
-4.18358e-14
-4.09253e-14
-3.99964e-14
-3.90274e-14
-3.80016e-14
-3.69072e-14
-3.57365e-14
-3.44856e-14
-3.31538e-14
-3.17432e-14
-3.02577e-14
-2.87033e-14
-2.70878e-14
-2.54197e-14
-2.37074e-14
-2.19563e-14
-2.01682e-14
-1.83402e-14
-1.64658e-14
-1.45349e-14
-1.25348e-14
-1.04516e-14
-8.27422e-15
-5.99396e-15
-3.60541e-15
-1.10764e-15
1.49571e-15
4.19809e-15
6.99294e-15
9.8752e-15
1.28421e-14
1.58941e-14
1.90346e-14
2.22688e-14
2.56021e-14
2.90385e-14
3.258e-14
3.62258e-14
3.99725e-14
4.38154e-14
4.77491e-14
5.17689e-14
5.5871e-14
6.00532e-14
6.43142e-14
6.86533e-14
7.30701e-14
7.75635e-14
8.21323e-14
8.67743e-14
)
;
    }
    inandouthalf21
    {
        type            cyclic;
        value           nonuniform List<scalar> 
100
(
-9.14871e-14
-9.62679e-14
-1.01114e-13
-1.06021e-13
-1.10986e-13
-1.16005e-13
-1.21075e-13
-1.26191e-13
-1.3135e-13
-1.36549e-13
-1.41784e-13
-1.47054e-13
-1.52359e-13
-1.57698e-13
-1.63075e-13
-1.68494e-13
-1.73962e-13
-1.79489e-13
-1.85086e-13
-1.90769e-13
-1.96551e-13
-2.02448e-13
-2.08476e-13
-2.14644e-13
-2.20957e-13
-2.2741e-13
-2.3399e-13
-2.4067e-13
-2.47411e-13
-2.54158e-13
-2.60844e-13
-2.67397e-13
-2.7375e-13
-2.79864e-13
-2.85722e-13
-2.91329e-13
-2.96688e-13
-3.01817e-13
-3.0674e-13
-3.11424e-13
-3.15641e-13
-3.18977e-13
-3.21191e-13
-3.2242e-13
-3.2301e-13
-3.23334e-13
-3.23573e-13
-2.38541e-13
1.45827e-07
1.26236e-07
9.47393e-08
7.17582e-08
5.53805e-08
4.37502e-08
3.57338e-08
3.06478e-08
2.81027e-08
2.79243e-08
3.00885e-08
3.46683e-08
4.17734e-08
5.148e-08
6.37623e-08
7.84294e-08
9.50765e-08
1.13047e-07
1.31426e-07
1.49136e-07
1.65249e-07
1.79333e-07
1.91477e-07
2.02013e-07
2.11276e-07
2.19517e-07
2.26917e-07
2.33604e-07
2.39675e-07
2.45205e-07
2.50254e-07
2.54872e-07
2.59098e-07
2.62965e-07
2.66502e-07
2.69732e-07
2.72678e-07
2.75364e-07
2.77812e-07
2.80088e-07
2.82186e-07
2.84136e-07
2.85956e-07
2.87661e-07
2.89264e-07
2.90783e-07
2.92225e-07
2.93598e-07
2.94907e-07
2.96161e-07
2.97364e-07
2.98515e-07
)
;
    }
    inandouthalf22
    {
        type            cyclic;
        value           nonuniform List<scalar> 
100
(
9.14871e-14
9.62679e-14
1.01114e-13
1.06021e-13
1.10986e-13
1.16005e-13
1.21075e-13
1.26191e-13
1.3135e-13
1.36549e-13
1.41784e-13
1.47054e-13
1.52359e-13
1.57698e-13
1.63075e-13
1.68494e-13
1.73962e-13
1.79489e-13
1.85086e-13
1.90769e-13
1.96551e-13
2.02448e-13
2.08476e-13
2.14644e-13
2.20957e-13
2.2741e-13
2.3399e-13
2.4067e-13
2.47411e-13
2.54158e-13
2.60844e-13
2.67397e-13
2.7375e-13
2.79864e-13
2.85722e-13
2.91329e-13
2.96688e-13
3.01817e-13
3.0674e-13
3.11424e-13
3.15641e-13
3.18977e-13
3.21191e-13
3.2242e-13
3.2301e-13
3.23334e-13
3.23573e-13
2.38541e-13
-1.45827e-07
-1.26236e-07
-9.47393e-08
-7.17582e-08
-5.53805e-08
-4.37502e-08
-3.57338e-08
-3.06478e-08
-2.81027e-08
-2.79243e-08
-3.00885e-08
-3.46683e-08
-4.17734e-08
-5.148e-08
-6.37623e-08
-7.84294e-08
-9.50765e-08
-1.13047e-07
-1.31426e-07
-1.49136e-07
-1.65249e-07
-1.79333e-07
-1.91477e-07
-2.02013e-07
-2.11276e-07
-2.19517e-07
-2.26917e-07
-2.33604e-07
-2.39675e-07
-2.45205e-07
-2.50254e-07
-2.54872e-07
-2.59098e-07
-2.62965e-07
-2.66502e-07
-2.69732e-07
-2.72678e-07
-2.75364e-07
-2.77812e-07
-2.80088e-07
-2.82186e-07
-2.84136e-07
-2.85956e-07
-2.87661e-07
-2.89264e-07
-2.90783e-07
-2.92225e-07
-2.93598e-07
-2.94907e-07
-2.96161e-07
-2.97364e-07
-2.98515e-07
)
;
    }
    inandouthalf31
    {
        type            cyclic;
        value           nonuniform List<scalar> 
110
(
2.99618e-07
3.06791e-07
3.14116e-07
3.21592e-07
3.29215e-07
3.36999e-07
3.44965e-07
3.53112e-07
3.61424e-07
3.69925e-07
3.78645e-07
3.87572e-07
3.96712e-07
4.06105e-07
4.15752e-07
4.25646e-07
4.35831e-07
4.46321e-07
4.57069e-07
4.68115e-07
4.79529e-07
4.91269e-07
5.03334e-07
5.15787e-07
5.28605e-07
5.41828e-07
5.55499e-07
5.69544e-07
5.84061e-07
5.99132e-07
6.14658e-07
6.30618e-07
6.46824e-07
6.62967e-07
6.78923e-07
6.94663e-07
7.11215e-07
8.92886e-07
8.90576e-07
9.06586e-07
9.24956e-07
9.43733e-07
9.62888e-07
9.82432e-07
1.00237e-06
1.02272e-06
1.04348e-06
1.06466e-06
1.08626e-06
1.10831e-06
1.13081e-06
1.15376e-06
1.17718e-06
1.20107e-06
1.22545e-06
1.25032e-06
1.2757e-06
1.3016e-06
1.32802e-06
1.35497e-06
1.38247e-06
1.41053e-06
1.43916e-06
1.46837e-06
1.49818e-06
1.52859e-06
1.55961e-06
1.59127e-06
1.62357e-06
1.65652e-06
1.69015e-06
1.72445e-06
1.75945e-06
1.79517e-06
1.8316e-06
1.86878e-06
1.90671e-06
1.94541e-06
1.9849e-06
2.02519e-06
2.06629e-06
2.10823e-06
2.15102e-06
2.19468e-06
2.23923e-06
2.28468e-06
2.33105e-06
2.37837e-06
2.42664e-06
2.4759e-06
2.52615e-06
2.57742e-06
2.62974e-06
2.68312e-06
2.73758e-06
2.79314e-06
2.84983e-06
2.90768e-06
2.9667e-06
3.02691e-06
3.08835e-06
3.15104e-06
3.21499e-06
3.28025e-06
3.34683e-06
3.41476e-06
3.48407e-06
3.55479e-06
3.62694e-06
3.70056e-06
)
;
    }
    inandouthalf32
    {
        type            cyclic;
        value           nonuniform List<scalar> 
110
(
-2.99618e-07
-3.06791e-07
-3.14116e-07
-3.21592e-07
-3.29215e-07
-3.36999e-07
-3.44965e-07
-3.53112e-07
-3.61424e-07
-3.69925e-07
-3.78645e-07
-3.87572e-07
-3.96712e-07
-4.06105e-07
-4.15752e-07
-4.25646e-07
-4.35831e-07
-4.46321e-07
-4.57069e-07
-4.68115e-07
-4.79529e-07
-4.91269e-07
-5.03334e-07
-5.15787e-07
-5.28605e-07
-5.41828e-07
-5.55499e-07
-5.69544e-07
-5.84061e-07
-5.99132e-07
-6.14658e-07
-6.30618e-07
-6.46824e-07
-6.62967e-07
-6.78923e-07
-6.94663e-07
-7.11215e-07
-8.92886e-07
-8.90576e-07
-9.06586e-07
-9.24956e-07
-9.43733e-07
-9.62888e-07
-9.82432e-07
-1.00237e-06
-1.02272e-06
-1.04348e-06
-1.06466e-06
-1.08626e-06
-1.10831e-06
-1.13081e-06
-1.15376e-06
-1.17718e-06
-1.20107e-06
-1.22545e-06
-1.25032e-06
-1.2757e-06
-1.3016e-06
-1.32802e-06
-1.35497e-06
-1.38247e-06
-1.41053e-06
-1.43916e-06
-1.46837e-06
-1.49818e-06
-1.52859e-06
-1.55961e-06
-1.59127e-06
-1.62357e-06
-1.65652e-06
-1.69015e-06
-1.72445e-06
-1.75945e-06
-1.79517e-06
-1.8316e-06
-1.86878e-06
-1.90671e-06
-1.94541e-06
-1.9849e-06
-2.02519e-06
-2.06629e-06
-2.10823e-06
-2.15102e-06
-2.19468e-06
-2.23923e-06
-2.28468e-06
-2.33105e-06
-2.37837e-06
-2.42664e-06
-2.4759e-06
-2.52615e-06
-2.57742e-06
-2.62974e-06
-2.68312e-06
-2.73758e-06
-2.79314e-06
-2.84983e-06
-2.90768e-06
-2.9667e-06
-3.02691e-06
-3.08835e-06
-3.15104e-06
-3.21499e-06
-3.28025e-06
-3.34683e-06
-3.41476e-06
-3.48407e-06
-3.55479e-06
-3.62694e-06
-3.70056e-06
)
;
    }
    inandouthalf41
    {
        type            cyclic;
        value           nonuniform List<scalar> 
50
(
3.31238e-06
3.31238e-06
3.31238e-06
3.31238e-06
3.31238e-06
3.31238e-06
3.31238e-06
3.31238e-06
3.31238e-06
3.31238e-06
3.31238e-06
3.31238e-06
3.31238e-06
3.31238e-06
3.31238e-06
3.31238e-06
3.31238e-06
3.31238e-06
3.31238e-06
3.31238e-06
3.31238e-06
3.31238e-06
3.31238e-06
3.31238e-06
3.31238e-06
3.31238e-06
3.31238e-06
3.31238e-06
3.31238e-06
3.31238e-06
3.31238e-06
3.31238e-06
3.31238e-06
3.31238e-06
3.31238e-06
3.31238e-06
3.31238e-06
3.31238e-06
3.31238e-06
3.31238e-06
3.31238e-06
3.31238e-06
3.31238e-06
3.31238e-06
3.31238e-06
3.31238e-06
3.31238e-06
3.31239e-06
3.31258e-06
3.31701e-06
)
;
    }
    inandouthalf42
    {
        type            cyclic;
        value           nonuniform List<scalar> 
50
(
-3.31238e-06
-3.31238e-06
-3.31238e-06
-3.31238e-06
-3.31238e-06
-3.31238e-06
-3.31238e-06
-3.31238e-06
-3.31238e-06
-3.31238e-06
-3.31238e-06
-3.31238e-06
-3.31238e-06
-3.31238e-06
-3.31238e-06
-3.31238e-06
-3.31238e-06
-3.31238e-06
-3.31238e-06
-3.31238e-06
-3.31238e-06
-3.31238e-06
-3.31238e-06
-3.31238e-06
-3.31238e-06
-3.31238e-06
-3.31238e-06
-3.31238e-06
-3.31238e-06
-3.31238e-06
-3.31238e-06
-3.31238e-06
-3.31238e-06
-3.31238e-06
-3.31238e-06
-3.31238e-06
-3.31238e-06
-3.31238e-06
-3.31238e-06
-3.31238e-06
-3.31238e-06
-3.31238e-06
-3.31238e-06
-3.31238e-06
-3.31238e-06
-3.31238e-06
-3.31238e-06
-3.31239e-06
-3.31258e-06
-3.31701e-06
)
;
    }
    top
    {
        type            symmetryPlane;
        value           uniform 0;
    }
    walls
    {
        type            calculated;
        value           uniform 0;
    }
    frontAndBackPlanes
    {
        type            empty;
        value           nonuniform 0();
    }
}


// ************************************************************************* //
