/*--------------------------------*- C++ -*----------------------------------*\
| =========                 |                                                 |
| \\      /  F ield         | OpenFOAM: The Open Source CFD Toolbox           |
|  \\    /   O peration     | Version:  2.4.x                                 |
|   \\  /    A nd           | Web:      www.OpenFOAM.org                      |
|    \\/     M anipulation  |                                                 |
\*---------------------------------------------------------------------------*/
FoamFile
{
    version     2.0;
    format      ascii;
    class       surfaceScalarField;
    location    "4.1";
    object      ddt0(phib);
}
// * * * * * * * * * * * * * * * * * * * * * * * * * * * * * * * * * * * * * //

dimensions      [0 3 -2 0 0 0 0];

internalField   nonuniform List<scalar> 
359
(
-4.9394e-13
-1.70377e-12
-2.97707e-12
-4.09828e-12
-5.11936e-12
-6.12758e-12
-7.16921e-12
-8.24679e-12
-9.34078e-12
-1.04391e-11
-1.15423e-11
-1.26538e-11
-1.37706e-11
-1.48731e-11
-1.59258e-11
-1.68811e-11
-1.76885e-11
-1.83078e-11
-1.87273e-11
-1.89834e-11
-1.91726e-11
-1.94578e-11
-2.00619e-11
-2.1263e-11
-2.33904e-11
-2.68061e-11
-3.17961e-11
-3.82096e-11
-4.46535e-11
-4.77511e-11
-4.34157e-11
-3.12394e-11
-1.6827e-11
-6.47169e-12
-1.5284e-12
1.78886e-13
6.57881e-13
7.83006e-13
8.15481e-13
8.21964e-13
8.19216e-13
8.11666e-13
8.00466e-13
7.86434e-13
7.70583e-13
7.54132e-13
7.3818e-13
7.23354e-13
7.09821e-13
6.97311e-13
6.85357e-13
6.73631e-13
6.61772e-13
6.49493e-13
6.36654e-13
6.23094e-13
6.08845e-13
5.93848e-13
5.78159e-13
5.61859e-13
5.44978e-13
5.27606e-13
5.09884e-13
4.91909e-13
4.73707e-13
4.55364e-13
4.36863e-13
4.18146e-13
3.99146e-13
3.79736e-13
3.59763e-13
3.39158e-13
3.17785e-13
2.95632e-13
2.72672e-13
2.48937e-13
2.24439e-13
1.99298e-13
1.73559e-13
1.47301e-13
1.20509e-13
9.31956e-14
6.52716e-14
3.67681e-14
7.62801e-15
-2.22062e-14
-5.26858e-14
-8.37918e-14
-1.15474e-13
-1.47733e-13
-1.80414e-13
-2.13531e-13
-2.47046e-13
-2.8095e-13
-3.15206e-13
-3.49834e-13
-3.84782e-13
-4.20059e-13
-4.55626e-13
-4.9143e-13
-5.27511e-13
-5.63823e-13
-6.00315e-13
-6.36898e-13
-6.73588e-13
-7.10338e-13
-7.4714e-13
-7.83884e-13
-8.20617e-13
-8.57213e-13
-8.93694e-13
-9.30027e-13
-9.66196e-13
-1.00219e-12
-1.03803e-12
-1.07373e-12
-1.10932e-12
-1.14485e-12
-1.18035e-12
-1.21583e-12
-1.2514e-12
-1.28707e-12
-1.32286e-12
-1.35878e-12
-1.39468e-12
-1.43046e-12
-1.46586e-12
-1.50071e-12
-1.53459e-12
-1.56716e-12
-1.59796e-12
-1.62667e-12
-1.65298e-12
-1.6768e-12
-1.69815e-12
-1.71709e-12
-1.73368e-12
-1.74797e-12
-1.76e-12
-1.76956e-12
-1.7763e-12
-1.77945e-12
-1.7794e-12
-1.77746e-12
-1.77674e-12
-1.79933e-12
-2.17104e-11
-8.33426e-09
-3.44304e-09
-1.56847e-09
-6.96581e-10
-2.22662e-10
1.83927e-11
1.14067e-10
1.21696e-10
8.0655e-11
1.75753e-11
-5.1272e-11
-1.15797e-10
-1.70782e-10
-2.13415e-10
-2.42631e-10
-2.58814e-10
-2.64106e-10
-2.62304e-10
-2.55644e-10
-2.39671e-10
-2.06898e-10
-1.60342e-10
-1.13883e-10
-7.78019e-11
-5.33115e-11
-3.74275e-11
-2.70884e-11
-2.01978e-11
-1.54672e-11
-1.21201e-11
-9.68417e-12
-7.86632e-12
-6.48039e-12
-5.40529e-12
-4.56046e-12
-3.89007e-12
-3.35264e-12
-2.91313e-12
-2.53833e-12
-2.19173e-12
-1.85903e-12
-1.5491e-12
-1.28394e-12
-1.08006e-12
-9.2654e-13
-7.99273e-13
-6.86162e-13
-5.89644e-13
-5.10885e-13
-4.44498e-13
-3.8622e-13
-3.36068e-13
-2.94564e-13
-2.59718e-13
-2.2754e-13
-1.97558e-13
-1.726e-13
-1.52655e-13
-1.33555e-13
-1.14604e-13
-9.93888e-14
-8.73885e-14
-7.5266e-14
-6.40535e-14
-5.53052e-14
-4.72888e-14
-3.99089e-14
-3.41362e-14
-2.89723e-14
-2.40878e-14
-2.03693e-14
-1.74162e-14
-1.43676e-14
-1.18508e-14
-9.94736e-15
-8.17479e-15
-6.72354e-15
-5.49423e-15
-4.38615e-15
-3.5876e-15
-2.84878e-15
-2.16206e-15
-1.69094e-15
-1.31591e-15
-1.0844e-15
-9.72008e-16
-8.45726e-16
-6.14727e-16
-2.24607e-16
-1.06594e-16
2.97366e-16
2.74582e-16
2.72848e-16
2.66365e-16
2.52432e-16
2.46995e-16
2.43126e-16
2.35194e-16
2.28942e-16
2.36225e-16
2.20733e-16
2.26571e-16
2.17559e-16
2.20154e-16
2.14073e-16
2.27315e-16
2.20859e-16
2.1662e-16
2.13272e-16
2.12343e-16
2.01775e-16
1.96174e-16
1.90792e-16
1.80147e-16
1.73354e-16
1.56168e-16
1.48124e-16
1.43031e-16
1.38076e-16
1.33046e-16
1.36174e-16
1.29369e-16
1.26957e-16
1.31556e-16
1.41474e-16
1.42914e-16
1.31004e-16
1.35117e-16
1.22195e-16
1.19043e-16
1.15283e-16
1.16072e-16
1.09384e-16
1.08545e-16
1.11496e-16
1.07459e-16
1.13841e-16
1.0872e-16
1.10217e-16
9.13458e-17
1.00465e-16
8.65474e-17
7.2925e-17
7.74866e-17
7.48698e-17
7.42516e-17
7.77415e-17
7.79367e-17
7.53874e-17
2.33062e-17
-1.1749e-17
-5.7479e-17
-6.6587e-17
-1.12511e-16
-1.05993e-16
-1.01935e-16
-2.69528e-17
-7.48985e-17
-2.47326e-17
1.94179e-17
2.0615e-16
2.81275e-16
5.37068e-16
7.62194e-16
1.1034e-15
1.24647e-15
1.49949e-15
1.74484e-15
2.15499e-15
2.46266e-15
2.92419e-15
3.4102e-15
4.05371e-15
4.66571e-15
5.42519e-15
6.23212e-15
7.21086e-15
8.34981e-15
9.75569e-15
1.1652e-14
1.52043e-14
2.14023e-14
2.93633e-14
3.78318e-14
4.66759e-14
5.57778e-14
6.49503e-14
7.4257e-14
8.31935e-14
9.39115e-14
1.03452e-13
1.13049e-13
1.20472e-13
1.30638e-13
1.3678e-13
1.43696e-13
1.46654e-13
1.64131e-13
1.73829e-13
1.83818e-13
1.81094e-13
1.88191e-13
1.78982e-13
1.69683e-13
1.50999e-13
1.38421e-13
1.13918e-13
8.82627e-14
6.16701e-14
-1.35742e-15
-4.00981e-15
3.68633e-14
)
;

boundaryField
{
    inandouthalf11
    {
        type            cyclic;
        value           nonuniform List<scalar> 
100
(
-1.80648e-10
-1.80328e-10
-1.80148e-10
-1.80241e-10
-1.80365e-10
-1.80472e-10
-1.80574e-10
-1.80673e-10
-1.80768e-10
-1.80864e-10
-1.80962e-10
-1.81063e-10
-1.81165e-10
-1.81266e-10
-1.81366e-10
-1.81461e-10
-1.81551e-10
-1.81631e-10
-1.81701e-10
-1.81761e-10
-1.81812e-10
-1.81864e-10
-1.81926e-10
-1.82011e-10
-1.82136e-10
-1.82321e-10
-1.82585e-10
-1.82938e-10
-1.83348e-10
-1.83688e-10
-1.8373e-10
-1.83307e-10
-1.82568e-10
-1.8191e-10
-1.81544e-10
-1.81408e-10
-1.81372e-10
-1.81369e-10
-1.81375e-10
-1.81382e-10
-1.81393e-10
-1.81404e-10
-1.81416e-10
-1.8143e-10
-1.81445e-10
-1.81461e-10
-1.81478e-10
-1.81495e-10
-1.81514e-10
-1.81536e-10
-1.81557e-10
-1.81581e-10
-1.81606e-10
-1.81633e-10
-1.81661e-10
-1.81692e-10
-1.81724e-10
-1.81759e-10
-1.81795e-10
-1.81832e-10
-1.81873e-10
-1.81914e-10
-1.81957e-10
-1.82001e-10
-1.82046e-10
-1.82092e-10
-1.82139e-10
-1.82189e-10
-1.82239e-10
-1.82292e-10
-1.82347e-10
-1.82405e-10
-1.82463e-10
-1.82524e-10
-1.82586e-10
-1.8265e-10
-1.82715e-10
-1.82782e-10
-1.8285e-10
-1.8292e-10
-1.82992e-10
-1.83065e-10
-1.83141e-10
-1.83219e-10
-1.83298e-10
-1.8338e-10
-1.83464e-10
-1.83549e-10
-1.83636e-10
-1.83725e-10
-1.83816e-10
-1.83909e-10
-1.84004e-10
-1.84101e-10
-1.84201e-10
-1.84303e-10
-1.84408e-10
-1.84515e-10
-1.84624e-10
-1.84736e-10
)
;
    }
    inandouthalf12
    {
        type            cyclic;
        value           nonuniform List<scalar> 
100
(
1.80648e-10
1.80328e-10
1.80148e-10
1.80241e-10
1.80365e-10
1.80472e-10
1.80574e-10
1.80673e-10
1.80768e-10
1.80864e-10
1.80962e-10
1.81063e-10
1.81165e-10
1.81266e-10
1.81366e-10
1.81461e-10
1.81551e-10
1.81631e-10
1.81701e-10
1.81761e-10
1.81812e-10
1.81864e-10
1.81926e-10
1.82011e-10
1.82136e-10
1.82321e-10
1.82585e-10
1.82938e-10
1.83348e-10
1.83688e-10
1.8373e-10
1.83307e-10
1.82568e-10
1.8191e-10
1.81544e-10
1.81408e-10
1.81372e-10
1.81369e-10
1.81375e-10
1.81382e-10
1.81393e-10
1.81404e-10
1.81416e-10
1.8143e-10
1.81445e-10
1.81461e-10
1.81478e-10
1.81495e-10
1.81514e-10
1.81536e-10
1.81557e-10
1.81581e-10
1.81606e-10
1.81633e-10
1.81661e-10
1.81692e-10
1.81724e-10
1.81759e-10
1.81795e-10
1.81832e-10
1.81873e-10
1.81914e-10
1.81957e-10
1.82001e-10
1.82046e-10
1.82092e-10
1.82139e-10
1.82189e-10
1.82239e-10
1.82292e-10
1.82347e-10
1.82405e-10
1.82463e-10
1.82524e-10
1.82586e-10
1.8265e-10
1.82715e-10
1.82782e-10
1.8285e-10
1.8292e-10
1.82992e-10
1.83065e-10
1.83141e-10
1.83219e-10
1.83298e-10
1.8338e-10
1.83464e-10
1.83549e-10
1.83636e-10
1.83725e-10
1.83816e-10
1.83909e-10
1.84004e-10
1.84101e-10
1.84201e-10
1.84303e-10
1.84408e-10
1.84515e-10
1.84624e-10
1.84736e-10
)
;
    }
    inandouthalf21
    {
        type            cyclic;
        value           nonuniform List<scalar> 
100
(
-1.84851e-10
-1.84969e-10
-1.85089e-10
-1.85212e-10
-1.85338e-10
-1.85468e-10
-1.85601e-10
-1.85737e-10
-1.85877e-10
-1.8602e-10
-1.86167e-10
-1.86319e-10
-1.86474e-10
-1.86634e-10
-1.86799e-10
-1.86968e-10
-1.87142e-10
-1.87322e-10
-1.87507e-10
-1.87698e-10
-1.87895e-10
-1.88099e-10
-1.88309e-10
-1.88527e-10
-1.88751e-10
-1.88984e-10
-1.89225e-10
-1.89475e-10
-1.89735e-10
-1.90006e-10
-1.90287e-10
-1.9058e-10
-1.90885e-10
-1.91207e-10
-1.91548e-10
-1.91909e-10
-1.92288e-10
-1.9269e-10
-1.93134e-10
-1.93645e-10
-1.942e-10
-1.94727e-10
-1.95353e-10
-1.96165e-10
-1.97162e-10
-1.98825e-10
-1.99118e-10
2.37789e-09
1.66574e-07
1.2359e-07
8.96885e-08
6.67851e-08
5.0361e-08
3.83749e-08
2.96223e-08
2.3327e-08
1.89861e-08
1.62904e-08
1.50778e-08
1.53049e-08
1.7028e-08
2.03899e-08
2.56094e-08
3.29668e-08
4.27811e-08
5.53679e-08
7.09691e-08
8.96408e-08
1.11118e-07
1.34724e-07
1.59416e-07
1.83971e-07
2.07249e-07
2.28412e-07
2.47025e-07
2.63025e-07
2.76604e-07
2.88085e-07
2.97827e-07
3.06166e-07
3.13391e-07
3.19739e-07
3.25397e-07
3.3051e-07
3.35189e-07
3.39521e-07
3.4357e-07
3.47386e-07
3.51008e-07
3.54464e-07
3.57778e-07
3.60968e-07
3.64048e-07
3.67029e-07
3.69921e-07
3.72731e-07
3.75467e-07
3.78133e-07
3.80733e-07
3.83272e-07
)
;
    }
    inandouthalf22
    {
        type            cyclic;
        value           nonuniform List<scalar> 
100
(
1.84851e-10
1.84969e-10
1.85089e-10
1.85212e-10
1.85338e-10
1.85468e-10
1.85601e-10
1.85737e-10
1.85877e-10
1.8602e-10
1.86167e-10
1.86319e-10
1.86474e-10
1.86634e-10
1.86799e-10
1.86968e-10
1.87142e-10
1.87322e-10
1.87507e-10
1.87698e-10
1.87895e-10
1.88099e-10
1.88309e-10
1.88527e-10
1.88751e-10
1.88984e-10
1.89225e-10
1.89475e-10
1.89735e-10
1.90006e-10
1.90287e-10
1.9058e-10
1.90885e-10
1.91207e-10
1.91548e-10
1.91909e-10
1.92288e-10
1.9269e-10
1.93134e-10
1.93645e-10
1.942e-10
1.94727e-10
1.95353e-10
1.96165e-10
1.97162e-10
1.98825e-10
1.99118e-10
-2.37789e-09
-1.66574e-07
-1.2359e-07
-8.96885e-08
-6.67851e-08
-5.0361e-08
-3.83749e-08
-2.96223e-08
-2.3327e-08
-1.89861e-08
-1.62904e-08
-1.50778e-08
-1.53049e-08
-1.7028e-08
-2.03899e-08
-2.56094e-08
-3.29668e-08
-4.27811e-08
-5.53679e-08
-7.09691e-08
-8.96408e-08
-1.11118e-07
-1.34724e-07
-1.59416e-07
-1.83971e-07
-2.07249e-07
-2.28412e-07
-2.47025e-07
-2.63025e-07
-2.76604e-07
-2.88085e-07
-2.97827e-07
-3.06166e-07
-3.13391e-07
-3.19739e-07
-3.25397e-07
-3.3051e-07
-3.35189e-07
-3.39521e-07
-3.4357e-07
-3.47386e-07
-3.51008e-07
-3.54464e-07
-3.57778e-07
-3.60968e-07
-3.64048e-07
-3.67029e-07
-3.69921e-07
-3.72731e-07
-3.75467e-07
-3.78133e-07
-3.80733e-07
-3.83272e-07
)
;
    }
    inandouthalf31
    {
        type            cyclic;
        value           nonuniform List<scalar> 
110
(
3.85755e-07
3.96085e-07
4.06671e-07
4.17518e-07
4.28634e-07
4.40024e-07
4.51695e-07
4.63653e-07
4.75905e-07
4.88458e-07
5.01316e-07
5.14486e-07
5.27974e-07
5.41784e-07
5.55921e-07
5.70389e-07
5.85191e-07
6.00329e-07
6.15804e-07
6.31613e-07
6.47755e-07
6.64223e-07
6.81007e-07
6.98095e-07
7.15467e-07
7.33097e-07
7.5095e-07
7.6898e-07
7.87122e-07
8.05291e-07
8.2337e-07
8.41195e-07
8.58527e-07
8.75002e-07
8.90013e-07
9.02575e-07
9.11653e-07
8.97707e-07
8.8432e-07
8.99088e-07
9.17279e-07
9.35896e-07
9.54892e-07
9.74274e-07
9.94049e-07
1.01423e-06
1.03481e-06
1.05581e-06
1.07724e-06
1.09911e-06
1.12142e-06
1.14418e-06
1.1674e-06
1.1911e-06
1.21528e-06
1.23994e-06
1.26511e-06
1.29079e-06
1.31699e-06
1.34372e-06
1.37099e-06
1.39882e-06
1.42721e-06
1.45618e-06
1.48574e-06
1.51589e-06
1.54666e-06
1.57806e-06
1.61009e-06
1.64277e-06
1.67611e-06
1.71013e-06
1.74484e-06
1.78026e-06
1.81639e-06
1.85326e-06
1.89088e-06
1.92926e-06
1.96842e-06
2.00837e-06
2.04913e-06
2.09073e-06
2.13316e-06
2.17646e-06
2.22064e-06
2.26571e-06
2.3117e-06
2.35862e-06
2.40649e-06
2.45534e-06
2.50517e-06
2.55602e-06
2.6079e-06
2.66084e-06
2.71484e-06
2.76995e-06
2.82617e-06
2.88353e-06
2.94206e-06
3.00178e-06
3.06271e-06
3.12487e-06
3.1883e-06
3.25301e-06
3.31904e-06
3.38641e-06
3.45514e-06
3.52527e-06
3.59683e-06
3.66983e-06
)
;
    }
    inandouthalf32
    {
        type            cyclic;
        value           nonuniform List<scalar> 
110
(
-3.85755e-07
-3.96085e-07
-4.06671e-07
-4.17518e-07
-4.28634e-07
-4.40024e-07
-4.51695e-07
-4.63653e-07
-4.75905e-07
-4.88458e-07
-5.01316e-07
-5.14486e-07
-5.27974e-07
-5.41784e-07
-5.55921e-07
-5.70389e-07
-5.85191e-07
-6.00329e-07
-6.15804e-07
-6.31613e-07
-6.47755e-07
-6.64223e-07
-6.81007e-07
-6.98095e-07
-7.15467e-07
-7.33097e-07
-7.5095e-07
-7.6898e-07
-7.87122e-07
-8.05291e-07
-8.2337e-07
-8.41195e-07
-8.58527e-07
-8.75002e-07
-8.90013e-07
-9.02575e-07
-9.11653e-07
-8.97707e-07
-8.8432e-07
-8.99088e-07
-9.17279e-07
-9.35896e-07
-9.54892e-07
-9.74274e-07
-9.94049e-07
-1.01423e-06
-1.03481e-06
-1.05581e-06
-1.07724e-06
-1.09911e-06
-1.12142e-06
-1.14418e-06
-1.1674e-06
-1.1911e-06
-1.21528e-06
-1.23994e-06
-1.26511e-06
-1.29079e-06
-1.31699e-06
-1.34372e-06
-1.37099e-06
-1.39882e-06
-1.42721e-06
-1.45618e-06
-1.48574e-06
-1.51589e-06
-1.54666e-06
-1.57806e-06
-1.61009e-06
-1.64277e-06
-1.67611e-06
-1.71013e-06
-1.74484e-06
-1.78026e-06
-1.81639e-06
-1.85326e-06
-1.89088e-06
-1.92926e-06
-1.96842e-06
-2.00837e-06
-2.04913e-06
-2.09073e-06
-2.13316e-06
-2.17646e-06
-2.22064e-06
-2.26571e-06
-2.3117e-06
-2.35862e-06
-2.40649e-06
-2.45534e-06
-2.50517e-06
-2.55602e-06
-2.6079e-06
-2.66084e-06
-2.71484e-06
-2.76995e-06
-2.82617e-06
-2.88353e-06
-2.94206e-06
-3.00178e-06
-3.06271e-06
-3.12487e-06
-3.1883e-06
-3.25301e-06
-3.31904e-06
-3.38641e-06
-3.45514e-06
-3.52527e-06
-3.59683e-06
-3.66983e-06
)
;
    }
    inandouthalf41
    {
        type            cyclic;
        value           nonuniform List<scalar> 
50
(
3.28487e-06
3.28487e-06
3.28487e-06
3.28487e-06
3.28487e-06
3.28487e-06
3.28487e-06
3.28487e-06
3.28487e-06
3.28487e-06
3.28487e-06
3.28487e-06
3.28487e-06
3.28487e-06
3.28487e-06
3.28487e-06
3.28487e-06
3.28487e-06
3.28487e-06
3.28487e-06
3.28487e-06
3.28487e-06
3.28487e-06
3.28487e-06
3.28487e-06
3.28487e-06
3.28487e-06
3.28487e-06
3.28487e-06
3.28487e-06
3.28487e-06
3.28487e-06
3.28487e-06
3.28487e-06
3.28487e-06
3.28487e-06
3.28487e-06
3.28487e-06
3.28487e-06
3.28487e-06
3.28487e-06
3.28487e-06
3.28487e-06
3.28487e-06
3.28487e-06
3.28487e-06
3.28487e-06
3.28487e-06
3.28487e-06
3.28487e-06
)
;
    }
    inandouthalf42
    {
        type            cyclic;
        value           nonuniform List<scalar> 
50
(
-3.28487e-06
-3.28487e-06
-3.28487e-06
-3.28487e-06
-3.28487e-06
-3.28487e-06
-3.28487e-06
-3.28487e-06
-3.28487e-06
-3.28487e-06
-3.28487e-06
-3.28487e-06
-3.28487e-06
-3.28487e-06
-3.28487e-06
-3.28487e-06
-3.28487e-06
-3.28487e-06
-3.28487e-06
-3.28487e-06
-3.28487e-06
-3.28487e-06
-3.28487e-06
-3.28487e-06
-3.28487e-06
-3.28487e-06
-3.28487e-06
-3.28487e-06
-3.28487e-06
-3.28487e-06
-3.28487e-06
-3.28487e-06
-3.28487e-06
-3.28487e-06
-3.28487e-06
-3.28487e-06
-3.28487e-06
-3.28487e-06
-3.28487e-06
-3.28487e-06
-3.28487e-06
-3.28487e-06
-3.28487e-06
-3.28487e-06
-3.28487e-06
-3.28487e-06
-3.28487e-06
-3.28487e-06
-3.28487e-06
-3.28487e-06
)
;
    }
    top
    {
        type            symmetryPlane;
        value           uniform 0;
    }
    walls
    {
        type            calculated;
        value           uniform 0;
    }
    frontAndBackPlanes
    {
        type            empty;
        value           nonuniform 0();
    }
}


// ************************************************************************* //
