/*--------------------------------*- C++ -*----------------------------------*\
| =========                 |                                                 |
| \\      /  F ield         | OpenFOAM: The Open Source CFD Toolbox           |
|  \\    /   O peration     | Version:  2.4.x                                 |
|   \\  /    A nd           | Web:      www.OpenFOAM.org                      |
|    \\/     M anipulation  |                                                 |
\*---------------------------------------------------------------------------*/
FoamFile
{
    version     2.0;
    format      ascii;
    class       volScalarField;
    location    "4.1";
    object      ddt0(alpha);
}
// * * * * * * * * * * * * * * * * * * * * * * * * * * * * * * * * * * * * * //

dimensions      [0 0 -1 0 0 0 0];

internalField   nonuniform List<scalar> 
360
(
0.000202677
0.000381458
0.00036483
0.000332547
0.000326304
0.000333735
0.000342756
0.00034883
0.000351578
0.000353529
0.000356499
0.000360803
0.000366147
0.000371528
0.000376369
0.00038024
0.000382646
0.000383023
0.000380969
0.000376854
0.000371151
0.000366204
0.000364529
0.000369664
0.000385841
0.00041798
0.00047092
0.000546793
0.000635553
0.000703586
0.00069375
0.000568271
0.000364527
0.000178516
6.74002e-05
2.10328e-05
6.13059e-06
1.91767e-06
7.24112e-07
3.40826e-07
2.03281e-07
1.86023e-07
1.9884e-07
2.43525e-07
3.12885e-07
3.70871e-07
4.26135e-07
4.50345e-07
4.35574e-07
4.27614e-07
4.09389e-07
3.7902e-07
3.51628e-07
3.31066e-07
3.08073e-07
2.95035e-07
2.89451e-07
2.82481e-07
2.92356e-07
2.88919e-07
2.93196e-07
3.01919e-07
3.05662e-07
3.11999e-07
3.11651e-07
3.04952e-07
2.92625e-07
2.83175e-07
2.78554e-07
2.68585e-07
2.60554e-07
2.75446e-07
2.89031e-07
3.02748e-07
3.225e-07
3.44941e-07
3.66951e-07
3.78446e-07
3.85368e-07
3.91203e-07
3.93117e-07
3.92078e-07
3.94167e-07
3.98645e-07
4.05827e-07
4.14675e-07
4.24585e-07
4.34085e-07
4.39765e-07
4.41596e-07
4.39859e-07
4.33774e-07
4.24329e-07
4.12983e-07
4.00014e-07
3.85688e-07
3.70075e-07
3.52826e-07
3.3337e-07
3.11347e-07
2.86457e-07
2.58369e-07
2.26968e-07
1.92192e-07
1.53878e-07
1.11865e-07
6.60207e-08
1.62075e-08
-3.76368e-08
-9.55025e-08
-1.57307e-07
-2.22893e-07
-2.92034e-07
-3.64442e-07
-4.39778e-07
-5.17676e-07
-5.97784e-07
-6.79826e-07
-7.63662e-07
-8.49386e-07
-9.37437e-07
-1.02869e-06
-1.12461e-06
-1.22741e-06
-1.34022e-06
-1.46711e-06
-1.61285e-06
-1.78194e-06
-1.97701e-06
-2.19768e-06
-2.44248e-06
-2.71605e-06
-3.03372e-06
-3.40306e-06
-3.79374e-06
-4.16533e-06
-4.55719e-06
-5.12229e-06
-5.98192e-06
-6.85341e-06
-7.10498e-06
-7.77145e-06
-9.86549e-06
-1.24885e-05
-1.8469e-05
-4.92369e-05
-0.00027875
-0.148437
-0.221453
-0.0533009
-0.0118683
0.00717874
0.0194115
0.0280078
0.0336852
0.0367358
0.0375284
0.0365626
0.0343506
0.0313745
0.0280089
0.0245259
0.0211125
0.0179038
0.0150155
0.0125201
0.0103434
0.00825692
0.00615678
0.0042508
0.00278925
0.00180588
0.00118349
0.000793043
0.000544164
0.000381779
0.000273336
0.000199468
0.000148458
0.000113043
8.86029e-05
7.21391e-05
6.16324e-05
5.56013e-05
5.27486e-05
5.1586e-05
5.02409e-05
4.66502e-05
3.9977e-05
3.16679e-05
2.44964e-05
2.00251e-05
1.73618e-05
1.48851e-05
1.22913e-05
1.02236e-05
8.78709e-06
7.53706e-06
6.31375e-06
5.28392e-06
4.57983e-06
4.08114e-06
3.48032e-06
2.78252e-06
2.35647e-06
2.21466e-06
1.92535e-06
1.45694e-06
1.22812e-06
1.17652e-06
9.59242e-07
7.38316e-07
6.6762e-07
5.64662e-07
4.3095e-07
3.86117e-07
3.42043e-07
2.47221e-07
2.0177e-07
1.94894e-07
1.50529e-07
1.11905e-07
9.97884e-08
7.76614e-08
6.14028e-08
5.17519e-08
3.69147e-08
2.92086e-08
2.41178e-08
1.63579e-08
1.1444e-08
7.94773e-09
5.47529e-09
3.25408e-09
7.64992e-11
-3.85268e-09
-6.27231e-09
-9.12984e-12
-3.29845e-15
-2.08648e-15
-6.89703e-16
-3.79935e-16
-3.66967e-16
-5.78099e-16
-8.81154e-16
-1.11207e-15
-9.98088e-16
-3.53411e-16
-1.57964e-16
-8.51274e-17
-7.50361e-17
-1.14929e-16
-1.762e-16
-2.2729e-16
-1.39048e-16
-5.09922e-17
-2.46606e-17
-1.44396e-17
-1.51649e-17
-2.18694e-17
-1.21371e-17
-3.60636e-18
-1.308e-18
-5.68422e-19
-2.76688e-19
-1.40346e-19
-7.7958e-20
-5.21044e-20
-3.92474e-20
-2.04074e-20
-9.35678e-21
-4.6992e-21
-2.5028e-21
-1.52367e-21
-7.53702e-22
-3.66118e-22
-1.8219e-22
-8.92533e-23
-4.27711e-23
-2.00183e-23
-9.14007e-24
-4.06626e-24
-1.76044e-24
-7.4072e-25
-3.02475e-25
-1.19696e-25
-4.58276e-26
-1.69468e-26
-6.04151e-27
-2.07214e-27
-6.82241e-28
-2.15097e-28
-6.4763e-29
-1.85651e-29
-5.04974e-30
-1.29827e-30
-3.14111e-31
-7.11578e-32
-1.50046e-32
-2.92458e-33
-5.22538e-34
-8.47146e-35
-1.2304e-35
-1.57488e-36
-1.73791e-37
-1.60311e-38
-1.17953e-39
-6.39208e-41
-2.15747e-42
-2.40852e-44
-4.46761e-47
-7.26427e-49
-5.85955e-51
-8.76454e-62
-6.67023e-73
-3.92514e-84
-1.67181e-95
-6.4711e-107
-2.08152e-118
-8.45642e-130
-6.55449e-138
-1.58805e-148
-2.25699e-156
-5.17882e-167
-7.76434e-175
-2.2275e-185
-2.67041e-193
-1.00679e-203
-9.19164e-212
-6.88612e-222
-3.19276e-230
-4.604e-240
-1.12503e-248
-2.32536e-258
-4.02017e-267
-1.10138e-276
-1.45634e-285
-4.85691e-295
-5.35631e-304
-2.07776e-313
3.72427e-320
0
0
0
0
0
0
0
0
0
0
0
0
0
0
0
0
0
0
0
)
;

boundaryField
{
    inandouthalf11
    {
        type            cyclic;
    }
    inandouthalf12
    {
        type            cyclic;
    }
    inandouthalf21
    {
        type            cyclic;
    }
    inandouthalf22
    {
        type            cyclic;
    }
    inandouthalf31
    {
        type            cyclic;
    }
    inandouthalf32
    {
        type            cyclic;
    }
    inandouthalf41
    {
        type            cyclic;
    }
    inandouthalf42
    {
        type            cyclic;
    }
    top
    {
        type            symmetryPlane;
    }
    walls
    {
        type            calculated;
        value           uniform 0.000202677;
    }
    frontAndBackPlanes
    {
        type            empty;
    }
}


// ************************************************************************* //
