/*--------------------------------*- C++ -*----------------------------------*\
| =========                 |                                                 |
| \\      /  F ield         | OpenFOAM: The Open Source CFD Toolbox           |
|  \\    /   O peration     | Version:  2.4.x                                 |
|   \\  /    A nd           | Web:      www.OpenFOAM.org                      |
|    \\/     M anipulation  |                                                 |
\*---------------------------------------------------------------------------*/
FoamFile
{
    version     2.0;
    format      ascii;
    class       volVectorField;
    location    "4.1";
    object      gradPf;
}
// * * * * * * * * * * * * * * * * * * * * * * * * * * * * * * * * * * * * * //

dimensions      [0 1 -2 0 0 0 0];

internalField   nonuniform List<vector> 
360
(
(0 35.6662 0)
(0 47.1904 0)
(0 8.73854 0)
(0 -6.53126 0)
(-3.34818e-14 -6.12536 0)
(-3.34836e-14 -4.51459 0)
(-3.34851e-14 -4.12327 0)
(0 -3.87637 0)
(-1.6744e-14 -3.76931 0)
(0 -3.92447 0)
(-1.67455e-14 -4.06718 0)
(0 -4.13095 0)
(-1.67471e-14 -4.13342 0)
(0 -4.09738 0)
(0 -4.09492 0)
(0 -4.11243 0)
(0 -4.11233 0)
(-1.67513e-14 -4.07933 0)
(0 -4.04811 0)
(0 -3.95926 0)
(0 -3.86313 0)
(-1.67546e-14 -3.81229 0)
(0 -3.76392 0)
(0 -3.78375 0)
(0 -3.90071 0)
(-1.6758e-14 -4.14617 0)
(0 -4.60053 0)
(0 -5.22853 0)
(0 -5.88121 0)
(0 -6.30476 0)
(0 -6.1314 0)
(0 -5.05643 0)
(0 -3.50291 0)
(0 -2.06228 0)
(0 -1.10921 0)
(1.67679e-14 -0.717933 0)
(0 -0.609345 0)
(0 -0.660774 0)
(0 -0.64228 0)
(0 -0.68846 0)
(0 -0.786154 0)
(0 -0.779486 0)
(1.67691e-14 -0.875915 0)
(0 -0.968046 0)
(0 -1.00806 0)
(0 -1.09755 0)
(0 -1.13135 0)
(0 -1.21153 0)
(0 -1.38413 0)
(0 -1.45143 0)
(1.67715e-14 -1.51865 0)
(0 -1.63157 0)
(0 -1.73446 0)
(0 -1.82794 0)
(0 -1.95657 0)
(0 -2.07147 0)
(0 -2.17207 0)
(0 -2.30203 0)
(0 -2.36544 0)
(0 -2.49225 0)
(0 -2.58634 0)
(0 -2.64465 0)
(0 -2.7118 0)
(0 -2.74385 0)
(0 -2.78727 0)
(0 -2.84384 0)
(0 -2.92162 0)
(0 -2.9916 0)
(0 -3.05401 0)
(0 -3.15645 0)
(0 -3.27565 0)
(0 -3.32142 0)
(0 -3.38347 0)
(0 -3.45751 0)
(0 -3.50492 0)
(0 -3.53631 0)
(0 -3.55207 0)
(0 -3.59249 0)
(0 -3.6353 0)
(0 -3.67177 0)
(0 -3.71622 0)
(0 -3.77213 0)
(0 -3.82038 0)
(0 -3.86469 0)
(0 -3.90342 0)
(0 -3.93651 0)
(0 -3.96278 0)
(0 -3.98227 0)
(0 -4.00369 0)
(0 -4.02576 0)
(0 -4.04738 0)
(0 -4.07202 0)
(0 -4.09853 0)
(0 -4.12368 0)
(0 -4.14759 0)
(0 -4.16975 0)
(0 -4.18962 0)
(0 -4.2075 0)
(0 -4.2242 0)
(0 -4.23999 0)
(0 -4.25501 0)
(0 -4.26962 0)
(0 -4.28372 0)
(0 -4.29702 0)
(0 -4.30953 0)
(0 -4.32127 0)
(0 -4.3322 0)
(0 -4.34241 0)
(0 -4.35192 0)
(0 -4.36067 0)
(0 -4.36861 0)
(0 -4.37566 0)
(0 -4.3817 0)
(0 -4.38662 0)
(0 -4.39031 0)
(0 -4.39265 0)
(0 -4.39352 0)
(0 -4.39283 0)
(0 -4.39047 0)
(0 -4.38632 0)
(0 -4.38022 0)
(0 -4.37193 0)
(0 -4.36121 0)
(0 -4.34799 0)
(0 -4.33271 0)
(0 -4.31647 0)
(0 -4.30086 0)
(0 -4.2869 0)
(0 -4.27341 0)
(0 -4.25653 0)
(0 -4.23313 0)
(0 -4.20931 0)
(0 -4.2031 0)
(0 -4.22317 0)
(0 -4.24104 0)
(0 -4.22065 0)
(0 -4.19277 0)
(0 -4.26201 0)
(0 -4.47838 0)
(0 -4.61902 0)
(0 -4.32766 0)
(0 -4.21231 0)
(0 -4.74515 0)
(0 -5.28006 0)
(0 -6.48192 0)
(0 -9.91647 0)
(0 -13.0769 0)
(0 -7.30815 0)
(0 -0.46333 0)
(0 0 0)
(0 0 0)
(0 0 0)
(0 0 0)
(0 0 0)
(0 0 0)
(0 0 0)
(0 0 0)
(0 0 0)
(0 0 0)
(0 0 0)
(0 0 0)
(0 0 0)
(0 0 0)
(0 0 0)
(0 0 0)
(0 0 0)
(0 0 0)
(0 0 0)
(0 0 0)
(0 0 0)
(0 0 0)
(0 0 0)
(0 0 0)
(0 0 0)
(0 0 0)
(0 0 0)
(0 0 0)
(0 0 0)
(0 0 0)
(0 0 0)
(0 0 0)
(0 0 0)
(0 0 0)
(0 0 0)
(0 0 0)
(0 0 0)
(0 0 0)
(0 0 0)
(0 0 0)
(0 0 0)
(0 0 0)
(0 0 0)
(0 0 0)
(0 0 0)
(0 0 0)
(0 0 0)
(0 0 0)
(0 0 0)
(0 0 0)
(0 0 0)
(0 0 0)
(0 0 0)
(0 0 0)
(0 0 0)
(0 0 0)
(0 0 0)
(0 0 0)
(0 0 0)
(0 0 0)
(0 0 0)
(0 0 0)
(0 0 0)
(0 0 0)
(0 0 0)
(0 0 0)
(0 0 0)
(0 0 0)
(0 0 0)
(0 0 0)
(0 0 0)
(0 0 0)
(0 0 0)
(0 0 0)
(0 0 0)
(0 0 0)
(0 0 0)
(0 0 0)
(0 0 0)
(0 0 0)
(0 0 0)
(0 0 0)
(0 0 0)
(0 0 0)
(0 0 0)
(0 0 0)
(0 0 0)
(0 0 0)
(0 0 0)
(0 0 0)
(0 0 0)
(0 0 0)
(0 0 0)
(0 0 0)
(0 0 0)
(0 0 0)
(0 0 0)
(0 0 0)
(0 0 0)
(0 0 0)
(0 0 0)
(0 0 0)
(0 0 0)
(0 0 0)
(0 0 0)
(0 0 0)
(0 0 0)
(0 0 0)
(0 0 0)
(0 0 0)
(0 0 0)
(0 0 0)
(0 0 0)
(0 0 0)
(0 0 0)
(0 0 0)
(0 0 0)
(0 0 0)
(0 0 0)
(0 0 0)
(0 0 0)
(0 0 0)
(0 0 0)
(0 0 0)
(0 0 0)
(0 0 0)
(0 0 0)
(0 0 0)
(0 0 0)
(0 0 0)
(0 0 0)
(0 0 0)
(0 0 0)
(0 0 0)
(0 0 0)
(0 0 0)
(0 0 0)
(0 0 0)
(0 0 0)
(0 0 0)
(0 0 0)
(0 0 0)
(0 0 0)
(0 0 0)
(0 0 0)
(0 0 0)
(0 0 0)
(0 0 0)
(0 0 0)
(0 0 0)
(0 0 0)
(0 0 0)
(0 0 0)
(0 0 0)
(0 0 0)
(0 0 0)
(0 0 0)
(0 0 0)
(0 0 0)
(0 0 0)
(0 0 0)
(0 0 0)
(0 0 0)
(0 0 0)
(0 0 0)
(0 0 0)
(0 0 0)
(0 0 0)
(0 0 0)
(0 0 0)
(0 0 0)
(0 0 0)
(0 0 0)
(0 0 0)
(0 0 0)
(0 0 0)
(0 0 0)
(0 0 0)
(0 0 0)
(0 0 0)
(0 0 0)
(0 0 0)
(0 0 0)
(0 0 0)
(0 0 0)
(0 0 0)
(0 0 0)
(0 0 0)
(0 0 0)
(0 0 0)
(0 0 0)
(0 0 0)
(0 0 0)
(0 0 0)
(0 0 0)
(0 0 0)
(0 0 0)
(0 0 0)
(0 0 0)
(0 0 0)
(0 0 0)
(0 0 0)
(0 0 0)
(0 0 0)
(0 0 0)
(0 0 0)
(0 0 0)
(0 0 0)
(0 0 0)
(0 0 0)
(0 0 0)
)
;

boundaryField
{
    inandouthalf11
    {
        type            cyclic;
    }
    inandouthalf12
    {
        type            cyclic;
    }
    inandouthalf21
    {
        type            cyclic;
    }
    inandouthalf22
    {
        type            cyclic;
    }
    inandouthalf31
    {
        type            cyclic;
    }
    inandouthalf32
    {
        type            cyclic;
    }
    inandouthalf41
    {
        type            cyclic;
    }
    inandouthalf42
    {
        type            cyclic;
    }
    top
    {
        type            symmetryPlane;
    }
    walls
    {
        type            calculated;
        value           uniform (0 0 0);
    }
    frontAndBackPlanes
    {
        type            empty;
    }
}


// ************************************************************************* //
