/*--------------------------------*- C++ -*----------------------------------*\
| =========                 |                                                 |
| \\      /  F ield         | OpenFOAM: The Open Source CFD Toolbox           |
|  \\    /   O peration     | Version:  2.4.x                                 |
|   \\  /    A nd           | Web:      www.OpenFOAM.org                      |
|    \\/     M anipulation  |                                                 |
\*---------------------------------------------------------------------------*/
FoamFile
{
    version     2.0;
    format      ascii;
    class       surfaceScalarField;
    location    "4.1";
    object      phia;
}
// * * * * * * * * * * * * * * * * * * * * * * * * * * * * * * * * * * * * * //

dimensions      [0 3 -1 0 0 0 0];

internalField   nonuniform List<scalar> 
359
(
-6.63129e-13
-1.91146e-12
-3.10547e-12
-4.1938e-12
-5.26201e-12
-6.35458e-12
-7.47675e-12
-8.61889e-12
-9.77011e-12
-1.09278e-11
-1.20954e-11
-1.32772e-11
-1.44766e-11
-1.56938e-11
-1.69269e-11
-1.81729e-11
-1.9427e-11
-2.06824e-11
-2.19313e-11
-2.31669e-11
-2.43839e-11
-2.55848e-11
-2.67802e-11
-2.79925e-11
-2.92577e-11
-3.06281e-11
-3.2172e-11
-3.39647e-11
-3.60489e-11
-3.83575e-11
-4.06362e-11
-4.25053e-11
-4.37063e-11
-4.42956e-11
-4.45186e-11
-4.45884e-11
-4.46091e-11
-4.46158e-11
-4.46186e-11
-4.46202e-11
-4.46214e-11
-4.46225e-11
-4.46238e-11
-4.46252e-11
-4.46269e-11
-4.46289e-11
-4.4631e-11
-4.46333e-11
-4.46357e-11
-4.46381e-11
-4.46404e-11
-4.46428e-11
-4.46452e-11
-4.46475e-11
-4.46499e-11
-4.46523e-11
-4.46548e-11
-4.46574e-11
-4.466e-11
-4.46628e-11
-4.46656e-11
-4.46685e-11
-4.46715e-11
-4.46746e-11
-4.46777e-11
-4.46809e-11
-4.4684e-11
-4.46873e-11
-4.46906e-11
-4.46939e-11
-4.46974e-11
-4.4701e-11
-4.47046e-11
-4.47085e-11
-4.47124e-11
-4.47165e-11
-4.47208e-11
-4.47251e-11
-4.47295e-11
-4.4734e-11
-4.47386e-11
-4.47433e-11
-4.47481e-11
-4.4753e-11
-4.47581e-11
-4.47632e-11
-4.47684e-11
-4.47738e-11
-4.47793e-11
-4.47848e-11
-4.47905e-11
-4.47962e-11
-4.4802e-11
-4.48078e-11
-4.48137e-11
-4.48197e-11
-4.48257e-11
-4.48318e-11
-4.4838e-11
-4.48442e-11
-4.48504e-11
-4.48567e-11
-4.4863e-11
-4.48693e-11
-4.48757e-11
-4.4882e-11
-4.48884e-11
-4.48947e-11
-4.49011e-11
-4.49074e-11
-4.49137e-11
-4.492e-11
-4.49263e-11
-4.49325e-11
-4.49387e-11
-4.49448e-11
-4.4951e-11
-4.49571e-11
-4.49632e-11
-4.49693e-11
-4.49754e-11
-4.49815e-11
-4.49875e-11
-4.49936e-11
-4.49997e-11
-4.50057e-11
-4.50116e-11
-4.50173e-11
-4.50229e-11
-4.50283e-11
-4.50334e-11
-4.50381e-11
-4.50424e-11
-4.50464e-11
-4.50499e-11
-4.50531e-11
-4.5056e-11
-4.50585e-11
-4.50606e-11
-4.50623e-11
-4.50636e-11
-4.50643e-11
-4.50646e-11
-4.50647e-11
-4.50647e-11
-4.50644e-11
-4.50635e-11
4.6046e-10
2.46317e-09
3.84259e-09
4.8557e-09
5.81143e-09
6.79694e-09
7.8492e-09
8.98309e-09
1.02018e-08
1.15007e-08
1.28685e-08
1.42892e-08
1.57417e-08
1.71994e-08
1.8629e-08
1.99897e-08
2.12287e-08
2.22699e-08
2.29881e-08
2.32e-08
2.27478e-08
2.16512e-08
2.0127e-08
1.84408e-08
1.67892e-08
1.52844e-08
1.3979e-08
1.28899e-08
1.20143e-08
1.13403e-08
1.08514e-08
1.05294e-08
1.03549e-08
1.03074e-08
1.03646e-08
1.05021e-08
1.06922e-08
1.09048e-08
1.11078e-08
1.12698e-08
1.13699e-08
1.1404e-08
1.13857e-08
1.13384e-08
1.12759e-08
1.11979e-08
1.11014e-08
1.09908e-08
1.08717e-08
1.07445e-08
1.06077e-08
1.04631e-08
1.03137e-08
1.01612e-08
1.00002e-08
9.82647e-09
9.64384e-09
9.4599e-09
9.26953e-09
9.06141e-09
8.84252e-09
8.62731e-09
8.40246e-09
8.16034e-09
7.91887e-09
7.67749e-09
7.42449e-09
7.17186e-09
6.92369e-09
6.65608e-09
6.37426e-09
6.10338e-09
5.81491e-09
5.4885e-09
5.16323e-09
4.81283e-09
4.42458e-09
4.02635e-09
3.57286e-09
3.07422e-09
2.5629e-09
1.95651e-09
1.28211e-09
5.59846e-10
-2.11603e-10
-9.13611e-10
-1.49552e-09
-1.94162e-09
-2.38596e-09
-7.72778e-08
-1.57918e-07
-1.58165e-07
-1.58166e-07
-1.58167e-07
-1.58167e-07
-1.58167e-07
-1.58167e-07
-1.58167e-07
-1.58167e-07
-1.58167e-07
-1.58167e-07
-1.58167e-07
-1.58167e-07
-1.58167e-07
-1.58167e-07
-1.58167e-07
-1.58167e-07
-1.58167e-07
-1.58167e-07
-1.58167e-07
-1.58167e-07
-1.58167e-07
-1.58167e-07
-1.58167e-07
-1.58167e-07
-1.58167e-07
-1.58167e-07
-1.58167e-07
-1.58167e-07
-1.58167e-07
-1.58167e-07
-1.58167e-07
-1.58167e-07
-1.58167e-07
-1.58167e-07
-1.58167e-07
-1.58167e-07
-1.58167e-07
-1.58167e-07
-1.58167e-07
-1.58167e-07
-1.58167e-07
-1.58167e-07
-1.58167e-07
-1.58167e-07
-1.58167e-07
-1.58167e-07
-1.58167e-07
-1.58167e-07
-1.58167e-07
-1.58167e-07
-1.58167e-07
-1.58167e-07
-1.58167e-07
-1.58167e-07
-1.58167e-07
-1.58167e-07
-1.58167e-07
-1.58167e-07
-1.58167e-07
-1.58167e-07
-1.58167e-07
-1.58167e-07
-1.58167e-07
-1.58167e-07
-1.58167e-07
-1.58167e-07
-1.58167e-07
-1.58167e-07
-1.58167e-07
-1.58167e-07
-1.58167e-07
-1.58167e-07
-1.58167e-07
-1.58167e-07
-1.58167e-07
-1.58167e-07
-1.58167e-07
-1.58167e-07
-1.58167e-07
-1.58167e-07
-1.58167e-07
-1.58167e-07
-1.58167e-07
-1.58167e-07
-1.58167e-07
-1.58167e-07
-1.58167e-07
-1.58167e-07
-1.58167e-07
-1.58167e-07
-1.58167e-07
-1.58167e-07
-1.58167e-07
-1.58167e-07
-1.58167e-07
-1.58167e-07
-1.58167e-07
-1.58167e-07
-1.58167e-07
-1.58167e-07
-1.58167e-07
-1.58167e-07
-1.58167e-07
-1.58167e-07
-1.58167e-07
-1.58167e-07
-1.58167e-07
-1.58167e-07
-1.58167e-07
-1.58167e-07
-1.58167e-07
-1.58167e-07
-1.58167e-07
-1.58167e-07
-1.58167e-07
-1.58167e-07
-1.58167e-07
-1.58166e-07
-1.58149e-07
-1.57442e-07
-1.32554e-07
)
;

boundaryField
{
    inandouthalf11
    {
        type            cyclic;
        value           nonuniform List<scalar> 
100
(
1.09844e-38
6.06805e-14
1.3954e-13
2.1026e-13
2.7742e-13
3.45611e-13
4.15874e-13
4.87869e-13
5.60951e-13
6.34696e-13
7.0912e-13
7.84495e-13
8.61084e-13
9.39006e-13
1.01821e-12
1.09855e-12
1.17977e-12
1.26149e-12
1.34324e-12
1.42453e-12
1.50495e-12
1.5844e-12
1.66329e-12
1.7427e-12
1.82452e-12
1.91166e-12
2.00806e-12
2.11861e-12
2.24768e-12
2.39532e-12
2.55104e-12
2.69144e-12
2.79194e-12
2.84639e-12
2.86865e-12
2.87595e-12
2.87812e-12
2.87882e-12
2.8791e-12
2.87924e-12
2.87934e-12
2.87943e-12
2.87953e-12
2.87964e-12
2.87979e-12
2.87996e-12
2.88015e-12
2.88037e-12
2.88061e-12
2.88086e-12
2.88111e-12
2.88136e-12
2.88162e-12
2.88188e-12
2.88215e-12
2.88243e-12
2.88272e-12
2.88303e-12
2.88334e-12
2.88368e-12
2.88403e-12
2.8844e-12
2.88478e-12
2.88518e-12
2.8856e-12
2.88602e-12
2.88645e-12
2.88689e-12
2.88735e-12
2.88782e-12
2.88831e-12
2.88881e-12
2.88934e-12
2.8899e-12
2.89048e-12
2.89108e-12
2.89172e-12
2.89237e-12
2.89305e-12
2.89375e-12
2.89446e-12
2.8952e-12
2.89596e-12
2.89675e-12
2.89756e-12
2.89839e-12
2.89925e-12
2.90013e-12
2.90104e-12
2.90198e-12
2.90294e-12
2.90392e-12
2.90492e-12
2.90594e-12
2.90698e-12
2.90804e-12
2.90912e-12
2.91022e-12
2.91134e-12
2.91247e-12
)
;
    }
    inandouthalf12
    {
        type            cyclic;
        value           nonuniform List<scalar> 
100
(
-1.09844e-38
-6.06805e-14
-1.3954e-13
-2.1026e-13
-2.7742e-13
-3.45611e-13
-4.15874e-13
-4.87869e-13
-5.60951e-13
-6.34696e-13
-7.0912e-13
-7.84495e-13
-8.61084e-13
-9.39006e-13
-1.01821e-12
-1.09855e-12
-1.17977e-12
-1.26149e-12
-1.34324e-12
-1.42453e-12
-1.50495e-12
-1.5844e-12
-1.66329e-12
-1.7427e-12
-1.82452e-12
-1.91166e-12
-2.00806e-12
-2.11861e-12
-2.24768e-12
-2.39532e-12
-2.55104e-12
-2.69144e-12
-2.79194e-12
-2.84639e-12
-2.86865e-12
-2.87595e-12
-2.87812e-12
-2.87882e-12
-2.8791e-12
-2.87924e-12
-2.87934e-12
-2.87943e-12
-2.87953e-12
-2.87964e-12
-2.87979e-12
-2.87996e-12
-2.88015e-12
-2.88037e-12
-2.88061e-12
-2.88086e-12
-2.88111e-12
-2.88136e-12
-2.88162e-12
-2.88188e-12
-2.88215e-12
-2.88243e-12
-2.88272e-12
-2.88303e-12
-2.88334e-12
-2.88368e-12
-2.88403e-12
-2.8844e-12
-2.88478e-12
-2.88518e-12
-2.8856e-12
-2.88602e-12
-2.88645e-12
-2.88689e-12
-2.88735e-12
-2.88782e-12
-2.88831e-12
-2.88881e-12
-2.88934e-12
-2.8899e-12
-2.89048e-12
-2.89108e-12
-2.89172e-12
-2.89237e-12
-2.89305e-12
-2.89375e-12
-2.89446e-12
-2.8952e-12
-2.89596e-12
-2.89675e-12
-2.89756e-12
-2.89839e-12
-2.89925e-12
-2.90013e-12
-2.90104e-12
-2.90198e-12
-2.90294e-12
-2.90392e-12
-2.90492e-12
-2.90594e-12
-2.90698e-12
-2.90804e-12
-2.90912e-12
-2.91022e-12
-2.91134e-12
-2.91247e-12
)
;
    }
    inandouthalf21
    {
        type            cyclic;
        value           nonuniform List<scalar> 
100
(
2.91363e-12
2.9148e-12
2.91599e-12
2.9172e-12
2.91842e-12
2.91966e-12
2.92091e-12
2.92217e-12
2.92344e-12
2.92472e-12
2.92602e-12
2.92732e-12
2.92864e-12
2.92996e-12
2.93129e-12
2.93263e-12
2.93399e-12
2.93536e-12
2.93674e-12
2.93815e-12
2.93958e-12
2.94103e-12
2.94251e-12
2.94402e-12
2.94556e-12
2.94713e-12
2.94873e-12
2.95034e-12
2.95196e-12
2.95358e-12
2.95518e-12
2.95674e-12
2.95825e-12
2.95971e-12
2.96111e-12
2.96246e-12
2.96375e-12
2.96499e-12
2.96617e-12
2.96728e-12
2.96825e-12
2.96899e-12
2.96945e-12
2.9697e-12
2.96982e-12
2.96991e-12
2.97005e-12
2.97528e-12
7.45273e-08
1.89792e-07
2.82489e-07
3.58109e-07
4.21329e-07
4.75175e-07
5.21651e-07
5.62168e-07
5.97765e-07
6.29217e-07
6.57113e-07
6.81894e-07
7.03892e-07
7.23357e-07
7.40483e-07
7.55432e-07
7.68351e-07
7.7939e-07
7.88716e-07
7.9652e-07
8.03018e-07
8.08426e-07
8.12942e-07
8.16726e-07
8.19902e-07
8.22569e-07
8.24803e-07
8.26668e-07
8.28215e-07
8.29489e-07
8.30525e-07
8.31354e-07
8.32005e-07
8.32502e-07
8.32864e-07
8.33113e-07
8.33264e-07
8.33334e-07
8.33339e-07
8.33292e-07
8.33202e-07
8.33081e-07
8.32936e-07
8.32772e-07
8.32594e-07
8.32405e-07
8.32207e-07
8.32003e-07
8.31795e-07
8.31584e-07
8.31372e-07
8.3116e-07
)
;
    }
    inandouthalf22
    {
        type            cyclic;
        value           nonuniform List<scalar> 
100
(
-2.91363e-12
-2.9148e-12
-2.91599e-12
-2.9172e-12
-2.91842e-12
-2.91966e-12
-2.92091e-12
-2.92217e-12
-2.92344e-12
-2.92472e-12
-2.92602e-12
-2.92732e-12
-2.92864e-12
-2.92996e-12
-2.93129e-12
-2.93263e-12
-2.93399e-12
-2.93536e-12
-2.93674e-12
-2.93815e-12
-2.93958e-12
-2.94103e-12
-2.94251e-12
-2.94402e-12
-2.94556e-12
-2.94713e-12
-2.94873e-12
-2.95034e-12
-2.95196e-12
-2.95358e-12
-2.95518e-12
-2.95674e-12
-2.95825e-12
-2.95971e-12
-2.96111e-12
-2.96246e-12
-2.96375e-12
-2.96499e-12
-2.96617e-12
-2.96728e-12
-2.96825e-12
-2.96899e-12
-2.96945e-12
-2.9697e-12
-2.96982e-12
-2.96991e-12
-2.97005e-12
-2.97528e-12
-7.45273e-08
-1.89792e-07
-2.82489e-07
-3.58109e-07
-4.21329e-07
-4.75175e-07
-5.21651e-07
-5.62168e-07
-5.97765e-07
-6.29217e-07
-6.57113e-07
-6.81894e-07
-7.03892e-07
-7.23357e-07
-7.40483e-07
-7.55432e-07
-7.68351e-07
-7.7939e-07
-7.88716e-07
-7.9652e-07
-8.03018e-07
-8.08426e-07
-8.12942e-07
-8.16726e-07
-8.19902e-07
-8.22569e-07
-8.24803e-07
-8.26668e-07
-8.28215e-07
-8.29489e-07
-8.30525e-07
-8.31354e-07
-8.32005e-07
-8.32502e-07
-8.32864e-07
-8.33113e-07
-8.33264e-07
-8.33334e-07
-8.33339e-07
-8.33292e-07
-8.33202e-07
-8.33081e-07
-8.32936e-07
-8.32772e-07
-8.32594e-07
-8.32405e-07
-8.32207e-07
-8.32003e-07
-8.31795e-07
-8.31584e-07
-8.31372e-07
-8.3116e-07
)
;
    }
    inandouthalf31
    {
        type            cyclic;
        value           nonuniform List<scalar> 
110
(
8.30952e-07
8.47603e-07
8.64586e-07
8.81905e-07
8.99571e-07
9.17588e-07
9.35962e-07
9.54698e-07
9.73806e-07
9.93294e-07
1.01316e-06
1.03342e-06
1.05408e-06
1.07515e-06
1.09662e-06
1.11851e-06
1.14083e-06
1.16357e-06
1.18675e-06
1.21037e-06
1.23444e-06
1.25895e-06
1.28393e-06
1.30936e-06
1.33527e-06
1.36164e-06
1.38848e-06
1.41582e-06
1.44363e-06
1.47191e-06
1.50069e-06
1.52998e-06
1.55987e-06
1.59047e-06
1.62185e-06
1.65403e-06
1.68662e-06
1.58023e-06
1.61168e-06
1.64433e-06
1.6777e-06
1.71174e-06
1.74647e-06
1.78191e-06
1.81807e-06
1.85497e-06
1.89261e-06
1.93102e-06
1.97021e-06
2.0102e-06
2.051e-06
2.09263e-06
2.1351e-06
2.17844e-06
2.22265e-06
2.26776e-06
2.31379e-06
2.36076e-06
2.40867e-06
2.45756e-06
2.50744e-06
2.55834e-06
2.61026e-06
2.66325e-06
2.7173e-06
2.77246e-06
2.82873e-06
2.88615e-06
2.94473e-06
3.0045e-06
3.06548e-06
3.1277e-06
3.19119e-06
3.25596e-06
3.32205e-06
3.38947e-06
3.45827e-06
3.52846e-06
3.60008e-06
3.67316e-06
3.74771e-06
3.82378e-06
3.90139e-06
3.98058e-06
4.06137e-06
4.14381e-06
4.22792e-06
4.31373e-06
4.40129e-06
4.49063e-06
4.58177e-06
4.67477e-06
4.76966e-06
4.86647e-06
4.96524e-06
5.06603e-06
5.16885e-06
5.27377e-06
5.38081e-06
5.49003e-06
5.60146e-06
5.71515e-06
5.83116e-06
5.94951e-06
6.07027e-06
6.19348e-06
6.31919e-06
6.44746e-06
6.57832e-06
6.71184e-06
)
;
    }
    inandouthalf32
    {
        type            cyclic;
        value           nonuniform List<scalar> 
110
(
-8.30952e-07
-8.47603e-07
-8.64586e-07
-8.81905e-07
-8.99571e-07
-9.17588e-07
-9.35962e-07
-9.54698e-07
-9.73806e-07
-9.93294e-07
-1.01316e-06
-1.03342e-06
-1.05408e-06
-1.07515e-06
-1.09662e-06
-1.11851e-06
-1.14083e-06
-1.16357e-06
-1.18675e-06
-1.21037e-06
-1.23444e-06
-1.25895e-06
-1.28393e-06
-1.30936e-06
-1.33527e-06
-1.36164e-06
-1.38848e-06
-1.41582e-06
-1.44363e-06
-1.47191e-06
-1.50069e-06
-1.52998e-06
-1.55987e-06
-1.59047e-06
-1.62185e-06
-1.65403e-06
-1.68662e-06
-1.58023e-06
-1.61168e-06
-1.64433e-06
-1.6777e-06
-1.71174e-06
-1.74647e-06
-1.78191e-06
-1.81807e-06
-1.85497e-06
-1.89261e-06
-1.93102e-06
-1.97021e-06
-2.0102e-06
-2.051e-06
-2.09263e-06
-2.1351e-06
-2.17844e-06
-2.22265e-06
-2.26776e-06
-2.31379e-06
-2.36076e-06
-2.40867e-06
-2.45756e-06
-2.50744e-06
-2.55834e-06
-2.61026e-06
-2.66325e-06
-2.7173e-06
-2.77246e-06
-2.82873e-06
-2.88615e-06
-2.94473e-06
-3.0045e-06
-3.06548e-06
-3.1277e-06
-3.19119e-06
-3.25596e-06
-3.32205e-06
-3.38947e-06
-3.45827e-06
-3.52846e-06
-3.60008e-06
-3.67316e-06
-3.74771e-06
-3.82378e-06
-3.90139e-06
-3.98058e-06
-4.06137e-06
-4.14381e-06
-4.22792e-06
-4.31373e-06
-4.40129e-06
-4.49063e-06
-4.58177e-06
-4.67477e-06
-4.76966e-06
-4.86647e-06
-4.96524e-06
-5.06603e-06
-5.16885e-06
-5.27377e-06
-5.38081e-06
-5.49003e-06
-5.60146e-06
-5.71515e-06
-5.83116e-06
-5.94951e-06
-6.07027e-06
-6.19348e-06
-6.31919e-06
-6.44746e-06
-6.57832e-06
-6.71184e-06
)
;
    }
    inandouthalf41
    {
        type            cyclic;
        value           nonuniform List<scalar> 
50
(
6.00778e-06
6.00778e-06
6.00778e-06
6.00778e-06
6.00778e-06
6.00778e-06
6.00778e-06
6.00778e-06
6.00778e-06
6.00778e-06
6.00778e-06
6.00778e-06
6.00778e-06
6.00778e-06
6.00778e-06
6.00778e-06
6.00778e-06
6.00778e-06
6.00778e-06
6.00778e-06
6.00778e-06
6.00778e-06
6.00778e-06
6.00778e-06
6.00778e-06
6.00778e-06
6.00778e-06
6.00778e-06
6.00778e-06
6.00778e-06
6.00778e-06
6.00778e-06
6.00778e-06
6.00778e-06
6.00778e-06
6.00778e-06
6.00778e-06
6.00778e-06
6.00778e-06
6.00778e-06
6.00778e-06
6.00778e-06
6.00778e-06
6.00778e-06
6.00778e-06
6.00778e-06
6.00778e-06
6.00778e-06
6.00769e-06
6.00549e-06
)
;
    }
    inandouthalf42
    {
        type            cyclic;
        value           nonuniform List<scalar> 
50
(
-6.00778e-06
-6.00778e-06
-6.00778e-06
-6.00778e-06
-6.00778e-06
-6.00778e-06
-6.00778e-06
-6.00778e-06
-6.00778e-06
-6.00778e-06
-6.00778e-06
-6.00778e-06
-6.00778e-06
-6.00778e-06
-6.00778e-06
-6.00778e-06
-6.00778e-06
-6.00778e-06
-6.00778e-06
-6.00778e-06
-6.00778e-06
-6.00778e-06
-6.00778e-06
-6.00778e-06
-6.00778e-06
-6.00778e-06
-6.00778e-06
-6.00778e-06
-6.00778e-06
-6.00778e-06
-6.00778e-06
-6.00778e-06
-6.00778e-06
-6.00778e-06
-6.00778e-06
-6.00778e-06
-6.00778e-06
-6.00778e-06
-6.00778e-06
-6.00778e-06
-6.00778e-06
-6.00778e-06
-6.00778e-06
-6.00778e-06
-6.00778e-06
-6.00778e-06
-6.00778e-06
-6.00778e-06
-6.00769e-06
-6.00549e-06
)
;
    }
    top
    {
        type            symmetryPlane;
        value           uniform 0;
    }
    walls
    {
        type            fixedValue;
        value           uniform 0;
    }
    frontAndBackPlanes
    {
        type            empty;
        value           nonuniform 0();
    }
}


// ************************************************************************* //
