/*--------------------------------*- C++ -*----------------------------------*\
| =========                 |                                                 |
| \\      /  F ield         | OpenFOAM: The Open Source CFD Toolbox           |
|  \\    /   O peration     | Version:  2.4.x                                 |
|   \\  /    A nd           | Web:      www.OpenFOAM.org                      |
|    \\/     M anipulation  |                                                 |
\*---------------------------------------------------------------------------*/
FoamFile
{
    version     2.0;
    format      ascii;
    class       volVectorField;
    location    "4.1";
    object      susb;
}
// * * * * * * * * * * * * * * * * * * * * * * * * * * * * * * * * * * * * * //

dimensions      [0 1 -2 0 0 0 0];

internalField   nonuniform List<vector> 
360
(
(0 3.65861e-18 0)
(0 4.74597e-18 0)
(0 8.18106e-19 0)
(0 -6.01542e-19 0)
(-3.68066e-31 -5.69947e-19 0)
(-3.67985e-31 -4.25008e-19 0)
(-3.67914e-31 -3.91656e-19 0)
(0 -3.71187e-19 0)
(-3.67781e-31 -3.63856e-19 0)
(0 -3.8188e-19 0)
(-3.67644e-31 -3.99043e-19 0)
(0 -4.08795e-19 0)
(-7.34995e-31 -4.12605e-19 0)
(0 -4.12617e-19 0)
(0 -4.16025e-19 0)
(0 -4.21534e-19 0)
(0 -4.25319e-19 0)
(-3.67122e-31 -4.25721e-19 0)
(0 -4.26301e-19 0)
(0 -4.20662e-19 0)
(0 -4.14121e-19 0)
(-3.66822e-31 -4.12245e-19 0)
(0 -4.1058e-19 0)
(0 -4.16383e-19 0)
(0 -4.33147e-19 0)
(-7.33039e-31 -4.64826e-19 0)
(0 -5.21239e-19 0)
(0 -5.99454e-19 0)
(0 -6.83433e-19 0)
(0 -7.43511e-19 0)
(0 -7.33989e-19 0)
(0 -6.13476e-19 0)
(0 -4.29675e-19 0)
(0 -2.54805e-19 0)
(0 -1.3769e-19 0)
(3.65624e-31 -8.93488e-20 0)
(0 -7.59801e-20 0)
(0 -8.25322e-20 0)
(0 -8.03485e-20 0)
(0 -8.62945e-20 0)
(0 -9.87159e-20 0)
(0 -9.80803e-20 0)
(3.65515e-31 -1.1047e-19 0)
(0 -1.22368e-19 0)
(0 -1.27769e-19 0)
(0 -1.39499e-19 0)
(0 -1.44211e-19 0)
(0 -1.54935e-19 0)
(0 -1.77622e-19 0)
(0 -1.86942e-19 0)
(3.65299e-31 -1.9641e-19 0)
(0 -2.11898e-19 0)
(0 -2.26306e-19 0)
(0 -2.39645e-19 0)
(0 -2.57873e-19 0)
(0 -2.74493e-19 0)
(0 -2.89554e-19 0)
(0 -3.08767e-19 0)
(0 -3.19346e-19 0)
(0 -3.3881e-19 0)
(0 -3.54085e-19 0)
(0 -3.64816e-19 0)
(0 -3.76932e-19 0)
(0 -3.84423e-19 0)
(0 -3.93658e-19 0)
(0 -4.04999e-19 0)
(0 -4.19636e-19 0)
(0 -4.33493e-19 0)
(0 -4.46574e-19 0)
(0 -4.65957e-19 0)
(0 -4.88316e-19 0)
(0 -5.00174e-19 0)
(0 -5.14925e-19 0)
(0 -5.31851e-19 0)
(0 -5.45171e-19 0)
(0 -5.5628e-19 0)
(0 -5.65253e-19 0)
(0 -5.78435e-19 0)
(0 -5.92397e-19 0)
(0 -6.05721e-19 0)
(0 -6.20814e-19 0)
(0 -6.38316e-19 0)
(0 -6.55074e-19 0)
(0 -6.71706e-19 0)
(0 -6.879e-19 0)
(0 -7.03636e-19 0)
(0 -7.18647e-19 0)
(0 -7.32919e-19 0)
(0 -7.48029e-19 0)
(0 -7.63775e-19 0)
(0 -7.79985e-19 0)
(0 -7.97368e-19 0)
(0 -8.15758e-19 0)
(0 -8.34559e-19 0)
(0 -8.53818e-19 0)
(0 -8.73451e-19 0)
(0 -8.93357e-19 0)
(0 -9.13618e-19 0)
(0 -9.34425e-19 0)
(0 -9.55867e-19 0)
(0 -9.78016e-19 0)
(0 -1.001e-18 0)
(0 -1.02484e-18 0)
(0 -1.04952e-18 0)
(0 -1.0751e-18 0)
(0 -1.10163e-18 0)
(0 -1.12918e-18 0)
(0 -1.15782e-18 0)
(0 -1.18764e-18 0)
(0 -1.2187e-18 0)
(0 -1.25109e-18 0)
(0 -1.28485e-18 0)
(0 -1.32007e-18 0)
(0 -1.35681e-18 0)
(0 -1.39515e-18 0)
(0 -1.43518e-18 0)
(0 -1.47697e-18 0)
(0 -1.52064e-18 0)
(0 -1.56629e-18 0)
(0 -1.61404e-18 0)
(0 -1.66399e-18 0)
(0 -1.71623e-18 0)
(0 -1.77084e-18 0)
(0 -1.828e-18 0)
(0 -1.8881e-18 0)
(0 -1.95193e-18 0)
(0 -2.02062e-18 0)
(0 -2.09523e-18 0)
(0 -2.17587e-18 0)
(0 -2.26116e-18 0)
(0 -2.34982e-18 0)
(0 -2.44582e-18 0)
(0 -4.69544e-18 0)
(0 -6.65272e-18 0)
(0 -6.80191e-18 0)
(0 -1.16455e-17 0)
(0 -8.04506e-17 0)
(0 -8.02692e-16 0)
(0 -9.01811e-15 0)
(0 -1.08343e-13 0)
(0 -1.30569e-12 0)
(0 -1.85271e-11 0)
(0 -3.52083e-10 0)
(0 -7.86997e-09 0)
(0 -2.4458e-07 0)
(0 -1.35587e-05 0)
(0 -0.0017092 0)
(0 -0.79764 0)
(0 -3.10943 0)
(0 -1.84999 0)
(0 -1.04862 0)
(0 -0.875462 0)
(0 -0.766211 0)
(0 -0.668687 0)
(0 -0.573468 0)
(0 -0.482256 0)
(0 -0.398418 0)
(0 -0.324323 0)
(0 -0.260924 0)
(0 -0.208008 0)
(0 -0.164618 0)
(0 -0.129486 0)
(0 -0.101299 0)
(0 -0.0788766 0)
(0 -0.0612344 0)
(0 -0.0475093 0)
(0 -0.0367734 0)
(0 -0.0280627 0)
(0 -0.0207768 0)
(0 -0.0148852 0)
(0 -0.01052 0)
(0 -0.00754624 0)
(0 -0.00560302 0)
(0 -0.00432988 0)
(0 -0.00347136 0)
(0 -0.00286976 0)
(0 -0.00243149 0)
(0 -0.00210128 0)
(0 -0.00184653 0)
(0 -0.00164757 0)
(0 -0.0014921 0)
(0 -0.00137224 0)
(0 -0.00128231 0)
(0 -0.00121687 0)
(0 -0.00116842 0)
(0 -0.00112354 0)
(0 -0.00106025 0)
(0 -0.000954181 0)
(0 -0.000798715 0)
(0 -0.000623686 0)
(0 -0.000479911 0)
(0 -0.000392658 0)
(0 -0.00034088 0)
(0 -0.000291835 0)
(0 -0.000240426 0)
(0 -0.00019992 0)
(0 -0.000171944 0)
(0 -0.000147258 0)
(0 -0.000122849 0)
(0 -0.000102361 0)
(0 -8.86272e-05 0)
(0 -7.89403e-05 0)
(-2.0787e-20 -6.67091e-05 0)
(0 -5.24186e-05 0)
(0 -4.4112e-05 0)
(1.83626e-20 -4.16288e-05 0)
(0 -3.56337e-05 0)
(-8.31823e-21 -2.59902e-05 0)
(0 -2.16499e-05 0)
(7.4043e-21 -2.07037e-05 0)
(0 -1.62315e-05 0)
(0 -1.19419e-05 0)
(0 -1.06515e-05 0)
(2.87353e-21 -9.08766e-06 0)
(0 -7.25972e-06 0)
(0 -7.09868e-06 0)
(0 -6.69103e-06 0)
(0 -4.8932e-06 0)
(0 -4.24094e-06 0)
(-1.47006e-21 -4.43888e-06 0)
(0 -3.44561e-06 0)
(-7.08434e-22 -2.61961e-06 0)
(0 -2.48357e-06 0)
(0 -1.94022e-06 0)
(0 -1.60429e-06 0)
(0 -1.4049e-06 0)
(0 -9.62067e-07 0)
(0 -8.32702e-07 0)
(2.53316e-22 -7.31615e-07 0)
(1.16122e-22 -4.66955e-07 0)
(0 -3.32576e-07 0)
(0 -1.92193e-07 0)
(0 -7.89235e-08 0)
(0 -7.26369e-08 0)
(0 -9.98804e-08 0)
(0 -1.15601e-07 0)
(0 -5.95785e-08 0)
(0 -4.60249e-09 0)
(0 -1.24656e-14 0)
(0 -7.54037e-20 0)
(0 -4.88677e-22 0)
(0 -2.33129e-24 0)
(0 -2.54404e-26 0)
(-5.79073e-43 -4.28482e-28 0)
(2.87549e-45 -6.61139e-30 0)
(0 -7.82742e-32 0)
(0 -8.50709e-33 0)
(-1.68422e-48 -3.99664e-33 0)
(0 -1.55199e-33 0)
(0 -7.90868e-34 0)
(-7.92847e-49 -6.99919e-34 0)
(0 -1.07347e-33 0)
(0 -1.64458e-33 0)
(0 -1.94262e-33 0)
(0 -1.37265e-33 0)
(0 -5.55638e-34 0)
(0 -2.32907e-34 0)
(0 -1.34313e-34 0)
(0 -1.41463e-34 0)
(0 -1.76674e-34 0)
(0 -1.2627e-34 0)
(0 -4.34416e-35 0)
(0 -1.421e-35 0)
(0 -5.6552e-36 0)
(0 -2.60468e-36 0)
(0 -1.30366e-36 0)
(0 -7.24625e-37 0)
(0 -4.84725e-37 0)
(0 -3.47788e-37 0)
(0 -2.02553e-37 0)
(0 -9.08032e-38 0)
(0 -4.36622e-38 0)
(0 -2.3264e-38 0)
(0 -1.36872e-38 0)
(0 -7.41633e-39 0)
(0 -3.44536e-39 0)
(0 -1.68934e-39 0)
(0 -8.31135e-40 0)
(0 -4.01321e-40 0)
(0 -1.89447e-40 0)
(0 -8.73129e-41 0)
(0 -3.92436e-41 0)
(0 -1.71807e-41 0)
(0 -7.31739e-42 0)
(0 -3.02792e-42 0)
(0 -1.21562e-42 0)
(8.95502e-59 -4.72791e-43 0)
(0 -1.77854e-43 0)
(0 -6.45999e-44 0)
(0 -2.2613e-44 0)
(0 -7.61297e-45 0)
(0 -2.45951e-45 0)
(0 -7.60622e-46 0)
(0 -2.24558e-46 0)
(0 -6.30966e-47 0)
(0 -1.68156e-47 0)
(0 -4.23422e-48 0)
(0 -1.00293e-48 0)
(0 -2.22328e-49 0)
(-4.11054e-66 -4.58538e-50 0)
(0 -8.73735e-51 0)
(0 -1.52533e-51 0)
(0 -2.4148e-52 0)
(0 -3.42269e-53 0)
(0 -4.27225e-54 0)
(0 -4.59374e-55 0)
(0 -4.12481e-56 0)
(0 -2.95058e-57 0)
(0 -1.55178e-58 0)
(0 -5.06892e-60 0)
(0 -5.75544e-62 0)
(0 -1.06191e-64 0)
(0 -1.70584e-66 0)
(0 -1.35946e-68 0)
(0 -2.06633e-79 0)
(0 -1.59382e-90 0)
(0 -9.46354e-102 0)
(0 -4.0631e-113 0)
(0 -1.57743e-124 0)
(0 -5.06054e-136 0)
(0 -2.02079e-147 0)
(0 -1.52058e-155 0)
(0 -3.69706e-166 0)
(0 -5.23642e-174 0)
(0 -1.20093e-184 0)
(0 -1.80141e-192 0)
(0 -5.16894e-203 0)
(0 -6.19562e-211 0)
(0 -2.33679e-221 0)
(0 -2.13255e-229 0)
(0 -1.59807e-239 0)
(0 -7.4076e-248 0)
(0 -1.06864e-257 0)
(0 -2.61021e-266 0)
(0 -5.39507e-276 0)
(0 -9.32741e-285 0)
(0 -2.55573e-294 0)
(0 -3.37893e-303 0)
(0 -1.12692e-312 0)
(0 -1.24505e-321 0)
(0 -0 0)
(0 0 0)
(0 0 0)
(0 0 0)
(0 0 0)
(0 0 0)
(0 0 0)
(0 0 0)
(0 0 0)
(0 0 0)
(0 0 0)
(0 0 0)
(0 0 0)
(0 0 0)
(0 0 0)
(0 0 0)
(0 0 0)
(0 0 0)
(0 0 0)
(0 0 0)
)
;

boundaryField
{
    inandouthalf11
    {
        type            cyclic;
    }
    inandouthalf12
    {
        type            cyclic;
    }
    inandouthalf21
    {
        type            cyclic;
    }
    inandouthalf22
    {
        type            cyclic;
    }
    inandouthalf31
    {
        type            cyclic;
    }
    inandouthalf32
    {
        type            cyclic;
    }
    inandouthalf41
    {
        type            cyclic;
    }
    inandouthalf42
    {
        type            cyclic;
    }
    top
    {
        type            symmetryPlane;
    }
    walls
    {
        type            zeroGradient;
    }
    frontAndBackPlanes
    {
        type            empty;
    }
}


// ************************************************************************* //
