/*--------------------------------*- C++ -*----------------------------------*\
| =========                 |                                                 |
| \\      /  F ield         | OpenFOAM: The Open Source CFD Toolbox           |
|  \\    /   O peration     | Version:  2.4.x                                 |
|   \\  /    A nd           | Web:      www.OpenFOAM.org                      |
|    \\/     M anipulation  |                                                 |
\*---------------------------------------------------------------------------*/
FoamFile
{
    version     2.0;
    format      ascii;
    class       volTensorField;
    location    "4.1";
    object      Tauf;
}
// * * * * * * * * * * * * * * * * * * * * * * * * * * * * * * * * * * * * * //

dimensions      [0 2 -2 0 0 0 0];

internalField   nonuniform List<tensor> 
360
(
(0 -1.74399e-07 0 -1.74399e-07 1.24084e-09 0 0 0 0)
(0 2.12395e-10 0 2.12395e-10 1.72445e-09 0 0 0 0)
(0 -6.33713e-11 0 -6.33713e-11 1.87087e-09 0 0 0 0)
(0 -2.01082e-10 0 -2.01082e-10 1.7428e-09 0 0 0 0)
(2.58494e-23 -1.95383e-10 0 -1.95383e-10 1.69389e-09 0 0 0 0)
(2.58494e-23 -1.83262e-10 0 -1.83262e-10 1.71637e-09 0 0 0 0)
(1.29247e-23 -1.83556e-10 0 -1.83556e-10 1.75684e-09 0 0 0 0)
(0 -1.8423e-10 0 -1.8423e-10 1.78733e-09 0 0 0 0)
(1.29247e-23 -1.8522e-10 0 -1.8522e-10 1.80442e-09 0 0 0 0)
(0 -1.88475e-10 0 -1.88475e-10 1.81653e-09 0 0 0 0)
(1.29247e-23 -1.91931e-10 0 -1.91931e-10 1.8319e-09 0 0 0 0)
(0 -1.9514e-10 0 -1.9514e-10 1.85333e-09 0 0 0 0)
(2.58494e-23 -1.98104e-10 0 -1.98104e-10 1.8792e-09 0 0 0 0)
(0 -2.0074e-10 0 -2.0074e-10 1.90579e-09 0 0 0 0)
(0 -2.0353e-10 0 -2.0353e-10 1.92983e-09 0 0 0 0)
(0 -2.06132e-10 0 -2.06132e-10 1.94881e-09 0 0 0 0)
(0 -2.07928e-10 0 -2.07928e-10 1.96019e-09 0 0 0 0)
(2.58494e-23 -2.08522e-10 0 -2.08522e-10 1.96135e-09 0 0 0 0)
(0 -2.08163e-10 0 -2.08163e-10 1.95109e-09 0 0 0 0)
(0 -2.06246e-10 0 -2.06246e-10 1.93032e-09 0 0 0 0)
(0 -2.03729e-10 0 -2.03729e-10 1.90376e-09 0 0 0 0)
(2.58494e-23 -2.02021e-10 0 -2.02021e-10 1.88129e-09 0 0 0 0)
(0 -2.0183e-10 0 -2.0183e-10 1.87675e-09 0 0 0 0)
(0 -2.05417e-10 0 -2.05417e-10 1.90789e-09 0 0 0 0)
(0 -2.14962e-10 0 -2.14962e-10 1.99633e-09 0 0 0 0)
(1.29247e-23 -2.32956e-10 0 -2.32956e-10 2.16619e-09 0 0 0 0)
(0 -2.62417e-10 0 -2.62417e-10 2.43908e-09 0 0 0 0)
(0 -3.03432e-10 0 -3.03432e-10 2.81406e-09 0 0 0 0)
(0 -3.49458e-10 0 -3.49458e-10 3.22557e-09 0 0 0 0)
(0 -3.82429e-10 0 -3.82429e-10 3.50215e-09 0 0 0 0)
(0 -3.74021e-10 0 -3.74021e-10 3.40614e-09 0 0 0 0)
(0 -3.0586e-10 0 -3.0586e-10 2.81313e-09 0 0 0 0)
(0 -2.00372e-10 0 -2.00372e-10 1.89212e-09 0 0 0 0)
(0 -1.03638e-10 0 -1.03638e-10 1.01097e-09 0 0 0 0)
(0 -4.41368e-11 0 -4.41368e-11 4.27656e-10 0 0 0 0)
(-1.29247e-23 -1.89743e-11 0 -1.89743e-11 1.47237e-10 0 0 0 0)
(0 -1.09787e-11 0 -1.09787e-11 4.40953e-11 0 0 0 0)
(0 -9.7824e-12 0 -9.7824e-12 1.2812e-11 0 0 0 0)
(0 -9.00059e-12 0 -9.00059e-12 3.61265e-12 0 0 0 0)
(0 -9.46342e-12 0 -9.46342e-12 8.58449e-13 0 0 0 0)
(0 -1.07373e-11 0 -1.07373e-11 9.77358e-14 0 0 0 0)
(0 -1.06703e-11 0 -1.06703e-11 -4.60779e-13 0 0 0 0)
(-2.58494e-23 -1.20195e-11 0 -1.20195e-11 -3.67921e-13 0 0 0 0)
(0 -1.33361e-11 0 -1.33361e-11 -2.20209e-13 0 0 0 0)
(0 -1.39709e-11 0 -1.39709e-11 -1.58925e-13 0 0 0 0)
(0 -1.52816e-11 0 -1.52816e-11 1.81651e-13 0 0 0 0)
(0 -1.58382e-11 0 -1.58382e-11 1.87379e-13 0 0 0 0)
(0 -1.70259e-11 0 -1.70259e-11 8.03155e-14 0 0 0 0)
(0 -1.94786e-11 0 -1.94786e-11 1.19962e-13 0 0 0 0)
(0 -2.04962e-11 0 -2.04962e-11 -2.50249e-13 0 0 0 0)
(-2.58494e-23 -2.15234e-11 0 -2.15234e-11 -5.50142e-13 0 0 0 0)
(0 -2.31918e-11 0 -2.31918e-11 -7.89032e-13 0 0 0 0)
(0 -2.47471e-11 0 -2.47471e-11 -1.11172e-12 0 0 0 0)
(0 -2.61927e-11 0 -2.61927e-11 -1.48473e-12 0 0 0 0)
(0 -2.81663e-11 0 -2.81663e-11 -1.73359e-12 0 0 0 0)
(0 -2.99747e-11 0 -2.99747e-11 -2.02026e-12 0 0 0 0)
(0 -3.16226e-11 0 -3.16226e-11 -2.33507e-12 0 0 0 0)
(0 -3.37194e-11 0 -3.37194e-11 -2.42018e-12 0 0 0 0)
(0 -3.48977e-11 0 -3.48977e-11 -2.78843e-12 0 0 0 0)
(0 -3.70293e-11 0 -3.70293e-11 -2.85118e-12 0 0 0 0)
(0 -3.8715e-11 0 -3.8715e-11 -3.02711e-12 0 0 0 0)
(0 -3.99142e-11 0 -3.99142e-11 -3.2164e-12 0 0 0 0)
(0 -4.12599e-11 0 -4.12599e-11 -3.26198e-12 0 0 0 0)
(0 -4.21081e-11 0 -4.21081e-11 -3.42733e-12 0 0 0 0)
(0 -4.31409e-11 0 -4.31409e-11 -3.55405e-12 0 0 0 0)
(0 -4.43992e-11 0 -4.43992e-11 -3.75159e-12 0 0 0 0)
(0 -4.60131e-11 0 -4.60131e-11 -3.93776e-12 0 0 0 0)
(0 -4.7547e-11 0 -4.7547e-11 -4.16411e-12 0 0 0 0)
(0 -4.90033e-11 0 -4.90033e-11 -4.46929e-12 0 0 0 0)
(0 -5.11444e-11 0 -5.11444e-11 -4.71712e-12 0 0 0 0)
(0 -5.36144e-11 0 -5.36144e-11 -4.8355e-12 0 0 0 0)
(0 -5.49639e-11 0 -5.49639e-11 -5.13067e-12 0 0 0 0)
(0 -5.66308e-11 0 -5.66308e-11 -5.24186e-12 0 0 0 0)
(0 -5.85377e-11 0 -5.85377e-11 -5.30455e-12 0 0 0 0)
(0 -6.00603e-11 0 -6.00603e-11 -5.40109e-12 0 0 0 0)
(0 -6.13457e-11 0 -6.13457e-11 -5.43662e-12 0 0 0 0)
(0 -6.24003e-11 0 -6.24003e-11 -5.54256e-12 0 0 0 0)
(0 -6.39081e-11 0 -6.39081e-11 -5.6009e-12 0 0 0 0)
(0 -6.55004e-11 0 -6.55004e-11 -5.72381e-12 0 0 0 0)
(0 -6.70251e-11 0 -6.70251e-11 -5.90523e-12 0 0 0 0)
(0 -6.87437e-11 0 -6.87437e-11 -6.10039e-12 0 0 0 0)
(0 -7.07278e-11 0 -7.07278e-11 -6.28277e-12 0 0 0 0)
(0 -7.26376e-11 0 -7.26376e-11 -6.50064e-12 0 0 0 0)
(0 -7.45402e-11 0 -7.45402e-11 -6.69054e-12 0 0 0 0)
(0 -7.64016e-11 0 -7.64016e-11 -6.86675e-12 0 0 0 0)
(0 -7.82186e-11 0 -7.82186e-11 -7.02462e-12 0 0 0 0)
(0 -7.9961e-11 0 -7.9961e-11 -7.17233e-12 0 0 0 0)
(0 -8.16258e-11 0 -8.16258e-11 -7.33722e-12 0 0 0 0)
(0 -8.33837e-11 0 -8.33837e-11 -7.50352e-12 0 0 0 0)
(0 -8.52126e-11 0 -8.52126e-11 -7.69783e-12 0 0 0 0)
(0 -8.70939e-11 0 -8.70939e-11 -7.9301e-12 0 0 0 0)
(0 -8.91059e-11 0 -8.91059e-11 -8.18542e-12 0 0 0 0)
(0 -9.12312e-11 0 -9.12312e-11 -8.46451e-12 0 0 0 0)
(0 -9.34062e-11 0 -9.34062e-11 -8.76913e-12 0 0 0 0)
(0 -9.56363e-11 0 -9.56363e-11 -9.08626e-12 0 0 0 0)
(0 -9.79129e-11 0 -9.79129e-11 -9.41528e-12 0 0 0 0)
(0 -1.00225e-10 0 -1.00225e-10 -9.75751e-12 0 0 0 0)
(0 -1.02582e-10 0 -1.02582e-10 -1.01146e-11 0 0 0 0)
(0 -1.05005e-10 0 -1.05005e-10 -1.04884e-11 0 0 0 0)
(0 -1.07504e-10 0 -1.07504e-10 -1.08833e-11 0 0 0 0)
(0 -1.10086e-10 0 -1.10086e-10 -1.13029e-11 0 0 0 0)
(0 -1.12767e-10 0 -1.12767e-10 -1.1748e-11 0 0 0 0)
(0 -1.15548e-10 0 -1.15548e-10 -1.22205e-11 0 0 0 0)
(0 -1.18431e-10 0 -1.18431e-10 -1.27223e-11 0 0 0 0)
(0 -1.21419e-10 0 -1.21419e-10 -1.32539e-11 0 0 0 0)
(0 -1.24522e-10 0 -1.24522e-10 -1.38168e-11 0 0 0 0)
(0 -1.27746e-10 0 -1.27746e-10 -1.44127e-11 0 0 0 0)
(0 -1.31101e-10 0 -1.31101e-10 -1.5043e-11 0 0 0 0)
(0 -1.34597e-10 0 -1.34597e-10 -1.57088e-11 0 0 0 0)
(0 -1.38243e-10 0 -1.38243e-10 -1.64113e-11 0 0 0 0)
(0 -1.42048e-10 0 -1.42048e-10 -1.71508e-11 0 0 0 0)
(0 -1.46022e-10 0 -1.46022e-10 -1.79275e-11 0 0 0 0)
(0 -1.50173e-10 0 -1.50173e-10 -1.8741e-11 0 0 0 0)
(0 -1.54513e-10 0 -1.54513e-10 -1.9591e-11 0 0 0 0)
(0 -1.59051e-10 0 -1.59051e-10 -2.04767e-11 0 0 0 0)
(0 -1.638e-10 0 -1.638e-10 -2.13974e-11 0 0 0 0)
(0 -1.68772e-10 0 -1.68772e-10 -2.23527e-11 0 0 0 0)
(0 -1.73982e-10 0 -1.73982e-10 -2.33424e-11 0 0 0 0)
(0 -1.79446e-10 0 -1.79446e-10 -2.43673e-11 0 0 0 0)
(0 -1.85179e-10 0 -1.85179e-10 -2.54294e-11 0 0 0 0)
(0 -1.91197e-10 0 -1.91197e-10 -2.65322e-11 0 0 0 0)
(0 -1.9751e-10 0 -1.9751e-10 -2.76818e-11 0 0 0 0)
(0 -2.04131e-10 0 -2.04131e-10 -2.88879e-11 0 0 0 0)
(0 -2.11079e-10 0 -2.11079e-10 -3.01664e-11 0 0 0 0)
(0 -2.18402e-10 0 -2.18402e-10 -3.15402e-11 0 0 0 0)
(0 -2.26187e-10 0 -2.26187e-10 -3.30396e-11 0 0 0 0)
(0 -2.34566e-10 0 -2.34566e-10 -3.4696e-11 0 0 0 0)
(0 -2.4366e-10 0 -2.4366e-10 -3.65316e-11 0 0 0 0)
(0 -2.53486e-10 0 -2.53486e-10 -3.8552e-11 0 0 0 0)
(0 -2.63887e-10 0 -2.63887e-10 -4.07618e-11 0 0 0 0)
(0 -2.74723e-10 0 -2.74723e-10 -4.32174e-11 0 0 0 0)
(0 -2.86458e-10 0 -2.86458e-10 -4.60439e-11 0 0 0 0)
(0 -3.00547e-10 0 -3.00547e-10 -4.92916e-11 0 0 0 0)
(0 -3.18079e-10 0 -3.18079e-10 -5.27923e-11 0 0 0 0)
(0 -3.37396e-10 0 -3.37396e-10 -5.64378e-11 0 0 0 0)
(0 -3.55731e-10 0 -3.55731e-10 -6.05953e-11 0 0 0 0)
(0 -3.75625e-10 0 -3.75625e-10 -6.61033e-11 0 0 0 0)
(0 -4.07686e-10 0 -4.07686e-10 -7.34889e-11 0 0 0 0)
(0 -4.60385e-10 0 -4.60385e-10 -8.06904e-11 0 0 0 0)
(0 -5.13665e-10 0 -5.13665e-10 -8.45876e-11 0 0 0 0)
(0 -5.22276e-10 0 -5.22276e-10 -9.62646e-11 0 0 0 0)
(0 -5.57502e-10 0 -5.57502e-10 -1.13344e-10 0 0 0 0)
(0 -6.96457e-10 0 -6.96457e-10 -1.30021e-10 0 0 0 0)
(0 -8.78405e-10 0 -8.78405e-10 -1.87538e-10 0 0 0 0)
(0 -1.30416e-09 0 -1.30416e-09 -4.98355e-10 0 0 0 0)
(0 -3.43682e-09 0 -3.43682e-09 4.42847e-09 0 0 0 0)
(0 -4.61173e-07 0 -4.61173e-07 -3.48307e-08 0 0 0 0)
(0 -0.00012338 0 -0.00012338 -5.69487e-07 0 0 0 0)
(0 -0.00134653 0 -0.00134653 -3.85579e-06 0 0 0 0)
(0 -0.00319256 0 -0.00319256 -2.7528e-06 0 0 0 0)
(0 -0.00361502 0 -0.00361502 1.6114e-06 0 0 0 0)
(0 -0.00372418 0 -0.00372418 1.56853e-06 0 0 0 0)
(0 -0.00368692 0 -0.00368692 2.37867e-06 0 0 0 0)
(0 -0.00357177 0 -0.00357177 3.07503e-06 0 0 0 0)
(0 -0.00341682 0 -0.00341682 3.57527e-06 0 0 0 0)
(0 -0.00324285 0 -0.00324285 3.86256e-06 0 0 0 0)
(0 -0.00306099 0 -0.00306099 3.95256e-06 0 0 0 0)
(0 -0.00287684 0 -0.00287684 3.87479e-06 0 0 0 0)
(0 -0.00269305 0 -0.00269305 3.66791e-06 0 0 0 0)
(0 -0.00251074 0 -0.00251074 3.3725e-06 0 0 0 0)
(0 -0.00233038 0 -0.00233038 3.02495e-06 0 0 0 0)
(0 -0.00215221 0 -0.00215221 2.65467e-06 0 0 0 0)
(0 -0.00197652 0 -0.00197652 2.28479e-06 0 0 0 0)
(0 -0.0018037 0 -0.0018037 1.93444e-06 0 0 0 0)
(0 -0.00163439 0 -0.00163439 1.61931e-06 0 0 0 0)
(0 -0.00146945 0 -0.00146945 1.34669e-06 0 0 0 0)
(0 -0.00131 0 -0.00131 1.10837e-06 0 0 0 0)
(0 -0.00115737 0 -0.00115737 8.85954e-07 0 0 0 0)
(0 -0.00101302 0 -0.00101302 6.71306e-07 0 0 0 0)
(0 -0.00087832 0 -0.00087832 4.77641e-07 0 0 0 0)
(0 -0.000754319 0 -0.000754319 3.24611e-07 0 0 0 0)
(0 -0.000641452 0 -0.000641452 2.18401e-07 0 0 0 0)
(0 -0.000539495 0 -0.000539495 1.50251e-07 0 0 0 0)
(0 -0.000447692 0 -0.000447692 1.07036e-07 0 0 0 0)
(0 -0.000364983 0 -0.000364983 7.86841e-08 0 0 0 0)
(0 -0.000290212 0 -0.000290212 5.92581e-08 0 0 0 0)
(0 -0.000222265 0 -0.000222265 4.54782e-08 0 0 0 0)
(0 -0.000160147 0 -0.000160147 3.54639e-08 0 0 0 0)
(0 -0.000103005 0 -0.000103005 2.80851e-08 0 0 0 0)
(0 -5.01329e-05 0 -5.01329e-05 2.26429e-08 0 0 0 0)
(0 -9.58497e-07 0 -9.58497e-07 1.86954e-08 0 0 0 0)
(0 4.49792e-05 0 4.49792e-05 1.59548e-08 0 0 0 0)
(0 8.80471e-05 0 8.80471e-05 1.42225e-08 0 0 0 0)
(0 0.000128537 0 0.000128537 1.3333e-08 0 0 0 0)
(0 0.000166683 0 0.000166683 1.30862e-08 0 0 0 0)
(0 0.000202672 0 0.000202672 1.31668e-08 0 0 0 0)
(0 0.000236655 0 0.000236655 1.31049e-08 0 0 0 0)
(0 0.000268753 0 0.000268753 1.24078e-08 0 0 0 0)
(0 0.000299062 0 0.000299062 1.08873e-08 0 0 0 0)
(0 0.000327658 0 0.000327658 8.88704e-09 0 0 0 0)
(0 0.000354603 0 0.000354603 7.057e-09 0 0 0 0)
(0 0.000379952 0 0.000379952 5.80318e-09 0 0 0 0)
(0 0.000403758 0 0.000403758 5.01133e-09 0 0 0 0)
(0 0.000426068 0 0.000426068 4.3472e-09 0 0 0 0)
(0 0.000446926 0 0.000446926 3.68081e-09 0 0 0 0)
(0 0.000466371 0 0.000466371 3.09948e-09 0 0 0 0)
(0 0.000484439 0 0.000484439 2.65339e-09 0 0 0 0)
(0 0.000501165 0 0.000501165 2.28117e-09 0 0 0 0)
(0 0.000516581 0 0.000516581 1.93498e-09 0 0 0 0)
(0 0.000530718 0 0.000530718 1.6389e-09 0 0 0 0)
(0 0.000543608 0 0.000543608 1.42098e-09 0 0 0 0)
(0 0.000555394 0 0.000555394 1.24849e-09 0 0 0 0)
(1.5737e-17 0.000566173 0 0.000566173 1.06484e-09 0 0 0 0)
(0 0.000575904 0 0.000575904 8.78199e-10 0 0 0 0)
(0 0.000584541 0 0.000584541 7.4724e-10 0 0 0 0)
(-1.47958e-17 0.000592035 0 0.000592035 6.69274e-10 0 0 0 0)
(0 0.000598338 0 0.000598338 5.77795e-10 0 0 0 0)
(2.82527e-17 0.000603399 0 0.000603399 4.65296e-10 0 0 0 0)
(0 0.000607166 0 0.000607166 3.86466e-10 0 0 0 0)
(-2.68487e-17 0.000609587 0 0.000609587 3.41575e-10 0 0 0 0)
(0 0.000610606 0 0.000610606 2.88402e-10 0 0 0 0)
(0 0.000610169 0 0.000610169 2.32011e-10 0 0 0 0)
(0 0.000608221 0 0.000608221 1.93375e-10 0 0 0 0)
(-2.38478e-17 0.000604704 0 0.000604704 1.61359e-10 0 0 0 0)
(0 0.000599563 0 0.000599563 1.30429e-10 0 0 0 0)
(0 0.000592741 0 0.000592741 1.09104e-10 0 0 0 0)
(0 0.000584182 0 0.000584182 9.11554e-11 0 0 0 0)
(0 0.000573831 0 0.000573831 7.07176e-11 0 0 0 0)
(0 0.000561636 0 0.000561636 5.60749e-11 0 0 0 0)
(1.88625e-17 0.000547544 0 0.000547544 4.78464e-11 0 0 0 0)
(0 0.00053151 0 0.00053151 3.84747e-11 0 0 0 0)
(1.707e-17 0.000513491 0 0.000513491 2.90443e-11 0 0 0 0)
(0 0.000493449 0 0.000493449 2.27427e-11 0 0 0 0)
(1.52116e-17 0.000471358 0 0.000471358 1.78575e-11 0 0 0 0)
(0 0.0004472 0 0.0004472 1.36596e-11 0 0 0 0)
(0 0.000420971 0 0.000420971 1.03343e-11 0 0 0 0)
(0 0.000392685 0 0.000392685 7.48507e-12 0 0 0 0)
(0 0.00036238 0 0.00036238 5.41831e-12 0 0 0 0)
(-1.02803e-17 0.000330122 0 0.000330122 4.03868e-12 0 0 0 0)
(-9.24648e-18 0.000296017 0 0.000296017 2.72113e-12 0 0 0 0)
(0 0.000260226 0 0.000260226 -1.71141e-13 0 0 0 0)
(0 0.000222978 0 0.000222978 5.69438e-12 0 0 0 0)
(0 0.000184606 0 0.000184606 -7.09489e-12 0 0 0 0)
(0 0.00014559 0 0.00014559 1.01124e-11 0 0 0 0)
(0 0.000106648 0 0.000106648 -1.0464e-11 0 0 0 0)
(0 6.88473e-05 0 6.88473e-05 9.06394e-12 0 0 0 0)
(0 3.32619e-05 0 3.32619e-05 -5.1801e-12 0 0 0 0)
(0 6.02798e-06 0 6.02798e-06 1.80386e-12 0 0 0 0)
(0 3.30202e-07 0 3.30202e-07 -5.34199e-13 0 0 0 0)
(0 1.88255e-08 0 1.88255e-08 4.21185e-13 0 0 0 0)
(0 5.22482e-09 0 5.22482e-09 -4.1321e-13 0 0 0 0)
(0 4.28626e-09 0 4.28626e-09 4.06226e-13 0 0 0 0)
(0 3.61156e-09 0 3.61156e-09 -4.00428e-13 0 0 0 0)
(1.78492e-19 2.9452e-09 0 2.9452e-09 3.94537e-13 0 0 0 0)
(-8.74705e-20 2.37597e-09 0 2.37597e-09 -3.89667e-13 0 0 0 0)
(0 1.92566e-09 0 1.92566e-09 3.84612e-13 0 0 0 0)
(0 1.56507e-09 0 1.56507e-09 -3.80415e-13 0 0 0 0)
(1.64707e-19 1.26906e-09 0 1.26906e-09 3.75952e-13 0 0 0 0)
(0 1.02453e-09 0 1.02453e-09 -3.72222e-13 0 0 0 0)
(0 8.23446e-10 0 8.23446e-10 3.68177e-13 0 0 0 0)
(1.55071e-19 6.58896e-10 0 6.58896e-10 -3.64746e-13 0 0 0 0)
(0 5.24669e-10 0 5.24669e-10 3.60964e-13 0 0 0 0)
(0 4.15763e-10 0 4.15763e-10 -3.57705e-13 0 0 0 0)
(0 3.28099e-10 0 3.28099e-10 3.54077e-13 0 0 0 0)
(0 2.57985e-10 0 2.57985e-10 -3.50894e-13 0 0 0 0)
(0 2.0211e-10 0 2.0211e-10 3.47332e-13 0 0 0 0)
(0 1.57718e-10 0 1.57718e-10 -3.44152e-13 0 0 0 0)
(0 1.22587e-10 0 1.22587e-10 3.40595e-13 0 0 0 0)
(0 9.48988e-11 0 9.48988e-11 -3.37365e-13 0 0 0 0)
(0 7.3152e-11 0 7.3152e-11 3.33769e-13 0 0 0 0)
(0 5.61269e-11 0 5.61269e-11 -3.30451e-13 0 0 0 0)
(0 4.28467e-11 0 4.28467e-11 3.26791e-13 0 0 0 0)
(0 3.25343e-11 0 3.25343e-11 -3.23359e-13 0 0 0 0)
(0 2.45672e-11 0 2.45672e-11 3.19621e-13 0 0 0 0)
(0 1.8446e-11 0 1.8446e-11 -3.16055e-13 0 0 0 0)
(0 1.37697e-11 0 1.37697e-11 3.12236e-13 0 0 0 0)
(-1.12435e-19 1.0218e-11 0 1.0218e-11 -3.08524e-13 0 0 0 0)
(0 7.53662e-12 0 7.53662e-12 3.04625e-13 0 0 0 0)
(0 5.52462e-12 0 5.52462e-12 -3.00785e-13 0 0 0 0)
(0 4.02431e-12 0 4.02431e-12 2.96771e-13 0 0 0 0)
(0 2.91257e-12 0 2.91257e-12 -2.92802e-13 0 0 0 0)
(0 2.09445e-12 0 2.09445e-12 2.88685e-13 0 0 0 0)
(0 1.49611e-12 0 1.49611e-12 -2.84596e-13 0 0 0 0)
(0 1.06119e-12 0 1.06119e-12 2.80382e-13 0 0 0 0)
(0 7.47298e-13 0 7.47298e-13 -2.76181e-13 0 0 0 0)
(0 5.22834e-13 0 5.22834e-13 2.71871e-13 0 0 0 0)
(0 3.63486e-13 0 3.63486e-13 -2.67571e-13 0 0 0 0)
(0 2.50632e-13 0 2.50632e-13 2.63173e-13 0 0 0 0)
(0 1.71116e-13 0 1.71116e-13 -2.58784e-13 0 0 0 0)
(0 1.15885e-13 0 1.15885e-13 2.54306e-13 0 0 0 0)
(0 7.81623e-14 0 7.81623e-14 -2.49837e-13 0 0 0 0)
(0 5.24232e-14 0 5.24232e-14 2.45293e-13 0 0 0 0)
(0 3.47037e-14 0 3.47037e-14 -2.40755e-13 0 0 0 0)
(0 2.28844e-14 0 2.28844e-14 2.36149e-13 0 0 0 0)
(0 1.49939e-14 0 1.49939e-14 -2.31552e-13 0 0 0 0)
(0 9.6668e-15 0 9.6668e-15 2.26893e-13 0 0 0 0)
(-1.50452e-19 6.1729e-15 0 6.1729e-15 -2.22239e-13 0 0 0 0)
(0 3.87268e-15 0 3.87268e-15 2.1755e-13 0 0 0 0)
(0 2.40494e-15 0 2.40494e-15 -2.12863e-13 0 0 0 0)
(0 1.42805e-15 0 1.42805e-15 2.08122e-13 0 0 0 0)
(0 8.38861e-16 0 8.38861e-16 -2.03401e-13 0 0 0 0)
(0 6.49023e-16 0 6.49023e-16 1.98627e-13 0 0 0 0)
(0 4.66139e-16 0 4.66139e-16 -1.93878e-13 0 0 0 0)
(0 1.98615e-16 0 1.98615e-16 1.89079e-13 0 0 0 0)
(0 -6.22936e-17 0 -6.22936e-17 -1.84306e-13 0 0 0 0)
(0 -1.33723e-16 0 -1.33723e-16 1.79489e-13 0 0 0 0)
(-1.23064e-19 1.09158e-16 0 1.09158e-16 -1.7469e-13 0 0 0 0)
(0 1.80893e-16 0 1.80893e-16 1.69865e-13 0 0 0 0)
(0 5.8251e-17 0 5.8251e-17 -1.65041e-13 0 0 0 0)
(1.15864e-19 -8.33066e-17 0 -8.33066e-17 1.60211e-13 0 0 0 0)
(0 -6.04704e-18 0 -6.04704e-18 -1.5536e-13 0 0 0 0)
(0 2.05906e-17 0 2.05906e-17 1.50499e-13 0 0 0 0)
(0 -2.44081e-17 0 -2.44081e-17 -1.45629e-13 0 0 0 0)
(0 7.24357e-17 0 7.24357e-17 1.40741e-13 0 0 0 0)
(0 -9.63537e-17 0 -9.63537e-17 -1.35839e-13 0 0 0 0)
(0 -1.89875e-16 0 -1.89875e-16 1.30916e-13 0 0 0 0)
(0 1.73414e-16 0 1.73414e-16 -1.25972e-13 0 0 0 0)
(0 2.37842e-16 0 2.37842e-16 1.20998e-13 0 0 0 0)
(0 -1.34263e-16 0 -1.34263e-16 -1.15995e-13 0 0 0 0)
(0 -2.08571e-16 0 -2.08571e-16 1.11029e-13 0 0 0 0)
(0 -1.54054e-17 0 -1.54054e-17 -1.21324e-13 0 0 0 0)
(0 -3.47284e-17 0 -3.47284e-17 1.18936e-13 0 0 0 0)
(0 -2.20758e-17 0 -2.20758e-17 -1.16607e-13 0 0 0 0)
(0 6.28657e-17 0 6.28657e-17 1.14252e-13 0 0 0 0)
(0 4.26163e-18 0 4.26163e-18 -1.11879e-13 0 0 0 0)
(0 -1.68348e-17 0 -1.68348e-17 1.09477e-13 0 0 0 0)
(0 1.97994e-17 0 1.97994e-17 -1.07059e-13 0 0 0 0)
(0 -3.28225e-18 0 -3.28225e-18 1.04608e-13 0 0 0 0)
(0 -2.18111e-17 0 -2.18111e-17 -1.0214e-13 0 0 0 0)
(0 -1.6226e-17 0 -1.6226e-17 9.96374e-14 0 0 0 0)
(0 2.50934e-17 0 2.50934e-17 -9.71183e-14 0 0 0 0)
(0 3.46225e-17 0 3.46225e-17 9.45597e-14 0 0 0 0)
(0 -1.82906e-17 0 -1.82906e-17 -9.19863e-14 0 0 0 0)
(0 -1.03232e-18 0 -1.03232e-18 8.93685e-14 0 0 0 0)
(0 3.22931e-18 0 3.22931e-18 -8.67371e-14 0 0 0 0)
(0 5.58512e-18 0 5.58512e-18 8.40527e-14 0 0 0 0)
(0 1.4929e-17 0 1.4929e-17 -8.13623e-14 0 0 0 0)
(0 -2.02494e-17 0 -2.02494e-17 7.8596e-14 0 0 0 0)
(0 -6.61744e-19 0 -6.61744e-19 -7.58601e-14 0 0 0 0)
(0 -1.85288e-18 0 -1.85288e-18 7.29934e-14 0 0 0 0)
(0 -1.40025e-17 0 -1.40025e-17 -7.02037e-14 0 0 0 0)
(0 2.05141e-17 0 2.05141e-17 6.7237e-14 0 0 0 0)
(0 1.50613e-17 0 1.50613e-17 -6.43627e-14 0 0 0 0)
(0 -1.8423e-17 0 -1.8423e-17 6.12938e-14 0 0 0 0)
(0 5.77041e-18 0 5.77041e-18 -5.83148e-14 0 0 0 0)
(0 1.29702e-17 0 1.29702e-17 5.51292e-14 0 0 0 0)
(0 -1.84759e-17 0 -1.84759e-17 -5.2029e-14 0 0 0 0)
(0 -2.11229e-17 0 -2.11229e-17 4.87012e-14 0 0 0 0)
(0 -4.96044e-17 0 -4.96044e-17 -4.54428e-14 0 0 0 0)
(0 -3.47548e-17 0 -3.47548e-17 4.19471e-14 0 0 0 0)
(0 -9.60853e-17 0 -9.60853e-17 -3.84763e-14 0 0 0 0)
(0 1.32349e-18 0 1.32349e-18 3.47482e-14 0 0 0 0)
(0 8.89914e-17 0 8.89914e-17 -3.09647e-14 0 0 0 0)
(0 2.2314e-17 0 2.2314e-17 2.68745e-14 0 0 0 0)
(0 3.97311e-17 0 3.97311e-17 -2.26251e-14 0 0 0 0)
(0 9.3703e-18 0 9.3703e-18 1.78038e-14 0 0 0 0)
(0 9.52912e-18 0 9.52912e-18 -1.24245e-14 0 0 0 0)
(0 9.23795e-18 0 9.23795e-18 2.94557e-15 0 0 0 0)
(0 -8.12622e-18 0 -8.12622e-18 5.71763e-15 0 0 0 0)
(0 -5.13514e-17 0 -5.13514e-17 -8.78924e-15 0 0 0 0)
(0 1.82641e-18 0 1.82641e-18 1.03494e-14 0 0 0 0)
(0 1.13211e-16 0 1.13211e-16 -1.11266e-14 0 0 0 0)
(0 5.27013e-17 0 5.27013e-17 1.18399e-14 0 0 0 0)
(0 -6.3104e-17 0 -6.3104e-17 -1.19951e-14 0 0 0 0)
(0 -4.54221e-17 0 -4.54221e-17 1.23768e-14 0 0 0 0)
(0 2.09111e-17 0 2.09111e-17 -1.21414e-14 0 0 0 0)
(0 2.09376e-17 0 2.09376e-17 1.2391e-14 0 0 0 0)
(0 -1.52201e-17 0 -1.52201e-17 -1.20428e-14 0 0 0 0)
(0 -3.34843e-17 0 -3.34843e-17 1.10338e-14 0 0 0 0)
(0 -1.83171e-17 0 -1.83171e-17 -5.15467e-15 0 0 0 0)
)
;

boundaryField
{
    inandouthalf11
    {
        type            cyclic;
    }
    inandouthalf12
    {
        type            cyclic;
    }
    inandouthalf21
    {
        type            cyclic;
    }
    inandouthalf22
    {
        type            cyclic;
    }
    inandouthalf31
    {
        type            cyclic;
    }
    inandouthalf32
    {
        type            cyclic;
    }
    inandouthalf41
    {
        type            cyclic;
    }
    inandouthalf42
    {
        type            cyclic;
    }
    top
    {
        type            symmetryPlane;
    }
    walls
    {
        type            zeroGradient;
    }
    frontAndBackPlanes
    {
        type            empty;
    }
}


// ************************************************************************* //
