/*--------------------------------*- C++ -*----------------------------------*\
| =========                 |                                                 |
| \\      /  F ield         | OpenFOAM: The Open Source CFD Toolbox           |
|  \\    /   O peration     | Version:  2.4.x                                 |
|   \\  /    A nd           | Web:      www.OpenFOAM.org                      |
|    \\/     M anipulation  |                                                 |
\*---------------------------------------------------------------------------*/
FoamFile
{
    version     2.0;
    format      ascii;
    class       volScalarField;
    location    "4.1";
    object      Theta;
}
// * * * * * * * * * * * * * * * * * * * * * * * * * * * * * * * * * * * * * //

dimensions      [0 2 -2 0 0 0 0];

internalField   nonuniform List<scalar> 
360
(
6.67507e-21
6.71843e-21
6.71132e-21
6.70127e-21
6.70057e-21
6.70274e-21
6.70496e-21
6.70648e-21
6.70725e-21
6.70777e-21
6.70854e-21
6.70971e-21
6.71116e-21
6.71265e-21
6.71401e-21
6.71511e-21
6.7158e-21
6.71592e-21
6.71536e-21
6.71417e-21
6.71262e-21
6.71126e-21
6.71082e-21
6.71224e-21
6.71683e-21
6.7265e-21
6.74419e-21
6.77326e-21
6.813e-21
6.84753e-21
6.84207e-21
6.78178e-21
6.71078e-21
6.6732e-21
6.66305e-21
6.66152e-21
6.66137e-21
6.66136e-21
6.66136e-21
6.66136e-21
6.66136e-21
6.66136e-21
6.66136e-21
6.66136e-21
6.66135e-21
6.66135e-21
6.66135e-21
6.66135e-21
6.66135e-21
6.66135e-21
6.66135e-21
6.66135e-21
6.66135e-21
6.66135e-21
6.66135e-21
6.66135e-21
6.66135e-21
6.66135e-21
6.66135e-21
6.66135e-21
6.66135e-21
6.66135e-21
6.66135e-21
6.66135e-21
6.66135e-21
6.66135e-21
6.66135e-21
6.66134e-21
6.66134e-21
6.66134e-21
6.66134e-21
6.66134e-21
6.66134e-21
6.66134e-21
6.66134e-21
6.66134e-21
6.66134e-21
6.66134e-21
6.66134e-21
6.66134e-21
6.66133e-21
6.66133e-21
6.66133e-21
6.66133e-21
6.66133e-21
6.66133e-21
6.66133e-21
6.66133e-21
6.66133e-21
6.66132e-21
6.66132e-21
6.66132e-21
6.66132e-21
6.66132e-21
6.66132e-21
6.66132e-21
6.66132e-21
6.66131e-21
6.66131e-21
6.66124e-21
0
0
0
0
0
0
0
0
0
0
0
0
0
0
0
6.66128e-21
6.66128e-21
6.66127e-21
6.66127e-21
6.66127e-21
6.66127e-21
6.66126e-21
6.66126e-21
6.66126e-21
6.66125e-21
6.66125e-21
6.66125e-21
6.66124e-21
6.66124e-21
6.66124e-21
6.66123e-21
6.66125e-21
1.04291e-20
1.58467e-20
2.31032e-20
6.49589e-20
5.27023e-19
5.63327e-18
6.57362e-17
8.40932e-16
1.19944e-14
1.94162e-13
3.63797e-12
8.09295e-11
3.00848e-09
3.21508e-07
1.37608e-05
0.000184966
0.00137509
0.00301216
0.00374421
0.00415006
0.00440526
0.00457406
0.00468054
0.00473384
0.00473832
0.00469768
0.00461636
0.00450058
0.00435756
0.00419529
0.00402174
0.00384458
0.00367052
0.00350512
0.00335216
0.00321352
0.00308931
0.00297849
0.00287955
0.00279102
0.00271161
0.0026402
0.00257583
0.00251763
0.00246486
0.00241683
0.00237297
0.00233272
0.00229563
0.00226127
0.00222925
0.00219923
0.0021709
0.00214396
0.00211816
0.00209324
0.00206902
0.0020453
0.00202197
0.00199893
0.0019761
0.00195342
0.00193083
0.00190829
0.00188578
0.00186326
0.00184071
0.0018181
0.00179543
0.00177244
0.00174889
0.00172474
0.00169997
0.00167456
0.00164846
0.00162164
0.00159409
0.00156575
0.0015366
0.00150658
0.00147568
0.00144382
0.00141098
0.00137708
0.00134208
0.00130591
0.0012685
0.00122975
0.0011896
0.00114791
0.00110459
0.0010595
0.00101247
0.000963311
0.000911807
0.000857679
0.00080059
0.000740105
0.000675653
0.000606463
0.000531429
0.000448848
0.000355732
0.000245556
0
0
0
0
0
0
0
0
0
0
0
0
0
0
0
0
0
0
0
0
0
0
0
0
0
0
0
0
0
0
0
0
0
0
0
0
0
0
0
0
0
0
0
0
0
0
0
0
0
0
0
0
0
0
0
0
0
0
0
0
0
0
0
0
0
0
0
0
0
0
0
0
0
0
0
0
0
0
0
0
0
0
0
0
0
0
0
0
0
0
0
0
0
0
0
0
0
0
0
0
0
0
0
0
0
0
0
0
0
0
0
0
0
0
0
0
0
0
0
0
0
0
0
0
)
;

boundaryField
{
    inandouthalf11
    {
        type            cyclic;
    }
    inandouthalf12
    {
        type            cyclic;
    }
    inandouthalf21
    {
        type            cyclic;
    }
    inandouthalf22
    {
        type            cyclic;
    }
    inandouthalf31
    {
        type            cyclic;
    }
    inandouthalf32
    {
        type            cyclic;
    }
    inandouthalf41
    {
        type            cyclic;
    }
    inandouthalf42
    {
        type            cyclic;
    }
    top
    {
        type            symmetryPlane;
    }
    walls
    {
        type            zeroGradient;
    }
    frontAndBackPlanes
    {
        type            empty;
    }
}


// ************************************************************************* //
