/*--------------------------------*- C++ -*----------------------------------*\
| =========                 |                                                 |
| \\      /  F ield         | OpenFOAM: The Open Source CFD Toolbox           |
|  \\    /   O peration     | Version:  2.4.x                                 |
|   \\  /    A nd           | Web:      www.OpenFOAM.org                      |
|    \\/     M anipulation  |                                                 |
\*---------------------------------------------------------------------------*/
FoamFile
{
    version     2.0;
    format      ascii;
    class       volScalarField;
    location    "4.1";
    object      tmf;
}
// * * * * * * * * * * * * * * * * * * * * * * * * * * * * * * * * * * * * * //

dimensions      [0 0 0 0 0 0 0];

internalField   nonuniform List<scalar> 
360
(
0.999205
0.999206
0.999207
0.999207
0.999207
0.999207
0.999207
0.999206
0.999206
0.999206
0.999206
0.999206
0.999206
0.999206
0.999206
0.999206
0.999206
0.999205
0.999205
0.999205
0.999205
0.999205
0.999205
0.999205
0.999205
0.999205
0.999205
0.999204
0.999204
0.999204
0.999204
0.999204
0.999204
0.999204
0.999203
0.999203
0.999203
0.999203
0.999203
0.999203
0.999203
0.999203
0.999203
0.999203
0.999203
0.999203
0.999203
0.999203
0.999203
0.999203
0.999203
0.999203
0.999203
0.999203
0.999203
0.999203
0.999203
0.999203
0.999202
0.999202
0.999202
0.999202
0.999202
0.999202
0.999202
0.999202
0.999202
0.999202
0.999202
0.999201
0.999201
0.999201
0.999201
0.999201
0.999201
0.999201
0.999201
0.9992
0.9992
0.9992
0.9992
0.9992
0.9992
0.9992
0.999199
0.999199
0.999199
0.999199
0.999199
0.999198
0.999198
0.999198
0.999198
0.999198
0.999197
0.999197
0.999197
0.999197
0.999197
0.999196
0.999196
0.999196
0.999196
0.999195
0.999195
0.999195
0.999195
0.999194
0.999194
0.999194
0.999193
0.999193
0.999193
0.999192
0.999192
0.999192
0.999191
0.999191
0.999191
0.99919
0.99919
0.999189
0.999189
0.999188
0.999188
0.999187
0.999187
0.999186
0.999186
0.999185
0.999185
0.999184
0.999304
0.999211
0.998809
0.997932
0.997435
0.997023
0.996514
0.995866
0.995037
0.99397
0.992595
0.990827
0.988554
0.985615
0.981723
0.974909
0.917545
0.874497
0.860587
0.86215
0.865153
0.869206
0.874253
0.880224
0.886967
0.894272
0.901916
0.9097
0.917462
0.925069
0.932418
0.939429
0.946037
0.952197
0.957876
0.963052
0.967714
0.971857
0.975483
0.978605
0.981248
0.983449
0.985255
0.986721
0.987901
0.988846
0.989601
0.990202
0.990681
0.99106
0.991359
0.991594
0.991775
0.991913
0.992014
0.992084
0.992128
0.992149
0.99215
0.992134
0.992103
0.992057
0.991999
0.99193
0.991849
0.991757
0.991655
0.991543
0.99142
0.991285
0.991135
0.990969
0.990784
0.990577
0.990346
0.990084
0.989785
0.989437
0.989028
0.988539
0.988015
0.988022
0.988625
0.989217
0.989733
0.99019
0.990603
0.990982
0.991335
0.991666
0.991982
0.992285
0.992578
0.992866
0.993149
0.993432
0.993717
0.994007
0.994308
0.994625
0.994966
0.995344
0.995775
0.996287
0.996938
0.997204
0.997698
0.997749
0.99774
0.997729
0.997719
0.997709
0.99769
0.996918
0.994211
0.994191
0.994191
0.994191
0.994191
0.994191
0.994191
0.994191
0.994191
0.994191
0.994191
0.994191
0.994191
0.994191
0.994191
0.994191
0.994191
0.994191
0.994191
0.994191
0.994191
0.994191
0.994191
0.994191
0.994191
0.994191
0.994191
0.994191
0.994191
0.994191
0.994191
0.994191
0.994191
0.994191
0.994191
0.994191
0.994191
0.994191
0.994191
0.994191
0.994191
0.994191
0.994191
0.994191
0.994191
0.994191
0.994191
0.994191
0.994191
0.994191
0.994191
0.994191
0.994191
0.994191
0.994191
0.994191
0.994191
0.994191
0.994191
0.994191
0.994191
0.994191
0.994191
0.994191
0.994191
0.994191
0.994191
0.994191
0.994191
0.994191
0.994191
0.994191
0.994191
0.994191
0.994191
0.994191
0.994191
0.994191
0.994191
0.994191
0.994191
0.994191
0.994191
0.994191
0.994191
0.994191
0.994191
0.994191
0.994191
0.994191
0.994191
0.994191
0.994191
0.994191
0.994191
0.994191
0.994191
0.994191
0.994191
0.994191
0.994191
0.994191
0.994191
0.994191
0.994191
0.994191
0.994191
0.994191
0.994191
0.994191
0.994191
0.99419
0.994175
0.993244
)
;

boundaryField
{
    inandouthalf11
    {
        type            cyclic;
    }
    inandouthalf12
    {
        type            cyclic;
    }
    inandouthalf21
    {
        type            cyclic;
    }
    inandouthalf22
    {
        type            cyclic;
    }
    inandouthalf31
    {
        type            cyclic;
    }
    inandouthalf32
    {
        type            cyclic;
    }
    inandouthalf41
    {
        type            cyclic;
    }
    inandouthalf42
    {
        type            cyclic;
    }
    top
    {
        type            symmetryPlane;
    }
    walls
    {
        type            calculated;
        value           uniform 0;
    }
    frontAndBackPlanes
    {
        type            empty;
    }
}


// ************************************************************************* //
