/*--------------------------------*- C++ -*----------------------------------*\
| =========                 |                                                 |
| \\      /  F ield         | OpenFOAM: The Open Source CFD Toolbox           |
|  \\    /   O peration     | Version:  2.4.x                                 |
|   \\  /    A nd           | Web:      www.OpenFOAM.org                      |
|    \\/     M anipulation  |                                                 |
\*---------------------------------------------------------------------------*/
FoamFile
{
    version     2.0;
    format      ascii;
    class       volVectorField;
    location    "4.1";
    object      Ua;
}
// * * * * * * * * * * * * * * * * * * * * * * * * * * * * * * * * * * * * * //

dimensions      [0 1 -1 0 0 0 0];

internalField   nonuniform List<vector> 
360
(
(-1.09844e-32 -7.80124e-32 0)
(-6.06805e-08 -3.16984e-07 0)
(-1.3954e-07 -6.43921e-07 0)
(-2.1026e-07 -9.17671e-07 0)
(-2.7742e-07 -1.18057e-06 0)
(-3.45611e-07 -1.44984e-06 0)
(-4.15874e-07 -1.72732e-06 0)
(-4.87869e-07 -2.0111e-06 0)
(-5.60951e-07 -2.29821e-06 0)
(-6.34696e-07 -2.5868e-06 0)
(-7.0912e-07 -2.87716e-06 0)
(-7.84495e-07 -3.17055e-06 0)
(-8.61084e-07 -3.46809e-06 0)
(-9.39006e-07 -3.77022e-06 0)
(-1.01821e-06 -4.07667e-06 0)
(-1.09855e-06 -4.38681e-06 0)
(-1.17977e-06 -4.69967e-06 0)
(-1.26149e-06 -5.01383e-06 0)
(-1.34324e-06 -5.32737e-06 0)
(-1.42453e-06 -5.63835e-06 0)
(-1.50495e-06 -5.94505e-06 0)
(-1.5844e-06 -6.24692e-06 0)
(-1.66329e-06 -6.54546e-06 0)
(-1.7427e-06 -6.84463e-06 0)
(-1.82452e-06 -7.15157e-06 0)
(-1.91166e-06 -7.4772e-06 0)
(-2.00806e-06 -7.8367e-06 0)
(-2.11861e-06 -8.2492e-06 0)
(-2.24768e-06 -8.73309e-06 0)
(-2.39532e-06 -9.29163e-06 0)
(-2.55104e-06 -9.88773e-06 0)
(-2.69144e-06 -1.04309e-05 0)
(-2.79194e-06 -1.08213e-05 0)
(-2.84639e-06 -1.10315e-05 0)
(-2.86865e-06 -1.11161e-05 0)
(-2.87595e-06 -1.11432e-05 0)
(-2.87812e-06 -1.1151e-05 0)
(-2.87882e-06 -1.11535e-05 0)
(-2.8791e-06 -1.11544e-05 0)
(-2.87924e-06 -1.11549e-05 0)
(-2.87934e-06 -1.11552e-05 0)
(-2.87943e-06 -1.11555e-05 0)
(-2.87953e-06 -1.11558e-05 0)
(-2.87964e-06 -1.11561e-05 0)
(-2.87979e-06 -1.11565e-05 0)
(-2.87996e-06 -1.1157e-05 0)
(-2.88015e-06 -1.11575e-05 0)
(-2.88037e-06 -1.1158e-05 0)
(-2.88061e-06 -1.11586e-05 0)
(-2.88086e-06 -1.11592e-05 0)
(-2.88111e-06 -1.11598e-05 0)
(-2.88136e-06 -1.11604e-05 0)
(-2.88162e-06 -1.1161e-05 0)
(-2.88188e-06 -1.11616e-05 0)
(-2.88215e-06 -1.11622e-05 0)
(-2.88243e-06 -1.11628e-05 0)
(-2.88272e-06 -1.11634e-05 0)
(-2.88303e-06 -1.1164e-05 0)
(-2.88334e-06 -1.11647e-05 0)
(-2.88368e-06 -1.11653e-05 0)
(-2.88403e-06 -1.1166e-05 0)
(-2.8844e-06 -1.11668e-05 0)
(-2.88478e-06 -1.11675e-05 0)
(-2.88518e-06 -1.11683e-05 0)
(-2.8856e-06 -1.1169e-05 0)
(-2.88602e-06 -1.11698e-05 0)
(-2.88645e-06 -1.11706e-05 0)
(-2.88689e-06 -1.11714e-05 0)
(-2.88735e-06 -1.11722e-05 0)
(-2.88782e-06 -1.11731e-05 0)
(-2.88831e-06 -1.11739e-05 0)
(-2.88881e-06 -1.11748e-05 0)
(-2.88934e-06 -1.11757e-05 0)
(-2.8899e-06 -1.11766e-05 0)
(-2.89048e-06 -1.11776e-05 0)
(-2.89108e-06 -1.11786e-05 0)
(-2.89172e-06 -1.11797e-05 0)
(-2.89237e-06 -1.11807e-05 0)
(-2.89305e-06 -1.11818e-05 0)
(-2.89375e-06 -1.11829e-05 0)
(-2.89446e-06 -1.11841e-05 0)
(-2.8952e-06 -1.11852e-05 0)
(-2.89596e-06 -1.11864e-05 0)
(-2.89675e-06 -1.11876e-05 0)
(-2.89756e-06 -1.11889e-05 0)
(-2.89839e-06 -1.11902e-05 0)
(-2.89925e-06 -1.11914e-05 0)
(-2.90013e-06 -1.11928e-05 0)
(-2.90104e-06 -1.11941e-05 0)
(-2.90198e-06 -1.11955e-05 0)
(-2.90294e-06 -1.11969e-05 0)
(-2.90392e-06 -1.11983e-05 0)
(-2.90492e-06 -1.11998e-05 0)
(-2.90594e-06 -1.12012e-05 0)
(-2.90698e-06 -1.12027e-05 0)
(-2.90804e-06 -1.12042e-05 0)
(-2.90912e-06 -1.12057e-05 0)
(-2.91022e-06 -1.12072e-05 0)
(-2.91134e-06 -1.12087e-05 0)
(-2.91247e-06 -1.12103e-05 0)
(-2.91363e-06 -1.12118e-05 0)
(-2.9148e-06 -1.12134e-05 0)
(-2.91599e-06 -1.1215e-05 0)
(-2.9172e-06 -1.12165e-05 0)
(-2.91842e-06 -1.12181e-05 0)
(-2.91966e-06 -1.12197e-05 0)
(-2.92091e-06 -1.12213e-05 0)
(-2.92217e-06 -1.12229e-05 0)
(-2.92344e-06 -1.12245e-05 0)
(-2.92472e-06 -1.12261e-05 0)
(-2.92602e-06 -1.12276e-05 0)
(-2.92732e-06 -1.12292e-05 0)
(-2.92864e-06 -1.12308e-05 0)
(-2.92996e-06 -1.12323e-05 0)
(-2.93129e-06 -1.12339e-05 0)
(-2.93263e-06 -1.12354e-05 0)
(-2.93399e-06 -1.1237e-05 0)
(-2.93536e-06 -1.12385e-05 0)
(-2.93674e-06 -1.124e-05 0)
(-2.93815e-06 -1.12416e-05 0)
(-2.93958e-06 -1.12431e-05 0)
(-2.94103e-06 -1.12446e-05 0)
(-2.94251e-06 -1.12461e-05 0)
(-2.94402e-06 -1.12476e-05 0)
(-2.94556e-06 -1.12492e-05 0)
(-2.94713e-06 -1.12507e-05 0)
(-2.94873e-06 -1.12522e-05 0)
(-2.95034e-06 -1.12536e-05 0)
(-2.95196e-06 -1.1255e-05 0)
(-2.95358e-06 -1.12564e-05 0)
(-2.95518e-06 -1.12577e-05 0)
(-2.95674e-06 -1.1259e-05 0)
(-2.95825e-06 -1.12601e-05 0)
(-2.95971e-06 -1.12611e-05 0)
(-2.96111e-06 -1.12621e-05 0)
(-2.96246e-06 -1.12629e-05 0)
(-2.96375e-06 -1.12637e-05 0)
(-2.96499e-06 -1.12643e-05 0)
(-2.96617e-06 -1.12649e-05 0)
(-2.96728e-06 -1.12654e-05 0)
(-2.96825e-06 -1.12658e-05 0)
(-2.96899e-06 -1.1266e-05 0)
(-2.96945e-06 -1.12661e-05 0)
(-2.9697e-06 -1.12662e-05 0)
(-2.96982e-06 -1.12662e-05 0)
(-2.96991e-06 -1.12661e-05 0)
(-2.97005e-06 -1.12661e-05 0)
(-2.97528e-06 -1.12659e-05 0)
(-0.0745273 0.000270484 0)
(-0.189792 0.000835643 0)
(-0.282489 0.00111378 0)
(-0.358109 0.00133793 0)
(-0.421329 0.00157447 0)
(-0.475175 0.00182822 0)
(-0.521651 0.00210147 0)
(-0.562168 0.00239569 0)
(-0.597765 0.00271074 0)
(-0.629217 0.00304467 0)
(-0.657113 0.00339412 0)
(-0.681894 0.0037545 0)
(-0.703892 0.00411985 0)
(-0.723357 0.00448282 0)
(-0.740483 0.00483462 0)
(-0.755432 0.00516467 0)
(-0.768351 0.00545787 0)
(-0.77939 0.00568748 0)
(-0.788716 0.00580996 0)
(-0.79652 0.00577834 0)
(-0.803018 0.00557619 0)
(-0.808426 0.00523716 0)
(-0.812942 0.00482488 0)
(-0.816726 0.00439917 0)
(-0.819902 0.00399941 0)
(-0.822569 0.00364568 0)
(-0.824803 0.00334569 0)
(-0.826668 0.00310041 0)
(-0.828215 0.00290751 0)
(-0.829489 0.00276316 0)
(-0.830525 0.00266294 0)
(-0.831354 0.00260211 0)
(-0.832005 0.0025757 0)
(-0.832502 0.0025784 0)
(-0.832864 0.00260439 0)
(-0.833113 0.00264716 0)
(-0.833264 0.00269943 0)
(-0.833334 0.00275317 0)
(-0.833339 0.00280028 0)
(-0.833292 0.0028333 0)
(-0.833202 0.00284993 0)
(-0.833081 0.00285118 0)
(-0.832936 0.00284223 0)
(-0.832772 0.00282799 0)
(-0.832594 0.00281017 0)
(-0.832405 0.00278826 0)
(-0.832207 0.00276228 0)
(-0.832003 0.00273345 0)
(-0.831795 0.00270256 0)
(-0.831584 0.0026695 0)
(-0.831372 0.00263425 0)
(-0.83116 0.00259743 0)
(-0.830949 0.00255969 0)
(-0.830739 0.00252054 0)
(-0.830526 0.00247866 0)
(-0.83031 0.00243402 0)
(-0.830093 0.00238818 0)
(-0.829875 0.00234151 0)
(-0.829652 0.00229175 0)
(-0.829425 0.00223821 0)
(-0.829196 0.00218383 0)
(-0.828964 0.00212894 0)
(-0.828726 0.00207056 0)
(-0.828482 0.00200987 0)
(-0.828234 0.00194947 0)
(-0.827979 0.00188769 0)
(-0.827715 0.0018244 0)
(-0.827445 0.001762 0)
(-0.827163 0.00169779 0)
(-0.826867 0.00162891 0)
(-0.826562 0.00155982 0)
(-0.826246 0.00149052 0)
(-0.825908 0.00141386 0)
(-0.825553 0.00133213 0)
(-0.825183 0.00124803 0)
(-0.824788 0.00115598 0)
(-0.824373 0.00105788 0)
(-0.823934 0.000951991 0)
(-0.823461 0.000832672 0)
(-0.822969 0.000707025 0)
(-0.822444 0.000568927 0)
(-0.821873 0.00040807 0)
(-0.821271 0.000232375 0)
(-0.820645 4.23672e-05 0)
(-0.820031 -0.000147269 0)
(-0.819485 -0.000309459 0)
(-0.819029 -0.000438432 0)
(-0.818665 -0.00053186 0)
(-0.818186 -0.000691731 0)
(-0.751326 -0.0383681 0)
(-0.751034 -0.0395521 0)
(-0.751009 -0.0395418 0)
(-0.751003 -0.0395417 0)
(-0.750998 -0.0395417 0)
(-0.750993 -0.0395417 0)
(-0.75099 -0.0395417 0)
(-0.750987 -0.0395417 0)
(-0.750984 -0.0395417 0)
(-0.750982 -0.0395417 0)
(-0.75098 -0.0395417 0)
(-0.750979 -0.0395417 0)
(-0.750978 -0.0395417 0)
(-0.750977 -0.0395417 0)
(-0.750976 -0.0395417 0)
(-0.750976 -0.0395417 0)
(-0.750975 -0.0395417 0)
(-0.750975 -0.0395417 0)
(-0.750974 -0.0395417 0)
(-0.750974 -0.0395417 0)
(-0.750974 -0.0395417 0)
(-0.750974 -0.0395417 0)
(-0.750974 -0.0395417 0)
(-0.750973 -0.0395417 0)
(-0.750973 -0.0395417 0)
(-0.750973 -0.0395417 0)
(-0.750973 -0.0395417 0)
(-0.750973 -0.0395417 0)
(-0.750973 -0.0395417 0)
(-0.750973 -0.0395417 0)
(-0.750973 -0.0395417 0)
(-0.750973 -0.0395417 0)
(-0.750973 -0.0395417 0)
(-0.750973 -0.0395417 0)
(-0.750973 -0.0395417 0)
(-0.750973 -0.0395417 0)
(-0.750973 -0.0395417 0)
(-0.750973 -0.0395417 0)
(-0.750973 -0.0395417 0)
(-0.750973 -0.0395417 0)
(-0.750973 -0.0395417 0)
(-0.750973 -0.0395417 0)
(-0.750973 -0.0395417 0)
(-0.750973 -0.0395417 0)
(-0.750973 -0.0395417 0)
(-0.750973 -0.0395417 0)
(-0.750973 -0.0395417 0)
(-0.750973 -0.0395417 0)
(-0.750973 -0.0395417 0)
(-0.750973 -0.0395417 0)
(-0.750973 -0.0395417 0)
(-0.750973 -0.0395417 0)
(-0.750973 -0.0395417 0)
(-0.750973 -0.0395417 0)
(-0.750973 -0.0395417 0)
(-0.750973 -0.0395417 0)
(-0.750973 -0.0395417 0)
(-0.750973 -0.0395417 0)
(-0.750973 -0.0395417 0)
(-0.750973 -0.0395417 0)
(-0.750973 -0.0395417 0)
(-0.750973 -0.0395417 0)
(-0.750973 -0.0395417 0)
(-0.750973 -0.0395417 0)
(-0.750973 -0.0395417 0)
(-0.750973 -0.0395417 0)
(-0.750973 -0.0395417 0)
(-0.750973 -0.0395417 0)
(-0.750973 -0.0395417 0)
(-0.750973 -0.0395417 0)
(-0.750973 -0.0395417 0)
(-0.750973 -0.0395417 0)
(-0.750973 -0.0395417 0)
(-0.750973 -0.0395417 0)
(-0.750973 -0.0395417 0)
(-0.750973 -0.0395417 0)
(-0.750973 -0.0395417 0)
(-0.750973 -0.0395417 0)
(-0.750973 -0.0395417 0)
(-0.750973 -0.0395417 0)
(-0.750973 -0.0395417 0)
(-0.750973 -0.0395417 0)
(-0.750973 -0.0395417 0)
(-0.750973 -0.0395417 0)
(-0.750973 -0.0395417 0)
(-0.750973 -0.0395417 0)
(-0.750973 -0.0395417 0)
(-0.750973 -0.0395417 0)
(-0.750973 -0.0395417 0)
(-0.750973 -0.0395417 0)
(-0.750973 -0.0395417 0)
(-0.750973 -0.0395417 0)
(-0.750973 -0.0395417 0)
(-0.750973 -0.0395417 0)
(-0.750973 -0.0395417 0)
(-0.750973 -0.0395417 0)
(-0.750973 -0.0395417 0)
(-0.750973 -0.0395417 0)
(-0.750973 -0.0395417 0)
(-0.750973 -0.0395417 0)
(-0.750973 -0.0395417 0)
(-0.750973 -0.0395417 0)
(-0.750973 -0.0395417 0)
(-0.750973 -0.0395417 0)
(-0.750973 -0.0395417 0)
(-0.750973 -0.0395417 0)
(-0.750973 -0.0395417 0)
(-0.750973 -0.0395417 0)
(-0.750973 -0.0395417 0)
(-0.750973 -0.0395417 0)
(-0.750973 -0.0395417 0)
(-0.750973 -0.0395417 0)
(-0.750973 -0.0395417 0)
(-0.750973 -0.0395417 0)
(-0.750973 -0.0395417 0)
(-0.750973 -0.0395417 0)
(-0.750973 -0.0395417 0)
(-0.750973 -0.0395417 0)
(-0.750973 -0.0395417 0)
(-0.750973 -0.0395414 0)
(-0.750973 -0.039533 0)
(-0.750961 -0.0391882 0)
(-0.750686 -0.0224834 0)
)
;

boundaryField
{
    inandouthalf11
    {
        type            cyclic;
    }
    inandouthalf12
    {
        type            cyclic;
    }
    inandouthalf21
    {
        type            cyclic;
    }
    inandouthalf22
    {
        type            cyclic;
    }
    inandouthalf31
    {
        type            cyclic;
    }
    inandouthalf32
    {
        type            cyclic;
    }
    inandouthalf41
    {
        type            cyclic;
    }
    inandouthalf42
    {
        type            cyclic;
    }
    top
    {
        type            symmetryPlane;
    }
    walls
    {
        type            fixedValue;
        value           uniform (0 0 0);
    }
    frontAndBackPlanes
    {
        type            empty;
    }
}


// ************************************************************************* //
