/*--------------------------------*- C++ -*----------------------------------*\
| =========                 |                                                 |
| \\      /  F ield         | OpenFOAM: The Open Source CFD Toolbox           |
|  \\    /   O peration     | Version:  2.4.x                                 |
|   \\  /    A nd           | Web:      www.OpenFOAM.org                      |
|    \\/     M anipulation  |                                                 |
\*---------------------------------------------------------------------------*/
FoamFile
{
    version     2.0;
    format      ascii;
    class       volVectorField;
    location    "4.1";
    object      Ub_0;
}
// * * * * * * * * * * * * * * * * * * * * * * * * * * * * * * * * * * * * * //

dimensions      [0 1 -1 0 0 0 0];

internalField   nonuniform List<vector> 
360
(
(-8.73246e-05 1.22695e-07 0)
(-8.71464e-05 4.97789e-07 0)
(-8.71121e-05 9.85025e-07 0)
(-8.72098e-05 1.43334e-06 0)
(-8.73132e-05 1.85654e-06 0)
(-8.74052e-05 2.28039e-06 0)
(-8.74965e-05 2.71482e-06 0)
(-8.75888e-05 3.15892e-06 0)
(-8.76808e-05 3.6086e-06 0)
(-8.7774e-05 4.06123e-06 0)
(-8.78693e-05 4.51697e-06 0)
(-8.7966e-05 4.97729e-06 0)
(-8.80645e-05 5.44375e-06 0)
(-8.81642e-05 5.917e-06 0)
(-8.82652e-05 6.39675e-06 0)
(-8.83677e-05 6.88202e-06 0)
(-8.84714e-05 7.37125e-06 0)
(-8.85757e-05 7.86219e-06 0)
(-8.868e-05 8.35199e-06 0)
(-8.87839e-05 8.83778e-06 0)
(-8.88862e-05 9.31717e-06 0)
(-8.89876e-05 9.78968e-06 0)
(-8.90883e-05 1.02578e-05 0)
(-8.91895e-05 1.07281e-05 0)
(-8.92937e-05 1.12119e-05 0)
(-8.94045e-05 1.17265e-05 0)
(-8.95268e-05 1.22954e-05 0)
(-8.96671e-05 1.29465e-05 0)
(-8.98304e-05 1.3703e-05 0)
(-9.00167e-05 1.45599e-05 0)
(-9.02129e-05 1.54543e-05 0)
(-9.03906e-05 1.62625e-05 0)
(-9.05185e-05 1.68598e-05 0)
(-9.05907e-05 1.72073e-05 0)
(-9.06219e-05 1.73643e-05 0)
(-9.06347e-05 1.74206e-05 0)
(-9.06409e-05 1.74377e-05 0)
(-9.06457e-05 1.74426e-05 0)
(-9.06506e-05 1.7444e-05 0)
(-9.06547e-05 1.74444e-05 0)
(-9.06601e-05 1.74445e-05 0)
(-9.06655e-05 1.74444e-05 0)
(-9.06708e-05 1.74442e-05 0)
(-9.06775e-05 1.74442e-05 0)
(-9.06841e-05 1.74441e-05 0)
(-9.06915e-05 1.74441e-05 0)
(-9.06994e-05 1.74442e-05 0)
(-9.07073e-05 1.74442e-05 0)
(-9.07164e-05 1.74443e-05 0)
(-9.07268e-05 1.74443e-05 0)
(-9.0737e-05 1.74441e-05 0)
(-9.07483e-05 1.7444e-05 0)
(-9.07602e-05 1.74438e-05 0)
(-9.07731e-05 1.74435e-05 0)
(-9.07864e-05 1.7443e-05 0)
(-9.08013e-05 1.74426e-05 0)
(-9.08163e-05 1.7442e-05 0)
(-9.08329e-05 1.74414e-05 0)
(-9.08501e-05 1.74408e-05 0)
(-9.08678e-05 1.744e-05 0)
(-9.08871e-05 1.74394e-05 0)
(-9.09065e-05 1.74385e-05 0)
(-9.09271e-05 1.74378e-05 0)
(-9.09478e-05 1.74369e-05 0)
(-9.09692e-05 1.74361e-05 0)
(-9.0991e-05 1.74351e-05 0)
(-9.10136e-05 1.74342e-05 0)
(-9.1037e-05 1.74332e-05 0)
(-9.10612e-05 1.74321e-05 0)
(-9.1086e-05 1.74309e-05 0)
(-9.11123e-05 1.74297e-05 0)
(-9.11397e-05 1.74285e-05 0)
(-9.11673e-05 1.74272e-05 0)
(-9.11963e-05 1.74259e-05 0)
(-9.12259e-05 1.74245e-05 0)
(-9.12564e-05 1.74232e-05 0)
(-9.12873e-05 1.74218e-05 0)
(-9.13188e-05 1.74204e-05 0)
(-9.13512e-05 1.7419e-05 0)
(-9.13844e-05 1.74176e-05 0)
(-9.14182e-05 1.74161e-05 0)
(-9.14531e-05 1.74145e-05 0)
(-9.1489e-05 1.74129e-05 0)
(-9.15258e-05 1.74113e-05 0)
(-9.15636e-05 1.74096e-05 0)
(-9.16022e-05 1.74078e-05 0)
(-9.16418e-05 1.74061e-05 0)
(-9.16822e-05 1.74043e-05 0)
(-9.17235e-05 1.74024e-05 0)
(-9.17656e-05 1.74005e-05 0)
(-9.18087e-05 1.73986e-05 0)
(-9.18528e-05 1.73966e-05 0)
(-9.18979e-05 1.73945e-05 0)
(-9.1944e-05 1.73923e-05 0)
(-9.19913e-05 1.73901e-05 0)
(-9.20397e-05 1.73878e-05 0)
(-9.20893e-05 1.73854e-05 0)
(-9.214e-05 1.73829e-05 0)
(-9.21919e-05 1.73803e-05 0)
(-9.2245e-05 1.73777e-05 0)
(-9.22994e-05 1.73749e-05 0)
(-9.23552e-05 1.7372e-05 0)
(-9.24123e-05 1.7369e-05 0)
(-9.24708e-05 1.73659e-05 0)
(-9.25307e-05 1.73627e-05 0)
(-9.25922e-05 1.73593e-05 0)
(-9.26553e-05 1.73558e-05 0)
(-9.272e-05 1.73521e-05 0)
(-9.27865e-05 1.73482e-05 0)
(-9.28547e-05 1.73442e-05 0)
(-9.29248e-05 1.734e-05 0)
(-9.29968e-05 1.73357e-05 0)
(-9.30709e-05 1.73311e-05 0)
(-9.3147e-05 1.73263e-05 0)
(-9.32254e-05 1.73213e-05 0)
(-9.33061e-05 1.73161e-05 0)
(-9.33893e-05 1.73106e-05 0)
(-9.3475e-05 1.73049e-05 0)
(-9.35634e-05 1.72989e-05 0)
(-9.36545e-05 1.72927e-05 0)
(-9.37486e-05 1.72862e-05 0)
(-9.38458e-05 1.72794e-05 0)
(-9.39462e-05 1.72724e-05 0)
(-9.405e-05 1.7265e-05 0)
(-9.41574e-05 1.72573e-05 0)
(-9.42685e-05 1.72492e-05 0)
(-9.43837e-05 1.72408e-05 0)
(-9.45032e-05 1.72319e-05 0)
(-9.46274e-05 1.72225e-05 0)
(-9.47568e-05 1.72126e-05 0)
(-9.48914e-05 1.72021e-05 0)
(-9.50316e-05 1.7191e-05 0)
(-9.5178e-05 1.71791e-05 0)
(-9.53323e-05 1.71664e-05 0)
(-9.54962e-05 1.71527e-05 0)
(-9.56698e-05 1.71382e-05 0)
(-9.58521e-05 1.71224e-05 0)
(-9.60456e-05 1.71051e-05 0)
(-9.62599e-05 1.70857e-05 0)
(-9.65062e-05 1.70648e-05 0)
(-9.67738e-05 1.70434e-05 0)
(-9.70286e-05 1.70166e-05 0)
(-9.73315e-05 1.69867e-05 0)
(-9.77254e-05 1.69516e-05 0)
(-9.82103e-05 1.6893e-05 0)
(-9.903e-05 1.67034e-05 0)
(-0.000101646 1.90884e-05 0)
(-0.000552338 -3.67396e-07 0)
(-0.0835041 -0.000172914 0)
(-0.201779 -0.000288533 0)
(-0.292761 -0.000263589 0)
(-0.366798 -0.000251776 0)
(-0.428976 -0.000234976 0)
(-0.482189 -0.000214583 0)
(-0.528365 -0.000192204 0)
(-0.568883 -0.000169228 0)
(-0.604771 -0.000146697 0)
(-0.636815 -0.000125363 0)
(-0.665619 -0.000105714 0)
(-0.691652 -8.80133e-05 0)
(-0.715277 -7.23565e-05 0)
(-0.736773 -5.87236e-05 0)
(-0.756349 -4.70223e-05 0)
(-0.77416 -3.71114e-05 0)
(-0.790314 -2.88064e-05 0)
(-0.804884 -2.1889e-05 0)
(-0.817914 -1.61578e-05 0)
(-0.82943 -1.15039e-05 0)
(-0.839459 -7.91171e-06 0)
(-0.848037 -5.34034e-06 0)
(-0.855228 -3.62584e-06 0)
(-0.861131 -2.52432e-06 0)
(-0.865874 -1.81435e-06 0)
(-0.869605 -1.34471e-06 0)
(-0.872477 -1.02514e-06 0)
(-0.874635 -8.0248e-07 0)
(-0.876207 -6.44165e-07 0)
(-0.877301 -5.29471e-07 0)
(-0.878005 -4.44815e-07 0)
(-0.878388 -3.81031e-07 0)
(-0.878504 -3.31746e-07 0)
(-0.878394 -2.9238e-07 0)
(-0.878094 -2.59541e-07 0)
(-0.877627 -2.30655e-07 0)
(-0.877016 -2.03802e-07 0)
(-0.876276 -1.77744e-07 0)
(-0.875422 -1.52127e-07 0)
(-0.874465 -1.27661e-07 0)
(-0.873413 -1.05819e-07 0)
(-0.872276 -8.7878e-08 0)
(-0.87106 -7.39505e-08 0)
(-0.869771 -6.29894e-08 0)
(-0.868416 -5.37825e-08 0)
(-0.866998 -4.57981e-08 0)
(-0.865523 -3.90394e-08 0)
(-0.863993 -3.34398e-08 0)
(-0.862415 -2.87231e-08 0)
(-0.860789 -2.46739e-08 0)
(-0.85912 -2.12344e-08 0)
(-0.857412 -1.83551e-08 0)
(-0.855665 -1.59051e-08 0)
(-0.853866 -1.37274e-08 0)
(-0.851996 -1.17884e-08 0)
(-0.850055 -1.01513e-08 0)
(-0.848043 -8.78082e-09 0)
(-0.845959 -7.53799e-09 0)
(-0.843805 -6.38899e-09 0)
(-0.841578 -5.42705e-09 0)
(-0.83928 -4.64864e-09 0)
(-0.836911 -3.94429e-09 0)
(-0.834471 -3.30343e-09 0)
(-0.83196 -2.77758e-09 0)
(-0.829378 -2.33732e-09 0)
(-0.826727 -1.94734e-09 0)
(-0.824007 -1.62228e-09 0)
(-0.821219 -1.34953e-09 0)
(-0.818364 -1.10391e-09 0)
(-0.815445 -8.99998e-10 0)
(-0.812461 -7.41075e-10 0)
(-0.809416 -5.99626e-10 0)
(-0.806313 -4.72932e-10 0)
(-0.803153 -3.73507e-10 0)
(-0.799941 -2.93169e-10 0)
(-0.796681 -2.24682e-10 0)
(-0.793378 -1.69145e-10 0)
(-0.790038 -1.23464e-10 0)
(-0.786669 -8.69921e-11 0)
(-0.783278 -5.92068e-11 0)
(-0.779876 -3.63354e-11 0)
(-0.776477 -1.77088e-11 0)
(-0.773097 -5.26109e-12 0)
(-0.769755 -2.03116e-11 0)
(-0.766479 8.05353e-11 0)
(-0.763302 -1.47835e-10 0)
(-0.760274 3.03126e-10 0)
(-0.757463 -4.46745e-10 0)
(-0.754983 6.70603e-10 0)
(-0.753159 -8.08972e-10 0)
(-0.752639 1.05786e-09 0)
(-0.752605 -1.30581e-09 0)
(-0.752599 1.56976e-09 0)
(-0.752594 -1.83039e-09 0)
(-0.752589 2.10645e-09 0)
(-0.752585 -2.38064e-09 0)
(-0.752582 2.67036e-09 0)
(-0.75258 -2.95963e-09 0)
(-0.752577 3.26448e-09 0)
(-0.752576 -3.5702e-09 0)
(-0.752574 3.89148e-09 0)
(-0.752573 -4.21488e-09 0)
(-0.752572 4.55381e-09 0)
(-0.752571 -4.89602e-09 0)
(-0.75257 5.25366e-09 0)
(-0.75257 -5.6157e-09 0)
(-0.75257 5.99307e-09 0)
(-0.752569 -6.37589e-09 0)
(-0.752569 6.77391e-09 0)
(-0.752569 -7.17837e-09 0)
(-0.752569 7.5979e-09 0)
(-0.752568 -8.02483e-09 0)
(-0.752568 8.4667e-09 0)
(-0.752568 -8.91686e-09 0)
(-0.752568 9.38185e-09 0)
(-0.752568 -9.85597e-09 0)
(-0.752568 1.03449e-08 0)
(-0.752568 -1.08436e-08 0)
(-0.752568 1.13572e-08 0)
(-0.752568 -1.18812e-08 0)
(-0.752568 1.24202e-08 0)
(-0.752568 -1.29702e-08 0)
(-0.752568 1.35352e-08 0)
(-0.752568 -1.41119e-08 0)
(-0.752568 1.47037e-08 0)
(-0.752568 -1.53076e-08 0)
(-0.752568 1.59269e-08 0)
(-0.752568 -1.65587e-08 0)
(-0.752568 1.7206e-08 0)
(-0.752568 -1.78664e-08 0)
(-0.752568 1.85424e-08 0)
(-0.752568 -1.9232e-08 0)
(-0.752568 1.99374e-08 0)
(-0.752568 -2.06568e-08 0)
(-0.752568 2.13922e-08 0)
(-0.752568 -2.2142e-08 0)
(-0.752568 2.29081e-08 0)
(-0.752568 -2.36889e-08 0)
(-0.752568 2.44862e-08 0)
(-0.752568 -2.52987e-08 0)
(-0.752568 2.61279e-08 0)
(-0.752568 -2.69726e-08 0)
(-0.752568 2.78343e-08 0)
(-0.752568 -2.87118e-08 0)
(-0.752568 2.96066e-08 0)
(-0.752568 -3.05175e-08 0)
(-0.752568 3.14458e-08 0)
(-0.752568 -3.23907e-08 0)
(-0.752568 3.33531e-08 0)
(-0.752568 -3.43324e-08 0)
(-0.752568 3.53294e-08 0)
(-0.752568 -3.63436e-08 0)
(-0.752568 3.73757e-08 0)
(-0.752568 -3.84252e-08 0)
(-0.752568 3.94928e-08 0)
(-0.752568 -4.05779e-08 0)
(-0.752568 4.16812e-08 0)
(-0.752568 -4.28021e-08 0)
(-0.752568 4.39413e-08 0)
(-0.752568 -4.50982e-08 0)
(-0.752568 4.62732e-08 0)
(-0.752568 -4.74659e-08 0)
(-0.752568 4.27192e-08 0)
(-0.752568 -4.29593e-08 0)
(-0.752568 4.3195e-08 0)
(-0.752568 -4.34257e-08 0)
(-0.752568 4.3652e-08 0)
(-0.752568 -4.38732e-08 0)
(-0.752568 4.40899e-08 0)
(-0.752568 -4.43014e-08 0)
(-0.752568 4.45083e-08 0)
(-0.752568 -4.47099e-08 0)
(-0.752568 4.49068e-08 0)
(-0.752568 -4.50983e-08 0)
(-0.752568 4.52851e-08 0)
(-0.752568 -4.54662e-08 0)
(-0.752568 4.56425e-08 0)
(-0.752568 -4.58131e-08 0)
(-0.752568 4.59788e-08 0)
(-0.752568 -4.61384e-08 0)
(-0.752568 4.62932e-08 0)
(-0.752568 -4.64416e-08 0)
(-0.752568 4.65854e-08 0)
(-0.752568 -4.67221e-08 0)
(-0.752568 4.68546e-08 0)
(-0.752568 -4.69792e-08 0)
(-0.752568 4.71e-08 0)
(-0.752568 -4.72121e-08 0)
(-0.752568 4.73208e-08 0)
(-0.752568 -4.74199e-08 0)
(-0.752568 4.75158e-08 0)
(-0.752568 -4.76013e-08 0)
(-0.752568 4.76838e-08 0)
(-0.752568 -4.77548e-08 0)
(-0.752568 4.78229e-08 0)
(-0.752568 -4.78784e-08 0)
(-0.752568 4.79305e-08 0)
(-0.752568 -4.79684e-08 0)
(-0.752568 4.80019e-08 0)
(-0.752568 -4.80177e-08 0)
(-0.752568 4.80135e-08 0)
(-0.752568 -4.79946e-08 0)
(-0.752568 4.79781e-08 0)
(-0.752568 -4.79535e-08 0)
(-0.752568 4.7933e-08 0)
(-0.752568 -4.79068e-08 0)
(-0.752568 4.78843e-08 0)
(-0.752568 -4.78581e-08 0)
(-0.752568 4.78345e-08 0)
(-0.752568 -4.78098e-08 0)
(-0.752568 4.77861e-08 0)
(-0.752568 -4.77652e-08 0)
)
;

boundaryField
{
    inandouthalf11
    {
        type            cyclic;
    }
    inandouthalf12
    {
        type            cyclic;
    }
    inandouthalf21
    {
        type            cyclic;
    }
    inandouthalf22
    {
        type            cyclic;
    }
    inandouthalf31
    {
        type            cyclic;
    }
    inandouthalf32
    {
        type            cyclic;
    }
    inandouthalf41
    {
        type            cyclic;
    }
    inandouthalf42
    {
        type            cyclic;
    }
    top
    {
        type            symmetryPlane;
    }
    walls
    {
        type            fixedValue;
        value           uniform (0 0 0);
    }
    frontAndBackPlanes
    {
        type            empty;
    }
}


// ************************************************************************* //
