/*--------------------------------*- C++ -*----------------------------------*\
| =========                 |                                                 |
| \\      /  F ield         | OpenFOAM: The Open Source CFD Toolbox           |
|  \\    /   O peration     | Version:  2.4.x                                 |
|   \\  /    A nd           | Web:      www.OpenFOAM.org                      |
|    \\/     M anipulation  |                                                 |
\*---------------------------------------------------------------------------*/
FoamFile
{
    version     2.0;
    format      ascii;
    class       volVectorField;
    location    "4.1";
    object      Ur;
}
// * * * * * * * * * * * * * * * * * * * * * * * * * * * * * * * * * * * * * //

dimensions      [0 1 -1 0 0 0 0];

internalField   nonuniform List<vector> 
360
(
(-8.72886e-05 1.22684e-07 0)
(-8.70498e-05 8.1472e-07 0)
(-8.69366e-05 1.62883e-06 0)
(-8.69636e-05 2.35084e-06 0)
(-8.69998e-05 3.03687e-06 0)
(-8.70236e-05 3.72995e-06 0)
(-8.70446e-05 4.44181e-06 0)
(-8.70649e-05 5.16963e-06 0)
(-8.70838e-05 5.90637e-06 0)
(-8.71033e-05 6.64754e-06 0)
(-8.71241e-05 7.39358e-06 0)
(-8.71455e-05 8.14724e-06 0)
(-8.71673e-05 8.91118e-06 0)
(-8.7189e-05 9.68651e-06 0)
(-8.72109e-05 1.04727e-05 0)
(-8.7233e-05 1.1268e-05 0)
(-8.72555e-05 1.20701e-05 0)
(-8.7278e-05 1.28751e-05 0)
(-8.73005e-05 1.36784e-05 0)
(-8.73231e-05 1.44752e-05 0)
(-8.73451e-05 1.52613e-05 0)
(-8.7367e-05 1.60356e-05 0)
(-8.73887e-05 1.68023e-05 0)
(-8.74105e-05 1.75717e-05 0)
(-8.74329e-05 1.83624e-05 0)
(-8.74565e-05 1.92025e-05 0)
(-8.74823e-05 2.01306e-05 0)
(-8.7512e-05 2.1194e-05 0)
(-8.75462e-05 2.2434e-05 0)
(-8.75848e-05 2.38492e-05 0)
(-8.76252e-05 2.53397e-05 0)
(-8.76627e-05 2.66916e-05 0)
(-8.76902e-05 2.76799e-05 0)
(-8.77081e-05 2.82382e-05 0)
(-8.77171e-05 2.84801e-05 0)
(-8.77227e-05 2.85637e-05 0)
(-8.77266e-05 2.85887e-05 0)
(-8.77308e-05 2.85961e-05 0)
(-8.77354e-05 2.85985e-05 0)
(-8.77393e-05 2.85993e-05 0)
(-8.77446e-05 2.85997e-05 0)
(-8.77499e-05 2.85999e-05 0)
(-8.77551e-05 2.86001e-05 0)
(-8.77617e-05 2.86004e-05 0)
(-8.77682e-05 2.86007e-05 0)
(-8.77754e-05 2.86011e-05 0)
(-8.77831e-05 2.86017e-05 0)
(-8.77908e-05 2.86023e-05 0)
(-8.77997e-05 2.86029e-05 0)
(-8.78098e-05 2.86036e-05 0)
(-8.78197e-05 2.8604e-05 0)
(-8.78308e-05 2.86045e-05 0)
(-8.78424e-05 2.86048e-05 0)
(-8.7855e-05 2.86051e-05 0)
(-8.7868e-05 2.86052e-05 0)
(-8.78826e-05 2.86054e-05 0)
(-8.78974e-05 2.86054e-05 0)
(-8.79137e-05 2.86055e-05 0)
(-8.79305e-05 2.86055e-05 0)
(-8.79479e-05 2.86054e-05 0)
(-8.79669e-05 2.86054e-05 0)
(-8.79859e-05 2.86053e-05 0)
(-8.8006e-05 2.86053e-05 0)
(-8.80264e-05 2.86052e-05 0)
(-8.80473e-05 2.86051e-05 0)
(-8.80687e-05 2.8605e-05 0)
(-8.80909e-05 2.86048e-05 0)
(-8.81138e-05 2.86046e-05 0)
(-8.81375e-05 2.86043e-05 0)
(-8.81619e-05 2.8604e-05 0)
(-8.81877e-05 2.86037e-05 0)
(-8.82145e-05 2.86033e-05 0)
(-8.82416e-05 2.86029e-05 0)
(-8.82701e-05 2.86025e-05 0)
(-8.8299e-05 2.86021e-05 0)
(-8.83289e-05 2.86018e-05 0)
(-8.83591e-05 2.86015e-05 0)
(-8.83901e-05 2.86012e-05 0)
(-8.84217e-05 2.86008e-05 0)
(-8.84542e-05 2.86005e-05 0)
(-8.84873e-05 2.86002e-05 0)
(-8.85215e-05 2.85998e-05 0)
(-8.85566e-05 2.85994e-05 0)
(-8.85926e-05 2.85989e-05 0)
(-8.86295e-05 2.85985e-05 0)
(-8.86673e-05 2.8598e-05 0)
(-8.8706e-05 2.85975e-05 0)
(-8.87455e-05 2.8597e-05 0)
(-8.87859e-05 2.85965e-05 0)
(-8.88271e-05 2.8596e-05 0)
(-8.88692e-05 2.85955e-05 0)
(-8.89122e-05 2.85949e-05 0)
(-8.89563e-05 2.85942e-05 0)
(-8.90014e-05 2.85935e-05 0)
(-8.90476e-05 2.85928e-05 0)
(-8.9095e-05 2.85919e-05 0)
(-8.91434e-05 2.8591e-05 0)
(-8.9193e-05 2.85901e-05 0)
(-8.92438e-05 2.8589e-05 0)
(-8.92958e-05 2.85879e-05 0)
(-8.9349e-05 2.85867e-05 0)
(-8.94035e-05 2.85854e-05 0)
(-8.94594e-05 2.8584e-05 0)
(-8.95167e-05 2.85824e-05 0)
(-8.95754e-05 2.85808e-05 0)
(-8.96356e-05 2.8579e-05 0)
(-8.96974e-05 2.8577e-05 0)
(-8.97609e-05 2.85749e-05 0)
(-8.9826e-05 2.85727e-05 0)
(-8.98929e-05 2.85703e-05 0)
(-8.99617e-05 2.85676e-05 0)
(-9.00324e-05 2.85648e-05 0)
(-9.01051e-05 2.85618e-05 0)
(-9.01799e-05 2.85586e-05 0)
(-9.02569e-05 2.85551e-05 0)
(-9.03363e-05 2.85515e-05 0)
(-9.0418e-05 2.85475e-05 0)
(-9.05023e-05 2.85433e-05 0)
(-9.05893e-05 2.85389e-05 0)
(-9.0679e-05 2.85342e-05 0)
(-9.07716e-05 2.85292e-05 0)
(-9.08673e-05 2.8524e-05 0)
(-9.09662e-05 2.85184e-05 0)
(-9.10684e-05 2.85126e-05 0)
(-9.11742e-05 2.85064e-05 0)
(-9.12837e-05 2.84998e-05 0)
(-9.13972e-05 2.84929e-05 0)
(-9.15151e-05 2.84854e-05 0)
(-9.16377e-05 2.84775e-05 0)
(-9.17653e-05 2.8469e-05 0)
(-9.18983e-05 2.84598e-05 0)
(-9.20369e-05 2.84499e-05 0)
(-9.21817e-05 2.84391e-05 0)
(-9.23345e-05 2.84274e-05 0)
(-9.24969e-05 2.84147e-05 0)
(-9.26691e-05 2.8401e-05 0)
(-9.285e-05 2.8386e-05 0)
(-9.30422e-05 2.83693e-05 0)
(-9.32553e-05 2.83505e-05 0)
(-9.35003e-05 2.83301e-05 0)
(-9.37669e-05 2.83091e-05 0)
(-9.40209e-05 2.82826e-05 0)
(-9.43232e-05 2.82528e-05 0)
(-9.47166e-05 2.82177e-05 0)
(-9.52012e-05 2.8159e-05 0)
(-9.60205e-05 2.79685e-05 0)
(-9.8636e-05 3.0372e-05 0)
(-0.000549836 1.08305e-05 0)
(-0.00900994 -0.000443936 0)
(-0.0120111 -0.00112422 0)
(-0.01029 -0.00137745 0)
(-0.00870287 -0.00158973 0)
(-0.00765644 -0.00180945 0)
(-0.00702186 -0.0020428 0)
(-0.00672024 -0.00229366 0)
(-0.00671909 -0.00256491 0)
(-0.00701025 -0.00285744 0)
(-0.00760058 -0.00317003 0)
(-0.00850831 -0.00349984 0)
(-0.00976052 -0.00384252 0)
(-0.0113884 -0.00419222 0)
(-0.01342 -0.00454156 0)
(-0.0158709 -0.00488166 0)
(-0.0187344 -0.0052018 0)
(-0.0219718 -0.00548669 0)
(-0.0255049 -0.00570938 0)
(-0.0292116 -0.00582613 0)
(-0.0329277 -0.00578986 0)
(-0.036463 -0.00558411 0)
(-0.039637 -0.0052425 0)
(-0.0423175 -0.00482851 0)
(-0.0444419 -0.0044017 0)
(-0.0460132 -0.00400123 0)
(-0.0470817 -0.00364703 0)
(-0.0477229 -0.00334672 0)
(-0.048019 -0.00310121 0)
(-0.0480466 -0.00290815 0)
(-0.0478701 -0.00276369 0)
(-0.0475401 -0.00266339 0)
(-0.0470946 -0.0026025 0)
(-0.0465606 -0.00257604 0)
(-0.0459565 -0.00257869 0)
(-0.0452941 -0.00260465 0)
(-0.0445805 -0.0026474 0)
(-0.0438187 -0.00269963 0)
(-0.0430095 -0.00275335 0)
(-0.0421518 -0.00280043 0)
(-0.0412422 -0.00283343 0)
(-0.0402807 -0.00285003 0)
(-0.0392651 -0.00285126 0)
(-0.0381951 -0.0028423 0)
(-0.0370709 -0.00282805 0)
(-0.0358939 -0.00281023 0)
(-0.0346661 -0.00278831 0)
(-0.0333891 -0.00276232 0)
(-0.0320646 -0.00273348 0)
(-0.0306942 -0.00270259 0)
(-0.0292801 -0.00266952 0)
(-0.0278243 -0.00263427 0)
(-0.0263281 -0.00259745 0)
(-0.0247927 -0.00255971 0)
(-0.0232043 -0.00252055 0)
(-0.0215479 -0.00247867 0)
(-0.0198232 -0.00243403 0)
(-0.0180286 -0.00238819 0)
(-0.016164 -0.00234152 0)
(-0.0142321 -0.00229175 0)
(-0.0122335 -0.00223822 0)
(-0.0101653 -0.00218383 0)
(-0.0080281 -0.00212894 0)
(-0.00582654 -0.00207057 0)
(-0.00355992 -0.00200987 0)
(-0.00122677 -0.00194948 0)
(0.0011684 -0.0018877 0)
(0.00362395 -0.0018244 0)
(0.00614142 -0.001762 0)
(0.00871443 -0.00169779 0)
(0.0113374 -0.00162891 0)
(0.014015 -0.00155982 0)
(0.0167436 -0.00149052 0)
(0.0195094 -0.00141386 0)
(0.0223131 -0.00133213 0)
(0.0251541 -0.00124803 0)
(0.0280194 -0.00115598 0)
(0.0309071 -0.00105788 0)
(0.0338069 -0.000951991 0)
(0.0367041 -0.000832672 0)
(0.0396021 -0.000707025 0)
(0.0424786 -0.000568927 0)
(0.0453063 -0.00040807 0)
(0.0480846 -0.000232375 0)
(0.0507998 -4.23672e-05 0)
(0.0534621 0.000147269 0)
(0.0560931 0.000309458 0)
(0.0586661 0.000438432 0)
(0.0611129 0.00053186 0)
(0.0631145 0.000691731 0)
(-0.00191808 0.0383681 0)
(-0.00168761 0.0395521 0)
(-0.00167857 0.0395418 0)
(-0.00167788 0.0395417 0)
(-0.00167771 0.0395417 0)
(-0.00167754 0.0395417 0)
(-0.00167737 0.0395417 0)
(-0.00167723 0.0395417 0)
(-0.00167712 0.0395417 0)
(-0.00167703 0.0395417 0)
(-0.00167696 0.0395417 0)
(-0.0016769 0.0395417 0)
(-0.00167685 0.0395417 0)
(-0.00167681 0.0395417 0)
(-0.00167677 0.0395417 0)
(-0.00167675 0.0395417 0)
(-0.00167673 0.0395417 0)
(-0.00167671 0.0395417 0)
(-0.00167669 0.0395417 0)
(-0.00167668 0.0395417 0)
(-0.00167668 0.0395417 0)
(-0.00167667 0.0395417 0)
(-0.00167666 0.0395417 0)
(-0.00167666 0.0395417 0)
(-0.00167666 0.0395417 0)
(-0.00167665 0.0395417 0)
(-0.00167665 0.0395417 0)
(-0.00167665 0.0395417 0)
(-0.00167665 0.0395417 0)
(-0.00167665 0.0395417 0)
(-0.00167665 0.0395417 0)
(-0.00167665 0.0395417 0)
(-0.00167665 0.0395417 0)
(-0.00167665 0.0395417 0)
(-0.00167665 0.0395417 0)
(-0.00167665 0.0395417 0)
(-0.00167665 0.0395417 0)
(-0.00167664 0.0395417 0)
(-0.00167665 0.0395417 0)
(-0.00167664 0.0395417 0)
(-0.00167665 0.0395417 0)
(-0.00167664 0.0395417 0)
(-0.00167665 0.0395417 0)
(-0.00167664 0.0395417 0)
(-0.00167665 0.0395417 0)
(-0.00167664 0.0395417 0)
(-0.00167665 0.0395417 0)
(-0.00167664 0.0395417 0)
(-0.00167665 0.0395417 0)
(-0.00167664 0.0395417 0)
(-0.00167665 0.0395417 0)
(-0.00167664 0.0395417 0)
(-0.00167665 0.0395417 0)
(-0.00167664 0.0395417 0)
(-0.00167665 0.0395416 0)
(-0.00167664 0.0395417 0)
(-0.00167665 0.0395416 0)
(-0.00167664 0.0395417 0)
(-0.00167665 0.0395416 0)
(-0.00167664 0.0395417 0)
(-0.00167665 0.0395416 0)
(-0.00167664 0.0395417 0)
(-0.00167665 0.0395416 0)
(-0.00167664 0.0395417 0)
(-0.00167665 0.0395416 0)
(-0.00167664 0.0395417 0)
(-0.00167665 0.0395416 0)
(-0.00167664 0.0395417 0)
(-0.00167665 0.0395416 0)
(-0.00167664 0.0395417 0)
(-0.00167665 0.0395416 0)
(-0.00167664 0.0395417 0)
(-0.00167665 0.0395416 0)
(-0.00167664 0.0395417 0)
(-0.00167665 0.0395416 0)
(-0.00167664 0.0395417 0)
(-0.00167665 0.0395416 0)
(-0.00167664 0.0395417 0)
(-0.00167665 0.0395416 0)
(-0.00167664 0.0395417 0)
(-0.00167665 0.0395416 0)
(-0.00167664 0.0395417 0)
(-0.00167665 0.0395416 0)
(-0.00167664 0.0395417 0)
(-0.00167665 0.0395416 0)
(-0.00167664 0.0395417 0)
(-0.00167665 0.0395416 0)
(-0.00167664 0.0395417 0)
(-0.00167665 0.0395416 0)
(-0.00167664 0.0395417 0)
(-0.00167665 0.0395416 0)
(-0.00167664 0.0395417 0)
(-0.00167665 0.0395416 0)
(-0.00167664 0.0395417 0)
(-0.00167665 0.0395416 0)
(-0.00167664 0.0395417 0)
(-0.00167665 0.0395416 0)
(-0.00167664 0.0395417 0)
(-0.00167665 0.0395416 0)
(-0.00167664 0.0395417 0)
(-0.00167665 0.0395416 0)
(-0.00167664 0.0395417 0)
(-0.00167665 0.0395416 0)
(-0.00167664 0.0395417 0)
(-0.00167665 0.0395416 0)
(-0.00167664 0.0395417 0)
(-0.00167665 0.0395416 0)
(-0.00167664 0.0395417 0)
(-0.00167665 0.0395416 0)
(-0.00167664 0.0395417 0)
(-0.00167665 0.0395416 0)
(-0.00167664 0.0395417 0)
(-0.00167665 0.0395416 0)
(-0.00167664 0.0395417 0)
(-0.00167665 0.0395416 0)
(-0.00167664 0.0395417 0)
(-0.00167665 0.0395416 0)
(-0.00167664 0.0395417 0)
(-0.00167665 0.0395416 0)
(-0.00167666 0.0395415 0)
(-0.00167716 0.039533 0)
(-0.0016891 0.0391882 0)
(-0.00196384 0.0224833 0)
)
;

boundaryField
{
    inandouthalf11
    {
        type            cyclic;
    }
    inandouthalf12
    {
        type            cyclic;
    }
    inandouthalf21
    {
        type            cyclic;
    }
    inandouthalf22
    {
        type            cyclic;
    }
    inandouthalf31
    {
        type            cyclic;
    }
    inandouthalf32
    {
        type            cyclic;
    }
    inandouthalf41
    {
        type            cyclic;
    }
    inandouthalf42
    {
        type            cyclic;
    }
    top
    {
        type            symmetryPlane;
    }
    walls
    {
        type            calculated;
        value           uniform (0 0 0);
    }
    frontAndBackPlanes
    {
        type            empty;
    }
}


// ************************************************************************* //
