/*--------------------------------*- C++ -*----------------------------------*\
| =========                 |                                                 |
| \\      /  F ield         | OpenFOAM: The Open Source CFD Toolbox           |
|  \\    /   O peration     | Version:  2.4.x                                 |
|   \\  /    A nd           | Web:      www.OpenFOAM.org                      |
|    \\/     M anipulation  |                                                 |
\*---------------------------------------------------------------------------*/
FoamFile
{
    version     2.0;
    format      ascii;
    class       volScalarField;
    location    "9.35";
    object      alpha;
}
// * * * * * * * * * * * * * * * * * * * * * * * * * * * * * * * * * * * * * //

dimensions      [0 0 0 0 0 0 0];

internalField   nonuniform List<scalar> 
360
(
0.610875
0.611733
0.611825
0.611736
0.611694
0.611681
0.611664
0.611642
0.61162
0.611597
0.611574
0.611551
0.611528
0.611504
0.611481
0.611457
0.611432
0.611408
0.611383
0.611358
0.611333
0.611307
0.611281
0.611255
0.611229
0.611202
0.611176
0.611148
0.611121
0.611093
0.611065
0.611037
0.611008
0.610979
0.61095
0.61092
0.610891
0.61086
0.61083
0.610799
0.610768
0.610736
0.610704
0.610672
0.61064
0.610607
0.610573
0.61054
0.610506
0.610471
0.610436
0.610401
0.610366
0.610329
0.610293
0.610256
0.610219
0.610181
0.610143
0.610104
0.610065
0.610025
0.609985
0.609944
0.609903
0.609861
0.609818
0.609775
0.609732
0.609688
0.609643
0.609598
0.609552
0.609505
0.609458
0.609409
0.609361
0.609311
0.609261
0.60921
0.609158
0.609106
0.609052
0.608998
0.608942
0.608886
0.608829
0.608771
0.608711
0.608651
0.60859
0.608527
0.608464
0.608399
0.608333
0.608266
0.608197
0.608127
0.608055
0.607982
0.607908
0.607832
0.607754
0.607674
0.607593
0.60751
0.607425
0.607337
0.607248
0.607157
0.607063
0.606967
0.606868
0.606767
0.606663
0.606556
0.606447
0.606334
0.606218
0.606098
0.605975
0.605848
0.605717
0.605581
0.605441
0.605296
0.605146
0.604991
0.604829
0.60466
0.604485
0.604302
0.604111
0.60391
0.603697
0.60347
0.603232
0.602979
0.602699
0.602378
0.60203
0.601649
0.596255
0.477628
0.354231
0.304845
0.276658
0.255473
0.237421
0.221112
0.205964
0.191714
0.176954
0.162741
0.149267
0.136582
0.124702
0.113631
0.103361
0.0938742
0.0851446
0.0771383
0.0698168
0.0631376
0.0570567
0.0515294
0.0465117
0.0419611
0.037837
0.0341014
0.0307189
0.0276567
0.0248848
0.0223758
0.020105
0.0180502
0.0161918
0.0145131
0.0129997
0.0116389
0.0104181
0.00932424
0.00834452
0.00746682
0.00668005
0.0059743
0.00534074
0.00477157
0.00425993
0.00379978
0.00338582
0.00301333
0.00267818
0.00237667
0.00210553
0.0018618
0.00164287
0.00144635
0.00127011
0.00111219
0.000970761
0.000842794
0.000725955
0.000619325
0.000522253
0.000434638
0.000356952
0.000289881
0.000233768
0.000188212
0.000152071
0.000123778
0.000101704
8.43996e-05
7.0701e-05
5.97198e-05
5.07953e-05
4.34413e-05
3.73032e-05
3.21162e-05
2.76848e-05
2.38614e-05
2.05396e-05
1.76328e-05
1.50849e-05
1.28443e-05
1.08833e-05
9.16715e-06
7.67777e-06
6.38688e-06
5.29575e-06
4.32114e-06
3.59232e-06
2.81605e-06
2.42295e-06
1.71891e-06
1.74828e-06
1.38258e-06
9.77149e-07
7.10636e-07
5.07206e-07
3.5922e-07
2.51165e-07
1.72738e-07
1.16372e-07
7.58326e-08
4.79622e-08
2.732e-08
1.5352e-08
4.08573e-09
2.79611e-22
4.8135e-35
2.59383e-46
1.70474e-47
1.83829e-51
3.46328e-52
4.46823e-53
2.40503e-53
1.24461e-53
6.9073e-54
3.28476e-54
1.67041e-54
8.49054e-55
4.22491e-55
2.07647e-55
1.00397e-55
4.77288e-56
2.22986e-56
1.02323e-56
4.60867e-57
2.03591e-57
8.81782e-58
3.7421e-58
1.55494e-58
6.32171e-59
2.51267e-59
9.75563e-60
3.69665e-60
1.3658e-60
4.91537e-61
1.72128e-61
5.8583e-62
1.93547e-62
6.19901e-63
1.92203e-63
5.7601e-64
1.66574e-64
4.63982e-65
1.24237e-65
3.19086e-66
7.84207e-67
1.83935e-67
4.10506e-68
8.68879e-69
1.73763e-69
3.26936e-70
5.75918e-71
9.44483e-72
1.43247e-72
1.9935e-73
2.52148e-74
2.86489e-75
2.88099e-76
2.5152e-77
1.857e-78
1.11655e-79
5.1545e-81
1.64414e-82
2.83219e-84
5.12263e-87
1.06616e-92
7.66194e-95
2.72742e-97
1.03273e-107
1.97741e-118
2.80622e-129
2.88314e-140
2.56845e-151
1.75429e-162
1.02927e-173
3.53733e-184
1.59758e-194
1.05361e-202
4.66496e-213
3.62369e-221
1.89374e-231
1.24722e-239
7.9961e-250
4.2974e-258
5.12446e-268
1.51358e-276
3.39954e-286
5.50276e-295
1.68252e-304
2.05374e-313
2.97922e-321
2.51973e-321
8.86848e-321
4.57737e-319
2.8055e-319
6.80328e-321
7.09478e-321
6.08689e-321
8.5424e-321
0
0
0
0
0
0
0
0
0
0
0
0
0
0
0
0
)
;

boundaryField
{
    inandouthalf11
    {
        type            cyclic;
    }
    inandouthalf12
    {
        type            cyclic;
    }
    inandouthalf21
    {
        type            cyclic;
    }
    inandouthalf22
    {
        type            cyclic;
    }
    inandouthalf31
    {
        type            cyclic;
    }
    inandouthalf32
    {
        type            cyclic;
    }
    inandouthalf41
    {
        type            cyclic;
    }
    inandouthalf42
    {
        type            cyclic;
    }
    top
    {
        type            symmetryPlane;
    }
    walls
    {
        type            zeroGradient;
    }
    frontAndBackPlanes
    {
        type            empty;
    }
}


// ************************************************************************* //
