/*--------------------------------*- C++ -*----------------------------------*\
| =========                 |                                                 |
| \\      /  F ield         | OpenFOAM: The Open Source CFD Toolbox           |
|  \\    /   O peration     | Version:  2.4.x                                 |
|   \\  /    A nd           | Web:      www.OpenFOAM.org                      |
|    \\/     M anipulation  |                                                 |
\*---------------------------------------------------------------------------*/
FoamFile
{
    version     2.0;
    format      ascii;
    class       volScalarField;
    location    "9.35";
    object      alpha_0;
}
// * * * * * * * * * * * * * * * * * * * * * * * * * * * * * * * * * * * * * //

dimensions      [0 0 0 0 0 0 0];

internalField   nonuniform List<scalar> 
360
(
0.610875
0.611733
0.611825
0.611736
0.611694
0.611681
0.611664
0.611642
0.611619
0.611597
0.611574
0.611551
0.611528
0.611504
0.611481
0.611457
0.611432
0.611408
0.611383
0.611358
0.611333
0.611307
0.611281
0.611255
0.611229
0.611202
0.611176
0.611148
0.611121
0.611093
0.611065
0.611037
0.611008
0.610979
0.61095
0.61092
0.61089
0.61086
0.61083
0.610799
0.610768
0.610736
0.610704
0.610672
0.61064
0.610607
0.610573
0.61054
0.610506
0.610471
0.610436
0.610401
0.610366
0.610329
0.610293
0.610256
0.610219
0.610181
0.610143
0.610104
0.610064
0.610025
0.609985
0.609944
0.609903
0.609861
0.609818
0.609775
0.609732
0.609688
0.609643
0.609598
0.609552
0.609505
0.609458
0.609409
0.609361
0.609311
0.609261
0.60921
0.609158
0.609106
0.609052
0.608998
0.608942
0.608886
0.608829
0.608771
0.608711
0.608651
0.60859
0.608527
0.608464
0.608399
0.608333
0.608266
0.608197
0.608127
0.608055
0.607982
0.607908
0.607832
0.607754
0.607674
0.607593
0.60751
0.607425
0.607337
0.607248
0.607157
0.607063
0.606967
0.606868
0.606767
0.606663
0.606556
0.606447
0.606334
0.606218
0.606098
0.605975
0.605848
0.605717
0.605581
0.605441
0.605296
0.605146
0.604991
0.604829
0.60466
0.604485
0.604302
0.604111
0.60391
0.603697
0.60347
0.603232
0.602979
0.602699
0.602378
0.60203
0.601649
0.596252
0.47753
0.354199
0.304835
0.276654
0.255471
0.237421
0.221114
0.205967
0.191719
0.17696
0.162749
0.149276
0.136592
0.124712
0.113641
0.103371
0.0938835
0.0851534
0.0771467
0.0698245
0.0631446
0.0570631
0.0515351
0.0465168
0.0419655
0.0378409
0.0341048
0.0307218
0.0276591
0.0248868
0.0223775
0.0201063
0.0180513
0.0161927
0.0145138
0.0130002
0.0116393
0.0104184
0.0093245
0.00834473
0.00746698
0.00668017
0.00597436
0.00534075
0.00477154
0.00425986
0.00379967
0.00338566
0.00301314
0.00267796
0.00237643
0.00210526
0.00186152
0.00164258
0.00144605
0.00126981
0.00111188
0.000970458
0.000842494
0.00072566
0.000619035
0.000521972
0.000434373
0.000356709
0.000289669
0.000233591
0.000188069
0.00015196
0.000123693
0.000101638
8.43498e-05
7.06626e-05
5.96899e-05
5.07717e-05
4.34225e-05
3.7288e-05
3.21038e-05
2.76745e-05
2.38529e-05
2.05324e-05
1.76267e-05
1.50797e-05
1.28398e-05
1.08795e-05
9.16393e-06
7.67505e-06
6.38461e-06
5.29382e-06
4.31957e-06
3.59098e-06
2.81501e-06
2.42203e-06
1.71827e-06
1.74756e-06
1.382e-06
9.76774e-07
7.10376e-07
5.07036e-07
3.59103e-07
2.5108e-07
1.72672e-07
1.16318e-07
7.57866e-08
4.79304e-08
2.7293e-08
1.53365e-08
4.06647e-09
2.80433e-22
4.86219e-35
2.61966e-46
1.72326e-47
1.85253e-51
3.49371e-52
4.48388e-53
2.41334e-53
1.24865e-53
6.93057e-54
3.29612e-54
1.67606e-54
8.5191e-55
4.23922e-55
2.08351e-55
1.00737e-55
4.78908e-56
2.23744e-56
1.02671e-56
4.62435e-57
2.04284e-57
8.84787e-58
3.75486e-58
1.56025e-58
6.34331e-59
2.52126e-59
9.78902e-60
3.70932e-60
1.37049e-60
4.93224e-61
1.72719e-61
5.87845e-62
1.94214e-62
6.22037e-63
1.92866e-63
5.77998e-64
1.6715e-64
4.65588e-65
1.24667e-65
3.20193e-66
7.86929e-67
1.84574e-67
4.11935e-68
8.71906e-69
1.74369e-69
3.28078e-70
5.77932e-71
9.4779e-72
1.43749e-72
2.0005e-73
2.53034e-74
2.87497e-75
2.89115e-76
2.52409e-77
1.86357e-78
1.12051e-79
5.17281e-81
1.64999e-82
2.84231e-84
5.14121e-87
1.07032e-92
7.69199e-95
2.73818e-97
1.03678e-107
1.98512e-118
2.81709e-129
2.89423e-140
2.57826e-151
1.76093e-162
1.03314e-173
3.55117e-184
1.60383e-194
1.05776e-202
4.68324e-213
3.63798e-221
1.90116e-231
1.25214e-239
8.02747e-250
4.31434e-258
5.14457e-268
1.51954e-276
3.41289e-286
5.52445e-295
1.68913e-304
2.06183e-313
2.97428e-321
2.51973e-321
8.86848e-321
4.57737e-319
2.8055e-319
6.80328e-321
7.09478e-321
6.08689e-321
8.5424e-321
0
0
0
0
0
0
0
0
0
0
0
0
0
0
0
0
)
;

boundaryField
{
    inandouthalf11
    {
        type            cyclic;
    }
    inandouthalf12
    {
        type            cyclic;
    }
    inandouthalf21
    {
        type            cyclic;
    }
    inandouthalf22
    {
        type            cyclic;
    }
    inandouthalf31
    {
        type            cyclic;
    }
    inandouthalf32
    {
        type            cyclic;
    }
    inandouthalf41
    {
        type            cyclic;
    }
    inandouthalf42
    {
        type            cyclic;
    }
    top
    {
        type            symmetryPlane;
    }
    walls
    {
        type            zeroGradient;
    }
    frontAndBackPlanes
    {
        type            empty;
    }
}


// ************************************************************************* //
