/*--------------------------------*- C++ -*----------------------------------*\
| =========                 |                                                 |
| \\      /  F ield         | OpenFOAM: The Open Source CFD Toolbox           |
|  \\    /   O peration     | Version:  2.4.x                                 |
|   \\  /    A nd           | Web:      www.OpenFOAM.org                      |
|    \\/     M anipulation  |                                                 |
\*---------------------------------------------------------------------------*/
FoamFile
{
    version     2.0;
    format      ascii;
    class       volScalarField;
    location    "9.35";
    object      ddt0(alpha);
}
// * * * * * * * * * * * * * * * * * * * * * * * * * * * * * * * * * * * * * //

dimensions      [0 0 -1 0 0 0 0];

internalField   nonuniform List<scalar> 
360
(
1.65101e-05
2.47673e-05
2.27457e-05
2.17537e-05
2.23644e-05
2.29435e-05
2.32351e-05
2.34987e-05
2.38461e-05
2.42873e-05
2.47885e-05
2.5316e-05
2.58626e-05
2.64187e-05
2.69845e-05
2.75587e-05
2.81357e-05
2.87086e-05
2.92733e-05
2.98337e-05
3.03744e-05
3.09082e-05
3.14268e-05
3.19293e-05
3.24154e-05
3.28823e-05
3.33269e-05
3.37573e-05
3.41637e-05
3.45458e-05
3.4903e-05
3.52438e-05
3.55434e-05
3.58374e-05
3.60873e-05
3.63173e-05
3.65112e-05
3.6682e-05
3.68299e-05
3.69249e-05
3.7013e-05
3.70599e-05
3.70641e-05
3.70587e-05
3.70092e-05
3.69339e-05
3.68304e-05
3.66771e-05
3.65104e-05
3.63299e-05
3.60973e-05
3.58541e-05
3.55779e-05
3.52887e-05
3.49613e-05
3.46368e-05
3.42695e-05
3.39008e-05
3.35067e-05
3.30868e-05
3.26823e-05
3.22479e-05
3.18231e-05
3.13794e-05
3.09324e-05
3.0474e-05
3.0017e-05
2.9555e-05
2.90867e-05
2.86098e-05
2.81501e-05
2.76962e-05
2.72262e-05
2.67768e-05
2.63251e-05
2.58856e-05
2.5436e-05
2.49892e-05
2.45463e-05
2.41081e-05
2.36704e-05
2.32414e-05
2.28207e-05
2.24065e-05
2.19993e-05
2.15958e-05
2.11963e-05
2.07966e-05
2.03971e-05
1.99991e-05
1.9603e-05
1.92096e-05
1.8821e-05
1.84371e-05
1.80576e-05
1.76816e-05
1.73083e-05
1.69366e-05
1.6566e-05
1.61965e-05
1.58284e-05
1.54619e-05
1.50976e-05
1.47358e-05
1.43764e-05
1.40197e-05
1.36655e-05
1.33141e-05
1.29655e-05
1.262e-05
1.22776e-05
1.19387e-05
1.16033e-05
1.12712e-05
1.09419e-05
1.06144e-05
1.02864e-05
9.95462e-06
9.61441e-06
9.25947e-06
8.88229e-06
8.47484e-06
8.0301e-06
7.54416e-06
7.01872e-06
6.46311e-06
5.89476e-06
5.33729e-06
4.81619e-06
4.35319e-06
3.96011e-06
3.63196e-06
3.33925e-06
3.02153e-06
2.58412e-06
1.91591e-06
9.76255e-07
-9.94478e-08
-1.05061e-06
-1.66401e-06
-1.96289e-06
-3.44424e-05
0.0135111
0.495188
0.158857
0.0502611
0.0214069
0.00869148
-7.98405e-05
-0.0078835
-0.0158212
-0.0250103
-0.0324974
-0.038606
-0.0432742
-0.0464806
-0.0482818
-0.0488047
-0.0482223
-0.0467307
-0.0445294
-0.0418076
-0.0387364
-0.0354635
-0.0321118
-0.0287797
-0.0255424
-0.0224548
-0.0195539
-0.0168627
-0.0143915
-0.0121433
-0.0101145
-0.00829902
-0.00669218
-0.00529437
-0.00411672
-0.00317785
-0.00248212
-0.00198941
-0.00162638
-0.00132971
-0.0010637
-0.000811414
-0.00056539
-0.000323066
-8.48842e-05
0.000146856
0.000368811
0.000577289
0.000768826
0.000940594
0.00109062
0.00121787
0.00132212
0.00140381
0.00146386
0.00150353
0.00152457
0.00152955
0.00152196
0.00150589
0.00148418
0.00145523
0.00141014
0.00133502
0.00121961
0.00106616
0.00089073
0.000715397
0.000558264
0.000428443
0.000326928
0.000250079
0.00019276
0.000150153
0.000118377
9.44808e-05
7.63314e-05
6.24034e-05
5.15856e-05
4.30595e-05
3.62502e-05
3.07164e-05
2.61386e-05
2.22788e-05
1.89706e-05
1.61188e-05
1.36415e-05
1.1425e-05
9.6709e-06
7.84017e-06
6.7165e-06
5.21726e-06
4.61778e-06
3.25333e-06
3.63078e-06
2.92837e-06
1.87921e-06
1.30584e-06
8.53042e-07
5.88953e-07
4.28442e-07
3.35033e-07
2.69124e-07
2.31486e-07
1.59652e-07
1.35502e-07
7.80906e-08
9.62704e-08
-4.16396e-21
-2.46227e-33
-1.30486e-44
-9.36378e-46
-7.18161e-50
-1.53737e-50
-7.87102e-52
-4.18339e-52
-2.03624e-52
-1.1703e-52
-5.71213e-53
-2.84444e-53
-1.437e-53
-7.19921e-54
-3.54094e-54
-1.71335e-54
-8.1516e-55
-3.81133e-55
-1.75032e-55
-7.88921e-56
-3.48786e-56
-1.51192e-56
-6.42174e-57
-2.67072e-57
-1.08675e-57
-4.32332e-58
-1.68007e-58
-6.37204e-59
-2.35646e-59
-8.48862e-60
-2.9754e-60
-1.01365e-60
-3.35219e-61
-1.07472e-61
-3.33559e-62
-1.00067e-62
-2.89682e-63
-8.07751e-64
-2.16519e-64
-5.56714e-65
-1.36975e-65
-3.21641e-66
-7.18678e-67
-1.52297e-67
-3.04942e-68
-5.74468e-69
-1.01326e-69
-1.66388e-70
-2.52698e-71
-3.52159e-72
-4.46072e-73
-5.07586e-74
-5.11242e-75
-4.4707e-76
-3.30657e-77
-1.99192e-78
-9.21496e-80
-2.94653e-81
-5.09229e-83
-9.35052e-86
-2.09364e-91
-1.51269e-93
-5.41373e-96
-2.04694e-106
-3.91306e-117
-5.53958e-128
-5.68408e-139
-5.05169e-150
-3.45153e-161
-2.02606e-172
-7.01589e-183
-3.1671e-193
-2.09133e-201
-9.26213e-212
-7.19271e-220
-3.75861e-230
-2.47562e-238
-1.58682e-248
-8.53e-257
-1.01701e-266
-3.00429e-275
-6.74602e-285
-1.09225e-293
-3.33973e-303
-4.07596e-312
1.8735e-320
0
0
0
0
0
0
0
0
0
0
0
0
0
0
0
0
0
0
0
0
0
0
0
0
)
;

boundaryField
{
    inandouthalf11
    {
        type            cyclic;
    }
    inandouthalf12
    {
        type            cyclic;
    }
    inandouthalf21
    {
        type            cyclic;
    }
    inandouthalf22
    {
        type            cyclic;
    }
    inandouthalf31
    {
        type            cyclic;
    }
    inandouthalf32
    {
        type            cyclic;
    }
    inandouthalf41
    {
        type            cyclic;
    }
    inandouthalf42
    {
        type            cyclic;
    }
    top
    {
        type            symmetryPlane;
    }
    walls
    {
        type            calculated;
        value           uniform 1.65101e-05;
    }
    frontAndBackPlanes
    {
        type            empty;
    }
}


// ************************************************************************* //
