/*--------------------------------*- C++ -*----------------------------------*\
| =========                 |                                                 |
| \\      /  F ield         | OpenFOAM: The Open Source CFD Toolbox           |
|  \\    /   O peration     | Version:  2.4.x                                 |
|   \\  /    A nd           | Web:      www.OpenFOAM.org                      |
|    \\/     M anipulation  |                                                 |
\*---------------------------------------------------------------------------*/
FoamFile
{
    version     2.0;
    format      ascii;
    class       volVectorField;
    location    "9.35";
    object      ddt0(Ub);
}
// * * * * * * * * * * * * * * * * * * * * * * * * * * * * * * * * * * * * * //

dimensions      [0 1 -2 0 0 0 0];

internalField   nonuniform List<vector> 
360
(
(-0.000340243 -9.76556e-09 0)
(-0.000338374 -3.4955e-08 0)
(-0.000338124 -6.54346e-08 0)
(-0.000338387 -9.56633e-08 0)
(-0.000338519 -1.27249e-07 0)
(-0.000338568 -1.60896e-07 0)
(-0.000338628 -1.9618e-07 0)
(-0.000338703 -2.32684e-07 0)
(-0.000338779 -2.70276e-07 0)
(-0.000338856 -3.08942e-07 0)
(-0.000338935 -3.48671e-07 0)
(-0.000339014 -3.89421e-07 0)
(-0.000339094 -4.31127e-07 0)
(-0.000339175 -4.73722e-07 0)
(-0.000339256 -5.17138e-07 0)
(-0.000339339 -5.6131e-07 0)
(-0.000339424 -6.06176e-07 0)
(-0.000339509 -6.51667e-07 0)
(-0.000339595 -6.97703e-07 0)
(-0.000339682 -7.44213e-07 0)
(-0.00033977 -7.91122e-07 0)
(-0.000339859 -8.38351e-07 0)
(-0.000339949 -8.85817e-07 0)
(-0.00034004 -9.33452e-07 0)
(-0.000340133 -9.81171e-07 0)
(-0.000340226 -1.02889e-06 0)
(-0.00034032 -1.07653e-06 0)
(-0.000340415 -1.12402e-06 0)
(-0.000340511 -1.17126e-06 0)
(-0.000340607 -1.21818e-06 0)
(-0.000340705 -1.26468e-06 0)
(-0.000340804 -1.31069e-06 0)
(-0.000340903 -1.35612e-06 0)
(-0.000341004 -1.40088e-06 0)
(-0.000341104 -1.44489e-06 0)
(-0.000341206 -1.48807e-06 0)
(-0.000341309 -1.53032e-06 0)
(-0.000341413 -1.57158e-06 0)
(-0.000341517 -1.61177e-06 0)
(-0.000341621 -1.65081e-06 0)
(-0.000341728 -1.68864e-06 0)
(-0.000341834 -1.72519e-06 0)
(-0.000341941 -1.76039e-06 0)
(-0.00034205 -1.7942e-06 0)
(-0.000342158 -1.82658e-06 0)
(-0.000342268 -1.85749e-06 0)
(-0.000342378 -1.8869e-06 0)
(-0.000342488 -1.91479e-06 0)
(-0.0003426 -1.94113e-06 0)
(-0.000342713 -1.96594e-06 0)
(-0.000342825 -1.98923e-06 0)
(-0.00034294 -2.01102e-06 0)
(-0.000343054 -2.03132e-06 0)
(-0.00034317 -2.05019e-06 0)
(-0.000343286 -2.06765e-06 0)
(-0.000343404 -2.08378e-06 0)
(-0.000343521 -2.0986e-06 0)
(-0.00034364 -2.11219e-06 0)
(-0.00034376 -2.12462e-06 0)
(-0.000343881 -2.13596e-06 0)
(-0.000344004 -2.1463e-06 0)
(-0.000344126 -2.1557e-06 0)
(-0.000344251 -2.16428e-06 0)
(-0.000344376 -2.17209e-06 0)
(-0.000344503 -2.17922e-06 0)
(-0.000344631 -2.18575e-06 0)
(-0.000344761 -2.19177e-06 0)
(-0.000344892 -2.19734e-06 0)
(-0.000345024 -2.20255e-06 0)
(-0.000345158 -2.20745e-06 0)
(-0.000345294 -2.21211e-06 0)
(-0.000345432 -2.21661e-06 0)
(-0.00034557 -2.22099e-06 0)
(-0.000345711 -2.22532e-06 0)
(-0.000345854 -2.22964e-06 0)
(-0.000345999 -2.234e-06 0)
(-0.000346146 -2.23843e-06 0)
(-0.000346295 -2.24297e-06 0)
(-0.000346446 -2.24764e-06 0)
(-0.000346599 -2.25247e-06 0)
(-0.000346755 -2.25747e-06 0)
(-0.000346913 -2.26267e-06 0)
(-0.000347074 -2.26808e-06 0)
(-0.000347237 -2.2737e-06 0)
(-0.000347403 -2.27956e-06 0)
(-0.000347572 -2.28564e-06 0)
(-0.000347744 -2.29196e-06 0)
(-0.000347918 -2.2985e-06 0)
(-0.000348096 -2.30526e-06 0)
(-0.000348277 -2.31224e-06 0)
(-0.00034846 -2.31942e-06 0)
(-0.000348648 -2.3268e-06 0)
(-0.000348839 -2.33435e-06 0)
(-0.000349033 -2.34208e-06 0)
(-0.000349231 -2.34997e-06 0)
(-0.000349433 -2.358e-06 0)
(-0.00034964 -2.36618e-06 0)
(-0.00034985 -2.37448e-06 0)
(-0.000350064 -2.38288e-06 0)
(-0.000350283 -2.39137e-06 0)
(-0.000350507 -2.39993e-06 0)
(-0.000350736 -2.40854e-06 0)
(-0.000350969 -2.41718e-06 0)
(-0.000351208 -2.42584e-06 0)
(-0.000351452 -2.43451e-06 0)
(-0.000351702 -2.44317e-06 0)
(-0.000351957 -2.45182e-06 0)
(-0.000352219 -2.46043e-06 0)
(-0.000352487 -2.46902e-06 0)
(-0.000352762 -2.47758e-06 0)
(-0.000353044 -2.4861e-06 0)
(-0.000353333 -2.4946e-06 0)
(-0.000353629 -2.50309e-06 0)
(-0.000353934 -2.51157e-06 0)
(-0.000354247 -2.52005e-06 0)
(-0.000354568 -2.52853e-06 0)
(-0.000354899 -2.53699e-06 0)
(-0.000355239 -2.54541e-06 0)
(-0.000355589 -2.55373e-06 0)
(-0.00035595 -2.56189e-06 0)
(-0.000356322 -2.5698e-06 0)
(-0.000356705 -2.57737e-06 0)
(-0.000357101 -2.5845e-06 0)
(-0.00035751 -2.59113e-06 0)
(-0.000357933 -2.59722e-06 0)
(-0.000358371 -2.60281e-06 0)
(-0.000358825 -2.608e-06 0)
(-0.000359296 -2.61292e-06 0)
(-0.000359786 -2.61778e-06 0)
(-0.000360297 -2.62276e-06 0)
(-0.00036083 -2.62803e-06 0)
(-0.000361386 -2.63364e-06 0)
(-0.000361969 -2.63946e-06 0)
(-0.000362584 -2.64516e-06 0)
(-0.000363238 -2.65009e-06 0)
(-0.000363931 -2.65341e-06 0)
(-0.000364658 -2.65448e-06 0)
(-0.000365428 -2.65317e-06 0)
(-0.000366282 -2.65566e-06 0)
(-0.000367261 -1.17124e-06 0)
(-0.000368327 -1.8015e-05 0)
(-0.000371219 4.61147e-05 0)
(-0.00178458 -0.00020214 0)
(-0.25917 0.000406375 0)
(-0.342512 0.00414796 0)
(-0.30817 0.00313866 0)
(-0.290865 0.00306256 0)
(-0.284397 0.00287071 0)
(-0.284682 0.00267585 0)
(-0.289384 0.00248146 0)
(-0.297139 0.00228529 0)
(-0.307191 0.00209187 0)
(-0.318905 0.00188904 0)
(-0.331864 0.00170471 0)
(-0.345716 0.00154028 0)
(-0.360162 0.00139462 0)
(-0.374949 0.00126602 0)
(-0.389868 0.00115233 0)
(-0.404748 0.00105122 0)
(-0.419453 0.000960464 0)
(-0.433878 0.000878151 0)
(-0.447941 0.000802688 0)
(-0.461585 0.000732809 0)
(-0.474769 0.000667549 0)
(-0.487466 0.000606213 0)
(-0.499661 0.000548336 0)
(-0.511346 0.000493649 0)
(-0.522524 0.000442044 0)
(-0.533198 0.000393531 0)
(-0.543377 0.000348206 0)
(-0.553075 0.000306214 0)
(-0.562303 0.000267714 0)
(-0.571075 0.000232842 0)
(-0.579407 0.000201691 0)
(-0.587313 0.000174324 0)
(-0.594806 0.000150805 0)
(-0.6019 0.000131226 0)
(-0.608609 0.000115636 0)
(-0.614946 0.000103751 0)
(-0.620923 9.47879e-05 0)
(-0.626552 8.78184e-05 0)
(-0.631843 8.22392e-05 0)
(-0.636804 7.77848e-05 0)
(-0.641438 7.42554e-05 0)
(-0.645748 7.13712e-05 0)
(-0.649734 6.87948e-05 0)
(-0.653392 6.62064e-05 0)
(-0.656719 6.33595e-05 0)
(-0.659708 6.0105e-05 0)
(-0.662351 5.63887e-05 0)
(-0.664637 5.22339e-05 0)
(-0.666556 4.77165e-05 0)
(-0.668094 4.29416e-05 0)
(-0.669236 3.80238e-05 0)
(-0.669966 3.3074e-05 0)
(-0.670266 2.81915e-05 0)
(-0.670115 2.34612e-05 0)
(-0.669493 1.89532e-05 0)
(-0.668376 1.47198e-05 0)
(-0.666738 1.07909e-05 0)
(-0.664556 7.16897e-06 0)
(-0.661774 3.79946e-06 0)
(-0.658307 6.43377e-07 0)
(-0.654087 -2.24855e-06 0)
(-0.649046 -4.72331e-06 0)
(-0.643119 -6.54365e-06 0)
(-0.636247 -7.49943e-06 0)
(-0.628392 -7.54749e-06 0)
(-0.619542 -6.8655e-06 0)
(-0.609722 -5.77182e-06 0)
(-0.59901 -4.58069e-06 0)
(-0.587538 -3.50111e-06 0)
(-0.575502 -2.62113e-06 0)
(-0.563154 -1.94601e-06 0)
(-0.550781 -1.44381e-06 0)
(-0.538683 -1.07514e-06 0)
(-0.527137 -8.05579e-07 0)
(-0.516365 -6.08361e-07 0)
(-0.506516 -4.63722e-07 0)
(-0.497661 -3.57361e-07 0)
(-0.489798 -2.78883e-07 0)
(-0.482873 -2.20697e-07 0)
(-0.476797 -1.77273e-07 0)
(-0.471466 -1.44528e-07 0)
(-0.466772 -1.19411e-07 0)
(-0.462614 -9.96857e-08 0)
(-0.458903 -8.37901e-08 0)
(-0.455561 -7.06755e-08 0)
(-0.452526 -5.95651e-08 0)
(-0.449744 -5.01233e-08 0)
(-0.447173 -4.19699e-08 0)
(-0.444782 -3.48381e-08 0)
(-0.442543 -2.87478e-08 0)
(-0.440435 -2.35883e-08 0)
(-0.438444 -1.98201e-08 0)
(-0.436557 -1.79339e-08 0)
(-0.434763 -7.09341e-09 0)
(-0.433055 1.25426e-08 0)
(-0.431429 2.82759e-08 0)
(-0.429878 3.79392e-08 0)
(-0.4284 3.97651e-08 0)
(-0.426992 3.45465e-08 0)
(-0.425652 2.56147e-08 0)
(-0.424379 1.60993e-08 0)
(-0.423171 8.27833e-09 0)
(-0.42203 2.83397e-09 0)
(-0.420956 6.6299e-11 0)
(-0.41995 -1.86562e-09 0)
(-0.419013 -4.80555e-09 0)
(-0.41815 -2.75453e-09 0)
(-0.417364 4.62025e-10 0)
(-0.416658 -1.44384e-10 0)
(-0.41604 -9.94968e-11 0)
(-0.415515 -8.61348e-11 0)
(-0.415092 -8.18694e-11 0)
(-0.414781 -7.85786e-11 0)
(-0.414592 -7.57002e-11 0)
(-0.414538 -7.34474e-11 0)
(-0.414634 -7.03859e-11 0)
(-0.414894 -6.70967e-11 0)
(-0.415337 -6.50305e-11 0)
(-0.415979 -2.23272e-11 0)
(-0.416837 -1.4515e-10 0)
(-0.417922 1.01153e-10 0)
(-0.419239 -2.85769e-10 0)
(-0.420774 2.64443e-10 0)
(-0.422482 -4.38675e-10 0)
(-0.42423 4.08166e-10 0)
(-0.425611 -5.48799e-10 0)
(-0.425893 4.94612e-10 0)
(-0.425898 -6.08299e-10 0)
(-0.425898 5.48973e-10 0)
(-0.425898 -6.57073e-10 0)
(-0.425898 6.0588e-10 0)
(-0.425898 -7.10996e-10 0)
(-0.425898 6.65509e-10 0)
(-0.425898 -7.6743e-10 0)
(-0.425898 7.30298e-10 0)
(-0.425898 -8.28971e-10 0)
(-0.425898 7.96228e-10 0)
(-0.425898 -8.92735e-10 0)
(-0.425898 8.68746e-10 0)
(-0.425898 -9.61682e-10 0)
(-0.425898 9.42604e-10 0)
(-0.425898 -1.03027e-09 0)
(-0.425898 1.02774e-09 0)
(-0.425898 -1.10094e-09 0)
(-0.425898 1.11452e-09 0)
(-0.425898 -1.17868e-09 0)
(-0.425898 1.20142e-09 0)
(-0.425898 -1.26174e-09 0)
(-0.425898 1.29401e-09 0)
(-0.425898 -1.34327e-09 0)
(-0.425898 1.39364e-09 0)
(-0.425898 -1.43093e-09 0)
(-0.425898 1.49927e-09 0)
(-0.425898 -1.51003e-09 0)
(-0.425898 1.63006e-09 0)
(-0.425898 -1.57437e-09 0)
(-0.425898 1.77038e-09 0)
(-0.425898 -1.646e-09 0)
(-0.425898 1.91542e-09 0)
(-0.425898 -1.7142e-09 0)
(-0.425898 2.07573e-09 0)
(-0.425898 -1.7743e-09 0)
(-0.425898 2.24507e-09 0)
(-0.425898 -1.83782e-09 0)
(-0.425898 2.42565e-09 0)
(-0.425898 -1.89594e-09 0)
(-0.425898 2.62206e-09 0)
(-0.425898 -1.66015e-09 0)
(-0.425898 2.49489e-09 0)
(-0.425898 -1.61379e-09 0)
(-0.425898 2.62288e-09 0)
(-0.425898 -1.54654e-09 0)
(-0.425898 2.7582e-09 0)
(-0.425898 -1.48199e-09 0)
(-0.425898 2.88891e-09 0)
(-0.425898 -1.42128e-09 0)
(-0.425898 3.01262e-09 0)
(-0.425898 -1.34215e-09 0)
(-0.425898 3.19447e-09 0)
(-0.425898 -1.21045e-09 0)
(-0.425898 3.38008e-09 0)
(-0.425898 -1.07259e-09 0)
(-0.425898 3.62985e-09 0)
(-0.425898 -8.0843e-10 0)
(-0.425898 4.19935e-09 0)
(-0.425898 3.06761e-10 0)
(-0.425898 6.13981e-09 0)
(-0.425898 2.69032e-09 0)
(-0.425898 8.64732e-09 0)
(-0.425898 5.09535e-09 0)
(-0.425898 1.10568e-08 0)
(-0.425898 7.14833e-09 0)
(-0.425898 1.26948e-08 0)
(-0.425898 8.73971e-09 0)
(-0.425898 1.4716e-08 0)
(-0.425898 1.04429e-08 0)
(-0.425898 1.55285e-08 0)
(-0.425898 1.05492e-08 0)
(-0.425898 1.5334e-08 0)
(-0.425898 9.42417e-09 0)
(-0.425898 1.30636e-08 0)
(-0.425898 7.16464e-09 0)
(-0.425898 1.18586e-08 0)
(-0.425898 5.57537e-09 0)
(-0.425898 8.5262e-09 0)
(-0.425898 7.09937e-10 0)
(-0.425898 2.86625e-09 0)
(-0.425898 -6.34696e-09 0)
(-0.425898 -5.41281e-09 0)
(-0.425898 -1.67543e-08 0)
(-0.425898 -1.84454e-08 0)
(-0.425898 -2.97213e-08 0)
(-0.425898 -2.74405e-08 0)
(-0.425898 -3.79595e-08 0)
(-0.425898 -3.4026e-08 0)
(-0.425898 -2.7733e-08 0)
(-0.425898 -6.04351e-09 0)
)
;

boundaryField
{
    inandouthalf11
    {
        type            cyclic;
    }
    inandouthalf12
    {
        type            cyclic;
    }
    inandouthalf21
    {
        type            cyclic;
    }
    inandouthalf22
    {
        type            cyclic;
    }
    inandouthalf31
    {
        type            cyclic;
    }
    inandouthalf32
    {
        type            cyclic;
    }
    inandouthalf41
    {
        type            cyclic;
    }
    inandouthalf42
    {
        type            cyclic;
    }
    top
    {
        type            symmetryPlane;
    }
    walls
    {
        type            calculated;
        value           uniform (0 0 0);
    }
    frontAndBackPlanes
    {
        type            empty;
    }
}


// ************************************************************************* //
