/*--------------------------------*- C++ -*----------------------------------*\
| =========                 |                                                 |
| \\      /  F ield         | OpenFOAM: The Open Source CFD Toolbox           |
|  \\    /   O peration     | Version:  2.4.x                                 |
|   \\  /    A nd           | Web:      www.OpenFOAM.org                      |
|    \\/     M anipulation  |                                                 |
\*---------------------------------------------------------------------------*/
FoamFile
{
    version     2.0;
    format      ascii;
    class       volScalarField;
    location    "9.35";
    object      epsilon;
}
// * * * * * * * * * * * * * * * * * * * * * * * * * * * * * * * * * * * * * //

dimensions      [0 2 -3 0 0 0 0];

internalField   nonuniform List<scalar> 
360
(
1e-20
1e-20
1e-20
1e-20
1e-20
1e-20
1e-20
1e-20
1e-20
1e-20
1e-20
1e-20
1e-20
1e-20
1e-20
1e-20
1e-20
1e-20
1e-20
1e-20
1e-20
1e-20
1e-20
1e-20
1e-20
1e-20
1e-20
1e-20
1e-20
1e-20
1e-20
1e-20
1e-20
1e-20
1e-20
1e-20
1e-20
1e-20
1e-20
1e-20
1e-20
1e-20
1e-20
1e-20
1e-20
1e-20
1e-20
1e-20
1e-20
1e-20
1e-20
1e-20
1e-20
1e-20
1e-20
1e-20
1e-20
1e-20
1e-20
1e-20
1e-20
1e-20
1e-20
1e-20
1e-20
1e-20
1e-20
1e-20
1e-20
1e-20
1e-20
1e-20
1e-20
1e-20
1e-20
1e-20
1e-20
1e-20
1e-20
1e-20
1e-20
1e-20
1e-20
1e-20
1e-20
1e-20
1e-20
1e-20
1e-20
1e-20
1e-20
1e-20
1e-20
1e-20
1e-20
1e-20
1e-20
1e-20
1e-20
1e-20
1e-20
1e-20
1e-20
1e-20
1e-20
1e-20
1e-20
1e-20
1e-20
1e-20
1e-20
1e-20
1e-20
1e-20
1e-20
1e-20
1e-20
1e-20
1e-20
1e-20
1e-20
1e-20
1e-20
1e-20
1e-20
1e-20
1e-20
3.0676e-20
2.27136e-19
1.8364e-18
1.51392e-17
1.27733e-16
1.11389e-15
1.01762e-14
9.9169e-14
1.055e-12
1.25982e-11
1.74139e-10
2.87287e-09
5.81197e-08
1.47229e-06
4.71409e-05
0.00172411
0.0356119
0.175104
0.256441
0.28504
0.292627
0.290876
0.284766
0.276588
0.26744
0.257865
0.248164
0.238531
0.229088
0.219913
0.211046
0.202508
0.194305
0.186431
0.178879
0.171634
0.164683
0.15801
0.1516
0.145438
0.139509
0.1338
0.128298
0.122991
0.117869
0.112921
0.108138
0.10351
0.0990314
0.0946933
0.0904896
0.0864143
0.0824618
0.0786272
0.0749059
0.0712939
0.0677876
0.0643835
0.0610789
0.0578712
0.0547581
0.0517379
0.048809
0.0459702
0.0432204
0.0405593
0.0379862
0.0355012
0.0331044
0.0307961
0.0285769
0.0264476
0.024409
0.0224623
0.0205897
0.018778
0.0170337
0.0153637
0.013775
0.0122746
0.0108691
0.00956487
0.00836694
0.00727909
0.00630325
0.00543915
0.00468408
0.00403294
0.00347842
0.00301154
0.00262229
0.00230029
0.00203544
0.00181839
0.00164081
0.00149556
0.00137658
0.00127889
0.00119841
0.00113183
0.00107645
0.00103009
0.000990976
0.000957639
0.000928876
0.000903679
0.000881206
0.000860741
0.000841676
0.000823488
0.000805726
0.000788004
0.000769985
0.000751384
0.000731956
0.000711498
0.000689841
0.000666854
0.000642441
0.000616539
0.00058912
0.000560192
0.000529796
0.000498013
0.000464958
0.000430788
0.000395699
0.000359929
0.000323758
0.000287508
0.000251543
0.000216266
0.000182116
0.00014956
0.000119084
9.11773e-05
6.63161e-05
4.49386e-05
2.74204e-05
1.40477e-05
4.98336e-06
7.05392e-07
2.16844e-08
2.59597e-10
2.81614e-12
2.95689e-14
3.0178e-16
3.01325e-18
3.74378e-20
1e-20
1e-20
1e-20
1e-20
1e-20
1e-20
1e-20
1e-20
1e-20
1e-20
1e-20
1e-20
1e-20
1e-20
1e-20
1e-20
1e-20
1e-20
1e-20
1e-20
1e-20
1e-20
1e-20
1e-20
1e-20
1e-20
1e-20
1e-20
1e-20
1e-20
1e-20
1e-20
1e-20
1e-20
1e-20
1e-20
1e-20
1e-20
1e-20
1e-20
1e-20
1e-20
1e-20
1e-20
1e-20
1e-20
1e-20
1e-20
1e-20
1e-20
1e-20
1e-20
1e-20
1e-20
1e-20
1e-20
1e-20
1e-20
1e-20
1e-20
1e-20
1e-20
1e-20
1e-20
1e-20
1e-20
1e-20
1e-20
1e-20
1e-20
1e-20
1e-20
1e-20
1e-20
1e-20
1e-20
1e-20
1e-20
1e-20
1e-20
1e-20
1e-20
1e-20
1e-20
)
;

boundaryField
{
    inandouthalf11
    {
        type            cyclic;
    }
    inandouthalf12
    {
        type            cyclic;
    }
    inandouthalf21
    {
        type            cyclic;
    }
    inandouthalf22
    {
        type            cyclic;
    }
    inandouthalf31
    {
        type            cyclic;
    }
    inandouthalf32
    {
        type            cyclic;
    }
    inandouthalf41
    {
        type            cyclic;
    }
    inandouthalf42
    {
        type            cyclic;
    }
    top
    {
        type            symmetryPlane;
    }
    walls
    {
        type            zeroGradient;
    }
    frontAndBackPlanes
    {
        type            empty;
    }
}


// ************************************************************************* //
