/*--------------------------------*- C++ -*----------------------------------*\
| =========                 |                                                 |
| \\      /  F ield         | OpenFOAM: The Open Source CFD Toolbox           |
|  \\    /   O peration     | Version:  2.4.x                                 |
|   \\  /    A nd           | Web:      www.OpenFOAM.org                      |
|    \\/     M anipulation  |                                                 |
\*---------------------------------------------------------------------------*/
FoamFile
{
    version     2.0;
    format      ascii;
    class       volScalarField;
    location    "9.35";
    object      pa;
}
// * * * * * * * * * * * * * * * * * * * * * * * * * * * * * * * * * * * * * //

dimensions      [1 -1 -2 0 0 0 0];

internalField   nonuniform List<scalar> 
360
(
2.90337e-16
2.92837e-16
2.93101e-16
2.92842e-16
2.92719e-16
2.92681e-16
2.92632e-16
2.92568e-16
2.92503e-16
2.92437e-16
2.92371e-16
2.92304e-16
2.92237e-16
2.9217e-16
2.92101e-16
2.92032e-16
2.91962e-16
2.91891e-16
2.9182e-16
2.91748e-16
2.91675e-16
2.91602e-16
2.91527e-16
2.91452e-16
2.91376e-16
2.913e-16
2.91222e-16
2.91144e-16
2.91065e-16
2.90985e-16
2.90904e-16
2.90822e-16
2.9074e-16
2.90656e-16
2.90572e-16
2.90487e-16
2.90401e-16
2.90314e-16
2.90226e-16
2.90138e-16
2.90047e-16
2.89956e-16
2.89865e-16
2.89772e-16
2.89678e-16
2.89583e-16
2.89487e-16
2.89391e-16
2.89292e-16
2.89192e-16
2.89093e-16
2.88991e-16
2.88889e-16
2.88784e-16
2.8868e-16
2.88573e-16
2.88466e-16
2.88357e-16
2.88247e-16
2.88136e-16
2.88023e-16
2.87909e-16
2.87793e-16
2.87677e-16
2.87558e-16
2.87439e-16
2.87317e-16
2.87194e-16
2.87069e-16
2.86944e-16
2.86816e-16
2.86685e-16
2.86555e-16
2.86422e-16
2.86287e-16
2.86149e-16
2.86011e-16
2.8587e-16
2.85727e-16
2.85582e-16
2.85435e-16
2.85286e-16
2.85134e-16
2.8498e-16
2.84823e-16
2.84664e-16
2.84502e-16
2.84338e-16
2.84171e-16
2.84001e-16
2.83828e-16
2.83653e-16
2.83474e-16
2.83291e-16
2.83106e-16
2.82917e-16
2.82724e-16
2.82528e-16
2.82327e-16
2.82123e-16
2.81915e-16
2.81702e-16
2.81485e-16
2.81264e-16
2.81037e-16
2.80806e-16
2.80569e-16
2.80327e-16
2.8008e-16
2.79826e-16
2.79567e-16
2.79301e-16
2.79029e-16
2.7875e-16
2.78464e-16
2.7817e-16
2.77869e-16
2.77559e-16
2.77241e-16
2.76914e-16
2.76577e-16
2.7623e-16
2.75873e-16
2.75504e-16
2.75124e-16
2.74731e-16
2.74326e-16
5.51411e-16
3.61443e-15
2.67127e-14
1.99712e-13
1.5108e-12
1.16548e-11
9.27322e-11
7.73236e-10
6.90425e-09
6.78497e-08
7.57914e-07
9.98185e-06
0.000172867
0.00704248
0.283864
3.9556
11.1389
12.0542
11.8781
11.1713
10.3166
9.43422
8.56762
7.73232
6.91525
6.18853
5.53882
4.95516
4.4311
3.96127
3.54061
3.16431
2.82784
2.52703
2.25807
2.01751
1.80227
1.60958
1.437
1.28238
1.14378
1.01951
0.908066
0.808113
0.718469
0.638081
0.566013
0.501431
0.443597
0.391862
0.34566
0.3045
0.267938
0.23554
0.206882
0.181555
0.159183
0.139427
0.121988
0.1066
0.0930285
0.0810661
0.0705307
0.0612613
0.0531151
0.0459654
0.0396995
0.0342169
0.0294275
0.0252512
0.0216161
0.0184578
0.0157185
0.0133458
0.0112714
0.00944388
0.00783688
0.00642881
0.0052056
0.0041603
0.00328838
0.00258135
0.00202312
0.00159111
0.00126035
0.00100747
0.000812988
0.000661836
0.000542869
0.000447971
0.000371279
0.000308565
0.00025672
0.000213466
0.000177098
0.000146374
0.000120303
9.81918e-05
7.94377e-05
6.36355e-05
5.03689e-05
3.93444e-05
3.02354e-05
2.2874e-05
1.6746e-05
1.21958e-05
8.07364e-06
5.50531e-06
2.69601e-06
0
0
0
0
0
0
0
0
0
0
0
0
0
0
0
0
0
0
0
0
0
0
0
0
0
0
0
0
0
0
0
0
0
0
0
0
0
0
0
0
0
0
0
0
0
0
0
0
0
0
0
0
0
0
0
0
0
0
0
0
0
0
0
0
0
0
0
0
0
0
0
0
0
0
0
0
0
0
0
0
0
0
0
0
0
0
0
0
0
0
0
0
0
0
0
0
0
0
0
0
0
0
0
0
0
0
0
0
0
0
0
0
0
0
0
0
0
0
0
0
0
0
0
0
)
;

boundaryField
{
    inandouthalf11
    {
        type            cyclic;
    }
    inandouthalf12
    {
        type            cyclic;
    }
    inandouthalf21
    {
        type            cyclic;
    }
    inandouthalf22
    {
        type            cyclic;
    }
    inandouthalf31
    {
        type            cyclic;
    }
    inandouthalf32
    {
        type            cyclic;
    }
    inandouthalf41
    {
        type            cyclic;
    }
    inandouthalf42
    {
        type            cyclic;
    }
    top
    {
        type            symmetryPlane;
    }
    walls
    {
        type            calculated;
        value           uniform 2.90337e-16;
    }
    frontAndBackPlanes
    {
        type            empty;
    }
}


// ************************************************************************* //
