/*--------------------------------*- C++ -*----------------------------------*\
| =========                 |                                                 |
| \\      /  F ield         | OpenFOAM: The Open Source CFD Toolbox           |
|  \\    /   O peration     | Version:  2.4.x                                 |
|   \\  /    A nd           | Web:      www.OpenFOAM.org                      |
|    \\/     M anipulation  |                                                 |
\*---------------------------------------------------------------------------*/
FoamFile
{
    version     2.0;
    format      ascii;
    class       surfaceScalarField;
    location    "9.35";
    object      phib_0;
}
// * * * * * * * * * * * * * * * * * * * * * * * * * * * * * * * * * * * * * //

dimensions      [0 3 -1 0 0 0 0];

internalField   nonuniform List<scalar> 
359
(
8.47955e-14
2.12594e-13
3.29806e-13
4.41744e-13
5.56869e-13
6.74986e-13
7.94586e-13
9.15524e-13
1.03823e-12
1.1632e-12
1.29073e-12
1.42096e-12
1.55399e-12
1.68987e-12
1.82863e-12
1.97034e-12
2.11499e-12
2.26257e-12
2.41304e-12
2.56637e-12
2.72246e-12
2.88128e-12
3.04274e-12
3.20676e-12
3.37325e-12
3.54213e-12
3.71326e-12
3.88658e-12
4.06197e-12
4.23929e-12
4.41842e-12
4.59927e-12
4.78163e-12
4.96548e-12
5.15058e-12
5.33682e-12
5.52404e-12
5.71209e-12
5.90088e-12
6.09012e-12
6.27977e-12
6.46964e-12
6.65949e-12
6.84927e-12
7.03877e-12
7.22783e-12
7.41634e-12
7.60401e-12
7.79079e-12
7.9766e-12
8.16118e-12
8.34447e-12
8.5263e-12
8.7066e-12
8.88519e-12
9.06206e-12
9.23701e-12
9.41001e-12
9.58096e-12
9.74971e-12
9.91633e-12
1.00807e-11
1.02428e-11
1.04026e-11
1.05601e-11
1.07152e-11
1.08678e-11
1.10181e-11
1.11659e-11
1.13112e-11
1.14541e-11
1.15947e-11
1.17327e-11
1.18685e-11
1.20018e-11
1.21328e-11
1.22615e-11
1.23879e-11
1.25119e-11
1.26336e-11
1.27531e-11
1.28702e-11
1.29852e-11
1.3098e-11
1.32086e-11
1.33171e-11
1.34235e-11
1.35278e-11
1.363e-11
1.373e-11
1.3828e-11
1.39239e-11
1.40178e-11
1.41096e-11
1.41993e-11
1.42871e-11
1.43729e-11
1.44568e-11
1.45386e-11
1.46185e-11
1.46964e-11
1.47724e-11
1.48464e-11
1.49184e-11
1.49886e-11
1.50568e-11
1.51231e-11
1.51875e-11
1.525e-11
1.53106e-11
1.53694e-11
1.54263e-11
1.54814e-11
1.55347e-11
1.55862e-11
1.56358e-11
1.56837e-11
1.57297e-11
1.57738e-11
1.58159e-11
1.5856e-11
1.58938e-11
1.59291e-11
1.59618e-11
1.59916e-11
1.60184e-11
1.6042e-11
1.60626e-11
1.60802e-11
1.60953e-11
1.6108e-11
1.61187e-11
1.61276e-11
1.61344e-11
1.61385e-11
1.61387e-11
1.61336e-11
1.61223e-11
1.61048e-11
1.60829e-11
1.60583e-11
1.58626e-11
8.13892e-11
1.80787e-09
2.00306e-09
2.03545e-09
2.02533e-09
1.99561e-09
1.95084e-09
1.89169e-09
1.81739e-09
1.72364e-09
1.61517e-09
1.49709e-09
1.37317e-09
1.24675e-09
1.1208e-09
9.97818e-10
8.79813e-10
7.68293e-10
6.64307e-10
5.68504e-10
4.81191e-10
4.02407e-10
3.31973e-10
2.69555e-10
2.14709e-10
1.66919e-10
1.2563e-10
9.02749e-11
6.02923e-11
3.51386e-11
1.42972e-11
-2.72015e-12
-1.63796e-11
-2.71376e-11
-3.54648e-11
-4.18625e-11
-4.68359e-11
-5.08041e-11
-5.40348e-11
-5.66652e-11
-5.87595e-11
-6.03469e-11
-6.14413e-11
-6.20514e-11
-6.21861e-11
-6.1859e-11
-6.10903e-11
-5.9907e-11
-5.83434e-11
-5.64389e-11
-5.4237e-11
-5.17833e-11
-4.91234e-11
-4.63025e-11
-4.33635e-11
-4.03471e-11
-3.72903e-11
-3.4225e-11
-3.11761e-11
-2.80992e-11
-2.50061e-11
-2.19125e-11
-1.88546e-11
-1.59013e-11
-1.31489e-11
-1.06941e-11
-8.60168e-12
-6.88708e-12
-5.52195e-12
-4.45303e-12
-3.62083e-12
-2.97134e-12
-2.46056e-12
-2.0546e-12
-1.72807e-12
-1.46216e-12
-1.24298e-12
-1.06016e-12
-9.05964e-13
-7.74644e-13
-6.61848e-13
-5.64332e-13
-4.79666e-13
-4.06039e-13
-3.42073e-13
-2.8662e-13
-2.38737e-13
-1.97821e-13
-1.62484e-13
-1.33254e-13
-1.07706e-13
-8.74581e-14
-6.91729e-14
-5.65014e-14
-3.68011e-14
-2.87236e-14
-2.06521e-14
-1.49313e-14
-1.1123e-14
-8.4447e-15
-6.4596e-15
-4.87687e-15
-3.5788e-15
-2.43913e-15
-1.63555e-15
-9.40818e-16
-5.32072e-16
6.1217e-17
-1.3319e-17
-1.29776e-17
-1.25597e-17
-1.21645e-17
-1.16987e-17
-1.12587e-17
-1.07626e-17
-1.02903e-17
-9.76762e-18
-9.26901e-18
-8.74455e-18
-8.25348e-18
-7.76113e-18
-7.32923e-18
-6.94369e-18
-6.62135e-18
-6.33365e-18
-6.06818e-18
-5.82552e-18
-5.59808e-18
-5.37513e-18
-5.1629e-18
-4.98266e-18
-4.80822e-18
-4.63278e-18
-4.44365e-18
-4.26474e-18
-4.06918e-18
-3.87175e-18
-3.6677e-18
-3.50493e-18
-3.3386e-18
-3.17518e-18
-2.9908e-18
-2.81792e-18
-2.62447e-18
-2.3539e-18
-2.13857e-18
-1.94368e-18
-1.73545e-18
-1.52538e-18
-1.30013e-18
-1.08403e-18
-8.64044e-19
-6.54527e-19
-4.81318e-19
-3.39737e-19
-2.66884e-19
-2.09991e-19
-1.62505e-19
-1.20263e-19
-8.28231e-20
-4.64421e-20
-1.38702e-20
2.14612e-20
4.88202e-20
7.57755e-20
9.37584e-20
1.19469e-19
1.35454e-19
1.49578e-19
1.57336e-19
1.79132e-19
1.94815e-19
2.11909e-19
2.19549e-19
2.34276e-19
2.39535e-19
2.45727e-19
2.45314e-19
2.59705e-19
2.66594e-19
2.7476e-19
2.75119e-19
2.88616e-19
2.96365e-19
3.17011e-19
3.73456e-19
5.09765e-19
6.69555e-19
8.41652e-19
9.77515e-19
1.15889e-18
1.27567e-18
1.39672e-18
1.4455e-18
1.63749e-18
1.72253e-18
1.80887e-18
1.74805e-18
1.80946e-18
1.68899e-18
1.57841e-18
1.3088e-18
1.36131e-18
1.20682e-18
1.05444e-18
6.28673e-19
3.54268e-19
-1.59974e-19
-7.0352e-19
-1.26931e-18
-2.31251e-18
-3.09924e-18
-3.89684e-18
-3.85428e-18
-5.27497e-18
-4.21568e-18
-2.14884e-18
)
;

boundaryField
{
    inandouthalf11
    {
        type            cyclic;
        value           nonuniform List<scalar> 
100
(
9.00823e-11
8.9582e-11
8.95074e-11
8.95694e-11
8.95967e-11
8.96019e-11
8.96095e-11
8.96208e-11
8.96324e-11
8.96442e-11
8.96559e-11
8.96675e-11
8.96791e-11
8.96907e-11
8.97023e-11
8.9714e-11
8.97256e-11
8.97373e-11
8.97489e-11
8.97606e-11
8.97722e-11
8.97839e-11
8.97956e-11
8.98074e-11
8.98191e-11
8.98309e-11
8.98427e-11
8.98546e-11
8.98665e-11
8.98784e-11
8.98904e-11
8.99026e-11
8.99146e-11
8.9927e-11
8.99392e-11
8.99517e-11
8.99642e-11
8.99769e-11
8.99898e-11
9.00025e-11
9.00158e-11
9.00291e-11
9.00424e-11
9.00562e-11
9.00699e-11
9.0084e-11
9.00985e-11
9.01128e-11
9.01276e-11
9.01429e-11
9.01581e-11
9.01738e-11
9.01898e-11
9.02062e-11
9.02227e-11
9.024e-11
9.02572e-11
9.02751e-11
9.02933e-11
9.03117e-11
9.0331e-11
9.03503e-11
9.03704e-11
9.03908e-11
9.04117e-11
9.04331e-11
9.0455e-11
9.04775e-11
9.05005e-11
9.05238e-11
9.05481e-11
9.05729e-11
9.05979e-11
9.06239e-11
9.06503e-11
9.06776e-11
9.07052e-11
9.07336e-11
9.07628e-11
9.07926e-11
9.0823e-11
9.08543e-11
9.08863e-11
9.09191e-11
9.09527e-11
9.09871e-11
9.10224e-11
9.10584e-11
9.10953e-11
9.11332e-11
9.1172e-11
9.12117e-11
9.12525e-11
9.12943e-11
9.13372e-11
9.13811e-11
9.14262e-11
9.14725e-11
9.15199e-11
9.15686e-11
)
;
    }
    inandouthalf12
    {
        type            cyclic;
        value           nonuniform List<scalar> 
100
(
-9.00823e-11
-8.9582e-11
-8.95074e-11
-8.95694e-11
-8.95967e-11
-8.96019e-11
-8.96095e-11
-8.96208e-11
-8.96324e-11
-8.96442e-11
-8.96559e-11
-8.96675e-11
-8.96791e-11
-8.96907e-11
-8.97023e-11
-8.9714e-11
-8.97256e-11
-8.97373e-11
-8.97489e-11
-8.97606e-11
-8.97722e-11
-8.97839e-11
-8.97956e-11
-8.98074e-11
-8.98191e-11
-8.98309e-11
-8.98427e-11
-8.98546e-11
-8.98665e-11
-8.98784e-11
-8.98904e-11
-8.99026e-11
-8.99146e-11
-8.9927e-11
-8.99392e-11
-8.99517e-11
-8.99642e-11
-8.99769e-11
-8.99898e-11
-9.00025e-11
-9.00158e-11
-9.00291e-11
-9.00424e-11
-9.00562e-11
-9.00699e-11
-9.0084e-11
-9.00985e-11
-9.01128e-11
-9.01276e-11
-9.01429e-11
-9.01581e-11
-9.01738e-11
-9.01898e-11
-9.02062e-11
-9.02227e-11
-9.024e-11
-9.02572e-11
-9.02751e-11
-9.02933e-11
-9.03117e-11
-9.0331e-11
-9.03503e-11
-9.03704e-11
-9.03908e-11
-9.04117e-11
-9.04331e-11
-9.0455e-11
-9.04775e-11
-9.05005e-11
-9.05238e-11
-9.05481e-11
-9.05729e-11
-9.05979e-11
-9.06239e-11
-9.06503e-11
-9.06776e-11
-9.07052e-11
-9.07336e-11
-9.07628e-11
-9.07926e-11
-9.0823e-11
-9.08543e-11
-9.08863e-11
-9.09191e-11
-9.09527e-11
-9.09871e-11
-9.10224e-11
-9.10584e-11
-9.10953e-11
-9.11332e-11
-9.1172e-11
-9.12117e-11
-9.12525e-11
-9.12943e-11
-9.13372e-11
-9.13811e-11
-9.14262e-11
-9.14725e-11
-9.15199e-11
-9.15686e-11
)
;
    }
    inandouthalf21
    {
        type            cyclic;
        value           nonuniform List<scalar> 
100
(
9.16186e-11
9.16699e-11
9.17227e-11
9.17769e-11
9.18325e-11
9.18898e-11
9.19487e-11
9.20092e-11
9.20715e-11
9.21356e-11
9.22015e-11
9.22695e-11
9.23394e-11
9.24116e-11
9.24859e-11
9.25625e-11
9.26416e-11
9.27232e-11
9.28074e-11
9.28945e-11
9.29846e-11
9.30779e-11
9.31745e-11
9.32747e-11
9.33788e-11
9.3487e-11
9.35995e-11
9.37169e-11
9.38395e-11
9.39676e-11
9.41015e-11
9.42414e-11
9.43879e-11
9.45427e-11
9.47075e-11
9.4883e-11
9.50687e-11
9.52681e-11
9.54915e-11
9.57495e-11
9.60305e-11
9.62348e-11
5.76768e-13
-2.95014e-08
-1.35657e-07
-2.36541e-07
-3.22554e-07
-3.9725e-07
-4.63205e-07
-5.2221e-07
-5.75553e-07
-6.24198e-07
-6.68806e-07
-7.09886e-07
-7.47863e-07
-7.83099e-07
-8.15904e-07
-8.46547e-07
-8.75259e-07
-9.02242e-07
-9.2767e-07
-9.51697e-07
-9.74458e-07
-9.9607e-07
-1.01664e-06
-1.03625e-06
-1.05499e-06
-1.07293e-06
-1.09014e-06
-1.10666e-06
-1.12256e-06
-1.13787e-06
-1.15264e-06
-1.1669e-06
-1.18068e-06
-1.19402e-06
-1.20693e-06
-1.21945e-06
-1.23159e-06
-1.24338e-06
-1.25482e-06
-1.26595e-06
-1.27676e-06
-1.28727e-06
-1.2975e-06
-1.30745e-06
-1.31714e-06
-1.32657e-06
-1.33574e-06
-1.34467e-06
-1.35336e-06
-1.36181e-06
-1.37002e-06
-1.37801e-06
-1.38576e-06
-1.39328e-06
-1.40058e-06
-1.40764e-06
-1.41447e-06
-1.42107e-06
)
;
    }
    inandouthalf22
    {
        type            cyclic;
        value           nonuniform List<scalar> 
100
(
-9.16186e-11
-9.16699e-11
-9.17227e-11
-9.17769e-11
-9.18325e-11
-9.18898e-11
-9.19487e-11
-9.20092e-11
-9.20715e-11
-9.21356e-11
-9.22015e-11
-9.22695e-11
-9.23394e-11
-9.24116e-11
-9.24859e-11
-9.25625e-11
-9.26416e-11
-9.27232e-11
-9.28074e-11
-9.28945e-11
-9.29846e-11
-9.30779e-11
-9.31745e-11
-9.32747e-11
-9.33788e-11
-9.3487e-11
-9.35995e-11
-9.37169e-11
-9.38395e-11
-9.39676e-11
-9.41015e-11
-9.42414e-11
-9.43879e-11
-9.45427e-11
-9.47075e-11
-9.4883e-11
-9.50687e-11
-9.52681e-11
-9.54915e-11
-9.57495e-11
-9.60305e-11
-9.62348e-11
-5.76768e-13
2.95014e-08
1.35657e-07
2.36541e-07
3.22554e-07
3.9725e-07
4.63205e-07
5.2221e-07
5.75553e-07
6.24198e-07
6.68806e-07
7.09886e-07
7.47863e-07
7.83099e-07
8.15904e-07
8.46547e-07
8.75259e-07
9.02242e-07
9.2767e-07
9.51697e-07
9.74458e-07
9.9607e-07
1.01664e-06
1.03625e-06
1.05499e-06
1.07293e-06
1.09014e-06
1.10666e-06
1.12256e-06
1.13787e-06
1.15264e-06
1.1669e-06
1.18068e-06
1.19402e-06
1.20693e-06
1.21945e-06
1.23159e-06
1.24338e-06
1.25482e-06
1.26595e-06
1.27676e-06
1.28727e-06
1.2975e-06
1.30745e-06
1.31714e-06
1.32657e-06
1.33574e-06
1.34467e-06
1.35336e-06
1.36181e-06
1.37002e-06
1.37801e-06
1.38576e-06
1.39328e-06
1.40058e-06
1.40764e-06
1.41447e-06
1.42107e-06
)
;
    }
    inandouthalf31
    {
        type            cyclic;
        value           nonuniform List<scalar> 
110
(
-1.42743e-06
-1.46271e-06
-1.49869e-06
-1.53537e-06
-1.57273e-06
-1.61077e-06
-1.64945e-06
-1.68875e-06
-1.72865e-06
-1.76912e-06
-1.81012e-06
-1.85162e-06
-1.8936e-06
-1.93602e-06
-1.97889e-06
-2.02218e-06
-2.06592e-06
-2.11011e-06
-2.15478e-06
-2.19997e-06
-2.24571e-06
-2.29204e-06
-2.339e-06
-2.38662e-06
-2.43495e-06
-2.48401e-06
-2.53382e-06
-2.58443e-06
-2.63584e-06
-2.68809e-06
-2.74119e-06
-2.79517e-06
-2.85004e-06
-2.90582e-06
-2.96253e-06
-3.02019e-06
-3.07882e-06
-3.13844e-06
-3.19907e-06
-3.26072e-06
-3.32342e-06
-3.3872e-06
-3.45207e-06
-3.51805e-06
-3.58518e-06
-3.65349e-06
-3.72299e-06
-3.79373e-06
-3.86573e-06
-3.93903e-06
-4.01367e-06
-4.0897e-06
-4.16715e-06
-4.24608e-06
-4.32655e-06
-4.40862e-06
-4.49236e-06
-4.57783e-06
-4.66514e-06
-4.75436e-06
-4.84562e-06
-4.93902e-06
-5.03469e-06
-5.13279e-06
-5.23345e-06
-5.33685e-06
-5.44312e-06
-5.55238e-06
-5.66467e-06
-5.77962e-06
-5.89693e-06
-6.01662e-06
-6.13874e-06
-6.26334e-06
-6.39047e-06
-6.52018e-06
-6.65252e-06
-6.78755e-06
-6.92532e-06
-7.06589e-06
-7.20931e-06
-7.35563e-06
-7.50493e-06
-7.65726e-06
-7.81269e-06
-7.97126e-06
-8.13306e-06
-8.29814e-06
-8.46657e-06
-8.63842e-06
-8.81375e-06
-8.99265e-06
-9.17518e-06
-9.36141e-06
-9.55142e-06
-9.74529e-06
-9.94309e-06
-1.01449e-05
-1.03508e-05
-1.05609e-05
-1.07753e-05
-1.0994e-05
-1.12171e-05
-1.14448e-05
-1.16771e-05
-1.19141e-05
-1.2156e-05
-1.24027e-05
-1.26544e-05
-1.29113e-05
)
;
    }
    inandouthalf32
    {
        type            cyclic;
        value           nonuniform List<scalar> 
110
(
1.42743e-06
1.46271e-06
1.49869e-06
1.53537e-06
1.57273e-06
1.61077e-06
1.64945e-06
1.68875e-06
1.72865e-06
1.76912e-06
1.81012e-06
1.85162e-06
1.8936e-06
1.93602e-06
1.97889e-06
2.02218e-06
2.06592e-06
2.11011e-06
2.15478e-06
2.19997e-06
2.24571e-06
2.29204e-06
2.339e-06
2.38662e-06
2.43495e-06
2.48401e-06
2.53382e-06
2.58443e-06
2.63584e-06
2.68809e-06
2.74119e-06
2.79517e-06
2.85004e-06
2.90582e-06
2.96253e-06
3.02019e-06
3.07882e-06
3.13844e-06
3.19907e-06
3.26072e-06
3.32342e-06
3.3872e-06
3.45207e-06
3.51805e-06
3.58518e-06
3.65349e-06
3.72299e-06
3.79373e-06
3.86573e-06
3.93903e-06
4.01367e-06
4.0897e-06
4.16715e-06
4.24608e-06
4.32655e-06
4.40862e-06
4.49236e-06
4.57783e-06
4.66514e-06
4.75436e-06
4.84562e-06
4.93902e-06
5.03469e-06
5.13279e-06
5.23345e-06
5.33685e-06
5.44312e-06
5.55238e-06
5.66467e-06
5.77962e-06
5.89693e-06
6.01662e-06
6.13874e-06
6.26334e-06
6.39047e-06
6.52018e-06
6.65252e-06
6.78755e-06
6.92532e-06
7.06589e-06
7.20931e-06
7.35563e-06
7.50493e-06
7.65726e-06
7.81269e-06
7.97126e-06
8.13306e-06
8.29814e-06
8.46657e-06
8.63842e-06
8.81375e-06
8.99265e-06
9.17518e-06
9.36141e-06
9.55142e-06
9.74529e-06
9.94309e-06
1.01449e-05
1.03508e-05
1.05609e-05
1.07753e-05
1.0994e-05
1.12171e-05
1.14448e-05
1.16771e-05
1.19141e-05
1.2156e-05
1.24027e-05
1.26544e-05
1.29113e-05
)
;
    }
    inandouthalf41
    {
        type            cyclic;
        value           nonuniform List<scalar> 
50
(
-1.15569e-05
-1.15569e-05
-1.15569e-05
-1.15569e-05
-1.15569e-05
-1.15569e-05
-1.15569e-05
-1.15569e-05
-1.15569e-05
-1.15569e-05
-1.15569e-05
-1.15569e-05
-1.15569e-05
-1.15569e-05
-1.15569e-05
-1.15569e-05
-1.15569e-05
-1.15569e-05
-1.15569e-05
-1.15569e-05
-1.15569e-05
-1.15569e-05
-1.15569e-05
-1.15569e-05
-1.15569e-05
-1.15569e-05
-1.15569e-05
-1.15569e-05
-1.15569e-05
-1.15569e-05
-1.15569e-05
-1.15569e-05
-1.15569e-05
-1.15569e-05
-1.15569e-05
-1.15569e-05
-1.15569e-05
-1.15569e-05
-1.15569e-05
-1.15569e-05
-1.15569e-05
-1.15569e-05
-1.15569e-05
-1.15569e-05
-1.15569e-05
-1.15569e-05
-1.15569e-05
-1.15569e-05
-1.15569e-05
-1.15569e-05
)
;
    }
    inandouthalf42
    {
        type            cyclic;
        value           nonuniform List<scalar> 
50
(
1.15569e-05
1.15569e-05
1.15569e-05
1.15569e-05
1.15569e-05
1.15569e-05
1.15569e-05
1.15569e-05
1.15569e-05
1.15569e-05
1.15569e-05
1.15569e-05
1.15569e-05
1.15569e-05
1.15569e-05
1.15569e-05
1.15569e-05
1.15569e-05
1.15569e-05
1.15569e-05
1.15569e-05
1.15569e-05
1.15569e-05
1.15569e-05
1.15569e-05
1.15569e-05
1.15569e-05
1.15569e-05
1.15569e-05
1.15569e-05
1.15569e-05
1.15569e-05
1.15569e-05
1.15569e-05
1.15569e-05
1.15569e-05
1.15569e-05
1.15569e-05
1.15569e-05
1.15569e-05
1.15569e-05
1.15569e-05
1.15569e-05
1.15569e-05
1.15569e-05
1.15569e-05
1.15569e-05
1.15569e-05
1.15569e-05
1.15569e-05
)
;
    }
    top
    {
        type            symmetryPlane;
        value           uniform 0;
    }
    walls
    {
        type            fixedValue;
        value           uniform 0;
    }
    frontAndBackPlanes
    {
        type            empty;
        value           nonuniform 0();
    }
}


// ************************************************************************* //
