/*--------------------------------*- C++ -*----------------------------------*\
| =========                 |                                                 |
| \\      /  F ield         | OpenFOAM: The Open Source CFD Toolbox           |
|  \\    /   O peration     | Version:  2.4.x                                 |
|   \\  /    A nd           | Web:      www.OpenFOAM.org                      |
|    \\/     M anipulation  |                                                 |
\*---------------------------------------------------------------------------*/
FoamFile
{
    version     2.0;
    format      ascii;
    class       surfaceScalarField;
    location    "9.35";
    object      phib;
}
// * * * * * * * * * * * * * * * * * * * * * * * * * * * * * * * * * * * * * //

dimensions      [0 3 -1 0 0 0 0];

internalField   nonuniform List<scalar> 
359
(
8.47797e-14
2.12554e-13
3.29742e-13
4.41656e-13
5.56755e-13
6.74844e-13
7.94415e-13
9.15324e-13
1.038e-12
1.16294e-12
1.29044e-12
1.42064e-12
1.55363e-12
1.68947e-12
1.8282e-12
1.96987e-12
2.11449e-12
2.26204e-12
2.41247e-12
2.56576e-12
2.72181e-12
2.88059e-12
3.04201e-12
3.20599e-12
3.37245e-12
3.54129e-12
3.71238e-12
3.88567e-12
4.06101e-12
4.2383e-12
4.41739e-12
4.59821e-12
4.78053e-12
4.96434e-12
5.14941e-12
5.33562e-12
5.5228e-12
5.71083e-12
5.89958e-12
6.08879e-12
6.27841e-12
6.46825e-12
6.65807e-12
6.84783e-12
7.0373e-12
7.22634e-12
7.41482e-12
7.60248e-12
7.78923e-12
7.97502e-12
8.15959e-12
8.34286e-12
8.52467e-12
8.70496e-12
8.88353e-12
9.06039e-12
9.23533e-12
9.40833e-12
9.57927e-12
9.748e-12
9.91462e-12
1.0079e-11
1.02411e-11
1.04009e-11
1.05583e-11
1.07134e-11
1.08661e-11
1.10163e-11
1.11641e-11
1.13095e-11
1.14524e-11
1.15929e-11
1.1731e-11
1.18667e-11
1.2e-11
1.21311e-11
1.22598e-11
1.23861e-11
1.25101e-11
1.26318e-11
1.27513e-11
1.28684e-11
1.29834e-11
1.30961e-11
1.32068e-11
1.33153e-11
1.34217e-11
1.35259e-11
1.36281e-11
1.37282e-11
1.38262e-11
1.39221e-11
1.40159e-11
1.41077e-11
1.41975e-11
1.42853e-11
1.43711e-11
1.44549e-11
1.45367e-11
1.46166e-11
1.46945e-11
1.47705e-11
1.48445e-11
1.49165e-11
1.49866e-11
1.50548e-11
1.51211e-11
1.51855e-11
1.5248e-11
1.53087e-11
1.53674e-11
1.54244e-11
1.54794e-11
1.55327e-11
1.55842e-11
1.56338e-11
1.56816e-11
1.57276e-11
1.57717e-11
1.58139e-11
1.58539e-11
1.58917e-11
1.5927e-11
1.59597e-11
1.59895e-11
1.60163e-11
1.60399e-11
1.60605e-11
1.60781e-11
1.60932e-11
1.61059e-11
1.61166e-11
1.61255e-11
1.61323e-11
1.61364e-11
1.61366e-11
1.61315e-11
1.61202e-11
1.61027e-11
1.60808e-11
1.60562e-11
1.58606e-11
8.12804e-11
1.81028e-09
2.0056e-09
2.03791e-09
2.02766e-09
1.9978e-09
1.95289e-09
1.89359e-09
1.81913e-09
1.72522e-09
1.6166e-09
1.49838e-09
1.37434e-09
1.24781e-09
1.12176e-09
9.98695e-10
8.80614e-10
7.69025e-10
6.64977e-10
5.69115e-10
4.81749e-10
4.02914e-10
3.32433e-10
2.6997e-10
2.15082e-10
1.67252e-10
1.25926e-10
9.05357e-11
6.0521e-11
3.53382e-11
1.44705e-11
-2.57016e-12
-1.62499e-11
-2.70251e-11
-3.53662e-11
-4.17749e-11
-4.67565e-11
-5.0731e-11
-5.39668e-11
-5.66013e-11
-5.86988e-11
-6.02887e-11
-6.13854e-11
-6.19975e-11
-6.21344e-11
-6.18098e-11
-6.10438e-11
-5.98638e-11
-5.83036e-11
-5.64028e-11
-5.42048e-11
-5.17549e-11
-4.9099e-11
-4.62819e-11
-4.33467e-11
-4.03337e-11
-3.72801e-11
-3.42178e-11
-3.11717e-11
-2.80974e-11
-2.50067e-11
-2.19153e-11
-1.88591e-11
-1.59069e-11
-1.31549e-11
-1.06998e-11
-8.6067e-12
-6.89119e-12
-5.52517e-12
-4.45547e-12
-3.62265e-12
-2.97269e-12
-2.46156e-12
-2.05536e-12
-1.72864e-12
-1.46259e-12
-1.24331e-12
-1.06041e-12
-9.06164e-13
-7.74803e-13
-6.61976e-13
-5.64437e-13
-4.79754e-13
-4.06112e-13
-3.42134e-13
-2.86672e-13
-2.38781e-13
-1.97857e-13
-1.62514e-13
-1.3328e-13
-1.07727e-13
-8.74751e-14
-6.91866e-14
-5.65131e-14
-3.67983e-14
-2.87073e-14
-2.06258e-14
-1.49001e-14
-1.10932e-14
-8.42058e-15
-6.44274e-15
-4.86703e-15
-3.57404e-15
-2.43818e-15
-1.6358e-15
-9.43075e-16
-5.35666e-16
6.07889e-17
-1.33006e-17
-1.29602e-17
-1.25424e-17
-1.2148e-17
-1.16844e-17
-1.12452e-17
-1.07497e-17
-1.02773e-17
-9.75644e-18
-9.25871e-18
-8.73542e-18
-8.24545e-18
-7.75371e-18
-7.32318e-18
-6.93824e-18
-6.61635e-18
-6.32968e-18
-6.06527e-18
-5.82317e-18
-5.59556e-18
-5.37264e-18
-5.16103e-18
-4.98085e-18
-4.80649e-18
-4.63165e-18
-4.4426e-18
-4.26398e-18
-4.06826e-18
-3.87063e-18
-3.66771e-18
-3.5045e-18
-3.33837e-18
-3.17437e-18
-2.99057e-18
-2.81942e-18
-2.62784e-18
-2.35671e-18
-2.14283e-18
-1.94927e-18
-1.74262e-18
-1.53479e-18
-1.31205e-18
-1.09712e-18
-8.79856e-19
-6.73349e-19
-5.01423e-19
-3.6466e-19
-2.95853e-19
-2.42876e-19
-2.00522e-19
-1.62419e-19
-1.2971e-19
-1.00024e-19
-7.63149e-20
-4.70831e-20
-2.8029e-20
-7.97816e-21
1.19197e-21
1.84403e-20
2.25746e-20
2.82424e-20
2.63465e-20
3.62231e-20
3.84399e-20
4.10728e-20
3.64133e-20
3.74614e-20
3.09208e-20
2.51479e-20
1.28726e-20
2.83061e-21
-1.03513e-20
-2.38195e-20
-4.01108e-20
-6.15993e-20
-8.47356e-20
-1.20904e-19
-1.98922e-19
-3.36551e-19
-5.02907e-19
-6.80526e-19
-8.24778e-19
-1.0103e-18
-1.13237e-18
-1.25865e-18
-1.3123e-18
-1.51092e-18
-1.60176e-18
-1.69295e-18
-1.63387e-18
-1.69913e-18
-1.57956e-18
-1.46887e-18
-1.19746e-18
-1.25473e-18
-1.10151e-18
-9.49799e-19
-5.20817e-19
-2.45046e-19
2.74976e-19
8.24503e-19
1.4011e-18
2.45072e-18
3.24639e-18
4.05547e-18
4.02855e-18
5.46182e-18
4.41771e-18
2.36966e-18
)
;

boundaryField
{
    inandouthalf11
    {
        type            cyclic;
        value           nonuniform List<scalar> 
100
(
9.01501e-11
8.96494e-11
8.95747e-11
8.96368e-11
8.96641e-11
8.96693e-11
8.9677e-11
8.96883e-11
8.96999e-11
8.97117e-11
8.97234e-11
8.9735e-11
8.97467e-11
8.97583e-11
8.97699e-11
8.97816e-11
8.97932e-11
8.98049e-11
8.98165e-11
8.98283e-11
8.98399e-11
8.98516e-11
8.98634e-11
8.98751e-11
8.98869e-11
8.98987e-11
8.99104e-11
8.99224e-11
8.99343e-11
8.99462e-11
8.99583e-11
8.99705e-11
8.99825e-11
8.99949e-11
9.00072e-11
9.00197e-11
9.00322e-11
9.00449e-11
9.00578e-11
9.00706e-11
9.00839e-11
9.00972e-11
9.01105e-11
9.01243e-11
9.01381e-11
9.01522e-11
9.01666e-11
9.0181e-11
9.01959e-11
9.02112e-11
9.02264e-11
9.02421e-11
9.02581e-11
9.02746e-11
9.02911e-11
9.03084e-11
9.03256e-11
9.03436e-11
9.03618e-11
9.03802e-11
9.03995e-11
9.04189e-11
9.0439e-11
9.04594e-11
9.04804e-11
9.05017e-11
9.05237e-11
9.05462e-11
9.05692e-11
9.05926e-11
9.06168e-11
9.06417e-11
9.06667e-11
9.06927e-11
9.07192e-11
9.07465e-11
9.07742e-11
9.08026e-11
9.08318e-11
9.08616e-11
9.08921e-11
9.09234e-11
9.09555e-11
9.09883e-11
9.10219e-11
9.10563e-11
9.10916e-11
9.11277e-11
9.11647e-11
9.12026e-11
9.12414e-11
9.12812e-11
9.1322e-11
9.13638e-11
9.14067e-11
9.14507e-11
9.14958e-11
9.15421e-11
9.15896e-11
9.16384e-11
)
;
    }
    inandouthalf12
    {
        type            cyclic;
        value           nonuniform List<scalar> 
100
(
-9.01501e-11
-8.96494e-11
-8.95747e-11
-8.96368e-11
-8.96641e-11
-8.96693e-11
-8.9677e-11
-8.96883e-11
-8.96999e-11
-8.97117e-11
-8.97234e-11
-8.9735e-11
-8.97467e-11
-8.97583e-11
-8.97699e-11
-8.97816e-11
-8.97932e-11
-8.98049e-11
-8.98165e-11
-8.98283e-11
-8.98399e-11
-8.98516e-11
-8.98634e-11
-8.98751e-11
-8.98869e-11
-8.98987e-11
-8.99104e-11
-8.99224e-11
-8.99343e-11
-8.99462e-11
-8.99583e-11
-8.99705e-11
-8.99825e-11
-8.99949e-11
-9.00072e-11
-9.00197e-11
-9.00322e-11
-9.00449e-11
-9.00578e-11
-9.00706e-11
-9.00839e-11
-9.00972e-11
-9.01105e-11
-9.01243e-11
-9.01381e-11
-9.01522e-11
-9.01666e-11
-9.0181e-11
-9.01959e-11
-9.02112e-11
-9.02264e-11
-9.02421e-11
-9.02581e-11
-9.02746e-11
-9.02911e-11
-9.03084e-11
-9.03256e-11
-9.03436e-11
-9.03618e-11
-9.03802e-11
-9.03995e-11
-9.04189e-11
-9.0439e-11
-9.04594e-11
-9.04804e-11
-9.05017e-11
-9.05237e-11
-9.05462e-11
-9.05692e-11
-9.05926e-11
-9.06168e-11
-9.06417e-11
-9.06667e-11
-9.06927e-11
-9.07192e-11
-9.07465e-11
-9.07742e-11
-9.08026e-11
-9.08318e-11
-9.08616e-11
-9.08921e-11
-9.09234e-11
-9.09555e-11
-9.09883e-11
-9.10219e-11
-9.10563e-11
-9.10916e-11
-9.11277e-11
-9.11647e-11
-9.12026e-11
-9.12414e-11
-9.12812e-11
-9.1322e-11
-9.13638e-11
-9.14067e-11
-9.14507e-11
-9.14958e-11
-9.15421e-11
-9.15896e-11
-9.16384e-11
)
;
    }
    inandouthalf21
    {
        type            cyclic;
        value           nonuniform List<scalar> 
100
(
9.16884e-11
9.17398e-11
9.17926e-11
9.18468e-11
9.19026e-11
9.19598e-11
9.20188e-11
9.20793e-11
9.21417e-11
9.22058e-11
9.22719e-11
9.23399e-11
9.24099e-11
9.2482e-11
9.25564e-11
9.26331e-11
9.27122e-11
9.27939e-11
9.28783e-11
9.29654e-11
9.30556e-11
9.31489e-11
9.32456e-11
9.3346e-11
9.34501e-11
9.35583e-11
9.3671e-11
9.37885e-11
9.39111e-11
9.40394e-11
9.41734e-11
9.43134e-11
9.446e-11
9.46149e-11
9.47799e-11
9.49555e-11
9.51413e-11
9.53409e-11
9.55645e-11
9.58227e-11
9.61039e-11
9.63087e-11
9.3199e-13
-2.94498e-08
-1.35588e-07
-2.36479e-07
-3.22496e-07
-3.97193e-07
-4.63148e-07
-5.22152e-07
-5.75494e-07
-6.24137e-07
-6.68743e-07
-7.0982e-07
-7.47794e-07
-7.83027e-07
-8.15829e-07
-8.46469e-07
-8.75178e-07
-9.02158e-07
-9.27583e-07
-9.51608e-07
-9.74366e-07
-9.95975e-07
-1.01654e-06
-1.03615e-06
-1.05489e-06
-1.07283e-06
-1.09003e-06
-1.10656e-06
-1.12245e-06
-1.13776e-06
-1.15252e-06
-1.16678e-06
-1.18056e-06
-1.1939e-06
-1.20681e-06
-1.21933e-06
-1.23147e-06
-1.24325e-06
-1.2547e-06
-1.26582e-06
-1.27663e-06
-1.28714e-06
-1.29737e-06
-1.30732e-06
-1.31701e-06
-1.32644e-06
-1.33561e-06
-1.34454e-06
-1.35322e-06
-1.36167e-06
-1.36989e-06
-1.37787e-06
-1.38563e-06
-1.39315e-06
-1.40044e-06
-1.40751e-06
-1.41434e-06
-1.42093e-06
)
;
    }
    inandouthalf22
    {
        type            cyclic;
        value           nonuniform List<scalar> 
100
(
-9.16884e-11
-9.17398e-11
-9.17926e-11
-9.18468e-11
-9.19026e-11
-9.19598e-11
-9.20188e-11
-9.20793e-11
-9.21417e-11
-9.22058e-11
-9.22719e-11
-9.23399e-11
-9.24099e-11
-9.2482e-11
-9.25564e-11
-9.26331e-11
-9.27122e-11
-9.27939e-11
-9.28783e-11
-9.29654e-11
-9.30556e-11
-9.31489e-11
-9.32456e-11
-9.3346e-11
-9.34501e-11
-9.35583e-11
-9.3671e-11
-9.37885e-11
-9.39111e-11
-9.40394e-11
-9.41734e-11
-9.43134e-11
-9.446e-11
-9.46149e-11
-9.47799e-11
-9.49555e-11
-9.51413e-11
-9.53409e-11
-9.55645e-11
-9.58227e-11
-9.61039e-11
-9.63087e-11
-9.3199e-13
2.94498e-08
1.35588e-07
2.36479e-07
3.22496e-07
3.97193e-07
4.63148e-07
5.22152e-07
5.75494e-07
6.24137e-07
6.68743e-07
7.0982e-07
7.47794e-07
7.83027e-07
8.15829e-07
8.46469e-07
8.75178e-07
9.02158e-07
9.27583e-07
9.51608e-07
9.74366e-07
9.95975e-07
1.01654e-06
1.03615e-06
1.05489e-06
1.07283e-06
1.09003e-06
1.10656e-06
1.12245e-06
1.13776e-06
1.15252e-06
1.16678e-06
1.18056e-06
1.1939e-06
1.20681e-06
1.21933e-06
1.23147e-06
1.24325e-06
1.2547e-06
1.26582e-06
1.27663e-06
1.28714e-06
1.29737e-06
1.30732e-06
1.31701e-06
1.32644e-06
1.33561e-06
1.34454e-06
1.35322e-06
1.36167e-06
1.36989e-06
1.37787e-06
1.38563e-06
1.39315e-06
1.40044e-06
1.40751e-06
1.41434e-06
1.42093e-06
)
;
    }
    inandouthalf31
    {
        type            cyclic;
        value           nonuniform List<scalar> 
110
(
-1.4273e-06
-1.46257e-06
-1.49855e-06
-1.53523e-06
-1.57259e-06
-1.61063e-06
-1.64931e-06
-1.68861e-06
-1.72851e-06
-1.76898e-06
-1.80997e-06
-1.85148e-06
-1.89345e-06
-1.93588e-06
-1.97874e-06
-2.02204e-06
-2.06577e-06
-2.10996e-06
-2.15463e-06
-2.19982e-06
-2.24556e-06
-2.29189e-06
-2.33885e-06
-2.38647e-06
-2.4348e-06
-2.48385e-06
-2.53367e-06
-2.58427e-06
-2.63568e-06
-2.68793e-06
-2.74103e-06
-2.795e-06
-2.84987e-06
-2.90565e-06
-2.96236e-06
-3.02002e-06
-3.07864e-06
-3.13826e-06
-3.19888e-06
-3.26053e-06
-3.32323e-06
-3.387e-06
-3.45187e-06
-3.51785e-06
-3.58498e-06
-3.65328e-06
-3.72278e-06
-3.79351e-06
-3.86551e-06
-3.93881e-06
-4.01344e-06
-4.08946e-06
-4.16691e-06
-4.24584e-06
-4.32631e-06
-4.40837e-06
-4.4921e-06
-4.57757e-06
-4.66487e-06
-4.75409e-06
-4.84534e-06
-4.93874e-06
-5.03441e-06
-5.13249e-06
-5.23315e-06
-5.33654e-06
-5.4428e-06
-5.55206e-06
-5.66434e-06
-5.77928e-06
-5.89658e-06
-6.01627e-06
-6.13838e-06
-6.26297e-06
-6.3901e-06
-6.5198e-06
-6.65213e-06
-6.78715e-06
-6.92491e-06
-7.06547e-06
-7.20888e-06
-7.3552e-06
-7.50449e-06
-7.65681e-06
-7.81223e-06
-7.9708e-06
-8.13258e-06
-8.29765e-06
-8.46607e-06
-8.63791e-06
-8.81324e-06
-8.99212e-06
-9.17464e-06
-9.36086e-06
-9.55086e-06
-9.74472e-06
-9.94251e-06
-1.01443e-05
-1.03502e-05
-1.05603e-05
-1.07746e-05
-1.09933e-05
-1.12165e-05
-1.14441e-05
-1.16764e-05
-1.19134e-05
-1.21552e-05
-1.2402e-05
-1.26537e-05
-1.29105e-05
)
;
    }
    inandouthalf32
    {
        type            cyclic;
        value           nonuniform List<scalar> 
110
(
1.4273e-06
1.46257e-06
1.49855e-06
1.53523e-06
1.57259e-06
1.61063e-06
1.64931e-06
1.68861e-06
1.72851e-06
1.76898e-06
1.80997e-06
1.85148e-06
1.89345e-06
1.93588e-06
1.97874e-06
2.02204e-06
2.06577e-06
2.10996e-06
2.15463e-06
2.19982e-06
2.24556e-06
2.29189e-06
2.33885e-06
2.38647e-06
2.4348e-06
2.48385e-06
2.53367e-06
2.58427e-06
2.63568e-06
2.68793e-06
2.74103e-06
2.795e-06
2.84987e-06
2.90565e-06
2.96236e-06
3.02002e-06
3.07864e-06
3.13826e-06
3.19888e-06
3.26053e-06
3.32323e-06
3.387e-06
3.45187e-06
3.51785e-06
3.58498e-06
3.65328e-06
3.72278e-06
3.79351e-06
3.86551e-06
3.93881e-06
4.01344e-06
4.08946e-06
4.16691e-06
4.24584e-06
4.32631e-06
4.40837e-06
4.4921e-06
4.57757e-06
4.66487e-06
4.75409e-06
4.84534e-06
4.93874e-06
5.03441e-06
5.13249e-06
5.23315e-06
5.33654e-06
5.4428e-06
5.55206e-06
5.66434e-06
5.77928e-06
5.89658e-06
6.01627e-06
6.13838e-06
6.26297e-06
6.3901e-06
6.5198e-06
6.65213e-06
6.78715e-06
6.92491e-06
7.06547e-06
7.20888e-06
7.3552e-06
7.50449e-06
7.65681e-06
7.81223e-06
7.9708e-06
8.13258e-06
8.29765e-06
8.46607e-06
8.63791e-06
8.81324e-06
8.99212e-06
9.17464e-06
9.36086e-06
9.55086e-06
9.74472e-06
9.94251e-06
1.01443e-05
1.03502e-05
1.05603e-05
1.07746e-05
1.09933e-05
1.12165e-05
1.14441e-05
1.16764e-05
1.19134e-05
1.21552e-05
1.2402e-05
1.26537e-05
1.29105e-05
)
;
    }
    inandouthalf41
    {
        type            cyclic;
        value           nonuniform List<scalar> 
50
(
-1.15562e-05
-1.15562e-05
-1.15562e-05
-1.15562e-05
-1.15562e-05
-1.15562e-05
-1.15562e-05
-1.15562e-05
-1.15562e-05
-1.15562e-05
-1.15562e-05
-1.15562e-05
-1.15562e-05
-1.15562e-05
-1.15562e-05
-1.15562e-05
-1.15562e-05
-1.15562e-05
-1.15562e-05
-1.15562e-05
-1.15562e-05
-1.15562e-05
-1.15562e-05
-1.15562e-05
-1.15562e-05
-1.15562e-05
-1.15562e-05
-1.15562e-05
-1.15562e-05
-1.15562e-05
-1.15562e-05
-1.15562e-05
-1.15562e-05
-1.15562e-05
-1.15562e-05
-1.15562e-05
-1.15562e-05
-1.15562e-05
-1.15562e-05
-1.15562e-05
-1.15562e-05
-1.15562e-05
-1.15562e-05
-1.15562e-05
-1.15562e-05
-1.15562e-05
-1.15562e-05
-1.15562e-05
-1.15562e-05
-1.15562e-05
)
;
    }
    inandouthalf42
    {
        type            cyclic;
        value           nonuniform List<scalar> 
50
(
1.15562e-05
1.15562e-05
1.15562e-05
1.15562e-05
1.15562e-05
1.15562e-05
1.15562e-05
1.15562e-05
1.15562e-05
1.15562e-05
1.15562e-05
1.15562e-05
1.15562e-05
1.15562e-05
1.15562e-05
1.15562e-05
1.15562e-05
1.15562e-05
1.15562e-05
1.15562e-05
1.15562e-05
1.15562e-05
1.15562e-05
1.15562e-05
1.15562e-05
1.15562e-05
1.15562e-05
1.15562e-05
1.15562e-05
1.15562e-05
1.15562e-05
1.15562e-05
1.15562e-05
1.15562e-05
1.15562e-05
1.15562e-05
1.15562e-05
1.15562e-05
1.15562e-05
1.15562e-05
1.15562e-05
1.15562e-05
1.15562e-05
1.15562e-05
1.15562e-05
1.15562e-05
1.15562e-05
1.15562e-05
1.15562e-05
1.15562e-05
)
;
    }
    top
    {
        type            symmetryPlane;
        value           uniform 0;
    }
    walls
    {
        type            fixedValue;
        value           uniform 0;
    }
    frontAndBackPlanes
    {
        type            empty;
        value           nonuniform 0();
    }
}


// ************************************************************************* //
