/*--------------------------------*- C++ -*----------------------------------*\
| =========                 |                                                 |
| \\      /  F ield         | OpenFOAM: The Open Source CFD Toolbox           |
|  \\    /   O peration     | Version:  2.4.x                                 |
|   \\  /    A nd           | Web:      www.OpenFOAM.org                      |
|    \\/     M anipulation  |                                                 |
\*---------------------------------------------------------------------------*/
FoamFile
{
    version     2.0;
    format      ascii;
    class       volTensorField;
    location    "9.35";
    object      Tauf;
}
// * * * * * * * * * * * * * * * * * * * * * * * * * * * * * * * * * * * * * //

dimensions      [0 2 -2 0 0 0 0];

internalField   nonuniform List<tensor> 
360
(
(0 -1.798e-07 0 -1.798e-07 9.47179e-11 0 0 0 0)
(0 5.75396e-10 0 5.75396e-10 1.14696e-10 0 0 0 0)
(0 1.25815e-11 0 1.25815e-11 1.18985e-10 0 0 0 0)
(0 -8.93761e-11 0 -8.93761e-11 1.1407e-10 0 0 0 0)
(1.29247e-23 -3.2507e-11 0 -3.2507e-11 1.15036e-10 0 0 0 0)
(1.29247e-23 -1.28657e-11 0 -1.28657e-11 1.17695e-10 0 0 0 0)
(1.29247e-23 -1.89241e-11 0 -1.89241e-11 1.19536e-10 0 0 0 0)
(0 -2.29573e-11 0 -2.29573e-11 1.2102e-10 0 0 0 0)
(1.29247e-23 -2.3407e-11 0 -2.3407e-11 1.22801e-10 0 0 0 0)
(0 -2.35191e-11 0 -2.35191e-11 1.25013e-10 0 0 0 0)
(1.29247e-23 -2.33898e-11 0 -2.33898e-11 1.27533e-10 0 0 0 0)
(0 -2.32348e-11 0 -2.32348e-11 1.30222e-10 0 0 0 0)
(2.58494e-23 -2.32202e-11 0 -2.32202e-11 1.33006e-10 0 0 0 0)
(0 -2.32067e-11 0 -2.32067e-11 1.35851e-10 0 0 0 0)
(0 -2.32852e-11 0 -2.32852e-11 1.38743e-10 0 0 0 0)
(0 -2.33622e-11 0 -2.33622e-11 1.41672e-10 0 0 0 0)
(0 -2.33459e-11 0 -2.33459e-11 1.44612e-10 0 0 0 0)
(2.58494e-23 -2.32927e-11 0 -2.32927e-11 1.47534e-10 0 0 0 0)
(0 -2.33931e-11 0 -2.33931e-11 1.50425e-10 0 0 0 0)
(0 -2.33565e-11 0 -2.33565e-11 1.53267e-10 0 0 0 0)
(0 -2.33351e-11 0 -2.33351e-11 1.56043e-10 0 0 0 0)
(1.29247e-23 -2.34616e-11 0 -2.34616e-11 1.58757e-10 0 0 0 0)
(0 -2.34579e-11 0 -2.34579e-11 1.614e-10 0 0 0 0)
(0 -2.3514e-11 0 -2.3514e-11 1.63961e-10 0 0 0 0)
(0 -2.35843e-11 0 -2.35843e-11 1.66434e-10 0 0 0 0)
(1.29247e-23 -2.35791e-11 0 -2.35791e-11 1.68805e-10 0 0 0 0)
(0 -2.37058e-11 0 -2.37058e-11 1.71077e-10 0 0 0 0)
(0 -2.38558e-11 0 -2.38558e-11 1.73252e-10 0 0 0 0)
(0 -2.3874e-11 0 -2.3874e-11 1.75314e-10 0 0 0 0)
(0 -2.39588e-11 0 -2.39588e-11 1.7725e-10 0 0 0 0)
(0 -2.42154e-11 0 -2.42154e-11 1.79073e-10 0 0 0 0)
(0 -2.42081e-11 0 -2.42081e-11 1.80761e-10 0 0 0 0)
(0 -2.44427e-11 0 -2.44427e-11 1.8232e-10 0 0 0 0)
(0 -2.46982e-11 0 -2.46982e-11 1.83753e-10 0 0 0 0)
(0 -2.47656e-11 0 -2.47656e-11 1.85037e-10 0 0 0 0)
(-2.58494e-23 -2.49947e-11 0 -2.49947e-11 1.86168e-10 0 0 0 0)
(0 -2.52145e-11 0 -2.52145e-11 1.87148e-10 0 0 0 0)
(0 -2.56758e-11 0 -2.56758e-11 1.87999e-10 0 0 0 0)
(0 -2.56773e-11 0 -2.56773e-11 1.88682e-10 0 0 0 0)
(0 -2.60357e-11 0 -2.60357e-11 1.89197e-10 0 0 0 0)
(0 -2.66117e-11 0 -2.66117e-11 1.89579e-10 0 0 0 0)
(0 -2.65903e-11 0 -2.65903e-11 1.89775e-10 0 0 0 0)
(-1.29247e-23 -2.71291e-11 0 -2.71291e-11 1.89809e-10 0 0 0 0)
(0 -2.76251e-11 0 -2.76251e-11 1.89703e-10 0 0 0 0)
(0 -2.7902e-11 0 -2.7902e-11 1.89431e-10 0 0 0 0)
(0 -2.85557e-11 0 -2.85557e-11 1.89013e-10 0 0 0 0)
(0 -2.87819e-11 0 -2.87819e-11 1.88412e-10 0 0 0 0)
(0 -2.92069e-11 0 -2.92069e-11 1.8763e-10 0 0 0 0)
(0 -3.01925e-11 0 -3.01925e-11 1.86747e-10 0 0 0 0)
(0 -3.05136e-11 0 -3.05136e-11 1.85725e-10 0 0 0 0)
(-2.58494e-23 -3.09627e-11 0 -3.09627e-11 1.84544e-10 0 0 0 0)
(0 -3.17594e-11 0 -3.17594e-11 1.83232e-10 0 0 0 0)
(0 -3.24184e-11 0 -3.24184e-11 1.81799e-10 0 0 0 0)
(0 -3.2964e-11 0 -3.2964e-11 1.80237e-10 0 0 0 0)
(0 -3.38039e-11 0 -3.38039e-11 1.78574e-10 0 0 0 0)
(0 -3.4516e-11 0 -3.4516e-11 1.76807e-10 0 0 0 0)
(0 -3.52094e-11 0 -3.52094e-11 1.74929e-10 0 0 0 0)
(0 -3.61838e-11 0 -3.61838e-11 1.72974e-10 0 0 0 0)
(0 -3.66463e-11 0 -3.66463e-11 1.70895e-10 0 0 0 0)
(0 -3.77568e-11 0 -3.77568e-11 1.6876e-10 0 0 0 0)
(0 -3.86655e-11 0 -3.86655e-11 1.66581e-10 0 0 0 0)
(0 -3.94567e-11 0 -3.94567e-11 1.64354e-10 0 0 0 0)
(0 -4.052e-11 0 -4.052e-11 1.62099e-10 0 0 0 0)
(0 -4.13608e-11 0 -4.13608e-11 1.59794e-10 0 0 0 0)
(0 -4.23138e-11 0 -4.23138e-11 1.57446e-10 0 0 0 0)
(0 -4.33439e-11 0 -4.33439e-11 1.55063e-10 0 0 0 0)
(0 -4.45079e-11 0 -4.45079e-11 1.52668e-10 0 0 0 0)
(0 -4.55027e-11 0 -4.55027e-11 1.5025e-10 0 0 0 0)
(0 -4.63403e-11 0 -4.63403e-11 1.47791e-10 0 0 0 0)
(0 -4.76199e-11 0 -4.76199e-11 1.45331e-10 0 0 0 0)
(0 -4.91097e-11 0 -4.91097e-11 1.42923e-10 0 0 0 0)
(0 -4.98739e-11 0 -4.98739e-11 1.40503e-10 0 0 0 0)
(0 -5.10433e-11 0 -5.10433e-11 1.38093e-10 0 0 0 0)
(0 -5.24919e-11 0 -5.24919e-11 1.35714e-10 0 0 0 0)
(0 -5.37684e-11 0 -5.37684e-11 1.33363e-10 0 0 0 0)
(0 -5.49896e-11 0 -5.49896e-11 1.31031e-10 0 0 0 0)
(0 -5.61176e-11 0 -5.61176e-11 1.28685e-10 0 0 0 0)
(0 -5.75816e-11 0 -5.75816e-11 1.26348e-10 0 0 0 0)
(0 -5.90292e-11 0 -5.90292e-11 1.24026e-10 0 0 0 0)
(0 -6.0348e-11 0 -6.0348e-11 1.21717e-10 0 0 0 0)
(0 -6.17718e-11 0 -6.17718e-11 1.19428e-10 0 0 0 0)
(0 -6.33596e-11 0 -6.33596e-11 1.17176e-10 0 0 0 0)
(0 -6.48779e-11 0 -6.48779e-11 1.14959e-10 0 0 0 0)
(0 -6.64386e-11 0 -6.64386e-11 1.12779e-10 0 0 0 0)
(0 -6.80437e-11 0 -6.80437e-11 1.10629e-10 0 0 0 0)
(0 -6.97021e-11 0 -6.97021e-11 1.08503e-10 0 0 0 0)
(0 -7.13816e-11 0 -7.13816e-11 1.0639e-10 0 0 0 0)
(0 -7.30638e-11 0 -7.30638e-11 1.0428e-10 0 0 0 0)
(0 -7.48604e-11 0 -7.48604e-11 1.02173e-10 0 0 0 0)
(0 -7.67169e-11 0 -7.67169e-11 1.00071e-10 0 0 0 0)
(0 -7.86029e-11 0 -7.86029e-11 9.7977e-11 0 0 0 0)
(0 -8.0582e-11 0 -8.0582e-11 9.58979e-11 0 0 0 0)
(0 -8.26407e-11 0 -8.26407e-11 9.38396e-11 0 0 0 0)
(0 -8.47387e-11 0 -8.47387e-11 9.18029e-11 0 0 0 0)
(0 -8.68998e-11 0 -8.68998e-11 8.9787e-11 0 0 0 0)
(0 -8.91278e-11 0 -8.91278e-11 8.77879e-11 0 0 0 0)
(0 -9.14198e-11 0 -9.14198e-11 8.58004e-11 0 0 0 0)
(0 -9.37852e-11 0 -9.37852e-11 8.38202e-11 0 0 0 0)
(0 -9.62392e-11 0 -9.62392e-11 8.18449e-11 0 0 0 0)
(0 -9.87849e-11 0 -9.87849e-11 7.98737e-11 0 0 0 0)
(0 -1.01425e-10 0 -1.01425e-10 7.79072e-11 0 0 0 0)
(0 -1.04168e-10 0 -1.04168e-10 7.59475e-11 0 0 0 0)
(0 -1.07016e-10 0 -1.07016e-10 7.39963e-11 0 0 0 0)
(0 -1.09968e-10 0 -1.09968e-10 7.20548e-11 0 0 0 0)
(0 -1.13028e-10 0 -1.13028e-10 7.01237e-11 0 0 0 0)
(0 -1.16204e-10 0 -1.16204e-10 6.82034e-11 0 0 0 0)
(0 -1.195e-10 0 -1.195e-10 6.62938e-11 0 0 0 0)
(0 -1.22923e-10 0 -1.22923e-10 6.43951e-11 0 0 0 0)
(0 -1.2648e-10 0 -1.2648e-10 6.25079e-11 0 0 0 0)
(0 -1.30179e-10 0 -1.30179e-10 6.06329e-11 0 0 0 0)
(0 -1.34025e-10 0 -1.34025e-10 5.87708e-11 0 0 0 0)
(0 -1.38028e-10 0 -1.38028e-10 5.69223e-11 0 0 0 0)
(0 -1.42197e-10 0 -1.42197e-10 5.50875e-11 0 0 0 0)
(0 -1.46543e-10 0 -1.46543e-10 5.3265e-11 0 0 0 0)
(0 -1.51079e-10 0 -1.51079e-10 5.14516e-11 0 0 0 0)
(0 -1.55822e-10 0 -1.55822e-10 4.96407e-11 0 0 0 0)
(0 -1.60791e-10 0 -1.60791e-10 4.78207e-11 0 0 0 0)
(0 -1.66012e-10 0 -1.66012e-10 4.59743e-11 0 0 0 0)
(0 -1.71514e-10 0 -1.71514e-10 4.40767e-11 0 0 0 0)
(0 -1.77331e-10 0 -1.77331e-10 4.20961e-11 0 0 0 0)
(0 -1.83498e-10 0 -1.83498e-10 3.99949e-11 0 0 0 0)
(0 -1.90051e-10 0 -1.90051e-10 3.77341e-11 0 0 0 0)
(0 -1.97024e-10 0 -1.97024e-10 3.52801e-11 0 0 0 0)
(0 -2.04453e-10 0 -2.04453e-10 3.26157e-11 0 0 0 0)
(0 -2.12389e-10 0 -2.12389e-10 2.97504e-11 0 0 0 0)
(0 -2.20911e-10 0 -2.20911e-10 2.67302e-11 0 0 0 0)
(0 -2.30128e-10 0 -2.30128e-10 2.36392e-11 0 0 0 0)
(0 -2.40134e-10 0 -2.40134e-10 2.05909e-11 0 0 0 0)
(0 -2.50913e-10 0 -2.50913e-10 1.77086e-11 0 0 0 0)
(0 -2.6227e-10 0 -2.6227e-10 1.50934e-11 0 0 0 0)
(0 -2.74015e-10 0 -2.74015e-10 1.27833e-11 0 0 0 0)
(0 -2.8659e-10 0 -2.8659e-10 1.07211e-11 0 0 0 0)
(0 -3.01475e-10 0 -3.01475e-10 8.7502e-12 0 0 0 0)
(0 -3.19898e-10 0 -3.19898e-10 6.59822e-12 0 0 0 0)
(0 -3.40588e-10 0 -3.40588e-10 3.80623e-12 0 0 0 0)
(0 -3.61419e-10 0 -3.61419e-10 -1.82298e-13 0 0 0 0)
(0 -3.85447e-10 0 -3.85447e-10 -5.55116e-12 0 0 0 0)
(0 -4.23152e-10 0 -4.23152e-10 -1.17748e-11 0 0 0 0)
(0 -4.81767e-10 0 -4.81767e-10 8.54111e-11 0 0 0 0)
(0 -5.39426e-10 0 -5.39426e-10 -2.11579e-09 0 0 0 0)
(0 -4.86436e-10 0 -4.86436e-10 1.10945e-08 0 0 0 0)
(0 9.67127e-08 0 9.67127e-08 -4.18914e-08 0 0 0 0)
(0 3.95475e-05 0 3.95475e-05 2.79674e-07 0 0 0 0)
(0 0.000667894 0 0.000667894 6.03471e-06 0 0 0 0)
(0 0.00301559 0 0.00301559 1.15374e-05 0 0 0 0)
(0 0.00454955 0 0.00454955 -3.91252e-06 0 0 0 0)
(0 0.00531068 0 0.00531068 -1.91003e-07 0 0 0 0)
(0 0.00577574 0 0.00577574 -1.47323e-06 0 0 0 0)
(0 0.00607385 0 0.00607385 -2.37233e-06 0 0 0 0)
(0 0.006267 0 0.006267 -3.48112e-06 0 0 0 0)
(0 0.00639008 0 0.00639008 -4.64023e-06 0 0 0 0)
(0 0.00645912 0 0.00645912 -6.41187e-06 0 0 0 0)
(0 0.0064858 0 0.0064858 -8.41629e-06 0 0 0 0)
(0 0.00648381 0 0.00648381 -9.75471e-06 0 0 0 0)
(0 0.00646128 0 0.00646128 -1.09645e-05 0 0 0 0)
(0 0.00642387 0 0.00642387 -1.19617e-05 0 0 0 0)
(0 0.00637565 0 0.00637565 -1.26847e-05 0 0 0 0)
(0 0.00631956 0 0.00631956 -1.31209e-05 0 0 0 0)
(0 0.00625771 0 0.00625771 -1.32835e-05 0 0 0 0)
(0 0.00619158 0 0.00619158 -1.3197e-05 0 0 0 0)
(0 0.00612223 0 0.00612223 -1.28931e-05 0 0 0 0)
(0 0.00605034 0 0.00605034 -1.24072e-05 0 0 0 0)
(0 0.00597635 0 0.00597635 -1.17764e-05 0 0 0 0)
(0 0.00590055 0 0.00590055 -1.10366e-05 0 0 0 0)
(0 0.00582307 0 0.00582307 -1.0221e-05 0 0 0 0)
(0 0.005744 0 0.005744 -9.35979e-06 0 0 0 0)
(0 0.00566333 0 0.00566333 -8.47863e-06 0 0 0 0)
(0 0.00558106 0 0.00558106 -7.59907e-06 0 0 0 0)
(0 0.00549715 0 0.00549715 -6.73835e-06 0 0 0 0)
(0 0.00541155 0 0.00541155 -5.90973e-06 0 0 0 0)
(0 0.00532422 0 0.00532422 -5.12293e-06 0 0 0 0)
(0 0.00523514 0 0.00523514 -4.38469e-06 0 0 0 0)
(0 0.00514428 0 0.00514428 -3.69947e-06 0 0 0 0)
(0 0.00505161 0 0.00505161 -3.07033e-06 0 0 0 0)
(0 0.00495713 0 0.00495713 -2.50049e-06 0 0 0 0)
(0 0.00486085 0 0.00486085 -1.99527e-06 0 0 0 0)
(0 0.00476277 0 0.00476277 -1.56348e-06 0 0 0 0)
(0 0.00466293 0 0.00466293 -1.21492e-06 0 0 0 0)
(0 0.00456135 0 0.00456135 -9.52064e-07 0 0 0 0)
(0 0.00445806 0 0.00445806 -7.6257e-07 0 0 0 0)
(0 0.00435312 0 0.00435312 -6.2262e-07 0 0 0 0)
(0 0.00424657 0 0.00424657 -5.08877e-07 0 0 0 0)
(0 0.00413844 0 0.00413844 -4.06491e-07 0 0 0 0)
(0 0.00402881 0 0.00402881 -3.08618e-07 0 0 0 0)
(0 0.00391774 0 0.00391774 -2.12798e-07 0 0 0 0)
(0 0.00380529 0 0.00380529 -1.18548e-07 0 0 0 0)
(0 0.00369157 0 0.00369157 -2.6417e-08 0 0 0 0)
(0 0.00357665 0 0.00357665 6.24093e-08 0 0 0 0)
(0 0.00346065 0 0.00346065 1.464e-07 0 0 0 0)
(0 0.00334368 0 0.00334368 2.23958e-07 0 0 0 0)
(0 0.00322586 0 0.00322586 2.93648e-07 0 0 0 0)
(0 0.00310733 0 0.00310733 3.54367e-07 0 0 0 0)
(0 0.00298823 0 0.00298823 4.05427e-07 0 0 0 0)
(0 0.00286871 0 0.00286871 4.46565e-07 0 0 0 0)
(0 0.00274893 0 0.00274893 4.77899e-07 0 0 0 0)
(0 0.00262907 0 0.00262907 4.99842e-07 0 0 0 0)
(0 0.00250931 0 0.00250931 5.13016e-07 0 0 0 0)
(0 0.00238985 0 0.00238985 5.18205e-07 0 0 0 0)
(0 0.00227089 0 0.00227089 5.16382e-07 0 0 0 0)
(0 0.00215266 0 0.00215266 5.08795e-07 0 0 0 0)
(0 0.00203539 0 0.00203539 4.97001e-07 0 0 0 0)
(0 0.00191818 0 0.00191818 4.82502e-07 0 0 0 0)
(-3.19157e-17 0.00180014 0 0.00180014 4.66192e-07 0 0 0 0)
(0 0.00168165 0 0.00168165 4.47602e-07 0 0 0 0)
(0 0.00156311 0 0.00156311 4.24322e-07 0 0 0 0)
(2.8232e-17 0.001445 0 0.001445 3.93008e-07 0 0 0 0)
(0 0.00132786 0 0.00132786 3.51698e-07 0 0 0 0)
(-5.20961e-17 0.00121233 0 0.00121233 3.01796e-07 0 0 0 0)
(0 0.00109908 0 0.00109908 2.48022e-07 0 0 0 0)
(2.41787e-17 0.000988857 0 0.000988857 1.96295e-07 0 0 0 0)
(0 0.000882426 0 0.000882426 1.51231e-07 0 0 0 0)
(0 0.000780527 0 0.000780527 1.14912e-07 0 0 0 0)
(0 0.000683832 0 0.000683832 8.71881e-08 0 0 0 0)
(0 0.000592895 0 0.000592895 6.66846e-08 0 0 0 0)
(0 0.000508104 0 0.000508104 5.17175e-08 0 0 0 0)
(0 0.000429657 0 0.000429657 4.07929e-08 0 0 0 0)
(0 0.000357553 0 0.000357553 3.27566e-08 0 0 0 0)
(0 0.000291615 0 0.000291615 2.67694e-08 0 0 0 0)
(0 0.000231517 0 0.000231517 2.22393e-08 0 0 0 0)
(-4.34541e-17 0.000176838 0 0.000176838 1.87528e-08 0 0 0 0)
(0 0.000127106 0 0.000127106 1.60182e-08 0 0 0 0)
(-4.46006e-17 8.18379e-05 0 8.18379e-05 1.38277e-08 0 0 0 0)
(0 4.05701e-05 0 4.05701e-05 1.20337e-08 0 0 0 0)
(-4.57318e-17 2.87856e-06 0 2.87856e-06 1.0529e-08 0 0 0 0)
(0 -3.1611e-05 0 -3.1611e-05 9.23487e-09 0 0 0 0)
(0 -6.32195e-05 0 -6.32195e-05 8.09514e-09 0 0 0 0)
(0 -9.22155e-05 0 -9.22155e-05 7.07366e-09 0 0 0 0)
(0 -0.00011882 0 -0.00011882 6.14901e-09 0 0 0 0)
(4.69712e-17 -0.000143212 0 -0.000143212 5.30561e-09 0 0 0 0)
(4.68564e-17 -0.000165534 0 -0.000165534 4.54485e-09 0 0 0 0)
(0 -0.0001859 0 -0.0001859 3.85743e-09 0 0 0 0)
(0 -0.0002044 0 -0.0002044 3.2442e-09 0 0 0 0)
(0 -0.000221102 0 -0.000221102 2.70494e-09 0 0 0 0)
(0 -0.000236061 0 -0.000236061 2.22342e-09 0 0 0 0)
(0 -0.000249321 0 -0.000249321 1.7896e-09 0 0 0 0)
(0 -0.000260914 0 -0.000260914 1.64946e-09 0 0 0 0)
(0 -0.000270867 0 -0.000270867 1.58298e-09 0 0 0 0)
(0 -0.000279206 0 -0.000279206 1.09742e-09 0 0 0 0)
(0 -0.000285953 0 -0.000285953 6.9168e-10 0 0 0 0)
(0 -0.000291113 0 -0.000291113 5.4011e-10 0 0 0 0)
(0 -0.000294701 0 -0.000294701 3.66183e-10 0 0 0 0)
(0 -0.000296733 0 -0.000296733 2.4271e-10 0 0 0 0)
(0 -0.000297223 0 -0.000297223 1.72854e-10 0 0 0 0)
(-7.19845e-17 -0.000296186 0 -0.000296186 1.32891e-10 0 0 0 0)
(3.47988e-17 -0.00029364 0 -0.00029364 1.0741e-10 0 0 0 0)
(0 -0.000289606 0 -0.000289606 8.5992e-11 0 0 0 0)
(0 -0.000284107 0 -0.000284107 6.48378e-11 0 0 0 0)
(-6.20309e-17 -0.00027717 0 -0.00027717 4.57845e-11 0 0 0 0)
(0 -0.00026883 0 -0.00026883 3.78017e-11 0 0 0 0)
(0 -0.000259126 0 -0.000259126 2.81591e-11 0 0 0 0)
(0 -0.000248109 0 -0.000248109 4.45851e-12 0 0 0 0)
(0 -0.000235837 0 -0.000235837 -4.04233e-12 0 0 0 0)
(0 -0.000222383 0 -0.000222383 3.959e-13 0 0 0 0)
(0 -0.000207833 0 -0.000207833 2.44817e-13 0 0 0 0)
(0 -0.000192291 0 -0.000192291 3.51987e-14 0 0 0 0)
(0 -0.000175882 0 -0.000175882 5.73558e-15 0 0 0 0)
(0 -0.000158757 0 -0.000158757 1.69781e-14 0 0 0 0)
(0 -0.000141092 0 -0.000141092 2.30679e-14 0 0 0 0)
(0 -0.0001231 0 -0.0001231 2.67166e-14 0 0 0 0)
(0 -0.000105029 0 -0.000105029 -7.78827e-16 0 0 0 0)
(0 -8.71705e-05 0 -8.71705e-05 -1.93293e-13 0 0 0 0)
(0 -6.98633e-05 0 -6.98633e-05 8.1981e-13 0 0 0 0)
(0 -5.34957e-05 0 -5.34957e-05 -1.56027e-12 0 0 0 0)
(0 -3.85044e-05 0 -3.85044e-05 2.23848e-12 0 0 0 0)
(0 -2.5367e-05 0 -2.5367e-05 -2.60159e-12 0 0 0 0)
(0 -1.45822e-05 0 -1.45822e-05 2.59953e-12 0 0 0 0)
(0 -6.62623e-06 0 -6.62623e-06 -2.1659e-12 0 0 0 0)
(0 -1.81448e-06 0 -1.81448e-06 1.37087e-12 0 0 0 0)
(0 -1.3907e-07 0 -1.3907e-07 -4.19128e-13 0 0 0 0)
(0 -2.28541e-09 0 -2.28541e-09 1.03059e-13 0 0 0 0)
(0 2.61912e-11 0 2.61912e-11 -8.71047e-14 0 0 0 0)
(0 3.86872e-12 0 3.86872e-12 8.53937e-14 0 0 0 0)
(0 1.74344e-12 0 1.74344e-12 -8.36631e-14 0 0 0 0)
(0 1.216e-12 0 1.216e-12 8.21907e-14 0 0 0 0)
(0 8.56232e-13 0 8.56232e-13 -8.06291e-14 0 0 0 0)
(0 5.98849e-13 0 5.98849e-13 7.92915e-14 0 0 0 0)
(0 4.16188e-13 0 4.16188e-13 -7.7846e-14 0 0 0 0)
(0 2.87066e-13 0 2.87066e-13 7.66074e-14 0 0 0 0)
(0 1.96152e-13 0 1.96152e-13 -7.52437e-14 0 0 0 0)
(0 1.32979e-13 0 1.32979e-13 7.40776e-14 0 0 0 0)
(0 8.96933e-14 0 8.96933e-14 -7.27814e-14 0 0 0 0)
(0 6.01004e-14 0 6.01004e-14 7.16463e-14 0 0 0 0)
(0 3.97176e-14 0 3.97176e-14 -7.03981e-14 0 0 0 0)
(0 2.62154e-14 0 2.62154e-14 6.92922e-14 0 0 0 0)
(0 1.70763e-14 0 1.70763e-14 -6.80625e-14 0 0 0 0)
(0 1.09642e-14 0 1.09642e-14 6.69712e-14 0 0 0 0)
(3.00904e-19 7.05959e-15 0 7.05959e-15 -6.57317e-14 0 0 0 0)
(0 4.43122e-15 0 4.43122e-15 6.46602e-14 0 0 0 0)
(0 2.77323e-15 0 2.77323e-15 -6.34326e-14 0 0 0 0)
(0 1.68713e-15 0 1.68713e-15 6.23397e-14 0 0 0 0)
(0 1.035e-15 0 1.035e-15 -6.11054e-14 0 0 0 0)
(0 7.21174e-16 0 7.21174e-16 6.00032e-14 0 0 0 0)
(0 4.59905e-16 0 4.59905e-16 -5.8754e-14 0 0 0 0)
(0 2.09594e-16 0 2.09594e-16 5.76333e-14 0 0 0 0)
(0 1.0883e-16 0 1.0883e-16 -5.63712e-14 0 0 0 0)
(0 -1.68881e-17 0 -1.68881e-17 5.52212e-14 0 0 0 0)
(0 3.23658e-17 0 3.23658e-17 -5.39595e-14 0 0 0 0)
(0 9.25122e-17 0 9.25122e-17 5.27627e-14 0 0 0 0)
(0 1.9683e-17 0 1.9683e-17 -5.15082e-14 0 0 0 0)
(0 -6.74331e-17 0 -6.74331e-17 5.02719e-14 0 0 0 0)
(0 4.92848e-17 0 4.92848e-17 -4.89985e-14 0 0 0 0)
(0 3.11641e-17 0 3.11641e-17 4.77318e-14 0 0 0 0)
(0 -4.61435e-17 0 -4.61435e-17 -4.64336e-14 0 0 0 0)
(0 9.23756e-17 0 9.23756e-17 4.51358e-14 0 0 0 0)
(0 -8.24691e-17 0 -8.24691e-17 -4.38091e-14 0 0 0 0)
(0 -1.48151e-16 0 -1.48151e-16 4.2479e-14 0 0 0 0)
(0 1.29048e-16 0 1.29048e-16 -4.11212e-14 0 0 0 0)
(0 1.81384e-16 0 1.81384e-16 3.97532e-14 0 0 0 0)
(0 -4.24013e-17 0 -4.24013e-17 -3.8359e-14 0 0 0 0)
(0 -1.74287e-16 0 -1.74287e-16 3.69823e-14 0 0 0 0)
(0 -1.30867e-16 0 -1.30867e-16 -4.07158e-14 0 0 0 0)
(0 -5.2569e-17 0 -5.2569e-17 4.02345e-14 0 0 0 0)
(0 5.75982e-17 0 5.75982e-17 -3.97806e-14 0 0 0 0)
(0 1.88465e-17 0 1.88465e-17 3.93262e-14 0 0 0 0)
(0 2.10699e-17 0 2.10699e-17 -3.88663e-14 0 0 0 0)
(0 4.82809e-17 0 4.82809e-17 3.84034e-14 0 0 0 0)
(0 -1.58819e-18 0 -1.58819e-18 -3.79376e-14 0 0 0 0)
(0 -7.41154e-18 0 -7.41154e-18 3.74668e-14 0 0 0 0)
(0 -5.55865e-18 0 -5.55865e-18 -3.69941e-14 0 0 0 0)
(0 -9.93146e-17 0 -9.93146e-17 3.65131e-14 0 0 0 0)
(0 -5.72806e-17 0 -5.72806e-17 -3.60328e-14 0 0 0 0)
(0 9.42854e-17 0 9.42854e-17 3.55424e-14 0 0 0 0)
(0 5.26219e-17 0 5.26219e-17 -3.5053e-14 0 0 0 0)
(0 -2.55169e-17 0 -2.55169e-17 3.45512e-14 0 0 0 0)
(0 4.76456e-18 0 4.76456e-18 -3.40525e-14 0 0 0 0)
(0 -5.3469e-18 0 -5.3469e-18 3.35375e-14 0 0 0 0)
(0 4.34104e-18 0 4.34104e-18 -3.3031e-14 0 0 0 0)
(0 2.82697e-17 0 2.82697e-17 3.24933e-14 0 0 0 0)
(0 -3.38284e-17 0 -3.38284e-17 -3.19921e-14 0 0 0 0)
(0 5.87629e-18 0 5.87629e-18 3.14214e-14 0 0 0 0)
(0 1.927e-17 0 1.927e-17 -3.092e-14 0 0 0 0)
(0 -4.24575e-17 0 -4.24575e-17 3.0328e-14 0 0 0 0)
(0 -2.83227e-17 0 -2.83227e-17 -2.98084e-14 0 0 0 0)
(0 4.49457e-17 0 4.49457e-17 2.92018e-14 0 0 0 0)
(0 9.58206e-18 0 9.58206e-18 -2.86524e-14 0 0 0 0)
(0 2.20758e-17 0 2.20758e-17 2.80337e-14 0 0 0 0)
(0 2.68404e-17 0 2.68404e-17 -2.74614e-14 0 0 0 0)
(0 -3.00697e-17 0 -3.00697e-17 2.6815e-14 0 0 0 0)
(0 -6.19922e-17 0 -6.19922e-17 -2.6207e-14 0 0 0 0)
(0 -1.4606e-16 0 -1.4606e-16 2.55541e-14 0 0 0 0)
(0 -3.61524e-16 0 -3.61524e-16 -2.48931e-14 0 0 0 0)
(0 -3.79577e-17 0 -3.79577e-17 2.42257e-14 0 0 0 0)
(0 3.54854e-16 0 3.54854e-16 -2.35003e-14 0 0 0 0)
(0 1.78936e-16 0 1.78936e-16 2.2819e-14 0 0 0 0)
(0 4.54751e-17 0 4.54751e-17 -2.2051e-14 0 0 0 0)
(0 1.4876e-17 0 1.4876e-17 2.13105e-14 0 0 0 0)
(0 4.61104e-17 0 4.61104e-17 -2.04787e-14 0 0 0 0)
(0 1.52995e-17 0 1.52995e-17 1.97234e-14 0 0 0 0)
(0 -2.85344e-17 0 -2.85344e-17 -1.87786e-14 0 0 0 0)
(0 -8.16328e-17 0 -8.16328e-17 1.79881e-14 0 0 0 0)
(0 1.67289e-17 0 1.67289e-17 -1.69221e-14 0 0 0 0)
(0 1.29914e-16 0 1.29914e-16 1.60843e-14 0 0 0 0)
(0 7.54389e-17 0 7.54389e-17 -1.48319e-14 0 0 0 0)
(0 -3.13932e-17 0 -3.13932e-17 1.39068e-14 0 0 0 0)
(0 -7.46448e-17 0 -7.46448e-17 -1.2476e-14 0 0 0 0)
(0 -8.03093e-17 0 -8.03093e-17 1.12228e-14 0 0 0 0)
(0 -4.81221e-17 0 -4.81221e-17 -9.48768e-15 0 0 0 0)
(0 3.98105e-17 0 3.98105e-17 7.48289e-15 0 0 0 0)
(0 -6.61744e-17 0 -6.61744e-17 -5.35604e-15 0 0 0 0)
(0 -9.98969e-17 0 -9.98969e-17 1.60549e-15 0 0 0 0)
)
;

boundaryField
{
    inandouthalf11
    {
        type            cyclic;
    }
    inandouthalf12
    {
        type            cyclic;
    }
    inandouthalf21
    {
        type            cyclic;
    }
    inandouthalf22
    {
        type            cyclic;
    }
    inandouthalf31
    {
        type            cyclic;
    }
    inandouthalf32
    {
        type            cyclic;
    }
    inandouthalf41
    {
        type            cyclic;
    }
    inandouthalf42
    {
        type            cyclic;
    }
    top
    {
        type            symmetryPlane;
    }
    walls
    {
        type            zeroGradient;
    }
    frontAndBackPlanes
    {
        type            empty;
    }
}


// ************************************************************************* //
