/*--------------------------------*- C++ -*----------------------------------*\
| =========                 |                                                 |
| \\      /  F ield         | OpenFOAM: The Open Source CFD Toolbox           |
|  \\    /   O peration     | Version:  2.4.x                                 |
|   \\  /    A nd           | Web:      www.OpenFOAM.org                      |
|    \\/     M anipulation  |                                                 |
\*---------------------------------------------------------------------------*/
FoamFile
{
    version     2.0;
    format      ascii;
    class       volScalarField;
    location    "9.35";
    object      Theta;
}
// * * * * * * * * * * * * * * * * * * * * * * * * * * * * * * * * * * * * * //

dimensions      [0 2 -2 0 0 0 0];

internalField   nonuniform List<scalar> 
360
(
6.66146e-21
6.66167e-21
6.66158e-21
6.66156e-21
6.66158e-21
6.66159e-21
6.6616e-21
6.6616e-21
6.66161e-21
6.66161e-21
6.66162e-21
6.66163e-21
6.66164e-21
6.66165e-21
6.66166e-21
6.66167e-21
6.66169e-21
6.6617e-21
6.66171e-21
6.66172e-21
6.66173e-21
6.66174e-21
6.66176e-21
6.66177e-21
6.66178e-21
6.66179e-21
6.6618e-21
6.66181e-21
6.66182e-21
6.66183e-21
6.66184e-21
6.66185e-21
6.66186e-21
6.66186e-21
6.66187e-21
6.66188e-21
6.66188e-21
6.66189e-21
6.66189e-21
6.66189e-21
6.66189e-21
6.6619e-21
6.6619e-21
6.66189e-21
6.66189e-21
6.66189e-21
6.66189e-21
6.66188e-21
6.66188e-21
6.66187e-21
6.66187e-21
6.66186e-21
6.66185e-21
6.66184e-21
6.66183e-21
6.66182e-21
6.66181e-21
6.6618e-21
6.66179e-21
6.66178e-21
6.66177e-21
6.66176e-21
6.66175e-21
6.66174e-21
6.66173e-21
6.66172e-21
6.6617e-21
6.66169e-21
6.66168e-21
6.66167e-21
6.66166e-21
6.66165e-21
6.66164e-21
6.66163e-21
6.66162e-21
6.66161e-21
6.6616e-21
6.66159e-21
6.66158e-21
6.66157e-21
6.66156e-21
6.66155e-21
6.66154e-21
6.66154e-21
6.66153e-21
6.66152e-21
6.66151e-21
6.66151e-21
6.6615e-21
6.66149e-21
6.66148e-21
6.66148e-21
6.66147e-21
6.66146e-21
6.66146e-21
6.66145e-21
6.66144e-21
6.66144e-21
6.66143e-21
6.66142e-21
6.66142e-21
6.66141e-21
6.66141e-21
6.6614e-21
6.66139e-21
6.66139e-21
6.66138e-21
6.66138e-21
6.66137e-21
6.66137e-21
6.66136e-21
6.66136e-21
6.66135e-21
6.66134e-21
6.66134e-21
6.66133e-21
6.66133e-21
6.66132e-21
6.66132e-21
6.66131e-21
6.66131e-21
6.6613e-21
6.6613e-21
6.66129e-21
6.66128e-21
6.66128e-21
6.66128e-21
1.34101e-20
8.80418e-20
6.51761e-19
4.88117e-18
3.69921e-17
2.85905e-16
2.27932e-15
1.90458e-14
1.7044e-13
1.67888e-12
1.88005e-11
2.48289e-10
4.31347e-09
1.76328e-07
7.13392e-06
0.000104784
0.000864303
0.00262244
0.00390123
0.00466328
0.00517651
0.00555658
0.00585263
0.00608398
0.00623904
0.00646449
0.00669972
0.00693015
0.00715214
0.00736445
0.00756601
0.00775592
0.00793309
0.00809655
0.0082455
0.00837921
0.00849713
0.00859879
0.00868405
0.0087528
0.00880517
0.00884137
0.00886178
0.00886682
0.00885708
0.00883317
0.00879575
0.00874555
0.00868331
0.00860974
0.00852555
0.00843137
0.00832779
0.00821533
0.00809452
0.00796596
0.00783031
0.00768828
0.0075406
0.00738806
0.00723142
0.00707149
0.00690903
0.00674483
0.00657968
0.00641433
0.00624955
0.00608607
0.00592461
0.00576585
0.00561042
0.00545892
0.00531187
0.00516972
0.00503145
0.0048962
0.00476442
0.00463647
0.00451249
0.00439249
0.00427625
0.00416342
0.00405354
0.00394613
0.00384068
0.00373674
0.00363384
0.00353158
0.00342955
0.00332737
0.00322466
0.00312102
0.00301605
0.00290936
0.0028005
0.00268902
0.00257443
0.0024562
0.00233373
0.00220637
0.00207333
0.0019337
0.00178637
0.0016299
0.00146238
0.0012811
0.00108188
0.00085741
0.00059186
0
0
0
0
0
0
0
0
0
0
0
0
0
0
0
0
0
0
0
0
0
0
0
0
0
0
0
0
0
0
0
0
0
0
0
0
0
0
0
0
0
0
0
0
0
0
0
0
0
0
0
0
0
0
0
0
0
0
0
0
0
0
0
0
0
0
0
0
0
0
0
0
0
0
0
0
0
0
0
0
0
0
0
0
0
0
0
0
0
0
0
0
0
0
0
0
0
0
0
0
0
0
0
0
0
0
0
0
0
0
0
0
0
0
0
0
0
0
0
0
0
0
0
0
)
;

boundaryField
{
    inandouthalf11
    {
        type            cyclic;
    }
    inandouthalf12
    {
        type            cyclic;
    }
    inandouthalf21
    {
        type            cyclic;
    }
    inandouthalf22
    {
        type            cyclic;
    }
    inandouthalf31
    {
        type            cyclic;
    }
    inandouthalf32
    {
        type            cyclic;
    }
    inandouthalf41
    {
        type            cyclic;
    }
    inandouthalf42
    {
        type            cyclic;
    }
    top
    {
        type            symmetryPlane;
    }
    walls
    {
        type            zeroGradient;
    }
    frontAndBackPlanes
    {
        type            empty;
    }
}


// ************************************************************************* //
