/*--------------------------------*- C++ -*----------------------------------*\
| =========                 |                                                 |
| \\      /  F ield         | OpenFOAM: The Open Source CFD Toolbox           |
|  \\    /   O peration     | Version:  2.4.x                                 |
|   \\  /    A nd           | Web:      www.OpenFOAM.org                      |
|    \\/     M anipulation  |                                                 |
\*---------------------------------------------------------------------------*/
FoamFile
{
    version     2.0;
    format      ascii;
    class       volScalarField;
    location    "12.1";
    object      alpha;
}
// * * * * * * * * * * * * * * * * * * * * * * * * * * * * * * * * * * * * * //

dimensions      [0 0 0 0 0 0 0];

internalField   nonuniform List<scalar> 
360
(
0.610895
0.611764
0.611853
0.611763
0.611721
0.611708
0.611691
0.611669
0.611646
0.611623
0.611601
0.611578
0.611554
0.611531
0.611507
0.611484
0.611459
0.611435
0.611411
0.611386
0.611361
0.611335
0.61131
0.611284
0.611258
0.611231
0.611205
0.611178
0.61115
0.611123
0.611095
0.611067
0.611039
0.61101
0.610981
0.610952
0.610922
0.610892
0.610862
0.610831
0.6108
0.610769
0.610737
0.610705
0.610673
0.61064
0.610607
0.610573
0.610539
0.610505
0.61047
0.610435
0.6104
0.610364
0.610327
0.61029
0.610253
0.610215
0.610177
0.610138
0.610099
0.610059
0.610019
0.609978
0.609936
0.609895
0.609852
0.609809
0.609765
0.609721
0.609676
0.60963
0.609584
0.609537
0.60949
0.609441
0.609392
0.609343
0.609292
0.609241
0.609189
0.609136
0.609082
0.609027
0.608971
0.608915
0.608857
0.608799
0.608739
0.608679
0.608617
0.608554
0.60849
0.608425
0.608359
0.608291
0.608222
0.608151
0.608079
0.608006
0.607931
0.607854
0.607776
0.607696
0.607615
0.607531
0.607445
0.607358
0.607268
0.607176
0.607082
0.606986
0.606887
0.606785
0.606681
0.606574
0.606464
0.606351
0.606234
0.606114
0.605991
0.605863
0.605732
0.605596
0.605455
0.60531
0.60516
0.605004
0.604842
0.604674
0.604499
0.604317
0.604127
0.603926
0.603713
0.603485
0.603244
0.602987
0.602702
0.602378
0.602028
0.601615
0.598783
0.599204
0.598689
0.597837
0.594322
0.426116
0.283548
0.227764
0.19223
0.162302
0.136239
0.113395
0.0935782
0.0766635
0.0624651
0.0507178
0.0411052
0.0332995
0.0269903
0.0219021
0.0178003
0.0144911
0.0118171
0.0096519
0.00789461
0.00646496
0.0052991
0.00434617
0.00356555
0.00292452
0.0023963
0.00195887
0.00159476
0.00129161
0.00104184
0.000840353
0.000681714
0.000558999
0.000464672
0.000391876
0.000335086
0.000290145
0.000254029
0.000224556
0.000200152
0.000179672
0.000162273
0.000147325
0.000134353
0.000122995
0.000112967
0.000104048
9.60634e-05
8.88717e-05
8.23593e-05
7.64335e-05
7.10178e-05
6.60492e-05
6.14749e-05
5.7208e-05
5.31832e-05
4.9383e-05
4.57931e-05
4.24008e-05
3.9196e-05
3.61698e-05
3.33148e-05
3.06247e-05
2.80938e-05
2.57167e-05
2.34882e-05
2.14031e-05
1.94558e-05
1.76407e-05
1.59521e-05
1.43842e-05
1.29314e-05
1.1588e-05
1.03488e-05
9.20889e-06
8.1636e-06
7.20836e-06
6.33855e-06
5.54909e-06
4.83365e-06
4.18356e-06
3.58715e-06
3.03081e-06
2.50438e-06
2.01419e-06
1.59613e-06
1.29656e-06
1.10992e-06
9.62585e-07
8.20041e-07
6.74363e-07
5.42703e-07
4.34115e-07
3.44843e-07
2.71674e-07
2.11945e-07
1.63425e-07
1.24246e-07
9.28207e-08
6.78517e-08
4.82312e-08
3.26799e-08
2.14202e-08
1.16469e-08
6.48984e-09
5.42253e-10
9.4063e-22
1.22794e-33
3.81766e-45
2.08533e-56
1.99499e-67
3.3315e-74
1.73117e-74
8.55444e-75
4.30479e-75
2.13279e-75
1.04042e-75
4.99351e-76
2.35685e-76
1.09336e-76
4.98285e-77
2.22963e-77
9.78984e-78
4.21548e-78
1.77898e-78
7.35291e-79
2.97442e-79
1.17673e-79
4.54919e-80
1.71716e-80
6.32289e-81
2.26898e-81
7.92676e-82
2.6926e-82
8.88436e-83
2.84407e-83
8.82129e-84
2.64711e-84
7.6733e-85
2.14498e-85
5.77158e-86
1.49182e-86
3.69598e-87
8.75529e-88
1.97771e-88
4.24716e-89
8.64189e-90
1.65973e-90
2.99571e-91
5.05632e-92
7.93476e-93
1.14989e-93
1.52653e-94
1.83843e-95
1.98455e-96
1.89122e-97
1.55974e-98
1.08353e-99
6.09744e-101
2.61409e-102
7.64262e-104
1.17005e-105
1.04492e-108
4.67445e-116
2.6104e-118
7.20494e-121
3.16458e-131
7.12686e-142
1.22142e-152
1.52334e-163
1.67563e-174
1.41293e-185
1.03175e-196
1.43922e-207
5.56813e-218
2.78871e-226
1.50878e-236
9.58973e-245
6.16748e-255
3.30263e-263
2.61128e-273
1.13957e-281
1.68529e-291
4.06227e-300
1.12335e-309
4.68974e-318
6.16594e-321
7.96928e-321
7.83094e-321
2.51973e-321
8.86848e-321
4.57737e-319
2.8055e-319
6.80328e-321
7.09478e-321
6.08689e-321
8.5424e-321
0
0
0
0
0
0
0
0
0
0
0
0
0
0
0
0
)
;

boundaryField
{
    inandouthalf11
    {
        type            cyclic;
    }
    inandouthalf12
    {
        type            cyclic;
    }
    inandouthalf21
    {
        type            cyclic;
    }
    inandouthalf22
    {
        type            cyclic;
    }
    inandouthalf31
    {
        type            cyclic;
    }
    inandouthalf32
    {
        type            cyclic;
    }
    inandouthalf41
    {
        type            cyclic;
    }
    inandouthalf42
    {
        type            cyclic;
    }
    top
    {
        type            symmetryPlane;
    }
    walls
    {
        type            zeroGradient;
    }
    frontAndBackPlanes
    {
        type            empty;
    }
}


// ************************************************************************* //
