/*--------------------------------*- C++ -*----------------------------------*\
| =========                 |                                                 |
| \\      /  F ield         | OpenFOAM: The Open Source CFD Toolbox           |
|  \\    /   O peration     | Version:  2.4.x                                 |
|   \\  /    A nd           | Web:      www.OpenFOAM.org                      |
|    \\/     M anipulation  |                                                 |
\*---------------------------------------------------------------------------*/
FoamFile
{
    version     2.0;
    format      ascii;
    class       volScalarField;
    location    "12.1";
    object      ddt0(alpha);
}
// * * * * * * * * * * * * * * * * * * * * * * * * * * * * * * * * * * * * * //

dimensions      [0 0 -1 0 0 0 0];

internalField   nonuniform List<scalar> 
360
(
1.77969e-06
2.66415e-06
2.49872e-06
2.45321e-06
2.57781e-06
2.69636e-06
2.78218e-06
2.86389e-06
2.95279e-06
3.04893e-06
3.14745e-06
3.2437e-06
3.33635e-06
3.42376e-06
3.50557e-06
3.58129e-06
3.64998e-06
3.71064e-06
3.76272e-06
3.80679e-06
3.84106e-06
3.86732e-06
3.88488e-06
3.89401e-06
3.89516e-06
3.88854e-06
3.87439e-06
3.85425e-06
3.82769e-06
3.79538e-06
3.75799e-06
3.71707e-06
3.67078e-06
3.62338e-06
3.57168e-06
3.51869e-06
3.46341e-06
3.40758e-06
3.35167e-06
3.29344e-06
3.23735e-06
3.18073e-06
3.12376e-06
3.0694e-06
3.01502e-06
2.96226e-06
2.91105e-06
2.85977e-06
2.81119e-06
2.76526e-06
2.71911e-06
2.67574e-06
2.63345e-06
2.59356e-06
2.55415e-06
2.51804e-06
2.48182e-06
2.44827e-06
2.41557e-06
2.38342e-06
2.35452e-06
2.32554e-06
2.29904e-06
2.27294e-06
2.24815e-06
2.22397e-06
2.20113e-06
2.17906e-06
2.1575e-06
2.13607e-06
2.11648e-06
2.09783e-06
2.07833e-06
2.06061e-06
2.04292e-06
2.02627e-06
2.00896e-06
1.99189e-06
1.97505e-06
1.95845e-06
1.94164e-06
1.92519e-06
1.909e-06
1.89291e-06
1.87693e-06
1.8608e-06
1.84458e-06
1.82792e-06
1.81085e-06
1.79347e-06
1.77579e-06
1.75786e-06
1.73985e-06
1.72172e-06
1.70347e-06
1.68504e-06
1.66636e-06
1.64738e-06
1.6281e-06
1.60854e-06
1.58876e-06
1.56884e-06
1.54886e-06
1.52889e-06
1.509e-06
1.48924e-06
1.46968e-06
1.45037e-06
1.43135e-06
1.41266e-06
1.39431e-06
1.37628e-06
1.3585e-06
1.34084e-06
1.32314e-06
1.30514e-06
1.28655e-06
1.26702e-06
1.24619e-06
1.22373e-06
1.19936e-06
1.17297e-06
1.14466e-06
1.11491e-06
1.08463e-06
1.05527e-06
1.0288e-06
1.0074e-06
9.93027e-07
9.86637e-07
9.8736e-07
9.91567e-07
9.9177e-07
9.74796e-07
9.194e-07
7.99014e-07
6.00869e-07
3.5128e-07
1.11879e-07
-5.69579e-08
-1.47537e-07
-2.381e-06
1.33892e-06
-4.41567e-07
-1.21582e-07
-1.87034e-06
0.0019374
0.0575899
0.0115613
-0.00132407
-0.0057985
-0.0086259
-0.0106304
-0.0118114
-0.0121044
-0.0115787
-0.0104129
-0.00881018
-0.00707278
-0.00534382
-0.00374617
-0.00234587
-0.00116703
-0.000206938
0.000551404
0.00113126
0.00155848
0.00185778
0.00205199
0.00216136
0.00220488
0.00220248
0.00217512
0.00213663
0.00207893
0.00196921
0.00177699
0.00150961
0.00121205
0.000933235
0.000700381
0.00051864
0.000381644
0.000279887
0.000204565
0.000148678
0.000107002
7.5741e-05
5.21619e-05
3.42946e-05
2.07112e-05
1.03688e-05
2.49847e-06
-3.47221e-06
-7.97311e-06
-1.13301e-05
-1.37921e-05
-1.55509e-05
-1.67552e-05
-1.75213e-05
-1.79404e-05
-1.80861e-05
-1.80071e-05
-1.77411e-05
-1.73208e-05
-1.67747e-05
-1.6128e-05
-1.54031e-05
-1.46206e-05
-1.37989e-05
-1.29549e-05
-1.21038e-05
-1.12585e-05
-1.04301e-05
-9.62736e-06
-8.85662e-06
-8.12237e-06
-7.4271e-06
-6.77181e-06
-6.15628e-06
-5.57956e-06
-5.04046e-06
-4.53784e-06
-4.07102e-06
-3.64036e-06
-3.24793e-06
-2.89945e-06
-2.60242e-06
-2.36082e-06
-2.16523e-06
-1.97296e-06
-1.70043e-06
-1.29006e-06
-8.39847e-07
-5.67715e-07
-4.94151e-07
-3.77564e-07
-4.11099e-07
-3.6995e-07
-3.23888e-07
-2.77055e-07
-2.32129e-07
-1.90643e-07
-1.53475e-07
-1.2103e-07
-9.33306e-08
-7.02213e-08
-5.18206e-08
-3.59264e-08
-2.63138e-08
-1.49124e-08
-1.42481e-08
-4.36393e-09
-2.78838e-20
-6.56357e-32
-2.02554e-43
-1.08157e-54
-1.01028e-65
-5.86583e-73
-3.06941e-73
-1.50257e-73
-7.55328e-74
-3.74631e-74
-1.82807e-74
-8.77654e-75
-4.14363e-75
-1.92285e-75
-8.76587e-76
-3.92364e-76
-1.72335e-76
-7.42318e-77
-3.13375e-77
-1.2957e-77
-5.24331e-78
-2.07511e-78
-8.02535e-79
-3.03046e-79
-1.11631e-79
-4.00751e-80
-1.40057e-80
-4.75938e-81
-1.57104e-81
-5.03139e-82
-1.56124e-82
-4.68709e-83
-1.35928e-83
-3.80148e-84
-1.02336e-84
-2.64644e-85
-6.55978e-86
-1.55471e-86
-3.51371e-87
-7.54974e-88
-1.53702e-88
-2.95359e-89
-5.33412e-90
-9.00856e-91
-1.41456e-91
-2.05125e-92
-2.72492e-93
-3.28394e-94
-3.54749e-95
-3.38321e-96
-2.79248e-97
-1.94158e-98
-1.09363e-99
-4.69358e-101
-1.37396e-102
-2.10711e-104
-1.9077e-107
-9.20334e-115
-5.16088e-117
-1.4304e-119
-6.21739e-130
-1.38567e-140
-2.35509e-151
-2.907e-162
-3.17352e-173
-2.64277e-184
-1.91238e-195
-2.76296e-206
-1.09058e-216
-5.53594e-225
-2.96973e-235
-1.90371e-243
-1.21543e-253
-6.55615e-262
-5.15271e-272
-2.26214e-280
-3.33002e-290
-8.06182e-299
-2.22115e-308
2.62935e-316
-2.67388e-320
0
0
0
0
0
0
0
0
0
0
0
0
0
0
0
0
0
0
0
0
0
0
0
0
0
0
)
;

boundaryField
{
    inandouthalf11
    {
        type            cyclic;
    }
    inandouthalf12
    {
        type            cyclic;
    }
    inandouthalf21
    {
        type            cyclic;
    }
    inandouthalf22
    {
        type            cyclic;
    }
    inandouthalf31
    {
        type            cyclic;
    }
    inandouthalf32
    {
        type            cyclic;
    }
    inandouthalf41
    {
        type            cyclic;
    }
    inandouthalf42
    {
        type            cyclic;
    }
    top
    {
        type            symmetryPlane;
    }
    walls
    {
        type            calculated;
        value           uniform 1.77969e-06;
    }
    frontAndBackPlanes
    {
        type            empty;
    }
}


// ************************************************************************* //
