/*--------------------------------*- C++ -*----------------------------------*\
| =========                 |                                                 |
| \\      /  F ield         | OpenFOAM: The Open Source CFD Toolbox           |
|  \\    /   O peration     | Version:  2.4.x                                 |
|   \\  /    A nd           | Web:      www.OpenFOAM.org                      |
|    \\/     M anipulation  |                                                 |
\*---------------------------------------------------------------------------*/
FoamFile
{
    version     2.0;
    format      ascii;
    class       surfaceScalarField;
    location    "12.1";
    object      ddt0(phib);
}
// * * * * * * * * * * * * * * * * * * * * * * * * * * * * * * * * * * * * * //

dimensions      [0 3 -2 0 0 0 0];

internalField   nonuniform List<scalar> 
359
(
-1.04448e-14
-2.61676e-14
-4.12941e-14
-5.65767e-14
-7.28623e-14
-9.00394e-14
-1.07876e-13
-1.26227e-13
-1.45068e-13
-1.64358e-13
-1.84077e-13
-2.0404e-13
-2.24148e-13
-2.44289e-13
-2.64405e-13
-2.8431e-13
-3.03912e-13
-3.23093e-13
-3.41766e-13
-3.59827e-13
-3.77145e-13
-3.93716e-13
-4.09486e-13
-4.24353e-13
-4.383e-13
-4.51357e-13
-4.63468e-13
-4.74649e-13
-4.84865e-13
-4.94253e-13
-5.02754e-13
-5.1044e-13
-5.17332e-13
-5.23519e-13
-5.29085e-13
-5.33986e-13
-5.38386e-13
-5.42304e-13
-5.45785e-13
-5.4889e-13
-5.51731e-13
-5.54322e-13
-5.56694e-13
-5.58918e-13
-5.61024e-13
-5.63068e-13
-5.65143e-13
-5.6721e-13
-5.69315e-13
-5.7148e-13
-5.73777e-13
-5.76248e-13
-5.78799e-13
-5.81536e-13
-5.84446e-13
-5.87566e-13
-5.90884e-13
-5.94437e-13
-5.98188e-13
-6.0217e-13
-6.06374e-13
-6.10826e-13
-6.15503e-13
-6.20406e-13
-6.25539e-13
-6.30873e-13
-6.36459e-13
-6.42268e-13
-6.48295e-13
-6.54502e-13
-6.60873e-13
-6.67477e-13
-6.74242e-13
-6.81193e-13
-6.8832e-13
-6.95611e-13
-7.03048e-13
-7.10657e-13
-7.18397e-13
-7.26263e-13
-7.34238e-13
-7.423e-13
-7.50451e-13
-7.58739e-13
-7.67116e-13
-7.75538e-13
-7.8403e-13
-7.92626e-13
-8.01216e-13
-8.09835e-13
-8.18496e-13
-8.27179e-13
-8.35862e-13
-8.44549e-13
-8.53236e-13
-8.61898e-13
-8.70545e-13
-8.79144e-13
-8.87752e-13
-8.96319e-13
-9.04845e-13
-9.1327e-13
-9.21651e-13
-9.29977e-13
-9.3824e-13
-9.46447e-13
-9.54532e-13
-9.62586e-13
-9.7059e-13
-9.78502e-13
-9.86355e-13
-9.94158e-13
-1.00185e-12
-1.00949e-12
-1.01704e-12
-1.02451e-12
-1.0319e-12
-1.03918e-12
-1.04634e-12
-1.05343e-12
-1.06035e-12
-1.0671e-12
-1.07369e-12
-1.08012e-12
-1.0864e-12
-1.09254e-12
-1.09853e-12
-1.10448e-12
-1.11045e-12
-1.11643e-12
-1.12247e-12
-1.12861e-12
-1.13475e-12
-1.14079e-12
-1.14636e-12
-1.15112e-12
-1.15449e-12
-1.15622e-12
-1.15643e-12
-1.15554e-12
-1.15404e-12
-1.14627e-12
-1.14138e-12
-1.14137e-12
-1.13835e-12
-1.12154e-12
3.6632e-11
1.34339e-09
1.39045e-09
1.30675e-09
1.16789e-09
1.01602e-09
8.73761e-10
7.51747e-10
6.52076e-10
5.67846e-10
5.00579e-10
4.55327e-10
4.13292e-10
3.75355e-10
3.40272e-10
3.06896e-10
2.74574e-10
2.43114e-10
2.12521e-10
1.82978e-10
1.54682e-10
1.27882e-10
1.02794e-10
7.96001e-11
5.8354e-11
3.89129e-11
2.09984e-11
4.61549e-12
-9.38671e-12
-1.94484e-11
-2.45179e-11
-2.51292e-11
-2.30055e-11
-1.98561e-11
-1.67158e-11
-1.40045e-11
-1.18037e-11
-1.00606e-11
-8.68735e-12
-7.6001e-12
-6.7305e-12
-6.02572e-12
-5.4461e-12
-4.96224e-12
-4.55229e-12
-4.19998e-12
-3.89316e-12
-3.62258e-12
-3.38126e-12
-3.1638e-12
-2.96607e-12
-2.78485e-12
-2.61759e-12
-2.46234e-12
-2.31752e-12
-2.17916e-12
-2.04675e-12
-1.91978e-12
-1.79797e-12
-1.68102e-12
-1.56881e-12
-1.46122e-12
-1.3582e-12
-1.2597e-12
-1.16576e-12
-1.07635e-12
-9.91459e-13
-9.11019e-13
-8.34968e-13
-7.63195e-13
-6.95596e-13
-6.32e-13
-5.72327e-13
-5.16377e-13
-4.64051e-13
-4.15212e-13
-3.69757e-13
-3.27619e-13
-2.88585e-13
-2.53411e-13
-2.20982e-13
-1.90604e-13
-1.62615e-13
-1.36327e-13
-1.11142e-13
-8.74617e-14
-6.71688e-14
-5.29163e-14
-4.44332e-14
-3.76883e-14
-2.95859e-14
-2.3743e-14
-1.9169e-14
-1.56274e-14
-1.27595e-14
-1.05354e-14
-8.7291e-15
-7.39207e-15
-6.30636e-15
-5.52176e-15
-4.88273e-15
-4.48159e-15
-4.09678e-15
-3.92397e-15
-3.56974e-15
-3.43007e-15
-3.69836e-15
-3.37761e-15
-3.21034e-15
-3.08222e-15
-2.91695e-15
-2.78596e-15
-2.61816e-15
-2.47652e-15
-2.29905e-15
-2.15038e-15
-1.97701e-15
-1.85175e-15
-1.7434e-15
-1.65208e-15
-1.57282e-15
-1.49621e-15
-1.42036e-15
-1.35486e-15
-1.28468e-15
-1.21238e-15
-1.14706e-15
-1.08964e-15
-1.03972e-15
-9.80845e-16
-9.33503e-16
-8.85827e-16
-8.37409e-16
-7.81604e-16
-7.45004e-16
-7.10046e-16
-6.73123e-16
-6.43659e-16
-6.10793e-16
-5.75328e-16
-5.52757e-16
-5.31767e-16
-4.90725e-16
-4.63344e-16
-4.39426e-16
-4.16217e-16
-3.88214e-16
-3.63364e-16
-3.31237e-16
-2.7031e-16
-3.00363e-16
-2.89481e-16
-2.81699e-16
-2.72049e-16
-2.60573e-16
-2.76465e-16
-2.82027e-16
-3.16844e-16
-3.1092e-16
-3.39542e-16
-3.56036e-16
-4.27609e-16
-4.46131e-16
-5.19144e-16
-5.85565e-16
-6.76692e-16
-7.5012e-16
-8.45284e-16
-9.30865e-16
-1.02438e-15
-1.12839e-15
-1.21607e-15
-1.31791e-15
-1.35176e-15
-1.62456e-15
-1.76871e-15
-1.95111e-15
-1.93917e-15
-2.30985e-15
-2.34957e-15
-2.65605e-15
-2.86432e-15
-5.65767e-15
-7.97339e-15
-1.06058e-14
-1.18463e-14
-1.48245e-14
-1.56969e-14
-1.69205e-14
-1.56574e-14
-1.92767e-14
-1.95896e-14
-2.03474e-14
-1.7112e-14
-1.76415e-14
-1.38242e-14
-1.05715e-14
-3.59476e-15
-2.71583e-15
1.79579e-15
5.79089e-15
1.34277e-14
1.89572e-14
2.61826e-14
3.40514e-14
4.46868e-14
5.47751e-14
6.28844e-14
7.31835e-14
8.60695e-14
8.85329e-14
1.23576e-13
1.89917e-13
)
;

boundaryField
{
    inandouthalf11
    {
        type            cyclic;
        value           nonuniform List<scalar> 
100
(
-8.53238e-11
-8.48475e-11
-8.47847e-11
-8.485e-11
-8.48812e-11
-8.48919e-11
-8.49053e-11
-8.49223e-11
-8.49399e-11
-8.49576e-11
-8.49755e-11
-8.49934e-11
-8.50115e-11
-8.50297e-11
-8.50481e-11
-8.50668e-11
-8.50857e-11
-8.51046e-11
-8.51238e-11
-8.51431e-11
-8.51625e-11
-8.51822e-11
-8.52019e-11
-8.52218e-11
-8.52419e-11
-8.5262e-11
-8.52823e-11
-8.53028e-11
-8.53235e-11
-8.53442e-11
-8.53651e-11
-8.53863e-11
-8.54074e-11
-8.5429e-11
-8.54505e-11
-8.54723e-11
-8.54942e-11
-8.55164e-11
-8.55389e-11
-8.55613e-11
-8.55843e-11
-8.56073e-11
-8.56305e-11
-8.56541e-11
-8.56778e-11
-8.57019e-11
-8.57263e-11
-8.57507e-11
-8.57756e-11
-8.5801e-11
-8.58263e-11
-8.58522e-11
-8.58782e-11
-8.59047e-11
-8.59314e-11
-8.59587e-11
-8.59859e-11
-8.60139e-11
-8.6042e-11
-8.60704e-11
-8.60996e-11
-8.61287e-11
-8.61585e-11
-8.61886e-11
-8.62192e-11
-8.62501e-11
-8.62816e-11
-8.63135e-11
-8.63458e-11
-8.63784e-11
-8.64118e-11
-8.64456e-11
-8.64797e-11
-8.65145e-11
-8.65498e-11
-8.65858e-11
-8.66221e-11
-8.6659e-11
-8.66965e-11
-8.67347e-11
-8.67734e-11
-8.68128e-11
-8.68529e-11
-8.68936e-11
-8.6935e-11
-8.69771e-11
-8.70199e-11
-8.70635e-11
-8.71078e-11
-8.7153e-11
-8.7199e-11
-8.72458e-11
-8.72935e-11
-8.73421e-11
-8.73917e-11
-8.74423e-11
-8.74938e-11
-8.75464e-11
-8.76001e-11
-8.76549e-11
)
;
    }
    inandouthalf12
    {
        type            cyclic;
        value           nonuniform List<scalar> 
100
(
8.53238e-11
8.48475e-11
8.47847e-11
8.485e-11
8.48812e-11
8.48919e-11
8.49053e-11
8.49223e-11
8.49399e-11
8.49576e-11
8.49755e-11
8.49934e-11
8.50115e-11
8.50297e-11
8.50481e-11
8.50668e-11
8.50857e-11
8.51046e-11
8.51238e-11
8.51431e-11
8.51625e-11
8.51822e-11
8.52019e-11
8.52218e-11
8.52419e-11
8.5262e-11
8.52823e-11
8.53028e-11
8.53235e-11
8.53442e-11
8.53651e-11
8.53863e-11
8.54074e-11
8.5429e-11
8.54505e-11
8.54723e-11
8.54942e-11
8.55164e-11
8.55389e-11
8.55613e-11
8.55843e-11
8.56073e-11
8.56305e-11
8.56541e-11
8.56778e-11
8.57019e-11
8.57263e-11
8.57507e-11
8.57756e-11
8.5801e-11
8.58263e-11
8.58522e-11
8.58782e-11
8.59047e-11
8.59314e-11
8.59587e-11
8.59859e-11
8.60139e-11
8.6042e-11
8.60704e-11
8.60996e-11
8.61287e-11
8.61585e-11
8.61886e-11
8.62192e-11
8.62501e-11
8.62816e-11
8.63135e-11
8.63458e-11
8.63784e-11
8.64118e-11
8.64456e-11
8.64797e-11
8.65145e-11
8.65498e-11
8.65858e-11
8.66221e-11
8.6659e-11
8.66965e-11
8.67347e-11
8.67734e-11
8.68128e-11
8.68529e-11
8.68936e-11
8.6935e-11
8.69771e-11
8.70199e-11
8.70635e-11
8.71078e-11
8.7153e-11
8.7199e-11
8.72458e-11
8.72935e-11
8.73421e-11
8.73917e-11
8.74423e-11
8.74938e-11
8.75464e-11
8.76001e-11
8.76549e-11
)
;
    }
    inandouthalf21
    {
        type            cyclic;
        value           nonuniform List<scalar> 
100
(
-8.77109e-11
-8.7768e-11
-8.78265e-11
-8.78862e-11
-8.79473e-11
-8.80098e-11
-8.80738e-11
-8.81393e-11
-8.82064e-11
-8.82752e-11
-8.83457e-11
-8.8418e-11
-8.84922e-11
-8.85684e-11
-8.86466e-11
-8.8727e-11
-8.88097e-11
-8.88948e-11
-8.89824e-11
-8.90727e-11
-8.91658e-11
-8.92618e-11
-8.93611e-11
-8.94636e-11
-8.95696e-11
-8.96794e-11
-8.97931e-11
-8.99111e-11
-9.00338e-11
-9.01615e-11
-9.02944e-11
-9.0433e-11
-9.05779e-11
-9.0731e-11
-9.08943e-11
-9.10683e-11
-9.12525e-11
-9.14494e-11
-9.16675e-11
-9.19164e-11
-9.21851e-11
-9.25043e-11
-9.47086e-11
-9.43806e-11
-9.47857e-11
-9.56331e-11
-2.5376e-10
-3.33329e-08
-4.23444e-08
-4.08065e-08
-4.26612e-08
-4.623e-08
-5.09364e-08
-5.64539e-08
-6.25404e-08
-6.89984e-08
-7.56625e-08
-8.23948e-08
-8.90812e-08
-9.56285e-08
-1.01959e-07
-1.08005e-07
-1.13708e-07
-1.19013e-07
-1.23867e-07
-1.28219e-07
-1.32015e-07
-1.35203e-07
-1.37727e-07
-1.39528e-07
-1.40549e-07
-1.40729e-07
-1.40009e-07
-1.38332e-07
-1.3565e-07
-1.31925e-07
-1.27142e-07
-1.21316e-07
-1.14498e-07
-1.06779e-07
-9.82896e-08
-8.91976e-08
-7.96966e-08
-6.99958e-08
-6.03043e-08
-5.08151e-08
-4.1692e-08
-3.30603e-08
-2.5004e-08
-1.75673e-08
-1.07606e-08
-4.56805e-09
1.04464e-09
6.12292e-09
1.07177e-08
1.4881e-08
1.86633e-08
2.21115e-08
2.52684e-08
2.81718e-08
)
;
    }
    inandouthalf22
    {
        type            cyclic;
        value           nonuniform List<scalar> 
100
(
8.77109e-11
8.7768e-11
8.78265e-11
8.78862e-11
8.79473e-11
8.80098e-11
8.80738e-11
8.81393e-11
8.82064e-11
8.82752e-11
8.83457e-11
8.8418e-11
8.84922e-11
8.85684e-11
8.86466e-11
8.8727e-11
8.88097e-11
8.88948e-11
8.89824e-11
8.90727e-11
8.91658e-11
8.92618e-11
8.93611e-11
8.94636e-11
8.95696e-11
8.96794e-11
8.97931e-11
8.99111e-11
9.00338e-11
9.01615e-11
9.02944e-11
9.0433e-11
9.05779e-11
9.0731e-11
9.08943e-11
9.10683e-11
9.12525e-11
9.14494e-11
9.16675e-11
9.19164e-11
9.21851e-11
9.25043e-11
9.47086e-11
9.43806e-11
9.47857e-11
9.56331e-11
2.5376e-10
3.33329e-08
4.23444e-08
4.08065e-08
4.26612e-08
4.623e-08
5.09364e-08
5.64539e-08
6.25404e-08
6.89984e-08
7.56625e-08
8.23948e-08
8.90812e-08
9.56285e-08
1.01959e-07
1.08005e-07
1.13708e-07
1.19013e-07
1.23867e-07
1.28219e-07
1.32015e-07
1.35203e-07
1.37727e-07
1.39528e-07
1.40549e-07
1.40729e-07
1.40009e-07
1.38332e-07
1.3565e-07
1.31925e-07
1.27142e-07
1.21316e-07
1.14498e-07
1.06779e-07
9.82896e-08
8.91976e-08
7.96966e-08
6.99958e-08
6.03043e-08
5.08151e-08
4.1692e-08
3.30603e-08
2.5004e-08
1.75673e-08
1.07606e-08
4.56805e-09
-1.04464e-09
-6.12292e-09
-1.07177e-08
-1.4881e-08
-1.86633e-08
-2.21115e-08
-2.52684e-08
-2.81718e-08
)
;
    }
    inandouthalf31
    {
        type            cyclic;
        value           nonuniform List<scalar> 
110
(
3.08553e-08
3.40504e-08
3.72343e-08
4.04184e-08
4.36133e-08
4.68294e-08
5.00765e-08
5.33639e-08
5.67001e-08
6.00936e-08
6.35518e-08
6.70822e-08
7.06914e-08
7.43858e-08
7.81713e-08
8.20538e-08
8.60384e-08
9.01302e-08
9.4334e-08
9.86542e-08
1.03095e-07
1.07661e-07
1.12356e-07
1.17182e-07
1.22145e-07
1.27247e-07
1.3249e-07
1.37878e-07
1.43414e-07
1.49099e-07
1.54935e-07
1.60924e-07
1.67066e-07
1.73362e-07
1.79812e-07
1.86416e-07
1.9317e-07
2.00073e-07
2.07121e-07
2.14309e-07
2.21629e-07
2.29075e-07
2.36634e-07
2.44295e-07
2.52042e-07
2.59857e-07
2.67718e-07
2.75599e-07
2.83469e-07
2.91294e-07
2.99032e-07
3.06637e-07
3.14055e-07
3.21226e-07
3.28084e-07
3.34559e-07
3.40576e-07
3.46062e-07
3.50946e-07
3.55173e-07
3.58707e-07
3.61547e-07
3.63734e-07
3.65362e-07
3.66574e-07
3.67561e-07
3.68538e-07
3.69722e-07
3.71307e-07
3.73454e-07
3.76285e-07
3.79887e-07
3.84325e-07
3.89645e-07
3.95883e-07
4.03073e-07
4.1127e-07
4.20504e-07
4.32863e-07
4.45318e-07
4.54722e-07
4.63959e-07
4.73376e-07
4.82984e-07
4.92787e-07
5.0279e-07
5.12995e-07
5.23407e-07
5.34031e-07
5.44871e-07
5.5593e-07
5.67214e-07
5.78727e-07
5.90473e-07
6.02458e-07
6.14687e-07
6.27163e-07
6.39893e-07
6.52881e-07
6.66133e-07
6.79654e-07
6.93449e-07
7.07524e-07
7.21885e-07
7.36537e-07
7.51487e-07
7.6674e-07
7.82303e-07
7.98182e-07
8.14382e-07
)
;
    }
    inandouthalf32
    {
        type            cyclic;
        value           nonuniform List<scalar> 
110
(
-3.08553e-08
-3.40504e-08
-3.72343e-08
-4.04184e-08
-4.36133e-08
-4.68294e-08
-5.00765e-08
-5.33639e-08
-5.67001e-08
-6.00936e-08
-6.35518e-08
-6.70822e-08
-7.06914e-08
-7.43858e-08
-7.81713e-08
-8.20538e-08
-8.60384e-08
-9.01302e-08
-9.4334e-08
-9.86542e-08
-1.03095e-07
-1.07661e-07
-1.12356e-07
-1.17182e-07
-1.22145e-07
-1.27247e-07
-1.3249e-07
-1.37878e-07
-1.43414e-07
-1.49099e-07
-1.54935e-07
-1.60924e-07
-1.67066e-07
-1.73362e-07
-1.79812e-07
-1.86416e-07
-1.9317e-07
-2.00073e-07
-2.07121e-07
-2.14309e-07
-2.21629e-07
-2.29075e-07
-2.36634e-07
-2.44295e-07
-2.52042e-07
-2.59857e-07
-2.67718e-07
-2.75599e-07
-2.83469e-07
-2.91294e-07
-2.99032e-07
-3.06637e-07
-3.14055e-07
-3.21226e-07
-3.28084e-07
-3.34559e-07
-3.40576e-07
-3.46062e-07
-3.50946e-07
-3.55173e-07
-3.58707e-07
-3.61547e-07
-3.63734e-07
-3.65362e-07
-3.66574e-07
-3.67561e-07
-3.68538e-07
-3.69722e-07
-3.71307e-07
-3.73454e-07
-3.76285e-07
-3.79887e-07
-3.84325e-07
-3.89645e-07
-3.95883e-07
-4.03073e-07
-4.1127e-07
-4.20504e-07
-4.32863e-07
-4.45318e-07
-4.54722e-07
-4.63959e-07
-4.73376e-07
-4.82984e-07
-4.92787e-07
-5.0279e-07
-5.12995e-07
-5.23407e-07
-5.34031e-07
-5.44871e-07
-5.5593e-07
-5.67214e-07
-5.78727e-07
-5.90473e-07
-6.02458e-07
-6.14687e-07
-6.27163e-07
-6.39893e-07
-6.52881e-07
-6.66133e-07
-6.79654e-07
-6.93449e-07
-7.07524e-07
-7.21885e-07
-7.36537e-07
-7.51487e-07
-7.6674e-07
-7.82303e-07
-7.98182e-07
-8.14382e-07
)
;
    }
    inandouthalf41
    {
        type            cyclic;
        value           nonuniform List<scalar> 
50
(
7.28955e-07
7.28955e-07
7.28955e-07
7.28955e-07
7.28955e-07
7.28955e-07
7.28955e-07
7.28955e-07
7.28955e-07
7.28955e-07
7.28955e-07
7.28955e-07
7.28955e-07
7.28955e-07
7.28955e-07
7.28955e-07
7.28955e-07
7.28955e-07
7.28955e-07
7.28955e-07
7.28955e-07
7.28955e-07
7.28955e-07
7.28955e-07
7.28955e-07
7.28955e-07
7.28955e-07
7.28955e-07
7.28955e-07
7.28955e-07
7.28955e-07
7.28955e-07
7.28955e-07
7.28955e-07
7.28955e-07
7.28955e-07
7.28955e-07
7.28955e-07
7.28955e-07
7.28955e-07
7.28955e-07
7.28955e-07
7.28955e-07
7.28955e-07
7.28955e-07
7.28955e-07
7.28955e-07
7.28955e-07
7.28955e-07
7.28955e-07
)
;
    }
    inandouthalf42
    {
        type            cyclic;
        value           nonuniform List<scalar> 
50
(
-7.28955e-07
-7.28955e-07
-7.28955e-07
-7.28955e-07
-7.28955e-07
-7.28955e-07
-7.28955e-07
-7.28955e-07
-7.28955e-07
-7.28955e-07
-7.28955e-07
-7.28955e-07
-7.28955e-07
-7.28955e-07
-7.28955e-07
-7.28955e-07
-7.28955e-07
-7.28955e-07
-7.28955e-07
-7.28955e-07
-7.28955e-07
-7.28955e-07
-7.28955e-07
-7.28955e-07
-7.28955e-07
-7.28955e-07
-7.28955e-07
-7.28955e-07
-7.28955e-07
-7.28955e-07
-7.28955e-07
-7.28955e-07
-7.28955e-07
-7.28955e-07
-7.28955e-07
-7.28955e-07
-7.28955e-07
-7.28955e-07
-7.28955e-07
-7.28955e-07
-7.28955e-07
-7.28955e-07
-7.28955e-07
-7.28955e-07
-7.28955e-07
-7.28955e-07
-7.28955e-07
-7.28955e-07
-7.28955e-07
-7.28955e-07
)
;
    }
    top
    {
        type            symmetryPlane;
        value           uniform 0;
    }
    walls
    {
        type            calculated;
        value           uniform 0;
    }
    frontAndBackPlanes
    {
        type            empty;
        value           nonuniform 0();
    }
}


// ************************************************************************* //
