/*--------------------------------*- C++ -*----------------------------------*\
| =========                 |                                                 |
| \\      /  F ield         | OpenFOAM: The Open Source CFD Toolbox           |
|  \\    /   O peration     | Version:  2.4.x                                 |
|   \\  /    A nd           | Web:      www.OpenFOAM.org                      |
|    \\/     M anipulation  |                                                 |
\*---------------------------------------------------------------------------*/
FoamFile
{
    version     2.0;
    format      ascii;
    class       volScalarField;
    location    "12.1";
    object      ddt0(((1.5*(alpha+1e-08))*rho),Theta);
}
// * * * * * * * * * * * * * * * * * * * * * * * * * * * * * * * * * * * * * //

dimensions      [1 -1 -3 0 0 0 0];

internalField   nonuniform List<scalar> 
360
(
-7.88738e-24
-2.04201e-23
-1.55958e-23
-1.54567e-23
-1.76507e-23
-1.93871e-23
-2.05205e-23
-2.15903e-23
-2.27397e-23
-2.39173e-23
-2.50541e-23
-2.60865e-23
-2.6972e-23
-2.76847e-23
-2.82087e-23
-2.85327e-23
-2.86432e-23
-2.85309e-23
-2.81996e-23
-2.76583e-23
-2.69193e-23
-2.60066e-23
-2.49449e-23
-2.37582e-23
-2.24746e-23
-2.11213e-23
-1.97275e-23
-1.83222e-23
-1.69269e-23
-1.55618e-23
-1.42483e-23
-1.30007e-23
-1.18309e-23
-1.07493e-23
-9.76023e-24
-8.86611e-24
-8.06945e-24
-7.36985e-24
-6.76272e-24
-6.24369e-24
-5.80936e-24
-5.45253e-24
-5.16682e-24
-4.94715e-24
-4.78654e-24
-4.6783e-24
-4.6162e-24
-4.59393e-24
-4.60812e-24
-4.65341e-24
-4.72373e-24
-4.81571e-24
-4.92599e-24
-5.051e-24
-5.18802e-24
-5.33442e-24
-5.48768e-24
-5.64576e-24
-5.80611e-24
-5.96789e-24
-6.13119e-24
-6.29408e-24
-6.45556e-24
-6.6144e-24
-6.76903e-24
-6.9194e-24
-7.06583e-24
-7.20685e-24
-7.34017e-24
-7.46729e-24
-7.59137e-24
-7.70915e-24
-7.81813e-24
-7.92139e-24
-8.01989e-24
-8.11099e-24
-8.19233e-24
-8.26475e-24
-8.32999e-24
-8.38733e-24
-8.43623e-24
-8.47828e-24
-8.51427e-24
-8.54361e-24
-8.56597e-24
-8.58098e-24
-8.58798e-24
-8.58623e-24
-8.57568e-24
-8.5571e-24
-8.53107e-24
-8.49849e-24
-8.46016e-24
-8.4167e-24
-8.36822e-24
-8.31448e-24
-8.25559e-24
-8.1914e-24
-8.12219e-24
-8.04851e-24
-7.97106e-24
-7.89075e-24
-7.8084e-24
-7.72495e-24
-7.64102e-24
-7.55741e-24
-7.47493e-24
-7.39411e-24
-7.31554e-24
-7.23948e-24
-7.16628e-24
-7.09563e-24
-7.02714e-24
-6.95985e-24
-6.89246e-24
-6.82325e-24
-6.75017e-24
-6.67111e-24
-6.58434e-24
-6.48829e-24
-6.38276e-24
-6.2687e-24
-6.14879e-24
-6.02807e-24
-5.91397e-24
-5.81644e-24
-5.74745e-24
-5.71948e-24
-5.74301e-24
-5.82302e-24
-5.95373e-24
3.44147e-24
8.45828e-17
6.49473e-16
3.95609e-15
2.24957e-14
1.19698e-13
5.80722e-13
2.22464e-12
-1.13739e-12
-2.24378e-10
-5.3341e-09
-1.1928e-07
-3.37505e-06
-0.000269626
-0.013027
-0.171631
-0.860613
-0.78706
-0.546304
-0.457078
-0.39702
-0.336965
-0.274949
-0.214377
-0.158822
-0.110351
-0.0698232
-0.0370404
-0.0113279
0.00812885
0.0221892
0.0317443
0.0375875
0.0404785
0.0410879
0.0400014
0.0377154
0.0346439
0.0311219
0.0274144
0.0237218
0.0201869
0.0169034
0.0139312
0.0113131
0.00908256
0.00725178
0.00579904
0.00467148
0.00380335
0.00313262
0.00260905
0.00219482
0.00186249
0.00159226
0.00136986
0.00118486
0.00102954
0.00089809
0.000786069
0.000690037
0.000607286
0.00053566
0.000473424
0.000419164
0.000371719
0.000330124
0.000293576
0.000261402
0.000233028
0.000207717
0.000184927
0.000164431
0.00014602
0.000129504
0.000114708
0.000101471
8.96463e-05
7.90981e-05
6.97013e-05
6.13397e-05
5.3907e-05
4.73049e-05
4.14443e-05
3.62433e-05
3.16284e-05
2.75336e-05
2.39009e-05
2.06794e-05
1.78109e-05
1.5271e-05
1.30244e-05
1.1041e-05
9.29423e-06
7.76016e-06
6.41592e-06
5.23837e-06
4.20395e-06
3.29113e-06
2.48703e-06
1.79793e-06
1.25018e-06
8.58717e-07
5.82851e-07
3.48861e-07
0
0
0
0
0
0
0
0
0
0
0
0
0
0
0
0
0
0
0
0
0
0
0
0
0
0
0
0
0
0
0
0
0
0
0
0
0
0
0
0
0
0
0
0
0
0
0
0
0
0
0
0
0
0
0
0
0
0
0
0
0
0
0
0
0
0
0
0
0
0
0
0
0
0
0
0
0
0
0
0
0
0
0
0
0
0
0
0
0
0
0
0
0
0
0
0
0
0
0
0
0
0
0
0
0
0
0
0
0
0
0
0
0
0
0
0
0
0
0
0
0
0
0
0
)
;

boundaryField
{
    inandouthalf11
    {
        type            cyclic;
    }
    inandouthalf12
    {
        type            cyclic;
    }
    inandouthalf21
    {
        type            cyclic;
    }
    inandouthalf22
    {
        type            cyclic;
    }
    inandouthalf31
    {
        type            cyclic;
    }
    inandouthalf32
    {
        type            cyclic;
    }
    inandouthalf41
    {
        type            cyclic;
    }
    inandouthalf42
    {
        type            cyclic;
    }
    top
    {
        type            symmetryPlane;
    }
    walls
    {
        type            calculated;
        value           uniform -7.88738e-24;
    }
    frontAndBackPlanes
    {
        type            empty;
    }
}


// ************************************************************************* //
