/*--------------------------------*- C++ -*----------------------------------*\
| =========                 |                                                 |
| \\      /  F ield         | OpenFOAM: The Open Source CFD Toolbox           |
|  \\    /   O peration     | Version:  2.4.x                                 |
|   \\  /    A nd           | Web:      www.OpenFOAM.org                      |
|    \\/     M anipulation  |                                                 |
\*---------------------------------------------------------------------------*/
FoamFile
{
    version     2.0;
    format      ascii;
    class       volScalarField;
    location    "12.1";
    object      ddt0(epsilon);
}
// * * * * * * * * * * * * * * * * * * * * * * * * * * * * * * * * * * * * * //

dimensions      [0 2 -4 0 0 0 0];

internalField   nonuniform List<scalar> 
360
(
0
0
0
0
0
0
0
0
0
0
0
0
0
0
0
0
0
0
0
0
0
0
0
0
0
0
0
0
0
0
0
0
0
0
0
0
0
0
0
0
0
0
0
0
0
0
0
0
0
0
0
0
0
0
0
0
0
0
0
0
0
0
0
0
0
0
0
0
0
0
0
0
0
0
0
0
0
0
0
0
0
0
0
0
0
0
0
0
0
0
0
0
0
0
0
0
0
0
0
0
0
0
0
0
0
0
0
0
0
0
0
0
0
0
0
0
0
0
0
0
0
0
0
0
0
0
0
0
0
0
0
0
9.41749e-20
7.24845e-19
4.77348e-18
2.96892e-17
1.73366e-16
8.98962e-16
2.88547e-15
-2.92296e-14
-1.13341e-12
-2.8945e-11
-7.60619e-10
-2.24232e-08
-7.85419e-07
-3.34671e-05
-0.00156531
-0.0317388
-0.0580882
-0.0457838
-0.046829
-0.0486234
-0.0496862
-0.0496835
-0.0485924
-0.0464894
-0.0434972
-0.0397589
-0.0354206
-0.030627
-0.0255118
-0.0201943
-0.014781
-0.00936594
-0.00403355
0.00114018
0.00608585
0.0107395
0.0150417
0.0189374
0.022376
0.025312
0.0277061
0.0295272
0.0307547
0.0313809
0.0314151
0.0308852
0.02984
0.0283481
0.0264948
0.0243764
0.0220939
0.019745
0.0174169
0.0151811
0.0130902
0.0111778
0.00946033
0.00794029
0.00661004
0.00545547
0.00445907
0.00360212
0.00286629
0.0022345
0.00169144
0.00122369
0.000819726
0.000469723
0.000165413
-0.000102829
-0.000341901
-0.000555223
-0.000745786
-0.000916197
-0.00106872
-0.0012053
-0.00132761
-0.00143709
-0.00153497
-0.00162228
-0.00169992
-0.00176863
-0.00182904
-0.00188167
-0.00192696
-0.00196529
-0.00199694
-0.00202218
-0.00204119
-0.00205415
-0.00206119
-0.00206241
-0.00205791
-0.00204776
-0.00203202
-0.00201075
-0.00198401
-0.00195184
-0.00191431
-0.00187148
-0.00182345
-0.0017703
-0.00171215
-0.00164914
-0.00158144
-0.00150924
-0.00143278
-0.00135234
-0.00126823
-0.00118082
-0.00109054
-0.000997879
-0.000903384
-0.000807678
-0.000711452
-0.000615478
-0.0005206
-0.000427739
-0.000337887
-0.000252093
-0.000171451
-9.70759e-05
-3.00664e-05
2.85394e-05
7.78237e-05
0.000117063
0.000145811
0.00016399
0.000171971
0.000170629
0.000161347
0.000145951
0.000126556
0.000105345
8.43119e-05
6.50483e-05
4.86098e-05
3.54983e-05
2.57375e-05
1.89967e-05
1.47216e-05
1.22451e-05
1.08686e-05
9.90826e-06
8.71297e-06
6.7807e-06
2.5648e-06
1.82957e-07
3.07703e-09
4.05674e-11
5.01335e-13
5.82863e-15
6.37689e-17
6.54393e-19
0
0
0
0
0
0
0
0
0
0
0
0
0
0
0
0
0
0
0
0
0
0
0
0
0
0
0
0
0
0
0
0
0
0
0
0
0
0
0
0
0
0
0
0
0
0
0
0
0
0
0
0
0
0
0
0
0
0
0
0
0
0
0
0
0
0
0
0
0
0
0
0
0
0
)
;

boundaryField
{
    inandouthalf11
    {
        type            cyclic;
    }
    inandouthalf12
    {
        type            cyclic;
    }
    inandouthalf21
    {
        type            cyclic;
    }
    inandouthalf22
    {
        type            cyclic;
    }
    inandouthalf31
    {
        type            cyclic;
    }
    inandouthalf32
    {
        type            cyclic;
    }
    inandouthalf41
    {
        type            cyclic;
    }
    inandouthalf42
    {
        type            cyclic;
    }
    top
    {
        type            symmetryPlane;
    }
    walls
    {
        type            calculated;
        value           uniform 0;
    }
    frontAndBackPlanes
    {
        type            empty;
    }
}


// ************************************************************************* //
