/*--------------------------------*- C++ -*----------------------------------*\
| =========                 |                                                 |
| \\      /  F ield         | OpenFOAM: The Open Source CFD Toolbox           |
|  \\    /   O peration     | Version:  2.4.x                                 |
|   \\  /    A nd           | Web:      www.OpenFOAM.org                      |
|    \\/     M anipulation  |                                                 |
\*---------------------------------------------------------------------------*/
FoamFile
{
    version     2.0;
    format      ascii;
    class       surfaceScalarField;
    location    "12.1";
    object      ddt0(phia);
}
// * * * * * * * * * * * * * * * * * * * * * * * * * * * * * * * * * * * * * //

dimensions      [0 3 -2 0 0 0 0];

internalField   nonuniform List<scalar> 
359
(
6.55459e-15
1.6436e-14
2.59627e-14
3.55688e-14
4.58283e-14
5.66656e-14
6.79085e-14
7.9491e-14
9.13882e-14
1.03574e-13
1.16002e-13
1.28606e-13
1.41317e-13
1.54059e-13
1.66757e-13
1.79338e-13
1.91729e-13
2.03861e-13
2.15665e-13
2.27083e-13
2.38059e-13
2.48548e-13
2.58511e-13
2.6792e-13
2.76752e-13
2.84995e-13
2.92642e-13
2.99698e-13
3.06172e-13
3.12079e-13
3.1744e-13
3.22284e-13
3.26638e-13
3.30538e-13
3.34018e-13
3.37116e-13
3.3987e-13
3.42319e-13
3.44501e-13
3.46453e-13
3.48213e-13
3.49814e-13
3.51291e-13
3.52675e-13
3.53996e-13
3.5528e-13
3.56553e-13
3.57838e-13
3.59156e-13
3.60525e-13
3.61963e-13
3.63484e-13
3.65102e-13
3.66827e-13
3.68669e-13
3.70638e-13
3.72738e-13
3.74976e-13
3.77356e-13
3.7988e-13
3.82553e-13
3.85373e-13
3.88344e-13
3.91463e-13
3.9473e-13
3.98143e-13
4.017e-13
4.05399e-13
4.09235e-13
4.13205e-13
4.17305e-13
4.21534e-13
4.25882e-13
4.3035e-13
4.34929e-13
4.39618e-13
4.44409e-13
4.49296e-13
4.54273e-13
4.59336e-13
4.64478e-13
4.69694e-13
4.74978e-13
4.80326e-13
4.85732e-13
4.91191e-13
4.96697e-13
5.02242e-13
5.07823e-13
5.13431e-13
5.19062e-13
5.24711e-13
5.30372e-13
5.36042e-13
5.41715e-13
5.47387e-13
5.53054e-13
5.5871e-13
5.64352e-13
5.69976e-13
5.75577e-13
5.81152e-13
5.86699e-13
5.92215e-13
5.97699e-13
6.03149e-13
6.08564e-13
6.13944e-13
6.19288e-13
6.24599e-13
6.29874e-13
6.35116e-13
6.40324e-13
6.45496e-13
6.50632e-13
6.55729e-13
6.60781e-13
6.65783e-13
6.70728e-13
6.75606e-13
6.80411e-13
6.85135e-13
6.89772e-13
6.94321e-13
6.98788e-13
7.03184e-13
7.0753e-13
7.11857e-13
7.162e-13
7.20595e-13
7.25071e-13
7.29631e-13
7.34244e-13
7.38812e-13
7.43148e-13
7.46961e-13
7.49937e-13
7.51909e-13
7.5298e-13
7.53448e-13
7.53647e-13
7.5361e-13
7.54171e-13
7.54311e-13
7.54429e-13
7.5417e-13
-3.39201e-11
-2.38938e-09
-4.03333e-09
-4.93031e-09
-5.45633e-09
-5.8471e-09
-6.20069e-09
-6.59516e-09
-7.08392e-09
-7.64157e-09
-8.33928e-09
-9.38562e-09
-1.05398e-08
-1.18483e-08
-1.33089e-08
-1.48966e-08
-1.65744e-08
-1.8299e-08
-2.00146e-08
-2.16578e-08
-2.31488e-08
-2.43978e-08
-2.52974e-08
-2.57228e-08
-2.55127e-08
-2.44284e-08
-2.20992e-08
-1.80488e-08
-1.19466e-08
-4.02663e-09
4.7574e-09
1.31667e-08
2.0307e-08
2.58578e-08
2.99055e-08
3.27105e-08
3.45622e-08
3.57158e-08
3.6375e-08
3.66922e-08
3.67814e-08
3.67241e-08
3.65787e-08
3.63865e-08
3.61761e-08
3.59673e-08
3.57728e-08
3.5601e-08
3.54563e-08
3.53412e-08
3.52562e-08
3.52008e-08
3.51738e-08
3.51735e-08
3.5198e-08
3.52465e-08
3.53186e-08
3.54136e-08
3.55308e-08
3.56696e-08
3.58291e-08
3.60083e-08
3.62061e-08
3.64214e-08
3.66524e-08
3.68973e-08
3.71537e-08
3.74188e-08
3.76894e-08
3.79615e-08
3.82305e-08
3.84913e-08
3.87377e-08
3.89625e-08
3.91575e-08
3.93124e-08
3.94151e-08
3.9451e-08
3.93905e-08
3.93579e-08
3.91735e-08
3.86581e-08
3.79278e-08
3.69005e-08
3.55748e-08
3.40765e-08
3.26444e-08
3.15425e-08
3.08093e-08
2.97822e-08
2.52715e-08
2.12861e-08
1.84085e-08
1.57078e-08
1.31201e-08
1.0609e-08
8.15437e-09
5.73922e-09
3.36184e-09
9.75267e-10
-1.54576e-09
-3.64109e-09
-8.43584e-09
-1.02241e-08
-3.49763e-08
-1.18846e-07
-1.41818e-07
-1.80193e-08
-2.08975e-11
1.34492e-10
9.03592e-11
6.05247e-11
2.86115e-11
-2.9606e-12
-3.28318e-11
-5.93471e-11
-8.09364e-11
-9.77768e-11
-1.03187e-10
-5.27338e-11
-1.0153e-10
-1.39808e-10
-7.14581e-11
-5.80037e-11
-4.39621e-11
-3.19058e-11
-2.26153e-11
-1.65771e-11
-1.41706e-11
-1.61888e-11
-2.06422e-11
-6.39203e-11
-6.03924e-11
-1.67134e-11
-1.49301e-11
-1.51296e-11
-1.51341e-11
-1.5134e-11
-1.51341e-11
-1.5134e-11
-1.51341e-11
-1.5134e-11
-1.51341e-11
-1.5134e-11
-1.51341e-11
-1.51339e-11
-1.5134e-11
-1.51339e-11
-1.5134e-11
-1.51339e-11
-1.5134e-11
-1.51339e-11
-1.5134e-11
-1.51339e-11
-1.5134e-11
-1.51339e-11
-1.5134e-11
-1.51339e-11
-1.5134e-11
-1.51339e-11
-1.5134e-11
-1.5134e-11
-1.5134e-11
-1.5134e-11
-1.51341e-11
-1.51341e-11
-1.51342e-11
-1.51341e-11
-1.51342e-11
-1.51342e-11
-1.51343e-11
-1.51343e-11
-1.51344e-11
-1.51343e-11
-1.51345e-11
-1.51345e-11
-1.51346e-11
-1.51346e-11
-1.51347e-11
-1.51347e-11
-1.51349e-11
-1.51349e-11
-1.5136e-11
-1.51368e-11
-1.51379e-11
-1.51383e-11
-1.51395e-11
-1.51398e-11
-1.51403e-11
-1.51398e-11
-1.51412e-11
-1.51413e-11
-1.51416e-11
-1.51404e-11
-1.51405e-11
-1.51391e-11
-1.51378e-11
-1.51352e-11
-1.51348e-11
-1.51331e-11
-1.51316e-11
-1.51287e-11
-1.51266e-11
-1.51238e-11
-1.51208e-11
-1.51167e-11
-1.51128e-11
-1.51097e-11
-1.51058e-11
-1.51014e-11
-1.51095e-11
-1.5296e-11
-2.40427e-11
)
;

boundaryField
{
    inandouthalf11
    {
        type            cyclic;
        value           nonuniform List<scalar> 
100
(
-6.92066e-39
-1.02659e-15
-2.16705e-15
-3.23158e-15
-4.35714e-15
-5.56967e-15
-6.84074e-15
-8.15614e-15
-9.5144e-15
-1.09149e-14
-1.2355e-14
-1.38297e-14
-1.53328e-14
-1.68573e-14
-1.83958e-14
-1.99407e-14
-2.14847e-14
-2.30201e-14
-2.45393e-14
-2.60354e-14
-2.75015e-14
-2.89317e-14
-3.03206e-14
-3.16637e-14
-3.29571e-14
-3.41977e-14
-3.53835e-14
-3.65129e-14
-3.75854e-14
-3.8601e-14
-3.95604e-14
-4.04651e-14
-4.13169e-14
-4.2118e-14
-4.28713e-14
-4.35796e-14
-4.42461e-14
-4.48744e-14
-4.54678e-14
-4.603e-14
-4.65643e-14
-4.70744e-14
-4.75634e-14
-4.80349e-14
-4.84919e-14
-4.89374e-14
-4.93742e-14
-4.9805e-14
-5.02321e-14
-5.06579e-14
-5.10845e-14
-5.15138e-14
-5.19475e-14
-5.23871e-14
-5.28341e-14
-5.32897e-14
-5.3755e-14
-5.42309e-14
-5.47182e-14
-5.52176e-14
-5.57297e-14
-5.6255e-14
-5.67939e-14
-5.73467e-14
-5.79136e-14
-5.84947e-14
-5.909e-14
-5.96995e-14
-6.03231e-14
-6.09606e-14
-6.16118e-14
-6.22767e-14
-6.2955e-14
-6.36462e-14
-6.43502e-14
-6.50666e-14
-6.5795e-14
-6.65349e-14
-6.72857e-14
-6.8047e-14
-6.88183e-14
-6.95991e-14
-7.03889e-14
-7.11873e-14
-7.19939e-14
-7.28081e-14
-7.36295e-14
-7.44573e-14
-7.52911e-14
-7.613e-14
-7.69737e-14
-7.78214e-14
-7.86729e-14
-7.95275e-14
-8.03849e-14
-8.12447e-14
-8.21064e-14
-8.29695e-14
-8.38338e-14
-8.46986e-14
)
;
    }
    inandouthalf12
    {
        type            cyclic;
        value           nonuniform List<scalar> 
100
(
6.92066e-39
1.02659e-15
2.16705e-15
3.23158e-15
4.35714e-15
5.56967e-15
6.84074e-15
8.15614e-15
9.5144e-15
1.09149e-14
1.2355e-14
1.38297e-14
1.53328e-14
1.68573e-14
1.83958e-14
1.99407e-14
2.14847e-14
2.30201e-14
2.45393e-14
2.60354e-14
2.75015e-14
2.89317e-14
3.03206e-14
3.16637e-14
3.29571e-14
3.41977e-14
3.53835e-14
3.65129e-14
3.75854e-14
3.8601e-14
3.95604e-14
4.04651e-14
4.13169e-14
4.2118e-14
4.28713e-14
4.35796e-14
4.42461e-14
4.48744e-14
4.54678e-14
4.603e-14
4.65643e-14
4.70744e-14
4.75634e-14
4.80349e-14
4.84919e-14
4.89374e-14
4.93742e-14
4.9805e-14
5.02321e-14
5.06579e-14
5.10845e-14
5.15138e-14
5.19475e-14
5.23871e-14
5.28341e-14
5.32897e-14
5.3755e-14
5.42309e-14
5.47182e-14
5.52176e-14
5.57297e-14
5.6255e-14
5.67939e-14
5.73467e-14
5.79136e-14
5.84947e-14
5.909e-14
5.96995e-14
6.03231e-14
6.09606e-14
6.16118e-14
6.22767e-14
6.2955e-14
6.36462e-14
6.43502e-14
6.50666e-14
6.5795e-14
6.65349e-14
6.72857e-14
6.8047e-14
6.88183e-14
6.95991e-14
7.03889e-14
7.11873e-14
7.19939e-14
7.28081e-14
7.36295e-14
7.44573e-14
7.52911e-14
7.613e-14
7.69737e-14
7.78214e-14
7.86729e-14
7.95275e-14
8.03849e-14
8.12447e-14
8.21064e-14
8.29695e-14
8.38338e-14
8.46986e-14
)
;
    }
    inandouthalf21
    {
        type            cyclic;
        value           nonuniform List<scalar> 
100
(
-8.55638e-14
-8.64289e-14
-8.72937e-14
-8.81581e-14
-8.9022e-14
-8.98855e-14
-9.07487e-14
-9.16116e-14
-9.24747e-14
-9.33382e-14
-9.42025e-14
-9.50682e-14
-9.59357e-14
-9.68053e-14
-9.76773e-14
-9.85521e-14
-9.94294e-14
-1.00309e-13
-1.01191e-13
-1.02074e-13
-1.02957e-13
-1.03841e-13
-1.04723e-13
-1.05605e-13
-1.06488e-13
-1.07374e-13
-1.08268e-13
-1.09177e-13
-1.10109e-13
-1.11077e-13
-1.12092e-13
-1.13165e-13
-1.143e-13
-1.1549e-13
-1.16705e-13
-1.17881e-13
-1.18914e-13
-1.19704e-13
-1.20204e-13
-1.2046e-13
-1.20571e-13
-1.20633e-13
-1.20702e-13
-1.20827e-13
-1.20918e-13
-1.21016e-13
-1.21309e-13
-3.03161e-08
-4.16603e-08
-4.00019e-08
-4.1386e-08
-4.47258e-08
-4.93244e-08
-5.48028e-08
-6.08894e-08
-6.73578e-08
-7.40037e-08
-8.0647e-08
-8.71377e-08
-9.33473e-08
-9.9166e-08
-1.04498e-07
-1.09259e-07
-1.13373e-07
-1.16771e-07
-1.19395e-07
-1.21194e-07
-1.22131e-07
-1.22185e-07
-1.21352e-07
-1.19652e-07
-1.17129e-07
-1.13857e-07
-1.09946e-07
-1.05546e-07
-1.00841e-07
-9.60232e-08
-9.12526e-08
-8.66267e-08
-8.21822e-08
-7.79169e-08
-7.38127e-08
-6.98506e-08
-6.60163e-08
-6.2301e-08
-5.87006e-08
-5.5214e-08
-5.18417e-08
-4.85847e-08
-4.54438e-08
-4.24192e-08
-3.95106e-08
-3.67167e-08
-3.40359e-08
-3.1466e-08
-2.90043e-08
-2.6648e-08
-2.43943e-08
-2.22399e-08
-2.01821e-08
)
;
    }
    inandouthalf22
    {
        type            cyclic;
        value           nonuniform List<scalar> 
100
(
8.55638e-14
8.64289e-14
8.72937e-14
8.81581e-14
8.9022e-14
8.98855e-14
9.07487e-14
9.16116e-14
9.24747e-14
9.33382e-14
9.42025e-14
9.50682e-14
9.59357e-14
9.68053e-14
9.76773e-14
9.85521e-14
9.94294e-14
1.00309e-13
1.01191e-13
1.02074e-13
1.02957e-13
1.03841e-13
1.04723e-13
1.05605e-13
1.06488e-13
1.07374e-13
1.08268e-13
1.09177e-13
1.10109e-13
1.11077e-13
1.12092e-13
1.13165e-13
1.143e-13
1.1549e-13
1.16705e-13
1.17881e-13
1.18914e-13
1.19704e-13
1.20204e-13
1.2046e-13
1.20571e-13
1.20633e-13
1.20702e-13
1.20827e-13
1.20918e-13
1.21016e-13
1.21309e-13
3.03161e-08
4.16603e-08
4.00019e-08
4.1386e-08
4.47258e-08
4.93244e-08
5.48028e-08
6.08894e-08
6.73578e-08
7.40037e-08
8.0647e-08
8.71377e-08
9.33473e-08
9.9166e-08
1.04498e-07
1.09259e-07
1.13373e-07
1.16771e-07
1.19395e-07
1.21194e-07
1.22131e-07
1.22185e-07
1.21352e-07
1.19652e-07
1.17129e-07
1.13857e-07
1.09946e-07
1.05546e-07
1.00841e-07
9.60232e-08
9.12526e-08
8.66267e-08
8.21822e-08
7.79169e-08
7.38127e-08
6.98506e-08
6.60163e-08
6.2301e-08
5.87006e-08
5.5214e-08
5.18417e-08
4.85847e-08
4.54438e-08
4.24192e-08
3.95106e-08
3.67167e-08
3.40359e-08
3.1466e-08
2.90043e-08
2.6648e-08
2.43943e-08
2.22399e-08
2.01821e-08
)
;
    }
    inandouthalf31
    {
        type            cyclic;
        value           nonuniform List<scalar> 
110
(
-1.82178e-08
-1.66563e-08
-1.50784e-08
-1.34855e-08
-1.18788e-08
-1.02594e-08
-8.62857e-09
-6.98753e-09
-5.33739e-09
-3.67931e-09
-2.01438e-09
-3.43701e-10
1.33169e-09
3.01077e-09
4.69259e-09
6.37623e-09
8.06086e-09
9.74569e-09
1.14301e-08
1.31133e-08
1.4795e-08
1.64747e-08
1.81519e-08
1.98264e-08
2.14976e-08
2.31652e-08
2.47758e-08
2.64082e-08
2.80282e-08
2.96478e-08
3.12784e-08
3.29382e-08
3.464e-08
3.63721e-08
3.8077e-08
3.96658e-08
4.14405e-08
2.06291e-07
2.13247e-07
2.20554e-07
2.27987e-07
2.35552e-07
2.43236e-07
2.51029e-07
2.58914e-07
2.66884e-07
2.74841e-07
2.83219e-07
2.90509e-07
2.99351e-07
3.05934e-07
3.12932e-07
3.20352e-07
3.29765e-07
3.2974e-07
3.40008e-07
3.45668e-07
3.51129e-07
3.55954e-07
3.60122e-07
3.63601e-07
3.66399e-07
3.68567e-07
3.70218e-07
3.71677e-07
3.72215e-07
3.73673e-07
3.75168e-07
3.76844e-07
3.79231e-07
3.82316e-07
3.86182e-07
3.90889e-07
3.96479e-07
4.02987e-07
4.10449e-07
4.18922e-07
4.2848e-07
4.41455e-07
4.53462e-07
4.62957e-07
4.72358e-07
4.81946e-07
4.91728e-07
5.01709e-07
5.11893e-07
5.22283e-07
5.32884e-07
5.437e-07
5.54735e-07
5.65995e-07
5.77483e-07
5.89205e-07
6.01164e-07
6.13366e-07
6.25815e-07
6.38518e-07
6.51478e-07
6.64701e-07
6.78193e-07
6.91959e-07
7.06003e-07
7.20333e-07
7.34954e-07
7.49872e-07
7.65092e-07
7.80622e-07
7.96466e-07
8.12632e-07
8.29127e-07
)
;
    }
    inandouthalf32
    {
        type            cyclic;
        value           nonuniform List<scalar> 
110
(
1.82178e-08
1.66563e-08
1.50784e-08
1.34855e-08
1.18788e-08
1.02594e-08
8.62857e-09
6.98753e-09
5.33739e-09
3.67931e-09
2.01438e-09
3.43701e-10
-1.33169e-09
-3.01077e-09
-4.69259e-09
-6.37623e-09
-8.06086e-09
-9.74569e-09
-1.14301e-08
-1.31133e-08
-1.4795e-08
-1.64747e-08
-1.81519e-08
-1.98264e-08
-2.14976e-08
-2.31652e-08
-2.47758e-08
-2.64082e-08
-2.80282e-08
-2.96478e-08
-3.12784e-08
-3.29382e-08
-3.464e-08
-3.63721e-08
-3.8077e-08
-3.96658e-08
-4.14405e-08
-2.06291e-07
-2.13247e-07
-2.20554e-07
-2.27987e-07
-2.35552e-07
-2.43236e-07
-2.51029e-07
-2.58914e-07
-2.66884e-07
-2.74841e-07
-2.83219e-07
-2.90509e-07
-2.99351e-07
-3.05934e-07
-3.12932e-07
-3.20352e-07
-3.29765e-07
-3.2974e-07
-3.40008e-07
-3.45668e-07
-3.51129e-07
-3.55954e-07
-3.60122e-07
-3.63601e-07
-3.66399e-07
-3.68567e-07
-3.70218e-07
-3.71677e-07
-3.72215e-07
-3.73673e-07
-3.75168e-07
-3.76844e-07
-3.79231e-07
-3.82316e-07
-3.86182e-07
-3.90889e-07
-3.96479e-07
-4.02987e-07
-4.10449e-07
-4.18922e-07
-4.2848e-07
-4.41455e-07
-4.53462e-07
-4.62957e-07
-4.72358e-07
-4.81946e-07
-4.91728e-07
-5.01709e-07
-5.11893e-07
-5.22283e-07
-5.32884e-07
-5.437e-07
-5.54735e-07
-5.65995e-07
-5.77483e-07
-5.89205e-07
-6.01164e-07
-6.13366e-07
-6.25815e-07
-6.38518e-07
-6.51478e-07
-6.64701e-07
-6.78193e-07
-6.91959e-07
-7.06003e-07
-7.20333e-07
-7.34954e-07
-7.49872e-07
-7.65092e-07
-7.80622e-07
-7.96466e-07
-8.12632e-07
-8.29127e-07
)
;
    }
    inandouthalf41
    {
        type            cyclic;
        value           nonuniform List<scalar> 
50
(
7.42153e-07
7.42153e-07
7.42153e-07
7.42153e-07
7.42153e-07
7.42153e-07
7.42153e-07
7.42153e-07
7.42153e-07
7.42153e-07
7.42153e-07
7.42153e-07
7.42153e-07
7.42153e-07
7.42153e-07
7.42153e-07
7.42153e-07
7.42153e-07
7.42153e-07
7.42153e-07
7.42153e-07
7.42153e-07
7.42153e-07
7.42153e-07
7.42153e-07
7.42153e-07
7.42153e-07
7.42153e-07
7.42153e-07
7.42153e-07
7.42153e-07
7.42153e-07
7.42153e-07
7.42153e-07
7.42153e-07
7.42153e-07
7.42153e-07
7.42153e-07
7.42153e-07
7.42153e-07
7.42153e-07
7.42153e-07
7.42153e-07
7.42153e-07
7.42153e-07
7.42153e-07
7.42153e-07
7.42157e-07
7.42252e-07
7.44426e-07
)
;
    }
    inandouthalf42
    {
        type            cyclic;
        value           nonuniform List<scalar> 
50
(
-7.42153e-07
-7.42153e-07
-7.42153e-07
-7.42153e-07
-7.42153e-07
-7.42153e-07
-7.42153e-07
-7.42153e-07
-7.42153e-07
-7.42153e-07
-7.42153e-07
-7.42153e-07
-7.42153e-07
-7.42153e-07
-7.42153e-07
-7.42153e-07
-7.42153e-07
-7.42153e-07
-7.42153e-07
-7.42153e-07
-7.42153e-07
-7.42153e-07
-7.42153e-07
-7.42153e-07
-7.42153e-07
-7.42153e-07
-7.42153e-07
-7.42153e-07
-7.42153e-07
-7.42153e-07
-7.42153e-07
-7.42153e-07
-7.42153e-07
-7.42153e-07
-7.42153e-07
-7.42153e-07
-7.42153e-07
-7.42153e-07
-7.42153e-07
-7.42153e-07
-7.42153e-07
-7.42153e-07
-7.42153e-07
-7.42153e-07
-7.42153e-07
-7.42153e-07
-7.42153e-07
-7.42157e-07
-7.42252e-07
-7.44426e-07
)
;
    }
    top
    {
        type            symmetryPlane;
        value           uniform 0;
    }
    walls
    {
        type            calculated;
        value           uniform 0;
    }
    frontAndBackPlanes
    {
        type            empty;
        value           nonuniform 0();
    }
}


// ************************************************************************* //
