/*--------------------------------*- C++ -*----------------------------------*\
| =========                 |                                                 |
| \\      /  F ield         | OpenFOAM: The Open Source CFD Toolbox           |
|  \\    /   O peration     | Version:  2.4.x                                 |
|   \\  /    A nd           | Web:      www.OpenFOAM.org                      |
|    \\/     M anipulation  |                                                 |
\*---------------------------------------------------------------------------*/
FoamFile
{
    version     2.0;
    format      ascii;
    class       volScalarField;
    location    "12.1";
    object      epsilon_0;
}
// * * * * * * * * * * * * * * * * * * * * * * * * * * * * * * * * * * * * * //

dimensions      [0 2 -3 0 0 0 0];

internalField   nonuniform List<scalar> 
360
(
1.60309e-27
1e-20
1e-20
1e-20
1e-20
1e-20
1e-20
1e-20
1e-20
1e-20
1e-20
1e-20
1e-20
1e-20
1e-20
1e-20
1e-20
1e-20
1e-20
1e-20
1e-20
1e-20
1e-20
1e-20
1e-20
1e-20
1e-20
1e-20
1e-20
1e-20
1e-20
1e-20
1e-20
1e-20
1e-20
1e-20
1e-20
1e-20
1e-20
1e-20
1e-20
1e-20
1e-20
1e-20
1e-20
1e-20
1e-20
1e-20
1e-20
1e-20
1e-20
1e-20
1e-20
1e-20
1e-20
1e-20
1e-20
1e-20
1e-20
1e-20
1e-20
1e-20
1e-20
1e-20
1e-20
1e-20
1e-20
1e-20
1e-20
1e-20
1e-20
1e-20
1e-20
1e-20
1e-20
1e-20
1e-20
1e-20
1e-20
1e-20
1e-20
1e-20
1e-20
1e-20
1e-20
1e-20
1e-20
1e-20
1e-20
1e-20
1e-20
1e-20
1e-20
1e-20
1e-20
1e-20
1e-20
1e-20
1e-20
1e-20
1e-20
1e-20
1e-20
1e-20
1e-20
1e-20
1e-20
1e-20
1e-20
1e-20
1e-20
1e-20
1e-20
1e-20
1e-20
1e-20
1e-20
1e-20
1e-20
1e-20
1e-20
1e-20
1e-20
1e-20
1e-20
1e-20
1e-20
1e-20
1e-20
1e-20
1e-20
1e-20
2.11323e-20
1.4951e-19
1.25118e-18
1.09448e-17
1.01115e-16
1.00988e-15
1.12057e-14
1.41903e-13
2.09946e-12
3.70074e-11
7.89288e-10
2.01428e-08
6.33136e-07
2.48128e-05
0.00114135
0.0317962
0.160794
0.207449
0.211594
0.202703
0.189508
0.175204
0.16113
0.147843
0.135544
0.124266
0.113964
0.104558
0.0959582
0.0880776
0.0808342
0.0741559
0.0679797
0.0622522
0.0569282
0.0519701
0.047347
0.0430337
0.0390099
0.0352596
0.03177
0.0285316
0.0255367
0.022779
0.0202533
0.0179542
0.0158759
0.0140112
0.0123513
0.0108858
0.00960214
0.00848626
0.00752296
0.00669638
0.0059906
0.00539023
0.00488084
0.00444927
0.00408378
0.00377411
0.00351146
0.00328835
0.00309845
0.0029365
0.00279809
0.00267957
0.0025779
0.00249053
0.00241535
0.00234994
0.00229259
0.00224243
0.00219872
0.00216074
0.0021279
0.00209964
0.00207545
0.00205486
0.00203747
0.00202289
0.00201074
0.00200071
0.00199246
0.00198571
0.00198017
0.00197555
0.00197161
0.00196809
0.00196474
0.00196131
0.00195758
0.00195331
0.00194829
0.00194227
0.00193506
0.00192644
0.0019162
0.00190414
0.00189007
0.00187379
0.00185514
0.00183395
0.00181005
0.0017833
0.00175358
0.00172076
0.00168475
0.00164549
0.00160292
0.00155703
0.00150781
0.00145532
0.00139963
0.00134086
0.00127919
0.00121482
0.00114802
0.00107912
0.0010085
0.000936607
0.000863936
0.000791055
0.000718582
0.000647184
0.000577563
0.000510439
0.000446525
0.000386497
0.000330962
0.000280411
0.000235188
0.000195451
0.000161156
0.000132059
0.000107735
8.76269e-05
7.1104e-05
5.75197e-05
4.62662e-05
3.68139e-05
2.87368e-05
2.17254e-05
1.55916e-05
1.02678e-05
5.80529e-06
2.37648e-06
4.24487e-07
1.79432e-08
2.70062e-10
3.4737e-12
4.19747e-14
4.77349e-16
5.117e-18
5.92591e-20
1e-20
1e-20
1e-20
1e-20
1e-20
1e-20
1e-20
1e-20
1e-20
1e-20
1e-20
1e-20
1e-20
1e-20
1e-20
1e-20
1e-20
1e-20
1e-20
1e-20
1e-20
1e-20
1e-20
1e-20
1e-20
1e-20
1e-20
1e-20
1e-20
1e-20
1e-20
1e-20
1e-20
1e-20
1e-20
1e-20
1e-20
1e-20
1e-20
1e-20
1e-20
1e-20
1e-20
1e-20
1e-20
1e-20
1e-20
1e-20
1e-20
1e-20
1e-20
1e-20
1e-20
1e-20
1e-20
1e-20
1e-20
1e-20
1e-20
1e-20
1e-20
1e-20
1e-20
1e-20
1e-20
1e-20
1e-20
1e-20
1e-20
1e-20
1e-20
1e-20
1e-20
1e-20
)
;

boundaryField
{
    inandouthalf11
    {
        type            cyclic;
    }
    inandouthalf12
    {
        type            cyclic;
    }
    inandouthalf21
    {
        type            cyclic;
    }
    inandouthalf22
    {
        type            cyclic;
    }
    inandouthalf31
    {
        type            cyclic;
    }
    inandouthalf32
    {
        type            cyclic;
    }
    inandouthalf41
    {
        type            cyclic;
    }
    inandouthalf42
    {
        type            cyclic;
    }
    top
    {
        type            symmetryPlane;
    }
    walls
    {
        type            zeroGradient;
    }
    frontAndBackPlanes
    {
        type            empty;
    }
}


// ************************************************************************* //
