/*--------------------------------*- C++ -*----------------------------------*\
| =========                 |                                                 |
| \\      /  F ield         | OpenFOAM: The Open Source CFD Toolbox           |
|  \\    /   O peration     | Version:  2.4.x                                 |
|   \\  /    A nd           | Web:      www.OpenFOAM.org                      |
|    \\/     M anipulation  |                                                 |
\*---------------------------------------------------------------------------*/
FoamFile
{
    version     2.0;
    format      ascii;
    class       volScalarField;
    location    "12.1";
    object      epsilon;
}
// * * * * * * * * * * * * * * * * * * * * * * * * * * * * * * * * * * * * * //

dimensions      [0 2 -3 0 0 0 0];

internalField   nonuniform List<scalar> 
360
(
1e-20
1e-20
1e-20
1e-20
1e-20
1e-20
1e-20
1e-20
1e-20
1e-20
1e-20
1e-20
1e-20
1e-20
1e-20
1e-20
1e-20
1e-20
1e-20
1e-20
1e-20
1e-20
1e-20
1e-20
1e-20
1e-20
1e-20
1e-20
1e-20
1e-20
1e-20
1e-20
1e-20
1e-20
1e-20
1e-20
1e-20
1e-20
1e-20
1e-20
1e-20
1e-20
1e-20
1e-20
1e-20
1e-20
1e-20
1e-20
1e-20
1e-20
1e-20
1e-20
1e-20
1e-20
1e-20
1e-20
1e-20
1e-20
1e-20
1e-20
1e-20
1e-20
1e-20
1e-20
1e-20
1e-20
1e-20
1e-20
1e-20
1e-20
1e-20
1e-20
1e-20
1e-20
1e-20
1e-20
1e-20
1e-20
1e-20
1e-20
1e-20
1e-20
1e-20
1e-20
1e-20
1e-20
1e-20
1e-20
1e-20
1e-20
1e-20
1e-20
1e-20
1e-20
1e-20
1e-20
1e-20
1e-20
1e-20
1e-20
1e-20
1e-20
1e-20
1e-20
1e-20
1e-20
1e-20
1e-20
1e-20
1e-20
1e-20
1e-20
1e-20
1e-20
1e-20
1e-20
1e-20
1e-20
1e-20
1e-20
1e-20
1e-20
1e-20
1e-20
1e-20
1e-20
1e-20
1e-20
1e-20
1e-20
1e-20
1e-20
2.11511e-20
1.49655e-19
1.25213e-18
1.09507e-17
1.01149e-16
1.01006e-15
1.12063e-14
1.41898e-13
2.09924e-12
3.70016e-11
7.89136e-10
2.01384e-08
6.3298e-07
2.48061e-05
0.00114104
0.0317899
0.160782
0.20744
0.211585
0.202693
0.189498
0.175194
0.161121
0.147834
0.135536
0.124258
0.113957
0.104551
0.0959531
0.0880735
0.0808313
0.074154
0.0679789
0.0622524
0.0569294
0.0519723
0.04735
0.0430375
0.0390144
0.0352646
0.0317756
0.0285375
0.0255428
0.0227852
0.0202595
0.0179603
0.0158818
0.0140168
0.0123566
0.0108907
0.00960654
0.0084902
0.00752643
0.0066994
0.0059932
0.00539246
0.00488273
0.00445085
0.00408509
0.0037752
0.00351235
0.00328906
0.00309902
0.00293694
0.00279843
0.00267982
0.00257806
0.00249062
0.00241538
0.00234992
0.00229252
0.00224232
0.00219857
0.00216056
0.00212769
0.0020994
0.00207518
0.00205458
0.00203717
0.00202256
0.00201041
0.00200036
0.0019921
0.00198534
0.00197978
0.00197516
0.00197122
0.00196769
0.00196433
0.0019609
0.00195717
0.0019529
0.00194788
0.00194187
0.00193466
0.00192604
0.0019158
0.00190375
0.00188968
0.00187342
0.00185478
0.0018336
0.00180971
0.00178297
0.00175326
0.00172046
0.00168447
0.00164522
0.00160267
0.00155679
0.00150759
0.00145512
0.00139945
0.0013407
0.00127905
0.0012147
0.00114792
0.00107904
0.00100844
0.000936557
0.000863902
0.000791035
0.000718576
0.00064719
0.000577579
0.000510463
0.000446554
0.00038653
0.000330996
0.000280445
0.00023522
0.00019548
0.000161182
0.00013208
0.000107751
8.76399e-05
7.11137e-05
5.75268e-05
4.62713e-05
3.68177e-05
2.87397e-05
2.17279e-05
1.55937e-05
1.02698e-05
5.80703e-06
2.37783e-06
4.24998e-07
1.79797e-08
2.70676e-10
3.4818e-12
4.20747e-14
4.78512e-16
5.12972e-18
5.93897e-20
1e-20
1e-20
1e-20
1e-20
1e-20
1e-20
1e-20
1e-20
1e-20
1e-20
1e-20
1e-20
1e-20
1e-20
1e-20
1e-20
1e-20
1e-20
1e-20
1e-20
1e-20
1e-20
1e-20
1e-20
1e-20
1e-20
1e-20
1e-20
1e-20
1e-20
1e-20
1e-20
1e-20
1e-20
1e-20
1e-20
1e-20
1e-20
1e-20
1e-20
1e-20
1e-20
1e-20
1e-20
1e-20
1e-20
1e-20
1e-20
1e-20
1e-20
1e-20
1e-20
1e-20
1e-20
1e-20
1e-20
1e-20
1e-20
1e-20
1e-20
1e-20
1e-20
1e-20
1e-20
1e-20
1e-20
1e-20
1e-20
1e-20
1e-20
1e-20
1e-20
1e-20
1e-20
)
;

boundaryField
{
    inandouthalf11
    {
        type            cyclic;
    }
    inandouthalf12
    {
        type            cyclic;
    }
    inandouthalf21
    {
        type            cyclic;
    }
    inandouthalf22
    {
        type            cyclic;
    }
    inandouthalf31
    {
        type            cyclic;
    }
    inandouthalf32
    {
        type            cyclic;
    }
    inandouthalf41
    {
        type            cyclic;
    }
    inandouthalf42
    {
        type            cyclic;
    }
    top
    {
        type            symmetryPlane;
    }
    walls
    {
        type            zeroGradient;
    }
    frontAndBackPlanes
    {
        type            empty;
    }
}


// ************************************************************************* //
