/*--------------------------------*- C++ -*----------------------------------*\
| =========                 |                                                 |
| \\      /  F ield         | OpenFOAM: The Open Source CFD Toolbox           |
|  \\    /   O peration     | Version:  2.4.x                                 |
|   \\  /    A nd           | Web:      www.OpenFOAM.org                      |
|    \\/     M anipulation  |                                                 |
\*---------------------------------------------------------------------------*/
FoamFile
{
    version     2.0;
    format      ascii;
    class       volScalarField;
    location    "12.1";
    object      mua;
}
// * * * * * * * * * * * * * * * * * * * * * * * * * * * * * * * * * * * * * //

dimensions      [1 -1 -1 0 0 0 0];

internalField   nonuniform List<scalar> 
360
(
6.26215e+07
4.4422e+07
5.37898e+07
5.33743e+07
4.92016e+07
4.66602e+07
4.50596e+07
4.35108e+07
4.18967e+07
4.02914e+07
3.87595e+07
3.73432e+07
3.6051e+07
3.48798e+07
3.38206e+07
3.2865e+07
3.20101e+07
3.12541e+07
3.059e+07
3.00105e+07
2.95142e+07
2.90902e+07
2.87341e+07
2.84422e+07
2.82095e+07
2.8033e+07
2.7908e+07
2.78271e+07
2.77902e+07
2.77952e+07
2.78357e+07
2.79084e+07
2.80145e+07
2.81421e+07
2.82974e+07
2.84748e+07
2.86716e+07
2.88797e+07
2.91007e+07
2.93388e+07
2.95765e+07
2.9823e+07
3.00773e+07
3.03243e+07
3.05714e+07
3.08137e+07
3.10525e+07
3.12928e+07
3.15144e+07
3.17184e+07
3.19209e+07
3.21078e+07
3.22787e+07
3.24338e+07
3.25753e+07
3.26938e+07
3.28009e+07
3.28869e+07
3.29613e+07
3.30217e+07
3.30529e+07
3.30694e+07
3.30637e+07
3.30435e+07
3.30092e+07
3.29605e+07
3.28927e+07
3.2811e+07
3.27232e+07
3.26247e+07
3.24998e+07
3.23622e+07
3.22244e+07
3.20681e+07
3.18975e+07
3.17167e+07
3.15371e+07
3.13533e+07
3.1161e+07
3.09634e+07
3.07633e+07
3.05552e+07
3.03388e+07
3.01166e+07
2.98895e+07
2.96594e+07
2.9428e+07
2.91986e+07
2.89713e+07
2.87446e+07
2.85181e+07
2.82904e+07
2.80596e+07
2.78252e+07
2.75878e+07
2.7348e+07
2.71068e+07
2.68647e+07
2.66218e+07
2.63774e+07
2.61304e+07
2.58794e+07
2.56228e+07
2.53592e+07
2.50874e+07
2.4806e+07
2.4514e+07
2.42101e+07
2.38933e+07
2.35629e+07
2.32182e+07
2.28595e+07
2.24876e+07
2.21041e+07
2.17115e+07
2.13133e+07
2.09136e+07
2.0517e+07
2.01284e+07
1.97521e+07
1.93912e+07
1.90466e+07
1.87157e+07
1.83906e+07
1.80558e+07
1.76867e+07
1.72506e+07
1.6712e+07
1.60443e+07
1.5244e+07
1.43405e+07
1.33953e+07
1.24971e+07
1.1776e+07
1.14455e+07
1.18696e+07
1.37146e+07
1.84516e+07
2.99943e+07
5.95249e+07
1.26527e+08
1.41536e+08
3.40866e+07
3.73604e+07
6.31582e+07
3.59126e+07
0.120295
0.0186922
0.0114983
0.00953206
0.00831892
0.00745945
0.00685687
0.00644336
0.00616835
0.00599099
0.00587881
0.00580727
0.00575879
0.00572148
0.00568771
0.00565287
0.00561435
0.00557089
0.00552208
0.00546803
0.00540922
0.0053463
0.00528007
0.00521141
0.0051412
0.00507032
0.00499962
0.00492982
0.00486155
0.00479527
0.00473126
0.00466963
0.00461036
0.0045534
0.00449864
0.00444599
0.00439537
0.0043467
0.0042999
0.00425488
0.00421157
0.00416989
0.00412973
0.00409101
0.00405364
0.00401752
0.00398256
0.00394865
0.00391572
0.00388367
0.00385242
0.00382188
0.00379196
0.0037626
0.00373371
0.00370494
0.00367594
0.00364665
0.00361699
0.0035869
0.00355629
0.00352509
0.0034932
0.00346054
0.00342698
0.00339244
0.00335678
0.0033199
0.00328164
0.00324187
0.00320042
0.00315712
0.00311177
0.00306414
0.003014
0.00296106
0.00290498
0.00284539
0.00278182
0.00271372
0.00264042
0.00256105
0.00247451
0.00237933
0.0022735
0.00215409
0.00201662
0.00185355
0.00165036
0.00137136
0
0
0
0
0
0
0
0
0
0
0
0
0
0
0
0
0
0
0
0
0
0
0
0
0
0
0
0
0
0
0
0
0
0
0
0
0
0
0
0
0
0
0
0
0
0
0
0
0
0
0
0
0
0
0
0
0
0
0
0
0
0
0
0
0
0
0
0
0
0
0
0
0
0
0
0
0
0
0
0
0
0
0
0
0
0
0
0
0
0
0
0
0
0
0
0
0
0
0
0
0
0
0
0
0
0
0
0
0
0
0
0
0
0
0
0
0
0
0
0
0
0
0
0
)
;

boundaryField
{
    inandouthalf11
    {
        type            cyclic;
    }
    inandouthalf12
    {
        type            cyclic;
    }
    inandouthalf21
    {
        type            cyclic;
    }
    inandouthalf22
    {
        type            cyclic;
    }
    inandouthalf31
    {
        type            cyclic;
    }
    inandouthalf32
    {
        type            cyclic;
    }
    inandouthalf41
    {
        type            cyclic;
    }
    inandouthalf42
    {
        type            cyclic;
    }
    top
    {
        type            symmetryPlane;
    }
    walls
    {
        type            calculated;
        value           uniform 1e+30;
    }
    frontAndBackPlanes
    {
        type            empty;
    }
}


// ************************************************************************* //
