/*--------------------------------*- C++ -*----------------------------------*\
| =========                 |                                                 |
| \\      /  F ield         | OpenFOAM: The Open Source CFD Toolbox           |
|  \\    /   O peration     | Version:  2.4.x                                 |
|   \\  /    A nd           | Web:      www.OpenFOAM.org                      |
|    \\/     M anipulation  |                                                 |
\*---------------------------------------------------------------------------*/
FoamFile
{
    version     2.0;
    format      ascii;
    class       surfaceScalarField;
    location    "12.1";
    object      phia;
}
// * * * * * * * * * * * * * * * * * * * * * * * * * * * * * * * * * * * * * //

dimensions      [0 3 -1 0 0 0 0];

internalField   nonuniform List<scalar> 
359
(
-5.80995e-15
-1.45193e-14
-2.26876e-14
-3.07043e-14
-3.91293e-14
-4.7942e-14
-5.70359e-14
-6.63977e-14
-7.60508e-14
-8.6019e-14
-9.63099e-14
-1.06916e-13
-1.17827e-13
-1.29024e-13
-1.40489e-13
-1.52203e-13
-1.64143e-13
-1.76283e-13
-1.88594e-13
-2.0105e-13
-2.1362e-13
-2.26277e-13
-2.38993e-13
-2.5174e-13
-2.64492e-13
-2.77224e-13
-2.89912e-13
-3.02535e-13
-3.15072e-13
-3.27505e-13
-3.39818e-13
-3.51997e-13
-3.64027e-13
-3.75904e-13
-3.87612e-13
-3.99148e-13
-4.10505e-13
-4.21681e-13
-4.32675e-13
-4.4348e-13
-4.54102e-13
-4.64541e-13
-4.74794e-13
-4.84871e-13
-4.94771e-13
-5.045e-13
-5.14062e-13
-5.23458e-13
-5.32696e-13
-5.41784e-13
-5.50723e-13
-5.59521e-13
-5.68182e-13
-5.76714e-13
-5.85118e-13
-5.93405e-13
-6.01575e-13
-6.09636e-13
-6.17591e-13
-6.25443e-13
-6.33201e-13
-6.40866e-13
-6.48445e-13
-6.5594e-13
-6.63356e-13
-6.70694e-13
-6.77958e-13
-6.85152e-13
-6.92276e-13
-6.99332e-13
-7.06326e-13
-7.1326e-13
-7.20132e-13
-7.26948e-13
-7.33707e-13
-7.40414e-13
-7.47065e-13
-7.53663e-13
-7.60207e-13
-7.66699e-13
-7.73138e-13
-7.79525e-13
-7.85861e-13
-7.92147e-13
-7.98382e-13
-8.04567e-13
-8.10701e-13
-8.16783e-13
-8.22811e-13
-8.28785e-13
-8.34703e-13
-8.40565e-13
-8.46371e-13
-8.5212e-13
-8.57813e-13
-8.63448e-13
-8.69024e-13
-8.74542e-13
-8.79999e-13
-8.85396e-13
-8.90731e-13
-8.96004e-13
-9.01216e-13
-9.06366e-13
-9.11454e-13
-9.16482e-13
-9.2145e-13
-9.26358e-13
-9.31209e-13
-9.36003e-13
-9.40742e-13
-9.45426e-13
-9.50058e-13
-9.54637e-13
-9.59163e-13
-9.63637e-13
-9.68055e-13
-9.72416e-13
-9.76716e-13
-9.80948e-13
-9.85109e-13
-9.8919e-13
-9.93186e-13
-9.97094e-13
-1.00091e-12
-1.00464e-12
-1.00829e-12
-1.01189e-12
-1.01545e-12
-1.019e-12
-1.02256e-12
-1.02616e-12
-1.02977e-12
-1.03335e-12
-1.03677e-12
-1.03982e-12
-1.04224e-12
-1.04388e-12
-1.04478e-12
-1.04517e-12
-1.04534e-12
-1.04532e-12
-1.04589e-12
-1.04608e-12
-1.0462e-12
-1.0461e-12
-1.05639e-11
-3.53639e-10
-5.60171e-10
-6.6936e-10
-7.27374e-10
-7.47964e-10
-7.23848e-10
-6.44424e-10
-4.98693e-10
-2.76921e-10
2.80101e-11
4.18658e-10
8.97303e-10
1.46237e-09
2.11027e-09
2.8357e-09
3.63179e-09
4.49008e-09
5.40046e-09
6.35105e-09
7.32789e-09
8.31464e-09
9.29206e-09
1.02375e-08
1.11235e-08
1.1915e-08
1.25623e-08
1.29944e-08
1.31213e-08
1.28587e-08
1.21682e-08
1.10816e-08
9.68708e-09
8.09337e-09
6.40011e-09
4.68525e-09
3.00387e-09
1.3919e-09
-1.29075e-10
-1.54761e-09
-2.85911e-09
-4.06348e-09
-5.16351e-09
-6.16375e-09
-7.06975e-09
-7.88759e-09
-8.6235e-09
-9.2837e-09
-9.87424e-09
-1.04009e-08
-1.08693e-08
-1.12845e-08
-1.16514e-08
-1.19748e-08
-1.22587e-08
-1.25121e-08
-1.27368e-08
-1.29351e-08
-1.31091e-08
-1.32611e-08
-1.33933e-08
-1.35077e-08
-1.36065e-08
-1.36916e-08
-1.37648e-08
-1.38276e-08
-1.38813e-08
-1.39273e-08
-1.39665e-08
-1.39997e-08
-1.40276e-08
-1.40507e-08
-1.40694e-08
-1.40839e-08
-1.40942e-08
-1.41e-08
-1.41007e-08
-1.40953e-08
-1.4082e-08
-1.40588e-08
-1.40228e-08
-1.39715e-08
-1.39045e-08
-1.38266e-08
-1.37513e-08
-1.37058e-08
-1.37231e-08
-1.37967e-08
-1.38556e-08
-1.38715e-08
-1.44669e-08
-1.49269e-08
-1.53537e-08
-1.56189e-08
-1.57256e-08
-1.56784e-08
-1.54832e-08
-1.51481e-08
-1.46847e-08
-1.4109e-08
-1.34404e-08
-1.27056e-08
-1.20474e-08
-1.11982e-08
-1.14703e-08
-2.29922e-08
-1.13971e-07
-1.57415e-07
-1.58724e-07
-1.58467e-07
-1.58477e-07
-1.58467e-07
-1.58456e-07
-1.58442e-07
-1.58426e-07
-1.58409e-07
-1.5839e-07
-1.58371e-07
-1.58352e-07
-1.58335e-07
-1.58319e-07
-1.58304e-07
-1.58292e-07
-1.58282e-07
-1.58274e-07
-1.58267e-07
-1.58262e-07
-1.58258e-07
-1.58254e-07
-1.58249e-07
-1.58242e-07
-1.5823e-07
-1.58206e-07
-1.58198e-07
-1.58199e-07
-1.58199e-07
-1.58199e-07
-1.58199e-07
-1.58199e-07
-1.58199e-07
-1.58199e-07
-1.58199e-07
-1.58199e-07
-1.58199e-07
-1.58199e-07
-1.58199e-07
-1.58199e-07
-1.58199e-07
-1.58199e-07
-1.58199e-07
-1.58199e-07
-1.58199e-07
-1.58199e-07
-1.58199e-07
-1.58199e-07
-1.58199e-07
-1.58199e-07
-1.58199e-07
-1.58199e-07
-1.58199e-07
-1.58199e-07
-1.58199e-07
-1.58199e-07
-1.58199e-07
-1.58199e-07
-1.58199e-07
-1.58199e-07
-1.58199e-07
-1.58199e-07
-1.58199e-07
-1.58199e-07
-1.58199e-07
-1.58199e-07
-1.58199e-07
-1.58199e-07
-1.58199e-07
-1.58199e-07
-1.58199e-07
-1.58199e-07
-1.58199e-07
-1.58199e-07
-1.58199e-07
-1.58199e-07
-1.58199e-07
-1.58199e-07
-1.58199e-07
-1.58199e-07
-1.58199e-07
-1.58199e-07
-1.58199e-07
-1.58199e-07
-1.58199e-07
-1.58199e-07
-1.58199e-07
-1.58199e-07
-1.58199e-07
-1.58199e-07
-1.58199e-07
-1.58199e-07
-1.58199e-07
-1.58199e-07
-1.58199e-07
-1.58199e-07
-1.58199e-07
-1.58199e-07
-1.58199e-07
-1.58199e-07
-1.58199e-07
-1.58199e-07
-1.58198e-07
-1.58181e-07
-1.57475e-07
-1.32605e-07
)
;

boundaryField
{
    inandouthalf11
    {
        type            cyclic;
        value           nonuniform List<scalar> 
100
(
1.79019e-38
6.68399e-16
1.39642e-15
2.06297e-15
2.75854e-15
3.50187e-15
4.27767e-15
5.07981e-15
5.91024e-15
6.77162e-15
7.66544e-15
8.59195e-15
9.55055e-15
1.05401e-14
1.15594e-14
1.26068e-14
1.36806e-14
1.47787e-14
1.58989e-14
1.70386e-14
1.81954e-14
1.93667e-14
2.05499e-14
2.17426e-14
2.29421e-14
2.4146e-14
2.5352e-14
2.65578e-14
2.77616e-14
2.89612e-14
3.0155e-14
3.13414e-14
3.25189e-14
3.36863e-14
3.48426e-14
3.59868e-14
3.71181e-14
3.82361e-14
3.93402e-14
4.04301e-14
4.15056e-14
4.25666e-14
4.36131e-14
4.4645e-14
4.56629e-14
4.66667e-14
4.76568e-14
4.86335e-14
4.95969e-14
5.05478e-14
5.14866e-14
5.24136e-14
5.33293e-14
5.42342e-14
5.51288e-14
5.60135e-14
5.68888e-14
5.77552e-14
5.8613e-14
5.94626e-14
6.03045e-14
6.11392e-14
6.19671e-14
6.27887e-14
6.36042e-14
6.44138e-14
6.5218e-14
6.60171e-14
6.68113e-14
6.76006e-14
6.83854e-14
6.91662e-14
6.9943e-14
7.0716e-14
7.14855e-14
7.22516e-14
7.30145e-14
7.37741e-14
7.45305e-14
7.52838e-14
7.60339e-14
7.6781e-14
7.75252e-14
7.82665e-14
7.90051e-14
7.97409e-14
8.0474e-14
8.12042e-14
8.19315e-14
8.26557e-14
8.33767e-14
8.40946e-14
8.48092e-14
8.55205e-14
8.62287e-14
8.69336e-14
8.76353e-14
8.83337e-14
8.90288e-14
8.97205e-14
)
;
    }
    inandouthalf12
    {
        type            cyclic;
        value           nonuniform List<scalar> 
100
(
-1.79019e-38
-6.68399e-16
-1.39642e-15
-2.06297e-15
-2.75854e-15
-3.50187e-15
-4.27767e-15
-5.07981e-15
-5.91024e-15
-6.77162e-15
-7.66544e-15
-8.59195e-15
-9.55055e-15
-1.05401e-14
-1.15594e-14
-1.26068e-14
-1.36806e-14
-1.47787e-14
-1.58989e-14
-1.70386e-14
-1.81954e-14
-1.93667e-14
-2.05499e-14
-2.17426e-14
-2.29421e-14
-2.4146e-14
-2.5352e-14
-2.65578e-14
-2.77616e-14
-2.89612e-14
-3.0155e-14
-3.13414e-14
-3.25189e-14
-3.36863e-14
-3.48426e-14
-3.59868e-14
-3.71181e-14
-3.82361e-14
-3.93402e-14
-4.04301e-14
-4.15056e-14
-4.25666e-14
-4.36131e-14
-4.4645e-14
-4.56629e-14
-4.66667e-14
-4.76568e-14
-4.86335e-14
-4.95969e-14
-5.05478e-14
-5.14866e-14
-5.24136e-14
-5.33293e-14
-5.42342e-14
-5.51288e-14
-5.60135e-14
-5.68888e-14
-5.77552e-14
-5.8613e-14
-5.94626e-14
-6.03045e-14
-6.11392e-14
-6.19671e-14
-6.27887e-14
-6.36042e-14
-6.44138e-14
-6.5218e-14
-6.60171e-14
-6.68113e-14
-6.76006e-14
-6.83854e-14
-6.91662e-14
-6.9943e-14
-7.0716e-14
-7.14855e-14
-7.22516e-14
-7.30145e-14
-7.37741e-14
-7.45305e-14
-7.52838e-14
-7.60339e-14
-7.6781e-14
-7.75252e-14
-7.82665e-14
-7.90051e-14
-7.97409e-14
-8.0474e-14
-8.12042e-14
-8.19315e-14
-8.26557e-14
-8.33767e-14
-8.40946e-14
-8.48092e-14
-8.55205e-14
-8.62287e-14
-8.69336e-14
-8.76353e-14
-8.83337e-14
-8.90288e-14
-8.97205e-14
)
;
    }
    inandouthalf21
    {
        type            cyclic;
        value           nonuniform List<scalar> 
100
(
9.04088e-14
9.10937e-14
9.17753e-14
9.24537e-14
9.3129e-14
9.38014e-14
9.44711e-14
9.51384e-14
9.58036e-14
9.64671e-14
9.71293e-14
9.77905e-14
9.84513e-14
9.91119e-14
9.97729e-14
1.00435e-13
1.01097e-13
1.01761e-13
1.02425e-13
1.03091e-13
1.03756e-13
1.04422e-13
1.05088e-13
1.05753e-13
1.06417e-13
1.07082e-13
1.07749e-13
1.08423e-13
1.09108e-13
1.09812e-13
1.10543e-13
1.11308e-13
1.12114e-13
1.1296e-13
1.13829e-13
1.1468e-13
1.15443e-13
1.16036e-13
1.16419e-13
1.16616e-13
1.16701e-13
1.16749e-13
1.16806e-13
1.16923e-13
1.16995e-13
1.17055e-13
1.17194e-13
3.16811e-08
1.35602e-07
2.30965e-07
3.07997e-07
3.72334e-07
4.2703e-07
4.74204e-07
5.15373e-07
5.51665e-07
5.83947e-07
6.12896e-07
6.39047e-07
6.62822e-07
6.84559e-07
7.04524e-07
7.2293e-07
7.39944e-07
7.55701e-07
7.70309e-07
7.83856e-07
7.9641e-07
8.08033e-07
8.18773e-07
8.28674e-07
8.37778e-07
8.46124e-07
8.53751e-07
8.60701e-07
8.67022e-07
8.72764e-07
8.77982e-07
8.82729e-07
8.87058e-07
8.91011e-07
8.94629e-07
8.97944e-07
9.00984e-07
9.03774e-07
9.06335e-07
9.08687e-07
9.10846e-07
9.12829e-07
9.14649e-07
9.1632e-07
9.17852e-07
9.19258e-07
9.20548e-07
9.21729e-07
9.22811e-07
9.23802e-07
9.24708e-07
9.25537e-07
9.26294e-07
)
;
    }
    inandouthalf22
    {
        type            cyclic;
        value           nonuniform List<scalar> 
100
(
-9.04088e-14
-9.10937e-14
-9.17753e-14
-9.24537e-14
-9.3129e-14
-9.38014e-14
-9.44711e-14
-9.51384e-14
-9.58036e-14
-9.64671e-14
-9.71293e-14
-9.77905e-14
-9.84513e-14
-9.91119e-14
-9.97729e-14
-1.00435e-13
-1.01097e-13
-1.01761e-13
-1.02425e-13
-1.03091e-13
-1.03756e-13
-1.04422e-13
-1.05088e-13
-1.05753e-13
-1.06417e-13
-1.07082e-13
-1.07749e-13
-1.08423e-13
-1.09108e-13
-1.09812e-13
-1.10543e-13
-1.11308e-13
-1.12114e-13
-1.1296e-13
-1.13829e-13
-1.1468e-13
-1.15443e-13
-1.16036e-13
-1.16419e-13
-1.16616e-13
-1.16701e-13
-1.16749e-13
-1.16806e-13
-1.16923e-13
-1.16995e-13
-1.17055e-13
-1.17194e-13
-3.16811e-08
-1.35602e-07
-2.30965e-07
-3.07997e-07
-3.72334e-07
-4.2703e-07
-4.74204e-07
-5.15373e-07
-5.51665e-07
-5.83947e-07
-6.12896e-07
-6.39047e-07
-6.62822e-07
-6.84559e-07
-7.04524e-07
-7.2293e-07
-7.39944e-07
-7.55701e-07
-7.70309e-07
-7.83856e-07
-7.9641e-07
-8.08033e-07
-8.18773e-07
-8.28674e-07
-8.37778e-07
-8.46124e-07
-8.53751e-07
-8.60701e-07
-8.67022e-07
-8.72764e-07
-8.77982e-07
-8.82729e-07
-8.87058e-07
-8.91011e-07
-8.94629e-07
-8.97944e-07
-9.00984e-07
-9.03774e-07
-9.06335e-07
-9.08687e-07
-9.10846e-07
-9.12829e-07
-9.14649e-07
-9.1632e-07
-9.17852e-07
-9.19258e-07
-9.20548e-07
-9.21729e-07
-9.22811e-07
-9.23802e-07
-9.24708e-07
-9.25537e-07
-9.26294e-07
)
;
    }
    inandouthalf31
    {
        type            cyclic;
        value           nonuniform List<scalar> 
110
(
9.26988e-07
9.46452e-07
9.66278e-07
9.86471e-07
1.00704e-06
1.02799e-06
1.04934e-06
1.07108e-06
1.09324e-06
1.11581e-06
1.13881e-06
1.16225e-06
1.18613e-06
1.21047e-06
1.23528e-06
1.26057e-06
1.28634e-06
1.31261e-06
1.3394e-06
1.3667e-06
1.39454e-06
1.42293e-06
1.45187e-06
1.48139e-06
1.51148e-06
1.54218e-06
1.57348e-06
1.6054e-06
1.63796e-06
1.67116e-06
1.70503e-06
1.73957e-06
1.77481e-06
1.81074e-06
1.8474e-06
1.88481e-06
1.92295e-06
1.93097e-06
1.96534e-06
2.00014e-06
2.03546e-06
2.07131e-06
2.1077e-06
2.14466e-06
2.18219e-06
2.22033e-06
2.2591e-06
2.29844e-06
2.33859e-06
2.37928e-06
2.42107e-06
2.46319e-06
2.50609e-06
2.55072e-06
2.59563e-06
2.64166e-06
2.68896e-06
2.73744e-06
2.78724e-06
2.83844e-06
2.89115e-06
2.94549e-06
3.00156e-06
3.05945e-06
3.11924e-06
3.18103e-06
3.24493e-06
3.31077e-06
3.37873e-06
3.44875e-06
3.5208e-06
3.59484e-06
3.67082e-06
3.74865e-06
3.82826e-06
3.90955e-06
3.99236e-06
4.07653e-06
4.16137e-06
4.24638e-06
4.3326e-06
4.42054e-06
4.51027e-06
4.60181e-06
4.69522e-06
4.79052e-06
4.88775e-06
4.98696e-06
5.08819e-06
5.19146e-06
5.29683e-06
5.40435e-06
5.51404e-06
5.62596e-06
5.74015e-06
5.85666e-06
5.97554e-06
6.09682e-06
6.22057e-06
6.34684e-06
6.47566e-06
6.6071e-06
6.7412e-06
6.87803e-06
7.01764e-06
7.16008e-06
7.30541e-06
7.45369e-06
7.60498e-06
7.75934e-06
)
;
    }
    inandouthalf32
    {
        type            cyclic;
        value           nonuniform List<scalar> 
110
(
-9.26988e-07
-9.46452e-07
-9.66278e-07
-9.86471e-07
-1.00704e-06
-1.02799e-06
-1.04934e-06
-1.07108e-06
-1.09324e-06
-1.11581e-06
-1.13881e-06
-1.16225e-06
-1.18613e-06
-1.21047e-06
-1.23528e-06
-1.26057e-06
-1.28634e-06
-1.31261e-06
-1.3394e-06
-1.3667e-06
-1.39454e-06
-1.42293e-06
-1.45187e-06
-1.48139e-06
-1.51148e-06
-1.54218e-06
-1.57348e-06
-1.6054e-06
-1.63796e-06
-1.67116e-06
-1.70503e-06
-1.73957e-06
-1.77481e-06
-1.81074e-06
-1.8474e-06
-1.88481e-06
-1.92295e-06
-1.93097e-06
-1.96534e-06
-2.00014e-06
-2.03546e-06
-2.07131e-06
-2.1077e-06
-2.14466e-06
-2.18219e-06
-2.22033e-06
-2.2591e-06
-2.29844e-06
-2.33859e-06
-2.37928e-06
-2.42107e-06
-2.46319e-06
-2.50609e-06
-2.55072e-06
-2.59563e-06
-2.64166e-06
-2.68896e-06
-2.73744e-06
-2.78724e-06
-2.83844e-06
-2.89115e-06
-2.94549e-06
-3.00156e-06
-3.05945e-06
-3.11924e-06
-3.18103e-06
-3.24493e-06
-3.31077e-06
-3.37873e-06
-3.44875e-06
-3.5208e-06
-3.59484e-06
-3.67082e-06
-3.74865e-06
-3.82826e-06
-3.90955e-06
-3.99236e-06
-4.07653e-06
-4.16137e-06
-4.24638e-06
-4.3326e-06
-4.42054e-06
-4.51027e-06
-4.60181e-06
-4.69522e-06
-4.79052e-06
-4.88775e-06
-4.98696e-06
-5.08819e-06
-5.19146e-06
-5.29683e-06
-5.40435e-06
-5.51404e-06
-5.62596e-06
-5.74015e-06
-5.85666e-06
-5.97554e-06
-6.09682e-06
-6.22057e-06
-6.34684e-06
-6.47566e-06
-6.6071e-06
-6.7412e-06
-6.87803e-06
-7.01764e-06
-7.16008e-06
-7.30541e-06
-7.45369e-06
-7.60498e-06
-7.75934e-06
)
;
    }
    inandouthalf41
    {
        type            cyclic;
        value           nonuniform List<scalar> 
50
(
6.9454e-06
6.9454e-06
6.9454e-06
6.9454e-06
6.9454e-06
6.9454e-06
6.9454e-06
6.9454e-06
6.9454e-06
6.9454e-06
6.9454e-06
6.9454e-06
6.9454e-06
6.9454e-06
6.9454e-06
6.9454e-06
6.9454e-06
6.9454e-06
6.9454e-06
6.9454e-06
6.9454e-06
6.9454e-06
6.9454e-06
6.9454e-06
6.9454e-06
6.9454e-06
6.9454e-06
6.9454e-06
6.9454e-06
6.9454e-06
6.9454e-06
6.9454e-06
6.9454e-06
6.9454e-06
6.9454e-06
6.9454e-06
6.9454e-06
6.9454e-06
6.9454e-06
6.9454e-06
6.9454e-06
6.9454e-06
6.9454e-06
6.9454e-06
6.9454e-06
6.9454e-06
6.9454e-06
6.9454e-06
6.94538e-06
6.94487e-06
)
;
    }
    inandouthalf42
    {
        type            cyclic;
        value           nonuniform List<scalar> 
50
(
-6.9454e-06
-6.9454e-06
-6.9454e-06
-6.9454e-06
-6.9454e-06
-6.9454e-06
-6.9454e-06
-6.9454e-06
-6.9454e-06
-6.9454e-06
-6.9454e-06
-6.9454e-06
-6.9454e-06
-6.9454e-06
-6.9454e-06
-6.9454e-06
-6.9454e-06
-6.9454e-06
-6.9454e-06
-6.9454e-06
-6.9454e-06
-6.9454e-06
-6.9454e-06
-6.9454e-06
-6.9454e-06
-6.9454e-06
-6.9454e-06
-6.9454e-06
-6.9454e-06
-6.9454e-06
-6.9454e-06
-6.9454e-06
-6.9454e-06
-6.9454e-06
-6.9454e-06
-6.9454e-06
-6.9454e-06
-6.9454e-06
-6.9454e-06
-6.9454e-06
-6.9454e-06
-6.9454e-06
-6.9454e-06
-6.9454e-06
-6.9454e-06
-6.9454e-06
-6.9454e-06
-6.9454e-06
-6.94538e-06
-6.94487e-06
)
;
    }
    top
    {
        type            symmetryPlane;
        value           uniform 0;
    }
    walls
    {
        type            fixedValue;
        value           uniform 0;
    }
    frontAndBackPlanes
    {
        type            empty;
        value           nonuniform 0();
    }
}


// ************************************************************************* //
