/*--------------------------------*- C++ -*----------------------------------*\
| =========                 |                                                 |
| \\      /  F ield         | OpenFOAM: The Open Source CFD Toolbox           |
|  \\    /   O peration     | Version:  2.4.x                                 |
|   \\  /    A nd           | Web:      www.OpenFOAM.org                      |
|    \\/     M anipulation  |                                                 |
\*---------------------------------------------------------------------------*/
FoamFile
{
    version     2.0;
    format      ascii;
    class       surfaceScalarField;
    location    "12.1";
    object      phib;
}
// * * * * * * * * * * * * * * * * * * * * * * * * * * * * * * * * * * * * * //

dimensions      [0 3 -1 0 0 0 0];

internalField   nonuniform List<scalar> 
359
(
9.13875e-15
2.28839e-14
3.5758e-14
4.83796e-14
6.16474e-14
7.55266e-14
8.98455e-14
1.04583e-13
1.19776e-13
1.35462e-13
1.51654e-13
1.68338e-13
1.85498e-13
2.03106e-13
2.21132e-13
2.39546e-13
2.58312e-13
2.77387e-13
2.96728e-13
3.16293e-13
3.36032e-13
3.55904e-13
3.75863e-13
3.95867e-13
4.15874e-13
4.35845e-13
4.5574e-13
4.75528e-13
4.95178e-13
5.14658e-13
5.33944e-13
5.53016e-13
5.71847e-13
5.90431e-13
6.08747e-13
6.26787e-13
6.4454e-13
6.62003e-13
6.79176e-13
6.96046e-13
7.12624e-13
7.28909e-13
7.44898e-13
7.60604e-13
7.76027e-13
7.91176e-13
8.06059e-13
8.20676e-13
8.35039e-13
8.49163e-13
8.63046e-13
8.76704e-13
8.9014e-13
9.03369e-13
9.16392e-13
9.29225e-13
9.4187e-13
9.54338e-13
9.66635e-13
9.78763e-13
9.90739e-13
1.00256e-12
1.01425e-12
1.02579e-12
1.03721e-12
1.0485e-12
1.05966e-12
1.07071e-12
1.08164e-12
1.09246e-12
1.10318e-12
1.11379e-12
1.1243e-12
1.13472e-12
1.14504e-12
1.15527e-12
1.16541e-12
1.17545e-12
1.1854e-12
1.19527e-12
1.20504e-12
1.21472e-12
1.22432e-12
1.23382e-12
1.24324e-12
1.25257e-12
1.26181e-12
1.27096e-12
1.28002e-12
1.28898e-12
1.29785e-12
1.30662e-12
1.31528e-12
1.32385e-12
1.33232e-12
1.34069e-12
1.34895e-12
1.35711e-12
1.36516e-12
1.37311e-12
1.38094e-12
1.38867e-12
1.39628e-12
1.40378e-12
1.41117e-12
1.41846e-12
1.42563e-12
1.43269e-12
1.43964e-12
1.44649e-12
1.45323e-12
1.45987e-12
1.46641e-12
1.47284e-12
1.47917e-12
1.48539e-12
1.4915e-12
1.4975e-12
1.50338e-12
1.50912e-12
1.51472e-12
1.52017e-12
1.52546e-12
1.53058e-12
1.53552e-12
1.54029e-12
1.5449e-12
1.54937e-12
1.55375e-12
1.55806e-12
1.56235e-12
1.56662e-12
1.57085e-12
1.57495e-12
1.57871e-12
1.58181e-12
1.58384e-12
1.58453e-12
1.58387e-12
1.58225e-12
1.57999e-12
1.5693e-12
1.56228e-12
1.56227e-12
1.558e-12
1.54379e-12
1.10047e-11
1.94496e-10
1.92399e-10
1.77928e-10
1.5672e-10
1.31239e-10
1.03234e-10
7.43874e-11
4.63986e-11
2.07041e-11
-1.68021e-12
-2.01461e-11
-3.46716e-11
-4.54533e-11
-5.28809e-11
-5.74321e-11
-5.96e-11
-5.98503e-11
-5.86003e-11
-5.62126e-11
-5.29932e-11
-4.91963e-11
-4.50293e-11
-4.06589e-11
-3.62138e-11
-3.17833e-11
-2.74151e-11
-2.31297e-11
-1.89638e-11
-1.50201e-11
-1.14622e-11
-8.43986e-12
-6.01316e-12
-4.14458e-12
-2.74216e-12
-1.7036e-12
-9.39334e-13
-3.78805e-13
3.09109e-14
3.28729e-13
5.431e-13
6.94879e-13
7.99447e-13
8.68238e-13
9.09831e-13
9.30714e-13
9.35836e-13
9.29001e-13
9.13151e-13
8.90576e-13
8.63069e-13
8.32037e-13
7.9859e-13
7.63606e-13
7.27779e-13
6.90923e-13
6.53481e-13
6.1584e-13
5.78343e-13
5.41289e-13
5.0494e-13
4.69519e-13
4.35215e-13
4.02181e-13
3.70538e-13
3.40374e-13
3.11747e-13
2.84687e-13
2.59204e-13
2.35285e-13
2.12904e-13
1.92023e-13
1.72599e-13
1.54582e-13
1.37922e-13
1.22566e-13
1.0846e-13
9.55496e-14
8.37704e-14
7.30475e-14
6.3281e-14
5.43374e-14
4.60594e-14
3.83132e-14
3.11116e-14
2.47791e-14
1.98775e-14
1.66216e-14
1.43756e-14
1.23807e-14
1.08267e-14
9.0992e-15
7.51262e-15
6.0951e-15
4.85778e-15
3.79987e-15
2.91331e-15
2.18497e-15
1.59889e-15
1.13764e-15
7.83515e-16
5.16736e-16
3.28022e-16
1.86835e-16
1.0522e-16
8.21571e-17
3.16561e-17
2.16714e-19
7.96732e-20
-1.06968e-19
-2.11236e-19
-3.58794e-19
-4.22722e-19
-5.21144e-19
-5.53762e-19
-6.16786e-19
-6.2422e-19
-6.78275e-19
-7.31448e-19
-8.22352e-19
-8.76024e-19
-9.39749e-19
-9.96608e-19
-1.04154e-18
-1.0581e-18
-1.06187e-18
-1.09882e-18
-1.12111e-18
-1.12927e-18
-1.10426e-18
-1.097e-18
-1.05546e-18
-1.00606e-18
-9.32297e-19
-9.1925e-19
-8.87805e-19
-8.58694e-19
-8.02619e-19
-7.66322e-19
-7.11233e-19
-6.34324e-19
-5.6292e-19
-5.1195e-19
-4.51971e-19
-3.92588e-19
-3.26948e-19
-2.66391e-19
-2.0204e-19
-1.39875e-19
-7.55902e-20
-7.34553e-20
-4.79558e-20
-2.61654e-20
1.16391e-19
1.39682e-19
1.55795e-19
1.73269e-19
1.80562e-19
2.06849e-19
2.18678e-19
2.33569e-19
2.2943e-19
2.45421e-19
2.38874e-19
2.3662e-19
2.17925e-19
2.34843e-19
2.36191e-19
2.40096e-19
2.30032e-19
2.3331e-19
2.23589e-19
2.15312e-19
1.95618e-19
1.96369e-19
1.85519e-19
1.76984e-19
1.57385e-19
1.48934e-19
1.29005e-19
1.12357e-19
8.92933e-20
9.00212e-20
7.3725e-20
6.24025e-20
1.28875e-20
1.05267e-20
-4.9946e-20
-1.001e-19
-2.16489e-19
-2.12367e-19
-2.89147e-19
-3.53383e-19
-5.04594e-19
-5.84528e-19
-7.37973e-19
-8.86635e-19
-1.06199e-18
-1.29942e-18
-1.52965e-18
-1.76213e-18
-1.96274e-18
-2.25366e-18
-2.42325e-18
-2.64534e-18
-2.78423e-18
-3.20367e-18
-3.38745e-18
-3.69654e-18
-4.00921e-18
-3.98522e-18
-5.33166e-18
-7.89083e-18
)
;

boundaryField
{
    inandouthalf11
    {
        type            cyclic;
        value           nonuniform List<scalar> 
100
(
1.92887e-11
1.91814e-11
1.91677e-11
1.91829e-11
1.91904e-11
1.91933e-11
1.91968e-11
1.92012e-11
1.92056e-11
1.92102e-11
1.92148e-11
1.92194e-11
1.92241e-11
1.92289e-11
1.92337e-11
1.92387e-11
1.92437e-11
1.92487e-11
1.92538e-11
1.9259e-11
1.92642e-11
1.92695e-11
1.92748e-11
1.92802e-11
1.92856e-11
1.92911e-11
1.92967e-11
1.93022e-11
1.93079e-11
1.93135e-11
1.93192e-11
1.9325e-11
1.93308e-11
1.93366e-11
1.93425e-11
1.93484e-11
1.93544e-11
1.93604e-11
1.93664e-11
1.93724e-11
1.93786e-11
1.93848e-11
1.93909e-11
1.93972e-11
1.94035e-11
1.94098e-11
1.94163e-11
1.94227e-11
1.94292e-11
1.94358e-11
1.94423e-11
1.9449e-11
1.94557e-11
1.94625e-11
1.94693e-11
1.94763e-11
1.94832e-11
1.94903e-11
1.94974e-11
1.95046e-11
1.95119e-11
1.95192e-11
1.95267e-11
1.95342e-11
1.95418e-11
1.95494e-11
1.95572e-11
1.95651e-11
1.95731e-11
1.95811e-11
1.95893e-11
1.95976e-11
1.96059e-11
1.96144e-11
1.9623e-11
1.96317e-11
1.96405e-11
1.96495e-11
1.96586e-11
1.96678e-11
1.96771e-11
1.96866e-11
1.96962e-11
1.9706e-11
1.97159e-11
1.9726e-11
1.97362e-11
1.97466e-11
1.97572e-11
1.97679e-11
1.97789e-11
1.979e-11
1.98013e-11
1.98128e-11
1.98245e-11
1.98365e-11
1.98487e-11
1.98611e-11
1.98737e-11
1.98866e-11
)
;
    }
    inandouthalf12
    {
        type            cyclic;
        value           nonuniform List<scalar> 
100
(
-1.92887e-11
-1.91814e-11
-1.91677e-11
-1.91829e-11
-1.91904e-11
-1.91933e-11
-1.91968e-11
-1.92012e-11
-1.92056e-11
-1.92102e-11
-1.92148e-11
-1.92194e-11
-1.92241e-11
-1.92289e-11
-1.92337e-11
-1.92387e-11
-1.92437e-11
-1.92487e-11
-1.92538e-11
-1.9259e-11
-1.92642e-11
-1.92695e-11
-1.92748e-11
-1.92802e-11
-1.92856e-11
-1.92911e-11
-1.92967e-11
-1.93022e-11
-1.93079e-11
-1.93135e-11
-1.93192e-11
-1.9325e-11
-1.93308e-11
-1.93366e-11
-1.93425e-11
-1.93484e-11
-1.93544e-11
-1.93604e-11
-1.93664e-11
-1.93724e-11
-1.93786e-11
-1.93848e-11
-1.93909e-11
-1.93972e-11
-1.94035e-11
-1.94098e-11
-1.94163e-11
-1.94227e-11
-1.94292e-11
-1.94358e-11
-1.94423e-11
-1.9449e-11
-1.94557e-11
-1.94625e-11
-1.94693e-11
-1.94763e-11
-1.94832e-11
-1.94903e-11
-1.94974e-11
-1.95046e-11
-1.95119e-11
-1.95192e-11
-1.95267e-11
-1.95342e-11
-1.95418e-11
-1.95494e-11
-1.95572e-11
-1.95651e-11
-1.95731e-11
-1.95811e-11
-1.95893e-11
-1.95976e-11
-1.96059e-11
-1.96144e-11
-1.9623e-11
-1.96317e-11
-1.96405e-11
-1.96495e-11
-1.96586e-11
-1.96678e-11
-1.96771e-11
-1.96866e-11
-1.96962e-11
-1.9706e-11
-1.97159e-11
-1.9726e-11
-1.97362e-11
-1.97466e-11
-1.97572e-11
-1.97679e-11
-1.97789e-11
-1.979e-11
-1.98013e-11
-1.98128e-11
-1.98245e-11
-1.98365e-11
-1.98487e-11
-1.98611e-11
-1.98737e-11
-1.98866e-11
)
;
    }
    inandouthalf21
    {
        type            cyclic;
        value           nonuniform List<scalar> 
100
(
1.98997e-11
1.99132e-11
1.99269e-11
1.99409e-11
1.99552e-11
1.99698e-11
1.99847e-11
2e-11
2.00157e-11
2.00317e-11
2.00481e-11
2.00649e-11
2.00822e-11
2.00999e-11
2.0118e-11
2.01367e-11
2.01558e-11
2.01756e-11
2.01958e-11
2.02167e-11
2.02383e-11
2.02604e-11
2.02834e-11
2.0307e-11
2.03315e-11
2.03567e-11
2.03829e-11
2.04101e-11
2.04383e-11
2.04677e-11
2.04983e-11
2.05301e-11
2.05635e-11
2.05987e-11
2.06362e-11
2.06761e-11
2.07184e-11
2.07633e-11
2.08129e-11
2.08694e-11
2.09302e-11
2.10025e-11
2.1501e-11
2.1427e-11
2.15187e-11
2.17793e-11
1.26208e-10
3.52548e-08
1.45585e-07
2.39331e-07
3.15059e-07
3.78229e-07
4.32065e-07
4.78625e-07
5.19377e-07
5.5542e-07
5.87599e-07
6.16577e-07
6.42878e-07
6.66919e-07
6.89034e-07
7.0949e-07
7.28505e-07
7.46253e-07
7.62876e-07
7.78491e-07
7.93191e-07
8.07053e-07
8.20139e-07
8.32499e-07
8.44173e-07
8.55191e-07
8.65578e-07
8.7535e-07
8.84521e-07
8.93099e-07
9.0109e-07
9.08498e-07
9.15328e-07
9.21587e-07
9.27284e-07
9.32432e-07
9.3705e-07
9.4116e-07
9.4479e-07
9.47972e-07
9.50739e-07
9.53128e-07
9.55176e-07
9.56917e-07
9.58386e-07
9.59613e-07
9.60626e-07
9.61451e-07
9.62111e-07
9.62623e-07
9.63006e-07
9.63273e-07
9.63438e-07
9.63511e-07
)
;
    }
    inandouthalf22
    {
        type            cyclic;
        value           nonuniform List<scalar> 
100
(
-1.98997e-11
-1.99132e-11
-1.99269e-11
-1.99409e-11
-1.99552e-11
-1.99698e-11
-1.99847e-11
-2e-11
-2.00157e-11
-2.00317e-11
-2.00481e-11
-2.00649e-11
-2.00822e-11
-2.00999e-11
-2.0118e-11
-2.01367e-11
-2.01558e-11
-2.01756e-11
-2.01958e-11
-2.02167e-11
-2.02383e-11
-2.02604e-11
-2.02834e-11
-2.0307e-11
-2.03315e-11
-2.03567e-11
-2.03829e-11
-2.04101e-11
-2.04383e-11
-2.04677e-11
-2.04983e-11
-2.05301e-11
-2.05635e-11
-2.05987e-11
-2.06362e-11
-2.06761e-11
-2.07184e-11
-2.07633e-11
-2.08129e-11
-2.08694e-11
-2.09302e-11
-2.10025e-11
-2.1501e-11
-2.1427e-11
-2.15187e-11
-2.17793e-11
-1.26208e-10
-3.52548e-08
-1.45585e-07
-2.39331e-07
-3.15059e-07
-3.78229e-07
-4.32065e-07
-4.78625e-07
-5.19377e-07
-5.5542e-07
-5.87599e-07
-6.16577e-07
-6.42878e-07
-6.66919e-07
-6.89034e-07
-7.0949e-07
-7.28505e-07
-7.46253e-07
-7.62876e-07
-7.78491e-07
-7.93191e-07
-8.07053e-07
-8.20139e-07
-8.32499e-07
-8.44173e-07
-8.55191e-07
-8.65578e-07
-8.7535e-07
-8.84521e-07
-8.93099e-07
-9.0109e-07
-9.08498e-07
-9.15328e-07
-9.21587e-07
-9.27284e-07
-9.32432e-07
-9.3705e-07
-9.4116e-07
-9.4479e-07
-9.47972e-07
-9.50739e-07
-9.53128e-07
-9.55176e-07
-9.56917e-07
-9.58386e-07
-9.59613e-07
-9.60626e-07
-9.61451e-07
-9.62111e-07
-9.62623e-07
-9.63006e-07
-9.63273e-07
-9.63438e-07
-9.63511e-07
)
;
    }
    inandouthalf31
    {
        type            cyclic;
        value           nonuniform List<scalar> 
110
(
9.63504e-07
9.82973e-07
1.00276e-06
1.02287e-06
1.04331e-06
1.06408e-06
1.0852e-06
1.10666e-06
1.12847e-06
1.15063e-06
1.17315e-06
1.19604e-06
1.2193e-06
1.24293e-06
1.26693e-06
1.29132e-06
1.31609e-06
1.34125e-06
1.3668e-06
1.39275e-06
1.41911e-06
1.44586e-06
1.47303e-06
1.50061e-06
1.5286e-06
1.55702e-06
1.58586e-06
1.61513e-06
1.64483e-06
1.67497e-06
1.70556e-06
1.73659e-06
1.76808e-06
1.80003e-06
1.83244e-06
1.86533e-06
1.89869e-06
1.93255e-06
1.9669e-06
2.00176e-06
2.03714e-06
2.07305e-06
2.10951e-06
2.14653e-06
2.18413e-06
2.22233e-06
2.26115e-06
2.30062e-06
2.34077e-06
2.38163e-06
2.42324e-06
2.46565e-06
2.5089e-06
2.55304e-06
2.59815e-06
2.64428e-06
2.69153e-06
2.73997e-06
2.78971e-06
2.84084e-06
2.89347e-06
2.9477e-06
3.00366e-06
3.06144e-06
3.12112e-06
3.1828e-06
3.24651e-06
3.31229e-06
3.38016e-06
3.4501e-06
3.52208e-06
3.59607e-06
3.67202e-06
3.74985e-06
3.82948e-06
3.9108e-06
3.99368e-06
4.07792e-06
4.16305e-06
4.24822e-06
4.33449e-06
4.42247e-06
4.51223e-06
4.60382e-06
4.69726e-06
4.7926e-06
4.88988e-06
4.98913e-06
5.0904e-06
5.19372e-06
5.29914e-06
5.4067e-06
5.51644e-06
5.62841e-06
5.74265e-06
5.85921e-06
5.97814e-06
6.09948e-06
6.22328e-06
6.3496e-06
6.47848e-06
6.60997e-06
6.74414e-06
6.88102e-06
7.02069e-06
7.16319e-06
7.30859e-06
7.45693e-06
7.60829e-06
7.76271e-06
)
;
    }
    inandouthalf32
    {
        type            cyclic;
        value           nonuniform List<scalar> 
110
(
-9.63504e-07
-9.82973e-07
-1.00276e-06
-1.02287e-06
-1.04331e-06
-1.06408e-06
-1.0852e-06
-1.10666e-06
-1.12847e-06
-1.15063e-06
-1.17315e-06
-1.19604e-06
-1.2193e-06
-1.24293e-06
-1.26693e-06
-1.29132e-06
-1.31609e-06
-1.34125e-06
-1.3668e-06
-1.39275e-06
-1.41911e-06
-1.44586e-06
-1.47303e-06
-1.50061e-06
-1.5286e-06
-1.55702e-06
-1.58586e-06
-1.61513e-06
-1.64483e-06
-1.67497e-06
-1.70556e-06
-1.73659e-06
-1.76808e-06
-1.80003e-06
-1.83244e-06
-1.86533e-06
-1.89869e-06
-1.93255e-06
-1.9669e-06
-2.00176e-06
-2.03714e-06
-2.07305e-06
-2.10951e-06
-2.14653e-06
-2.18413e-06
-2.22233e-06
-2.26115e-06
-2.30062e-06
-2.34077e-06
-2.38163e-06
-2.42324e-06
-2.46565e-06
-2.5089e-06
-2.55304e-06
-2.59815e-06
-2.64428e-06
-2.69153e-06
-2.73997e-06
-2.78971e-06
-2.84084e-06
-2.89347e-06
-2.9477e-06
-3.00366e-06
-3.06144e-06
-3.12112e-06
-3.1828e-06
-3.24651e-06
-3.31229e-06
-3.38016e-06
-3.4501e-06
-3.52208e-06
-3.59607e-06
-3.67202e-06
-3.74985e-06
-3.82948e-06
-3.9108e-06
-3.99368e-06
-4.07792e-06
-4.16305e-06
-4.24822e-06
-4.33449e-06
-4.42247e-06
-4.51223e-06
-4.60382e-06
-4.69726e-06
-4.7926e-06
-4.88988e-06
-4.98913e-06
-5.0904e-06
-5.19372e-06
-5.29914e-06
-5.4067e-06
-5.51644e-06
-5.62841e-06
-5.74265e-06
-5.85921e-06
-5.97814e-06
-6.09948e-06
-6.22328e-06
-6.3496e-06
-6.47848e-06
-6.60997e-06
-6.74414e-06
-6.88102e-06
-7.02069e-06
-7.16319e-06
-7.30859e-06
-7.45693e-06
-7.60829e-06
-7.76271e-06
)
;
    }
    inandouthalf41
    {
        type            cyclic;
        value           nonuniform List<scalar> 
50
(
6.94842e-06
6.94842e-06
6.94842e-06
6.94842e-06
6.94842e-06
6.94842e-06
6.94842e-06
6.94842e-06
6.94842e-06
6.94842e-06
6.94842e-06
6.94842e-06
6.94842e-06
6.94842e-06
6.94842e-06
6.94842e-06
6.94842e-06
6.94842e-06
6.94842e-06
6.94842e-06
6.94842e-06
6.94842e-06
6.94842e-06
6.94842e-06
6.94842e-06
6.94842e-06
6.94842e-06
6.94842e-06
6.94842e-06
6.94842e-06
6.94842e-06
6.94842e-06
6.94842e-06
6.94842e-06
6.94842e-06
6.94842e-06
6.94842e-06
6.94842e-06
6.94842e-06
6.94842e-06
6.94842e-06
6.94842e-06
6.94842e-06
6.94842e-06
6.94842e-06
6.94842e-06
6.94842e-06
6.94842e-06
6.94842e-06
6.94842e-06
)
;
    }
    inandouthalf42
    {
        type            cyclic;
        value           nonuniform List<scalar> 
50
(
-6.94842e-06
-6.94842e-06
-6.94842e-06
-6.94842e-06
-6.94842e-06
-6.94842e-06
-6.94842e-06
-6.94842e-06
-6.94842e-06
-6.94842e-06
-6.94842e-06
-6.94842e-06
-6.94842e-06
-6.94842e-06
-6.94842e-06
-6.94842e-06
-6.94842e-06
-6.94842e-06
-6.94842e-06
-6.94842e-06
-6.94842e-06
-6.94842e-06
-6.94842e-06
-6.94842e-06
-6.94842e-06
-6.94842e-06
-6.94842e-06
-6.94842e-06
-6.94842e-06
-6.94842e-06
-6.94842e-06
-6.94842e-06
-6.94842e-06
-6.94842e-06
-6.94842e-06
-6.94842e-06
-6.94842e-06
-6.94842e-06
-6.94842e-06
-6.94842e-06
-6.94842e-06
-6.94842e-06
-6.94842e-06
-6.94842e-06
-6.94842e-06
-6.94842e-06
-6.94842e-06
-6.94842e-06
-6.94842e-06
-6.94842e-06
)
;
    }
    top
    {
        type            symmetryPlane;
        value           uniform 0;
    }
    walls
    {
        type            fixedValue;
        value           uniform 0;
    }
    frontAndBackPlanes
    {
        type            empty;
        value           nonuniform 0();
    }
}


// ************************************************************************* //
