/*--------------------------------*- C++ -*----------------------------------*\
| =========                 |                                                 |
| \\      /  F ield         | OpenFOAM: The Open Source CFD Toolbox           |
|  \\    /   O peration     | Version:  2.4.x                                 |
|   \\  /    A nd           | Web:      www.OpenFOAM.org                      |
|    \\/     M anipulation  |                                                 |
\*---------------------------------------------------------------------------*/
FoamFile
{
    version     2.0;
    format      ascii;
    class       volVectorField;
    location    "12.1";
    object      Ua;
}
// * * * * * * * * * * * * * * * * * * * * * * * * * * * * * * * * * * * * * //

dimensions      [0 1 -1 0 0 0 0];

internalField   nonuniform List<vector> 
360
(
(-1.79019e-32 -1.02424e-31 0)
(-6.68399e-10 -2.6655e-09 0)
(-1.39642e-09 -4.76947e-09 0)
(-2.06297e-09 -6.6557e-09 0)
(-2.75854e-09 -8.68976e-09 0)
(-3.50187e-09 -1.0863e-08 0)
(-4.27767e-09 -1.31075e-08 0)
(-5.07981e-09 -1.54122e-08 0)
(-5.91024e-09 -1.77868e-08 0)
(-6.77162e-09 -2.02386e-08 0)
(-7.66544e-09 -2.2771e-08 0)
(-8.59195e-09 -2.53838e-08 0)
(-9.55055e-09 -2.80744e-08 0)
(-1.05401e-08 -3.08389e-08 0)
(-1.15594e-08 -3.36729e-08 0)
(-1.26068e-08 -3.65717e-08 0)
(-1.36806e-08 -3.953e-08 0)
(-1.47787e-08 -4.25416e-08 0)
(-1.58989e-08 -4.55997e-08 0)
(-1.70386e-08 -4.86974e-08 0)
(-1.81954e-08 -5.18275e-08 0)
(-1.93667e-08 -5.49826e-08 0)
(-2.05499e-08 -5.81559e-08 0)
(-2.17426e-08 -6.13405e-08 0)
(-2.29421e-08 -6.45295e-08 0)
(-2.4146e-08 -6.77166e-08 0)
(-2.5352e-08 -7.08954e-08 0)
(-2.65578e-08 -7.40605e-08 0)
(-2.77616e-08 -7.72068e-08 0)
(-2.89612e-08 -8.03292e-08 0)
(-3.0155e-08 -8.34233e-08 0)
(-3.13414e-08 -8.64857e-08 0)
(-3.25189e-08 -8.95126e-08 0)
(-3.36863e-08 -9.25014e-08 0)
(-3.48426e-08 -9.54501e-08 0)
(-3.59868e-08 -9.83561e-08 0)
(-3.71181e-08 -1.01218e-07 0)
(-3.82361e-08 -1.04035e-07 0)
(-3.93402e-08 -1.06806e-07 0)
(-4.04301e-08 -1.09531e-07 0)
(-4.15056e-08 -1.12209e-07 0)
(-4.25666e-08 -1.14842e-07 0)
(-4.36131e-08 -1.17428e-07 0)
(-4.4645e-08 -1.19969e-07 0)
(-4.56629e-08 -1.22466e-07 0)
(-4.66667e-08 -1.24919e-07 0)
(-4.76568e-08 -1.27331e-07 0)
(-4.86335e-08 -1.297e-07 0)
(-4.95969e-08 -1.32029e-07 0)
(-5.05478e-08 -1.34319e-07 0)
(-5.14866e-08 -1.36572e-07 0)
(-5.24136e-08 -1.38789e-07 0)
(-5.33293e-08 -1.40971e-07 0)
(-5.42342e-08 -1.4312e-07 0)
(-5.51288e-08 -1.45237e-07 0)
(-5.60135e-08 -1.47323e-07 0)
(-5.68888e-08 -1.49379e-07 0)
(-5.77552e-08 -1.51408e-07 0)
(-5.8613e-08 -1.5341e-07 0)
(-5.94626e-08 -1.55385e-07 0)
(-6.03045e-08 -1.57336e-07 0)
(-6.11392e-08 -1.59264e-07 0)
(-6.19671e-08 -1.61169e-07 0)
(-6.27887e-08 -1.63053e-07 0)
(-6.36042e-08 -1.64917e-07 0)
(-6.44138e-08 -1.66761e-07 0)
(-6.5218e-08 -1.68586e-07 0)
(-6.60171e-08 -1.70393e-07 0)
(-6.68113e-08 -1.72183e-07 0)
(-6.76006e-08 -1.73955e-07 0)
(-6.83854e-08 -1.75711e-07 0)
(-6.91662e-08 -1.77452e-07 0)
(-6.9943e-08 -1.79178e-07 0)
(-7.0716e-08 -1.80888e-07 0)
(-7.14855e-08 -1.82585e-07 0)
(-7.22516e-08 -1.84268e-07 0)
(-7.30145e-08 -1.85938e-07 0)
(-7.37741e-08 -1.87594e-07 0)
(-7.45305e-08 -1.89237e-07 0)
(-7.52838e-08 -1.90867e-07 0)
(-7.60339e-08 -1.92483e-07 0)
(-7.6781e-08 -1.94086e-07 0)
(-7.75252e-08 -1.95676e-07 0)
(-7.82665e-08 -1.97254e-07 0)
(-7.90051e-08 -1.98819e-07 0)
(-7.97409e-08 -2.00372e-07 0)
(-8.0474e-08 -2.01912e-07 0)
(-8.12042e-08 -2.03439e-07 0)
(-8.19315e-08 -2.04953e-07 0)
(-8.26557e-08 -2.06453e-07 0)
(-8.33767e-08 -2.07939e-07 0)
(-8.40946e-08 -2.09412e-07 0)
(-8.48092e-08 -2.10871e-07 0)
(-8.55205e-08 -2.12315e-07 0)
(-8.62287e-08 -2.13745e-07 0)
(-8.69336e-08 -2.15161e-07 0)
(-8.76353e-08 -2.16563e-07 0)
(-8.83337e-08 -2.17949e-07 0)
(-8.90288e-08 -2.19321e-07 0)
(-8.97205e-08 -2.20678e-07 0)
(-9.04088e-08 -2.2202e-07 0)
(-9.10937e-08 -2.23346e-07 0)
(-9.17753e-08 -2.24656e-07 0)
(-9.24537e-08 -2.25952e-07 0)
(-9.3129e-08 -2.27231e-07 0)
(-9.38014e-08 -2.28496e-07 0)
(-9.44711e-08 -2.29745e-07 0)
(-9.51384e-08 -2.3098e-07 0)
(-9.58036e-08 -2.32199e-07 0)
(-9.64671e-08 -2.33405e-07 0)
(-9.71293e-08 -2.34597e-07 0)
(-9.77905e-08 -2.35774e-07 0)
(-9.84513e-08 -2.36939e-07 0)
(-9.91119e-08 -2.3809e-07 0)
(-9.97729e-08 -2.39228e-07 0)
(-1.00435e-07 -2.40353e-07 0)
(-1.01097e-07 -2.41465e-07 0)
(-1.01761e-07 -2.42563e-07 0)
(-1.02425e-07 -2.43646e-07 0)
(-1.03091e-07 -2.44712e-07 0)
(-1.03756e-07 -2.45762e-07 0)
(-1.04422e-07 -2.46792e-07 0)
(-1.05088e-07 -2.47803e-07 0)
(-1.05753e-07 -2.48791e-07 0)
(-1.06417e-07 -2.49756e-07 0)
(-1.07082e-07 -2.50699e-07 0)
(-1.07749e-07 -2.51621e-07 0)
(-1.08423e-07 -2.52526e-07 0)
(-1.09108e-07 -2.53418e-07 0)
(-1.09812e-07 -2.54305e-07 0)
(-1.10543e-07 -2.55193e-07 0)
(-1.11308e-07 -2.56088e-07 0)
(-1.12114e-07 -2.56991e-07 0)
(-1.1296e-07 -2.57895e-07 0)
(-1.13829e-07 -2.58781e-07 0)
(-1.1468e-07 -2.59606e-07 0)
(-1.15443e-07 -2.60305e-07 0)
(-1.16036e-07 -2.60816e-07 0)
(-1.16419e-07 -2.61123e-07 0)
(-1.16616e-07 -2.61267e-07 0)
(-1.16701e-07 -2.61319e-07 0)
(-1.16749e-07 -2.61338e-07 0)
(-1.16806e-07 -2.61381e-07 0)
(-1.16923e-07 -2.61509e-07 0)
(-1.16995e-07 -2.61543e-07 0)
(-1.17055e-07 -2.61548e-07 0)
(-1.17194e-07 -2.61536e-07 0)
(-0.0316811 -1.22155e-05 0)
(-0.135602 -0.000131369 0)
(-0.230965 -0.000158382 0)
(-0.307997 -0.000179282 0)
(-0.372334 -0.000186569 0)
(-0.42703 -0.000186325 0)
(-0.474204 -0.000174047 0)
(-0.515373 -0.000146546 0)
(-0.551665 -0.000101151 0)
(-0.583947 -3.58625e-05 0)
(-0.612896 5.09567e-05 0)
(-0.639047 0.000159815 0)
(-0.662822 0.000290406 0)
(-0.684559 0.000442228 0)
(-0.704524 0.000614198 0)
(-0.72293 0.000804798 0)
(-0.739944 0.00101211 0)
(-0.755701 0.00123383 0)
(-0.770309 0.00146722 0)
(-0.783856 0.00170907 0)
(-0.79641 0.0019556 0)
(-0.808033 0.00220242 0)
(-0.818773 0.00244437 0)
(-0.828674 0.00267545 0)
(-0.837778 0.00288818 0)
(-0.846124 0.00307219 0)
(-0.853751 0.00321202 0)
(-0.860701 0.00328632 0)
(-0.867022 0.00327171 0)
(-0.872764 0.00315189 0)
(-0.877982 0.00292621 0)
(-0.882729 0.00261079 0)
(-0.887058 0.00223155 0)
(-0.891011 0.00181557 0)
(-0.894629 0.00138557 0)
(-0.897944 0.000958222 0)
(-0.900984 0.00054473 0)
(-0.903774 0.000152037 0)
(-0.906335 -0.000215946 0)
(-0.908687 -0.000557385 0)
(-0.910846 -0.000871815 0)
(-0.912829 -0.00115966 0)
(-0.914649 -0.0014219 0)
(-0.91632 -0.00165983 0)
(-0.917852 -0.00187494 0)
(-0.919258 -0.00206878 0)
(-0.920548 -0.00224291 0)
(-0.921729 -0.00239889 0)
(-0.922811 -0.0025382 0)
(-0.923802 -0.00266224 0)
(-0.924708 -0.00277237 0)
(-0.925537 -0.00286985 0)
(-0.926294 -0.00295587 0)
(-0.926985 -0.00303152 0)
(-0.927621 -0.00309852 0)
(-0.928212 -0.00315811 0)
(-0.928758 -0.00321082 0)
(-0.929262 -0.0032572 0)
(-0.929726 -0.00329779 0)
(-0.930151 -0.00333314 0)
(-0.930539 -0.00336381 0)
(-0.930892 -0.00339033 0)
(-0.931211 -0.00341319 0)
(-0.931499 -0.00343285 0)
(-0.931758 -0.00344973 0)
(-0.931988 -0.00346421 0)
(-0.932193 -0.0034766 0)
(-0.932373 -0.00348718 0)
(-0.932531 -0.00349617 0)
(-0.932667 -0.00350377 0)
(-0.932784 -0.00351011 0)
(-0.932882 -0.00351531 0)
(-0.932964 -0.00351944 0)
(-0.933031 -0.00352254 0)
(-0.933083 -0.00352458 0)
(-0.933123 -0.00352544 0)
(-0.933151 -0.00352493 0)
(-0.933168 -0.00352271 0)
(-0.933176 -0.00351826 0)
(-0.933175 -0.00351098 0)
(-0.933166 -0.0035001 0)
(-0.93315 -0.00348509 0)
(-0.933128 -0.00346635 0)
(-0.9331 -0.00344616 0)
(-0.933066 -0.00343004 0)
(-0.933026 -0.00342619 0)
(-0.932981 -0.0034383 0)
(-0.932934 -0.00345641 0)
(-0.93289 -0.00346646 0)
(-0.932832 -0.00346909 0)
(-0.918088 -0.00377421 0)
(-0.91584 -0.00377368 0)
(-0.913514 -0.00387366 0)
(-0.911151 -0.00391862 0)
(-0.908753 -0.00392607 0)
(-0.906325 -0.00389566 0)
(-0.903871 -0.00382934 0)
(-0.901395 -0.00373215 0)
(-0.898901 -0.00356496 0)
(-0.896402 -0.00362049 0)
(-0.89387 -0.00279831 0)
(-0.891391 -0.00407385 0)
(-0.888859 -0.00115506 0)
(-0.88648 -0.00554408 0)
(-0.883959 0.00130565 0)
(-0.881462 -0.0157113 0)
(-0.879312 -0.0372793 0)
(-0.876994 -0.0397472 0)
(-0.874792 -0.039613 0)
(-0.872739 -0.0396204 0)
(-0.870801 -0.0396178 0)
(-0.869002 -0.0396153 0)
(-0.867361 -0.0396122 0)
(-0.865894 -0.0396085 0)
(-0.864618 -0.0396044 0)
(-0.863548 -0.0395999 0)
(-0.862693 -0.0395952 0)
(-0.862055 -0.0395905 0)
(-0.861643 -0.0395858 0)
(-0.861465 -0.0395819 0)
(-0.86146 -0.0395779 0)
(-0.861655 -0.0395745 0)
(-0.862015 -0.0395717 0)
(-0.862517 -0.0395695 0)
(-0.863135 -0.0395677 0)
(-0.863843 -0.0395662 0)
(-0.864611 -0.039565 0)
(-0.865408 -0.0395639 0)
(-0.866201 -0.0395628 0)
(-0.866951 -0.0395613 0)
(-0.86762 -0.0395588 0)
(-0.868058 -0.0395543 0)
(-0.868169 -0.0395507 0)
(-0.868175 -0.0395497 0)
(-0.868175 -0.0395496 0)
(-0.868175 -0.0395496 0)
(-0.868175 -0.0395496 0)
(-0.868175 -0.0395496 0)
(-0.868175 -0.0395496 0)
(-0.868175 -0.0395496 0)
(-0.868175 -0.0395496 0)
(-0.868175 -0.0395496 0)
(-0.868175 -0.0395496 0)
(-0.868175 -0.0395496 0)
(-0.868175 -0.0395496 0)
(-0.868175 -0.0395496 0)
(-0.868175 -0.0395496 0)
(-0.868175 -0.0395496 0)
(-0.868175 -0.0395496 0)
(-0.868175 -0.0395496 0)
(-0.868175 -0.0395496 0)
(-0.868175 -0.0395496 0)
(-0.868175 -0.0395496 0)
(-0.868175 -0.0395496 0)
(-0.868175 -0.0395496 0)
(-0.868175 -0.0395496 0)
(-0.868175 -0.0395496 0)
(-0.868175 -0.0395496 0)
(-0.868175 -0.0395496 0)
(-0.868175 -0.0395496 0)
(-0.868175 -0.0395496 0)
(-0.868175 -0.0395496 0)
(-0.868175 -0.0395496 0)
(-0.868175 -0.0395496 0)
(-0.868175 -0.0395496 0)
(-0.868175 -0.0395496 0)
(-0.868175 -0.0395496 0)
(-0.868175 -0.0395496 0)
(-0.868175 -0.0395496 0)
(-0.868175 -0.0395496 0)
(-0.868175 -0.0395496 0)
(-0.868175 -0.0395496 0)
(-0.868175 -0.0395496 0)
(-0.868175 -0.0395496 0)
(-0.868175 -0.0395496 0)
(-0.868175 -0.0395496 0)
(-0.868175 -0.0395496 0)
(-0.868175 -0.0395496 0)
(-0.868175 -0.0395496 0)
(-0.868175 -0.0395496 0)
(-0.868175 -0.0395496 0)
(-0.868175 -0.0395496 0)
(-0.868175 -0.0395496 0)
(-0.868175 -0.0395496 0)
(-0.868175 -0.0395496 0)
(-0.868175 -0.0395496 0)
(-0.868175 -0.0395496 0)
(-0.868175 -0.0395496 0)
(-0.868175 -0.0395496 0)
(-0.868175 -0.0395496 0)
(-0.868175 -0.0395496 0)
(-0.868175 -0.0395496 0)
(-0.868175 -0.0395496 0)
(-0.868175 -0.0395496 0)
(-0.868175 -0.0395496 0)
(-0.868175 -0.0395496 0)
(-0.868175 -0.0395496 0)
(-0.868175 -0.0395496 0)
(-0.868175 -0.0395496 0)
(-0.868175 -0.0395496 0)
(-0.868175 -0.0395496 0)
(-0.868175 -0.0395496 0)
(-0.868175 -0.0395496 0)
(-0.868175 -0.0395496 0)
(-0.868175 -0.0395496 0)
(-0.868175 -0.0395496 0)
(-0.868175 -0.0395496 0)
(-0.868175 -0.0395496 0)
(-0.868175 -0.0395496 0)
(-0.868175 -0.0395494 0)
(-0.868175 -0.039541 0)
(-0.868172 -0.0391964 0)
(-0.868109 -0.0224994 0)
)
;

boundaryField
{
    inandouthalf11
    {
        type            cyclic;
    }
    inandouthalf12
    {
        type            cyclic;
    }
    inandouthalf21
    {
        type            cyclic;
    }
    inandouthalf22
    {
        type            cyclic;
    }
    inandouthalf31
    {
        type            cyclic;
    }
    inandouthalf32
    {
        type            cyclic;
    }
    inandouthalf41
    {
        type            cyclic;
    }
    inandouthalf42
    {
        type            cyclic;
    }
    top
    {
        type            symmetryPlane;
    }
    walls
    {
        type            fixedValue;
        value           uniform (0 0 0);
    }
    frontAndBackPlanes
    {
        type            empty;
    }
}


// ************************************************************************* //
