/*--------------------------------*- C++ -*----------------------------------*\
| =========                 |                                                 |
| \\      /  F ield         | OpenFOAM: The Open Source CFD Toolbox           |
|  \\    /   O peration     | Version:  2.4.x                                 |
|   \\  /    A nd           | Web:      www.OpenFOAM.org                      |
|    \\/     M anipulation  |                                                 |
\*---------------------------------------------------------------------------*/
FoamFile
{
    version     2.0;
    format      ascii;
    class       volVectorField;
    location    "12.1";
    object      Ua_0;
}
// * * * * * * * * * * * * * * * * * * * * * * * * * * * * * * * * * * * * * //

dimensions      [0 1 -1 0 0 0 0];

internalField   nonuniform List<vector> 
360
(
(-1.79032e-32 -1.02423e-31 0)
(-6.68603e-10 -2.66609e-09 0)
(-1.39685e-09 -4.77055e-09 0)
(-2.06361e-09 -6.65723e-09 0)
(-2.75941e-09 -8.69178e-09 0)
(-3.50298e-09 -1.08655e-08 0)
(-4.27904e-09 -1.31106e-08 0)
(-5.08144e-09 -1.54159e-08 0)
(-5.91214e-09 -1.77911e-08 0)
(-6.7738e-09 -2.02434e-08 0)
(-7.6679e-09 -2.27765e-08 0)
(-8.59471e-09 -2.53899e-08 0)
(-9.5536e-09 -2.80811e-08 0)
(-1.05435e-08 -3.08462e-08 0)
(-1.15631e-08 -3.36809e-08 0)
(-1.26108e-08 -3.65803e-08 0)
(-1.36849e-08 -3.95392e-08 0)
(-1.47833e-08 -4.25515e-08 0)
(-1.59037e-08 -4.56101e-08 0)
(-1.70438e-08 -4.87084e-08 0)
(-1.82009e-08 -5.18391e-08 0)
(-1.93725e-08 -5.49947e-08 0)
(-2.0556e-08 -5.81685e-08 0)
(-2.17489e-08 -6.13536e-08 0)
(-2.29486e-08 -6.45431e-08 0)
(-2.41528e-08 -6.77306e-08 0)
(-2.5359e-08 -7.09098e-08 0)
(-2.65651e-08 -7.40753e-08 0)
(-2.77691e-08 -7.72219e-08 0)
(-2.89689e-08 -8.03446e-08 0)
(-3.01629e-08 -8.3439e-08 0)
(-3.13494e-08 -8.65016e-08 0)
(-3.25271e-08 -8.95288e-08 0)
(-3.36947e-08 -9.25178e-08 0)
(-3.48511e-08 -9.54666e-08 0)
(-3.59955e-08 -9.83728e-08 0)
(-3.71269e-08 -1.01235e-07 0)
(-3.8245e-08 -1.04052e-07 0)
(-3.93493e-08 -1.06823e-07 0)
(-4.04393e-08 -1.09548e-07 0)
(-4.15148e-08 -1.12227e-07 0)
(-4.2576e-08 -1.14859e-07 0)
(-4.36225e-08 -1.17446e-07 0)
(-4.46546e-08 -1.19987e-07 0)
(-4.56725e-08 -1.22484e-07 0)
(-4.66765e-08 -1.24937e-07 0)
(-4.76667e-08 -1.27348e-07 0)
(-4.86434e-08 -1.29718e-07 0)
(-4.96069e-08 -1.32047e-07 0)
(-5.05579e-08 -1.34337e-07 0)
(-5.14968e-08 -1.3659e-07 0)
(-5.24239e-08 -1.38807e-07 0)
(-5.33397e-08 -1.40989e-07 0)
(-5.42447e-08 -1.43138e-07 0)
(-5.51393e-08 -1.45255e-07 0)
(-5.60241e-08 -1.47341e-07 0)
(-5.68995e-08 -1.49398e-07 0)
(-5.7766e-08 -1.51427e-07 0)
(-5.86239e-08 -1.53429e-07 0)
(-5.94736e-08 -1.55404e-07 0)
(-6.03156e-08 -1.57355e-07 0)
(-6.11504e-08 -1.59283e-07 0)
(-6.19785e-08 -1.61188e-07 0)
(-6.28001e-08 -1.63073e-07 0)
(-6.36157e-08 -1.64937e-07 0)
(-6.44255e-08 -1.66781e-07 0)
(-6.52298e-08 -1.68606e-07 0)
(-6.6029e-08 -1.70413e-07 0)
(-6.68233e-08 -1.72203e-07 0)
(-6.76127e-08 -1.73976e-07 0)
(-6.83977e-08 -1.75732e-07 0)
(-6.91786e-08 -1.77473e-07 0)
(-6.99556e-08 -1.79199e-07 0)
(-7.07287e-08 -1.8091e-07 0)
(-7.14983e-08 -1.82607e-07 0)
(-7.22646e-08 -1.8429e-07 0)
(-7.30276e-08 -1.8596e-07 0)
(-7.37874e-08 -1.87617e-07 0)
(-7.45439e-08 -1.8926e-07 0)
(-7.52973e-08 -1.90889e-07 0)
(-7.60476e-08 -1.92506e-07 0)
(-7.67949e-08 -1.94109e-07 0)
(-7.75392e-08 -1.957e-07 0)
(-7.82807e-08 -1.97278e-07 0)
(-7.90194e-08 -1.98843e-07 0)
(-7.97554e-08 -2.00396e-07 0)
(-8.04886e-08 -2.01936e-07 0)
(-8.1219e-08 -2.03464e-07 0)
(-8.19465e-08 -2.04978e-07 0)
(-8.26708e-08 -2.06478e-07 0)
(-8.3392e-08 -2.07965e-07 0)
(-8.41101e-08 -2.09438e-07 0)
(-8.48248e-08 -2.10897e-07 0)
(-8.55364e-08 -2.12342e-07 0)
(-8.62447e-08 -2.13772e-07 0)
(-8.69498e-08 -2.15188e-07 0)
(-8.76517e-08 -2.1659e-07 0)
(-8.83503e-08 -2.17977e-07 0)
(-8.90455e-08 -2.19349e-07 0)
(-8.97374e-08 -2.20706e-07 0)
(-9.04258e-08 -2.22048e-07 0)
(-9.11109e-08 -2.23375e-07 0)
(-9.17927e-08 -2.24685e-07 0)
(-9.24712e-08 -2.25981e-07 0)
(-9.31467e-08 -2.27261e-07 0)
(-9.38193e-08 -2.28526e-07 0)
(-9.44892e-08 -2.29775e-07 0)
(-9.51567e-08 -2.3101e-07 0)
(-9.58221e-08 -2.3223e-07 0)
(-9.64857e-08 -2.33436e-07 0)
(-9.71481e-08 -2.34628e-07 0)
(-9.78094e-08 -2.35806e-07 0)
(-9.84704e-08 -2.36971e-07 0)
(-9.91312e-08 -2.38122e-07 0)
(-9.97924e-08 -2.39261e-07 0)
(-1.00454e-07 -2.40386e-07 0)
(-1.01117e-07 -2.41498e-07 0)
(-1.01781e-07 -2.42596e-07 0)
(-1.02445e-07 -2.43679e-07 0)
(-1.03111e-07 -2.44746e-07 0)
(-1.03777e-07 -2.45796e-07 0)
(-1.04443e-07 -2.46826e-07 0)
(-1.05109e-07 -2.47837e-07 0)
(-1.05774e-07 -2.48825e-07 0)
(-1.06438e-07 -2.49791e-07 0)
(-1.07103e-07 -2.50734e-07 0)
(-1.07771e-07 -2.51656e-07 0)
(-1.08444e-07 -2.52561e-07 0)
(-1.0913e-07 -2.53454e-07 0)
(-1.09834e-07 -2.54341e-07 0)
(-1.10565e-07 -2.55229e-07 0)
(-1.11331e-07 -2.56124e-07 0)
(-1.12137e-07 -2.57027e-07 0)
(-1.12983e-07 -2.57932e-07 0)
(-1.13852e-07 -2.58818e-07 0)
(-1.14704e-07 -2.59643e-07 0)
(-1.15466e-07 -2.60343e-07 0)
(-1.1606e-07 -2.60854e-07 0)
(-1.16443e-07 -2.6116e-07 0)
(-1.1664e-07 -2.61304e-07 0)
(-1.16725e-07 -2.61357e-07 0)
(-1.16773e-07 -2.61375e-07 0)
(-1.1683e-07 -2.61418e-07 0)
(-1.16947e-07 -2.61546e-07 0)
(-1.17019e-07 -2.6158e-07 0)
(-1.17079e-07 -2.61585e-07 0)
(-1.17218e-07 -2.61574e-07 0)
(-0.0316872 -1.22025e-05 0)
(-0.13561 -0.000131188 0)
(-0.230973 -0.000158152 0)
(-0.308005 -0.000179017 0)
(-0.372343 -0.000186286 0)
(-0.42704 -0.000186025 0)
(-0.474215 -0.000173729 0)
(-0.515385 -0.000146207 0)
(-0.551678 -0.000100787 0)
(-0.583962 -3.54613e-05 0)
(-0.612912 5.14013e-05 0)
(-0.639064 0.000160309 0)
(-0.662841 0.000290961 0)
(-0.684579 0.000442852 0)
(-0.704545 0.000614899 0)
(-0.722951 0.00080558 0)
(-0.739966 0.00101298 0)
(-0.755724 0.00123479 0)
(-0.770333 0.00146826 0)
(-0.78388 0.00171018 0)
(-0.796435 0.00195679 0)
(-0.808057 0.00220366 0)
(-0.818797 0.00244565 0)
(-0.828698 0.00267674 0)
(-0.837802 0.00288944 0)
(-0.846147 0.00307337 0)
(-0.853773 0.00321305 0)
(-0.860722 0.00328709 0)
(-0.867042 0.00327212 0)
(-0.872783 0.00315187 0)
(-0.878 0.00292576 0)
(-0.882747 0.00260994 0)
(-0.887074 0.00223038 0)
(-0.891027 0.00181417 0)
(-0.894644 0.001384 0)
(-0.897958 0.000956537 0)
(-0.900997 0.000542973 0)
(-0.903786 0.000150237 0)
(-0.906347 -0.000217769 0)
(-0.908698 -0.000559216 0)
(-0.910856 -0.000873646 0)
(-0.912838 -0.00116149 0)
(-0.914658 -0.00142372 0)
(-0.916328 -0.00166164 0)
(-0.91786 -0.00187673 0)
(-0.919266 -0.00207056 0)
(-0.920554 -0.00224469 0)
(-0.921735 -0.00240066 0)
(-0.922817 -0.00253996 0)
(-0.923807 -0.002664 0)
(-0.924713 -0.00277413 0)
(-0.925541 -0.0028716 0)
(-0.926298 -0.00295762 0)
(-0.926988 -0.00303327 0)
(-0.927624 -0.00310027 0)
(-0.928215 -0.00315987 0)
(-0.928761 -0.00321258 0)
(-0.929265 -0.00325896 0)
(-0.929728 -0.00329956 0)
(-0.930152 -0.00333492 0)
(-0.93054 -0.0033656 0)
(-0.930892 -0.00339213 0)
(-0.931212 -0.00341499 0)
(-0.9315 -0.00343467 0)
(-0.931758 -0.00345156 0)
(-0.931988 -0.00346605 0)
(-0.932192 -0.00347846 0)
(-0.932372 -0.00348905 0)
(-0.93253 -0.00349806 0)
(-0.932666 -0.00350566 0)
(-0.932782 -0.00351202 0)
(-0.932881 -0.00351723 0)
(-0.932962 -0.00352138 0)
(-0.933029 -0.00352449 0)
(-0.933081 -0.00352653 0)
(-0.933121 -0.0035274 0)
(-0.933149 -0.0035269 0)
(-0.933166 -0.00352467 0)
(-0.933173 -0.00352022 0)
(-0.933172 -0.00351294 0)
(-0.933163 -0.00350204 0)
(-0.933147 -0.003487 0)
(-0.933124 -0.00346822 0)
(-0.933096 -0.00344797 0)
(-0.933062 -0.00343177 0)
(-0.933022 -0.00342785 0)
(-0.932977 -0.0034399 0)
(-0.93293 -0.00345796 0)
(-0.932886 -0.00346798 0)
(-0.932828 -0.00347058 0)
(-0.918068 -0.00377518 0)
(-0.91582 -0.00377471 0)
(-0.913494 -0.00387451 0)
(-0.91113 -0.00391934 0)
(-0.908733 -0.00392666 0)
(-0.906304 -0.00389613 0)
(-0.90385 -0.00382969 0)
(-0.901373 -0.00373238 0)
(-0.89888 -0.00356504 0)
(-0.896381 -0.00362056 0)
(-0.893848 -0.00279799 0)
(-0.891369 -0.00407393 0)
(-0.888837 -0.00115399 0)
(-0.886458 -0.00554427 0)
(-0.883937 0.00130924 0)
(-0.88144 -0.0157018 0)
(-0.87929 -0.037276 0)
(-0.876972 -0.0397472 0)
(-0.87477 -0.039613 0)
(-0.872717 -0.0396204 0)
(-0.870779 -0.0396178 0)
(-0.86898 -0.0396153 0)
(-0.867339 -0.0396122 0)
(-0.865872 -0.0396085 0)
(-0.864596 -0.0396044 0)
(-0.863526 -0.0395999 0)
(-0.862672 -0.0395952 0)
(-0.862035 -0.0395905 0)
(-0.861623 -0.0395858 0)
(-0.861445 -0.0395819 0)
(-0.861441 -0.0395779 0)
(-0.861636 -0.0395745 0)
(-0.861996 -0.0395717 0)
(-0.862498 -0.0395695 0)
(-0.863117 -0.0395677 0)
(-0.863825 -0.0395662 0)
(-0.864593 -0.039565 0)
(-0.86539 -0.0395639 0)
(-0.866182 -0.0395628 0)
(-0.866933 -0.0395613 0)
(-0.867601 -0.0395588 0)
(-0.868039 -0.0395543 0)
(-0.868151 -0.0395507 0)
(-0.868156 -0.0395497 0)
(-0.868156 -0.0395496 0)
(-0.868156 -0.0395496 0)
(-0.868156 -0.0395496 0)
(-0.868156 -0.0395496 0)
(-0.868156 -0.0395496 0)
(-0.868156 -0.0395496 0)
(-0.868156 -0.0395496 0)
(-0.868156 -0.0395496 0)
(-0.868156 -0.0395496 0)
(-0.868156 -0.0395496 0)
(-0.868156 -0.0395496 0)
(-0.868156 -0.0395496 0)
(-0.868156 -0.0395496 0)
(-0.868156 -0.0395496 0)
(-0.868156 -0.0395496 0)
(-0.868156 -0.0395496 0)
(-0.868156 -0.0395496 0)
(-0.868156 -0.0395496 0)
(-0.868156 -0.0395496 0)
(-0.868156 -0.0395496 0)
(-0.868156 -0.0395496 0)
(-0.868156 -0.0395496 0)
(-0.868156 -0.0395496 0)
(-0.868156 -0.0395496 0)
(-0.868156 -0.0395496 0)
(-0.868156 -0.0395496 0)
(-0.868156 -0.0395496 0)
(-0.868156 -0.0395496 0)
(-0.868156 -0.0395496 0)
(-0.868156 -0.0395496 0)
(-0.868156 -0.0395496 0)
(-0.868156 -0.0395496 0)
(-0.868156 -0.0395496 0)
(-0.868156 -0.0395496 0)
(-0.868156 -0.0395496 0)
(-0.868156 -0.0395496 0)
(-0.868156 -0.0395496 0)
(-0.868156 -0.0395496 0)
(-0.868156 -0.0395496 0)
(-0.868156 -0.0395496 0)
(-0.868156 -0.0395496 0)
(-0.868156 -0.0395496 0)
(-0.868156 -0.0395496 0)
(-0.868156 -0.0395496 0)
(-0.868156 -0.0395496 0)
(-0.868156 -0.0395496 0)
(-0.868156 -0.0395496 0)
(-0.868156 -0.0395496 0)
(-0.868156 -0.0395496 0)
(-0.868156 -0.0395496 0)
(-0.868156 -0.0395496 0)
(-0.868156 -0.0395496 0)
(-0.868156 -0.0395496 0)
(-0.868156 -0.0395496 0)
(-0.868156 -0.0395496 0)
(-0.868156 -0.0395496 0)
(-0.868156 -0.0395496 0)
(-0.868156 -0.0395496 0)
(-0.868156 -0.0395496 0)
(-0.868156 -0.0395496 0)
(-0.868156 -0.0395496 0)
(-0.868156 -0.0395496 0)
(-0.868156 -0.0395496 0)
(-0.868156 -0.0395496 0)
(-0.868156 -0.0395496 0)
(-0.868156 -0.0395496 0)
(-0.868156 -0.0395496 0)
(-0.868156 -0.0395496 0)
(-0.868156 -0.0395496 0)
(-0.868156 -0.0395496 0)
(-0.868156 -0.0395496 0)
(-0.868156 -0.0395496 0)
(-0.868156 -0.0395496 0)
(-0.868156 -0.0395496 0)
(-0.868156 -0.0395496 0)
(-0.868156 -0.0395494 0)
(-0.868156 -0.039541 0)
(-0.868154 -0.0391964 0)
(-0.86809 -0.0224994 0)
)
;

boundaryField
{
    inandouthalf11
    {
        type            cyclic;
    }
    inandouthalf12
    {
        type            cyclic;
    }
    inandouthalf21
    {
        type            cyclic;
    }
    inandouthalf22
    {
        type            cyclic;
    }
    inandouthalf31
    {
        type            cyclic;
    }
    inandouthalf32
    {
        type            cyclic;
    }
    inandouthalf41
    {
        type            cyclic;
    }
    inandouthalf42
    {
        type            cyclic;
    }
    top
    {
        type            symmetryPlane;
    }
    walls
    {
        type            fixedValue;
        value           uniform (0 0 0);
    }
    frontAndBackPlanes
    {
        type            empty;
    }
}


// ************************************************************************* //
