/*--------------------------------*- C++ -*----------------------------------*\
| =========                 |                                                 |
| \\      /  F ield         | OpenFOAM: The Open Source CFD Toolbox           |
|  \\    /   O peration     | Version:  2.4.x                                 |
|   \\  /    A nd           | Web:      www.OpenFOAM.org                      |
|    \\/     M anipulation  |                                                 |
\*---------------------------------------------------------------------------*/
FoamFile
{
    version     2.0;
    format      ascii;
    class       volVectorField;
    location    "12.1";
    object      Ub_0;
}
// * * * * * * * * * * * * * * * * * * * * * * * * * * * * * * * * * * * * * //

dimensions      [0 1 -1 0 0 0 0];

internalField   nonuniform List<vector> 
360
(
(-1.93057e-05 1.12596e-09 0)
(-1.91983e-05 3.98058e-09 0)
(-1.91846e-05 7.32966e-09 0)
(-1.91998e-05 1.05199e-08 0)
(-1.92073e-05 1.37569e-08 0)
(-1.92102e-05 1.71504e-08 0)
(-1.92137e-05 2.06759e-08 0)
(-1.92181e-05 2.4309e-08 0)
(-1.92226e-05 2.80512e-08 0)
(-1.92271e-05 3.19121e-08 0)
(-1.92317e-05 3.58978e-08 0)
(-1.92364e-05 4.00083e-08 0)
(-1.92411e-05 4.42399e-08 0)
(-1.92458e-05 4.85868e-08 0)
(-1.92507e-05 5.3042e-08 0)
(-1.92556e-05 5.75981e-08 0)
(-1.92606e-05 6.22465e-08 0)
(-1.92656e-05 6.69775e-08 0)
(-1.92707e-05 7.17804e-08 0)
(-1.92759e-05 7.66446e-08 0)
(-1.92811e-05 8.15585e-08 0)
(-1.92864e-05 8.65107e-08 0)
(-1.92918e-05 9.14904e-08 0)
(-1.92972e-05 9.64866e-08 0)
(-1.93026e-05 1.01489e-07 0)
(-1.93081e-05 1.06487e-07 0)
(-1.93136e-05 1.1147e-07 0)
(-1.93192e-05 1.16431e-07 0)
(-1.93249e-05 1.21362e-07 0)
(-1.93305e-05 1.26253e-07 0)
(-1.93362e-05 1.311e-07 0)
(-1.9342e-05 1.35895e-07 0)
(-1.93478e-05 1.40633e-07 0)
(-1.93537e-05 1.4531e-07 0)
(-1.93595e-05 1.49923e-07 0)
(-1.93654e-05 1.54468e-07 0)
(-1.93714e-05 1.58942e-07 0)
(-1.93774e-05 1.63344e-07 0)
(-1.93835e-05 1.67674e-07 0)
(-1.93895e-05 1.71929e-07 0)
(-1.93956e-05 1.76111e-07 0)
(-1.94018e-05 1.80219e-07 0)
(-1.9408e-05 1.84253e-07 0)
(-1.94143e-05 1.88215e-07 0)
(-1.94206e-05 1.92106e-07 0)
(-1.94269e-05 1.95928e-07 0)
(-1.94333e-05 1.99682e-07 0)
(-1.94397e-05 2.03369e-07 0)
(-1.94462e-05 2.06992e-07 0)
(-1.94528e-05 2.10553e-07 0)
(-1.94594e-05 2.14054e-07 0)
(-1.94661e-05 2.17497e-07 0)
(-1.94728e-05 2.20884e-07 0)
(-1.94796e-05 2.24217e-07 0)
(-1.94864e-05 2.27498e-07 0)
(-1.94934e-05 2.30731e-07 0)
(-1.95004e-05 2.33915e-07 0)
(-1.95074e-05 2.37055e-07 0)
(-1.95146e-05 2.40151e-07 0)
(-1.95217e-05 2.43204e-07 0)
(-1.95291e-05 2.46217e-07 0)
(-1.95364e-05 2.49192e-07 0)
(-1.95438e-05 2.52131e-07 0)
(-1.95513e-05 2.55035e-07 0)
(-1.95589e-05 2.57905e-07 0)
(-1.95666e-05 2.60743e-07 0)
(-1.95744e-05 2.6355e-07 0)
(-1.95823e-05 2.66327e-07 0)
(-1.95903e-05 2.69076e-07 0)
(-1.95983e-05 2.71795e-07 0)
(-1.96065e-05 2.74487e-07 0)
(-1.96148e-05 2.77154e-07 0)
(-1.96231e-05 2.79794e-07 0)
(-1.96316e-05 2.82411e-07 0)
(-1.96402e-05 2.85003e-07 0)
(-1.9649e-05 2.87572e-07 0)
(-1.96578e-05 2.90118e-07 0)
(-1.96667e-05 2.92641e-07 0)
(-1.96758e-05 2.95141e-07 0)
(-1.9685e-05 2.97619e-07 0)
(-1.96944e-05 3.00073e-07 0)
(-1.97039e-05 3.02506e-07 0)
(-1.97135e-05 3.04916e-07 0)
(-1.97233e-05 3.07304e-07 0)
(-1.97332e-05 3.0967e-07 0)
(-1.97433e-05 3.12014e-07 0)
(-1.97535e-05 3.14336e-07 0)
(-1.9764e-05 3.16635e-07 0)
(-1.97745e-05 3.18912e-07 0)
(-1.97853e-05 3.21164e-07 0)
(-1.97962e-05 3.23393e-07 0)
(-1.98073e-05 3.25598e-07 0)
(-1.98187e-05 3.27777e-07 0)
(-1.98302e-05 3.29932e-07 0)
(-1.98419e-05 3.32062e-07 0)
(-1.98539e-05 3.34167e-07 0)
(-1.98661e-05 3.36246e-07 0)
(-1.98785e-05 3.38299e-07 0)
(-1.98911e-05 3.40326e-07 0)
(-1.9904e-05 3.42326e-07 0)
(-1.99172e-05 3.44299e-07 0)
(-1.99306e-05 3.46244e-07 0)
(-1.99444e-05 3.48162e-07 0)
(-1.99584e-05 3.50052e-07 0)
(-1.99727e-05 3.51914e-07 0)
(-1.99873e-05 3.53748e-07 0)
(-2.00023e-05 3.55555e-07 0)
(-2.00176e-05 3.57335e-07 0)
(-2.00332e-05 3.59087e-07 0)
(-2.00493e-05 3.60812e-07 0)
(-2.00657e-05 3.62511e-07 0)
(-2.00825e-05 3.64184e-07 0)
(-2.00998e-05 3.65831e-07 0)
(-2.01175e-05 3.67452e-07 0)
(-2.01357e-05 3.69048e-07 0)
(-2.01543e-05 3.70617e-07 0)
(-2.01735e-05 3.72159e-07 0)
(-2.01933e-05 3.73673e-07 0)
(-2.02136e-05 3.75157e-07 0)
(-2.02345e-05 3.7661e-07 0)
(-2.0256e-05 3.78029e-07 0)
(-2.02782e-05 3.79411e-07 0)
(-2.03011e-05 3.80753e-07 0)
(-2.03248e-05 3.82054e-07 0)
(-2.03493e-05 3.83311e-07 0)
(-2.03746e-05 3.84524e-07 0)
(-2.04008e-05 3.85697e-07 0)
(-2.0428e-05 3.86832e-07 0)
(-2.04562e-05 3.87939e-07 0)
(-2.04856e-05 3.89025e-07 0)
(-2.05162e-05 3.901e-07 0)
(-2.05481e-05 3.91169e-07 0)
(-2.05815e-05 3.92231e-07 0)
(-2.06167e-05 3.9327e-07 0)
(-2.06543e-05 3.94252e-07 0)
(-2.06943e-05 3.9511e-07 0)
(-2.07365e-05 3.95749e-07 0)
(-2.07815e-05 3.9608e-07 0)
(-2.08312e-05 3.96075e-07 0)
(-2.08877e-05 3.95802e-07 0)
(-2.09486e-05 3.9529e-07 0)
(-2.10209e-05 3.91767e-07 0)
(-2.15199e-05 3.94148e-07 0)
(-2.14458e-05 3.94235e-07 0)
(-2.15376e-05 2.9738e-07 0)
(-2.17983e-05 8.96992e-07 0)
(-0.000126259 -1.52175e-06 0)
(-0.0352615 1.2056e-05 0)
(-0.145594 6.47319e-05 0)
(-0.239339 4.38049e-05 0)
(-0.315067 4.27265e-05 0)
(-0.378238 3.65673e-05 0)
(-0.432075 2.95911e-05 0)
(-0.478636 2.2295e-05 0)
(-0.519389 1.50559e-05 0)
(-0.555433 8.24207e-06 0)
(-0.587614 2.15699e-06 0)
(-0.616593 -2.97778e-06 0)
(-0.642896 -7.0949e-06 0)
(-0.666938 -1.0243e-05 0)
(-0.689054 -1.24959e-05 0)
(-0.709512 -1.39652e-05 0)
(-0.728528 -1.47758e-05 0)
(-0.746277 -1.50503e-05 0)
(-0.762901 -1.49003e-05 0)
(-0.778516 -1.44236e-05 0)
(-0.793217 -1.3704e-05 0)
(-0.80708 -1.28112e-05 0)
(-0.820167 -1.18027e-05 0)
(-0.832527 -1.07252e-05 0)
(-0.844201 -9.61561e-06 0)
(-0.855219 -8.50085e-06 0)
(-0.865606 -7.39708e-06 0)
(-0.875378 -6.31113e-06 0)
(-0.884548 -5.24868e-06 0)
(-0.893126 -4.22713e-06 0)
(-0.901115 -3.28153e-06 0)
(-0.908522 -2.45356e-06 0)
(-0.915351 -1.77124e-06 0)
(-0.921608 -1.23727e-06 0)
(-0.927303 -8.33794e-07 0)
(-0.93245 -5.3457e-07 0)
(-0.937066 -3.14399e-07 0)
(-0.941174 -1.52879e-07 0)
(-0.944802 -3.46629e-08 0)
(-0.947982 5.1554e-08 0)
(-0.950747 1.13973e-07 0)
(-0.953135 1.58546e-07 0)
(-0.955181 1.897e-07 0)
(-0.956921 2.10705e-07 0)
(-0.958388 2.24003e-07 0)
(-0.959614 2.31432e-07 0)
(-0.960626 2.3439e-07 0)
(-0.96145 2.33949e-07 0)
(-0.962108 2.30936e-07 0)
(-0.96262 2.25994e-07 0)
(-0.963002 2.19623e-07 0)
(-0.963269 2.12218e-07 0)
(-0.963433 2.04087e-07 0)
(-0.963505 1.95476e-07 0)
(-0.963494 1.86579e-07 0)
(-0.963409 1.77455e-07 0)
(-0.96325 1.68135e-07 0)
(-0.963021 1.5872e-07 0)
(-0.962723 1.49301e-07 0)
(-0.962359 1.39959e-07 0)
(-0.96193 1.30764e-07 0)
(-0.961436 1.21776e-07 0)
(-0.96088 1.13045e-07 0)
(-0.960261 1.04616e-07 0)
(-0.95958 9.65218e-08 0)
(-0.958839 8.87885e-08 0)
(-0.958036 8.14341e-08 0)
(-0.957173 7.44698e-08 0)
(-0.95625 6.78999e-08 0)
(-0.955267 6.17239e-08 0)
(-0.954223 5.59367e-08 0)
(-0.95312 5.05301e-08 0)
(-0.951956 4.54936e-08 0)
(-0.950733 4.08153e-08 0)
(-0.94945 3.64828e-08 0)
(-0.948107 3.24831e-08 0)
(-0.946704 2.88031e-08 0)
(-0.945242 2.54292e-08 0)
(-0.943721 2.23469e-08 0)
(-0.942141 1.95393e-08 0)
(-0.940502 1.6985e-08 0)
(-0.938806 1.46544e-08 0)
(-0.937051 1.25082e-08 0)
(-0.935239 1.05044e-08 0)
(-0.933372 8.6238e-09 0)
(-0.931449 6.91359e-09 0)
(-0.929471 5.49878e-09 0)
(-0.927441 4.48662e-09 0)
(-0.925359 3.82082e-09 0)
(-0.923226 3.3194e-09 0)
(-0.921046 2.89071e-09 0)
(-0.918819 2.4842e-09 0)
(-0.916548 2.0697e-09 0)
(-0.914236 1.68959e-09 0)
(-0.911886 1.35643e-09 0)
(-0.9095 1.06995e-09 0)
(-0.907083 8.27734e-10 0)
(-0.90464 6.26877e-10 0)
(-0.902174 4.6371e-10 0)
(-0.89969 3.34007e-10 0)
(-0.897196 2.33278e-10 0)
(-0.894697 1.5689e-10 0)
(-0.892202 1.00889e-10 0)
(-0.889717 6.03274e-11 0)
(-0.887253 3.34373e-11 0)
(-0.884819 2.16453e-11 0)
(-0.882428 1.35274e-11 0)
(-0.880091 3.09207e-12 0)
(-0.877822 -1.11914e-12 0)
(-0.875637 -5.89535e-13 0)
(-0.873552 -1.97508e-13 0)
(-0.871584 -1.99899e-13 0)
(-0.869751 -2.54208e-13 0)
(-0.868072 -2.74427e-13 0)
(-0.866565 -2.81152e-13 0)
(-0.865247 -2.83976e-13 0)
(-0.864132 -2.84944e-13 0)
(-0.863233 -2.8441e-13 0)
(-0.862556 -2.89347e-13 0)
(-0.862102 -2.98723e-13 0)
(-0.861866 -3.09824e-13 0)
(-0.861837 -3.20466e-13 0)
(-0.861999 -3.15138e-13 0)
(-0.862332 -2.4968e-13 0)
(-0.862812 -2.90505e-13 0)
(-0.863413 -2.84176e-12 0)
(-0.864109 9.60765e-12 0)
(-0.86487 -2.45463e-11 0)
(-0.865665 4.62706e-11 0)
(-0.866461 -7.79492e-11 0)
(-0.867221 1.16781e-10 0)
(-0.867897 -1.64271e-10 0)
(-0.86839 2.1618e-10 0)
(-0.868527 -2.72774e-10 0)
(-0.868534 3.30238e-10 0)
(-0.868534 -3.90008e-10 0)
(-0.868534 4.49985e-10 0)
(-0.868534 -5.12129e-10 0)
(-0.868534 5.74665e-10 0)
(-0.868534 -6.39344e-10 0)
(-0.868534 7.04605e-10 0)
(-0.868534 -7.71949e-10 0)
(-0.868534 8.40086e-10 0)
(-0.868534 -9.10216e-10 0)
(-0.868534 9.81312e-10 0)
(-0.868534 -1.05431e-09 0)
(-0.868534 1.12844e-09 0)
(-0.868534 -1.20436e-09 0)
(-0.868534 1.28155e-09 0)
(-0.868534 -1.36043e-09 0)
(-0.868534 1.44069e-09 0)
(-0.868534 -1.52254e-09 0)
(-0.868534 1.60582e-09 0)
(-0.868534 -1.69061e-09 0)
(-0.868534 1.77693e-09 0)
(-0.868534 -1.86455e-09 0)
(-0.868534 1.95375e-09 0)
(-0.868534 -2.04416e-09 0)
(-0.868534 2.13613e-09 0)
(-0.868534 -2.22919e-09 0)
(-0.868534 2.32377e-09 0)
(-0.868534 -2.4193e-09 0)
(-0.868534 2.51626e-09 0)
(-0.868534 -2.61403e-09 0)
(-0.868534 2.38307e-09 0)
(-0.868534 -2.42782e-09 0)
(-0.868534 2.47229e-09 0)
(-0.868534 -2.51596e-09 0)
(-0.868534 2.55936e-09 0)
(-0.868534 -2.60194e-09 0)
(-0.868534 2.64424e-09 0)
(-0.868534 -2.68573e-09 0)
(-0.868534 2.72691e-09 0)
(-0.868534 -2.7673e-09 0)
(-0.868534 2.80734e-09 0)
(-0.868534 -2.84661e-09 0)
(-0.868534 2.88549e-09 0)
(-0.868534 -2.92363e-09 0)
(-0.868534 2.96134e-09 0)
(-0.868534 -2.99832e-09 0)
(-0.868534 3.03483e-09 0)
(-0.868534 -3.07063e-09 0)
(-0.868534 3.10591e-09 0)
(-0.868534 -3.14055e-09 0)
(-0.868534 3.17452e-09 0)
(-0.868534 -3.20797e-09 0)
(-0.868534 3.24062e-09 0)
(-0.868534 -3.27285e-09 0)
(-0.868534 3.30415e-09 0)
(-0.868534 -3.33507e-09 0)
(-0.868534 3.36503e-09 0)
(-0.868534 -3.3946e-09 0)
(-0.868534 3.42314e-09 0)
(-0.868534 -3.45128e-09 0)
(-0.868534 3.47842e-09 0)
(-0.868534 -3.50501e-09 0)
(-0.868534 3.53072e-09 0)
(-0.868534 -3.55561e-09 0)
(-0.868534 3.5799e-09 0)
(-0.868534 -3.60298e-09 0)
(-0.868534 3.62572e-09 0)
(-0.868534 -3.64685e-09 0)
(-0.868534 3.66801e-09 0)
(-0.868534 -3.68698e-09 0)
(-0.868534 3.7064e-09 0)
(-0.868534 -3.72298e-09 0)
(-0.868534 3.74051e-09 0)
(-0.868534 -3.75435e-09 0)
(-0.868534 3.76967e-09 0)
(-0.868534 -3.78034e-09 0)
(-0.868534 3.79284e-09 0)
(-0.868534 -3.7994e-09 0)
(-0.868534 3.80811e-09 0)
(-0.868534 -3.80746e-09 0)
)
;

boundaryField
{
    inandouthalf11
    {
        type            cyclic;
    }
    inandouthalf12
    {
        type            cyclic;
    }
    inandouthalf21
    {
        type            cyclic;
    }
    inandouthalf22
    {
        type            cyclic;
    }
    inandouthalf31
    {
        type            cyclic;
    }
    inandouthalf32
    {
        type            cyclic;
    }
    inandouthalf41
    {
        type            cyclic;
    }
    inandouthalf42
    {
        type            cyclic;
    }
    top
    {
        type            symmetryPlane;
    }
    walls
    {
        type            fixedValue;
        value           uniform (0 0 0);
    }
    frontAndBackPlanes
    {
        type            empty;
    }
}


// ************************************************************************* //
