/*--------------------------------*- C++ -*----------------------------------*\
| =========                 |                                                 |
| \\      /  F ield         | OpenFOAM: The Open Source CFD Toolbox           |
|  \\    /   O peration     | Version:  2.4.x                                 |
|   \\  /    A nd           | Web:      www.OpenFOAM.org                      |
|    \\/     M anipulation  |                                                 |
\*---------------------------------------------------------------------------*/
FoamFile
{
    version     2.0;
    format      ascii;
    class       volVectorField;
    location    "12.1";
    object      Ur;
}
// * * * * * * * * * * * * * * * * * * * * * * * * * * * * * * * * * * * * * //

dimensions      [0 1 -1 0 0 0 0];

internalField   nonuniform List<vector> 
360
(
(-1.92887e-05 1.1257e-09 0)
(-1.91808e-05 6.64516e-09 0)
(-1.91663e-05 1.20974e-08 0)
(-1.91808e-05 1.71732e-08 0)
(-1.91876e-05 2.24434e-08 0)
(-1.91898e-05 2.80092e-08 0)
(-1.91925e-05 3.37785e-08 0)
(-1.91961e-05 3.97153e-08 0)
(-1.91997e-05 4.58313e-08 0)
(-1.92034e-05 5.21429e-08 0)
(-1.92071e-05 5.86601e-08 0)
(-1.92108e-05 6.53824e-08 0)
(-1.92146e-05 7.23035e-08 0)
(-1.92184e-05 7.9414e-08 0)
(-1.92222e-05 8.67022e-08 0)
(-1.92261e-05 9.41561e-08 0)
(-1.923e-05 1.01762e-07 0)
(-1.92339e-05 1.09503e-07 0)
(-1.92379e-05 1.17363e-07 0)
(-1.92419e-05 1.25325e-07 0)
(-1.9246e-05 1.33368e-07 0)
(-1.92501e-05 1.41474e-07 0)
(-1.92543e-05 1.49626e-07 0)
(-1.92585e-05 1.57806e-07 0)
(-1.92627e-05 1.65997e-07 0)
(-1.9267e-05 1.74181e-07 0)
(-1.92713e-05 1.82343e-07 0)
(-1.92757e-05 1.90469e-07 0)
(-1.92801e-05 1.98545e-07 0)
(-1.92846e-05 2.06558e-07 0)
(-1.92891e-05 2.14498e-07 0)
(-1.92937e-05 2.22355e-07 0)
(-1.92983e-05 2.3012e-07 0)
(-1.9303e-05 2.37786e-07 0)
(-1.93077e-05 2.45347e-07 0)
(-1.93124e-05 2.52797e-07 0)
(-1.93172e-05 2.60133e-07 0)
(-1.93221e-05 2.67352e-07 0)
(-1.93271e-05 2.74453e-07 0)
(-1.9332e-05 2.81433e-07 0)
(-1.93371e-05 2.88293e-07 0)
(-1.93422e-05 2.95033e-07 0)
(-1.93473e-05 3.01653e-07 0)
(-1.93526e-05 3.08157e-07 0)
(-1.93578e-05 3.14544e-07 0)
(-1.93632e-05 3.20819e-07 0)
(-1.93686e-05 3.26985e-07 0)
(-1.9374e-05 3.33041e-07 0)
(-1.93796e-05 3.38992e-07 0)
(-1.93852e-05 3.44844e-07 0)
(-1.93908e-05 3.50598e-07 0)
(-1.93966e-05 3.56257e-07 0)
(-1.94024e-05 3.61826e-07 0)
(-1.94083e-05 3.67308e-07 0)
(-1.94142e-05 3.72706e-07 0)
(-1.94203e-05 3.78024e-07 0)
(-1.94263e-05 3.83266e-07 0)
(-1.94326e-05 3.88434e-07 0)
(-1.94388e-05 3.93531e-07 0)
(-1.94451e-05 3.98559e-07 0)
(-1.94516e-05 4.03524e-07 0)
(-1.94581e-05 4.08426e-07 0)
(-1.94647e-05 4.1327e-07 0)
(-1.94714e-05 4.18058e-07 0)
(-1.94782e-05 4.22791e-07 0)
(-1.9485e-05 4.27473e-07 0)
(-1.9492e-05 4.32105e-07 0)
(-1.94991e-05 4.36689e-07 0)
(-1.95063e-05 4.41226e-07 0)
(-1.95135e-05 4.45718e-07 0)
(-1.95209e-05 4.50166e-07 0)
(-1.95284e-05 4.54573e-07 0)
(-1.95359e-05 4.58939e-07 0)
(-1.95437e-05 4.63266e-07 0)
(-1.95515e-05 4.67554e-07 0)
(-1.95595e-05 4.71806e-07 0)
(-1.95675e-05 4.76022e-07 0)
(-1.95757e-05 4.80201e-07 0)
(-1.9584e-05 4.84343e-07 0)
(-1.95925e-05 4.8845e-07 0)
(-1.96011e-05 4.9252e-07 0)
(-1.96098e-05 4.96555e-07 0)
(-1.96187e-05 5.00555e-07 0)
(-1.96277e-05 5.0452e-07 0)
(-1.96369e-05 5.08451e-07 0)
(-1.96462e-05 5.12347e-07 0)
(-1.96557e-05 5.16209e-07 0)
(-1.96654e-05 5.20035e-07 0)
(-1.96753e-05 5.23825e-07 0)
(-1.96853e-05 5.27577e-07 0)
(-1.96955e-05 5.31292e-07 0)
(-1.97059e-05 5.34969e-07 0)
(-1.97165e-05 5.38607e-07 0)
(-1.97273e-05 5.42206e-07 0)
(-1.97383e-05 5.45766e-07 0)
(-1.97495e-05 5.49286e-07 0)
(-1.9761e-05 5.52766e-07 0)
(-1.97727e-05 5.56206e-07 0)
(-1.97847e-05 5.59604e-07 0)
(-1.97969e-05 5.6296e-07 0)
(-1.98093e-05 5.66274e-07 0)
(-1.98221e-05 5.69545e-07 0)
(-1.98351e-05 5.72773e-07 0)
(-1.98484e-05 5.75958e-07 0)
(-1.9862e-05 5.79099e-07 0)
(-1.9876e-05 5.82198e-07 0)
(-1.98903e-05 5.85253e-07 0)
(-1.99049e-05 5.88267e-07 0)
(-1.99199e-05 5.91239e-07 0)
(-1.99352e-05 5.94169e-07 0)
(-1.9951e-05 5.9706e-07 0)
(-1.99671e-05 5.9991e-07 0)
(-1.99837e-05 6.02721e-07 0)
(-2.00008e-05 6.05493e-07 0)
(-2.00183e-05 6.08226e-07 0)
(-2.00362e-05 6.1092e-07 0)
(-2.00548e-05 6.13573e-07 0)
(-2.00738e-05 6.16185e-07 0)
(-2.00934e-05 6.18752e-07 0)
(-2.01136e-05 6.21271e-07 0)
(-2.01345e-05 6.23739e-07 0)
(-2.0156e-05 6.26151e-07 0)
(-2.01783e-05 6.28503e-07 0)
(-2.02013e-05 6.30791e-07 0)
(-2.0225e-05 6.33014e-07 0)
(-2.02497e-05 6.3517e-07 0)
(-2.02752e-05 6.37264e-07 0)
(-2.03017e-05 6.39304e-07 0)
(-2.03292e-05 6.41302e-07 0)
(-2.03579e-05 6.43275e-07 0)
(-2.03877e-05 6.45238e-07 0)
(-2.04188e-05 6.47202e-07 0)
(-2.04513e-05 6.49166e-07 0)
(-2.04857e-05 6.5111e-07 0)
(-2.05224e-05 6.52977e-07 0)
(-2.05615e-05 6.5466e-07 0)
(-2.06029e-05 6.55998e-07 0)
(-2.06473e-05 6.5684e-07 0)
(-2.06965e-05 6.57141e-07 0)
(-2.07527e-05 6.57012e-07 0)
(-2.08135e-05 6.56553e-07 0)
(-2.08858e-05 6.53049e-07 0)
(-2.13842e-05 6.55473e-07 0)
(-2.13101e-05 6.55711e-07 0)
(-2.14017e-05 5.58629e-07 0)
(-2.16622e-05 1.15925e-06 0)
(-0.000126091 -1.26337e-06 0)
(-0.00357372 2.42842e-05 0)
(-0.00998356 0.000196194 0)
(-0.00836632 0.000202251 0)
(-0.00706174 0.000222071 0)
(-0.00589544 0.000223191 0)
(-0.00503492 0.000215963 0)
(-0.00442094 0.000196383 0)
(-0.00400426 0.000161637 0)
(-0.00375457 0.000109424 0)
(-0.00365164 3.80455e-05 0)
(-0.0036807 -5.39112e-05 0)
(-0.00383118 -0.000166888 0)
(-0.00409654 -0.000300629 0)
(-0.00447433 -0.000454706 0)
(-0.0049658 -0.000628147 0)
(-0.00557523 -0.000819559 0)
(-0.00630912 -0.00102715 0)
(-0.00717519 -0.00124872 0)
(-0.00818148 -0.00148163 0)
(-0.00933537 -0.00172276 0)
(-0.0106426 -0.00196841 0)
(-0.0121064 -0.00221421 0)
(-0.0137266 -0.0024551 0)
(-0.0154987 -0.00268507 0)
(-0.017413 -0.00289668 0)
(-0.019454 -0.00307959 0)
(-0.0215997 -0.00321833 0)
(-0.0238202 -0.00329157 0)
(-0.0260775 -0.00327594 0)
(-0.0283262 -0.00315517 0)
(-0.0305165 -0.00292867 0)
(-0.0325989 -0.00261256 0)
(-0.0345293 -0.00223279 0)
(-0.0362723 -0.00181641 0)
(-0.0378028 -0.0013861 0)
(-0.0391058 -0.000958537 0)
(-0.0401759 -0.000544884 0)
(-0.0410162 -0.000152072 0)
(-0.0416366 0.000215997 0)
(-0.0420524 0.000557498 0)
(-0.0422824 0.000871973 0)
(-0.0423473 0.00115985 0)
(-0.0422684 0.00142211 0)
(-0.0420664 0.00166006 0)
(-0.0417604 0.00187517 0)
(-0.0413678 0.00206901 0)
(-0.0409039 0.00224315 0)
(-0.0403816 0.00239912 0)
(-0.0398119 0.00253842 0)
(-0.0392039 0.00266246 0)
(-0.038565 0.00277258 0)
(-0.0379011 0.00287006 0)
(-0.0372169 0.00295606 0)
(-0.0365161 0.00303171 0)
(-0.0357942 0.0030987 0)
(-0.0350454 0.00315828 0)
(-0.0342702 0.00321098 0)
(-0.033469 0.00325735 0)
(-0.0326416 0.00329793 0)
(-0.0317878 0.00333327 0)
(-0.0309068 0.00336394 0)
(-0.0299978 0.00339044 0)
(-0.0290597 0.00341329 0)
(-0.0280915 0.00343294 0)
(-0.0270917 0.00344982 0)
(-0.0260589 0.00346429 0)
(-0.0249917 0.00347668 0)
(-0.0238886 0.00348725 0)
(-0.0227481 0.00349624 0)
(-0.0215686 0.00350382 0)
(-0.0203487 0.00351016 0)
(-0.019087 0.00351535 0)
(-0.017782 0.00351948 0)
(-0.0164326 0.00352258 0)
(-0.0150375 0.00352461 0)
(-0.0135957 0.00352547 0)
(-0.0121062 0.00352496 0)
(-0.010568 0.00352273 0)
(-0.00898059 0.00351828 0)
(-0.00734326 0.003511 0)
(-0.00565554 0.00350012 0)
(-0.00391725 0.0034851 0)
(-0.00212829 0.00346636 0)
(-0.000288998 0.00344617 0)
(0.00159977 0.00343004 0)
(0.00353688 0.00342619 0)
(0.00552206 0.00343831 0)
(0.00755707 0.00345642 0)
(0.00964514 0.00346647 0)
(0.0117671 0.0034691 0)
(-0.000749984 0.00377422 0)
(-0.000727772 0.00377368 0)
(-0.000741742 0.00387366 0)
(-0.000754636 0.00391862 0)
(-0.000766876 0.00392607 0)
(-0.000778477 0.00389566 0)
(-0.000789433 0.00382934 0)
(-0.000799706 0.00373215 0)
(-0.000810093 0.00356496 0)
(-0.00081506 0.00362049 0)
(-0.000849069 0.00279831 0)
(-0.000831693 0.00407385 0)
(-0.000879625 0.00115506 0)
(-0.000794207 0.00554408 0)
(-0.000881965 -0.00130565 0)
(-0.000987644 0.0157113 0)
(-0.000800305 0.0372793 0)
(-0.000850593 0.0397472 0)
(-0.000867459 0.039613 0)
(-0.000835318 0.0396204 0)
(-0.000804802 0.0396178 0)
(-0.000770467 0.0396153 0)
(-0.00073299 0.0396122 0)
(-0.000692627 0.0396085 0)
(-0.000649891 0.0396044 0)
(-0.000605534 0.0395999 0)
(-0.000560812 0.0395952 0)
(-0.000520947 0.0395905 0)
(-0.000478394 0.0395858 0)
(-0.00042052 0.0395819 0)
(-0.000396185 0.0395779 0)
(-0.000363102 0.0395745 0)
(-0.000335627 0.0395717 0)
(-0.000313167 0.0395695 0)
(-0.000295858 0.0395677 0)
(-0.000283702 0.0395662 0)
(-0.000276679 0.039565 0)
(-0.000274803 0.0395639 0)
(-0.00027821 0.0395628 0)
(-0.000287051 0.0395613 0)
(-0.000294946 0.0395588 0)
(-0.000350181 0.0395543 0)
(-0.000376153 0.0395507 0)
(-0.000377683 0.0395497 0)
(-0.000377707 0.0395496 0)
(-0.000377707 0.0395496 0)
(-0.000377707 0.0395496 0)
(-0.000377707 0.0395496 0)
(-0.000377707 0.0395496 0)
(-0.000377707 0.0395496 0)
(-0.000377707 0.0395496 0)
(-0.000377707 0.0395496 0)
(-0.000377707 0.0395496 0)
(-0.000377707 0.0395496 0)
(-0.000377707 0.0395496 0)
(-0.000377707 0.0395496 0)
(-0.000377707 0.0395496 0)
(-0.000377707 0.0395496 0)
(-0.000377707 0.0395496 0)
(-0.000377707 0.0395496 0)
(-0.000377707 0.0395496 0)
(-0.000377707 0.0395496 0)
(-0.000377707 0.0395496 0)
(-0.000377707 0.0395496 0)
(-0.000377707 0.0395496 0)
(-0.000377707 0.0395496 0)
(-0.000377707 0.0395496 0)
(-0.000377707 0.0395496 0)
(-0.000377707 0.0395496 0)
(-0.000377707 0.0395496 0)
(-0.000377707 0.0395496 0)
(-0.000377707 0.0395496 0)
(-0.000377707 0.0395496 0)
(-0.000377707 0.0395496 0)
(-0.000377707 0.0395496 0)
(-0.000377707 0.0395496 0)
(-0.000377707 0.0395496 0)
(-0.000377707 0.0395496 0)
(-0.000377707 0.0395496 0)
(-0.000377707 0.0395496 0)
(-0.000377707 0.0395496 0)
(-0.000377707 0.0395496 0)
(-0.000377707 0.0395496 0)
(-0.000377707 0.0395496 0)
(-0.000377707 0.0395496 0)
(-0.000377707 0.0395496 0)
(-0.000377707 0.0395496 0)
(-0.000377707 0.0395496 0)
(-0.000377707 0.0395496 0)
(-0.000377707 0.0395496 0)
(-0.000377707 0.0395496 0)
(-0.000377707 0.0395496 0)
(-0.000377707 0.0395496 0)
(-0.000377707 0.0395496 0)
(-0.000377707 0.0395496 0)
(-0.000377707 0.0395496 0)
(-0.000377707 0.0395496 0)
(-0.000377707 0.0395496 0)
(-0.000377707 0.0395496 0)
(-0.000377707 0.0395496 0)
(-0.000377707 0.0395496 0)
(-0.000377707 0.0395496 0)
(-0.000377707 0.0395496 0)
(-0.000377707 0.0395496 0)
(-0.000377707 0.0395496 0)
(-0.000377707 0.0395496 0)
(-0.000377707 0.0395496 0)
(-0.000377707 0.0395496 0)
(-0.000377707 0.0395496 0)
(-0.000377707 0.0395496 0)
(-0.000377707 0.0395496 0)
(-0.000377707 0.0395496 0)
(-0.000377707 0.0395496 0)
(-0.000377707 0.0395496 0)
(-0.000377707 0.0395496 0)
(-0.000377707 0.0395496 0)
(-0.000377707 0.0395496 0)
(-0.000377707 0.0395496 0)
(-0.000377707 0.0395496 0)
(-0.000377712 0.0395494 0)
(-0.000377827 0.039541 0)
(-0.000380598 0.0391964 0)
(-0.000443826 0.0224994 0)
)
;

boundaryField
{
    inandouthalf11
    {
        type            cyclic;
    }
    inandouthalf12
    {
        type            cyclic;
    }
    inandouthalf21
    {
        type            cyclic;
    }
    inandouthalf22
    {
        type            cyclic;
    }
    inandouthalf31
    {
        type            cyclic;
    }
    inandouthalf32
    {
        type            cyclic;
    }
    inandouthalf41
    {
        type            cyclic;
    }
    inandouthalf42
    {
        type            cyclic;
    }
    top
    {
        type            symmetryPlane;
    }
    walls
    {
        type            calculated;
        value           uniform (0 0 0);
    }
    frontAndBackPlanes
    {
        type            empty;
    }
}


// ************************************************************************* //
