/*--------------------------------*- C++ -*----------------------------------*\
| =========                 |                                                 |
| \\      /  F ield         | OpenFOAM: The Open Source CFD Toolbox           |
|  \\    /   O peration     | Version:  2.4.x                                 |
|   \\  /    A nd           | Web:      www.OpenFOAM.org                      |
|    \\/     M anipulation  |                                                 |
\*---------------------------------------------------------------------------*/
FoamFile
{
    version     2.0;
    format      ascii;
    class       volScalarField;
    location    "11.55";
    object      alpha_0;
}
// * * * * * * * * * * * * * * * * * * * * * * * * * * * * * * * * * * * * * //

dimensions      [0 0 0 0 0 0 0];

internalField   nonuniform List<scalar> 
360
(
0.610894
0.611762
0.611851
0.611761
0.611719
0.611706
0.611689
0.611667
0.611644
0.611621
0.611598
0.611575
0.611552
0.611529
0.611505
0.611481
0.611457
0.611433
0.611408
0.611383
0.611358
0.611333
0.611307
0.611281
0.611255
0.611229
0.611202
0.611175
0.611148
0.611121
0.611093
0.611065
0.611037
0.611008
0.610979
0.610949
0.61092
0.61089
0.61086
0.610829
0.610798
0.610767
0.610735
0.610703
0.610671
0.610638
0.610605
0.610572
0.610538
0.610503
0.610469
0.610433
0.610398
0.610362
0.610326
0.610289
0.610251
0.610213
0.610175
0.610137
0.610097
0.610058
0.610017
0.609976
0.609935
0.609893
0.60985
0.609807
0.609764
0.60972
0.609675
0.609629
0.609583
0.609536
0.609488
0.60944
0.609391
0.609341
0.609291
0.609239
0.609187
0.609134
0.60908
0.609026
0.60897
0.608913
0.608856
0.608797
0.608738
0.608677
0.608616
0.608553
0.608489
0.608424
0.608357
0.608289
0.60822
0.60815
0.608078
0.608005
0.60793
0.607853
0.607775
0.607695
0.607613
0.60753
0.607444
0.607357
0.607267
0.607175
0.607081
0.606985
0.606886
0.606784
0.60668
0.606573
0.606463
0.60635
0.606233
0.606113
0.60599
0.605862
0.605731
0.605595
0.605455
0.605309
0.605159
0.605003
0.604841
0.604673
0.604498
0.604316
0.604126
0.603925
0.603712
0.603484
0.603244
0.602987
0.602702
0.602378
0.602028
0.601617
0.598782
0.599204
0.598689
0.597838
0.597032
0.562214
0.323558
0.23053
0.187081
0.15429
0.126529
0.102437
0.0817263
0.0642887
0.0499396
0.0383827
0.029241
0.0221153
0.0166264
0.0124384
0.0092675
0.00687967
0.00508705
0.00374766
0.00276357
0.00206384
0.00158149
0.00125107
0.00102021
0.000853784
0.000729823
0.000634656
0.000559614
0.000499057
0.000449203
0.000407451
0.000371962
0.000341405
0.000314797
0.000291399
0.000270641
0.000252083
0.000235376
0.00022024
0.000206451
0.000193824
0.000182208
0.000171477
0.000161526
0.000152265
0.000143621
0.000135528
0.000127934
0.000120792
0.00011406
0.000107705
0.000101695
9.60055e-05
9.06118e-05
8.54419e-05
8.04377e-05
7.55951e-05
7.09112e-05
6.63836e-05
6.2011e-05
5.77931e-05
5.37306e-05
4.98252e-05
4.60797e-05
4.24974e-05
3.90823e-05
3.58382e-05
3.27684e-05
2.98748e-05
2.71578e-05
2.4616e-05
2.2246e-05
2.00426e-05
1.79994e-05
1.61092e-05
1.43644e-05
1.27577e-05
1.12823e-05
9.93176e-06
8.70041e-06
7.58297e-06
6.57437e-06
5.66769e-06
4.85262e-06
4.1132e-06
3.41607e-06
2.72511e-06
2.08785e-06
1.60965e-06
1.36418e-06
1.16751e-06
9.59266e-07
7.80026e-07
6.27015e-07
4.97612e-07
3.89302e-07
2.99689e-07
2.26541e-07
1.67809e-07
1.20772e-07
8.55925e-08
5.64234e-08
3.81061e-08
2.06025e-08
1.26728e-08
2.65115e-09
1.119e-19
2.18281e-30
3.77808e-41
6.08419e-52
9.0292e-63
4.88454e-70
2.5646e-70
1.26543e-70
6.39301e-71
3.16351e-71
1.54787e-71
7.45175e-72
3.52809e-72
1.64197e-72
7.5077e-73
3.37079e-73
1.48521e-73
6.41826e-74
2.71856e-74
1.12788e-74
4.58011e-75
1.81908e-75
7.06063e-76
2.67596e-76
9.89396e-77
3.56465e-77
1.25028e-77
4.26512e-78
1.41349e-78
4.54518e-79
1.41619e-79
4.26955e-80
1.24351e-80
3.49297e-81
9.4452e-82
2.45373e-82
6.11056e-83
1.45517e-83
3.30489e-84
7.13675e-85
1.46043e-85
2.82131e-86
5.12303e-87
8.70073e-88
1.37416e-88
2.00467e-89
2.6797e-90
3.2505e-91
3.53535e-92
3.3959e-93
2.82439e-94
1.9799e-95
1.12523e-96
4.87798e-98
1.44506e-99
2.2527e-101
2.30555e-104
2.24733e-111
1.31352e-113
3.79619e-116
1.63888e-126
3.62477e-137
6.06261e-148
7.40635e-159
7.92839e-170
6.56277e-181
4.68475e-192
7.05705e-203
2.8165e-213
1.46889e-221
7.78343e-232
5.05129e-240
3.1753e-250
1.73949e-258
1.34335e-268
6.00122e-277
8.67488e-287
2.13601e-295
5.78021e-305
7.95906e-314
2.51973e-321
7.96928e-321
7.83094e-321
2.51973e-321
8.86848e-321
4.57737e-319
2.8055e-319
6.80328e-321
7.09478e-321
6.08689e-321
8.5424e-321
0
0
0
0
0
0
0
0
0
0
0
0
0
0
0
0
)
;

boundaryField
{
    inandouthalf11
    {
        type            cyclic;
    }
    inandouthalf12
    {
        type            cyclic;
    }
    inandouthalf21
    {
        type            cyclic;
    }
    inandouthalf22
    {
        type            cyclic;
    }
    inandouthalf31
    {
        type            cyclic;
    }
    inandouthalf32
    {
        type            cyclic;
    }
    inandouthalf41
    {
        type            cyclic;
    }
    inandouthalf42
    {
        type            cyclic;
    }
    top
    {
        type            symmetryPlane;
    }
    walls
    {
        type            zeroGradient;
    }
    frontAndBackPlanes
    {
        type            empty;
    }
}


// ************************************************************************* //
