/*--------------------------------*- C++ -*----------------------------------*\
| =========                 |                                                 |
| \\      /  F ield         | OpenFOAM: The Open Source CFD Toolbox           |
|  \\    /   O peration     | Version:  2.4.x                                 |
|   \\  /    A nd           | Web:      www.OpenFOAM.org                      |
|    \\/     M anipulation  |                                                 |
\*---------------------------------------------------------------------------*/
FoamFile
{
    version     2.0;
    format      ascii;
    class       volScalarField;
    location    "11.55";
    object      alpha;
}
// * * * * * * * * * * * * * * * * * * * * * * * * * * * * * * * * * * * * * //

dimensions      [0 0 0 0 0 0 0];

internalField   nonuniform List<scalar> 
360
(
0.610894
0.611762
0.611851
0.611761
0.611719
0.611706
0.611689
0.611667
0.611644
0.611621
0.611598
0.611575
0.611552
0.611529
0.611505
0.611481
0.611457
0.611433
0.611408
0.611383
0.611358
0.611333
0.611307
0.611281
0.611255
0.611229
0.611202
0.611175
0.611148
0.611121
0.611093
0.611065
0.611037
0.611008
0.610979
0.610949
0.61092
0.61089
0.61086
0.610829
0.610798
0.610767
0.610735
0.610703
0.610671
0.610638
0.610605
0.610572
0.610538
0.610503
0.610469
0.610433
0.610398
0.610362
0.610326
0.610289
0.610251
0.610213
0.610175
0.610137
0.610097
0.610058
0.610017
0.609976
0.609935
0.609893
0.60985
0.609807
0.609764
0.60972
0.609675
0.609629
0.609583
0.609536
0.609488
0.60944
0.609391
0.609341
0.609291
0.609239
0.609187
0.609134
0.60908
0.609026
0.60897
0.608913
0.608856
0.608797
0.608738
0.608677
0.608616
0.608553
0.608489
0.608424
0.608357
0.608289
0.60822
0.60815
0.608078
0.608005
0.60793
0.607853
0.607775
0.607695
0.607613
0.60753
0.607444
0.607357
0.607267
0.607175
0.607081
0.606985
0.606886
0.606784
0.60668
0.606573
0.606463
0.60635
0.606233
0.606113
0.60599
0.605862
0.605731
0.605595
0.605455
0.605309
0.605159
0.605003
0.604841
0.604673
0.604498
0.604316
0.604126
0.603925
0.603712
0.603484
0.603244
0.602987
0.602702
0.602378
0.602028
0.601617
0.598782
0.599204
0.598689
0.597838
0.597032
0.562115
0.323521
0.230529
0.187087
0.1543
0.12654
0.102449
0.0817391
0.0643012
0.0499513
0.0383933
0.0292504
0.0221235
0.0166334
0.0124442
0.00927231
0.00688361
0.00509025
0.0037502
0.00276549
0.00206519
0.00158239
0.00125164
0.00102058
0.000854018
0.000729971
0.000634747
0.000559667
0.000499083
0.000449211
0.000407446
0.000371948
0.000341384
0.000314772
0.00029137
0.000270611
0.000252051
0.000235343
0.000220207
0.000206418
0.000193792
0.000182176
0.000171445
0.000161494
0.000152234
0.000143591
0.000135499
0.000127906
0.000120764
0.000114034
0.000107679
0.000101671
9.59822e-05
9.05895e-05
8.54205e-05
8.04173e-05
7.55756e-05
7.08927e-05
6.6366e-05
6.19944e-05
5.77774e-05
5.37159e-05
4.98114e-05
4.60668e-05
4.24854e-05
3.90712e-05
3.58279e-05
3.27589e-05
2.98661e-05
2.71499e-05
2.46089e-05
2.22395e-05
2.00367e-05
1.79941e-05
1.61045e-05
1.43602e-05
1.2754e-05
1.1279e-05
9.92886e-06
8.69787e-06
7.58076e-06
6.57246e-06
5.66604e-06
4.85119e-06
4.11195e-06
3.41494e-06
2.7241e-06
2.08707e-06
1.60917e-06
1.36381e-06
1.16719e-06
9.59007e-07
7.79818e-07
6.26852e-07
4.97486e-07
3.89208e-07
2.9962e-07
2.26492e-07
1.67774e-07
1.20751e-07
8.55769e-08
5.6416e-08
3.80996e-08
2.06009e-08
1.26709e-08
2.65129e-09
1.11914e-19
2.18308e-30
3.77896e-41
6.087e-52
9.03594e-63
4.86759e-70
2.5557e-70
1.26105e-70
6.37087e-71
3.15256e-71
1.54251e-71
7.42593e-72
3.51586e-72
1.63627e-72
7.48165e-73
3.35909e-73
1.48006e-73
6.39596e-74
2.70911e-74
1.12396e-74
4.56418e-75
1.81275e-75
7.03605e-76
2.66664e-76
9.85949e-77
3.55223e-77
1.24592e-77
4.25024e-78
1.40856e-78
4.5293e-79
1.41124e-79
4.25462e-80
1.23917e-80
3.48074e-81
9.41213e-82
2.44513e-82
6.08914e-83
1.45007e-83
3.29329e-84
7.11168e-85
1.4553e-85
2.81139e-86
5.105e-87
8.67009e-88
1.36932e-88
1.9976e-89
2.67024e-90
3.23902e-91
3.52286e-92
3.38389e-93
2.81439e-94
1.97288e-95
1.12124e-96
4.86065e-98
1.43992e-99
2.24467e-101
2.29722e-104
2.23858e-111
1.30838e-113
3.78128e-116
1.63249e-126
3.61073e-137
6.03928e-148
7.37808e-159
7.89832e-170
6.53815e-181
4.66733e-192
7.03005e-203
2.80557e-213
1.46312e-221
7.75312e-232
5.03146e-240
3.16293e-250
1.73266e-258
1.33812e-268
5.97765e-277
8.64112e-287
2.12763e-295
5.75771e-305
7.92787e-314
2.52468e-321
7.96928e-321
7.83094e-321
2.51973e-321
8.86848e-321
4.57737e-319
2.8055e-319
6.80328e-321
7.09478e-321
6.08689e-321
8.5424e-321
0
0
0
0
0
0
0
0
0
0
0
0
0
0
0
0
)
;

boundaryField
{
    inandouthalf11
    {
        type            cyclic;
    }
    inandouthalf12
    {
        type            cyclic;
    }
    inandouthalf21
    {
        type            cyclic;
    }
    inandouthalf22
    {
        type            cyclic;
    }
    inandouthalf31
    {
        type            cyclic;
    }
    inandouthalf32
    {
        type            cyclic;
    }
    inandouthalf41
    {
        type            cyclic;
    }
    inandouthalf42
    {
        type            cyclic;
    }
    top
    {
        type            symmetryPlane;
    }
    walls
    {
        type            zeroGradient;
    }
    frontAndBackPlanes
    {
        type            empty;
    }
}


// ************************************************************************* //
