/*--------------------------------*- C++ -*----------------------------------*\
| =========                 |                                                 |
| \\      /  F ield         | OpenFOAM: The Open Source CFD Toolbox           |
|  \\    /   O peration     | Version:  2.4.x                                 |
|   \\  /    A nd           | Web:      www.OpenFOAM.org                      |
|    \\/     M anipulation  |                                                 |
\*---------------------------------------------------------------------------*/
FoamFile
{
    version     2.0;
    format      ascii;
    class       volScalarField;
    location    "11.55";
    object      ddt0(((1.5*(alpha+1e-08))*rho),Theta);
}
// * * * * * * * * * * * * * * * * * * * * * * * * * * * * * * * * * * * * * //

dimensions      [1 -1 -3 0 0 0 0];

internalField   nonuniform List<scalar> 
360
(
-2.50973e-23
-7.07001e-23
-5.30677e-23
-5.16513e-23
-5.7632e-23
-6.0956e-23
-6.13337e-23
-6.07139e-23
-5.96191e-23
-5.7984e-23
-5.57519e-23
-5.29354e-23
-4.96315e-23
-4.59825e-23
-4.21413e-23
-3.82495e-23
-3.44237e-23
-3.07615e-23
-2.73486e-23
-2.4246e-23
-2.14922e-23
-1.91102e-23
-1.71036e-23
-1.54601e-23
-1.41594e-23
-1.31735e-23
-1.24718e-23
-1.20219e-23
-1.17898e-23
-1.17428e-23
-1.18531e-23
-1.20935e-23
-1.24405e-23
-1.28748e-23
-1.33777e-23
-1.39332e-23
-1.45305e-23
-1.51614e-23
-1.58146e-23
-1.64817e-23
-1.71619e-23
-1.78464e-23
-1.853e-23
-1.92159e-23
-1.98987e-23
-2.05752e-23
-2.12398e-23
-2.18887e-23
-2.2533e-23
-2.31693e-23
-2.37845e-23
-2.43828e-23
-2.49673e-23
-2.55325e-23
-2.6079e-23
-2.66078e-23
-2.71142e-23
-2.75983e-23
-2.80537e-23
-2.84839e-23
-2.88989e-23
-2.92929e-23
-2.96642e-23
-3.00101e-23
-3.0326e-23
-3.06155e-23
-3.08831e-23
-3.11238e-23
-3.13273e-23
-3.15044e-23
-3.16725e-23
-3.18167e-23
-3.19256e-23
-3.20164e-23
-3.20938e-23
-3.21462e-23
-3.21635e-23
-3.21509e-23
-3.21177e-23
-3.2061e-23
-3.19798e-23
-3.18816e-23
-3.17701e-23
-3.16429e-23
-3.14989e-23
-3.13366e-23
-3.11534e-23
-3.09456e-23
-3.07137e-23
-3.04608e-23
-3.01891e-23
-2.99017e-23
-2.96022e-23
-2.92922e-23
-2.89713e-23
-2.8639e-23
-2.82946e-23
-2.79386e-23
-2.75722e-23
-2.71991e-23
-2.68235e-23
-2.64509e-23
-2.60872e-23
-2.57383e-23
-2.54097e-23
-2.51061e-23
-2.48316e-23
-2.45886e-23
-2.43777e-23
-2.41964e-23
-2.40394e-23
-2.38972e-23
-2.3757e-23
-2.3603e-23
-2.34176e-23
-2.31843e-23
-2.28906e-23
-2.25326e-23
-2.21188e-23
-2.16738e-23
-2.124e-23
-2.08768e-23
-2.0659e-23
-2.06739e-23
-2.10205e-23
-2.18123e-23
-2.31817e-23
-2.52828e-23
-2.82746e-23
-3.22615e-23
-3.71615e-23
-4.25001e-23
-4.71622e-23
-3.13075e-23
1.00091e-16
1.25116e-15
1.22561e-14
1.26794e-13
1.42745e-12
1.79163e-11
2.57308e-10
4.33548e-09
8.81198e-08
2.158e-06
0.00010855
0.009152
0.214097
2.75127
5.23951
2.67472
1.88853
1.51053
1.24252
1.03604
0.873359
0.740854
0.62736
0.526869
0.43519
0.352048
0.27807
0.214143
0.160766
0.117777
0.0843714
0.0593612
0.0414099
0.0290902
0.0208863
0.0154245
0.0116975
0.00906788
0.00715104
0.00571312
0.00460816
0.00374189
0.00305147
0.00249368
0.00203803
0.0016624
0.00135047
0.00108991
0.000871266
0.00068717
0.00053181
0.000400528
0.000289561
0.000195836
0.000116817
5.03957e-05
-5.19631e-06
-5.14518e-05
-8.964e-05
-0.000120847
-0.000146007
-0.000165928
-0.000181313
-0.000192774
-0.000200849
-0.000206008
-0.000208667
-0.000209189
-0.000207822
-0.000204769
-0.000200225
-0.00019438
-0.000187417
-0.000179515
-0.000170844
-0.000161571
-0.000151858
-0.000141859
-0.000131721
-0.000121577
-0.000111552
-0.000101751
-9.22667e-05
-8.31705e-05
-7.45197e-05
-6.63584e-05
-5.86663e-05
-5.15023e-05
-4.49065e-05
-3.88288e-05
-3.32692e-05
-2.82227e-05
-2.36796e-05
-1.96262e-05
-1.60442e-05
-1.29065e-05
-1.01759e-05
-7.80494e-06
-5.72335e-06
-3.88359e-06
-2.37327e-06
-1.26961e-06
0
0
0
0
0
0
0
0
0
0
0
0
0
0
0
0
0
0
0
0
0
0
0
0
0
0
0
0
0
0
0
0
0
0
0
0
0
0
0
0
0
0
0
0
0
0
0
0
0
0
0
0
0
0
0
0
0
0
0
0
0
0
0
0
0
0
0
0
0
0
0
0
0
0
0
0
0
0
0
0
0
0
0
0
0
0
0
0
0
0
0
0
0
0
0
0
0
0
0
0
0
0
0
0
0
0
0
0
0
0
0
0
0
0
0
0
0
0
0
0
0
0
0
0
)
;

boundaryField
{
    inandouthalf11
    {
        type            cyclic;
    }
    inandouthalf12
    {
        type            cyclic;
    }
    inandouthalf21
    {
        type            cyclic;
    }
    inandouthalf22
    {
        type            cyclic;
    }
    inandouthalf31
    {
        type            cyclic;
    }
    inandouthalf32
    {
        type            cyclic;
    }
    inandouthalf41
    {
        type            cyclic;
    }
    inandouthalf42
    {
        type            cyclic;
    }
    top
    {
        type            symmetryPlane;
    }
    walls
    {
        type            calculated;
        value           uniform -2.50973e-23;
    }
    frontAndBackPlanes
    {
        type            empty;
    }
}


// ************************************************************************* //
