/*--------------------------------*- C++ -*----------------------------------*\
| =========                 |                                                 |
| \\      /  F ield         | OpenFOAM: The Open Source CFD Toolbox           |
|  \\    /   O peration     | Version:  2.4.x                                 |
|   \\  /    A nd           | Web:      www.OpenFOAM.org                      |
|    \\/     M anipulation  |                                                 |
\*---------------------------------------------------------------------------*/
FoamFile
{
    version     2.0;
    format      ascii;
    class       volScalarField;
    location    "11.55";
    object      ddt0(alpha);
}
// * * * * * * * * * * * * * * * * * * * * * * * * * * * * * * * * * * * * * //

dimensions      [0 0 -1 0 0 0 0];

internalField   nonuniform List<scalar> 
360
(
3.36701e-06
5.05065e-06
4.7908e-06
4.74322e-06
4.98774e-06
5.1953e-06
5.31754e-06
5.40955e-06
5.49358e-06
5.57092e-06
5.63406e-06
5.67653e-06
5.69837e-06
5.6994e-06
5.68182e-06
5.64761e-06
5.59811e-06
5.53455e-06
5.45878e-06
5.3741e-06
5.28017e-06
5.18154e-06
5.07884e-06
4.97386e-06
4.86828e-06
4.76317e-06
4.6594e-06
4.55916e-06
4.46205e-06
4.3688e-06
4.27995e-06
4.19698e-06
4.11727e-06
4.0452e-06
3.97654e-06
3.91408e-06
3.85603e-06
3.80369e-06
3.75701e-06
3.71275e-06
3.67537e-06
3.6413e-06
3.6101e-06
3.58474e-06
3.56165e-06
3.54228e-06
3.52619e-06
3.51098e-06
3.49968e-06
3.49201e-06
3.48402e-06
3.4793e-06
3.4754e-06
3.47391e-06
3.47204e-06
3.47353e-06
3.47353e-06
3.47586e-06
3.4778e-06
3.47886e-06
3.48298e-06
3.48514e-06
3.48922e-06
3.49201e-06
3.49496e-06
3.49693e-06
3.49913e-06
3.50065e-06
3.50111e-06
3.49994e-06
3.49998e-06
3.49977e-06
3.49643e-06
3.49441e-06
3.49079e-06
3.48739e-06
3.4813e-06
3.47417e-06
3.46604e-06
3.45696e-06
3.4462e-06
3.43488e-06
3.42287e-06
3.4099e-06
3.3961e-06
3.38105e-06
3.36487e-06
3.347e-06
3.32755e-06
3.30673e-06
3.28462e-06
3.26133e-06
3.2372e-06
3.21224e-06
3.18644e-06
3.15973e-06
3.13203e-06
3.10327e-06
3.07351e-06
3.04286e-06
3.0115e-06
2.97967e-06
2.94764e-06
2.91569e-06
2.88404e-06
2.85295e-06
2.82264e-06
2.79329e-06
2.76505e-06
2.73795e-06
2.71193e-06
2.68676e-06
2.66204e-06
2.63718e-06
2.61146e-06
2.58404e-06
2.55406e-06
2.52076e-06
2.48369e-06
2.44282e-06
2.39877e-06
2.35298e-06
2.30776e-06
2.26644e-06
2.23333e-06
2.21365e-06
2.21322e-06
2.23771e-06
2.29128e-06
2.37428e-06
2.48029e-06
2.59269e-06
2.68138e-06
2.69882e-06
2.57739e-06
2.24572e-06
1.68942e-06
1.01213e-06
3.97453e-07
-1.07581e-08
-2.09382e-07
-3.75497e-06
2.18653e-06
-6.35467e-07
-1.37948e-07
-4.17938e-07
-3.72845e-05
-0.498363
-0.182729
-0.00580212
0.0306516
0.04746
0.0575207
0.0629237
0.0644344
0.0627829
0.0588191
0.0533815
0.047237
0.0409369
0.034855
0.0292206
0.024178
0.0198118
0.0160886
0.0127849
0.00965375
0.00677667
0.00447645
0.00287565
0.00183752
0.00117224
0.000740966
0.000456039
0.000264031
0.000132298
4.05728e-05
-2.40037e-05
-6.97761e-05
-0.000102281
-0.000125267
-0.000141325
-0.000152272
-0.000159409
-0.000163675
-0.00016576
-0.000166177
-0.00016531
-0.00016345
-0.000160822
-0.000157596
-0.000153908
-0.000149865
-0.000145552
-0.000141038
-0.000136379
-0.000131623
-0.000126811
-0.000121975
-0.000117146
-0.000112347
-0.00010755
-0.000102727
-9.78948e-05
-9.30692e-05
-8.82625e-05
-8.34857e-05
-7.87469e-05
-7.40539e-05
-6.94141e-05
-6.48362e-05
-6.0332e-05
-5.59168e-05
-5.16103e-05
-4.74355e-05
-4.34169e-05
-3.95783e-05
-3.59397e-05
-3.25158e-05
-2.93146e-05
-2.63378e-05
-2.35815e-05
-2.10372e-05
-1.86933e-05
-1.65375e-05
-1.45586e-05
-1.27461e-05
-1.10909e-05
-9.59428e-06
-8.26893e-06
-7.13537e-06
-6.25886e-06
-5.67497e-06
-5.05167e-06
-3.95574e-06
-2.42397e-06
-1.84574e-06
-1.59476e-06
-1.30103e-06
-1.04252e-06
-8.19562e-07
-6.30908e-07
-4.74522e-07
-3.47424e-07
-2.46516e-07
-1.72782e-07
-1.08501e-07
-7.87028e-08
-3.72482e-08
-3.23469e-08
-8.0136e-09
-9.74225e-09
7.52388e-10
1.15138e-19
3.01525e-30
7.46253e-41
1.90487e-51
4.12437e-62
-8.52696e-69
-4.47965e-69
-2.20496e-69
-1.11371e-69
-5.51243e-70
-2.69806e-70
-1.29935e-70
-6.15411e-71
-2.86517e-71
-1.31057e-71
-5.88648e-72
-2.59471e-72
-1.12175e-72
-4.75338e-73
-1.97293e-73
-8.01523e-74
-3.18482e-74
-1.23672e-74
-4.68927e-75
-1.73457e-75
-6.25206e-76
-2.19389e-76
-7.48773e-77
-2.48271e-77
-7.9873e-78
-2.48996e-78
-7.51065e-79
-2.18865e-79
-6.15112e-80
-1.66422e-80
-4.32583e-81
-1.07789e-81
-2.56839e-82
-5.83666e-83
-1.26117e-83
-2.58244e-84
-4.99206e-85
-9.07078e-86
-1.5416e-86
-2.43647e-87
-3.557e-88
-4.75834e-89
-5.77646e-90
-6.28787e-91
-6.04509e-92
-5.03237e-93
-3.53119e-94
-2.00903e-95
-8.71986e-97
-2.58688e-98
-4.04055e-100
-4.19295e-103
-4.40464e-110
-2.58557e-112
-7.5051e-115
-3.21426e-125
-7.05206e-136
-1.17156e-146
-1.41844e-157
-1.50832e-168
-1.23507e-179
-8.73428e-191
-1.35691e-201
-5.50137e-212
-2.90378e-220
-1.52538e-230
-9.98573e-239
-6.22575e-249
-3.43865e-257
-2.63375e-267
-1.1862e-275
-1.69989e-285
-4.21983e-294
-1.13262e-303
-1.57018e-312
1.38338e-322
0
0
0
0
0
0
0
0
0
0
0
0
0
0
0
0
0
0
0
0
0
0
0
0
0
0
)
;

boundaryField
{
    inandouthalf11
    {
        type            cyclic;
    }
    inandouthalf12
    {
        type            cyclic;
    }
    inandouthalf21
    {
        type            cyclic;
    }
    inandouthalf22
    {
        type            cyclic;
    }
    inandouthalf31
    {
        type            cyclic;
    }
    inandouthalf32
    {
        type            cyclic;
    }
    inandouthalf41
    {
        type            cyclic;
    }
    inandouthalf42
    {
        type            cyclic;
    }
    top
    {
        type            symmetryPlane;
    }
    walls
    {
        type            calculated;
        value           uniform 3.36701e-06;
    }
    frontAndBackPlanes
    {
        type            empty;
    }
}


// ************************************************************************* //
