/*--------------------------------*- C++ -*----------------------------------*\
| =========                 |                                                 |
| \\      /  F ield         | OpenFOAM: The Open Source CFD Toolbox           |
|  \\    /   O peration     | Version:  2.4.x                                 |
|   \\  /    A nd           | Web:      www.OpenFOAM.org                      |
|    \\/     M anipulation  |                                                 |
\*---------------------------------------------------------------------------*/
FoamFile
{
    version     2.0;
    format      ascii;
    class       volScalarField;
    location    "11.55";
    object      k_0;
}
// * * * * * * * * * * * * * * * * * * * * * * * * * * * * * * * * * * * * * //

dimensions      [0 2 -2 0 0 0 0];

internalField   nonuniform List<scalar> 
360
(
1e-20
1e-20
1e-20
1e-20
1e-20
1e-20
1e-20
1e-20
1e-20
1e-20
1e-20
1e-20
1e-20
1e-20
1e-20
1e-20
1e-20
1e-20
1e-20
1e-20
1e-20
1e-20
1e-20
1e-20
1e-20
1e-20
1e-20
1e-20
1e-20
1e-20
1e-20
1e-20
1e-20
1e-20
1e-20
1e-20
1e-20
1e-20
1e-20
1e-20
1e-20
1e-20
1e-20
1e-20
1e-20
1e-20
1e-20
1e-20
1e-20
1e-20
1e-20
1e-20
1e-20
1e-20
1e-20
1e-20
1e-20
1e-20
1e-20
1e-20
1e-20
1e-20
1e-20
1e-20
1e-20
1e-20
1e-20
1e-20
1e-20
1e-20
1e-20
1e-20
1e-20
1e-20
1e-20
1e-20
1e-20
1e-20
1e-20
1e-20
1e-20
1e-20
1e-20
1e-20
1e-20
1e-20
1e-20
1e-20
1e-20
1e-20
1e-20
1e-20
1e-20
1e-20
1e-20
1e-20
1e-20
1e-20
1e-20
1e-20
1e-20
1e-20
1e-20
1e-20
1e-20
1e-20
1e-20
1e-20
1e-20
1e-20
1e-20
1e-20
1e-20
1e-20
1e-20
1e-20
1e-20
1e-20
1e-20
1e-20
1e-20
1e-20
1e-20
1e-20
1e-20
1e-20
1e-20
1e-20
1e-20
1e-20
1e-20
1e-20
1e-20
1e-20
1.17875e-20
8.52302e-20
8.64597e-19
9.47795e-18
1.12797e-16
1.48196e-15
2.1882e-14
3.70043e-13
7.39856e-12
1.70423e-10
4.64929e-09
1.54275e-07
6.16802e-06
0.000233052
0.00294783
0.00644112
0.00785323
0.00849121
0.00873134
0.00873579
0.00858945
0.00834206
0.00802445
0.0076571
0.00725479
0.00682925
0.00639068
0.00594857
0.0055122
0.00509071
0.004693
0.0043272
0.00399998
0.00371573
0.00347614
0.00328018
0.00312464
0.00300484
0.00291546
0.00285121
0.00280729
0.00277958
0.0027647
0.00275991
0.00276308
0.00277251
0.00278688
0.00280513
0.00282646
0.00285019
0.0028758
0.00290286
0.00293101
0.00295995
0.00298945
0.00301928
0.00304927
0.00307925
0.00310909
0.00313867
0.00316788
0.00319662
0.00322481
0.00325237
0.00327923
0.00330531
0.00333058
0.00335521
0.00337937
0.00340296
0.00342587
0.003448
0.00346923
0.00348945
0.00350854
0.00352636
0.0035428
0.00355772
0.00357097
0.00358242
0.00359191
0.00359931
0.00360445
0.00360717
0.00360732
0.00360474
0.00359925
0.0035907
0.00357891
0.00356372
0.00354497
0.00352248
0.00349609
0.00346566
0.00343101
0.00339202
0.00334853
0.00330042
0.00324758
0.00318991
0.00312731
0.00305974
0.00298715
0.00290952
0.00282689
0.00273932
0.00264691
0.00254981
0.00244824
0.00234247
0.00223286
0.00211981
0.00200384
0.00188557
0.00176568
0.001645
0.00152443
0.00140497
0.00128772
0.0011738
0.00106437
0.000960529
0.000863274
0.000773404
0.000691454
0.000617637
0.000551823
0.000493554
0.000442103
0.000396562
0.000355931
0.000319209
0.000285457
0.000253848
0.000223694
0.000194469
0.000165813
0.000137543
0.00010966
8.23786e-05
5.61792e-05
3.19658e-05
1.12628e-05
1.16939e-06
2.45856e-08
3.06874e-10
3.55447e-12
3.87194e-14
3.97016e-16
3.83962e-18
4.1818e-20
1e-20
1e-20
1e-20
1e-20
1e-20
1e-20
1e-20
1e-20
1e-20
1e-20
1e-20
1e-20
1e-20
1e-20
1e-20
1e-20
1e-20
1e-20
1e-20
1e-20
1e-20
1e-20
1e-20
1e-20
1e-20
1e-20
1e-20
1e-20
1e-20
1e-20
1e-20
1e-20
1e-20
1e-20
1e-20
1e-20
1e-20
1e-20
1e-20
1e-20
1e-20
1e-20
1e-20
1e-20
1e-20
1e-20
1e-20
1e-20
1e-20
1e-20
1e-20
1e-20
1e-20
1e-20
1e-20
1e-20
1e-20
1e-20
1e-20
1e-20
1e-20
1e-20
1e-20
1e-20
1e-20
1e-20
1e-20
1e-20
1e-20
1e-20
1e-20
1e-20
1e-20
1e-20
1e-20
)
;

boundaryField
{
    inandouthalf11
    {
        type            cyclic;
    }
    inandouthalf12
    {
        type            cyclic;
    }
    inandouthalf21
    {
        type            cyclic;
    }
    inandouthalf22
    {
        type            cyclic;
    }
    inandouthalf31
    {
        type            cyclic;
    }
    inandouthalf32
    {
        type            cyclic;
    }
    inandouthalf41
    {
        type            cyclic;
    }
    inandouthalf42
    {
        type            cyclic;
    }
    top
    {
        type            symmetryPlane;
    }
    walls
    {
        type            zeroGradient;
    }
    frontAndBackPlanes
    {
        type            empty;
    }
}


// ************************************************************************* //
