/*--------------------------------*- C++ -*----------------------------------*\
| =========                 |                                                 |
| \\      /  F ield         | OpenFOAM: The Open Source CFD Toolbox           |
|  \\    /   O peration     | Version:  2.4.x                                 |
|   \\  /    A nd           | Web:      www.OpenFOAM.org                      |
|    \\/     M anipulation  |                                                 |
\*---------------------------------------------------------------------------*/
FoamFile
{
    version     2.0;
    format      ascii;
    class       volScalarField;
    location    "11.55";
    object      mua;
}
// * * * * * * * * * * * * * * * * * * * * * * * * * * * * * * * * * * * * * //

dimensions      [1 -1 -1 0 0 0 0];

internalField   nonuniform List<scalar> 
360
(
3.28362e+07
2.31117e+07
2.7563e+07
2.71512e+07
2.50225e+07
2.38283e+07
2.31969e+07
2.26659e+07
2.21592e+07
2.16995e+07
2.13086e+07
2.10005e+07
2.07739e+07
2.06229e+07
2.0539e+07
2.05144e+07
2.05453e+07
2.0629e+07
2.07595e+07
2.09309e+07
2.1141e+07
2.13808e+07
2.16455e+07
2.1931e+07
2.22317e+07
2.25436e+07
2.28614e+07
2.31772e+07
2.34893e+07
2.37947e+07
2.40867e+07
2.43614e+07
2.46193e+07
2.48497e+07
2.50581e+07
2.52403e+07
2.53948e+07
2.55159e+07
2.56068e+07
2.56731e+07
2.57022e+07
2.57047e+07
2.56827e+07
2.56265e+07
2.55456e+07
2.54392e+07
2.53117e+07
2.51702e+07
2.50017e+07
2.48105e+07
2.46121e+07
2.4398e+07
2.41708e+07
2.3933e+07
2.36883e+07
2.34319e+07
2.31739e+07
2.29089e+07
2.26447e+07
2.23807e+07
2.21077e+07
2.18362e+07
2.15618e+07
2.12901e+07
2.10216e+07
2.07562e+07
2.04912e+07
2.02297e+07
1.99763e+07
1.9728e+07
1.94752e+07
1.9226e+07
1.89872e+07
1.87479e+07
1.85103e+07
1.82762e+07
1.80519e+07
1.78337e+07
1.76188e+07
1.74085e+07
1.72039e+07
1.70017e+07
1.68013e+07
1.66036e+07
1.64088e+07
1.62177e+07
1.60308e+07
1.58496e+07
1.56738e+07
1.55023e+07
1.53346e+07
1.51697e+07
1.50064e+07
1.48443e+07
1.46834e+07
1.4524e+07
1.43664e+07
1.42106e+07
1.40565e+07
1.39033e+07
1.37502e+07
1.3596e+07
1.34392e+07
1.32788e+07
1.31134e+07
1.2942e+07
1.27634e+07
1.25768e+07
1.23816e+07
1.21775e+07
1.19649e+07
1.17448e+07
1.15189e+07
1.12897e+07
1.10599e+07
1.08329e+07
1.06116e+07
1.03986e+07
1.01952e+07
1.00009e+07
9.81275e+06
9.62467e+06
9.42713e+06
9.20689e+06
8.94743e+06
8.63056e+06
8.23991e+06
7.76668e+06
7.21638e+06
6.61323e+06
5.99818e+06
5.42025e+06
4.92879e+06
4.57767e+06
4.44603e+06
4.67638e+06
5.56092e+06
7.80956e+06
1.34594e+07
2.896e+07
6.87563e+07
8.31532e+07
1.70025e+07
1.51864e+07
1.53865e+07
5.60884e+06
290285
0.0347287
0.0127128
0.0095808
0.00821758
0.00730327
0.00666074
0.00621144
0.00589932
0.00567893
0.00551491
0.00538156
0.00526233
0.0051478
0.0050337
0.00491925
0.00480559
0.00469477
0.00458888
0.00448958
0.00439768
0.00431327
0.00423596
0.00416529
0.00410077
0.00404198
0.00398852
0.00393999
0.00389601
0.00385618
0.00382015
0.00378756
0.00375808
0.00373138
0.00370717
0.00368517
0.00366513
0.00364679
0.00362995
0.00361439
0.00359992
0.00358636
0.00357356
0.00356137
0.00354965
0.00353827
0.00352712
0.00351611
0.00350512
0.00349409
0.00348292
0.00347156
0.00345993
0.00344799
0.00343567
0.00342281
0.00340921
0.00339479
0.00337948
0.00336319
0.00334584
0.00332735
0.00330763
0.00328659
0.00326414
0.00324018
0.00321461
0.00318731
0.00315817
0.00312706
0.00309384
0.00305836
0.00302043
0.00297987
0.00293643
0.00288984
0.0028398
0.00278592
0.00272775
0.00266476
0.00259626
0.0025214
0.0024391
0.00234789
0.00224576
0.0021298
0.00199554
0.00183548
0.00163523
0.00135941
0
0
0
0
0
0
0
0
0
0
0
0
0
0
0
0
0
0
0
0
0
0
0
0
0
0
0
0
0
0
0
0
0
0
0
0
0
0
0
0
0
0
0
0
0
0
0
0
0
0
0
0
0
0
0
0
0
0
0
0
0
0
0
0
0
0
0
0
0
0
0
0
0
0
0
0
0
0
0
0
0
0
0
0
0
0
0
0
0
0
0
0
0
0
0
0
0
0
0
0
0
0
0
0
0
0
0
0
0
0
0
0
0
0
0
0
0
0
0
0
0
0
0
0
)
;

boundaryField
{
    inandouthalf11
    {
        type            cyclic;
    }
    inandouthalf12
    {
        type            cyclic;
    }
    inandouthalf21
    {
        type            cyclic;
    }
    inandouthalf22
    {
        type            cyclic;
    }
    inandouthalf31
    {
        type            cyclic;
    }
    inandouthalf32
    {
        type            cyclic;
    }
    inandouthalf41
    {
        type            cyclic;
    }
    inandouthalf42
    {
        type            cyclic;
    }
    top
    {
        type            symmetryPlane;
    }
    walls
    {
        type            calculated;
        value           uniform 1e+30;
    }
    frontAndBackPlanes
    {
        type            empty;
    }
}


// ************************************************************************* //
