/*--------------------------------*- C++ -*----------------------------------*\
| =========                 |                                                 |
| \\      /  F ield         | OpenFOAM: The Open Source CFD Toolbox           |
|  \\    /   O peration     | Version:  2.4.x                                 |
|   \\  /    A nd           | Web:      www.OpenFOAM.org                      |
|    \\/     M anipulation  |                                                 |
\*---------------------------------------------------------------------------*/
FoamFile
{
    version     2.0;
    format      ascii;
    class       surfaceScalarField;
    location    "11.55";
    object      phib;
}
// * * * * * * * * * * * * * * * * * * * * * * * * * * * * * * * * * * * * * //

dimensions      [0 3 -1 0 0 0 0];

internalField   nonuniform List<scalar> 
359
(
1.7289e-14
4.33461e-14
6.8029e-14
9.24328e-14
1.18105e-13
1.44848e-13
1.72217e-13
2.00056e-13
2.28324e-13
2.56988e-13
2.85974e-13
3.15176e-13
3.44487e-13
3.73801e-13
4.03021e-13
4.32061e-13
4.60844e-13
4.89296e-13
5.17356e-13
5.44975e-13
5.72109e-13
5.98731e-13
6.24821e-13
6.50368e-13
6.75367e-13
6.99823e-13
7.23741e-13
7.47139e-13
7.70034e-13
7.92446e-13
8.14397e-13
8.35918e-13
8.57025e-13
8.77757e-13
8.98132e-13
9.18183e-13
9.37931e-13
9.57405e-13
9.76636e-13
9.95636e-13
1.01444e-12
1.03306e-12
1.05152e-12
1.06985e-12
1.08805e-12
1.10615e-12
1.12416e-12
1.14209e-12
1.15995e-12
1.17778e-12
1.19555e-12
1.2133e-12
1.23102e-12
1.24873e-12
1.26643e-12
1.28413e-12
1.30182e-12
1.31952e-12
1.33723e-12
1.35493e-12
1.37265e-12
1.39038e-12
1.40812e-12
1.42587e-12
1.44363e-12
1.46139e-12
1.47916e-12
1.49693e-12
1.5147e-12
1.53245e-12
1.5502e-12
1.56794e-12
1.58566e-12
1.60335e-12
1.62103e-12
1.63867e-12
1.65628e-12
1.67385e-12
1.69136e-12
1.70882e-12
1.72622e-12
1.74355e-12
1.76081e-12
1.778e-12
1.7951e-12
1.81212e-12
1.82905e-12
1.84588e-12
1.86259e-12
1.8792e-12
1.89567e-12
1.91202e-12
1.92823e-12
1.94431e-12
1.96024e-12
1.97602e-12
1.99165e-12
2.00712e-12
2.02242e-12
2.03755e-12
2.05251e-12
2.0673e-12
2.0819e-12
2.09633e-12
2.11058e-12
2.12466e-12
2.13856e-12
2.1523e-12
2.16587e-12
2.17929e-12
2.19256e-12
2.20568e-12
2.21865e-12
2.23148e-12
2.24415e-12
2.25666e-12
2.26899e-12
2.28113e-12
2.29305e-12
2.30474e-12
2.31617e-12
2.32734e-12
2.33825e-12
2.34892e-12
2.35938e-12
2.36971e-12
2.37999e-12
2.39035e-12
2.40094e-12
2.4119e-12
2.42334e-12
2.43529e-12
2.44762e-12
2.45995e-12
2.47157e-12
2.48143e-12
2.48838e-12
2.49177e-12
2.49186e-12
2.4897e-12
2.48627e-12
2.46943e-12
2.45874e-12
2.45903e-12
2.45258e-12
2.44546e-12
2.25272e-12
-1.43597e-09
-1.87771e-09
-1.73764e-09
-1.58376e-09
-1.41743e-09
-1.24581e-09
-1.07622e-09
-9.14793e-10
-7.65955e-10
-6.32292e-10
-5.14854e-10
-4.13468e-10
-3.27229e-10
-2.54823e-10
-1.94751e-10
-1.45427e-10
-1.05239e-10
-7.27388e-11
-4.69853e-11
-2.75717e-11
-1.39556e-11
-4.96511e-12
8.08781e-13
4.49782e-12
6.85131e-12
8.33929e-12
9.2556e-12
9.78672e-12
1.00536e-11
1.01365e-11
1.00899e-11
9.95149e-12
9.74787e-12
9.49814e-12
9.21619e-12
8.91225e-12
8.59398e-12
8.26712e-12
7.93604e-12
7.60409e-12
7.27384e-12
6.94729e-12
6.62597e-12
6.31108e-12
6.00354e-12
5.70407e-12
5.41322e-12
5.13138e-12
4.85884e-12
4.5958e-12
4.34238e-12
4.09861e-12
3.86449e-12
3.63996e-12
3.42065e-12
3.20692e-12
2.99911e-12
2.79753e-12
2.60248e-12
2.41424e-12
2.23308e-12
2.05926e-12
1.89302e-12
1.73459e-12
1.58417e-12
1.44193e-12
1.30798e-12
1.18236e-12
1.06506e-12
9.55949e-13
8.54859e-13
7.61543e-13
6.75705e-13
5.97017e-13
5.25133e-13
4.59702e-13
4.00381e-13
3.46834e-13
2.98738e-13
2.55774e-13
2.17631e-13
1.83964e-13
1.54358e-13
1.28292e-13
1.04962e-13
8.33784e-14
6.37773e-14
4.81201e-14
3.83316e-14
3.07253e-14
2.40202e-14
1.84384e-14
1.38745e-14
1.02135e-14
7.33774e-15
5.13056e-15
3.48149e-15
2.28729e-15
1.43315e-15
8.85409e-16
4.80078e-16
2.83768e-16
1.13271e-16
6.54474e-17
1.05125e-17
1.09171e-16
1.34573e-17
1.27962e-17
1.21541e-17
1.14849e-17
1.08343e-17
1.01642e-17
9.51472e-18
8.86521e-18
8.24745e-18
7.65204e-18
7.11297e-18
6.62989e-18
6.20755e-18
5.82635e-18
5.48433e-18
5.17405e-18
4.88796e-18
4.6194e-18
4.37144e-18
4.1494e-18
3.94279e-18
3.74523e-18
3.55017e-18
3.36285e-18
3.17526e-18
2.99076e-18
2.8115e-18
2.6508e-18
2.49718e-18
2.34751e-18
2.19512e-18
2.04664e-18
1.89272e-18
1.73893e-18
1.58026e-18
1.42641e-18
1.27019e-18
1.11377e-18
9.54913e-19
7.96879e-19
6.43454e-19
4.98552e-19
3.93413e-19
3.35747e-19
2.90948e-19
2.5704e-19
2.4262e-19
2.19341e-19
2.00756e-19
1.84202e-19
1.70071e-19
1.55868e-19
1.45308e-19
1.35357e-19
1.2855e-19
1.19822e-19
1.13937e-19
1.08538e-19
1.05097e-19
9.97969e-20
9.63202e-20
9.31339e-20
9.10825e-20
8.87341e-20
8.77481e-20
8.69201e-20
8.71451e-20
8.78218e-20
8.82585e-20
8.97375e-20
9.01834e-20
9.37667e-20
9.67446e-20
1.05384e-19
1.37028e-19
1.77422e-19
2.36527e-19
2.99807e-19
3.48413e-19
4.14552e-19
4.52667e-19
4.92536e-19
5.00672e-19
5.7524e-19
6.00994e-19
6.26038e-19
5.77923e-19
5.96199e-19
5.08757e-19
4.27623e-19
2.43301e-19
2.80785e-19
1.51022e-19
1.75875e-20
-3.60292e-19
-5.92697e-19
-1.10904e-18
-1.65983e-18
-2.30546e-18
-3.34961e-18
-4.38324e-18
-5.47587e-18
-6.01714e-18
-8.21718e-18
-7.89211e-18
-6.43871e-18
)
;

boundaryField
{
    inandouthalf11
    {
        type            cyclic;
        value           nonuniform List<scalar> 
100
(
9.60586e-11
9.55233e-11
9.54528e-11
9.55267e-11
9.55622e-11
9.55746e-11
9.559e-11
9.56096e-11
9.56296e-11
9.56499e-11
9.56703e-11
9.56907e-11
9.57113e-11
9.57321e-11
9.57531e-11
9.57743e-11
9.57957e-11
9.58172e-11
9.58389e-11
9.58609e-11
9.58829e-11
9.59052e-11
9.59276e-11
9.59503e-11
9.59731e-11
9.59961e-11
9.60192e-11
9.60426e-11
9.60662e-11
9.609e-11
9.61139e-11
9.61382e-11
9.61625e-11
9.61873e-11
9.62121e-11
9.62373e-11
9.62626e-11
9.62882e-11
9.63142e-11
9.63401e-11
9.63668e-11
9.63935e-11
9.64202e-11
9.64477e-11
9.64752e-11
9.65031e-11
9.65314e-11
9.65597e-11
9.65885e-11
9.66179e-11
9.66472e-11
9.66771e-11
9.67073e-11
9.67379e-11
9.67687e-11
9.68002e-11
9.68317e-11
9.6864e-11
9.68964e-11
9.69291e-11
9.69627e-11
9.69963e-11
9.70306e-11
9.70652e-11
9.71003e-11
9.71358e-11
9.71719e-11
9.72085e-11
9.72455e-11
9.72829e-11
9.73211e-11
9.73599e-11
9.73988e-11
9.74387e-11
9.7479e-11
9.75201e-11
9.75615e-11
9.76036e-11
9.76465e-11
9.769e-11
9.77341e-11
9.77789e-11
9.78245e-11
9.78709e-11
9.7918e-11
9.79658e-11
9.80146e-11
9.80641e-11
9.81144e-11
9.81657e-11
9.82179e-11
9.8271e-11
9.83251e-11
9.83803e-11
9.84365e-11
9.84938e-11
9.85522e-11
9.86118e-11
9.86726e-11
9.87347e-11
)
;
    }
    inandouthalf12
    {
        type            cyclic;
        value           nonuniform List<scalar> 
100
(
-9.60586e-11
-9.55233e-11
-9.54528e-11
-9.55267e-11
-9.55622e-11
-9.55746e-11
-9.559e-11
-9.56096e-11
-9.56296e-11
-9.56499e-11
-9.56703e-11
-9.56907e-11
-9.57113e-11
-9.57321e-11
-9.57531e-11
-9.57743e-11
-9.57957e-11
-9.58172e-11
-9.58389e-11
-9.58609e-11
-9.58829e-11
-9.59052e-11
-9.59276e-11
-9.59503e-11
-9.59731e-11
-9.59961e-11
-9.60192e-11
-9.60426e-11
-9.60662e-11
-9.609e-11
-9.61139e-11
-9.61382e-11
-9.61625e-11
-9.61873e-11
-9.62121e-11
-9.62373e-11
-9.62626e-11
-9.62882e-11
-9.63142e-11
-9.63401e-11
-9.63668e-11
-9.63935e-11
-9.64202e-11
-9.64477e-11
-9.64752e-11
-9.65031e-11
-9.65314e-11
-9.65597e-11
-9.65885e-11
-9.66179e-11
-9.66472e-11
-9.66771e-11
-9.67073e-11
-9.67379e-11
-9.67687e-11
-9.68002e-11
-9.68317e-11
-9.6864e-11
-9.68964e-11
-9.69291e-11
-9.69627e-11
-9.69963e-11
-9.70306e-11
-9.70652e-11
-9.71003e-11
-9.71358e-11
-9.71719e-11
-9.72085e-11
-9.72455e-11
-9.72829e-11
-9.73211e-11
-9.73599e-11
-9.73988e-11
-9.74387e-11
-9.7479e-11
-9.75201e-11
-9.75615e-11
-9.76036e-11
-9.76465e-11
-9.769e-11
-9.77341e-11
-9.77789e-11
-9.78245e-11
-9.78709e-11
-9.7918e-11
-9.79658e-11
-9.80146e-11
-9.80641e-11
-9.81144e-11
-9.81657e-11
-9.82179e-11
-9.8271e-11
-9.83251e-11
-9.83803e-11
-9.84365e-11
-9.84938e-11
-9.85522e-11
-9.86118e-11
-9.86726e-11
-9.87347e-11
)
;
    }
    inandouthalf21
    {
        type            cyclic;
        value           nonuniform List<scalar> 
100
(
9.8798e-11
9.88627e-11
9.89289e-11
9.89964e-11
9.90656e-11
9.91363e-11
9.92086e-11
9.92827e-11
9.93585e-11
9.94363e-11
9.95159e-11
9.95976e-11
9.96815e-11
9.97675e-11
9.98559e-11
9.99467e-11
1.0004e-10
1.00136e-10
1.00235e-10
1.00337e-10
1.00442e-10
1.00551e-10
1.00663e-10
1.00778e-10
1.00898e-10
1.01022e-10
1.0115e-10
1.01283e-10
1.01422e-10
1.01566e-10
1.01716e-10
1.01873e-10
1.02036e-10
1.02209e-10
1.02394e-10
1.0259e-10
1.02798e-10
1.0302e-10
1.03266e-10
1.03546e-10
1.03848e-10
1.04207e-10
1.06689e-10
1.06319e-10
1.06775e-10
1.07533e-10
1.09236e-10
8.37374e-10
9.4506e-08
2.12879e-07
3.03976e-07
3.78263e-07
4.40683e-07
4.94093e-07
5.40401e-07
5.80977e-07
6.16835e-07
6.48744e-07
6.77294e-07
7.02932e-07
7.26001e-07
7.46756e-07
7.65384e-07
7.82022e-07
7.96773e-07
8.09718e-07
8.20936e-07
8.30518e-07
8.38581e-07
8.45266e-07
8.50735e-07
8.55156e-07
8.58694e-07
8.61497e-07
8.63697e-07
8.65402e-07
8.66701e-07
8.67665e-07
8.68352e-07
8.68808e-07
8.69067e-07
8.69159e-07
8.69106e-07
8.68929e-07
8.6864e-07
8.68254e-07
8.67781e-07
8.67228e-07
8.66604e-07
8.65915e-07
8.65166e-07
8.64363e-07
8.63508e-07
8.62606e-07
8.6166e-07
8.60674e-07
8.59649e-07
8.58588e-07
8.57494e-07
8.56368e-07
)
;
    }
    inandouthalf22
    {
        type            cyclic;
        value           nonuniform List<scalar> 
100
(
-9.8798e-11
-9.88627e-11
-9.89289e-11
-9.89964e-11
-9.90656e-11
-9.91363e-11
-9.92086e-11
-9.92827e-11
-9.93585e-11
-9.94363e-11
-9.95159e-11
-9.95976e-11
-9.96815e-11
-9.97675e-11
-9.98559e-11
-9.99467e-11
-1.0004e-10
-1.00136e-10
-1.00235e-10
-1.00337e-10
-1.00442e-10
-1.00551e-10
-1.00663e-10
-1.00778e-10
-1.00898e-10
-1.01022e-10
-1.0115e-10
-1.01283e-10
-1.01422e-10
-1.01566e-10
-1.01716e-10
-1.01873e-10
-1.02036e-10
-1.02209e-10
-1.02394e-10
-1.0259e-10
-1.02798e-10
-1.0302e-10
-1.03266e-10
-1.03546e-10
-1.03848e-10
-1.04207e-10
-1.06689e-10
-1.06319e-10
-1.06775e-10
-1.07533e-10
-1.09236e-10
-8.37374e-10
-9.4506e-08
-2.12879e-07
-3.03976e-07
-3.78263e-07
-4.40683e-07
-4.94093e-07
-5.40401e-07
-5.80977e-07
-6.16835e-07
-6.48744e-07
-6.77294e-07
-7.02932e-07
-7.26001e-07
-7.46756e-07
-7.65384e-07
-7.82022e-07
-7.96773e-07
-8.09718e-07
-8.20936e-07
-8.30518e-07
-8.38581e-07
-8.45266e-07
-8.50735e-07
-8.55156e-07
-8.58694e-07
-8.61497e-07
-8.63697e-07
-8.65402e-07
-8.66701e-07
-8.67665e-07
-8.68352e-07
-8.68808e-07
-8.69067e-07
-8.69159e-07
-8.69106e-07
-8.68929e-07
-8.6864e-07
-8.68254e-07
-8.67781e-07
-8.67228e-07
-8.66604e-07
-8.65915e-07
-8.65166e-07
-8.64363e-07
-8.63508e-07
-8.62606e-07
-8.6166e-07
-8.60674e-07
-8.59649e-07
-8.58588e-07
-8.57494e-07
-8.56368e-07
)
;
    }
    inandouthalf31
    {
        type            cyclic;
        value           nonuniform List<scalar> 
110
(
8.55216e-07
8.71355e-07
8.87744e-07
9.04382e-07
9.21273e-07
9.38418e-07
9.55817e-07
9.73474e-07
9.91389e-07
1.00956e-06
1.028e-06
1.04669e-06
1.06565e-06
1.08488e-06
1.10436e-06
1.12412e-06
1.14414e-06
1.16443e-06
1.18498e-06
1.20581e-06
1.22691e-06
1.24828e-06
1.26992e-06
1.29184e-06
1.31404e-06
1.33651e-06
1.35927e-06
1.3823e-06
1.40562e-06
1.42923e-06
1.45313e-06
1.47733e-06
1.50183e-06
1.52664e-06
1.55176e-06
1.57721e-06
1.60299e-06
1.62911e-06
1.6556e-06
1.68245e-06
1.7097e-06
1.73736e-06
1.76546e-06
1.79402e-06
1.82308e-06
1.85268e-06
1.88286e-06
1.91367e-06
1.94516e-06
1.97741e-06
2.01048e-06
2.04445e-06
2.07942e-06
2.11547e-06
2.15272e-06
2.19126e-06
2.23119e-06
2.27261e-06
2.3156e-06
2.36024e-06
2.40656e-06
2.45459e-06
2.50435e-06
2.55583e-06
2.609e-06
2.66385e-06
2.72035e-06
2.77845e-06
2.83813e-06
2.89933e-06
2.96202e-06
3.02613e-06
3.0916e-06
3.15835e-06
3.22628e-06
3.29524e-06
3.36503e-06
3.43472e-06
3.50459e-06
3.57573e-06
3.64831e-06
3.72236e-06
3.79791e-06
3.875e-06
3.95365e-06
4.0339e-06
4.11578e-06
4.19932e-06
4.28455e-06
4.37152e-06
4.46025e-06
4.55078e-06
4.64315e-06
4.73739e-06
4.83355e-06
4.93166e-06
5.03176e-06
5.13389e-06
5.23809e-06
5.34441e-06
5.45289e-06
5.56357e-06
5.67649e-06
5.79171e-06
5.90927e-06
6.02921e-06
6.15159e-06
6.27645e-06
6.40384e-06
6.53382e-06
)
;
    }
    inandouthalf32
    {
        type            cyclic;
        value           nonuniform List<scalar> 
110
(
-8.55216e-07
-8.71355e-07
-8.87744e-07
-9.04382e-07
-9.21273e-07
-9.38418e-07
-9.55817e-07
-9.73474e-07
-9.91389e-07
-1.00956e-06
-1.028e-06
-1.04669e-06
-1.06565e-06
-1.08488e-06
-1.10436e-06
-1.12412e-06
-1.14414e-06
-1.16443e-06
-1.18498e-06
-1.20581e-06
-1.22691e-06
-1.24828e-06
-1.26992e-06
-1.29184e-06
-1.31404e-06
-1.33651e-06
-1.35927e-06
-1.3823e-06
-1.40562e-06
-1.42923e-06
-1.45313e-06
-1.47733e-06
-1.50183e-06
-1.52664e-06
-1.55176e-06
-1.57721e-06
-1.60299e-06
-1.62911e-06
-1.6556e-06
-1.68245e-06
-1.7097e-06
-1.73736e-06
-1.76546e-06
-1.79402e-06
-1.82308e-06
-1.85268e-06
-1.88286e-06
-1.91367e-06
-1.94516e-06
-1.97741e-06
-2.01048e-06
-2.04445e-06
-2.07942e-06
-2.11547e-06
-2.15272e-06
-2.19126e-06
-2.23119e-06
-2.27261e-06
-2.3156e-06
-2.36024e-06
-2.40656e-06
-2.45459e-06
-2.50435e-06
-2.55583e-06
-2.609e-06
-2.66385e-06
-2.72035e-06
-2.77845e-06
-2.83813e-06
-2.89933e-06
-2.96202e-06
-3.02613e-06
-3.0916e-06
-3.15835e-06
-3.22628e-06
-3.29524e-06
-3.36503e-06
-3.43472e-06
-3.50459e-06
-3.57573e-06
-3.64831e-06
-3.72236e-06
-3.79791e-06
-3.875e-06
-3.95365e-06
-4.0339e-06
-4.11578e-06
-4.19932e-06
-4.28455e-06
-4.37152e-06
-4.46025e-06
-4.55078e-06
-4.64315e-06
-4.73739e-06
-4.83355e-06
-4.93166e-06
-5.03176e-06
-5.13389e-06
-5.23809e-06
-5.34441e-06
-5.45289e-06
-5.56357e-06
-5.67649e-06
-5.79171e-06
-5.90927e-06
-6.02921e-06
-6.15159e-06
-6.27645e-06
-6.40384e-06
-6.53382e-06
)
;
    }
    inandouthalf41
    {
        type            cyclic;
        value           nonuniform List<scalar> 
50
(
5.84844e-06
5.84844e-06
5.84844e-06
5.84844e-06
5.84844e-06
5.84844e-06
5.84844e-06
5.84844e-06
5.84844e-06
5.84844e-06
5.84844e-06
5.84844e-06
5.84844e-06
5.84844e-06
5.84844e-06
5.84844e-06
5.84844e-06
5.84844e-06
5.84844e-06
5.84844e-06
5.84844e-06
5.84844e-06
5.84844e-06
5.84844e-06
5.84844e-06
5.84844e-06
5.84844e-06
5.84844e-06
5.84844e-06
5.84844e-06
5.84844e-06
5.84844e-06
5.84844e-06
5.84844e-06
5.84844e-06
5.84844e-06
5.84844e-06
5.84844e-06
5.84844e-06
5.84844e-06
5.84844e-06
5.84844e-06
5.84844e-06
5.84844e-06
5.84844e-06
5.84844e-06
5.84844e-06
5.84844e-06
5.84844e-06
5.84844e-06
)
;
    }
    inandouthalf42
    {
        type            cyclic;
        value           nonuniform List<scalar> 
50
(
-5.84844e-06
-5.84844e-06
-5.84844e-06
-5.84844e-06
-5.84844e-06
-5.84844e-06
-5.84844e-06
-5.84844e-06
-5.84844e-06
-5.84844e-06
-5.84844e-06
-5.84844e-06
-5.84844e-06
-5.84844e-06
-5.84844e-06
-5.84844e-06
-5.84844e-06
-5.84844e-06
-5.84844e-06
-5.84844e-06
-5.84844e-06
-5.84844e-06
-5.84844e-06
-5.84844e-06
-5.84844e-06
-5.84844e-06
-5.84844e-06
-5.84844e-06
-5.84844e-06
-5.84844e-06
-5.84844e-06
-5.84844e-06
-5.84844e-06
-5.84844e-06
-5.84844e-06
-5.84844e-06
-5.84844e-06
-5.84844e-06
-5.84844e-06
-5.84844e-06
-5.84844e-06
-5.84844e-06
-5.84844e-06
-5.84844e-06
-5.84844e-06
-5.84844e-06
-5.84844e-06
-5.84844e-06
-5.84844e-06
-5.84844e-06
)
;
    }
    top
    {
        type            symmetryPlane;
        value           uniform 0;
    }
    walls
    {
        type            fixedValue;
        value           uniform 0;
    }
    frontAndBackPlanes
    {
        type            empty;
        value           nonuniform 0();
    }
}


// ************************************************************************* //
