/*--------------------------------*- C++ -*----------------------------------*\
| =========                 |                                                 |
| \\      /  F ield         | OpenFOAM: The Open Source CFD Toolbox           |
|  \\    /   O peration     | Version:  2.4.x                                 |
|   \\  /    A nd           | Web:      www.OpenFOAM.org                      |
|    \\/     M anipulation  |                                                 |
\*---------------------------------------------------------------------------*/
FoamFile
{
    version     2.0;
    format      ascii;
    class       volVectorField;
    location    "11.55";
    object      Ua;
}
// * * * * * * * * * * * * * * * * * * * * * * * * * * * * * * * * * * * * * //

dimensions      [0 1 -1 0 0 0 0];

internalField   nonuniform List<vector> 
360
(
(-2.09936e-32 -1.0133e-31 0)
(-1.49661e-09 -5.03569e-09 0)
(-3.14447e-09 -9.05093e-09 0)
(-4.66611e-09 -1.26898e-08 0)
(-6.25683e-09 -1.66295e-08 0)
(-7.95022e-09 -2.08304e-08 0)
(-9.70344e-09 -2.51424e-08 0)
(-1.14948e-08 -2.9526e-08 0)
(-1.33211e-08 -3.39819e-08 0)
(-1.51807e-08 -3.85065e-08 0)
(-1.70698e-08 -4.30902e-08 0)
(-1.89827e-08 -4.77182e-08 0)
(-2.09122e-08 -5.2373e-08 0)
(-2.28513e-08 -5.70373e-08 0)
(-2.47934e-08 -6.16949e-08 0)
(-2.67322e-08 -6.63314e-08 0)
(-2.86622e-08 -7.09341e-08 0)
(-3.05783e-08 -7.54906e-08 0)
(-3.24758e-08 -7.99902e-08 0)
(-3.43508e-08 -8.44242e-08 0)
(-3.62001e-08 -8.87853e-08 0)
(-3.80209e-08 -9.30677e-08 0)
(-3.98117e-08 -9.72678e-08 0)
(-4.1571e-08 -1.01383e-07 0)
(-4.32982e-08 -1.05413e-07 0)
(-4.4993e-08 -1.09356e-07 0)
(-4.66555e-08 -1.13214e-07 0)
(-4.82865e-08 -1.16989e-07 0)
(-4.98868e-08 -1.20683e-07 0)
(-5.14575e-08 -1.243e-07 0)
(-5.3e-08 -1.27843e-07 0)
(-5.45158e-08 -1.31316e-07 0)
(-5.60065e-08 -1.34722e-07 0)
(-5.74738e-08 -1.38067e-07 0)
(-5.89196e-08 -1.41354e-07 0)
(-6.03455e-08 -1.44588e-07 0)
(-6.17533e-08 -1.47773e-07 0)
(-6.31448e-08 -1.50914e-07 0)
(-6.45217e-08 -1.54014e-07 0)
(-6.58856e-08 -1.57078e-07 0)
(-6.72382e-08 -1.60108e-07 0)
(-6.8581e-08 -1.6311e-07 0)
(-6.99153e-08 -1.66085e-07 0)
(-7.12426e-08 -1.69038e-07 0)
(-7.25643e-08 -1.71971e-07 0)
(-7.38815e-08 -1.74887e-07 0)
(-7.51954e-08 -1.7779e-07 0)
(-7.65069e-08 -1.80679e-07 0)
(-7.78168e-08 -1.83559e-07 0)
(-7.91264e-08 -1.86431e-07 0)
(-8.04364e-08 -1.89297e-07 0)
(-8.17473e-08 -1.92158e-07 0)
(-8.306e-08 -1.95017e-07 0)
(-8.4375e-08 -1.97873e-07 0)
(-8.56927e-08 -2.00729e-07 0)
(-8.70138e-08 -2.03585e-07 0)
(-8.83385e-08 -2.06442e-07 0)
(-8.96672e-08 -2.09301e-07 0)
(-9.1e-08 -2.12162e-07 0)
(-9.2337e-08 -2.15025e-07 0)
(-9.36785e-08 -2.1789e-07 0)
(-9.50247e-08 -2.20759e-07 0)
(-9.63758e-08 -2.2363e-07 0)
(-9.77318e-08 -2.26505e-07 0)
(-9.90926e-08 -2.29383e-07 0)
(-1.00458e-07 -2.32264e-07 0)
(-1.01828e-07 -2.35147e-07 0)
(-1.03203e-07 -2.38032e-07 0)
(-1.04582e-07 -2.40919e-07 0)
(-1.05964e-07 -2.43806e-07 0)
(-1.07351e-07 -2.46693e-07 0)
(-1.08741e-07 -2.49581e-07 0)
(-1.10135e-07 -2.52468e-07 0)
(-1.11532e-07 -2.55353e-07 0)
(-1.12932e-07 -2.58237e-07 0)
(-1.14335e-07 -2.61119e-07 0)
(-1.1574e-07 -2.63998e-07 0)
(-1.17148e-07 -2.66872e-07 0)
(-1.18556e-07 -2.69741e-07 0)
(-1.19966e-07 -2.72604e-07 0)
(-1.21377e-07 -2.75459e-07 0)
(-1.22788e-07 -2.78306e-07 0)
(-1.24199e-07 -2.81144e-07 0)
(-1.2561e-07 -2.83973e-07 0)
(-1.2702e-07 -2.86792e-07 0)
(-1.2843e-07 -2.896e-07 0)
(-1.29839e-07 -2.92396e-07 0)
(-1.31246e-07 -2.9518e-07 0)
(-1.32651e-07 -2.97949e-07 0)
(-1.34053e-07 -3.00702e-07 0)
(-1.35452e-07 -3.03439e-07 0)
(-1.36847e-07 -3.06158e-07 0)
(-1.38238e-07 -3.0886e-07 0)
(-1.39626e-07 -3.11542e-07 0)
(-1.41009e-07 -3.14204e-07 0)
(-1.42387e-07 -3.16846e-07 0)
(-1.4376e-07 -3.19467e-07 0)
(-1.45128e-07 -3.22067e-07 0)
(-1.46491e-07 -3.24643e-07 0)
(-1.47848e-07 -3.27196e-07 0)
(-1.49199e-07 -3.29725e-07 0)
(-1.50544e-07 -3.3223e-07 0)
(-1.51882e-07 -3.34709e-07 0)
(-1.53215e-07 -3.37164e-07 0)
(-1.54543e-07 -3.39595e-07 0)
(-1.55865e-07 -3.42001e-07 0)
(-1.57183e-07 -3.44384e-07 0)
(-1.58497e-07 -3.46744e-07 0)
(-1.59808e-07 -3.49082e-07 0)
(-1.61117e-07 -3.51399e-07 0)
(-1.62425e-07 -3.53696e-07 0)
(-1.63733e-07 -3.55975e-07 0)
(-1.65041e-07 -3.58235e-07 0)
(-1.66351e-07 -3.60477e-07 0)
(-1.67663e-07 -3.62701e-07 0)
(-1.68977e-07 -3.64906e-07 0)
(-1.70292e-07 -3.6709e-07 0)
(-1.71608e-07 -3.6925e-07 0)
(-1.72925e-07 -3.71385e-07 0)
(-1.74241e-07 -3.7349e-07 0)
(-1.75555e-07 -3.75563e-07 0)
(-1.76867e-07 -3.77602e-07 0)
(-1.78177e-07 -3.79606e-07 0)
(-1.79488e-07 -3.81577e-07 0)
(-1.80806e-07 -3.83521e-07 0)
(-1.82137e-07 -3.85445e-07 0)
(-1.83493e-07 -3.87364e-07 0)
(-1.84891e-07 -3.89296e-07 0)
(-1.86353e-07 -3.91264e-07 0)
(-1.87902e-07 -3.93295e-07 0)
(-1.89565e-07 -3.95411e-07 0)
(-1.91363e-07 -3.97627e-07 0)
(-1.93306e-07 -3.99941e-07 0)
(-1.95378e-07 -4.0232e-07 0)
(-1.97517e-07 -4.04683e-07 0)
(-1.99589e-07 -4.06881e-07 0)
(-2.01395e-07 -4.08714e-07 0)
(-2.02743e-07 -4.10015e-07 0)
(-2.03564e-07 -4.10761e-07 0)
(-2.03955e-07 -4.1109e-07 0)
(-2.04108e-07 -4.11201e-07 0)
(-2.04188e-07 -4.11236e-07 0)
(-2.04282e-07 -4.1131e-07 0)
(-2.04527e-07 -4.11587e-07 0)
(-2.04756e-07 -4.11702e-07 0)
(-2.05054e-07 -4.11776e-07 0)
(-2.0603e-07 -4.11702e-07 0)
(-2.24927e-07 -4.08291e-07 0)
(-0.0836179 0.00090286 0)
(-0.200229 0.00149917 0)
(-0.29324 0.00182951 0)
(-0.369145 0.00205672 0)
(-0.432619 0.00229121 0)
(-0.486661 0.0025316 0)
(-0.533259 0.00277895 0)
(-0.573809 0.00303343 0)
(-0.609336 0.00329298 0)
(-0.640603 0.00355276 0)
(-0.668188 0.00380523 0)
(-0.692531 0.0040399 0)
(-0.71397 0.00424306 0)
(-0.732774 0.00439736 0)
(-0.749171 0.00448013 0)
(-0.763372 0.00445863 0)
(-0.775582 0.0042841 0)
(-0.786019 0.00389805 0)
(-0.794913 0.00326458 0)
(-0.802495 0.00240754 0)
(-0.808978 0.00140554 0)
(-0.81454 0.000348262 0)
(-0.819323 -0.000697759 0)
(-0.823441 -0.0016945 0)
(-0.826987 -0.00262406 0)
(-0.830037 -0.00348017 0)
(-0.832654 -0.00426279 0)
(-0.834891 -0.00497498 0)
(-0.836794 -0.0056211 0)
(-0.838403 -0.00620599 0)
(-0.83975 -0.00673445 0)
(-0.840864 -0.00721102 0)
(-0.841772 -0.00763992 0)
(-0.842496 -0.00802498 0)
(-0.843055 -0.00836972 0)
(-0.843466 -0.00867734 0)
(-0.843746 -0.00895073 0)
(-0.843907 -0.00919255 0)
(-0.843963 -0.00940526 0)
(-0.843925 -0.0095911 0)
(-0.843804 -0.00975216 0)
(-0.843607 -0.00989039 0)
(-0.843345 -0.0100076 0)
(-0.843024 -0.0101055 0)
(-0.842652 -0.0101856 0)
(-0.842235 -0.0102495 0)
(-0.841781 -0.0102985 0)
(-0.841293 -0.010334 0)
(-0.840778 -0.0103571 0)
(-0.840241 -0.010369 0)
(-0.839686 -0.0103708 0)
(-0.839117 -0.0103634 0)
(-0.838539 -0.0103477 0)
(-0.837949 -0.0103244 0)
(-0.837344 -0.0102936 0)
(-0.836724 -0.0102559 0)
(-0.836091 -0.0102116 0)
(-0.835448 -0.010161 0)
(-0.834796 -0.0101047 0)
(-0.834137 -0.0100431 0)
(-0.833473 -0.00997638 0)
(-0.832805 -0.00990502 0)
(-0.832135 -0.00982922 0)
(-0.831465 -0.00974915 0)
(-0.830796 -0.00966489 0)
(-0.830131 -0.00957638 0)
(-0.82947 -0.00948345 0)
(-0.828815 -0.00938581 0)
(-0.828167 -0.0092831 0)
(-0.827527 -0.00917493 0)
(-0.826897 -0.00906092 0)
(-0.826277 -0.00894081 0)
(-0.825667 -0.00881445 0)
(-0.82507 -0.00868182 0)
(-0.824485 -0.00854306 0)
(-0.823913 -0.00839839 0)
(-0.823356 -0.0082481 0)
(-0.822813 -0.00809248 0)
(-0.822287 -0.0079318 0)
(-0.821778 -0.00776623 0)
(-0.821287 -0.00759582 0)
(-0.820818 -0.00742045 0)
(-0.820374 -0.00724006 0)
(-0.819958 -0.00705509 0)
(-0.819574 -0.00686857 0)
(-0.819224 -0.00669186 0)
(-0.81891 -0.00654823 0)
(-0.818642 -0.00646669 0)
(-0.818323 -0.00642257 0)
(-0.771406 -0.00560699 0)
(-0.768406 -0.0055019 0)
(-0.7653 -0.00510321 0)
(-0.762191 -0.00472453 0)
(-0.759082 -0.00432583 0)
(-0.755983 -0.00391482 0)
(-0.7529 -0.0034749 0)
(-0.749854 -0.00317997 0)
(-0.746824 -0.00236957 0)
(-0.743897 -0.00285395 0)
(-0.740959 -0.00085923 0)
(-0.738254 -0.00300058 0)
(-0.735492 0.000938687 0)
(-0.733 -0.00333254 0)
(-0.73054 0.00269583 0)
(-0.728157 -0.00304297 0)
(-0.726792 -0.0315031 0)
(-0.725164 -0.0396603 0)
(-0.723362 -0.0396147 0)
(-0.721959 -0.0396108 0)
(-0.720788 -0.0396038 0)
(-0.71987 -0.0395969 0)
(-0.719198 -0.0395901 0)
(-0.71878 -0.0395839 0)
(-0.718607 -0.039579 0)
(-0.71862 -0.0395738 0)
(-0.718841 -0.0395698 0)
(-0.719232 -0.0395667 0)
(-0.719773 -0.0395642 0)
(-0.720438 -0.0395623 0)
(-0.721207 -0.039561 0)
(-0.722056 -0.03956 0)
(-0.722964 -0.0395592 0)
(-0.723908 -0.0395586 0)
(-0.724866 -0.0395581 0)
(-0.725814 -0.0395574 0)
(-0.726729 -0.0395565 0)
(-0.727582 -0.0395551 0)
(-0.728341 -0.039553 0)
(-0.728933 -0.0395482 0)
(-0.729177 -0.0395426 0)
(-0.729202 -0.0395401 0)
(-0.729203 -0.0395398 0)
(-0.729203 -0.0395398 0)
(-0.729203 -0.0395398 0)
(-0.729203 -0.0395398 0)
(-0.729203 -0.0395398 0)
(-0.729203 -0.0395398 0)
(-0.729203 -0.0395398 0)
(-0.729203 -0.0395398 0)
(-0.729203 -0.0395398 0)
(-0.729203 -0.0395398 0)
(-0.729203 -0.0395398 0)
(-0.729203 -0.0395398 0)
(-0.729203 -0.0395398 0)
(-0.729203 -0.0395398 0)
(-0.729203 -0.0395398 0)
(-0.729203 -0.0395398 0)
(-0.729203 -0.0395398 0)
(-0.729203 -0.0395398 0)
(-0.729203 -0.0395398 0)
(-0.729203 -0.0395398 0)
(-0.729203 -0.0395398 0)
(-0.729203 -0.0395398 0)
(-0.729203 -0.0395398 0)
(-0.729203 -0.0395398 0)
(-0.729203 -0.0395398 0)
(-0.729203 -0.0395398 0)
(-0.729203 -0.0395398 0)
(-0.729203 -0.0395398 0)
(-0.729203 -0.0395398 0)
(-0.729203 -0.0395398 0)
(-0.729203 -0.0395398 0)
(-0.729203 -0.0395398 0)
(-0.729203 -0.0395398 0)
(-0.729203 -0.0395398 0)
(-0.729203 -0.0395398 0)
(-0.729203 -0.0395398 0)
(-0.729203 -0.0395398 0)
(-0.729203 -0.0395398 0)
(-0.729203 -0.0395398 0)
(-0.729203 -0.0395398 0)
(-0.729203 -0.0395398 0)
(-0.729203 -0.0395398 0)
(-0.729203 -0.0395398 0)
(-0.729203 -0.0395398 0)
(-0.729203 -0.0395398 0)
(-0.729203 -0.0395398 0)
(-0.729203 -0.0395398 0)
(-0.729203 -0.0395398 0)
(-0.729203 -0.0395398 0)
(-0.729203 -0.0395398 0)
(-0.729203 -0.0395398 0)
(-0.729203 -0.0395398 0)
(-0.729203 -0.0395398 0)
(-0.729203 -0.0395398 0)
(-0.729203 -0.0395398 0)
(-0.729203 -0.0395398 0)
(-0.729203 -0.0395398 0)
(-0.729203 -0.0395398 0)
(-0.729203 -0.0395398 0)
(-0.729203 -0.0395398 0)
(-0.729203 -0.0395398 0)
(-0.729203 -0.0395398 0)
(-0.729203 -0.0395398 0)
(-0.729203 -0.0395398 0)
(-0.729203 -0.0395398 0)
(-0.729203 -0.0395398 0)
(-0.729203 -0.0395398 0)
(-0.729203 -0.0395398 0)
(-0.729203 -0.0395398 0)
(-0.729203 -0.0395398 0)
(-0.729203 -0.0395398 0)
(-0.729203 -0.0395398 0)
(-0.729203 -0.0395398 0)
(-0.729203 -0.0395398 0)
(-0.729203 -0.0395398 0)
(-0.729203 -0.0395398 0)
(-0.729203 -0.0395398 0)
(-0.729203 -0.0395396 0)
(-0.729202 -0.0395312 0)
(-0.729189 -0.0391863 0)
(-0.728886 -0.0224797 0)
)
;

boundaryField
{
    inandouthalf11
    {
        type            cyclic;
    }
    inandouthalf12
    {
        type            cyclic;
    }
    inandouthalf21
    {
        type            cyclic;
    }
    inandouthalf22
    {
        type            cyclic;
    }
    inandouthalf31
    {
        type            cyclic;
    }
    inandouthalf32
    {
        type            cyclic;
    }
    inandouthalf41
    {
        type            cyclic;
    }
    inandouthalf42
    {
        type            cyclic;
    }
    top
    {
        type            symmetryPlane;
    }
    walls
    {
        type            fixedValue;
        value           uniform (0 0 0);
    }
    frontAndBackPlanes
    {
        type            empty;
    }
}


// ************************************************************************* //
