/*--------------------------------*- C++ -*----------------------------------*\
| =========                 |                                                 |
| \\      /  F ield         | OpenFOAM: The Open Source CFD Toolbox           |
|  \\    /   O peration     | Version:  2.4.x                                 |
|   \\  /    A nd           | Web:      www.OpenFOAM.org                      |
|    \\/     M anipulation  |                                                 |
\*---------------------------------------------------------------------------*/
FoamFile
{
    version     2.0;
    format      ascii;
    class       volVectorField;
    location    "11.55";
    object      Ua_0;
}
// * * * * * * * * * * * * * * * * * * * * * * * * * * * * * * * * * * * * * //

dimensions      [0 1 -1 0 0 0 0];

internalField   nonuniform List<vector> 
360
(
(-2.09943e-32 -1.0133e-31 0)
(-1.497e-09 -5.03684e-09 0)
(-3.14529e-09 -9.053e-09 0)
(-4.66732e-09 -1.26927e-08 0)
(-6.25845e-09 -1.66333e-08 0)
(-7.95227e-09 -2.08351e-08 0)
(-9.70591e-09 -2.5148e-08 0)
(-1.14977e-08 -2.95326e-08 0)
(-1.33244e-08 -3.39893e-08 0)
(-1.51844e-08 -3.85147e-08 0)
(-1.70739e-08 -4.30992e-08 0)
(-1.89871e-08 -4.7728e-08 0)
(-2.09169e-08 -5.23835e-08 0)
(-2.28564e-08 -5.70484e-08 0)
(-2.47987e-08 -6.17066e-08 0)
(-2.67378e-08 -6.63437e-08 0)
(-2.86681e-08 -7.09468e-08 0)
(-3.05844e-08 -7.55037e-08 0)
(-3.2482e-08 -8.00037e-08 0)
(-3.43572e-08 -8.44381e-08 0)
(-3.62066e-08 -8.87995e-08 0)
(-3.80276e-08 -9.30821e-08 0)
(-3.98185e-08 -9.72824e-08 0)
(-4.15779e-08 -1.01398e-07 0)
(-4.33052e-08 -1.05428e-07 0)
(-4.50001e-08 -1.09371e-07 0)
(-4.66627e-08 -1.13229e-07 0)
(-4.82937e-08 -1.17004e-07 0)
(-4.98941e-08 -1.20699e-07 0)
(-5.14649e-08 -1.24316e-07 0)
(-5.30075e-08 -1.27859e-07 0)
(-5.45233e-08 -1.31332e-07 0)
(-5.60141e-08 -1.34738e-07 0)
(-5.74815e-08 -1.38083e-07 0)
(-5.89274e-08 -1.41371e-07 0)
(-6.03534e-08 -1.44605e-07 0)
(-6.17613e-08 -1.4779e-07 0)
(-6.31529e-08 -1.50931e-07 0)
(-6.45299e-08 -1.54032e-07 0)
(-6.5894e-08 -1.57095e-07 0)
(-6.72467e-08 -1.60126e-07 0)
(-6.85896e-08 -1.63128e-07 0)
(-6.99241e-08 -1.66104e-07 0)
(-7.12515e-08 -1.69056e-07 0)
(-7.25733e-08 -1.7199e-07 0)
(-7.38907e-08 -1.74907e-07 0)
(-7.52048e-08 -1.77809e-07 0)
(-7.65164e-08 -1.807e-07 0)
(-7.78265e-08 -1.83579e-07 0)
(-7.91363e-08 -1.86452e-07 0)
(-8.04465e-08 -1.89318e-07 0)
(-8.17577e-08 -1.9218e-07 0)
(-8.30706e-08 -1.95039e-07 0)
(-8.43858e-08 -1.97896e-07 0)
(-8.57038e-08 -2.00752e-07 0)
(-8.70251e-08 -2.03609e-07 0)
(-8.835e-08 -2.06467e-07 0)
(-8.9679e-08 -2.09326e-07 0)
(-9.10121e-08 -2.12188e-07 0)
(-9.23493e-08 -2.15051e-07 0)
(-9.3691e-08 -2.17917e-07 0)
(-9.50375e-08 -2.20786e-07 0)
(-9.63889e-08 -2.23658e-07 0)
(-9.77451e-08 -2.26534e-07 0)
(-9.91062e-08 -2.29413e-07 0)
(-1.00472e-07 -2.32294e-07 0)
(-1.01842e-07 -2.35177e-07 0)
(-1.03217e-07 -2.38063e-07 0)
(-1.04596e-07 -2.40951e-07 0)
(-1.05979e-07 -2.43838e-07 0)
(-1.07366e-07 -2.46726e-07 0)
(-1.08757e-07 -2.49614e-07 0)
(-1.10151e-07 -2.52502e-07 0)
(-1.11548e-07 -2.55388e-07 0)
(-1.12948e-07 -2.58273e-07 0)
(-1.14352e-07 -2.61156e-07 0)
(-1.15757e-07 -2.64035e-07 0)
(-1.17165e-07 -2.6691e-07 0)
(-1.18574e-07 -2.69779e-07 0)
(-1.19984e-07 -2.72642e-07 0)
(-1.21395e-07 -2.75498e-07 0)
(-1.22806e-07 -2.78346e-07 0)
(-1.24218e-07 -2.81185e-07 0)
(-1.25629e-07 -2.84014e-07 0)
(-1.2704e-07 -2.86834e-07 0)
(-1.2845e-07 -2.89643e-07 0)
(-1.29859e-07 -2.9244e-07 0)
(-1.31266e-07 -2.95224e-07 0)
(-1.32671e-07 -2.97993e-07 0)
(-1.34074e-07 -3.00747e-07 0)
(-1.35473e-07 -3.03485e-07 0)
(-1.36869e-07 -3.06205e-07 0)
(-1.3826e-07 -3.08907e-07 0)
(-1.39648e-07 -3.11589e-07 0)
(-1.41031e-07 -3.14253e-07 0)
(-1.4241e-07 -3.16895e-07 0)
(-1.43783e-07 -3.19517e-07 0)
(-1.45152e-07 -3.22117e-07 0)
(-1.46515e-07 -3.24694e-07 0)
(-1.47872e-07 -3.27248e-07 0)
(-1.49223e-07 -3.29777e-07 0)
(-1.50568e-07 -3.32282e-07 0)
(-1.51907e-07 -3.34763e-07 0)
(-1.5324e-07 -3.37218e-07 0)
(-1.54568e-07 -3.39649e-07 0)
(-1.55891e-07 -3.42056e-07 0)
(-1.57209e-07 -3.44439e-07 0)
(-1.58523e-07 -3.468e-07 0)
(-1.59834e-07 -3.49138e-07 0)
(-1.61144e-07 -3.51456e-07 0)
(-1.62452e-07 -3.53754e-07 0)
(-1.6376e-07 -3.56033e-07 0)
(-1.65069e-07 -3.58294e-07 0)
(-1.66379e-07 -3.60537e-07 0)
(-1.67691e-07 -3.62761e-07 0)
(-1.69005e-07 -3.64967e-07 0)
(-1.70321e-07 -3.67151e-07 0)
(-1.71637e-07 -3.69312e-07 0)
(-1.72954e-07 -3.71447e-07 0)
(-1.7427e-07 -3.73553e-07 0)
(-1.75584e-07 -3.75626e-07 0)
(-1.76896e-07 -3.77666e-07 0)
(-1.78207e-07 -3.79671e-07 0)
(-1.79519e-07 -3.81642e-07 0)
(-1.80836e-07 -3.83586e-07 0)
(-1.82167e-07 -3.85511e-07 0)
(-1.83524e-07 -3.8743e-07 0)
(-1.84923e-07 -3.89363e-07 0)
(-1.86385e-07 -3.91332e-07 0)
(-1.87935e-07 -3.93363e-07 0)
(-1.89598e-07 -3.9548e-07 0)
(-1.91397e-07 -3.97698e-07 0)
(-1.9334e-07 -4.00013e-07 0)
(-1.95414e-07 -4.02393e-07 0)
(-1.97553e-07 -4.04757e-07 0)
(-1.99626e-07 -4.06956e-07 0)
(-2.01432e-07 -4.0879e-07 0)
(-2.02781e-07 -4.10091e-07 0)
(-2.03602e-07 -4.10838e-07 0)
(-2.03993e-07 -4.11167e-07 0)
(-2.04146e-07 -4.11278e-07 0)
(-2.04226e-07 -4.11313e-07 0)
(-2.0432e-07 -4.11387e-07 0)
(-2.04565e-07 -4.11664e-07 0)
(-2.04794e-07 -4.11779e-07 0)
(-2.05092e-07 -4.11853e-07 0)
(-2.06068e-07 -4.11779e-07 0)
(-2.24933e-07 -4.08377e-07 0)
(-0.0835979 0.000901864 0)
(-0.200217 0.00149808 0)
(-0.293233 0.00182826 0)
(-0.36914 0.00205533 0)
(-0.432615 0.00228968 0)
(-0.486657 0.00252999 0)
(-0.533254 0.0027773 0)
(-0.573804 0.00303183 0)
(-0.60933 0.00329146 0)
(-0.640596 0.00355135 0)
(-0.668179 0.00380394 0)
(-0.69252 0.0040387 0)
(-0.713956 0.0042419 0)
(-0.732757 0.00439615 0)
(-0.749151 0.00447875 0)
(-0.763348 0.00445689 0)
(-0.775554 0.00428174 0)
(-0.785988 0.00389479 0)
(-0.794878 0.00326031 0)
(-0.802457 0.00240239 0)
(-0.808938 0.00139981 0)
(-0.814497 0.000342252 0)
(-0.819278 -0.000703836 0)
(-0.823394 -0.00170052 0)
(-0.826938 -0.00262995 0)
(-0.829986 -0.00348591 0)
(-0.832601 -0.00426836 0)
(-0.834836 -0.00498037 0)
(-0.836738 -0.00562633 0)
(-0.838345 -0.00621106 0)
(-0.839691 -0.00673936 0)
(-0.840804 -0.00721578 0)
(-0.841711 -0.00764453 0)
(-0.842433 -0.00802945 0)
(-0.842991 -0.00837406 0)
(-0.843401 -0.00868155 0)
(-0.84368 -0.00895481 0)
(-0.843841 -0.00919651 0)
(-0.843896 -0.0094091 0)
(-0.843857 -0.00959482 0)
(-0.843734 -0.00975577 0)
(-0.843537 -0.00989389 0)
(-0.843274 -0.010011 0)
(-0.842952 -0.0101088 0)
(-0.84258 -0.0101888 0)
(-0.842163 -0.0102526 0)
(-0.841707 -0.0103015 0)
(-0.841219 -0.0103369 0)
(-0.840704 -0.0103599 0)
(-0.840166 -0.0103717 0)
(-0.83961 -0.0103734 0)
(-0.839041 -0.0103659 0)
(-0.838462 -0.0103501 0)
(-0.837872 -0.0103267 0)
(-0.837266 -0.0102959 0)
(-0.836645 -0.0102581 0)
(-0.836012 -0.0102137 0)
(-0.835369 -0.0101631 0)
(-0.834716 -0.0101067 0)
(-0.834057 -0.0100449 0)
(-0.833392 -0.00997817 0)
(-0.832723 -0.00990672 0)
(-0.832053 -0.00983084 0)
(-0.831383 -0.0097507 0)
(-0.830714 -0.00966636 0)
(-0.830048 -0.00957778 0)
(-0.829387 -0.00948477 0)
(-0.828731 -0.00938705 0)
(-0.828083 -0.00928427 0)
(-0.827443 -0.00917603 0)
(-0.826812 -0.00906195 0)
(-0.826192 -0.00894178 0)
(-0.825582 -0.00881535 0)
(-0.824984 -0.00868266 0)
(-0.824399 -0.00854384 0)
(-0.823827 -0.00839911 0)
(-0.82327 -0.00824877 0)
(-0.822727 -0.00809311 0)
(-0.8222 -0.00793238 0)
(-0.821691 -0.00776677 0)
(-0.8212 -0.00759632 0)
(-0.820731 -0.00742092 0)
(-0.820286 -0.0072405 0)
(-0.81987 -0.0070555 0)
(-0.819486 -0.00686895 0)
(-0.819136 -0.00669219 0)
(-0.818822 -0.0065485 0)
(-0.818554 -0.00646691 0)
(-0.818235 -0.00642276 0)
(-0.77131 -0.00560695 0)
(-0.76831 -0.00550175 0)
(-0.765204 -0.00510289 0)
(-0.762094 -0.00472406 0)
(-0.758985 -0.00432524 0)
(-0.755885 -0.00391411 0)
(-0.752802 -0.00347399 0)
(-0.749757 -0.00317937 0)
(-0.746726 -0.00236804 0)
(-0.743799 -0.00285373 0)
(-0.740861 -0.00085723 0)
(-0.738156 -0.00300044 0)
(-0.735395 0.000940549 0)
(-0.732902 -0.0033316 0)
(-0.730443 0.0026965 0)
(-0.72806 -0.00304147 0)
(-0.726695 -0.0315043 0)
(-0.725068 -0.0396603 0)
(-0.723266 -0.0396147 0)
(-0.721864 -0.0396108 0)
(-0.720693 -0.0396037 0)
(-0.719776 -0.0395969 0)
(-0.719104 -0.0395901 0)
(-0.718686 -0.0395839 0)
(-0.718514 -0.039579 0)
(-0.718528 -0.0395738 0)
(-0.718749 -0.0395698 0)
(-0.719141 -0.0395666 0)
(-0.719681 -0.0395642 0)
(-0.720347 -0.0395623 0)
(-0.721116 -0.039561 0)
(-0.721965 -0.03956 0)
(-0.722873 -0.0395592 0)
(-0.723817 -0.0395586 0)
(-0.724775 -0.0395581 0)
(-0.725724 -0.0395574 0)
(-0.726638 -0.0395565 0)
(-0.727491 -0.0395551 0)
(-0.72825 -0.039553 0)
(-0.728842 -0.0395482 0)
(-0.729085 -0.0395426 0)
(-0.729111 -0.0395401 0)
(-0.729112 -0.0395398 0)
(-0.729112 -0.0395398 0)
(-0.729112 -0.0395398 0)
(-0.729112 -0.0395398 0)
(-0.729112 -0.0395398 0)
(-0.729112 -0.0395398 0)
(-0.729112 -0.0395398 0)
(-0.729112 -0.0395398 0)
(-0.729112 -0.0395398 0)
(-0.729112 -0.0395398 0)
(-0.729112 -0.0395398 0)
(-0.729112 -0.0395398 0)
(-0.729112 -0.0395398 0)
(-0.729112 -0.0395398 0)
(-0.729112 -0.0395398 0)
(-0.729112 -0.0395398 0)
(-0.729112 -0.0395398 0)
(-0.729112 -0.0395398 0)
(-0.729112 -0.0395398 0)
(-0.729112 -0.0395398 0)
(-0.729112 -0.0395398 0)
(-0.729112 -0.0395398 0)
(-0.729112 -0.0395398 0)
(-0.729112 -0.0395398 0)
(-0.729112 -0.0395398 0)
(-0.729112 -0.0395398 0)
(-0.729112 -0.0395398 0)
(-0.729112 -0.0395398 0)
(-0.729112 -0.0395398 0)
(-0.729112 -0.0395398 0)
(-0.729112 -0.0395398 0)
(-0.729112 -0.0395398 0)
(-0.729112 -0.0395398 0)
(-0.729112 -0.0395398 0)
(-0.729112 -0.0395398 0)
(-0.729112 -0.0395398 0)
(-0.729112 -0.0395398 0)
(-0.729112 -0.0395398 0)
(-0.729112 -0.0395398 0)
(-0.729112 -0.0395398 0)
(-0.729112 -0.0395398 0)
(-0.729112 -0.0395398 0)
(-0.729112 -0.0395398 0)
(-0.729112 -0.0395398 0)
(-0.729112 -0.0395398 0)
(-0.729112 -0.0395398 0)
(-0.729112 -0.0395398 0)
(-0.729112 -0.0395398 0)
(-0.729112 -0.0395398 0)
(-0.729112 -0.0395398 0)
(-0.729112 -0.0395398 0)
(-0.729112 -0.0395398 0)
(-0.729112 -0.0395398 0)
(-0.729112 -0.0395398 0)
(-0.729112 -0.0395398 0)
(-0.729112 -0.0395398 0)
(-0.729112 -0.0395398 0)
(-0.729112 -0.0395398 0)
(-0.729112 -0.0395398 0)
(-0.729112 -0.0395398 0)
(-0.729112 -0.0395398 0)
(-0.729112 -0.0395398 0)
(-0.729112 -0.0395398 0)
(-0.729112 -0.0395398 0)
(-0.729112 -0.0395398 0)
(-0.729112 -0.0395398 0)
(-0.729112 -0.0395398 0)
(-0.729112 -0.0395398 0)
(-0.729112 -0.0395398 0)
(-0.729112 -0.0395398 0)
(-0.729112 -0.0395398 0)
(-0.729112 -0.0395398 0)
(-0.729112 -0.0395398 0)
(-0.729112 -0.0395398 0)
(-0.729112 -0.0395398 0)
(-0.729112 -0.0395398 0)
(-0.729112 -0.0395398 0)
(-0.729112 -0.0395396 0)
(-0.729111 -0.0395312 0)
(-0.729098 -0.0391863 0)
(-0.728795 -0.0224797 0)
)
;

boundaryField
{
    inandouthalf11
    {
        type            cyclic;
    }
    inandouthalf12
    {
        type            cyclic;
    }
    inandouthalf21
    {
        type            cyclic;
    }
    inandouthalf22
    {
        type            cyclic;
    }
    inandouthalf31
    {
        type            cyclic;
    }
    inandouthalf32
    {
        type            cyclic;
    }
    inandouthalf41
    {
        type            cyclic;
    }
    inandouthalf42
    {
        type            cyclic;
    }
    top
    {
        type            symmetryPlane;
    }
    walls
    {
        type            fixedValue;
        value           uniform (0 0 0);
    }
    frontAndBackPlanes
    {
        type            empty;
    }
}


// ************************************************************************* //
