/*--------------------------------*- C++ -*----------------------------------*\
| =========                 |                                                 |
| \\      /  F ield         | OpenFOAM: The Open Source CFD Toolbox           |
|  \\    /   O peration     | Version:  2.4.x                                 |
|   \\  /    A nd           | Web:      www.OpenFOAM.org                      |
|    \\/     M anipulation  |                                                 |
\*---------------------------------------------------------------------------*/
FoamFile
{
    version     2.0;
    format      ascii;
    class       volVectorField;
    location    "11.55";
    object      Ub_0;
}
// * * * * * * * * * * * * * * * * * * * * * * * * * * * * * * * * * * * * * //

dimensions      [0 1 -1 0 0 0 0];

internalField   nonuniform List<vector> 
360
(
(-9.60957e-05 2.12787e-09 0)
(-9.55602e-05 7.53477e-09 0)
(-9.54897e-05 1.39204e-08 0)
(-9.55636e-05 2.00627e-08 0)
(-9.55991e-05 2.63237e-08 0)
(-9.56115e-05 3.28756e-08 0)
(-9.5627e-05 3.96409e-08 0)
(-9.56465e-05 4.65436e-08 0)
(-9.56666e-05 5.35584e-08 0)
(-9.56868e-05 6.06762e-08 0)
(-9.57072e-05 6.78837e-08 0)
(-9.57277e-05 7.51583e-08 0)
(-9.57483e-05 8.24736e-08 0)
(-9.57691e-05 8.98027e-08 0)
(-9.57901e-05 9.71203e-08 0)
(-9.58113e-05 1.04404e-07 0)
(-9.58327e-05 1.11632e-07 0)
(-9.58542e-05 1.18787e-07 0)
(-9.58759e-05 1.25852e-07 0)
(-9.58979e-05 1.32812e-07 0)
(-9.59199e-05 1.39657e-07 0)
(-9.59422e-05 1.46377e-07 0)
(-9.59647e-05 1.52966e-07 0)
(-9.59873e-05 1.59421e-07 0)
(-9.60101e-05 1.65739e-07 0)
(-9.60331e-05 1.71922e-07 0)
(-9.60563e-05 1.77968e-07 0)
(-9.60797e-05 1.83883e-07 0)
(-9.61033e-05 1.8967e-07 0)
(-9.61271e-05 1.95334e-07 0)
(-9.6151e-05 2.00879e-07 0)
(-9.61754e-05 2.06313e-07 0)
(-9.61996e-05 2.11642e-07 0)
(-9.62245e-05 2.16872e-07 0)
(-9.62493e-05 2.22011e-07 0)
(-9.62744e-05 2.27064e-07 0)
(-9.62997e-05 2.32039e-07 0)
(-9.63254e-05 2.36943e-07 0)
(-9.63514e-05 2.41781e-07 0)
(-9.63773e-05 2.4656e-07 0)
(-9.6404e-05 2.51286e-07 0)
(-9.64307e-05 2.55965e-07 0)
(-9.64575e-05 2.60601e-07 0)
(-9.64849e-05 2.65199e-07 0)
(-9.65124e-05 2.69766e-07 0)
(-9.65403e-05 2.74304e-07 0)
(-9.65687e-05 2.78818e-07 0)
(-9.65969e-05 2.83311e-07 0)
(-9.66258e-05 2.87786e-07 0)
(-9.66552e-05 2.92248e-07 0)
(-9.66845e-05 2.96698e-07 0)
(-9.67144e-05 3.0114e-07 0)
(-9.67446e-05 3.05574e-07 0)
(-9.67753e-05 3.10004e-07 0)
(-9.6806e-05 3.1443e-07 0)
(-9.68376e-05 3.18856e-07 0)
(-9.68691e-05 3.2328e-07 0)
(-9.69014e-05 3.27705e-07 0)
(-9.69338e-05 3.32132e-07 0)
(-9.69665e-05 3.36558e-07 0)
(-9.70001e-05 3.40988e-07 0)
(-9.70337e-05 3.45419e-07 0)
(-9.70681e-05 3.49854e-07 0)
(-9.71027e-05 3.54291e-07 0)
(-9.71378e-05 3.58731e-07 0)
(-9.71733e-05 3.63172e-07 0)
(-9.72094e-05 3.67615e-07 0)
(-9.7246e-05 3.72058e-07 0)
(-9.72831e-05 3.76501e-07 0)
(-9.73205e-05 3.80942e-07 0)
(-9.73587e-05 3.85381e-07 0)
(-9.73975e-05 3.89818e-07 0)
(-9.74364e-05 3.9425e-07 0)
(-9.74763e-05 3.98678e-07 0)
(-9.75166e-05 4.031e-07 0)
(-9.75577e-05 4.07516e-07 0)
(-9.75992e-05 4.11924e-07 0)
(-9.76413e-05 4.16322e-07 0)
(-9.76842e-05 4.20708e-07 0)
(-9.77277e-05 4.25081e-07 0)
(-9.77718e-05 4.29439e-07 0)
(-9.78167e-05 4.33781e-07 0)
(-9.78623e-05 4.38106e-07 0)
(-9.79086e-05 4.42413e-07 0)
(-9.79558e-05 4.467e-07 0)
(-9.80036e-05 4.50967e-07 0)
(-9.80524e-05 4.55211e-07 0)
(-9.81019e-05 4.59431e-07 0)
(-9.81523e-05 4.63625e-07 0)
(-9.82036e-05 4.67791e-07 0)
(-9.82558e-05 4.71926e-07 0)
(-9.83089e-05 4.7603e-07 0)
(-9.83631e-05 4.80101e-07 0)
(-9.84183e-05 4.84138e-07 0)
(-9.84745e-05 4.88139e-07 0)
(-9.85318e-05 4.92104e-07 0)
(-9.85903e-05 4.96031e-07 0)
(-9.86499e-05 4.99919e-07 0)
(-9.87107e-05 5.03767e-07 0)
(-9.87728e-05 5.07572e-07 0)
(-9.88362e-05 5.11335e-07 0)
(-9.89009e-05 5.15054e-07 0)
(-9.8967e-05 5.18728e-07 0)
(-9.90347e-05 5.22358e-07 0)
(-9.91038e-05 5.25943e-07 0)
(-9.91745e-05 5.29485e-07 0)
(-9.92469e-05 5.32983e-07 0)
(-9.9321e-05 5.36439e-07 0)
(-9.93969e-05 5.39854e-07 0)
(-9.94746e-05 5.43229e-07 0)
(-9.95543e-05 5.46565e-07 0)
(-9.96361e-05 5.49864e-07 0)
(-9.97199e-05 5.53127e-07 0)
(-9.9806e-05 5.56352e-07 0)
(-9.98945e-05 5.5954e-07 0)
(-9.99853e-05 5.62688e-07 0)
(-0.000100079 5.65793e-07 0)
(-0.000100175 5.68853e-07 0)
(-0.000100274 5.7186e-07 0)
(-0.000100376 5.74812e-07 0)
(-0.000100481 5.77703e-07 0)
(-0.000100589 5.80529e-07 0)
(-0.000100701 5.83289e-07 0)
(-0.000100817 5.85987e-07 0)
(-0.000100937 5.88628e-07 0)
(-0.000101061 5.91227e-07 0)
(-0.000101189 5.93804e-07 0)
(-0.000101322 5.96385e-07 0)
(-0.000101461 5.99004e-07 0)
(-0.000101605 6.01698e-07 0)
(-0.000101755 6.04498e-07 0)
(-0.000101912 6.07422e-07 0)
(-0.000102076 6.10455e-07 0)
(-0.000102249 6.13536e-07 0)
(-0.000102433 6.16531e-07 0)
(-0.00010263 6.19218e-07 0)
(-0.000102838 6.21316e-07 0)
(-0.00010306 6.22596e-07 0)
(-0.000103306 6.23017e-07 0)
(-0.000103586 6.22778e-07 0)
(-0.000103888 6.22041e-07 0)
(-0.000104247 6.16477e-07 0)
(-0.00010673 6.27435e-07 0)
(-0.00010636 4.58125e-07 0)
(-0.000106816 1.44937e-06 0)
(-0.000107575 -2.49834e-06 0)
(-0.000109276 1.30926e-05 0)
(-0.000836267 -4.50383e-05 0)
(-0.0944828 -0.000543949 0)
(-0.212868 -0.000480375 0)
(-0.303969 -0.000424538 0)
(-0.378258 -0.000378612 0)
(-0.440679 -0.000334893 0)
(-0.494089 -0.000291251 0)
(-0.540397 -0.000249087 0)
(-0.580973 -0.000209768 0)
(-0.61683 -0.000174138 0)
(-0.648739 -0.000142591 0)
(-0.677288 -0.000115185 0)
(-0.702925 -9.17464e-05 0)
(-0.725993 -7.19699e-05 0)
(-0.746745 -5.54866e-05 0)
(-0.765371 -4.18969e-05 0)
(-0.782007 -3.07866e-05 0)
(-0.796754 -2.17628e-05 0)
(-0.809695 -1.45303e-05 0)
(-0.820908 -8.93417e-06 0)
(-0.830485 -4.86715e-06 0)
(-0.838543 -2.11526e-06 0)
(-0.845223 -3.44694e-07 0)
(-0.850688 7.782e-07 0)
(-0.855105 1.49351e-06 0)
(-0.858639 1.94816e-06 0)
(-0.86144 2.23271e-06 0)
(-0.863637 2.40348e-06 0)
(-0.86534 2.49658e-06 0)
(-0.866637 2.53583e-06 0)
(-0.8676 2.53728e-06 0)
(-0.868285 2.51197e-06 0)
(-0.868739 2.46765e-06 0)
(-0.868997 2.40983e-06 0)
(-0.869088 2.34251e-06 0)
(-0.869035 2.26862e-06 0)
(-0.868856 2.19033e-06 0)
(-0.868567 2.10929e-06 0)
(-0.868181 2.02673e-06 0)
(-0.867706 1.9436e-06 0)
(-0.867153 1.86061e-06 0)
(-0.866529 1.77834e-06 0)
(-0.865839 1.69721e-06 0)
(-0.86509 1.61756e-06 0)
(-0.864286 1.53966e-06 0)
(-0.863431 1.46369e-06 0)
(-0.862528 1.38983e-06 0)
(-0.861582 1.31817e-06 0)
(-0.860595 1.24882e-06 0)
(-0.85957 1.18182e-06 0)
(-0.858509 1.11722e-06 0)
(-0.857414 1.05504e-06 0)
(-0.856288 9.95269e-07 0)
(-0.855132 9.37912e-07 0)
(-0.853937 8.82385e-07 0)
(-0.85269 8.28211e-07 0)
(-0.85139 7.75478e-07 0)
(-0.850037 7.24266e-07 0)
(-0.848631 6.74651e-07 0)
(-0.84717 6.26707e-07 0)
(-0.845654 5.80501e-07 0)
(-0.844083 5.36099e-07 0)
(-0.842457 4.93564e-07 0)
(-0.840774 4.52957e-07 0)
(-0.839034 4.14331e-07 0)
(-0.837237 3.77733e-07 0)
(-0.835383 3.43198e-07 0)
(-0.833472 3.10747e-07 0)
(-0.831502 2.80381e-07 0)
(-0.829474 2.52085e-07 0)
(-0.827389 2.25821e-07 0)
(-0.825245 2.01535e-07 0)
(-0.823044 1.79159e-07 0)
(-0.820784 1.58614e-07 0)
(-0.818468 1.39814e-07 0)
(-0.816094 1.22672e-07 0)
(-0.813664 1.07101e-07 0)
(-0.811178 9.30144e-08 0)
(-0.808638 8.0331e-08 0)
(-0.806043 6.89705e-08 0)
(-0.803396 5.88552e-08 0)
(-0.800698 4.99056e-08 0)
(-0.79795 4.20321e-08 0)
(-0.795154 3.51183e-08 0)
(-0.792313 2.89806e-08 0)
(-0.789429 2.33665e-08 0)
(-0.786504 1.81768e-08 0)
(-0.783543 1.37374e-08 0)
(-0.780548 1.05691e-08 0)
(-0.777523 8.4676e-09 0)
(-0.774474 6.75627e-09 0)
(-0.771405 5.24287e-09 0)
(-0.768323 3.97503e-09 0)
(-0.765233 2.95184e-09 0)
(-0.762143 2.14288e-09 0)
(-0.759061 1.5157e-09 0)
(-0.755997 1.04126e-09 0)
(-0.75296 6.92568e-10 0)
(-0.749962 4.43037e-10 0)
(-0.747015 2.73009e-10 0)
(-0.744134 1.58532e-10 0)
(-0.741333 8.68727e-11 0)
(-0.73863 4.39197e-11 0)
(-0.736043 1.7571e-11 0)
(-0.73359 4.69563e-12 0)
(-0.731294 1.52872e-11 0)
(-0.729174 1.84161e-11 0)
(-0.72725 6.05006e-13 0)
(-0.725543 1.44392e-12 0)
(-0.724068 2.51813e-12 0)
(-0.722839 2.50771e-12 0)
(-0.721862 2.27748e-12 0)
(-0.721139 2.11129e-12 0)
(-0.720665 1.97554e-12 0)
(-0.720427 1.84122e-12 0)
(-0.72041 1.70993e-12 0)
(-0.720592 1.58728e-12 0)
(-0.720951 1.47726e-12 0)
(-0.721464 1.3824e-12 0)
(-0.722108 1.31431e-12 0)
(-0.72286 1.25799e-12 0)
(-0.723697 1.0087e-12 0)
(-0.724597 -1.236e-13 0)
(-0.725537 8.12316e-12 0)
(-0.726495 -1.88125e-11 0)
(-0.727448 4.20189e-11 0)
(-0.72837 -7.09384e-11 0)
(-0.729235 1.13107e-10 0)
(-0.730005 -1.6075e-10 0)
(-0.730635 2.1894e-10 0)
(-0.730931 -2.78998e-10 0)
(-0.730963 3.44862e-10 0)
(-0.730964 -4.09591e-10 0)
(-0.730964 4.78301e-10 0)
(-0.730964 -5.45897e-10 0)
(-0.730964 6.17257e-10 0)
(-0.730964 -6.87877e-10 0)
(-0.730964 7.62087e-10 0)
(-0.730964 -8.35915e-10 0)
(-0.730964 9.13138e-10 0)
(-0.730964 -9.90324e-10 0)
(-0.730964 1.07068e-09 0)
(-0.730964 -1.15134e-09 0)
(-0.730964 1.23493e-09 0)
(-0.730964 -1.31915e-09 0)
(-0.730964 1.40604e-09 0)
(-0.730964 -1.49387e-09 0)
(-0.730964 1.5841e-09 0)
(-0.730964 -1.67557e-09 0)
(-0.730964 1.76918e-09 0)
(-0.730964 -1.86421e-09 0)
(-0.730964 1.96126e-09 0)
(-0.730964 -2.05978e-09 0)
(-0.730964 2.16024e-09 0)
(-0.730964 -2.26217e-09 0)
(-0.730964 2.36597e-09 0)
(-0.730964 -2.4712e-09 0)
(-0.730964 2.57822e-09 0)
(-0.730964 -2.68661e-09 0)
(-0.730964 2.79668e-09 0)
(-0.730964 -2.90804e-09 0)
(-0.730964 3.02096e-09 0)
(-0.730964 -3.13503e-09 0)
(-0.730964 2.85491e-09 0)
(-0.730964 -2.90548e-09 0)
(-0.730964 2.95563e-09 0)
(-0.730964 -3.00498e-09 0)
(-0.730964 3.05392e-09 0)
(-0.730964 -3.10204e-09 0)
(-0.730964 3.14975e-09 0)
(-0.730964 -3.19663e-09 0)
(-0.730964 3.2431e-09 0)
(-0.730964 -3.28871e-09 0)
(-0.730964 3.33392e-09 0)
(-0.730964 -3.37825e-09 0)
(-0.730964 3.42219e-09 0)
(-0.730964 -3.4652e-09 0)
(-0.730964 3.50786e-09 0)
(-0.730964 -3.54953e-09 0)
(-0.730964 3.59088e-09 0)
(-0.730964 -3.63114e-09 0)
(-0.730964 3.67128e-09 0)
(-0.730964 -3.70995e-09 0)
(-0.730964 3.749e-09 0)
(-0.730964 -3.78592e-09 0)
(-0.730964 3.82392e-09 0)
(-0.730964 -3.85904e-09 0)
(-0.730964 3.89593e-09 0)
(-0.730964 -3.92926e-09 0)
(-0.730964 3.96492e-09 0)
(-0.730964 -3.9964e-09 0)
(-0.730964 4.03083e-09 0)
(-0.730964 -4.06045e-09 0)
(-0.730964 4.09341e-09 0)
(-0.730964 -4.12125e-09 0)
(-0.730964 4.15253e-09 0)
(-0.730964 -4.17869e-09 0)
(-0.730964 4.20805e-09 0)
(-0.730964 -4.23234e-09 0)
(-0.730964 4.25987e-09 0)
(-0.730964 -4.28222e-09 0)
(-0.730964 4.30743e-09 0)
(-0.730964 -4.32803e-09 0)
(-0.730964 4.35042e-09 0)
(-0.730964 -4.36949e-09 0)
(-0.730964 4.38827e-09 0)
(-0.730964 -4.40596e-09 0)
(-0.730964 4.42042e-09 0)
(-0.730964 -4.4365e-09 0)
(-0.730964 4.44569e-09 0)
(-0.730964 -4.45958e-09 0)
(-0.730964 4.46207e-09 0)
(-0.730964 -4.46869e-09 0)
)
;

boundaryField
{
    inandouthalf11
    {
        type            cyclic;
    }
    inandouthalf12
    {
        type            cyclic;
    }
    inandouthalf21
    {
        type            cyclic;
    }
    inandouthalf22
    {
        type            cyclic;
    }
    inandouthalf31
    {
        type            cyclic;
    }
    inandouthalf32
    {
        type            cyclic;
    }
    inandouthalf41
    {
        type            cyclic;
    }
    inandouthalf42
    {
        type            cyclic;
    }
    top
    {
        type            symmetryPlane;
    }
    walls
    {
        type            fixedValue;
        value           uniform (0 0 0);
    }
    frontAndBackPlanes
    {
        type            empty;
    }
}


// ************************************************************************* //
