/*--------------------------------*- C++ -*----------------------------------*\
| =========                 |                                                 |
| \\      /  F ield         | OpenFOAM: The Open Source CFD Toolbox           |
|  \\    /   O peration     | Version:  2.4.x                                 |
|   \\  /    A nd           | Web:      www.OpenFOAM.org                      |
|    \\/     M anipulation  |                                                 |
\*---------------------------------------------------------------------------*/
FoamFile
{
    version     2.0;
    format      ascii;
    class       volVectorField;
    location    "11.55";
    object      Ur;
}
// * * * * * * * * * * * * * * * * * * * * * * * * * * * * * * * * * * * * * //

dimensions      [0 1 -1 0 0 0 0];

internalField   nonuniform List<vector> 
360
(
(-9.60586e-05 2.12739e-09 0)
(-9.55218e-05 1.25688e-08 0)
(-9.54497e-05 2.29682e-08 0)
(-9.5522e-05 3.27479e-08 0)
(-9.55559e-05 4.29473e-08 0)
(-9.55666e-05 5.36987e-08 0)
(-9.55803e-05 6.47745e-08 0)
(-9.55981e-05 7.60594e-08 0)
(-9.56163e-05 8.75288e-08 0)
(-9.56347e-05 9.91699e-08 0)
(-9.56532e-05 1.1096e-07 0)
(-9.56717e-05 1.22861e-07 0)
(-9.56904e-05 1.3483e-07 0)
(-9.57093e-05 1.46823e-07 0)
(-9.57283e-05 1.58797e-07 0)
(-9.57476e-05 1.70716e-07 0)
(-9.5767e-05 1.82547e-07 0)
(-9.57867e-05 1.94258e-07 0)
(-9.58065e-05 2.05821e-07 0)
(-9.58266e-05 2.17215e-07 0)
(-9.58467e-05 2.2842e-07 0)
(-9.58672e-05 2.39422e-07 0)
(-9.58878e-05 2.50211e-07 0)
(-9.59087e-05 2.60781e-07 0)
(-9.59298e-05 2.71129e-07 0)
(-9.59511e-05 2.81254e-07 0)
(-9.59725e-05 2.91159e-07 0)
(-9.59943e-05 3.00848e-07 0)
(-9.60163e-05 3.1033e-07 0)
(-9.60385e-05 3.1961e-07 0)
(-9.60609e-05 3.28698e-07 0)
(-9.60837e-05 3.37604e-07 0)
(-9.61065e-05 3.46339e-07 0)
(-9.61298e-05 3.54914e-07 0)
(-9.61532e-05 3.6334e-07 0)
(-9.61769e-05 3.71627e-07 0)
(-9.62008e-05 3.79787e-07 0)
(-9.62251e-05 3.8783e-07 0)
(-9.62497e-05 3.95769e-07 0)
(-9.62743e-05 4.03611e-07 0)
(-9.62995e-05 4.11367e-07 0)
(-9.63249e-05 4.19047e-07 0)
(-9.63503e-05 4.26657e-07 0)
(-9.63765e-05 4.34208e-07 0)
(-9.64026e-05 4.41707e-07 0)
(-9.64292e-05 4.49161e-07 0)
(-9.64562e-05 4.56577e-07 0)
(-9.64831e-05 4.63959e-07 0)
(-9.65107e-05 4.71313e-07 0)
(-9.65388e-05 4.78646e-07 0)
(-9.65667e-05 4.85962e-07 0)
(-9.65954e-05 4.93264e-07 0)
(-9.66242e-05 5.00556e-07 0)
(-9.66535e-05 5.07842e-07 0)
(-9.6683e-05 5.15123e-07 0)
(-9.67132e-05 5.22404e-07 0)
(-9.67434e-05 5.29685e-07 0)
(-9.67743e-05 5.36968e-07 0)
(-9.68054e-05 5.44255e-07 0)
(-9.68368e-05 5.51543e-07 0)
(-9.6869e-05 5.58837e-07 0)
(-9.69012e-05 5.66136e-07 0)
(-9.69342e-05 5.73442e-07 0)
(-9.69675e-05 5.80753e-07 0)
(-9.70012e-05 5.8807e-07 0)
(-9.70354e-05 5.95391e-07 0)
(-9.70701e-05 6.02715e-07 0)
(-9.71053e-05 6.10043e-07 0)
(-9.7141e-05 6.17372e-07 0)
(-9.71769e-05 6.24698e-07 0)
(-9.72138e-05 6.32023e-07 0)
(-9.72512e-05 6.39347e-07 0)
(-9.72887e-05 6.46666e-07 0)
(-9.73272e-05 6.53978e-07 0)
(-9.73661e-05 6.61283e-07 0)
(-9.74057e-05 6.68581e-07 0)
(-9.74458e-05 6.75866e-07 0)
(-9.74865e-05 6.83137e-07 0)
(-9.75279e-05 6.90391e-07 0)
(-9.757e-05 6.97625e-07 0)
(-9.76127e-05 7.04838e-07 0)
(-9.76561e-05 7.12026e-07 0)
(-9.77003e-05 7.19188e-07 0)
(-9.77452e-05 7.26323e-07 0)
(-9.77909e-05 7.33428e-07 0)
(-9.78374e-05 7.40502e-07 0)
(-9.78847e-05 7.47541e-07 0)
(-9.79328e-05 7.54544e-07 0)
(-9.79818e-05 7.61506e-07 0)
(-9.80316e-05 7.68424e-07 0)
(-9.80824e-05 7.75296e-07 0)
(-9.81342e-05 7.82118e-07 0)
(-9.81869e-05 7.88889e-07 0)
(-9.82407e-05 7.95607e-07 0)
(-9.82955e-05 8.0227e-07 0)
(-9.83514e-05 8.08876e-07 0)
(-9.84085e-05 8.15423e-07 0)
(-9.84667e-05 8.2191e-07 0)
(-9.85261e-05 8.28333e-07 0)
(-9.85868e-05 8.3469e-07 0)
(-9.86488e-05 8.40981e-07 0)
(-9.87122e-05 8.47203e-07 0)
(-9.8777e-05 8.53357e-07 0)
(-9.88432e-05 8.59441e-07 0)
(-9.8911e-05 8.65456e-07 0)
(-9.89804e-05 8.71402e-07 0)
(-9.90514e-05 8.77282e-07 0)
(-9.91242e-05 8.83098e-07 0)
(-9.91987e-05 8.8885e-07 0)
(-9.92751e-05 8.94541e-07 0)
(-9.93535e-05 9.00174e-07 0)
(-9.94339e-05 9.05751e-07 0)
(-9.95164e-05 9.11273e-07 0)
(-9.96012e-05 9.16739e-07 0)
(-9.96883e-05 9.2215e-07 0)
(-9.97778e-05 9.27502e-07 0)
(-9.98698e-05 9.32791e-07 0)
(-9.99646e-05 9.3801e-07 0)
(-0.000100062 9.43151e-07 0)
(-0.000100163 9.48208e-07 0)
(-0.000100267 9.53171e-07 0)
(-0.000100374 9.58035e-07 0)
(-0.000100484 9.62799e-07 0)
(-0.000100599 9.67467e-07 0)
(-0.000100717 9.72051e-07 0)
(-0.00010084 9.76573e-07 0)
(-0.000100967 9.81067e-07 0)
(-0.000101098 9.8558e-07 0)
(-0.000101235 9.90166e-07 0)
(-0.000101378 9.94889e-07 0)
(-0.000101527 9.99805e-07 0)
(-0.000101681 1.00494e-06 0)
(-0.000101843 1.01029e-06 0)
(-0.000102014 1.01575e-06 0)
(-0.000102196 1.0211e-06 0)
(-0.000102391 1.02599e-06 0)
(-0.000102597 1.02992e-06 0)
(-0.000102817 1.0325e-06 0)
(-0.000103062 1.03366e-06 0)
(-0.000103342 1.03375e-06 0)
(-0.000103644 1.03313e-06 0)
(-0.000104002 1.0276e-06 0)
(-0.000106485 1.03866e-06 0)
(-0.000106115 8.69284e-07 0)
(-0.00010657 1.86192e-06 0)
(-0.000107328 -2.09058e-06 0)
(-0.00010903 1.35198e-05 0)
(-0.000837149 -4.46805e-05 0)
(-0.0108881 -0.00144725 0)
(-0.0126507 -0.00197983 0)
(-0.0107362 -0.00225436 0)
(-0.00911825 -0.00243561 0)
(-0.00806355 -0.00262636 0)
(-0.0074313 -0.00282308 0)
(-0.00714271 -0.00302822 0)
(-0.00716751 -0.00324336 0)
(-0.00749881 -0.00346724 0)
(-0.00814129 -0.00369545 0)
(-0.00910539 -0.00392049 0)
(-0.0104014 -0.0041317 0)
(-0.0120317 -0.00431508 0)
(-0.013982 -0.00445289 0)
(-0.0162123 -0.00452206 0)
(-0.0186508 -0.00448944 0)
(-0.0211917 -0.00430589 0)
(-0.0236994 -0.0039126 0)
(-0.0260229 -0.00327353 0)
(-0.0280227 -0.00241242 0)
(-0.0296023 -0.00140767 0)
(-0.0307258 -0.000348614 0)
(-0.0314116 0.000698531 0)
(-0.0317145 0.00169599 0)
(-0.0317062 0.002626 0)
(-0.0314603 0.0034824 0)
(-0.0310434 0.00426519 0)
(-0.0305109 0.00497747 0)
(-0.0299065 0.00562363 0)
(-0.0292626 0.00620853 0)
(-0.0286028 0.00673696 0)
(-0.0279432 0.00721349 0)
(-0.0272944 0.00764232 0)
(-0.0266628 0.00802732 0)
(-0.0260518 0.00837199 0)
(-0.0254625 0.00867953 0)
(-0.0248947 0.00895283 0)
(-0.024347 0.00919458 0)
(-0.0238172 0.0094072 0)
(-0.0233027 0.00959296 0)
(-0.0228006 0.00975394 0)
(-0.022308 0.00989209 0)
(-0.0218218 0.0100092 0)
(-0.0213388 0.010107 0)
(-0.0208561 0.0101871 0)
(-0.0203707 0.0102509 0)
(-0.0198797 0.0102999 0)
(-0.0193806 0.0103352 0)
(-0.0188705 0.0103583 0)
(-0.0183471 0.0103701 0)
(-0.017808 0.0103718 0)
(-0.017251 0.0103644 0)
(-0.0166739 0.0103486 0)
(-0.0160688 0.0103253 0)
(-0.0154276 0.0102945 0)
(-0.0147481 0.0102567 0)
(-0.014028 0.0102123 0)
(-0.0132649 0.0101617 0)
(-0.0124565 0.0101054 0)
(-0.0116005 0.0100436 0)
(-0.0106945 0.00997692 0)
(-0.00973629 0.00990551 0)
(-0.00872364 0.00982967 0)
(-0.00765444 0.00974957 0)
(-0.00652666 0.00966527 0)
(-0.00533844 0.00957673 0)
(-0.00408804 0.00948376 0)
(-0.0027739 0.00938609 0)
(-0.00139466 0.00928335 0)
(5.08866e-05 0.00917515 0)
(0.00156372 0.00906112 0)
(0.00314464 0.00894099 0)
(0.00479429 0.00881461 0)
(0.00651314 0.00868196 0)
(0.00830151 0.00854318 0)
(0.0101596 0.0083985 0)
(0.0120875 0.00824819 0)
(0.0140852 0.00809256 0)
(0.0161528 0.00793187 0)
(0.0182903 0.00776629 0)
(0.020498 0.00759587 0)
(0.0227766 0.0074205 0)
(0.0251274 0.0072401 0)
(0.0275522 0.00705512 0)
(0.0300522 0.00686859 0)
(0.0326264 0.00669187 0)
(0.0352731 0.00654824 0)
(0.0380004 0.0064667 0)
(0.040705 0.00642257 0)
(-0.00316318 0.005607 0)
(-0.00309437 0.00550191 0)
(-0.00311833 0.00510321 0)
(-0.00313764 0.00472453 0)
(-0.00315676 0.00432583 0)
(-0.00317509 0.00391482 0)
(-0.00319354 0.00347491 0)
(-0.00320212 0.00317997 0)
(-0.00323469 0.00236957 0)
(-0.00321442 0.00285395 0)
(-0.00327109 0.00085923 0)
(-0.00317592 0.00300058 0)
(-0.00323418 -0.000938687 0)
(-0.00313916 0.00333254 0)
(-0.00314643 -0.00269583 0)
(-0.00323283 0.00304297 0)
(-0.00247815 0.0315031 0)
(-0.00218165 0.0396603 0)
(-0.00227655 0.0396147 0)
(-0.00220412 0.0396108 0)
(-0.00214501 0.0396038 0)
(-0.00208586 0.0395969 0)
(-0.0020349 0.0395901 0)
(-0.00197807 0.0395839 0)
(-0.00191222 0.039579 0)
(-0.00188137 0.0395738 0)
(-0.00184216 0.0395698 0)
(-0.00180962 0.0395667 0)
(-0.00178255 0.0395642 0)
(-0.00176073 0.0395623 0)
(-0.00174383 0.039561 0)
(-0.00173154 0.03956 0)
(-0.00172357 0.0395592 0)
(-0.00171968 0.0395586 0)
(-0.00171968 0.0395581 0)
(-0.0017235 0.0395574 0)
(-0.00173122 0.0395565 0)
(-0.00174305 0.0395551 0)
(-0.00175466 0.039553 0)
(-0.0017922 0.0395482 0)
(-0.00184445 0.0395426 0)
(-0.0018515 0.0395401 0)
(-0.00185166 0.0395398 0)
(-0.00185166 0.0395398 0)
(-0.00185166 0.0395398 0)
(-0.00185166 0.0395398 0)
(-0.00185166 0.0395398 0)
(-0.00185166 0.0395398 0)
(-0.00185166 0.0395398 0)
(-0.00185166 0.0395398 0)
(-0.00185166 0.0395398 0)
(-0.00185166 0.0395398 0)
(-0.00185166 0.0395398 0)
(-0.00185166 0.0395398 0)
(-0.00185166 0.0395398 0)
(-0.00185166 0.0395398 0)
(-0.00185166 0.0395398 0)
(-0.00185166 0.0395398 0)
(-0.00185166 0.0395398 0)
(-0.00185166 0.0395398 0)
(-0.00185166 0.0395398 0)
(-0.00185166 0.0395398 0)
(-0.00185166 0.0395398 0)
(-0.00185166 0.0395398 0)
(-0.00185166 0.0395398 0)
(-0.00185166 0.0395398 0)
(-0.00185166 0.0395398 0)
(-0.00185166 0.0395398 0)
(-0.00185166 0.0395398 0)
(-0.00185166 0.0395398 0)
(-0.00185166 0.0395398 0)
(-0.00185166 0.0395398 0)
(-0.00185166 0.0395398 0)
(-0.00185166 0.0395398 0)
(-0.00185166 0.0395398 0)
(-0.00185166 0.0395398 0)
(-0.00185166 0.0395398 0)
(-0.00185166 0.0395398 0)
(-0.00185166 0.0395398 0)
(-0.00185166 0.0395398 0)
(-0.00185166 0.0395398 0)
(-0.00185166 0.0395398 0)
(-0.00185166 0.0395398 0)
(-0.00185166 0.0395398 0)
(-0.00185166 0.0395398 0)
(-0.00185166 0.0395398 0)
(-0.00185166 0.0395398 0)
(-0.00185166 0.0395398 0)
(-0.00185166 0.0395398 0)
(-0.00185166 0.0395398 0)
(-0.00185166 0.0395398 0)
(-0.00185166 0.0395398 0)
(-0.00185166 0.0395398 0)
(-0.00185166 0.0395398 0)
(-0.00185166 0.0395398 0)
(-0.00185166 0.0395398 0)
(-0.00185166 0.0395398 0)
(-0.00185166 0.0395398 0)
(-0.00185166 0.0395398 0)
(-0.00185166 0.0395398 0)
(-0.00185166 0.0395398 0)
(-0.00185166 0.0395398 0)
(-0.00185166 0.0395398 0)
(-0.00185166 0.0395398 0)
(-0.00185166 0.0395398 0)
(-0.00185166 0.0395398 0)
(-0.00185166 0.0395398 0)
(-0.00185166 0.0395398 0)
(-0.00185166 0.0395398 0)
(-0.00185166 0.0395398 0)
(-0.00185166 0.0395398 0)
(-0.00185166 0.0395398 0)
(-0.00185166 0.0395398 0)
(-0.00185166 0.0395398 0)
(-0.00185166 0.0395398 0)
(-0.00185166 0.0395398 0)
(-0.00185166 0.0395398 0)
(-0.00185166 0.0395398 0)
(-0.00185166 0.0395398 0)
(-0.00185168 0.0395396 0)
(-0.00185223 0.0395312 0)
(-0.00186539 0.0391863 0)
(-0.00216826 0.0224797 0)
)
;

boundaryField
{
    inandouthalf11
    {
        type            cyclic;
    }
    inandouthalf12
    {
        type            cyclic;
    }
    inandouthalf21
    {
        type            cyclic;
    }
    inandouthalf22
    {
        type            cyclic;
    }
    inandouthalf31
    {
        type            cyclic;
    }
    inandouthalf32
    {
        type            cyclic;
    }
    inandouthalf41
    {
        type            cyclic;
    }
    inandouthalf42
    {
        type            cyclic;
    }
    top
    {
        type            symmetryPlane;
    }
    walls
    {
        type            calculated;
        value           uniform (0 0 0);
    }
    frontAndBackPlanes
    {
        type            empty;
    }
}


// ************************************************************************* //
