/*--------------------------------*- C++ -*----------------------------------*\
| =========                 |                                                 |
| \\      /  F ield         | OpenFOAM: The Open Source CFD Toolbox           |
|  \\    /   O peration     | Version:  2.4.x                                 |
|   \\  /    A nd           | Web:      www.OpenFOAM.org                      |
|    \\/     M anipulation  |                                                 |
\*---------------------------------------------------------------------------*/
FoamFile
{
    version     2.0;
    format      ascii;
    class       volScalarField;
    location    "6.3";
    object      alpha_0;
}
// * * * * * * * * * * * * * * * * * * * * * * * * * * * * * * * * * * * * * //

dimensions      [0 0 0 0 0 0 0];

internalField   nonuniform List<scalar> 
360
(
0.610702
0.611466
0.611581
0.611504
0.611456
0.611437
0.611418
0.611395
0.611372
0.611348
0.611324
0.6113
0.611275
0.611251
0.611226
0.611201
0.611176
0.61115
0.611124
0.611098
0.611072
0.611046
0.611019
0.610992
0.610965
0.610937
0.61091
0.610882
0.610853
0.610825
0.610796
0.610767
0.610738
0.610708
0.610679
0.610648
0.610618
0.610587
0.610556
0.610525
0.610493
0.61046
0.610428
0.610395
0.610362
0.610328
0.610294
0.610261
0.610227
0.610193
0.610159
0.610125
0.610091
0.610056
0.610021
0.609984
0.609948
0.609909
0.609869
0.609827
0.609782
0.609734
0.609683
0.609632
0.609582
0.609536
0.609495
0.609458
0.609423
0.609389
0.609353
0.609317
0.60928
0.609242
0.609203
0.609163
0.609122
0.60908
0.609038
0.608994
0.608949
0.608903
0.608856
0.608807
0.608758
0.608707
0.608655
0.608602
0.608548
0.608492
0.608436
0.608378
0.608319
0.608259
0.608197
0.608133
0.608068
0.608002
0.607934
0.607865
0.607794
0.607721
0.607646
0.60757
0.607492
0.607412
0.607329
0.607245
0.607158
0.607069
0.606978
0.606884
0.606788
0.606689
0.606587
0.606482
0.606374
0.606262
0.606148
0.606029
0.605907
0.605781
0.605651
0.605517
0.605378
0.605234
0.605086
0.604931
0.604771
0.604604
0.604431
0.60425
0.604062
0.603863
0.603653
0.60343
0.603196
0.602947
0.602672
0.602356
0.602015
0.601689
0.6013
0.600796
0.60017
0.59902
0.595391
0.59346
0.403486
0.242609
0.178723
0.13681
0.105137
0.0807574
0.0621968
0.0482165
0.0377268
0.0298347
0.0238543
0.0192783
0.0157386
0.01297
0.0107809
0.00903185
0.00762085
0.00647224
0.0055294
0.00474949
0.00409978
0.00355498
0.0030954
0.00270554
0.00237311
0.00208831
0.00184321
0.00163141
0.00144768
0.00128773
0.00114799
0.00102554
0.000917906
0.000823033
0.000739186
0.000664895
0.000598916
0.000540185
0.000487794
0.000440962
0.000399018
0.00036138
0.000327543
0.000297064
0.000269556
0.000244676
0.000222124
0.00020163
0.000182956
0.000165893
0.00015026
0.000135917
0.000122767
0.000110595
9.92201e-05
8.8606e-05
7.87065e-05
6.94407e-05
6.07836e-05
5.27621e-05
4.53967e-05
3.87275e-05
3.27761e-05
2.75445e-05
2.30239e-05
1.9149e-05
1.58622e-05
1.31111e-05
1.08126e-05
8.90171e-06
7.32099e-06
6.01737e-06
4.93928e-06
4.04527e-06
3.31117e-06
2.70509e-06
2.20364e-06
1.79166e-06
1.4532e-06
1.17408e-06
9.46035e-07
7.56699e-07
6.05584e-07
4.7619e-07
3.783e-07
2.88733e-07
2.3691e-07
1.59105e-07
1.99723e-07
1.61138e-07
4.97741e-08
3.15361e-08
3.47655e-09
1.11067e-27
8.44935e-29
5.221e-29
3.7953e-29
3.06479e-29
2.57955e-29
2.09615e-29
1.4955e-29
7.83466e-30
3.15436e-30
1.52479e-30
8.59407e-31
5.43332e-31
3.80422e-31
2.75595e-31
1.7679e-31
7.98857e-32
3.65289e-32
1.91955e-32
1.08766e-32
6.53469e-33
3.74913e-33
1.77378e-33
8.81413e-34
4.54565e-34
2.34842e-34
1.16742e-34
5.7691e-35
2.80464e-35
1.33883e-35
6.27167e-36
2.88117e-36
1.29712e-36
5.71885e-37
2.46727e-37
1.04076e-37
4.28885e-38
1.72499e-38
6.76494e-39
2.58418e-39
9.60456e-40
3.46907e-40
1.2161e-40
4.13192e-41
1.35865e-41
4.31656e-42
1.32275e-42
3.90203e-43
1.10578e-43
3.0033e-44
7.79783e-45
1.92998e-45
4.53893e-46
1.01068e-46
2.12207e-47
4.18183e-48
7.69284e-49
1.31273e-49
2.06245e-50
2.95653e-51
3.82434e-52
4.40192e-53
4.4276e-54
3.7976e-55
2.6823e-56
1.47828e-57
5.78346e-59
1.29969e-60
5.87453e-63
7.0201e-67
7.42081e-69
3.89246e-71
1.26547e-81
2.03606e-92
2.28389e-103
1.86812e-114
1.25763e-125
6.66632e-137
2.98882e-148
4.43563e-158
1.74152e-168
1.50109e-176
5.25876e-187
5.16333e-195
2.09803e-205
1.77637e-213
8.83962e-224
6.11652e-232
5.57858e-242
2.13264e-250
3.62965e-260
7.57206e-269
1.79101e-278
2.73511e-287
8.46695e-297
1.00286e-305
3.71645e-315
4.47959e-319
2.8055e-319
6.80328e-321
7.09478e-321
6.08689e-321
8.5424e-321
0
0
0
0
0
0
0
0
0
0
0
0
0
0
0
0
)
;

boundaryField
{
    inandouthalf11
    {
        type            cyclic;
    }
    inandouthalf12
    {
        type            cyclic;
    }
    inandouthalf21
    {
        type            cyclic;
    }
    inandouthalf22
    {
        type            cyclic;
    }
    inandouthalf31
    {
        type            cyclic;
    }
    inandouthalf32
    {
        type            cyclic;
    }
    inandouthalf41
    {
        type            cyclic;
    }
    inandouthalf42
    {
        type            cyclic;
    }
    top
    {
        type            symmetryPlane;
    }
    walls
    {
        type            zeroGradient;
    }
    frontAndBackPlanes
    {
        type            empty;
    }
}


// ************************************************************************* //
