/*--------------------------------*- C++ -*----------------------------------*\
| =========                 |                                                 |
| \\      /  F ield         | OpenFOAM: The Open Source CFD Toolbox           |
|  \\    /   O peration     | Version:  2.4.x                                 |
|   \\  /    A nd           | Web:      www.OpenFOAM.org                      |
|    \\/     M anipulation  |                                                 |
\*---------------------------------------------------------------------------*/
FoamFile
{
    version     2.0;
    format      ascii;
    class       volVectorField;
    location    "6.3";
    object      ddt0(Ua);
}
// * * * * * * * * * * * * * * * * * * * * * * * * * * * * * * * * * * * * * //

dimensions      [0 1 -2 0 0 0 0];

internalField   nonuniform List<vector> 
360
(
(3.73128e-33 -5.90172e-33 0)
(1.98826e-08 7.17835e-08 0)
(4.29086e-08 1.38903e-07 0)
(6.32941e-08 1.95502e-07 0)
(8.33378e-08 2.52086e-07 0)
(1.04052e-07 3.11201e-07 0)
(1.25234e-07 3.71854e-07 0)
(1.46601e-07 4.33081e-07 0)
(1.68039e-07 4.94441e-07 0)
(1.89544e-07 5.55875e-07 0)
(2.11155e-07 6.17549e-07 0)
(2.32907e-07 6.79607e-07 0)
(2.54808e-07 7.42084e-07 0)
(2.76851e-07 8.04944e-07 0)
(2.99024e-07 8.68134e-07 0)
(3.21325e-07 9.3164e-07 0)
(3.43758e-07 9.95485e-07 0)
(3.66328e-07 1.05969e-06 0)
(3.8904e-07 1.12426e-06 0)
(4.11896e-07 1.1892e-06 0)
(4.34891e-07 1.25451e-06 0)
(4.58022e-07 1.32014e-06 0)
(4.81283e-07 1.38608e-06 0)
(5.04662e-07 1.45226e-06 0)
(5.28142e-07 1.5186e-06 0)
(5.51701e-07 1.58502e-06 0)
(5.75313e-07 1.6514e-06 0)
(5.98962e-07 1.71767e-06 0)
(6.22637e-07 1.7838e-06 0)
(6.46337e-07 1.84979e-06 0)
(6.70085e-07 1.91574e-06 0)
(6.93935e-07 1.98188e-06 0)
(7.17969e-07 2.04855e-06 0)
(7.4231e-07 2.11625e-06 0)
(7.67103e-07 2.18556e-06 0)
(7.92499e-07 2.25705e-06 0)
(8.18643e-07 2.33126e-06 0)
(8.45641e-07 2.40857e-06 0)
(8.73515e-07 2.48901e-06 0)
(9.02137e-07 2.57203e-06 0)
(9.31203e-07 2.65639e-06 0)
(9.60188e-07 2.74008e-06 0)
(9.88323e-07 2.82015e-06 0)
(1.01465e-06 2.89308e-06 0)
(1.03811e-06 2.95502e-06 0)
(1.05769e-06 3.00242e-06 0)
(1.07267e-06 3.03287e-06 0)
(1.08285e-06 3.04602e-06 0)
(1.08884e-06 3.04434e-06 0)
(1.09211e-06 3.03345e-06 0)
(1.09508e-06 3.02209e-06 0)
(1.10104e-06 3.02177e-06 0)
(1.11411e-06 3.0465e-06 0)
(1.13928e-06 3.11277e-06 0)
(1.18262e-06 3.24015e-06 0)
(1.25172e-06 3.4527e-06 0)
(1.35624e-06 3.78082e-06 0)
(1.50825e-06 4.26234e-06 0)
(1.7214e-06 4.94033e-06 0)
(2.00642e-06 5.84922e-06 0)
(2.35931e-06 6.97886e-06 0)
(2.73782e-06 8.20029e-06 0)
(3.03421e-06 9.17664e-06 0)
(3.08126e-06 9.37632e-06 0)
(2.74329e-06 8.3607e-06 0)
(2.06008e-06 6.25363e-06 0)
(1.27178e-06 3.82409e-06 0)
(6.3999e-07 1.89746e-06 0)
(2.64989e-07 7.7236e-07 0)
(9.25603e-08 2.64859e-07 0)
(2.82782e-08 7.93959e-08 0)
(7.89131e-09 2.17207e-08 0)
(2.11178e-09 5.68659e-09 0)
(5.69781e-10 1.48989e-09 0)
(1.63422e-10 4.04408e-10 0)
(5.31531e-11 1.15224e-10 0)
(2.13272e-11 3.32715e-11 0)
(1.13327e-11 8.00414e-12 0)
(7.87919e-12 -5.64451e-13 0)
(6.57136e-12 -3.74204e-12 0)
(6.04325e-12 -4.98804e-12 0)
(5.83313e-12 -5.45347e-12 0)
(5.77286e-12 -5.55011e-12 0)
(5.79849e-12 -5.4301e-12 0)
(5.88701e-12 -5.14435e-12 0)
(6.03324e-12 -4.70019e-12 0)
(6.24044e-12 -4.0853e-12 0)
(6.51549e-12 -3.2795e-12 0)
(6.86606e-12 -2.26319e-12 0)
(7.29856e-12 -1.02253e-12 0)
(7.81651e-12 4.45778e-13 0)
(8.41973e-12 2.13382e-12 0)
(9.10418e-12 4.02174e-12 0)
(9.86234e-12 6.08028e-12 0)
(1.06838e-11 8.27318e-12 0)
(1.15562e-11 1.05604e-11 0)
(1.24663e-11 1.29008e-11 0)
(1.34007e-11 1.52553e-11 0)
(1.43466e-11 1.75886e-11 0)
(1.52926e-11 1.98703e-11 0)
(1.62287e-11 2.20766e-11 0)
(1.71471e-11 2.41893e-11 0)
(1.80416e-11 2.61963e-11 0)
(1.89078e-11 2.80904e-11 0)
(1.97427e-11 2.98691e-11 0)
(2.05448e-11 3.15325e-11 0)
(2.13136e-11 3.30842e-11 0)
(2.20494e-11 3.4529e-11 0)
(2.27531e-11 3.58732e-11 0)
(2.34262e-11 3.71236e-11 0)
(2.40704e-11 3.82877e-11 0)
(2.46877e-11 3.93729e-11 0)
(2.52802e-11 4.03865e-11 0)
(2.58501e-11 4.13357e-11 0)
(2.63998e-11 4.22271e-11 0)
(2.69315e-11 4.30671e-11 0)
(2.74476e-11 4.38617e-11 0)
(2.79506e-11 4.46166e-11 0)
(2.84429e-11 4.53369e-11 0)
(2.89269e-11 4.60275e-11 0)
(2.94052e-11 4.66928e-11 0)
(2.98801e-11 4.73368e-11 0)
(3.03539e-11 4.79626e-11 0)
(3.08284e-11 4.85731e-11 0)
(3.1305e-11 4.91696e-11 0)
(3.17847e-11 4.97528e-11 0)
(3.22673e-11 5.03223e-11 0)
(3.2752e-11 5.08764e-11 0)
(3.32367e-11 5.14123e-11 0)
(3.3718e-11 5.1926e-11 0)
(3.41913e-11 5.24125e-11 0)
(3.46513e-11 5.28665e-11 0)
(3.50934e-11 5.32841e-11 0)
(3.5515e-11 5.36637e-11 0)
(3.5916e-11 5.40067e-11 0)
(3.62981e-11 5.4316e-11 0)
(3.66645e-11 5.45941e-11 0)
(3.70205e-11 5.48446e-11 0)
(3.7373e-11 5.50726e-11 0)
(3.77245e-11 5.5281e-11 0)
(3.80585e-11 5.54612e-11 0)
(3.8335e-11 5.55906e-11 0)
(3.85218e-11 5.56619e-11 0)
(3.86211e-11 5.56912e-11 0)
(3.86624e-11 5.56984e-11 0)
(3.86814e-11 5.56973e-11 0)
(3.87007e-11 5.56963e-11 0)
(3.9023e-11 5.57872e-11 0)
(0.112136 2.74583e-06 0)
(0.155107 -0.00168226 0)
(0.148919 -0.00232185 0)
(0.152675 -0.00275484 0)
(0.160304 -0.00312554 0)
(0.169065 -0.00344775 0)
(0.177774 -0.00372734 0)
(0.185926 -0.00396957 0)
(0.193342 -0.0041792 0)
(0.200005 -0.00436097 0)
(0.205966 -0.00451958 0)
(0.211301 -0.00465929 0)
(0.216086 -0.00478378 0)
(0.220392 -0.004896 0)
(0.224281 -0.00499835 0)
(0.227806 -0.00509271 0)
(0.231009 -0.00518057 0)
(0.233928 -0.0052631 0)
(0.236591 -0.00534119 0)
(0.239025 -0.00541555 0)
(0.24125 -0.00548674 0)
(0.243283 -0.00555518 0)
(0.24514 -0.00562121 0)
(0.246833 -0.00568506 0)
(0.248372 -0.00574695 0)
(0.249766 -0.00580702 0)
(0.251024 -0.00586539 0)
(0.252152 -0.00592215 0)
(0.253155 -0.00597739 0)
(0.25404 -0.0060312 0)
(0.254811 -0.00608365 0)
(0.255471 -0.00613484 0)
(0.256025 -0.00618486 0)
(0.256475 -0.00623382 0)
(0.256825 -0.00628183 0)
(0.257077 -0.006329 0)
(0.257234 -0.00637544 0)
(0.257299 -0.00642125 0)
(0.257274 -0.00646652 0)
(0.257162 -0.00651132 0)
(0.256965 -0.00655566 0)
(0.256686 -0.00659952 0)
(0.256328 -0.00664272 0)
(0.255893 -0.00668488 0)
(0.255385 -0.0067253 0)
(0.254806 -0.00676292 0)
(0.254161 -0.00679621 0)
(0.253455 -0.00682318 0)
(0.252691 -0.00684132 0)
(0.251875 -0.00684776 0)
(0.251014 -0.00683966 0)
(0.250115 -0.00681503 0)
(0.249186 -0.00677336 0)
(0.248224 -0.00671435 0)
(0.247225 -0.00663645 0)
(0.246195 -0.00653857 0)
(0.245143 -0.00641894 0)
(0.244079 -0.00627452 0)
(0.243015 -0.006104 0)
(0.241965 -0.00590975 0)
(0.240943 -0.00569655 0)
(0.239962 -0.00547128 0)
(0.239033 -0.00524168 0)
(0.238164 -0.00501532 0)
(0.237359 -0.00479842 0)
(0.236621 -0.00459426 0)
(0.235949 -0.00440485 0)
(0.23534 -0.00423159 0)
(0.234791 -0.00407381 0)
(0.234295 -0.00393017 0)
(0.233846 -0.00379982 0)
(0.233439 -0.00368157 0)
(0.233066 -0.00357355 0)
(0.232725 -0.00347431 0)
(0.232407 -0.00338367 0)
(0.232108 -0.00330091 0)
(0.231823 -0.00322502 0)
(0.231548 -0.00315627 0)
(0.231278 -0.00309473 0)
(0.23101 -0.00304011 0)
(0.230742 -0.00299214 0)
(0.230472 -0.00295089 0)
(0.230201 -0.00291624 0)
(0.229933 -0.00288718 0)
(0.229671 -0.00286322 0)
(0.229401 -0.00285225 0)
(0.229142 -0.00285146 0)
(0.228908 -0.00286031 0)
(0.228645 -0.00283373 0)
(0.201847 -0.0050601 0)
(0.202223 0.00695504 0)
(0.199649 -0.0164588 0)
(0.196991 0.0210788 0)
(0.197293 0.0258702 0)
(0.19576 0.000257508 0)
(0.194327 -1.13536e-05 0)
(0.193072 1.77227e-05 0)
(0.191957 1.94335e-05 0)
(0.190979 2.23323e-05 0)
(0.190132 2.40611e-05 0)
(0.189415 2.48754e-05 0)
(0.188832 2.47503e-05 0)
(0.188394 2.35938e-05 0)
(0.18812 2.11799e-05 0)
(0.188048 1.6988e-05 0)
(0.188236 9.21491e-06 0)
(0.188714 -1.01107e-05 0)
(0.191093 -3.74178e-05 0)
(0.19386 -2.6644e-05 0)
(0.194536 2.93993e-06 0)
(0.194561 1.04889e-05 0)
(0.194562 1.07949e-05 0)
(0.194562 1.07838e-05 0)
(0.194562 1.07852e-05 0)
(0.194562 1.07845e-05 0)
(0.194562 1.07852e-05 0)
(0.194562 1.07845e-05 0)
(0.194562 1.07853e-05 0)
(0.194562 1.07845e-05 0)
(0.194562 1.07854e-05 0)
(0.194562 1.07845e-05 0)
(0.194562 1.07854e-05 0)
(0.194562 1.07845e-05 0)
(0.194562 1.07854e-05 0)
(0.194562 1.07846e-05 0)
(0.194562 1.07854e-05 0)
(0.194562 1.07845e-05 0)
(0.194562 1.07855e-05 0)
(0.194562 1.07844e-05 0)
(0.194562 1.07855e-05 0)
(0.194562 1.07844e-05 0)
(0.194562 1.07856e-05 0)
(0.194562 1.07843e-05 0)
(0.194562 1.07856e-05 0)
(0.194562 1.07843e-05 0)
(0.194562 1.07857e-05 0)
(0.194562 1.07842e-05 0)
(0.194562 1.07857e-05 0)
(0.194562 1.07842e-05 0)
(0.194562 1.07858e-05 0)
(0.194562 1.07841e-05 0)
(0.194562 1.07858e-05 0)
(0.194562 1.07841e-05 0)
(0.194562 1.07859e-05 0)
(0.194562 1.0784e-05 0)
(0.194562 1.0786e-05 0)
(0.194562 1.0784e-05 0)
(0.194562 1.0786e-05 0)
(0.194562 1.07839e-05 0)
(0.194562 1.07861e-05 0)
(0.194562 1.07838e-05 0)
(0.194562 1.07862e-05 0)
(0.194562 1.07838e-05 0)
(0.194562 1.07863e-05 0)
(0.194562 1.07837e-05 0)
(0.194562 1.07864e-05 0)
(0.194562 1.07837e-05 0)
(0.194562 1.07865e-05 0)
(0.194562 1.07836e-05 0)
(0.194562 1.07866e-05 0)
(0.194562 1.07836e-05 0)
(0.194562 1.07867e-05 0)
(0.194562 1.07837e-05 0)
(0.194562 1.07866e-05 0)
(0.194562 1.07838e-05 0)
(0.194562 1.07867e-05 0)
(0.194562 1.07838e-05 0)
(0.194562 1.07867e-05 0)
(0.194562 1.07838e-05 0)
(0.194562 1.07868e-05 0)
(0.194562 1.07838e-05 0)
(0.194562 1.07868e-05 0)
(0.194562 1.07839e-05 0)
(0.194562 1.07869e-05 0)
(0.194562 1.07839e-05 0)
(0.194562 1.07869e-05 0)
(0.194562 1.07839e-05 0)
(0.194562 1.0787e-05 0)
(0.194562 1.0784e-05 0)
(0.194562 1.07871e-05 0)
(0.194562 1.07844e-05 0)
(0.194562 1.0788e-05 0)
(0.194562 1.07854e-05 0)
(0.194562 1.07891e-05 0)
(0.194562 1.07864e-05 0)
(0.194562 1.079e-05 0)
(0.194562 1.07871e-05 0)
(0.194562 1.07904e-05 0)
(0.194562 1.07875e-05 0)
(0.194562 1.07911e-05 0)
(0.194562 1.0788e-05 0)
(0.194562 1.07912e-05 0)
(0.194562 1.07878e-05 0)
(0.194562 1.07907e-05 0)
(0.194562 1.0787e-05 0)
(0.194562 1.07895e-05 0)
(0.194562 1.07856e-05 0)
(0.194562 1.07885e-05 0)
(0.194562 1.07846e-05 0)
(0.194562 1.07869e-05 0)
(0.194562 1.07824e-05 0)
(0.194562 1.07845e-05 0)
(0.194562 1.07796e-05 0)
(0.194562 1.07808e-05 0)
(0.194562 1.07753e-05 0)
(0.194562 1.07765e-05 0)
(0.194562 1.07708e-05 0)
(0.194562 1.07716e-05 0)
(0.194562 1.07661e-05 0)
(0.194561 1.07786e-05 0)
(0.194544 1.10216e-05 0)
(0.194158 2.13218e-05 0)
)
;

boundaryField
{
    inandouthalf11
    {
        type            cyclic;
    }
    inandouthalf12
    {
        type            cyclic;
    }
    inandouthalf21
    {
        type            cyclic;
    }
    inandouthalf22
    {
        type            cyclic;
    }
    inandouthalf31
    {
        type            cyclic;
    }
    inandouthalf32
    {
        type            cyclic;
    }
    inandouthalf41
    {
        type            cyclic;
    }
    inandouthalf42
    {
        type            cyclic;
    }
    top
    {
        type            symmetryPlane;
    }
    walls
    {
        type            calculated;
        value           uniform (0 0 0);
    }
    frontAndBackPlanes
    {
        type            empty;
    }
}


// ************************************************************************* //
