/*--------------------------------*- C++ -*----------------------------------*\
| =========                 |                                                 |
| \\      /  F ield         | OpenFOAM: The Open Source CFD Toolbox           |
|  \\    /   O peration     | Version:  2.4.x                                 |
|   \\  /    A nd           | Web:      www.OpenFOAM.org                      |
|    \\/     M anipulation  |                                                 |
\*---------------------------------------------------------------------------*/
FoamFile
{
    version     2.0;
    format      ascii;
    class       surfaceScalarField;
    location    "6.3";
    object      ddt0(phib);
}
// * * * * * * * * * * * * * * * * * * * * * * * * * * * * * * * * * * * * * //

dimensions      [0 3 -2 0 0 0 0];

internalField   nonuniform List<scalar> 
359
(
-2.3834e-13
-6.55861e-13
-1.04471e-12
-1.40632e-12
-1.7711e-12
-2.14683e-12
-2.5294e-12
-2.91441e-12
-3.29988e-12
-3.68621e-12
-4.07451e-12
-4.46518e-12
-4.8583e-12
-5.25356e-12
-5.65074e-12
-6.04989e-12
-6.45114e-12
-6.85457e-12
-7.26016e-12
-7.66806e-12
-8.07794e-12
-8.48971e-12
-8.90306e-12
-9.31761e-12
-9.73278e-12
-1.0148e-11
-1.05625e-11
-1.09762e-11
-1.13889e-11
-1.18009e-11
-1.22132e-11
-1.26278e-11
-1.30469e-11
-1.34743e-11
-1.39134e-11
-1.43677e-11
-1.48401e-11
-1.53318e-11
-1.58413e-11
-1.63626e-11
-1.68861e-11
-1.7396e-11
-1.78719e-11
-1.82911e-11
-1.86302e-11
-1.88708e-11
-1.90044e-11
-1.90374e-11
-1.89953e-11
-1.8923e-11
-1.88837e-11
-1.89572e-11
-1.92386e-11
-1.98407e-11
-2.08987e-11
-2.25837e-11
-2.51064e-11
-2.87202e-11
-3.36658e-11
-4.00141e-11
-4.73354e-11
-5.41718e-11
-5.78273e-11
-5.52786e-11
-4.55381e-11
-3.13902e-11
-1.78129e-11
-8.3093e-12
-3.22769e-12
-1.07163e-12
-3.15012e-13
-8.56715e-14
-2.2754e-14
-6.32821e-15
-2.05174e-15
-8.83862e-16
-5.5827e-16
-4.49731e-16
-4.46488e-16
-4.34873e-16
-4.48305e-16
-4.50872e-16
-4.73182e-16
-4.59442e-16
-4.48553e-16
-5.06067e-16
-5.00105e-16
-5.28734e-16
-5.64722e-16
-5.59691e-16
-5.83141e-16
-6.05737e-16
-6.20124e-16
-6.67249e-16
-6.80751e-16
-7.25784e-16
-7.29896e-16
-7.71374e-16
-7.82693e-16
-8.20176e-16
-8.16382e-16
-8.35958e-16
-8.53604e-16
-8.53833e-16
-8.88412e-16
-9.05683e-16
-9.3435e-16
-9.59076e-16
-9.69144e-16
-9.8619e-16
-1.02136e-15
-1.02295e-15
-1.06075e-15
-1.07747e-15
-1.09043e-15
-1.10958e-15
-1.12615e-15
-1.13827e-15
-1.18609e-15
-1.20924e-15
-1.23393e-15
-1.27746e-15
-1.28398e-15
-1.31782e-15
-1.35833e-15
-1.40855e-15
-1.44784e-15
-1.48097e-15
-1.53382e-15
-1.59078e-15
-1.63764e-15
-1.71405e-15
-1.78314e-15
-1.84667e-15
-1.90776e-15
-1.99402e-15
-2.10947e-15
-2.27467e-15
-2.4713e-15
-2.57051e-15
-2.63832e-15
-3.00946e-15
-3.63396e-15
-5.01913e-15
-1.3778e-14
-1.64107e-14
8.73998e-13
-8.07884e-11
2.48313e-09
2.1235e-09
1.77668e-09
1.43562e-09
1.13553e-09
8.9029e-10
6.99072e-10
5.53518e-10
4.43543e-10
3.60188e-10
2.96419e-10
2.47024e-10
2.08236e-10
1.77357e-10
1.52445e-10
1.32095e-10
1.15277e-10
1.0123e-10
8.93817e-11
7.92997e-11
7.06513e-11
6.31783e-11
5.66782e-11
5.09905e-11
4.59868e-11
4.15632e-11
3.76353e-11
3.41336e-11
3.10007e-11
2.81887e-11
2.56574e-11
2.33728e-11
2.13061e-11
1.94323e-11
1.77302e-11
1.61814e-11
1.47696e-11
1.34809e-11
1.23027e-11
1.12241e-11
1.02353e-11
9.32735e-12
8.49205e-12
7.72166e-12
7.00882e-12
6.34652e-12
5.72821e-12
5.14772e-12
4.59974e-12
4.08046e-12
3.58853e-12
3.12556e-12
2.69368e-12
2.28475e-12
1.89984e-12
1.53963e-12
1.20281e-12
8.92673e-13
6.17964e-13
3.8549e-13
1.99445e-13
6.06928e-14
-3.43067e-14
-9.22442e-14
-1.22866e-13
-1.33995e-13
-1.31432e-13
-1.21664e-13
-1.08649e-13
-9.41859e-14
-8.0025e-14
-6.74235e-14
-5.64338e-14
-4.66298e-14
-3.82774e-14
-3.141e-14
-2.55468e-14
-2.06449e-14
-1.66343e-14
-1.33537e-14
-1.06817e-14
-8.48741e-15
-6.7542e-15
-5.34797e-15
-4.06283e-15
-3.13246e-15
-2.46783e-15
-2.27505e-15
5.52238e-16
-9.12113e-16
8.12671e-17
-2.57039e-16
4.77851e-16
-3.25639e-17
-2.11151e-17
-3.77348e-17
-4.28745e-17
-3.82962e-17
-5.00326e-17
-5.51746e-17
-4.61377e-17
-5.7939e-17
-6.57167e-17
-6.58148e-17
-7.8765e-17
-7.2881e-17
-7.75526e-17
-7.75366e-17
-7.55139e-17
-7.15915e-17
-6.99443e-17
-6.92543e-17
-6.09692e-17
-5.71772e-17
-4.93432e-17
-4.7301e-17
-4.70726e-17
-4.83194e-17
-5.33939e-17
-5.73326e-17
-4.88586e-17
-4.06899e-17
-3.28622e-17
-3.00803e-17
-3.1453e-17
-2.82988e-17
-2.965e-17
-2.59714e-17
-3.56909e-17
-3.45265e-17
-4.57416e-17
-4.9731e-17
-4.34883e-17
-3.59451e-17
-3.49122e-17
-3.29437e-17
-3.52727e-17
-2.42465e-17
-1.0211e-17
-1.05824e-17
-8.87397e-18
7.52012e-18
1.58278e-17
3.24583e-17
4.55147e-17
6.62322e-17
9.57516e-17
1.48238e-16
1.98914e-16
2.77389e-16
3.56026e-16
4.70911e-16
5.55538e-16
6.74383e-16
8.03216e-16
9.40719e-16
1.06033e-15
1.20693e-15
1.35261e-15
1.51919e-15
1.69513e-15
1.87433e-15
2.05041e-15
2.21287e-15
2.49657e-15
2.7426e-15
2.99103e-15
3.16831e-15
3.4289e-15
3.58121e-15
3.7531e-15
3.78252e-15
4.26316e-15
4.53369e-15
4.83572e-15
4.84538e-15
5.44322e-15
5.62438e-15
6.23441e-15
6.4443e-15
1.29402e-14
1.84134e-14
2.42531e-14
2.80984e-14
3.4129e-14
3.71364e-14
4.0286e-14
4.004e-14
4.60487e-14
4.76296e-14
4.92531e-14
4.5341e-14
4.5818e-14
4.01405e-14
3.4675e-14
2.36794e-14
2.26343e-14
1.55458e-14
8.53864e-15
-5.7479e-15
-1.53837e-14
-3.1662e-14
-4.89633e-14
-7.54494e-14
-9.54865e-14
-1.19628e-13
-1.45182e-13
-1.76752e-13
-1.96118e-13
-2.40449e-13
-3.26424e-13
)
;

boundaryField
{
    inandouthalf11
    {
        type            cyclic;
        value           nonuniform List<scalar> 
100
(
-1.28657e-10
-1.28048e-10
-1.27952e-10
-1.28058e-10
-1.28129e-10
-1.28169e-10
-1.2821e-10
-1.28256e-10
-1.28302e-10
-1.28349e-10
-1.28396e-10
-1.28444e-10
-1.28492e-10
-1.2854e-10
-1.28588e-10
-1.28637e-10
-1.28687e-10
-1.28736e-10
-1.28787e-10
-1.28837e-10
-1.28888e-10
-1.28939e-10
-1.28991e-10
-1.29043e-10
-1.29096e-10
-1.29149e-10
-1.29202e-10
-1.29256e-10
-1.2931e-10
-1.29364e-10
-1.29418e-10
-1.29473e-10
-1.29528e-10
-1.29585e-10
-1.29641e-10
-1.29699e-10
-1.29757e-10
-1.29817e-10
-1.29878e-10
-1.2994e-10
-1.30003e-10
-1.30066e-10
-1.30129e-10
-1.30191e-10
-1.3025e-10
-1.30306e-10
-1.30359e-10
-1.30406e-10
-1.3045e-10
-1.30492e-10
-1.30534e-10
-1.30578e-10
-1.30629e-10
-1.30692e-10
-1.30772e-10
-1.30877e-10
-1.31016e-10
-1.31202e-10
-1.31446e-10
-1.31761e-10
-1.32143e-10
-1.32552e-10
-1.32887e-10
-1.32987e-10
-1.32722e-10
-1.32125e-10
-1.31425e-10
-1.3087e-10
-1.30555e-10
-1.3043e-10
-1.30408e-10
-1.30429e-10
-1.30464e-10
-1.30504e-10
-1.30547e-10
-1.30591e-10
-1.30636e-10
-1.30681e-10
-1.30728e-10
-1.30776e-10
-1.30825e-10
-1.30876e-10
-1.30928e-10
-1.30981e-10
-1.31035e-10
-1.31091e-10
-1.31149e-10
-1.31207e-10
-1.31267e-10
-1.31328e-10
-1.3139e-10
-1.31454e-10
-1.31519e-10
-1.31586e-10
-1.31654e-10
-1.31724e-10
-1.31796e-10
-1.31869e-10
-1.31944e-10
-1.32021e-10
)
;
    }
    inandouthalf12
    {
        type            cyclic;
        value           nonuniform List<scalar> 
100
(
1.28657e-10
1.28048e-10
1.27952e-10
1.28058e-10
1.28129e-10
1.28169e-10
1.2821e-10
1.28256e-10
1.28302e-10
1.28349e-10
1.28396e-10
1.28444e-10
1.28492e-10
1.2854e-10
1.28588e-10
1.28637e-10
1.28687e-10
1.28736e-10
1.28787e-10
1.28837e-10
1.28888e-10
1.28939e-10
1.28991e-10
1.29043e-10
1.29096e-10
1.29149e-10
1.29202e-10
1.29256e-10
1.2931e-10
1.29364e-10
1.29418e-10
1.29473e-10
1.29528e-10
1.29585e-10
1.29641e-10
1.29699e-10
1.29757e-10
1.29817e-10
1.29878e-10
1.2994e-10
1.30003e-10
1.30066e-10
1.30129e-10
1.30191e-10
1.3025e-10
1.30306e-10
1.30359e-10
1.30406e-10
1.3045e-10
1.30492e-10
1.30534e-10
1.30578e-10
1.30629e-10
1.30692e-10
1.30772e-10
1.30877e-10
1.31016e-10
1.31202e-10
1.31446e-10
1.31761e-10
1.32143e-10
1.32552e-10
1.32887e-10
1.32987e-10
1.32722e-10
1.32125e-10
1.31425e-10
1.3087e-10
1.30555e-10
1.3043e-10
1.30408e-10
1.30429e-10
1.30464e-10
1.30504e-10
1.30547e-10
1.30591e-10
1.30636e-10
1.30681e-10
1.30728e-10
1.30776e-10
1.30825e-10
1.30876e-10
1.30928e-10
1.30981e-10
1.31035e-10
1.31091e-10
1.31149e-10
1.31207e-10
1.31267e-10
1.31328e-10
1.3139e-10
1.31454e-10
1.31519e-10
1.31586e-10
1.31654e-10
1.31724e-10
1.31796e-10
1.31869e-10
1.31944e-10
1.32021e-10
)
;
    }
    inandouthalf21
    {
        type            cyclic;
        value           nonuniform List<scalar> 
100
(
-1.321e-10
-1.3218e-10
-1.32263e-10
-1.32348e-10
-1.32435e-10
-1.32524e-10
-1.32615e-10
-1.32709e-10
-1.32805e-10
-1.32904e-10
-1.33006e-10
-1.33111e-10
-1.33218e-10
-1.33329e-10
-1.33443e-10
-1.3356e-10
-1.33681e-10
-1.33806e-10
-1.33935e-10
-1.34067e-10
-1.34205e-10
-1.34346e-10
-1.34493e-10
-1.34644e-10
-1.348e-10
-1.34963e-10
-1.35131e-10
-1.35305e-10
-1.35487e-10
-1.35676e-10
-1.35873e-10
-1.36078e-10
-1.36292e-10
-1.36519e-10
-1.3676e-10
-1.37015e-10
-1.37283e-10
-1.37568e-10
-1.37885e-10
-1.38249e-10
-1.38643e-10
-1.3902e-10
-1.39473e-10
-1.40062e-10
-1.40797e-10
-1.42176e-10
-1.4696e-10
-5.743e-10
-1.22515e-07
-1.54753e-07
-1.49203e-07
-1.54432e-07
-1.62722e-07
-1.7176e-07
-1.8057e-07
-1.88748e-07
-1.96166e-07
-2.02825e-07
-2.08784e-07
-2.14119e-07
-2.18909e-07
-2.23225e-07
-2.27132e-07
-2.30683e-07
-2.33926e-07
-2.36901e-07
-2.3964e-07
-2.42173e-07
-2.44523e-07
-2.46711e-07
-2.48755e-07
-2.5067e-07
-2.52469e-07
-2.54162e-07
-2.5576e-07
-2.57271e-07
-2.58702e-07
-2.6006e-07
-2.6135e-07
-2.62576e-07
-2.63744e-07
-2.64856e-07
-2.65915e-07
-2.66925e-07
-2.67888e-07
-2.68805e-07
-2.69678e-07
-2.70509e-07
-2.71299e-07
-2.72049e-07
-2.72758e-07
-2.73429e-07
-2.7406e-07
-2.74653e-07
-2.75206e-07
-2.7572e-07
-2.76194e-07
-2.76628e-07
-2.77021e-07
-2.77371e-07
)
;
    }
    inandouthalf22
    {
        type            cyclic;
        value           nonuniform List<scalar> 
100
(
1.321e-10
1.3218e-10
1.32263e-10
1.32348e-10
1.32435e-10
1.32524e-10
1.32615e-10
1.32709e-10
1.32805e-10
1.32904e-10
1.33006e-10
1.33111e-10
1.33218e-10
1.33329e-10
1.33443e-10
1.3356e-10
1.33681e-10
1.33806e-10
1.33935e-10
1.34067e-10
1.34205e-10
1.34346e-10
1.34493e-10
1.34644e-10
1.348e-10
1.34963e-10
1.35131e-10
1.35305e-10
1.35487e-10
1.35676e-10
1.35873e-10
1.36078e-10
1.36292e-10
1.36519e-10
1.3676e-10
1.37015e-10
1.37283e-10
1.37568e-10
1.37885e-10
1.38249e-10
1.38643e-10
1.3902e-10
1.39473e-10
1.40062e-10
1.40797e-10
1.42176e-10
1.4696e-10
5.743e-10
1.22515e-07
1.54753e-07
1.49203e-07
1.54432e-07
1.62722e-07
1.7176e-07
1.8057e-07
1.88748e-07
1.96166e-07
2.02825e-07
2.08784e-07
2.14119e-07
2.18909e-07
2.23225e-07
2.27132e-07
2.30683e-07
2.33926e-07
2.36901e-07
2.3964e-07
2.42173e-07
2.44523e-07
2.46711e-07
2.48755e-07
2.5067e-07
2.52469e-07
2.54162e-07
2.5576e-07
2.57271e-07
2.58702e-07
2.6006e-07
2.6135e-07
2.62576e-07
2.63744e-07
2.64856e-07
2.65915e-07
2.66925e-07
2.67888e-07
2.68805e-07
2.69678e-07
2.70509e-07
2.71299e-07
2.72049e-07
2.72758e-07
2.73429e-07
2.7406e-07
2.74653e-07
2.75206e-07
2.7572e-07
2.76194e-07
2.76628e-07
2.77021e-07
2.77371e-07
)
;
    }
    inandouthalf31
    {
        type            cyclic;
        value           nonuniform List<scalar> 
110
(
-2.77679e-07
-2.83586e-07
-2.89573e-07
-2.95636e-07
-3.01768e-07
-3.07962e-07
-3.1421e-07
-3.205e-07
-3.26822e-07
-3.33161e-07
-3.39501e-07
-3.45824e-07
-3.5211e-07
-3.58335e-07
-3.64471e-07
-3.7049e-07
-3.76356e-07
-3.82035e-07
-3.87484e-07
-3.92661e-07
-3.97523e-07
-4.02024e-07
-4.06123e-07
-4.09785e-07
-4.12986e-07
-4.15718e-07
-4.17997e-07
-4.19863e-07
-4.21391e-07
-4.22682e-07
-4.2386e-07
-4.25063e-07
-4.26421e-07
-4.28052e-07
-4.30044e-07
-4.32454e-07
-4.35313e-07
-4.38628e-07
-4.42396e-07
-4.46607e-07
-4.51252e-07
-4.56325e-07
-4.61821e-07
-4.67738e-07
-4.74079e-07
-4.80844e-07
-4.8804e-07
-4.95674e-07
-5.03764e-07
-5.12336e-07
-5.21437e-07
-5.31141e-07
-5.41571e-07
-5.52931e-07
-5.65713e-07
-5.81642e-07
-6.03919e-07
-6.19122e-07
-6.31806e-07
-6.44632e-07
-6.57717e-07
-6.71067e-07
-6.84688e-07
-6.98585e-07
-7.12764e-07
-7.27232e-07
-7.41992e-07
-7.57053e-07
-7.72419e-07
-7.88097e-07
-8.04093e-07
-8.20414e-07
-8.37067e-07
-8.54057e-07
-8.71392e-07
-8.89079e-07
-9.07125e-07
-9.25537e-07
-9.44323e-07
-9.6349e-07
-9.83046e-07
-1.003e-06
-1.02336e-06
-1.04413e-06
-1.06532e-06
-1.08695e-06
-1.10901e-06
-1.13152e-06
-1.15448e-06
-1.17792e-06
-1.20183e-06
-1.22622e-06
-1.25111e-06
-1.2765e-06
-1.30241e-06
-1.32885e-06
-1.35582e-06
-1.38334e-06
-1.41142e-06
-1.44007e-06
-1.4693e-06
-1.49912e-06
-1.52955e-06
-1.56059e-06
-1.59227e-06
-1.62459e-06
-1.65756e-06
-1.69121e-06
-1.72553e-06
-1.76056e-06
)
;
    }
    inandouthalf32
    {
        type            cyclic;
        value           nonuniform List<scalar> 
110
(
2.77679e-07
2.83586e-07
2.89573e-07
2.95636e-07
3.01768e-07
3.07962e-07
3.1421e-07
3.205e-07
3.26822e-07
3.33161e-07
3.39501e-07
3.45824e-07
3.5211e-07
3.58335e-07
3.64471e-07
3.7049e-07
3.76356e-07
3.82035e-07
3.87484e-07
3.92661e-07
3.97523e-07
4.02024e-07
4.06123e-07
4.09785e-07
4.12986e-07
4.15718e-07
4.17997e-07
4.19863e-07
4.21391e-07
4.22682e-07
4.2386e-07
4.25063e-07
4.26421e-07
4.28052e-07
4.30044e-07
4.32454e-07
4.35313e-07
4.38628e-07
4.42396e-07
4.46607e-07
4.51252e-07
4.56325e-07
4.61821e-07
4.67738e-07
4.74079e-07
4.80844e-07
4.8804e-07
4.95674e-07
5.03764e-07
5.12336e-07
5.21437e-07
5.31141e-07
5.41571e-07
5.52931e-07
5.65713e-07
5.81642e-07
6.03919e-07
6.19122e-07
6.31806e-07
6.44632e-07
6.57717e-07
6.71067e-07
6.84688e-07
6.98585e-07
7.12764e-07
7.27232e-07
7.41992e-07
7.57053e-07
7.72419e-07
7.88097e-07
8.04093e-07
8.20414e-07
8.37067e-07
8.54057e-07
8.71392e-07
8.89079e-07
9.07125e-07
9.25537e-07
9.44323e-07
9.6349e-07
9.83046e-07
1.003e-06
1.02336e-06
1.04413e-06
1.06532e-06
1.08695e-06
1.10901e-06
1.13152e-06
1.15448e-06
1.17792e-06
1.20183e-06
1.22622e-06
1.25111e-06
1.2765e-06
1.30241e-06
1.32885e-06
1.35582e-06
1.38334e-06
1.41142e-06
1.44007e-06
1.4693e-06
1.49912e-06
1.52955e-06
1.56059e-06
1.59227e-06
1.62459e-06
1.65756e-06
1.69121e-06
1.72553e-06
1.76056e-06
)
;
    }
    inandouthalf41
    {
        type            cyclic;
        value           nonuniform List<scalar> 
50
(
-1.57588e-06
-1.57588e-06
-1.57588e-06
-1.57588e-06
-1.57588e-06
-1.57588e-06
-1.57588e-06
-1.57588e-06
-1.57588e-06
-1.57588e-06
-1.57588e-06
-1.57588e-06
-1.57588e-06
-1.57588e-06
-1.57588e-06
-1.57588e-06
-1.57588e-06
-1.57588e-06
-1.57588e-06
-1.57588e-06
-1.57588e-06
-1.57588e-06
-1.57588e-06
-1.57588e-06
-1.57588e-06
-1.57588e-06
-1.57588e-06
-1.57588e-06
-1.57588e-06
-1.57588e-06
-1.57588e-06
-1.57588e-06
-1.57588e-06
-1.57588e-06
-1.57588e-06
-1.57588e-06
-1.57588e-06
-1.57588e-06
-1.57588e-06
-1.57588e-06
-1.57588e-06
-1.57588e-06
-1.57588e-06
-1.57588e-06
-1.57588e-06
-1.57588e-06
-1.57588e-06
-1.57588e-06
-1.57588e-06
-1.57588e-06
)
;
    }
    inandouthalf42
    {
        type            cyclic;
        value           nonuniform List<scalar> 
50
(
1.57588e-06
1.57588e-06
1.57588e-06
1.57588e-06
1.57588e-06
1.57588e-06
1.57588e-06
1.57588e-06
1.57588e-06
1.57588e-06
1.57588e-06
1.57588e-06
1.57588e-06
1.57588e-06
1.57588e-06
1.57588e-06
1.57588e-06
1.57588e-06
1.57588e-06
1.57588e-06
1.57588e-06
1.57588e-06
1.57588e-06
1.57588e-06
1.57588e-06
1.57588e-06
1.57588e-06
1.57588e-06
1.57588e-06
1.57588e-06
1.57588e-06
1.57588e-06
1.57588e-06
1.57588e-06
1.57588e-06
1.57588e-06
1.57588e-06
1.57588e-06
1.57588e-06
1.57588e-06
1.57588e-06
1.57588e-06
1.57588e-06
1.57588e-06
1.57588e-06
1.57588e-06
1.57588e-06
1.57588e-06
1.57588e-06
1.57588e-06
)
;
    }
    top
    {
        type            symmetryPlane;
        value           uniform 0;
    }
    walls
    {
        type            calculated;
        value           uniform 0;
    }
    frontAndBackPlanes
    {
        type            empty;
        value           nonuniform 0();
    }
}


// ************************************************************************* //
