/*--------------------------------*- C++ -*----------------------------------*\
| =========                 |                                                 |
| \\      /  F ield         | OpenFOAM: The Open Source CFD Toolbox           |
|  \\    /   O peration     | Version:  2.4.x                                 |
|   \\  /    A nd           | Web:      www.OpenFOAM.org                      |
|    \\/     M anipulation  |                                                 |
\*---------------------------------------------------------------------------*/
FoamFile
{
    version     2.0;
    format      ascii;
    class       volScalarField;
    location    "6.3";
    object      k;
}
// * * * * * * * * * * * * * * * * * * * * * * * * * * * * * * * * * * * * * //

dimensions      [0 2 -2 0 0 0 0];

internalField   nonuniform List<scalar> 
360
(
1e-20
1e-20
1e-20
1e-20
1e-20
1e-20
1e-20
1e-20
1e-20
1e-20
1e-20
1e-20
1e-20
1e-20
1e-20
1e-20
1e-20
1e-20
1e-20
1e-20
1e-20
1e-20
1e-20
1e-20
1e-20
1e-20
1e-20
1e-20
1e-20
1e-20
1e-20
1e-20
1e-20
1e-20
1e-20
1e-20
1e-20
1e-20
1e-20
1e-20
1e-20
1e-20
1e-20
1e-20
1e-20
1e-20
1e-20
1e-20
1e-20
1e-20
1e-20
1e-20
1e-20
1e-20
1e-20
1e-20
1e-20
1e-20
1e-20
1e-20
1e-20
1e-20
1e-20
1e-20
1e-20
1e-20
1e-20
1e-20
1e-20
1e-20
1e-20
1e-20
1e-20
1e-20
1e-20
1e-20
1e-20
1e-20
1e-20
1e-20
1e-20
1e-20
1e-20
1e-20
1e-20
1e-20
1e-20
1e-20
1e-20
1e-20
1e-20
1e-20
1e-20
1e-20
1e-20
1e-20
1e-20
1e-20
1e-20
1e-20
1e-20
1e-20
1e-20
1e-20
1e-20
1e-20
1e-20
1e-20
1e-20
1e-20
1e-20
1e-20
1e-20
1e-20
1e-20
1e-20
1e-20
1e-20
1e-20
1e-20
1e-20
1e-20
1e-20
1e-20
1e-20
1e-20
1e-20
1e-20
1e-20
1e-20
1e-20
1e-20
1.32753e-20
5.49993e-20
2.77517e-19
1.51478e-18
8.96152e-18
5.81277e-17
4.19483e-16
3.42109e-15
3.20001e-14
3.48495e-13
4.50136e-12
7.01228e-11
1.33366e-09
3.13254e-08
9.16058e-07
3.11072e-05
0.000743723
0.00350961
0.00509776
0.00592374
0.00644455
0.00680855
0.00708009
0.00728992
0.00745428
0.00758286
0.00768212
0.00775682
0.00781062
0.00784646
0.00786676
0.0078735
0.00786835
0.00785271
0.00782776
0.00779451
0.00775382
0.00770644
0.00765302
0.0075941
0.00753019
0.0074617
0.00738904
0.00731252
0.00723245
0.0071491
0.00706272
0.00697351
0.0068817
0.00678745
0.00669093
0.0065923
0.00649169
0.00638926
0.00628511
0.00617937
0.00607214
0.00596354
0.00585367
0.00574262
0.00563048
0.00551736
0.00540334
0.0052885
0.00517294
0.00505675
0.00494
0.0048228
0.00470521
0.00458615
0.00446446
0.0043402
0.0042134
0.00408414
0.00395251
0.0038186
0.00368255
0.0035445
0.00340463
0.00326315
0.0031203
0.00297636
0.00283167
0.00268658
0.00254153
0.00239699
0.00225349
0.00211164
0.00197208
0.00183553
0.00170273
0.00157447
0.00145155
0.00133475
0.00122482
0.00112238
0.00102793
0.000941797
0.000864073
0.000794629
0.000733102
0.000678933
0.000631405
0.000589697
0.00055294
0.000520256
0.000490799
0.00046377
0.000438433
0.000414123
0.000390252
0.000366307
0.000341854
0.000316542
0.000290101
0.000262349
0.000233198
0.000202666
0.000170893
0.000138173
0.000105013
7.22427e-05
4.12764e-05
1.45757e-05
1.62541e-06
4.69116e-08
8.9782e-10
1.59435e-11
2.66173e-13
4.18171e-15
6.18712e-17
8.69237e-19
1.9563e-20
1e-20
1e-20
1e-20
1e-20
1e-20
1e-20
1e-20
1e-20
1e-20
1e-20
1e-20
1e-20
1e-20
1e-20
1e-20
1e-20
1e-20
1e-20
1e-20
1e-20
1e-20
1e-20
1e-20
1e-20
1e-20
1e-20
1e-20
1e-20
1e-20
1e-20
1e-20
1e-20
1e-20
1e-20
1e-20
1e-20
1e-20
1e-20
1e-20
1e-20
1e-20
1e-20
1e-20
1e-20
1e-20
1e-20
1e-20
1e-20
1e-20
1e-20
1e-20
1e-20
1e-20
1e-20
1e-20
1e-20
1e-20
1e-20
1e-20
1e-20
1e-20
1e-20
1e-20
1e-20
1e-20
1e-20
1e-20
1e-20
1e-20
1e-20
1e-20
1e-20
1e-20
1e-20
1e-20
1e-20
1e-20
1e-20
1e-20
1e-20
1e-20
1e-20
1e-20
1e-20
1e-20
1e-20
1e-20
1e-20
1e-20
1e-20
1e-20
1e-20
1e-20
1e-20
1e-20
)
;

boundaryField
{
    inandouthalf11
    {
        type            cyclic;
    }
    inandouthalf12
    {
        type            cyclic;
    }
    inandouthalf21
    {
        type            cyclic;
    }
    inandouthalf22
    {
        type            cyclic;
    }
    inandouthalf31
    {
        type            cyclic;
    }
    inandouthalf32
    {
        type            cyclic;
    }
    inandouthalf41
    {
        type            cyclic;
    }
    inandouthalf42
    {
        type            cyclic;
    }
    top
    {
        type            symmetryPlane;
    }
    walls
    {
        type            zeroGradient;
    }
    frontAndBackPlanes
    {
        type            empty;
    }
}


// ************************************************************************* //
