/*--------------------------------*- C++ -*----------------------------------*\
| =========                 |                                                 |
| \\      /  F ield         | OpenFOAM: The Open Source CFD Toolbox           |
|  \\    /   O peration     | Version:  2.4.x                                 |
|   \\  /    A nd           | Web:      www.OpenFOAM.org                      |
|    \\/     M anipulation  |                                                 |
\*---------------------------------------------------------------------------*/
FoamFile
{
    version     2.0;
    format      ascii;
    class       volScalarField;
    location    "6.3";
    object      mua;
}
// * * * * * * * * * * * * * * * * * * * * * * * * * * * * * * * * * * * * * //

dimensions      [1 -1 -1 0 0 0 0];

internalField   nonuniform List<scalar> 
360
(
980176
662523
811485
852107
811970
783918
771753
763718
755473
745899
735272
724538
714184
704341
694791
685279
675770
666354
657023
647764
638719
629711
620770
611958
603298
594854
586617
578486
570579
562920
555373
547837
540319
532455
524385
515917
506967
497395
487414
477403
467334
457874
449506
442444
437382
434685
434661
437378
442054
447922
454051
458325
458373
451587
435718
409303
372999
329099
281927
236387
196969
167321
149804
147068
164688
217485
346265
670579
1.5717e+06
4.37612e+06
1.40345e+07
4.98957e+07
1.88303e+08
7.18839e+08
2.65191e+09
9.07817e+09
2.789e+10
7.48413e+10
1.71977e+11
3.3453e+11
5.49216e+11
7.6538e+11
9.18978e+11
9.72219e+11
9.30764e+11
8.28781e+11
7.0377e+11
5.81907e+11
4.75954e+11
3.89396e+11
3.21007e+11
2.67808e+11
2.26613e+11
1.94665e+11
1.69768e+11
1.5024e+11
1.34818e+11
1.22559e+11
1.12751e+11
1.04856e+11
9.84639e+10
9.32577e+10
8.8993e+10
8.54803e+10
8.25717e+10
8.015e+10
7.81217e+10
7.64103e+10
7.49522e+10
7.36929e+10
7.25851e+10
7.15863e+10
7.06573e+10
6.97606e+10
6.88596e+10
6.79184e+10
6.69019e+10
6.57772e+10
6.45167e+10
6.31014e+10
6.15258e+10
5.98024e+10
5.79642e+10
5.60639e+10
5.41703e+10
5.2362e+10
5.07228e+10
4.93429e+10
4.83237e+10
4.77809e+10
4.78257e+10
4.85125e+10
4.97629e+10
5.13416e+10
5.29563e+10
5.43655e+10
5.52268e+10
5.48909e+10
5.30166e+10
5.11956e+10
5.37225e+10
6.69835e+10
1.01664e+11
1.92692e+11
4.42797e+11
6.49678e+11
5.01895e+10
0.143092
0.013253
0.00779346
0.00644708
0.00576476
0.005413
0.00525372
0.00520314
0.00520913
0.00524131
0.00528317
0.00532617
0.00536624
0.00540162
0.00543172
0.00545655
0.00547638
0.00549157
0.00550254
0.00550965
0.00551325
0.00551367
0.00551117
0.00550601
0.00549839
0.00548851
0.00547654
0.00546262
0.0054469
0.0054295
0.00541054
0.00539011
0.00536832
0.00534525
0.00532099
0.00529563
0.00526924
0.00524189
0.00521365
0.00518461
0.00515481
0.00512432
0.00509321
0.00506154
0.00502935
0.0049967
0.00496365
0.00493024
0.00489652
0.00486253
0.00482831
0.00479389
0.00475931
0.00472458
0.00468938
0.00465336
0.00461649
0.00457877
0.00454018
0.00450067
0.0044602
0.00441871
0.00437613
0.00433236
0.0042873
0.00424082
0.0041928
0.00414307
0.00409148
0.00403782
0.00398189
0.00392345
0.00386223
0.00379792
0.00373018
0.00365859
0.00358268
0.00350187
0.00341545
0.00332258
0.00322217
0.00311282
0.00299269
0.00285922
0.00270874
0.00253559
0.00233029
0.00207459
0.00172369
0
0
0
0
0
0
0
0
0
0
0
0
0
0
0
0
0
0
0
0
0
0
0
0
0
0
0
0
0
0
0
0
0
0
0
0
0
0
0
0
0
0
0
0
0
0
0
0
0
0
0
0
0
0
0
0
0
0
0
0
0
0
0
0
0
0
0
0
0
0
0
0
0
0
0
0
0
0
0
0
0
0
0
0
0
0
0
0
0
0
0
0
0
0
0
0
0
0
0
0
0
0
0
0
0
0
0
0
0
0
0
0
0
0
0
0
0
0
0
0
0
0
0
0
)
;

boundaryField
{
    inandouthalf11
    {
        type            cyclic;
    }
    inandouthalf12
    {
        type            cyclic;
    }
    inandouthalf21
    {
        type            cyclic;
    }
    inandouthalf22
    {
        type            cyclic;
    }
    inandouthalf31
    {
        type            cyclic;
    }
    inandouthalf32
    {
        type            cyclic;
    }
    inandouthalf41
    {
        type            cyclic;
    }
    inandouthalf42
    {
        type            cyclic;
    }
    top
    {
        type            symmetryPlane;
    }
    walls
    {
        type            calculated;
        value           uniform 1e+30;
    }
    frontAndBackPlanes
    {
        type            empty;
    }
}


// ************************************************************************* //
