/*--------------------------------*- C++ -*----------------------------------*\
| =========                 |                                                 |
| \\      /  F ield         | OpenFOAM: The Open Source CFD Toolbox           |
|  \\    /   O peration     | Version:  2.4.x                                 |
|   \\  /    A nd           | Web:      www.OpenFOAM.org                      |
|    \\/     M anipulation  |                                                 |
\*---------------------------------------------------------------------------*/
FoamFile
{
    version     2.0;
    format      ascii;
    class       volScalarField;
    location    "6.3";
    object      pa;
}
// * * * * * * * * * * * * * * * * * * * * * * * * * * * * * * * * * * * * * //

dimensions      [1 -1 -2 0 0 0 0];

internalField   nonuniform List<scalar> 
360
(
2.89993e-16
2.92587e-16
2.92763e-16
2.9249e-16
2.92375e-16
2.9234e-16
2.92292e-16
2.9223e-16
2.92165e-16
2.92101e-16
2.92036e-16
2.91971e-16
2.91906e-16
2.9184e-16
2.91774e-16
2.91707e-16
2.91639e-16
2.91571e-16
2.91502e-16
2.91432e-16
2.91362e-16
2.91292e-16
2.9122e-16
2.91148e-16
2.91076e-16
2.91002e-16
2.90928e-16
2.90852e-16
2.90776e-16
2.907e-16
2.90622e-16
2.90543e-16
2.90465e-16
2.90385e-16
2.90307e-16
2.90228e-16
2.9015e-16
2.90073e-16
2.89995e-16
2.8992e-16
2.89842e-16
2.89762e-16
2.89681e-16
2.89593e-16
2.89501e-16
2.894e-16
2.89291e-16
2.89175e-16
2.89054e-16
2.88929e-16
2.88807e-16
2.88689e-16
2.8858e-16
2.88485e-16
2.88412e-16
2.88367e-16
2.88368e-16
2.88437e-16
2.88614e-16
2.88948e-16
2.89474e-16
2.90135e-16
2.90645e-16
2.90524e-16
2.89529e-16
2.88111e-16
2.87e-16
2.86436e-16
2.86204e-16
2.86082e-16
2.85979e-16
2.85876e-16
2.85772e-16
2.85663e-16
2.85552e-16
2.85438e-16
2.85323e-16
2.85205e-16
2.85084e-16
2.8496e-16
2.84834e-16
2.84704e-16
2.84571e-16
2.84434e-16
2.84294e-16
2.84151e-16
2.84005e-16
2.83855e-16
2.83703e-16
2.83548e-16
2.83389e-16
2.83227e-16
2.83061e-16
2.82892e-16
2.82718e-16
2.82541e-16
2.82359e-16
2.82174e-16
2.81984e-16
2.81791e-16
2.81592e-16
2.8139e-16
2.81182e-16
2.8097e-16
2.80752e-16
2.80529e-16
2.80301e-16
2.80067e-16
2.79828e-16
2.79582e-16
2.7933e-16
2.79071e-16
2.78805e-16
2.78532e-16
2.78251e-16
2.77963e-16
2.77666e-16
2.77361e-16
2.77047e-16
2.76724e-16
2.76391e-16
2.76047e-16
2.75693e-16
2.75328e-16
2.74951e-16
2.74562e-16
2.7416e-16
2.73744e-16
2.73312e-16
2.72863e-16
2.72398e-16
2.71915e-16
3.60251e-16
1.48939e-15
7.4986e-15
4.08334e-14
2.4097e-13
1.55881e-12
1.12153e-11
9.1144e-11
8.49226e-10
9.21284e-09
1.18477e-07
1.83868e-06
3.58231e-05
0.00130154
0.0710112
1.49717
3.67745
3.28431
2.5754
1.94
1.45572
1.0998
0.840599
0.651131
0.511224
0.406558
0.327155
0.266082
0.218491
0.180954
0.151018
0.126902
0.107295
0.0912218
0.0779447
0.0669017
0.0576592
0.0498793
0.043296
0.0376985
0.032918
0.0288187
0.0252903
0.0222427
0.0196019
0.0173068
0.0153066
0.013559
0.0120283
0.0106846
0.00950263
0.00846088
0.00754101
0.00672738
0.00600654
0.00536696
0.00479864
0.00429295
0.00384239
0.00344039
0.00308119
0.00275975
0.00247162
0.00221288
0.00198007
0.00177015
0.00158051
0.00140904
0.00125418
0.00111304
0.000983252
0.000864197
0.000755143
0.000655053
0.00056345
0.000480336
0.00040563
0.000339401
0.000281527
0.000231694
0.000189493
0.000154052
0.000124601
0.00010044
8.06733e-05
6.45886e-05
5.15712e-05
4.10754e-05
3.26026e-05
2.57574e-05
2.02816e-05
1.58888e-05
1.2366e-05
9.56401e-06
7.34113e-06
5.57802e-06
4.1947e-06
3.10121e-06
2.26546e-06
1.59883e-06
1.11297e-06
7.17466e-07
4.66594e-07
2.16321e-07
0
0
0
0
0
0
0
0
0
0
0
0
0
0
0
0
0
0
0
0
0
0
0
0
0
0
0
0
0
0
0
0
0
0
0
0
0
0
0
0
0
0
0
0
0
0
0
0
0
0
0
0
0
0
0
0
0
0
0
0
0
0
0
0
0
0
0
0
0
0
0
0
0
0
0
0
0
0
0
0
0
0
0
0
0
0
0
0
0
0
0
0
0
0
0
0
0
0
0
0
0
0
0
0
0
0
0
0
0
0
0
0
0
0
0
0
0
0
0
0
0
0
0
0
)
;

boundaryField
{
    inandouthalf11
    {
        type            cyclic;
    }
    inandouthalf12
    {
        type            cyclic;
    }
    inandouthalf21
    {
        type            cyclic;
    }
    inandouthalf22
    {
        type            cyclic;
    }
    inandouthalf31
    {
        type            cyclic;
    }
    inandouthalf32
    {
        type            cyclic;
    }
    inandouthalf41
    {
        type            cyclic;
    }
    inandouthalf42
    {
        type            cyclic;
    }
    top
    {
        type            symmetryPlane;
    }
    walls
    {
        type            calculated;
        value           uniform 2.89993e-16;
    }
    frontAndBackPlanes
    {
        type            empty;
    }
}


// ************************************************************************* //
