/*--------------------------------*- C++ -*----------------------------------*\
| =========                 |                                                 |
| \\      /  F ield         | OpenFOAM: The Open Source CFD Toolbox           |
|  \\    /   O peration     | Version:  2.4.x                                 |
|   \\  /    A nd           | Web:      www.OpenFOAM.org                      |
|    \\/     M anipulation  |                                                 |
\*---------------------------------------------------------------------------*/
FoamFile
{
    version     2.0;
    format      ascii;
    class       surfaceScalarField;
    location    "6.3";
    object      phib_0;
}
// * * * * * * * * * * * * * * * * * * * * * * * * * * * * * * * * * * * * * //

dimensions      [0 3 -1 0 0 0 0];

internalField   nonuniform List<scalar> 
359
(
5.53332e-13
1.43638e-12
2.24158e-12
2.99578e-12
3.76335e-12
4.55053e-12
5.34655e-12
6.14604e-12
6.94836e-12
7.7551e-12
8.56758e-12
9.38599e-12
1.02102e-11
1.10397e-11
1.18744e-11
1.27142e-11
1.35594e-11
1.44099e-11
1.52658e-11
1.61273e-11
1.69939e-11
1.7866e-11
1.87436e-11
1.96266e-11
2.05149e-11
2.14085e-11
2.2307e-11
2.32105e-11
2.41187e-11
2.50315e-11
2.59486e-11
2.68705e-11
2.77967e-11
2.87284e-11
2.96659e-11
3.06103e-11
3.15626e-11
3.25242e-11
3.34965e-11
3.44796e-11
3.54745e-11
3.64802e-11
3.74944e-11
3.85149e-11
3.95368e-11
4.05547e-11
4.15625e-11
4.25537e-11
4.35242e-11
4.44723e-11
4.53976e-11
4.63049e-11
4.72024e-11
4.8104e-11
4.90282e-11
5.0002e-11
5.10587e-11
5.22435e-11
5.36112e-11
5.52226e-11
5.71329e-11
5.93511e-11
6.17945e-11
6.4247e-11
6.64055e-11
6.80156e-11
6.90108e-11
6.9514e-11
6.97207e-11
6.97875e-11
6.98008e-11
6.97967e-11
6.97874e-11
6.97765e-11
6.9765e-11
6.97532e-11
6.97411e-11
6.97288e-11
6.97161e-11
6.97032e-11
6.96899e-11
6.96763e-11
6.96623e-11
6.96479e-11
6.96332e-11
6.96182e-11
6.96029e-11
6.95872e-11
6.95712e-11
6.95549e-11
6.95382e-11
6.95212e-11
6.95037e-11
6.94859e-11
6.94676e-11
6.94489e-11
6.94298e-11
6.94103e-11
6.93903e-11
6.93698e-11
6.93489e-11
6.93275e-11
6.93056e-11
6.92831e-11
6.92601e-11
6.92365e-11
6.92123e-11
6.91875e-11
6.9162e-11
6.91359e-11
6.91091e-11
6.90816e-11
6.90533e-11
6.90242e-11
6.89942e-11
6.89634e-11
6.89317e-11
6.88991e-11
6.88655e-11
6.88308e-11
6.87951e-11
6.87582e-11
6.87202e-11
6.86809e-11
6.86403e-11
6.85983e-11
6.85549e-11
6.85098e-11
6.84629e-11
6.84142e-11
6.83636e-11
6.83109e-11
6.82557e-11
6.81973e-11
6.81355e-11
6.80704e-11
6.80019e-11
6.79275e-11
6.78437e-11
6.77507e-11
6.76565e-11
6.75558e-11
6.743e-11
6.72712e-11
6.70228e-11
6.63598e-11
6.55981e-11
9.67783e-11
8.08608e-10
7.71055e-10
6.97305e-10
6.0403e-10
5.09247e-10
4.2209e-10
3.466e-10
2.83507e-10
2.31802e-10
1.89825e-10
1.55846e-10
1.28321e-10
1.0596e-10
8.77236e-11
7.2785e-11
6.04934e-11
5.03359e-11
4.19077e-11
3.4888e-11
2.90215e-11
2.41038e-11
1.99704e-11
1.64883e-11
1.35492e-11
1.10646e-11
8.96169e-12
7.18057e-12
5.67141e-12
4.3928e-12
3.3101e-12
2.39425e-12
1.62082e-12
9.69148e-13
4.21747e-13
-3.62372e-14
-4.17453e-13
-7.32695e-13
-9.91199e-13
-1.20088e-12
-1.36852e-12
-1.49996e-12
-1.6002e-12
-1.67352e-12
-1.72355e-12
-1.75332e-12
-1.76538e-12
-1.76179e-12
-1.74425e-12
-1.71411e-12
-1.67253e-12
-1.62062e-12
-1.5597e-12
-1.49138e-12
-1.41549e-12
-1.33291e-12
-1.24458e-12
-1.15113e-12
-1.05309e-12
-9.51962e-13
-8.49868e-13
-7.49195e-13
-6.52493e-13
-5.61946e-13
-4.79298e-13
-4.05457e-13
-3.40504e-13
-2.8436e-13
-2.36466e-13
-1.9589e-13
-1.61795e-13
-1.3334e-13
-1.09657e-13
-8.99289e-14
-7.35637e-14
-6.00515e-14
-4.88641e-14
-3.96281e-14
-3.20412e-14
-2.58052e-14
-2.06932e-14
-1.65001e-14
-1.30885e-14
-1.02948e-14
-8.03472e-15
-6.19039e-15
-4.78327e-15
-3.55112e-15
-3.01529e-15
-1.29501e-15
-5.73604e-16
-2.34145e-16
-9.00548e-17
1.30076e-16
-8.76261e-18
-8.59138e-18
-8.45337e-18
-8.26496e-18
-8.10595e-18
-7.8975e-18
-7.72202e-18
-7.4957e-18
-7.29896e-18
-7.05604e-18
-6.83808e-18
-6.57645e-18
-6.33421e-18
-6.05433e-18
-5.79572e-18
-5.50687e-18
-5.23676e-18
-4.94056e-18
-4.66337e-18
-4.37152e-18
-4.10286e-18
-3.83058e-18
-3.59631e-18
-3.38851e-18
-3.21759e-18
-3.03595e-18
-2.89381e-18
-2.7641e-18
-2.6427e-18
-2.52282e-18
-2.40978e-18
-2.31671e-18
-2.22663e-18
-2.13677e-18
-2.04154e-18
-1.95377e-18
-1.8576e-18
-1.76105e-18
-1.66099e-18
-1.58421e-18
-1.50455e-18
-1.42597e-18
-1.33924e-18
-1.25825e-18
-1.16789e-18
-1.02866e-18
-9.28363e-19
-8.39457e-19
-7.43578e-19
-6.46707e-19
-5.42485e-19
-4.45089e-19
-3.42404e-19
-2.43566e-19
-1.4525e-19
-7.64257e-20
-4.32996e-20
-1.69531e-20
-2.87511e-20
-6.97892e-21
1.43565e-20
3.49955e-20
5.39313e-20
7.35637e-20
8.96234e-20
1.057e-19
1.16994e-19
1.32967e-19
1.4232e-19
1.51641e-19
1.56047e-19
1.72882e-19
1.84522e-19
1.96442e-19
2.01777e-19
2.12852e-19
2.16953e-19
2.21783e-19
2.18823e-19
2.34918e-19
2.41594e-19
2.50009e-19
2.46637e-19
2.6349e-19
2.65914e-19
2.83055e-19
2.86421e-19
5.00711e-19
6.81809e-19
8.74639e-19
1.00155e-18
1.20148e-18
1.30083e-18
1.40491e-18
1.3965e-18
1.59546e-18
1.64802e-18
1.70142e-18
1.57082e-18
1.5863e-18
1.39763e-18
1.21579e-18
8.50094e-19
8.14694e-19
5.78795e-19
3.45169e-19
-1.29779e-19
-4.50042e-19
-9.90965e-19
-1.56609e-18
-2.4454e-18
-3.11168e-18
-3.91404e-18
-4.76319e-18
-5.81117e-18
-6.45521e-18
-7.92619e-18
-1.07796e-17
)
;

boundaryField
{
    inandouthalf11
    {
        type            cyclic;
        value           nonuniform List<scalar> 
100
(
-4.17353e-11
-4.15163e-11
-4.14513e-11
-4.14557e-11
-4.14503e-11
-4.14339e-11
-4.14167e-11
-4.14004e-11
-4.1384e-11
-4.13674e-11
-4.13507e-11
-4.13336e-11
-4.13161e-11
-4.12982e-11
-4.12799e-11
-4.12614e-11
-4.12425e-11
-4.12233e-11
-4.12037e-11
-4.11839e-11
-4.11635e-11
-4.11429e-11
-4.11219e-11
-4.11005e-11
-4.10787e-11
-4.10565e-11
-4.1034e-11
-4.10111e-11
-4.09878e-11
-4.0964e-11
-4.09399e-11
-4.09155e-11
-4.08905e-11
-4.08653e-11
-4.08395e-11
-4.08133e-11
-4.07865e-11
-4.07592e-11
-4.07313e-11
-4.07025e-11
-4.06732e-11
-4.06431e-11
-4.06122e-11
-4.05808e-11
-4.05489e-11
-4.05167e-11
-4.04844e-11
-4.04522e-11
-4.04205e-11
-4.03895e-11
-4.03588e-11
-4.03289e-11
-4.02992e-11
-4.02693e-11
-4.02385e-11
-4.02059e-11
-4.01698e-11
-4.01289e-11
-4.00803e-11
-4.00212e-11
-3.99488e-11
-3.98605e-11
-3.97576e-11
-3.96468e-11
-3.95418e-11
-3.94581e-11
-3.94051e-11
-3.93809e-11
-3.93763e-11
-3.9382e-11
-3.93925e-11
-3.94048e-11
-3.94176e-11
-3.94312e-11
-3.94451e-11
-3.94594e-11
-3.94739e-11
-3.94887e-11
-3.95039e-11
-3.95195e-11
-3.95354e-11
-3.95517e-11
-3.95686e-11
-3.95858e-11
-3.96036e-11
-3.96217e-11
-3.96402e-11
-3.96592e-11
-3.96785e-11
-3.96983e-11
-3.97185e-11
-3.97391e-11
-3.97602e-11
-3.97819e-11
-3.9804e-11
-3.98267e-11
-3.98499e-11
-3.98737e-11
-3.98981e-11
-3.9923e-11
)
;
    }
    inandouthalf12
    {
        type            cyclic;
        value           nonuniform List<scalar> 
100
(
4.17353e-11
4.15163e-11
4.14513e-11
4.14557e-11
4.14503e-11
4.14339e-11
4.14167e-11
4.14004e-11
4.1384e-11
4.13674e-11
4.13507e-11
4.13336e-11
4.13161e-11
4.12982e-11
4.12799e-11
4.12614e-11
4.12425e-11
4.12233e-11
4.12037e-11
4.11839e-11
4.11635e-11
4.11429e-11
4.11219e-11
4.11005e-11
4.10787e-11
4.10565e-11
4.1034e-11
4.10111e-11
4.09878e-11
4.0964e-11
4.09399e-11
4.09155e-11
4.08905e-11
4.08653e-11
4.08395e-11
4.08133e-11
4.07865e-11
4.07592e-11
4.07313e-11
4.07025e-11
4.06732e-11
4.06431e-11
4.06122e-11
4.05808e-11
4.05489e-11
4.05167e-11
4.04844e-11
4.04522e-11
4.04205e-11
4.03895e-11
4.03588e-11
4.03289e-11
4.02992e-11
4.02693e-11
4.02385e-11
4.02059e-11
4.01698e-11
4.01289e-11
4.00803e-11
4.00212e-11
3.99488e-11
3.98605e-11
3.97576e-11
3.96468e-11
3.95418e-11
3.94581e-11
3.94051e-11
3.93809e-11
3.93763e-11
3.9382e-11
3.93925e-11
3.94048e-11
3.94176e-11
3.94312e-11
3.94451e-11
3.94594e-11
3.94739e-11
3.94887e-11
3.95039e-11
3.95195e-11
3.95354e-11
3.95517e-11
3.95686e-11
3.95858e-11
3.96036e-11
3.96217e-11
3.96402e-11
3.96592e-11
3.96785e-11
3.96983e-11
3.97185e-11
3.97391e-11
3.97602e-11
3.97819e-11
3.9804e-11
3.98267e-11
3.98499e-11
3.98737e-11
3.98981e-11
3.9923e-11
)
;
    }
    inandouthalf21
    {
        type            cyclic;
        value           nonuniform List<scalar> 
100
(
-3.99485e-11
-3.99747e-11
-4.00015e-11
-4.00289e-11
-4.00571e-11
-4.0086e-11
-4.01156e-11
-4.0146e-11
-4.01773e-11
-4.02094e-11
-4.02423e-11
-4.02762e-11
-4.03111e-11
-4.0347e-11
-4.0384e-11
-4.0422e-11
-4.04612e-11
-4.05017e-11
-4.05434e-11
-4.05864e-11
-4.06309e-11
-4.06768e-11
-4.07242e-11
-4.07732e-11
-4.0824e-11
-4.08765e-11
-4.0931e-11
-4.09876e-11
-4.10464e-11
-4.11077e-11
-4.11715e-11
-4.1238e-11
-4.13076e-11
-4.13809e-11
-4.1459e-11
-4.15417e-11
-4.16286e-11
-4.1721e-11
-4.18237e-11
-4.19417e-11
-4.20695e-11
-4.21916e-11
-4.2338e-11
-4.25287e-11
-4.27663e-11
-4.32061e-11
-4.45529e-11
1.49235e-11
2.29528e-08
1.19944e-07
1.96268e-07
2.54034e-07
2.99986e-07
3.37654e-07
3.69272e-07
3.9635e-07
4.19944e-07
4.4081e-07
4.59501e-07
4.76428e-07
4.919e-07
5.06158e-07
5.19389e-07
5.31739e-07
5.43328e-07
5.54254e-07
5.64595e-07
5.74417e-07
5.83777e-07
5.92721e-07
6.0129e-07
6.09517e-07
6.17433e-07
6.25063e-07
6.3243e-07
6.39554e-07
6.46453e-07
6.53143e-07
6.59636e-07
6.65946e-07
6.72083e-07
6.78058e-07
6.8388e-07
6.89556e-07
6.95095e-07
7.00502e-07
7.05784e-07
7.10947e-07
7.15995e-07
7.20933e-07
7.25766e-07
7.30496e-07
7.35128e-07
7.39664e-07
7.44107e-07
7.48461e-07
7.52727e-07
7.56907e-07
7.61004e-07
7.65019e-07
)
;
    }
    inandouthalf22
    {
        type            cyclic;
        value           nonuniform List<scalar> 
100
(
3.99485e-11
3.99747e-11
4.00015e-11
4.00289e-11
4.00571e-11
4.0086e-11
4.01156e-11
4.0146e-11
4.01773e-11
4.02094e-11
4.02423e-11
4.02762e-11
4.03111e-11
4.0347e-11
4.0384e-11
4.0422e-11
4.04612e-11
4.05017e-11
4.05434e-11
4.05864e-11
4.06309e-11
4.06768e-11
4.07242e-11
4.07732e-11
4.0824e-11
4.08765e-11
4.0931e-11
4.09876e-11
4.10464e-11
4.11077e-11
4.11715e-11
4.1238e-11
4.13076e-11
4.13809e-11
4.1459e-11
4.15417e-11
4.16286e-11
4.1721e-11
4.18237e-11
4.19417e-11
4.20695e-11
4.21916e-11
4.2338e-11
4.25287e-11
4.27663e-11
4.32061e-11
4.45529e-11
-1.49235e-11
-2.29528e-08
-1.19944e-07
-1.96268e-07
-2.54034e-07
-2.99986e-07
-3.37654e-07
-3.69272e-07
-3.9635e-07
-4.19944e-07
-4.4081e-07
-4.59501e-07
-4.76428e-07
-4.919e-07
-5.06158e-07
-5.19389e-07
-5.31739e-07
-5.43328e-07
-5.54254e-07
-5.64595e-07
-5.74417e-07
-5.83777e-07
-5.92721e-07
-6.0129e-07
-6.09517e-07
-6.17433e-07
-6.25063e-07
-6.3243e-07
-6.39554e-07
-6.46453e-07
-6.53143e-07
-6.59636e-07
-6.65946e-07
-6.72083e-07
-6.78058e-07
-6.8388e-07
-6.89556e-07
-6.95095e-07
-7.00502e-07
-7.05784e-07
-7.10947e-07
-7.15995e-07
-7.20933e-07
-7.25766e-07
-7.30496e-07
-7.35128e-07
-7.39664e-07
-7.44107e-07
-7.48461e-07
-7.52727e-07
-7.56907e-07
-7.61004e-07
-7.65019e-07
)
;
    }
    inandouthalf31
    {
        type            cyclic;
        value           nonuniform List<scalar> 
110
(
7.68956e-07
7.88536e-07
8.08592e-07
8.29132e-07
8.50164e-07
8.71696e-07
8.93736e-07
9.16292e-07
9.3937e-07
9.62976e-07
9.87116e-07
1.01179e-06
1.03701e-06
1.06277e-06
1.08908e-06
1.11592e-06
1.14331e-06
1.17122e-06
1.19967e-06
1.22863e-06
1.25808e-06
1.28803e-06
1.31844e-06
1.34929e-06
1.38056e-06
1.41222e-06
1.44425e-06
1.47661e-06
1.50928e-06
1.54224e-06
1.57547e-06
1.60896e-06
1.64271e-06
1.67672e-06
1.711e-06
1.74557e-06
1.78044e-06
1.81563e-06
1.85116e-06
1.88706e-06
1.92333e-06
1.96e-06
1.9971e-06
2.03465e-06
2.07268e-06
2.11121e-06
2.15028e-06
2.18993e-06
2.2302e-06
2.27113e-06
2.31279e-06
2.35526e-06
2.39861e-06
2.44299e-06
2.48859e-06
2.53571e-06
2.58553e-06
2.6378e-06
2.69133e-06
2.74596e-06
2.8017e-06
2.85856e-06
2.91658e-06
2.97578e-06
3.03618e-06
3.09781e-06
3.16069e-06
3.22484e-06
3.29029e-06
3.35708e-06
3.42522e-06
3.49474e-06
3.56568e-06
3.63805e-06
3.71189e-06
3.78723e-06
3.8641e-06
3.94253e-06
4.02256e-06
4.1042e-06
4.18751e-06
4.2725e-06
4.35923e-06
4.44771e-06
4.53798e-06
4.63009e-06
4.72407e-06
4.81996e-06
4.91779e-06
5.01761e-06
5.11945e-06
5.22336e-06
5.32938e-06
5.43755e-06
5.54792e-06
5.66053e-06
5.77542e-06
5.89265e-06
6.01225e-06
6.13429e-06
6.2588e-06
6.38583e-06
6.51545e-06
6.6477e-06
6.78263e-06
6.92029e-06
7.06076e-06
7.20407e-06
7.3503e-06
7.49949e-06
)
;
    }
    inandouthalf32
    {
        type            cyclic;
        value           nonuniform List<scalar> 
110
(
-7.68956e-07
-7.88536e-07
-8.08592e-07
-8.29132e-07
-8.50164e-07
-8.71696e-07
-8.93736e-07
-9.16292e-07
-9.3937e-07
-9.62976e-07
-9.87116e-07
-1.01179e-06
-1.03701e-06
-1.06277e-06
-1.08908e-06
-1.11592e-06
-1.14331e-06
-1.17122e-06
-1.19967e-06
-1.22863e-06
-1.25808e-06
-1.28803e-06
-1.31844e-06
-1.34929e-06
-1.38056e-06
-1.41222e-06
-1.44425e-06
-1.47661e-06
-1.50928e-06
-1.54224e-06
-1.57547e-06
-1.60896e-06
-1.64271e-06
-1.67672e-06
-1.711e-06
-1.74557e-06
-1.78044e-06
-1.81563e-06
-1.85116e-06
-1.88706e-06
-1.92333e-06
-1.96e-06
-1.9971e-06
-2.03465e-06
-2.07268e-06
-2.11121e-06
-2.15028e-06
-2.18993e-06
-2.2302e-06
-2.27113e-06
-2.31279e-06
-2.35526e-06
-2.39861e-06
-2.44299e-06
-2.48859e-06
-2.53571e-06
-2.58553e-06
-2.6378e-06
-2.69133e-06
-2.74596e-06
-2.8017e-06
-2.85856e-06
-2.91658e-06
-2.97578e-06
-3.03618e-06
-3.09781e-06
-3.16069e-06
-3.22484e-06
-3.29029e-06
-3.35708e-06
-3.42522e-06
-3.49474e-06
-3.56568e-06
-3.63805e-06
-3.71189e-06
-3.78723e-06
-3.8641e-06
-3.94253e-06
-4.02256e-06
-4.1042e-06
-4.18751e-06
-4.2725e-06
-4.35923e-06
-4.44771e-06
-4.53798e-06
-4.63009e-06
-4.72407e-06
-4.81996e-06
-4.91779e-06
-5.01761e-06
-5.11945e-06
-5.22336e-06
-5.32938e-06
-5.43755e-06
-5.54792e-06
-5.66053e-06
-5.77542e-06
-5.89265e-06
-6.01225e-06
-6.13429e-06
-6.2588e-06
-6.38583e-06
-6.51545e-06
-6.6477e-06
-6.78263e-06
-6.92029e-06
-7.06076e-06
-7.20407e-06
-7.3503e-06
-7.49949e-06
)
;
    }
    inandouthalf41
    {
        type            cyclic;
        value           nonuniform List<scalar> 
50
(
6.71281e-06
6.71281e-06
6.71281e-06
6.71281e-06
6.71281e-06
6.71281e-06
6.71281e-06
6.71281e-06
6.71281e-06
6.71281e-06
6.71281e-06
6.71281e-06
6.71281e-06
6.71281e-06
6.71281e-06
6.71281e-06
6.71281e-06
6.71281e-06
6.71281e-06
6.71281e-06
6.71281e-06
6.71281e-06
6.71281e-06
6.71281e-06
6.71281e-06
6.71281e-06
6.71281e-06
6.71281e-06
6.71281e-06
6.71281e-06
6.71281e-06
6.71281e-06
6.71281e-06
6.71281e-06
6.71281e-06
6.71281e-06
6.71281e-06
6.71281e-06
6.71281e-06
6.71281e-06
6.71281e-06
6.71281e-06
6.71281e-06
6.71281e-06
6.71281e-06
6.71281e-06
6.71281e-06
6.71281e-06
6.71281e-06
6.71281e-06
)
;
    }
    inandouthalf42
    {
        type            cyclic;
        value           nonuniform List<scalar> 
50
(
-6.71281e-06
-6.71281e-06
-6.71281e-06
-6.71281e-06
-6.71281e-06
-6.71281e-06
-6.71281e-06
-6.71281e-06
-6.71281e-06
-6.71281e-06
-6.71281e-06
-6.71281e-06
-6.71281e-06
-6.71281e-06
-6.71281e-06
-6.71281e-06
-6.71281e-06
-6.71281e-06
-6.71281e-06
-6.71281e-06
-6.71281e-06
-6.71281e-06
-6.71281e-06
-6.71281e-06
-6.71281e-06
-6.71281e-06
-6.71281e-06
-6.71281e-06
-6.71281e-06
-6.71281e-06
-6.71281e-06
-6.71281e-06
-6.71281e-06
-6.71281e-06
-6.71281e-06
-6.71281e-06
-6.71281e-06
-6.71281e-06
-6.71281e-06
-6.71281e-06
-6.71281e-06
-6.71281e-06
-6.71281e-06
-6.71281e-06
-6.71281e-06
-6.71281e-06
-6.71281e-06
-6.71281e-06
-6.71281e-06
-6.71281e-06
)
;
    }
    top
    {
        type            symmetryPlane;
        value           uniform 0;
    }
    walls
    {
        type            fixedValue;
        value           uniform 0;
    }
    frontAndBackPlanes
    {
        type            empty;
        value           nonuniform 0();
    }
}


// ************************************************************************* //
