/*--------------------------------*- C++ -*----------------------------------*\
| =========                 |                                                 |
| \\      /  F ield         | OpenFOAM: The Open Source CFD Toolbox           |
|  \\    /   O peration     | Version:  2.4.x                                 |
|   \\  /    A nd           | Web:      www.OpenFOAM.org                      |
|    \\/     M anipulation  |                                                 |
\*---------------------------------------------------------------------------*/
FoamFile
{
    version     2.0;
    format      ascii;
    class       volScalarField;
    location    "6.3";
    object      Theta_0;
}
// * * * * * * * * * * * * * * * * * * * * * * * * * * * * * * * * * * * * * //

dimensions      [0 2 -2 0 0 0 0];

internalField   nonuniform List<scalar> 
360
(
6.66502e-21
6.67369e-21
6.67011e-21
6.66896e-21
6.6695e-21
6.66999e-21
6.67017e-21
6.67024e-21
6.67031e-21
6.67041e-21
6.67054e-21
6.67068e-21
6.67082e-21
6.67095e-21
6.67107e-21
6.6712e-21
6.67133e-21
6.67146e-21
6.6716e-21
6.67173e-21
6.67187e-21
6.672e-21
6.67214e-21
6.67228e-21
6.67242e-21
6.67256e-21
6.67269e-21
6.67283e-21
6.67295e-21
6.67308e-21
6.6732e-21
6.67332e-21
6.67346e-21
6.6736e-21
6.67377e-21
6.67396e-21
6.67418e-21
6.67444e-21
6.67474e-21
6.67506e-21
6.6754e-21
6.67571e-21
6.67598e-21
6.67616e-21
6.67622e-21
6.67612e-21
6.67584e-21
6.67538e-21
6.67482e-21
6.67422e-21
6.67363e-21
6.67317e-21
6.67294e-21
6.67305e-21
6.67368e-21
6.67504e-21
6.6775e-21
6.68166e-21
6.68843e-21
6.69899e-21
6.71425e-21
6.73277e-21
6.74795e-21
6.74849e-21
6.72863e-21
6.69873e-21
6.67567e-21
6.66507e-21
6.66201e-21
6.66143e-21
6.66135e-21
6.66134e-21
6.66134e-21
6.66134e-21
6.66134e-21
6.66134e-21
6.66134e-21
6.66134e-21
6.66133e-21
6.66133e-21
6.66133e-21
6.66133e-21
6.66133e-21
6.66133e-21
6.66133e-21
6.66133e-21
6.66133e-21
6.66132e-21
6.66132e-21
6.66132e-21
6.66132e-21
6.66132e-21
6.66132e-21
6.66132e-21
6.66132e-21
6.66131e-21
6.66131e-21
6.66131e-21
6.66131e-21
6.66131e-21
6.66131e-21
6.66131e-21
6.6613e-21
6.6613e-21
6.6613e-21
6.6613e-21
6.6613e-21
6.66129e-21
6.66129e-21
6.66129e-21
6.66129e-21
6.66129e-21
6.66128e-21
6.66128e-21
6.66128e-21
6.66128e-21
6.66127e-21
6.66127e-21
6.66127e-21
6.66127e-21
6.66126e-21
6.66126e-21
6.66126e-21
6.66126e-21
6.66125e-21
6.66125e-21
6.66125e-21
6.66124e-21
6.66124e-21
6.66123e-21
6.66123e-21
6.66124e-21
8.84223e-21
3.66287e-20
1.84799e-19
1.00855e-18
5.96567e-18
3.86874e-17
2.79114e-16
2.27549e-15
2.12742e-14
2.31548e-13
2.9893e-12
4.66255e-11
9.14086e-10
3.35978e-08
1.89891e-06
4.0781e-05
0.000532237
0.00184686
0.00264298
0.00312352
0.00348284
0.00378171
0.00403866
0.00425996
0.00444906
0.00460917
0.00474358
0.0048555
0.0049479
0.00502338
0.00508419
0.00513225
0.0051692
0.00519638
0.00521494
0.00522585
0.00522992
0.00522785
0.00522025
0.00520762
0.00519043
0.00516907
0.00514391
0.00511525
0.00508339
0.0050486
0.00501111
0.00497115
0.00492894
0.00488467
0.00483853
0.00479069
0.00474133
0.00469061
0.00463867
0.00458566
0.00453173
0.00447699
0.00442159
0.00436562
0.00430922
0.00425248
0.0041955
0.00413836
0.00408116
0.00402397
0.00396685
0.00390986
0.00385305
0.00379588
0.00373781
0.00367885
0.00361901
0.00355828
0.00349664
0.00343407
0.00337049
0.00330586
0.00324007
0.00317303
0.00310463
0.00303472
0.00296317
0.00288983
0.00281454
0.00273711
0.00265735
0.00257507
0.00249004
0.00240201
0.0023107
0.00221581
0.00211697
0.00201378
0.00190575
0.0017923
0.00167272
0.0015461
0.00141127
0.00126663
0.00110988
0.000937424
0.000742988
0.000512904
0
0
0
0
0
0
0
0
0
0
0
0
0
0
0
0
0
0
0
0
0
0
0
0
0
0
0
0
0
0
0
0
0
0
0
0
0
0
0
0
0
0
0
0
0
0
0
0
0
0
0
0
0
0
0
0
0
0
0
0
0
0
0
0
0
0
0
0
0
0
0
0
0
0
0
0
0
0
0
0
0
0
0
0
0
0
0
0
0
0
0
0
0
0
0
0
0
0
0
0
0
0
0
0
0
0
0
0
0
0
0
0
0
0
0
0
0
0
0
0
0
0
0
0
)
;

boundaryField
{
    inandouthalf11
    {
        type            cyclic;
    }
    inandouthalf12
    {
        type            cyclic;
    }
    inandouthalf21
    {
        type            cyclic;
    }
    inandouthalf22
    {
        type            cyclic;
    }
    inandouthalf31
    {
        type            cyclic;
    }
    inandouthalf32
    {
        type            cyclic;
    }
    inandouthalf41
    {
        type            cyclic;
    }
    inandouthalf42
    {
        type            cyclic;
    }
    top
    {
        type            symmetryPlane;
    }
    walls
    {
        type            zeroGradient;
    }
    frontAndBackPlanes
    {
        type            empty;
    }
}


// ************************************************************************* //
