/*--------------------------------*- C++ -*----------------------------------*\
| =========                 |                                                 |
| \\      /  F ield         | OpenFOAM: The Open Source CFD Toolbox           |
|  \\    /   O peration     | Version:  2.4.x                                 |
|   \\  /    A nd           | Web:      www.OpenFOAM.org                      |
|    \\/     M anipulation  |                                                 |
\*---------------------------------------------------------------------------*/
FoamFile
{
    version     2.0;
    format      ascii;
    class       volVectorField;
    location    "6.3";
    object      Ua_0;
}
// * * * * * * * * * * * * * * * * * * * * * * * * * * * * * * * * * * * * * //

dimensions      [0 1 -1 0 0 0 0];

internalField   nonuniform List<vector> 
360
(
(-9.13467e-33 -9.49118e-32 0)
(-2.23014e-08 -1.63967e-07 0)
(-4.72232e-08 -3.00291e-07 0)
(-6.93595e-08 -4.1633e-07 0)
(-9.15418e-08 -5.35388e-07 0)
(-1.14725e-07 -6.59771e-07 0)
(-1.38559e-07 -7.86116e-07 0)
(-1.62758e-07 -9.13002e-07 0)
(-1.87265e-07 -1.04031e-06 0)
(-2.12111e-07 -1.16822e-06 0)
(-2.37342e-07 -1.29699e-06 0)
(-2.62987e-07 -1.42675e-06 0)
(-2.89052e-07 -1.55748e-06 0)
(-3.1553e-07 -1.68913e-06 0)
(-3.42416e-07 -1.82162e-06 0)
(-3.69713e-07 -1.95495e-06 0)
(-3.9743e-07 -2.08916e-06 0)
(-4.25574e-07 -2.22425e-06 0)
(-4.54152e-07 -2.36022e-06 0)
(-4.83171e-07 -2.49709e-06 0)
(-5.12636e-07 -2.63485e-06 0)
(-5.42552e-07 -2.77349e-06 0)
(-5.72927e-07 -2.91303e-06 0)
(-6.03768e-07 -3.05348e-06 0)
(-6.35079e-07 -3.19482e-06 0)
(-6.66864e-07 -3.33704e-06 0)
(-6.99122e-07 -3.4801e-06 0)
(-7.31856e-07 -3.624e-06 0)
(-7.65069e-07 -3.76871e-06 0)
(-7.98759e-07 -3.9142e-06 0)
(-8.32926e-07 -4.06043e-06 0)
(-8.67578e-07 -4.20741e-06 0)
(-9.02726e-07 -4.35515e-06 0)
(-9.38393e-07 -4.50371e-06 0)
(-9.74612e-07 -4.65321e-06 0)
(-1.01142e-06 -4.80375e-06 0)
(-1.04887e-06 -4.95549e-06 0)
(-1.08701e-06 -5.10865e-06 0)
(-1.12593e-06 -5.26347e-06 0)
(-1.16566e-06 -5.42008e-06 0)
(-1.20624e-06 -5.57856e-06 0)
(-1.24769e-06 -5.73894e-06 0)
(-1.28995e-06 -5.90096e-06 0)
(-1.33295e-06 -6.06426e-06 0)
(-1.37655e-06 -6.22829e-06 0)
(-1.42054e-06 -6.3922e-06 0)
(-1.46467e-06 -6.55505e-06 0)
(-1.50866e-06 -6.71577e-06 0)
(-1.55227e-06 -6.87349e-06 0)
(-1.59537e-06 -7.02772e-06 0)
(-1.63789e-06 -7.17827e-06 0)
(-1.67991e-06 -7.32543e-06 0)
(-1.72173e-06 -7.47023e-06 0)
(-1.76385e-06 -7.61442e-06 0)
(-1.80704e-06 -7.76055e-06 0)
(-1.85237e-06 -7.91223e-06 0)
(-1.90133e-06 -8.07421e-06 0)
(-1.95588e-06 -8.25273e-06 0)
(-2.01855e-06 -8.45581e-06 0)
(-2.09242e-06 -8.69303e-06 0)
(-2.18077e-06 -8.97464e-06 0)
(-2.28587e-06 -9.30769e-06 0)
(-2.40659e-06 -9.68858e-06 0)
(-2.53553e-06 -1.00939e-05 0)
(-2.65827e-06 -1.04781e-05 0)
(-2.75836e-06 -1.07892e-05 0)
(-2.82618e-06 -1.09977e-05 0)
(-2.86376e-06 -1.11116e-05 0)
(-2.88078e-06 -1.11624e-05 0)
(-2.8872e-06 -1.11811e-05 0)
(-2.88927e-06 -1.11871e-05 0)
(-2.88986e-06 -1.11887e-05 0)
(-2.89002e-06 -1.11892e-05 0)
(-2.89007e-06 -1.11893e-05 0)
(-2.89008e-06 -1.11893e-05 0)
(-2.89008e-06 -1.11893e-05 0)
(-2.89008e-06 -1.11893e-05 0)
(-2.89008e-06 -1.11893e-05 0)
(-2.89008e-06 -1.11893e-05 0)
(-2.89008e-06 -1.11893e-05 0)
(-2.89008e-06 -1.11893e-05 0)
(-2.89008e-06 -1.11893e-05 0)
(-2.89008e-06 -1.11893e-05 0)
(-2.89008e-06 -1.11893e-05 0)
(-2.89008e-06 -1.11893e-05 0)
(-2.89008e-06 -1.11893e-05 0)
(-2.89008e-06 -1.11893e-05 0)
(-2.89008e-06 -1.11893e-05 0)
(-2.89008e-06 -1.11893e-05 0)
(-2.89008e-06 -1.11893e-05 0)
(-2.89008e-06 -1.11893e-05 0)
(-2.89008e-06 -1.11893e-05 0)
(-2.89008e-06 -1.11893e-05 0)
(-2.89008e-06 -1.11893e-05 0)
(-2.89008e-06 -1.11893e-05 0)
(-2.89008e-06 -1.11893e-05 0)
(-2.89008e-06 -1.11893e-05 0)
(-2.89008e-06 -1.11893e-05 0)
(-2.89008e-06 -1.11893e-05 0)
(-2.89008e-06 -1.11893e-05 0)
(-2.89008e-06 -1.11893e-05 0)
(-2.89008e-06 -1.11893e-05 0)
(-2.89008e-06 -1.11893e-05 0)
(-2.89008e-06 -1.11893e-05 0)
(-2.89008e-06 -1.11893e-05 0)
(-2.89008e-06 -1.11893e-05 0)
(-2.89008e-06 -1.11893e-05 0)
(-2.89008e-06 -1.11893e-05 0)
(-2.89008e-06 -1.11893e-05 0)
(-2.89008e-06 -1.11893e-05 0)
(-2.89008e-06 -1.11893e-05 0)
(-2.89008e-06 -1.11893e-05 0)
(-2.89008e-06 -1.11893e-05 0)
(-2.89008e-06 -1.11893e-05 0)
(-2.89009e-06 -1.11893e-05 0)
(-2.89009e-06 -1.11893e-05 0)
(-2.89009e-06 -1.11893e-05 0)
(-2.89009e-06 -1.11893e-05 0)
(-2.89009e-06 -1.11893e-05 0)
(-2.89009e-06 -1.11893e-05 0)
(-2.89009e-06 -1.11893e-05 0)
(-2.89009e-06 -1.11893e-05 0)
(-2.89009e-06 -1.11893e-05 0)
(-2.89009e-06 -1.11893e-05 0)
(-2.89009e-06 -1.11893e-05 0)
(-2.89009e-06 -1.11893e-05 0)
(-2.89009e-06 -1.11893e-05 0)
(-2.89009e-06 -1.11893e-05 0)
(-2.89009e-06 -1.11893e-05 0)
(-2.89009e-06 -1.11893e-05 0)
(-2.89009e-06 -1.11893e-05 0)
(-2.89009e-06 -1.11893e-05 0)
(-2.89009e-06 -1.11893e-05 0)
(-2.89009e-06 -1.11893e-05 0)
(-2.89009e-06 -1.11893e-05 0)
(-2.89009e-06 -1.11893e-05 0)
(-2.89009e-06 -1.11893e-05 0)
(-2.89009e-06 -1.11893e-05 0)
(-2.89009e-06 -1.11893e-05 0)
(-2.89009e-06 -1.11893e-05 0)
(-2.89009e-06 -1.11893e-05 0)
(-2.89009e-06 -1.11893e-05 0)
(-2.89009e-06 -1.11893e-05 0)
(-2.89009e-06 -1.11893e-05 0)
(-2.89009e-06 -1.11893e-05 0)
(-2.89009e-06 -1.11893e-05 0)
(-2.89009e-06 -1.11893e-05 0)
(-2.89009e-06 -1.11893e-05 0)
(-0.019718 -6.87244e-05 0)
(-0.109959 -0.000640907 0)
(-0.188404 -0.000855149 0)
(-0.248085 -0.00102323 0)
(-0.295235 -0.00117483 0)
(-0.333631 -0.00131115 0)
(-0.365664 -0.00143123 0)
(-0.392946 -0.00153485 0)
(-0.416599 -0.00162195 0)
(-0.437426 -0.00169267 0)
(-0.456006 -0.00174753 0)
(-0.47277 -0.00178725 0)
(-0.488038 -0.00181271 0)
(-0.502056 -0.00182484 0)
(-0.515016 -0.0018245 0)
(-0.527067 -0.00181253 0)
(-0.53833 -0.00178969 0)
(-0.548902 -0.00175667 0)
(-0.558863 -0.00171409 0)
(-0.568277 -0.00166251 0)
(-0.577201 -0.00160244 0)
(-0.585679 -0.00153432 0)
(-0.593752 -0.00145855 0)
(-0.601451 -0.00137552 0)
(-0.608806 -0.00128555 0)
(-0.61584 -0.00118895 0)
(-0.622576 -0.001086 0)
(-0.62903 -0.00097697 0)
(-0.63522 -0.000862095 0)
(-0.64116 -0.000741605 0)
(-0.646861 -0.000615717 0)
(-0.652334 -0.000484634 0)
(-0.657591 -0.000348549 0)
(-0.662638 -0.000207649 0)
(-0.667483 -6.21095e-05 0)
(-0.672135 8.78967e-05 0)
(-0.676598 0.000242203 0)
(-0.680879 0.000400648 0)
(-0.684983 0.000563072 0)
(-0.688914 0.000729317 0)
(-0.692677 0.000899223 0)
(-0.696276 0.00107263 0)
(-0.699715 0.00124934 0)
(-0.702997 0.00142916 0)
(-0.706126 0.00161181 0)
(-0.709105 0.00179694 0)
(-0.711937 0.00198409 0)
(-0.714625 0.00217266 0)
(-0.717172 0.00236192 0)
(-0.719581 0.0025509 0)
(-0.721856 0.00273852 0)
(-0.723999 0.00292358 0)
(-0.726015 0.00310497 0)
(-0.727926 0.0032836 0)
(-0.729749 0.00346016 0)
(-0.731485 0.00363342 0)
(-0.733131 0.00380206 0)
(-0.734687 0.0039643 0)
(-0.736156 0.00411794 0)
(-0.737538 0.00426086 0)
(-0.738837 0.00439129 0)
(-0.740057 0.00450791 0)
(-0.741204 0.00461013 0)
(-0.742284 0.00469794 0)
(-0.743304 0.00477201 0)
(-0.744269 0.00483333 0)
(-0.745188 0.00488296 0)
(-0.746067 0.00492218 0)
(-0.746912 0.00495223 0)
(-0.74773 0.00497415 0)
(-0.748525 0.0049889 0)
(-0.749302 0.00499735 0)
(-0.750066 0.0050002 0)
(-0.750822 0.00499785 0)
(-0.751571 0.00499067 0)
(-0.752317 0.00497903 0)
(-0.753063 0.00496303 0)
(-0.75381 0.00494271 0)
(-0.754558 0.00491816 0)
(-0.755309 0.00488926 0)
(-0.756061 0.00485582 0)
(-0.756814 0.0048172 0)
(-0.757565 0.00477302 0)
(-0.75831 0.00472135 0)
(-0.759043 0.00466108 0)
(-0.75976 0.00458623 0)
(-0.760432 0.00449998 0)
(-0.761067 0.00437347 0)
(-0.761887 0.00415971 0)
(-0.862776 5.29732e-05 0)
(-0.863982 0.00107735 0)
(-0.863134 0.00328466 0)
(-0.862 -0.00251557 0)
(-0.860483 -0.0341906 0)
(-0.85939 -0.0396108 0)
(-0.857987 -0.0395719 0)
(-0.856628 -0.0395756 0)
(-0.855179 -0.0395759 0)
(-0.853667 -0.0395766 0)
(-0.852104 -0.0395775 0)
(-0.850506 -0.0395782 0)
(-0.848888 -0.0395789 0)
(-0.84727 -0.0395792 0)
(-0.845672 -0.0395791 0)
(-0.844126 -0.0395784 0)
(-0.842668 -0.0395765 0)
(-0.841346 -0.0395726 0)
(-0.840332 -0.0395636 0)
(-0.839928 -0.0395535 0)
(-0.839881 -0.0395489 0)
(-0.83988 -0.0395484 0)
(-0.83988 -0.0395484 0)
(-0.83988 -0.0395484 0)
(-0.839879 -0.0395484 0)
(-0.839879 -0.0395484 0)
(-0.839879 -0.0395484 0)
(-0.839879 -0.0395484 0)
(-0.839879 -0.0395484 0)
(-0.839879 -0.0395484 0)
(-0.839879 -0.0395484 0)
(-0.839879 -0.0395484 0)
(-0.839879 -0.0395484 0)
(-0.839879 -0.0395484 0)
(-0.839879 -0.0395484 0)
(-0.839879 -0.0395484 0)
(-0.839879 -0.0395484 0)
(-0.839879 -0.0395484 0)
(-0.839879 -0.0395484 0)
(-0.839879 -0.0395484 0)
(-0.839879 -0.0395484 0)
(-0.839879 -0.0395484 0)
(-0.839879 -0.0395484 0)
(-0.839879 -0.0395484 0)
(-0.839879 -0.0395484 0)
(-0.839879 -0.0395484 0)
(-0.839879 -0.0395484 0)
(-0.839879 -0.0395484 0)
(-0.839879 -0.0395484 0)
(-0.839879 -0.0395484 0)
(-0.839879 -0.0395484 0)
(-0.839879 -0.0395484 0)
(-0.839879 -0.0395484 0)
(-0.839879 -0.0395484 0)
(-0.839879 -0.0395484 0)
(-0.839879 -0.0395484 0)
(-0.839879 -0.0395484 0)
(-0.839879 -0.0395484 0)
(-0.839879 -0.0395484 0)
(-0.839879 -0.0395484 0)
(-0.839879 -0.0395484 0)
(-0.839879 -0.0395484 0)
(-0.839879 -0.0395484 0)
(-0.839879 -0.0395484 0)
(-0.839879 -0.0395484 0)
(-0.839879 -0.0395484 0)
(-0.839879 -0.0395484 0)
(-0.839879 -0.0395484 0)
(-0.839879 -0.0395484 0)
(-0.839879 -0.0395484 0)
(-0.839879 -0.0395484 0)
(-0.839879 -0.0395484 0)
(-0.839879 -0.0395484 0)
(-0.839879 -0.0395484 0)
(-0.839879 -0.0395484 0)
(-0.839879 -0.0395484 0)
(-0.839879 -0.0395484 0)
(-0.839879 -0.0395484 0)
(-0.839879 -0.0395484 0)
(-0.839879 -0.0395484 0)
(-0.839879 -0.0395484 0)
(-0.839879 -0.0395484 0)
(-0.839879 -0.0395484 0)
(-0.839879 -0.0395484 0)
(-0.839879 -0.0395484 0)
(-0.839879 -0.0395484 0)
(-0.839879 -0.0395484 0)
(-0.839879 -0.0395484 0)
(-0.839879 -0.0395484 0)
(-0.839879 -0.0395484 0)
(-0.839879 -0.0395484 0)
(-0.839879 -0.0395484 0)
(-0.839879 -0.0395484 0)
(-0.839879 -0.0395484 0)
(-0.839879 -0.0395484 0)
(-0.839879 -0.0395484 0)
(-0.839879 -0.0395484 0)
(-0.839879 -0.0395484 0)
(-0.839879 -0.0395484 0)
(-0.839879 -0.0395484 0)
(-0.839879 -0.0395484 0)
(-0.839879 -0.0395484 0)
(-0.839879 -0.0395484 0)
(-0.839879 -0.0395484 0)
(-0.839879 -0.0395484 0)
(-0.839879 -0.0395484 0)
(-0.839879 -0.0395484 0)
(-0.839879 -0.0395484 0)
(-0.839879 -0.0395484 0)
(-0.839879 -0.0395484 0)
(-0.839879 -0.0395484 0)
(-0.839879 -0.0395484 0)
(-0.839879 -0.0395484 0)
(-0.839879 -0.0395484 0)
(-0.839879 -0.0395484 0)
(-0.839879 -0.0395484 0)
(-0.839879 -0.0395484 0)
(-0.839879 -0.0395484 0)
(-0.839879 -0.0395484 0)
(-0.839879 -0.0395481 0)
(-0.839879 -0.0395397 0)
(-0.839885 -0.0391951 0)
(-0.840008 -0.0224969 0)
)
;

boundaryField
{
    inandouthalf11
    {
        type            cyclic;
    }
    inandouthalf12
    {
        type            cyclic;
    }
    inandouthalf21
    {
        type            cyclic;
    }
    inandouthalf22
    {
        type            cyclic;
    }
    inandouthalf31
    {
        type            cyclic;
    }
    inandouthalf32
    {
        type            cyclic;
    }
    inandouthalf41
    {
        type            cyclic;
    }
    inandouthalf42
    {
        type            cyclic;
    }
    top
    {
        type            symmetryPlane;
    }
    walls
    {
        type            fixedValue;
        value           uniform (0 0 0);
    }
    frontAndBackPlanes
    {
        type            empty;
    }
}


// ************************************************************************* //
