/*--------------------------------*- C++ -*----------------------------------*\
| =========                 |                                                 |
| \\      /  F ield         | OpenFOAM: The Open Source CFD Toolbox           |
|  \\    /   O peration     | Version:  2.4.x                                 |
|   \\  /    A nd           | Web:      www.OpenFOAM.org                      |
|    \\/     M anipulation  |                                                 |
\*---------------------------------------------------------------------------*/
FoamFile
{
    version     2.0;
    format      ascii;
    class       volVectorField;
    location    "6.3";
    object      Ub_0;
}
// * * * * * * * * * * * * * * * * * * * * * * * * * * * * * * * * * * * * * //

dimensions      [0 1 -1 0 0 0 0];

internalField   nonuniform List<vector> 
360
(
(4.17353e-05 6.74605e-08 0)
(4.15163e-05 2.46741e-07 0)
(4.14513e-05 4.5966e-07 0)
(4.14557e-05 6.54685e-07 0)
(4.14503e-05 8.44919e-07 0)
(4.14339e-05 1.03922e-06 0)
(4.14167e-05 1.23711e-06 0)
(4.14004e-05 1.43656e-06 0)
(4.1384e-05 1.63678e-06 0)
(4.13674e-05 1.83791e-06 0)
(4.13507e-05 2.04032e-06 0)
(4.13336e-05 2.24418e-06 0)
(4.13161e-05 2.4495e-06 0)
(4.12982e-05 2.65622e-06 0)
(4.12799e-05 2.86424e-06 0)
(4.12614e-05 3.07355e-06 0)
(4.12425e-05 3.28418e-06 0)
(4.12233e-05 3.49615e-06 0)
(4.12037e-05 3.70945e-06 0)
(4.11839e-05 3.92412e-06 0)
(4.11635e-05 4.14012e-06 0)
(4.11429e-05 4.35747e-06 0)
(4.11219e-05 4.57618e-06 0)
(4.11005e-05 4.79625e-06 0)
(4.10787e-05 5.01766e-06 0)
(4.10565e-05 5.2404e-06 0)
(4.1034e-05 5.4644e-06 0)
(4.10111e-05 5.68965e-06 0)
(4.09878e-05 5.91613e-06 0)
(4.0964e-05 6.14375e-06 0)
(4.09399e-05 6.37249e-06 0)
(4.09155e-05 6.60236e-06 0)
(4.08905e-05 6.83335e-06 0)
(4.08653e-05 7.06562e-06 0)
(4.08395e-05 7.29926e-06 0)
(4.08133e-05 7.53451e-06 0)
(4.07865e-05 7.77158e-06 0)
(4.07592e-05 8.01081e-06 0)
(4.07313e-05 8.25256e-06 0)
(4.07025e-05 8.49696e-06 0)
(4.06732e-05 8.74423e-06 0)
(4.06431e-05 8.9943e-06 0)
(4.06122e-05 9.24677e-06 0)
(4.05808e-05 9.50114e-06 0)
(4.05489e-05 9.75643e-06 0)
(4.05167e-05 1.00114e-05 0)
(4.04844e-05 1.02646e-05 0)
(4.04522e-05 1.05145e-05 0)
(4.04205e-05 1.07597e-05 0)
(4.03895e-05 1.09996e-05 0)
(4.03588e-05 1.12337e-05 0)
(4.03289e-05 1.14628e-05 0)
(4.02992e-05 1.16884e-05 0)
(4.02693e-05 1.19133e-05 0)
(4.02385e-05 1.21414e-05 0)
(4.02059e-05 1.23787e-05 0)
(4.01698e-05 1.26325e-05 0)
(4.01289e-05 1.29127e-05 0)
(4.00803e-05 1.32317e-05 0)
(4.00212e-05 1.3604e-05 0)
(3.99488e-05 1.40442e-05 0)
(3.98605e-05 1.45603e-05 0)
(3.97576e-05 1.51431e-05 0)
(3.96468e-05 1.57552e-05 0)
(3.95418e-05 1.63317e-05 0)
(3.94581e-05 1.68029e-05 0)
(3.94051e-05 1.71286e-05 0)
(3.93809e-05 1.73158e-05 0)
(3.93763e-05 1.74044e-05 0)
(3.9382e-05 1.74385e-05 0)
(3.93925e-05 1.74485e-05 0)
(3.94048e-05 1.74497e-05 0)
(3.94176e-05 1.7448e-05 0)
(3.94312e-05 1.74455e-05 0)
(3.94451e-05 1.74426e-05 0)
(3.94594e-05 1.74398e-05 0)
(3.94739e-05 1.74368e-05 0)
(3.94887e-05 1.74337e-05 0)
(3.95039e-05 1.74306e-05 0)
(3.95195e-05 1.74274e-05 0)
(3.95354e-05 1.74241e-05 0)
(3.95517e-05 1.74207e-05 0)
(3.95686e-05 1.74173e-05 0)
(3.95858e-05 1.74137e-05 0)
(3.96036e-05 1.74101e-05 0)
(3.96217e-05 1.74064e-05 0)
(3.96402e-05 1.74026e-05 0)
(3.96592e-05 1.73987e-05 0)
(3.96785e-05 1.73948e-05 0)
(3.96983e-05 1.73907e-05 0)
(3.97185e-05 1.73866e-05 0)
(3.97391e-05 1.73824e-05 0)
(3.97602e-05 1.73781e-05 0)
(3.97819e-05 1.73737e-05 0)
(3.9804e-05 1.73691e-05 0)
(3.98267e-05 1.73645e-05 0)
(3.98499e-05 1.73598e-05 0)
(3.98737e-05 1.7355e-05 0)
(3.98981e-05 1.735e-05 0)
(3.9923e-05 1.7345e-05 0)
(3.99485e-05 1.73398e-05 0)
(3.99747e-05 1.73345e-05 0)
(4.00015e-05 1.73291e-05 0)
(4.00289e-05 1.73235e-05 0)
(4.00571e-05 1.73178e-05 0)
(4.0086e-05 1.7312e-05 0)
(4.01156e-05 1.7306e-05 0)
(4.0146e-05 1.72999e-05 0)
(4.01773e-05 1.72936e-05 0)
(4.02094e-05 1.72872e-05 0)
(4.02423e-05 1.72805e-05 0)
(4.02762e-05 1.72737e-05 0)
(4.03111e-05 1.72668e-05 0)
(4.0347e-05 1.72596e-05 0)
(4.0384e-05 1.72522e-05 0)
(4.0422e-05 1.72446e-05 0)
(4.04612e-05 1.72368e-05 0)
(4.05017e-05 1.72287e-05 0)
(4.05434e-05 1.72205e-05 0)
(4.05864e-05 1.72119e-05 0)
(4.06309e-05 1.72031e-05 0)
(4.06768e-05 1.7194e-05 0)
(4.07242e-05 1.71847e-05 0)
(4.07732e-05 1.7175e-05 0)
(4.0824e-05 1.7165e-05 0)
(4.08765e-05 1.71547e-05 0)
(4.0931e-05 1.7144e-05 0)
(4.09876e-05 1.71329e-05 0)
(4.10464e-05 1.71214e-05 0)
(4.11077e-05 1.71094e-05 0)
(4.11715e-05 1.7097e-05 0)
(4.1238e-05 1.7084e-05 0)
(4.13076e-05 1.70705e-05 0)
(4.13809e-05 1.70562e-05 0)
(4.1459e-05 1.70412e-05 0)
(4.15417e-05 1.70254e-05 0)
(4.16286e-05 1.70085e-05 0)
(4.1721e-05 1.69902e-05 0)
(4.18237e-05 1.697e-05 0)
(4.19417e-05 1.69484e-05 0)
(4.20695e-05 1.69265e-05 0)
(4.21916e-05 1.68994e-05 0)
(4.2338e-05 1.68693e-05 0)
(4.25287e-05 1.68336e-05 0)
(4.27663e-05 1.67693e-05 0)
(4.32061e-05 1.65754e-05 0)
(4.45529e-05 1.76224e-05 0)
(-1.49235e-05 6.1493e-06 0)
(-0.0229528 6.55042e-05 0)
(-0.119944 0.000266802 0)
(-0.196268 0.000169511 0)
(-0.254034 0.000165389 0)
(-0.299986 0.000140685 0)
(-0.337654 0.000116566 0)
(-0.369272 9.56664e-05 0)
(-0.39635 7.8203e-05 0)
(-0.419944 6.38617e-05 0)
(-0.44081 5.22118e-05 0)
(-0.459501 4.27929e-05 0)
(-0.476428 3.51786e-05 0)
(-0.4919 2.90074e-05 0)
(-0.506158 2.39861e-05 0)
(-0.519389 1.98825e-05 0)
(-0.531739 1.65133e-05 0)
(-0.543328 1.37348e-05 0)
(-0.554254 1.14336e-05 0)
(-0.564595 9.52017e-06 0)
(-0.574417 7.92349e-06 0)
(-0.583777 6.58681e-06 0)
(-0.592721 5.46461e-06 0)
(-0.60129 4.52014e-06 0)
(-0.609517 3.72359e-06 0)
(-0.617433 3.05062e-06 0)
(-0.625063 2.48131e-06 0)
(-0.63243 1.99923e-06 0)
(-0.639554 1.59079e-06 0)
(-0.646453 1.24469e-06 0)
(-0.653143 9.51512e-07 0)
(-0.659636 7.03364e-07 0)
(-0.665946 4.93614e-07 0)
(-0.672083 3.16667e-07 0)
(-0.678058 1.67795e-07 0)
(-0.68388 4.2982e-08 0)
(-0.689556 -6.11844e-08 0)
(-0.695095 -1.47615e-07 0)
(-0.700502 -2.18797e-07 0)
(-0.705784 -2.76859e-07 0)
(-0.710947 -3.23628e-07 0)
(-0.715995 -3.60675e-07 0)
(-0.720933 -3.89345e-07 0)
(-0.725766 -4.10794e-07 0)
(-0.730496 -4.26003e-07 0)
(-0.735128 -4.35803e-07 0)
(-0.739664 -4.40887e-07 0)
(-0.744107 -4.41827e-07 0)
(-0.748461 -4.3909e-07 0)
(-0.752727 -4.33048e-07 0)
(-0.756907 -4.24006e-07 0)
(-0.761004 -4.12238e-07 0)
(-0.765019 -3.9805e-07 0)
(-0.768953 -3.8181e-07 0)
(-0.772847 -3.63715e-07 0)
(-0.776738 -3.43844e-07 0)
(-0.780624 -3.22425e-07 0)
(-0.784502 -2.99641e-07 0)
(-0.78837 -2.75627e-07 0)
(-0.792223 -2.50628e-07 0)
(-0.796059 -2.25093e-07 0)
(-0.799873 -1.99602e-07 0)
(-0.803662 -1.74793e-07 0)
(-0.807419 -1.51275e-07 0)
(-0.81114 -1.29552e-07 0)
(-0.814819 -1.09957e-07 0)
(-0.818448 -9.26121e-08 0)
(-0.82202 -7.75079e-08 0)
(-0.825527 -6.45513e-08 0)
(-0.82896 -5.35519e-08 0)
(-0.832308 -4.42815e-08 0)
(-0.835561 -3.65233e-08 0)
(-0.838706 -3.00618e-08 0)
(-0.841731 -2.46855e-08 0)
(-0.844622 -2.02168e-08 0)
(-0.847363 -1.65176e-08 0)
(-0.849941 -1.34605e-08 0)
(-0.852338 -1.09338e-08 0)
(-0.854541 -8.85222e-09 0)
(-0.856534 -7.14244e-09 0)
(-0.858304 -5.73928e-09 0)
(-0.859842 -4.589e-09 0)
(-0.861139 -3.64889e-09 0)
(-0.862194 -2.88202e-09 0)
(-0.863005 -2.25724e-09 0)
(-0.863579 -1.74992e-09 0)
(-0.863924 -1.34378e-09 0)
(-0.86405 -1.01644e-09 0)
(-0.863971 -8.41557e-10 0)
(-0.863699 -5.42892e-10 0)
(-0.863249 -1.81571e-10 0)
(-0.862634 -7.87359e-11 0)
(-0.861866 -3.65081e-11 0)
(-0.860958 1.3965e-11 0)
(-0.859921 2.3928e-11 0)
(-0.858767 -8.01743e-12 0)
(-0.857508 -3.72951e-12 0)
(-0.856157 -1.92119e-12 0)
(-0.854724 -1.51755e-12 0)
(-0.853224 -1.87187e-12 0)
(-0.85167 -9.99068e-12 0)
(-0.850075 2.6956e-11 0)
(-0.848457 -6.8766e-11 0)
(-0.846833 1.23638e-10 0)
(-0.845225 -2.08146e-10 0)
(-0.84366 3.08859e-10 0)
(-0.842176 -4.38696e-10 0)
(-0.840827 5.82193e-10 0)
(-0.839705 -7.48077e-10 0)
(-0.839169 9.19383e-10 0)
(-0.839103 -1.10351e-09 0)
(-0.839101 1.28728e-09 0)
(-0.839101 -1.48064e-09 0)
(-0.839101 1.67384e-09 0)
(-0.839101 -1.87638e-09 0)
(-0.839101 2.0797e-09 0)
(-0.839101 -2.29218e-09 0)
(-0.839101 2.5063e-09 0)
(-0.839101 -2.72944e-09 0)
(-0.839101 2.95496e-09 0)
(-0.839101 -3.18943e-09 0)
(-0.839101 3.42691e-09 0)
(-0.839101 -3.67332e-09 0)
(-0.839101 3.92327e-09 0)
(-0.839101 -4.18216e-09 0)
(-0.839101 4.44507e-09 0)
(-0.839101 -4.71695e-09 0)
(-0.839101 4.99327e-09 0)
(-0.839101 -5.27859e-09 0)
(-0.839101 5.56874e-09 0)
(-0.839101 -5.86792e-09 0)
(-0.839101 6.17232e-09 0)
(-0.839101 -6.48574e-09 0)
(-0.839101 6.80477e-09 0)
(-0.839101 -7.13282e-09 0)
(-0.839101 7.46682e-09 0)
(-0.839101 -7.80986e-09 0)
(-0.839101 8.15918e-09 0)
(-0.839101 -8.51753e-09 0)
(-0.839101 8.88248e-09 0)
(-0.839101 -9.25642e-09 0)
(-0.839101 9.63735e-09 0)
(-0.839101 -1.00272e-08 0)
(-0.839101 1.04244e-08 0)
(-0.839101 -1.08304e-08 0)
(-0.839101 1.12441e-08 0)
(-0.839101 -1.16665e-08 0)
(-0.839101 1.2097e-08 0)
(-0.839101 -1.25361e-08 0)
(-0.839101 1.29835e-08 0)
(-0.839101 -1.34396e-08 0)
(-0.839101 1.39041e-08 0)
(-0.839101 -1.43773e-08 0)
(-0.839101 1.48592e-08 0)
(-0.839101 -1.53497e-08 0)
(-0.839101 1.5849e-08 0)
(-0.839101 -1.6357e-08 0)
(-0.839101 1.68737e-08 0)
(-0.839101 -1.73992e-08 0)
(-0.839101 1.79335e-08 0)
(-0.839101 -1.84765e-08 0)
(-0.839101 1.90283e-08 0)
(-0.839101 -1.95887e-08 0)
(-0.839101 1.76951e-08 0)
(-0.839101 -1.78631e-08 0)
(-0.839101 1.80295e-08 0)
(-0.839101 -1.8194e-08 0)
(-0.839101 1.83569e-08 0)
(-0.839101 -1.85177e-08 0)
(-0.839101 1.86769e-08 0)
(-0.839101 -1.8834e-08 0)
(-0.839101 1.89894e-08 0)
(-0.839101 -1.91428e-08 0)
(-0.839101 1.92944e-08 0)
(-0.839101 -1.94438e-08 0)
(-0.839101 1.95915e-08 0)
(-0.839101 -1.9737e-08 0)
(-0.839101 1.98807e-08 0)
(-0.839101 -2.0022e-08 0)
(-0.839101 2.01616e-08 0)
(-0.839101 -2.02988e-08 0)
(-0.839101 2.04341e-08 0)
(-0.839101 -2.05668e-08 0)
(-0.839101 2.06979e-08 0)
(-0.839101 -2.08261e-08 0)
(-0.839101 2.09528e-08 0)
(-0.839101 -2.10762e-08 0)
(-0.839101 2.11984e-08 0)
(-0.839101 -2.13169e-08 0)
(-0.839101 2.14343e-08 0)
(-0.839101 -2.15477e-08 0)
(-0.839101 2.16602e-08 0)
(-0.839101 -2.17683e-08 0)
(-0.839101 2.18754e-08 0)
(-0.839101 -2.19782e-08 0)
(-0.839101 2.20795e-08 0)
(-0.839101 -2.21767e-08 0)
(-0.839101 2.22718e-08 0)
(-0.839101 -2.23631e-08 0)
(-0.839101 2.24517e-08 0)
(-0.839101 -2.25366e-08 0)
(-0.839101 2.26181e-08 0)
(-0.839101 -2.26963e-08 0)
(-0.839101 2.277e-08 0)
(-0.839101 -2.2841e-08 0)
(-0.839101 2.29058e-08 0)
(-0.839101 -2.29688e-08 0)
(-0.839101 2.30235e-08 0)
(-0.839101 -2.30772e-08 0)
(-0.839101 2.31196e-08 0)
(-0.839101 -2.31613e-08 0)
(-0.839101 2.31872e-08 0)
(-0.839101 -2.32102e-08 0)
)
;

boundaryField
{
    inandouthalf11
    {
        type            cyclic;
    }
    inandouthalf12
    {
        type            cyclic;
    }
    inandouthalf21
    {
        type            cyclic;
    }
    inandouthalf22
    {
        type            cyclic;
    }
    inandouthalf31
    {
        type            cyclic;
    }
    inandouthalf32
    {
        type            cyclic;
    }
    inandouthalf41
    {
        type            cyclic;
    }
    inandouthalf42
    {
        type            cyclic;
    }
    top
    {
        type            symmetryPlane;
    }
    walls
    {
        type            fixedValue;
        value           uniform (0 0 0);
    }
    frontAndBackPlanes
    {
        type            empty;
    }
}


// ************************************************************************* //
