/*--------------------------------*- C++ -*----------------------------------*\
| =========                 |                                                 |
| \\      /  F ield         | OpenFOAM: The Open Source CFD Toolbox           |
|  \\    /   O peration     | Version:  2.4.x                                 |
|   \\  /    A nd           | Web:      www.OpenFOAM.org                      |
|    \\/     M anipulation  |                                                 |
\*---------------------------------------------------------------------------*/
FoamFile
{
    version     2.0;
    format      ascii;
    class       volVectorField;
    location    "6.3";
    object      Ur;
}
// * * * * * * * * * * * * * * * * * * * * * * * * * * * * * * * * * * * * * //

dimensions      [0 1 -1 0 0 0 0];

internalField   nonuniform List<vector> 
360
(
(4.1761e-05 6.74548e-08 0)
(4.15641e-05 4.10672e-07 0)
(4.1524e-05 7.5988e-07 0)
(4.15506e-05 1.07091e-06 0)
(4.15673e-05 1.38018e-06 0)
(4.15741e-05 1.69883e-06 0)
(4.15808e-05 2.02304e-06 0)
(4.15886e-05 2.34934e-06 0)
(4.15967e-05 2.67683e-06 0)
(4.16051e-05 3.00584e-06 0)
(4.16136e-05 3.33699e-06 0)
(4.16221e-05 3.67058e-06 0)
(4.16307e-05 4.00661e-06 0)
(4.16392e-05 4.34493e-06 0)
(4.16479e-05 4.68541e-06 0)
(4.16567e-05 5.02803e-06 0)
(4.16655e-05 5.37283e-06 0)
(4.16745e-05 5.71985e-06 0)
(4.16835e-05 6.06909e-06 0)
(4.16926e-05 6.4206e-06 0)
(4.17018e-05 6.77433e-06 0)
(4.1711e-05 7.13029e-06 0)
(4.17204e-05 7.48851e-06 0)
(4.17299e-05 7.84899e-06 0)
(4.17394e-05 8.21171e-06 0)
(4.1749e-05 8.57663e-06 0)
(4.17587e-05 8.94366e-06 0)
(4.17686e-05 9.31277e-06 0)
(4.17785e-05 9.68393e-06 0)
(4.17884e-05 1.0057e-05 0)
(4.17985e-05 1.04319e-05 0)
(4.18087e-05 1.08088e-05 0)
(4.18189e-05 1.11875e-05 0)
(4.18294e-05 1.15682e-05 0)
(4.18398e-05 1.19514e-05 0)
(4.18504e-05 1.23371e-05 0)
(4.1861e-05 1.27259e-05 0)
(4.18719e-05 1.31182e-05 0)
(4.18829e-05 1.35148e-05 0)
(4.18938e-05 1.39157e-05 0)
(4.19051e-05 1.43214e-05 0)
(4.19165e-05 1.47318e-05 0)
(4.19278e-05 1.51463e-05 0)
(4.19395e-05 1.55639e-05 0)
(4.19512e-05 1.59832e-05 0)
(4.1963e-05 1.64021e-05 0)
(4.19749e-05 1.68181e-05 0)
(4.19866e-05 1.72287e-05 0)
(4.19985e-05 1.76316e-05 0)
(4.20106e-05 1.80257e-05 0)
(4.20225e-05 1.84104e-05 0)
(4.20346e-05 1.87867e-05 0)
(4.20467e-05 1.9157e-05 0)
(4.2059e-05 1.95261e-05 0)
(4.20713e-05 1.99003e-05 0)
(4.20841e-05 2.02892e-05 0)
(4.2097e-05 2.07048e-05 0)
(4.21106e-05 2.11632e-05 0)
(4.21247e-05 2.1685e-05 0)
(4.21394e-05 2.2294e-05 0)
(4.21554e-05 2.30153e-05 0)
(4.21722e-05 2.38638e-05 0)
(4.21901e-05 2.4827e-05 0)
(4.22082e-05 2.58444e-05 0)
(4.22259e-05 2.68057e-05 0)
(4.22424e-05 2.75889e-05 0)
(4.22572e-05 2.81243e-05 0)
(4.22706e-05 2.84264e-05 0)
(4.22831e-05 2.85663e-05 0)
(4.22952e-05 2.86195e-05 0)
(4.23077e-05 2.86355e-05 0)
(4.23206e-05 2.86384e-05 0)
(4.23337e-05 2.86371e-05 0)
(4.23473e-05 2.86348e-05 0)
(4.23612e-05 2.8632e-05 0)
(4.23755e-05 2.86291e-05 0)
(4.239e-05 2.86261e-05 0)
(4.24049e-05 2.8623e-05 0)
(4.242e-05 2.86199e-05 0)
(4.24356e-05 2.86167e-05 0)
(4.24515e-05 2.86134e-05 0)
(4.24679e-05 2.86101e-05 0)
(4.24847e-05 2.86066e-05 0)
(4.2502e-05 2.86031e-05 0)
(4.25197e-05 2.85994e-05 0)
(4.25379e-05 2.85957e-05 0)
(4.25565e-05 2.85919e-05 0)
(4.25754e-05 2.8588e-05 0)
(4.25947e-05 2.85841e-05 0)
(4.26145e-05 2.858e-05 0)
(4.26347e-05 2.85759e-05 0)
(4.26554e-05 2.85717e-05 0)
(4.26765e-05 2.85674e-05 0)
(4.26982e-05 2.8563e-05 0)
(4.27203e-05 2.85585e-05 0)
(4.2743e-05 2.85538e-05 0)
(4.27663e-05 2.85491e-05 0)
(4.27901e-05 2.85443e-05 0)
(4.28144e-05 2.85393e-05 0)
(4.28394e-05 2.85343e-05 0)
(4.28649e-05 2.85291e-05 0)
(4.28911e-05 2.85238e-05 0)
(4.29179e-05 2.85184e-05 0)
(4.29454e-05 2.85128e-05 0)
(4.29736e-05 2.85072e-05 0)
(4.30025e-05 2.85013e-05 0)
(4.30321e-05 2.84954e-05 0)
(4.30626e-05 2.84892e-05 0)
(4.30938e-05 2.84829e-05 0)
(4.31259e-05 2.84765e-05 0)
(4.31589e-05 2.84699e-05 0)
(4.31929e-05 2.84631e-05 0)
(4.32278e-05 2.84561e-05 0)
(4.32637e-05 2.84489e-05 0)
(4.33006e-05 2.84415e-05 0)
(4.33387e-05 2.84339e-05 0)
(4.3378e-05 2.84261e-05 0)
(4.34184e-05 2.84181e-05 0)
(4.34601e-05 2.84098e-05 0)
(4.35032e-05 2.84012e-05 0)
(4.35477e-05 2.83924e-05 0)
(4.35936e-05 2.83834e-05 0)
(4.36411e-05 2.8374e-05 0)
(4.36902e-05 2.83643e-05 0)
(4.37409e-05 2.83543e-05 0)
(4.37935e-05 2.8344e-05 0)
(4.3848e-05 2.83333e-05 0)
(4.39046e-05 2.83222e-05 0)
(4.39635e-05 2.83107e-05 0)
(4.40248e-05 2.82988e-05 0)
(4.40887e-05 2.82863e-05 0)
(4.41552e-05 2.82734e-05 0)
(4.42248e-05 2.82598e-05 0)
(4.42982e-05 2.82455e-05 0)
(4.43763e-05 2.82305e-05 0)
(4.44591e-05 2.82147e-05 0)
(4.4546e-05 2.81979e-05 0)
(4.46385e-05 2.81796e-05 0)
(4.47413e-05 2.81593e-05 0)
(4.48593e-05 2.81378e-05 0)
(4.49872e-05 2.81159e-05 0)
(4.51094e-05 2.80887e-05 0)
(4.52559e-05 2.80586e-05 0)
(4.54467e-05 2.80229e-05 0)
(4.56845e-05 2.79586e-05 0)
(4.61245e-05 2.77647e-05 0)
(4.74723e-05 2.8813e-05 0)
(-1.1919e-05 1.73325e-05 0)
(-0.00323282 0.000134238 0)
(-0.00998467 0.000908223 0)
(-0.00786365 0.0010252 0)
(-0.0059491 0.00118925 0)
(-0.00474982 0.0013162 0)
(-0.00402206 0.00142845 0)
(-0.0036072 0.00152768 0)
(-0.00340378 0.00161388 0)
(-0.00334411 0.00168667 0)
(-0.00338371 0.00174577 0)
(-0.00349404 0.00179124 0)
(-0.00365716 0.00182337 0)
(-0.00386195 0.00184269 0)
(-0.00410163 0.00184981 0)
(-0.00437214 0.00184538 0)
(-0.00467116 0.00183006 0)
(-0.00499755 0.00180446 0)
(-0.00535088 0.00176916 0)
(-0.00573129 0.00172468 0)
(-0.00613925 0.00167152 0)
(-0.00657555 0.00161012 0)
(-0.00704116 0.00154089 0)
(-0.00753725 0.0014642 0)
(-0.00806511 0.00138038 0)
(-0.00862614 0.00128975 0)
(-0.00922181 0.00119259 0)
(-0.00985364 0.00108917 0)
(-0.0105232 0.000979742 0)
(-0.011232 0.000864532 0)
(-0.0119817 0.00074376 0)
(-0.0127738 0.000617634 0)
(-0.0136097 0.000486351 0)
(-0.0144909 0.000350099 0)
(-0.0154188 0.000209059 0)
(-0.0163946 6.34049e-05 0)
(-0.0174195 -8.66961e-05 0)
(-0.0184946 -0.00024108 0)
(-0.0196209 -0.000399587 0)
(-0.0207993 -0.00056206 0)
(-0.0220306 -0.000728342 0)
(-0.0233153 -0.000898277 0)
(-0.0246541 -0.0010717 0)
(-0.0260472 -0.00124843 0)
(-0.027495 -0.00142826 0)
(-0.0289975 -0.00161091 0)
(-0.0305546 -0.00179603 0)
(-0.0321661 -0.00198317 0)
(-0.0338316 -0.00217174 0)
(-0.0355502 -0.00236098 0)
(-0.0373211 -0.00254996 0)
(-0.0391428 -0.00273757 0)
(-0.0410139 -0.00292262 0)
(-0.0429323 -0.003104 0)
(-0.0449155 -0.00328262 0)
(-0.0469828 -0.00345918 0)
(-0.0491331 -0.00363244 0)
(-0.0513648 -0.00380108 0)
(-0.0536752 -0.00396332 0)
(-0.05606 -0.00411697 0)
(-0.0585137 -0.00425991 0)
(-0.0610289 -0.00439035 0)
(-0.0635969 -0.004507 0)
(-0.0662072 -0.00460923 0)
(-0.0688482 -0.00469707 0)
(-0.0715072 -0.00477116 0)
(-0.0741706 -0.00483251 0)
(-0.0768239 -0.00488216 0)
(-0.0794521 -0.0049214 0)
(-0.0820398 -0.00495147 0)
(-0.0845708 -0.00497341 0)
(-0.0870288 -0.00498818 0)
(-0.0893969 -0.00499665 0)
(-0.0916579 -0.00499952 0)
(-0.0937937 -0.00499718 0)
(-0.0957864 -0.00499001 0)
(-0.097618 -0.00497839 0)
(-0.0992705 -0.0049624 0)
(-0.100727 -0.00494209 0)
(-0.101972 -0.00491755 0)
(-0.102992 -0.00488866 0)
(-0.103778 -0.00485523 0)
(-0.104324 -0.00481662 0)
(-0.104629 -0.00477244 0)
(-0.104696 -0.00472078 0)
(-0.104537 -0.00466051 0)
(-0.104166 -0.00458566 0)
(-0.103621 -0.00449941 0)
(-0.102907 -0.0043729 0)
(-0.101816 -0.00415914 0)
(-0.000472396 -5.1963e-05 0)
(0.00134844 -0.00107874 0)
(0.00126849 -0.00328138 0)
(0.00104307 0.00251137 0)
(0.000563164 0.0341854 0)
(0.000623365 0.0396108 0)
(0.000479086 0.0395719 0)
(0.000472142 0.0395756 0)
(0.000454883 0.0395759 0)
(0.00044315 0.0395766 0)
(0.000435248 0.0395774 0)
(0.000431435 0.0395782 0)
(0.000431921 0.0395788 0)
(0.000437161 0.0395792 0)
(0.00044797 0.0395791 0)
(0.000465744 0.0395784 0)
(0.000492187 0.0395765 0)
(0.000519108 0.0395727 0)
(0.000627543 0.0395636 0)
(0.000759241 0.0395535 0)
(0.000778288 0.0395489 0)
(0.000778884 0.0395484 0)
(0.000778903 0.0395484 0)
(0.000778909 0.0395484 0)
(0.000778912 0.0395484 0)
(0.000778915 0.0395484 0)
(0.000778917 0.0395484 0)
(0.000778919 0.0395484 0)
(0.00077892 0.0395484 0)
(0.000778921 0.0395484 0)
(0.000778921 0.0395484 0)
(0.000778922 0.0395484 0)
(0.000778922 0.0395484 0)
(0.000778923 0.0395484 0)
(0.000778923 0.0395484 0)
(0.000778923 0.0395484 0)
(0.000778923 0.0395484 0)
(0.000778923 0.0395484 0)
(0.000778923 0.0395484 0)
(0.000778923 0.0395484 0)
(0.000778923 0.0395484 0)
(0.000778923 0.0395484 0)
(0.000778923 0.0395484 0)
(0.000778923 0.0395484 0)
(0.000778923 0.0395484 0)
(0.000778923 0.0395484 0)
(0.000778923 0.0395484 0)
(0.000778923 0.0395484 0)
(0.000778923 0.0395483 0)
(0.000778923 0.0395484 0)
(0.000778923 0.0395483 0)
(0.000778923 0.0395484 0)
(0.000778923 0.0395483 0)
(0.000778923 0.0395484 0)
(0.000778923 0.0395483 0)
(0.000778923 0.0395484 0)
(0.000778923 0.0395483 0)
(0.000778923 0.0395484 0)
(0.000778923 0.0395483 0)
(0.000778923 0.0395484 0)
(0.000778923 0.0395483 0)
(0.000778923 0.0395484 0)
(0.000778923 0.0395483 0)
(0.000778923 0.0395484 0)
(0.000778923 0.0395483 0)
(0.000778923 0.0395484 0)
(0.000778923 0.0395483 0)
(0.000778923 0.0395484 0)
(0.000778923 0.0395483 0)
(0.000778923 0.0395484 0)
(0.000778923 0.0395483 0)
(0.000778923 0.0395484 0)
(0.000778923 0.0395483 0)
(0.000778923 0.0395484 0)
(0.000778923 0.0395483 0)
(0.000778923 0.0395484 0)
(0.000778923 0.0395483 0)
(0.000778923 0.0395484 0)
(0.000778923 0.0395483 0)
(0.000778923 0.0395484 0)
(0.000778923 0.0395483 0)
(0.000778923 0.0395484 0)
(0.000778923 0.0395483 0)
(0.000778923 0.0395484 0)
(0.000778923 0.0395483 0)
(0.000778923 0.0395484 0)
(0.000778923 0.0395483 0)
(0.000778923 0.0395484 0)
(0.000778923 0.0395483 0)
(0.000778923 0.0395484 0)
(0.000778923 0.0395483 0)
(0.000778923 0.0395484 0)
(0.000778923 0.0395483 0)
(0.000778923 0.0395484 0)
(0.000778923 0.0395483 0)
(0.000778923 0.0395484 0)
(0.000778923 0.0395483 0)
(0.000778923 0.0395484 0)
(0.000778923 0.0395483 0)
(0.000778923 0.0395484 0)
(0.000778923 0.0395483 0)
(0.000778923 0.0395484 0)
(0.000778923 0.0395483 0)
(0.000778923 0.0395484 0)
(0.000778923 0.0395483 0)
(0.000778923 0.0395484 0)
(0.000778923 0.0395483 0)
(0.000778923 0.0395484 0)
(0.000778923 0.0395483 0)
(0.000778923 0.0395484 0)
(0.000778923 0.0395483 0)
(0.000778923 0.0395484 0)
(0.000778923 0.0395483 0)
(0.000778923 0.0395484 0)
(0.000778923 0.0395483 0)
(0.000778923 0.0395484 0)
(0.000778923 0.0395483 0)
(0.000778923 0.0395484 0)
(0.000778924 0.0395483 0)
(0.000778931 0.0395482 0)
(0.000779144 0.0395397 0)
(0.000784397 0.0391951 0)
(0.000907509 0.0224969 0)
)
;

boundaryField
{
    inandouthalf11
    {
        type            cyclic;
    }
    inandouthalf12
    {
        type            cyclic;
    }
    inandouthalf21
    {
        type            cyclic;
    }
    inandouthalf22
    {
        type            cyclic;
    }
    inandouthalf31
    {
        type            cyclic;
    }
    inandouthalf32
    {
        type            cyclic;
    }
    inandouthalf41
    {
        type            cyclic;
    }
    inandouthalf42
    {
        type            cyclic;
    }
    top
    {
        type            symmetryPlane;
    }
    walls
    {
        type            calculated;
        value           uniform (0 0 0);
    }
    frontAndBackPlanes
    {
        type            empty;
    }
}


// ************************************************************************* //
