/*--------------------------------*- C++ -*----------------------------------*\
| =========                 |                                                 |
| \\      /  F ield         | OpenFOAM: The Open Source CFD Toolbox           |
|  \\    /   O peration     | Version:  2.4.x                                 |
|   \\  /    A nd           | Web:      www.OpenFOAM.org                      |
|    \\/     M anipulation  |                                                 |
\*---------------------------------------------------------------------------*/
FoamFile
{
    version     2.0;
    format      ascii;
    class       volScalarField;
    location    "5.55";
    object      ddt0(alpha);
}
// * * * * * * * * * * * * * * * * * * * * * * * * * * * * * * * * * * * * * //

dimensions      [0 0 -1 0 0 0 0];

internalField   nonuniform List<scalar> 
360
(
0.000139978
0.000231265
0.000212475
0.000198018
0.000200285
0.000205608
0.000208549
0.000209711
0.000210284
0.000211175
0.000212506
0.000214
0.000215519
0.000216902
0.000218206
0.000219514
0.000220847
0.000222175
0.000223458
0.000224758
0.000225906
0.00022709
0.000228256
0.000229451
0.000230729
0.000232146
0.000233764
0.000235753
0.000238047
0.000240627
0.000243383
0.000246236
0.000248576
0.000250398
0.000250783
0.000249622
0.000246557
0.000241902
0.000236266
0.000230391
0.000226248
0.00022535
0.000229868
0.000242766
0.000266866
0.000305968
0.00036296
0.000435685
0.000510234
0.000552247
0.000517627
0.000396243
0.000236225
0.00010698
3.66084e-05
9.57316e-06
1.79537e-06
-2.70159e-08
-4.15529e-07
-5.24649e-07
-5.6717e-07
-5.89483e-07
-6.10756e-07
-6.23528e-07
-6.38918e-07
-6.57564e-07
-6.81351e-07
-7.03653e-07
-7.24789e-07
-7.56205e-07
-7.92005e-07
-8.10759e-07
-8.34626e-07
-8.61966e-07
-8.8345e-07
-9.01509e-07
-9.16379e-07
-9.38276e-07
-9.61389e-07
-9.83532e-07
-1.00866e-06
-1.03767e-06
-1.0654e-06
-1.09293e-06
-1.11975e-06
-1.14582e-06
-1.17072e-06
-1.19447e-06
-1.21965e-06
-1.24588e-06
-1.27291e-06
-1.3019e-06
-1.33254e-06
-1.36387e-06
-1.39599e-06
-1.42875e-06
-1.462e-06
-1.49589e-06
-1.53073e-06
-1.56667e-06
-1.60383e-06
-1.64242e-06
-1.68249e-06
-1.72402e-06
-1.76709e-06
-1.81182e-06
-1.85831e-06
-1.90669e-06
-1.95711e-06
-2.00969e-06
-2.06454e-06
-2.1218e-06
-2.18158e-06
-2.244e-06
-2.3092e-06
-2.37733e-06
-2.44855e-06
-2.52303e-06
-2.60098e-06
-2.6826e-06
-2.76808e-06
-2.8576e-06
-2.95131e-06
-3.04955e-06
-3.15303e-06
-3.26313e-06
-3.3818e-06
-3.51085e-06
-3.65046e-06
-3.79833e-06
-3.95255e-06
-4.12013e-06
-4.32205e-06
-4.5729e-06
-4.84736e-06
-5.10614e-06
-5.38894e-06
-5.84941e-06
-6.60099e-06
-7.3428e-06
-7.44949e-06
-7.96872e-06
-9.96072e-06
-1.25727e-05
-1.93402e-05
-7.76256e-05
0.000210136
0.121583
0.0471789
-0.00238671
-0.0138407
-0.018699
-0.0206669
-0.0206329
-0.0192312
-0.0170687
-0.0146345
-0.0122494
-0.0100845
-0.00820713
-0.00662407
-0.00531215
-0.00423652
-0.00336036
-0.00264946
-0.00207398
-0.00160884
-0.00123313
-0.000929951
-0.000685529
-0.000488724
-0.000330549
-0.00020375
-0.000102465
-2.19496e-05
4.16431e-05
9.14414e-05
0.000129995
0.000159386
0.000181317
0.000197185
0.000208153
0.000215235
0.00021938
0.000221537
0.000222653
0.000223566
0.000224797
0.000226314
0.000227407
0.00022687
0.000223483
0.000216333
0.000204873
0.000189444
0.000171902
0.000154843
0.000139862
0.000126687
0.000113924
0.000100899
8.80589e-05
7.54251e-05
6.31701e-05
5.2624e-05
4.3881e-05
3.6026e-05
2.94571e-05
2.43309e-05
1.99575e-05
1.63083e-05
1.3392e-05
1.09466e-05
9.03145e-06
7.45993e-06
6.0669e-06
5.0323e-06
4.18943e-06
3.40826e-06
2.80246e-06
2.31716e-06
1.91086e-06
1.56396e-06
1.26955e-06
1.05422e-06
8.63104e-07
6.96197e-07
5.70641e-07
4.61726e-07
3.69447e-07
2.94735e-07
2.32061e-07
1.93385e-07
1.51706e-07
1.13957e-07
6.94403e-08
1.45038e-07
6.15933e-09
5.9351e-08
1.14695e-08
1.03433e-20
-3.65534e-20
-1.31427e-22
-7.38356e-23
-2.90427e-23
-1.31153e-23
-6.52982e-24
-3.41368e-24
-2.24642e-24
-2.16159e-24
-2.55505e-24
-2.98065e-24
-2.3131e-24
-7.71907e-25
-3.10929e-25
-1.45558e-25
-7.34259e-26
-4.11547e-26
-3.14172e-26
-3.12039e-26
-1.95365e-26
-7.3515e-27
-3.40081e-27
-1.71074e-27
-9.26068e-28
-6.06389e-28
-3.24447e-28
-1.50459e-28
-7.5394e-29
-3.82237e-29
-1.90431e-29
-9.30741e-30
-4.46261e-30
-2.09755e-30
-9.658e-31
-4.35293e-31
-1.91887e-31
-8.26623e-32
-3.47674e-32
-1.42633e-32
-5.70167e-33
-2.2184e-33
-8.39117e-34
-3.08175e-34
-1.09741e-34
-3.78358e-35
-1.26096e-35
-4.05516e-36
-1.25604e-36
-3.73926e-37
-1.06749e-37
-2.91499e-38
-7.59261e-39
-1.88045e-39
-4.4128e-40
-9.77254e-41
-2.03306e-41
-3.95223e-42
-7.13498e-43
-1.18745e-43
-1.80584e-44
-2.48241e-45
-3.04291e-46
-3.26791e-47
-3.00265e-48
-2.28211e-49
-1.36224e-50
-5.83552e-52
-1.47111e-53
-8.88263e-56
-2.91141e-59
-3.51447e-61
-2.10539e-63
-5.61384e-74
-7.43715e-85
-6.92948e-96
-4.74758e-107
-2.6882e-118
-1.2177e-129
-4.74836e-141
-2.35892e-150
-8.15742e-161
-8.1151e-169
-2.51134e-179
-2.79158e-187
-1.0218e-197
-9.60325e-206
-4.39531e-216
-3.30636e-224
-2.84638e-234
-1.15142e-242
-1.86728e-252
-4.0787e-261
-9.28931e-271
-1.46859e-279
-4.39767e-289
-5.36779e-298
-1.93415e-307
-2.05343e-316
2.32507e-320
0
0
0
0
0
0
0
0
0
0
0
0
0
0
0
0
0
0
0
0
)
;

boundaryField
{
    inandouthalf11
    {
        type            cyclic;
    }
    inandouthalf12
    {
        type            cyclic;
    }
    inandouthalf21
    {
        type            cyclic;
    }
    inandouthalf22
    {
        type            cyclic;
    }
    inandouthalf31
    {
        type            cyclic;
    }
    inandouthalf32
    {
        type            cyclic;
    }
    inandouthalf41
    {
        type            cyclic;
    }
    inandouthalf42
    {
        type            cyclic;
    }
    top
    {
        type            symmetryPlane;
    }
    walls
    {
        type            calculated;
        value           uniform 0.000139978;
    }
    frontAndBackPlanes
    {
        type            empty;
    }
}


// ************************************************************************* //
