/*--------------------------------*- C++ -*----------------------------------*\
| =========                 |                                                 |
| \\      /  F ield         | OpenFOAM: The Open Source CFD Toolbox           |
|  \\    /   O peration     | Version:  2.4.x                                 |
|   \\  /    A nd           | Web:      www.OpenFOAM.org                      |
|    \\/     M anipulation  |                                                 |
\*---------------------------------------------------------------------------*/
FoamFile
{
    version     2.0;
    format      ascii;
    class       volVectorField;
    location    "5.55";
    object      ddt0(Ub);
}
// * * * * * * * * * * * * * * * * * * * * * * * * * * * * * * * * * * * * * //

dimensions      [0 1 -2 0 0 0 0];

internalField   nonuniform List<vector> 
360
(
(1.04793e-06 -2.18246e-08 0)
(1.05541e-06 -9.31656e-08 0)
(1.06913e-06 -1.8799e-07 0)
(1.08295e-06 -2.73961e-07 0)
(1.096e-06 -3.54147e-07 0)
(1.10914e-06 -4.3449e-07 0)
(1.12278e-06 -5.17301e-07 0)
(1.13683e-06 -6.02008e-07 0)
(1.15109e-06 -6.87365e-07 0)
(1.16549e-06 -7.72722e-07 0)
(1.18004e-06 -8.58181e-07 0)
(1.19481e-06 -9.44074e-07 0)
(1.20982e-06 -1.03063e-06 0)
(1.22509e-06 -1.11788e-06 0)
(1.24059e-06 -1.20567e-06 0)
(1.25633e-06 -1.29389e-06 0)
(1.27227e-06 -1.38242e-06 0)
(1.28842e-06 -1.47117e-06 0)
(1.30476e-06 -1.56004e-06 0)
(1.32129e-06 -1.64898e-06 0)
(1.338e-06 -1.73797e-06 0)
(1.35493e-06 -1.82716e-06 0)
(1.37213e-06 -1.91691e-06 0)
(1.3897e-06 -2.00785e-06 0)
(1.40779e-06 -2.10081e-06 0)
(1.42658e-06 -2.19687e-06 0)
(1.44627e-06 -2.29717e-06 0)
(1.46705e-06 -2.4028e-06 0)
(1.48906e-06 -2.51441e-06 0)
(1.51229e-06 -2.63184e-06 0)
(1.53655e-06 -2.75364e-06 0)
(1.56136e-06 -2.87687e-06 0)
(1.58591e-06 -2.99661e-06 0)
(1.6091e-06 -3.10654e-06 0)
(1.62964e-06 -3.1994e-06 0)
(1.64633e-06 -3.26876e-06 0)
(1.65844e-06 -3.31112e-06 0)
(1.66617e-06 -3.32831e-06 0)
(1.671e-06 -3.32923e-06 0)
(1.67584e-06 -3.33044e-06 0)
(1.68505e-06 -3.3562e-06 0)
(1.70431e-06 -3.43772e-06 0)
(1.74074e-06 -3.6135e-06 0)
(1.80331e-06 -3.93175e-06 0)
(1.90346e-06 -4.45262e-06 0)
(2.05508e-06 -5.2457e-06 0)
(2.27099e-06 -6.36623e-06 0)
(2.54983e-06 -7.77813e-06 0)
(2.84617e-06 -9.20847e-06 0)
(3.03503e-06 -1.0033e-05 0)
(2.93926e-06 -9.4981e-06 0)
(2.49404e-06 -7.40587e-06 0)
(1.89022e-06 -4.56434e-06 0)
(1.41422e-06 -2.17155e-06 0)
(1.17108e-06 -7.95993e-07 0)
(1.08513e-06 -2.32148e-07 0)
(1.06245e-06 -5.98884e-08 0)
(1.05759e-06 -1.81054e-08 0)
(1.05675e-06 -9.23013e-09 0)
(1.05673e-06 -7.35695e-09 0)
(1.0569e-06 -6.89041e-09 0)
(1.05711e-06 -6.72127e-09 0)
(1.05734e-06 -6.62544e-09 0)
(1.05758e-06 -6.54555e-09 0)
(1.05783e-06 -6.46854e-09 0)
(1.05808e-06 -6.3911e-09 0)
(1.05835e-06 -6.31162e-09 0)
(1.05862e-06 -6.232e-09 0)
(1.05891e-06 -6.15643e-09 0)
(1.0592e-06 -6.08439e-09 0)
(1.05951e-06 -6.01035e-09 0)
(1.05984e-06 -5.93639e-09 0)
(1.06016e-06 -5.86079e-09 0)
(1.06051e-06 -5.78215e-09 0)
(1.06086e-06 -5.69935e-09 0)
(1.06122e-06 -5.61327e-09 0)
(1.06158e-06 -5.51893e-09 0)
(1.06195e-06 -5.42027e-09 0)
(1.06233e-06 -5.32685e-09 0)
(1.06272e-06 -5.22634e-09 0)
(1.06311e-06 -5.12223e-09 0)
(1.06352e-06 -5.01994e-09 0)
(1.06394e-06 -4.91764e-09 0)
(1.06437e-06 -4.82017e-09 0)
(1.06481e-06 -4.7234e-09 0)
(1.06527e-06 -4.62558e-09 0)
(1.06573e-06 -4.52682e-09 0)
(1.0662e-06 -4.42566e-09 0)
(1.06669e-06 -4.3278e-09 0)
(1.06718e-06 -4.23399e-09 0)
(1.06768e-06 -4.14205e-09 0)
(1.0682e-06 -4.05114e-09 0)
(1.06873e-06 -3.96011e-09 0)
(1.06927e-06 -3.87014e-09 0)
(1.06982e-06 -3.78122e-09 0)
(1.07039e-06 -3.6923e-09 0)
(1.07097e-06 -3.6041e-09 0)
(1.07157e-06 -3.51863e-09 0)
(1.07218e-06 -3.43803e-09 0)
(1.0728e-06 -3.35829e-09 0)
(1.07344e-06 -3.28072e-09 0)
(1.07409e-06 -3.2026e-09 0)
(1.07476e-06 -3.12308e-09 0)
(1.07545e-06 -3.05045e-09 0)
(1.07615e-06 -2.98299e-09 0)
(1.07687e-06 -2.91732e-09 0)
(1.07762e-06 -2.84748e-09 0)
(1.07838e-06 -2.77559e-09 0)
(1.07916e-06 -2.70597e-09 0)
(1.07996e-06 -2.64067e-09 0)
(1.08078e-06 -2.5776e-09 0)
(1.08163e-06 -2.51597e-09 0)
(1.0825e-06 -2.45845e-09 0)
(1.08339e-06 -2.40184e-09 0)
(1.08432e-06 -2.34593e-09 0)
(1.08527e-06 -2.2897e-09 0)
(1.08624e-06 -2.23785e-09 0)
(1.08725e-06 -2.18963e-09 0)
(1.08829e-06 -2.14242e-09 0)
(1.08936e-06 -2.09344e-09 0)
(1.09047e-06 -2.04359e-09 0)
(1.09161e-06 -1.99664e-09 0)
(1.09279e-06 -1.95574e-09 0)
(1.09401e-06 -1.9162e-09 0)
(1.09528e-06 -1.87885e-09 0)
(1.09659e-06 -1.84337e-09 0)
(1.09794e-06 -1.80627e-09 0)
(1.09935e-06 -1.77374e-09 0)
(1.10081e-06 -1.74613e-09 0)
(1.10233e-06 -1.714e-09 0)
(1.10392e-06 -1.68471e-09 0)
(1.10557e-06 -1.66278e-09 0)
(1.1073e-06 -1.6377e-09 0)
(1.10911e-06 -1.61186e-09 0)
(1.11105e-06 -1.58736e-09 0)
(1.11309e-06 -1.56808e-09 0)
(1.11524e-06 -1.55916e-09 0)
(1.11752e-06 -1.56055e-09 0)
(1.12005e-06 -1.55627e-09 0)
(1.12296e-06 -1.53225e-09 0)
(1.12612e-06 -1.55392e-09 0)
(1.12912e-06 -1.60395e-09 0)
(1.1327e-06 -1.57875e-09 0)
(1.13736e-06 -1.95605e-09 0)
(1.14311e-06 -2.39636e-09 0)
(1.15423e-06 -3.74505e-06 0)
(2.42947e-06 3.72975e-05 0)
(0.000773573 -5.89072e-05 0)
(0.034682 -0.000421735 0)
(0.0257601 -7.49179e-05 0)
(0.0254066 -0.000141363 0)
(0.0283758 -8.51747e-05 0)
(0.0327808 -6.02785e-05 0)
(0.0377725 -4.14155e-05 0)
(0.0429081 -2.70906e-05 0)
(0.0479516 -1.63271e-05 0)
(0.0527833 -8.33383e-06 0)
(0.0573503 -2.45267e-06 0)
(0.0616371 1.81428e-06 0)
(0.0656482 4.84307e-06 0)
(0.0693976 6.92359e-06 0)
(0.0729034 8.28165e-06 0)
(0.0761847 9.09334e-06 0)
(0.0792597 9.49571e-06 0)
(0.0821455 9.59476e-06 0)
(0.0848574 9.47182e-06 0)
(0.0874091 9.19038e-06 0)
(0.0898125 8.79839e-06 0)
(0.0920783 8.33174e-06 0)
(0.0942155 7.81846e-06 0)
(0.096232 7.27954e-06 0)
(0.0981346 6.73073e-06 0)
(0.0999289 6.18384e-06 0)
(0.10162 5.64756e-06 0)
(0.103211 5.12821e-06 0)
(0.104706 4.63023e-06 0)
(0.106107 4.15659e-06 0)
(0.107416 3.70911e-06 0)
(0.108633 3.28869e-06 0)
(0.10976 2.89553e-06 0)
(0.110796 2.52935e-06 0)
(0.11174 2.18938e-06 0)
(0.112591 1.87427e-06 0)
(0.113347 1.5817e-06 0)
(0.114006 1.30804e-06 0)
(0.114565 1.04833e-06 0)
(0.11502 7.96935e-07 0)
(0.115367 5.49274e-07 0)
(0.115601 3.04141e-07 0)
(0.115717 6.5604e-08 0)
(0.115708 -1.57028e-07 0)
(0.115567 -3.51463e-07 0)
(0.115289 -5.05577e-07 0)
(0.114865 -6.1074e-07 0)
(0.114288 -6.65994e-07 0)
(0.11355 -6.80814e-07 0)
(0.112643 -6.71413e-07 0)
(0.11156 -6.51355e-07 0)
(0.110293 -6.24948e-07 0)
(0.108834 -5.8967e-07 0)
(0.107177 -5.43882e-07 0)
(0.105296 -4.89413e-07 0)
(0.103157 -4.29176e-07 0)
(0.100741 -3.67739e-07 0)
(0.0980342 -3.10768e-07 0)
(0.0950229 -2.60688e-07 0)
(0.0916992 -2.16581e-07 0)
(0.0880614 -1.78653e-07 0)
(0.0841168 -1.47332e-07 0)
(0.0798833 -1.21281e-07 0)
(0.0753912 -9.93998e-08 0)
(0.0706848 -8.13262e-08 0)
(0.0658209 -6.6554e-08 0)
(0.0608678 -5.45705e-08 0)
(0.0559001 -4.47016e-08 0)
(0.0509938 -3.6475e-08 0)
(0.0462196 -2.98622e-08 0)
(0.0416374 -2.44944e-08 0)
(0.0372916 -1.99239e-08 0)
(0.0332097 -1.61503e-08 0)
(0.0294024 -1.31352e-08 0)
(0.0258671 -1.06592e-08 0)
(0.0225904 -8.5757e-09 0)
(0.019553 -6.86139e-09 0)
(0.0167326 -5.50016e-09 0)
(0.0141068 -4.38475e-09 0)
(0.0116546 -3.44863e-09 0)
(0.00935767 -2.69174e-09 0)
(0.00720027 -2.07634e-09 0)
(0.00516946 -1.56471e-09 0)
(0.00325459 -1.14908e-09 0)
(0.00144694 -8.3232e-10 0)
(-0.000260687 -5.99661e-10 0)
(-0.00187431 -3.96313e-10 0)
(-0.00339898 -1.85006e-10 0)
(-0.00483885 -7.30179e-11 0)
(-0.00619726 -3.23123e-10 0)
(-0.0074767 4.78755e-10 0)
(-0.00867847 5.53832e-10 0)
(-0.00980268 -7.13105e-11 0)
(-0.0108479 4.03866e-10 0)
(-0.0118106 2.06808e-10 0)
(-0.0126848 1.41677e-10 0)
(-0.0134612 2.22583e-10 0)
(-0.0141257 -9.42817e-11 0)
(-0.014658 4.37919e-10 0)
(-0.0150275 -4.72769e-10 0)
(-0.0151867 7.58147e-10 0)
(-0.0150592 -9.11649e-10 0)
(-0.0145257 1.11249e-09 0)
(-0.0134034 -1.30916e-09 0)
(-0.00954221 1.38381e-09 0)
(-0.00484166 -1.57441e-09 0)
(-0.00420979 1.53541e-09 0)
(-0.00419478 -1.75688e-09 0)
(-0.00419452 1.66127e-09 0)
(-0.00419451 -1.9384e-09 0)
(-0.0041945 1.7985e-09 0)
(-0.0041945 -2.1268e-09 0)
(-0.00419449 1.94834e-09 0)
(-0.00419449 -2.32265e-09 0)
(-0.00419449 2.10985e-09 0)
(-0.00419449 -2.52813e-09 0)
(-0.00419449 2.2809e-09 0)
(-0.00419448 -2.74636e-09 0)
(-0.00419448 2.458e-09 0)
(-0.00419448 -2.97915e-09 0)
(-0.00419448 2.64384e-09 0)
(-0.00419448 -3.22626e-09 0)
(-0.00419448 2.83761e-09 0)
(-0.00419448 -3.48531e-09 0)
(-0.00419448 3.0448e-09 0)
(-0.00419448 -3.75565e-09 0)
(-0.00419448 3.27428e-09 0)
(-0.00419448 -4.06031e-09 0)
(-0.00419448 3.50525e-09 0)
(-0.00419448 -4.31968e-09 0)
(-0.00419448 3.75408e-09 0)
(-0.00419448 -4.60086e-09 0)
(-0.00419448 4.0273e-09 0)
(-0.00419448 -4.88777e-09 0)
(-0.00419448 4.30838e-09 0)
(-0.00419448 -5.19275e-09 0)
(-0.00419448 4.60799e-09 0)
(-0.00419448 -5.49589e-09 0)
(-0.00419448 4.93635e-09 0)
(-0.00419448 -5.79425e-09 0)
(-0.00419448 5.29879e-09 0)
(-0.00419448 -6.08935e-09 0)
(-0.00419448 5.68048e-09 0)
(-0.00419448 -6.39243e-09 0)
(-0.00419448 6.09276e-09 0)
(-0.00419448 -6.68523e-09 0)
(-0.00419448 6.5356e-09 0)
(-0.00419448 -6.97946e-09 0)
(-0.00419448 7.00441e-09 0)
(-0.00419448 -7.30745e-09 0)
(-0.00419448 7.43862e-09 0)
(-0.00419448 -7.7049e-09 0)
(-0.00419448 7.85766e-09 0)
(-0.00419448 -8.11501e-09 0)
(-0.00419448 8.29367e-09 0)
(-0.00419448 -8.53885e-09 0)
(-0.00419448 8.75495e-09 0)
(-0.00419448 -8.97085e-09 0)
(-0.00419448 9.23039e-09 0)
(-0.00419448 -9.42149e-09 0)
(-0.00419448 9.72948e-09 0)
(-0.00419448 -9.87302e-09 0)
(-0.00419448 1.02579e-08 0)
(-0.00419448 -9.0586e-09 0)
(-0.00419448 9.31528e-09 0)
(-0.00419448 -9.10808e-09 0)
(-0.00419448 9.4439e-09 0)
(-0.00419448 -9.15262e-09 0)
(-0.00419448 9.56864e-09 0)
(-0.00419448 -9.20006e-09 0)
(-0.00419448 9.68207e-09 0)
(-0.00419448 -9.25617e-09 0)
(-0.00419448 9.78088e-09 0)
(-0.00419448 -9.30894e-09 0)
(-0.00419448 9.89752e-09 0)
(-0.00419448 -9.34316e-09 0)
(-0.00419448 9.99772e-09 0)
(-0.00419448 -9.39337e-09 0)
(-0.00419448 1.01015e-08 0)
(-0.00419448 -9.4215e-09 0)
(-0.00419448 1.02215e-08 0)
(-0.00419448 -9.2381e-09 0)
(-0.00419448 1.08364e-08 0)
(-0.00419448 -8.63377e-09 0)
(-0.00419448 1.14919e-08 0)
(-0.00419448 -8.1823e-09 0)
(-0.00419448 1.20126e-08 0)
(-0.00419448 -7.95283e-09 0)
(-0.00419448 1.21093e-08 0)
(-0.00419448 -8.00799e-09 0)
(-0.00419448 1.2316e-08 0)
(-0.00419448 -8.03372e-09 0)
(-0.00419448 1.20159e-08 0)
(-0.00419448 -8.7505e-09 0)
(-0.00419448 1.12558e-08 0)
(-0.00419448 -9.92879e-09 0)
(-0.00419448 9.75129e-09 0)
(-0.00419448 -1.16532e-08 0)
(-0.00419448 8.24825e-09 0)
(-0.00419448 -1.33365e-08 0)
(-0.00419448 6.27836e-09 0)
(-0.00419448 -1.56727e-08 0)
(-0.00419448 3.8817e-09 0)
(-0.00419448 -1.83905e-08 0)
(-0.00419448 5.36969e-10 0)
(-0.00419448 -2.21972e-08 0)
(-0.00419448 -2.96535e-09 0)
(-0.00419448 -2.59471e-08 0)
(-0.00419448 -7.95509e-09 0)
(-0.00419448 -3.12023e-08 0)
(-0.00419448 -1.40558e-08 0)
(-0.00419448 -4.50064e-08 0)
(-0.00419448 -1.00127e-08 0)
)
;

boundaryField
{
    inandouthalf11
    {
        type            cyclic;
    }
    inandouthalf12
    {
        type            cyclic;
    }
    inandouthalf21
    {
        type            cyclic;
    }
    inandouthalf22
    {
        type            cyclic;
    }
    inandouthalf31
    {
        type            cyclic;
    }
    inandouthalf32
    {
        type            cyclic;
    }
    inandouthalf41
    {
        type            cyclic;
    }
    inandouthalf42
    {
        type            cyclic;
    }
    top
    {
        type            symmetryPlane;
    }
    walls
    {
        type            calculated;
        value           uniform (0 0 0);
    }
    frontAndBackPlanes
    {
        type            empty;
    }
}


// ************************************************************************* //
