/*--------------------------------*- C++ -*----------------------------------*\
| =========                 |                                                 |
| \\      /  F ield         | OpenFOAM: The Open Source CFD Toolbox           |
|  \\    /   O peration     | Version:  2.4.x                                 |
|   \\  /    A nd           | Web:      www.OpenFOAM.org                      |
|    \\/     M anipulation  |                                                 |
\*---------------------------------------------------------------------------*/
FoamFile
{
    version     2.0;
    format      ascii;
    class       volScalarField;
    location    "5.55";
    object      epsilon_0;
}
// * * * * * * * * * * * * * * * * * * * * * * * * * * * * * * * * * * * * * //

dimensions      [0 2 -3 0 0 0 0];

internalField   nonuniform List<scalar> 
360
(
1.60309e-27
1e-20
1e-20
1e-20
1e-20
1e-20
1e-20
1e-20
1e-20
1e-20
1e-20
1e-20
1e-20
1e-20
1e-20
1e-20
1e-20
1e-20
1e-20
1e-20
1e-20
1e-20
1e-20
1e-20
1e-20
1e-20
1e-20
1e-20
1e-20
1e-20
1e-20
1e-20
1e-20
1e-20
1e-20
1e-20
1e-20
1e-20
1e-20
1e-20
1e-20
1e-20
1e-20
1e-20
1e-20
1e-20
1e-20
1e-20
1e-20
1e-20
1e-20
1e-20
1e-20
1e-20
1e-20
1e-20
1e-20
1e-20
1e-20
1e-20
1e-20
1e-20
1e-20
1e-20
1e-20
1e-20
1e-20
1e-20
1e-20
1e-20
1e-20
1e-20
1e-20
1e-20
1e-20
1e-20
1e-20
1e-20
1e-20
1e-20
1e-20
1e-20
1e-20
1e-20
1e-20
1e-20
1e-20
1e-20
1e-20
1e-20
1e-20
1e-20
1e-20
1e-20
1e-20
1e-20
1e-20
1e-20
1e-20
1e-20
1e-20
1e-20
1e-20
1e-20
1e-20
1e-20
1e-20
1e-20
1e-20
1e-20
1e-20
1e-20
1e-20
1e-20
1e-20
1e-20
1e-20
1e-20
1e-20
1e-20
1e-20
1e-20
1e-20
1e-20
1e-20
1e-20
1e-20
1e-20
1e-20
1e-20
1e-20
1e-20
2.84622e-20
1.46908e-19
8.56074e-19
5.48138e-18
3.90023e-17
3.12819e-16
2.87139e-15
3.06218e-14
3.84798e-13
5.77453e-12
1.04849e-10
2.32811e-09
6.37359e-08
2.16595e-06
9.10574e-05
0.00397032
0.0693315
0.155848
0.165454
0.158548
0.147234
0.135211
0.123781
0.113375
0.104074
0.0958216
0.0885082
0.0820152
0.0762299
0.0710522
0.0663957
0.0621873
0.0583651
0.0548772
0.05168
0.0487367
0.0460162
0.0434921
0.041142
0.0389467
0.0368898
0.0349569
0.033136
0.0314163
0.0297885
0.0282446
0.0267775
0.0253809
0.0240494
0.0227783
0.0215632
0.0204004
0.0192868
0.0182193
0.0171954
0.016213
0.01527
0.0143649
0.013496
0.0126622
0.0118623
0.0110955
0.010361
0.00965807
0.00898628
0.00834515
0.00773433
0.00715349
0.00660239
0.00607549
0.00556867
0.00508331
0.00462082
0.00418256
0.00376983
0.0033838
0.00302544
0.00269549
0.00239436
0.00212208
0.00187827
0.0016621
0.00147234
0.00130736
0.00116521
0.00104375
0.000940731
0.000853879
0.000781011
0.00072008
0.00066922
0.000626757
0.000591215
0.000561302
0.000535894
0.000514014
0.000494812
0.000477547
0.000461574
0.00044633
0.000431325
0.000416134
0.000400393
0.000383794
0.000366085
0.000347065
0.000326591
0.000304574
0.000280985
0.00025586
0.000229306
0.000201512
0.000172764
0.00014346
0.000114143
8.55305e-05
5.85723e-05
3.45237e-05
1.50829e-05
3.11083e-06
1.69789e-07
3.30358e-09
5.34755e-11
8.13575e-13
1.16734e-14
1.5806e-16
2.02775e-18
3.25763e-20
1e-20
1e-20
1e-20
1e-20
1e-20
1e-20
1e-20
1e-20
1e-20
1e-20
1e-20
1e-20
1e-20
1e-20
1e-20
1e-20
1e-20
1e-20
1e-20
1e-20
1e-20
1e-20
1e-20
1e-20
1e-20
1e-20
1e-20
1e-20
1e-20
1e-20
1e-20
1e-20
1e-20
1e-20
1e-20
1e-20
1e-20
1e-20
1e-20
1e-20
1e-20
1e-20
1e-20
1e-20
1e-20
1e-20
1e-20
1e-20
1e-20
1e-20
1e-20
1e-20
1e-20
1e-20
1e-20
1e-20
1e-20
1e-20
1e-20
1e-20
1e-20
1e-20
1e-20
1e-20
1e-20
1e-20
1e-20
1e-20
1e-20
1e-20
1e-20
1e-20
1e-20
1e-20
1e-20
1e-20
1e-20
1e-20
1e-20
1e-20
1e-20
1e-20
1e-20
1e-20
1e-20
1e-20
1e-20
1e-20
1e-20
1e-20
1e-20
1e-20
1e-20
1e-20
1e-20
1e-20
1e-20
1e-20
1e-20
1e-20
)
;

boundaryField
{
    inandouthalf11
    {
        type            cyclic;
    }
    inandouthalf12
    {
        type            cyclic;
    }
    inandouthalf21
    {
        type            cyclic;
    }
    inandouthalf22
    {
        type            cyclic;
    }
    inandouthalf31
    {
        type            cyclic;
    }
    inandouthalf32
    {
        type            cyclic;
    }
    inandouthalf41
    {
        type            cyclic;
    }
    inandouthalf42
    {
        type            cyclic;
    }
    top
    {
        type            symmetryPlane;
    }
    walls
    {
        type            zeroGradient;
    }
    frontAndBackPlanes
    {
        type            empty;
    }
}


// ************************************************************************* //
