/*--------------------------------*- C++ -*----------------------------------*\
| =========                 |                                                 |
| \\      /  F ield         | OpenFOAM: The Open Source CFD Toolbox           |
|  \\    /   O peration     | Version:  2.4.x                                 |
|   \\  /    A nd           | Web:      www.OpenFOAM.org                      |
|    \\/     M anipulation  |                                                 |
\*---------------------------------------------------------------------------*/
FoamFile
{
    version     2.0;
    format      ascii;
    class       volScalarField;
    location    "5.55";
    object      epsilon;
}
// * * * * * * * * * * * * * * * * * * * * * * * * * * * * * * * * * * * * * //

dimensions      [0 2 -3 0 0 0 0];

internalField   nonuniform List<scalar> 
360
(
1e-20
1e-20
1e-20
1e-20
1e-20
1e-20
1e-20
1e-20
1e-20
1e-20
1e-20
1e-20
1e-20
1e-20
1e-20
1e-20
1e-20
1e-20
1e-20
1e-20
1e-20
1e-20
1e-20
1e-20
1e-20
1e-20
1e-20
1e-20
1e-20
1e-20
1e-20
1e-20
1e-20
1e-20
1e-20
1e-20
1e-20
1e-20
1e-20
1e-20
1e-20
1e-20
1e-20
1e-20
1e-20
1e-20
1e-20
1e-20
1e-20
1e-20
1e-20
1e-20
1e-20
1e-20
1e-20
1e-20
1e-20
1e-20
1e-20
1e-20
1e-20
1e-20
1e-20
1e-20
1e-20
1e-20
1e-20
1e-20
1e-20
1e-20
1e-20
1e-20
1e-20
1e-20
1e-20
1e-20
1e-20
1e-20
1e-20
1e-20
1e-20
1e-20
1e-20
1e-20
1e-20
1e-20
1e-20
1e-20
1e-20
1e-20
1e-20
1e-20
1e-20
1e-20
1e-20
1e-20
1e-20
1e-20
1e-20
1e-20
1e-20
1e-20
1e-20
1e-20
1e-20
1e-20
1e-20
1e-20
1e-20
1e-20
1e-20
1e-20
1e-20
1e-20
1e-20
1e-20
1e-20
1e-20
1e-20
1e-20
1e-20
1e-20
1e-20
1e-20
1e-20
1e-20
1e-20
1e-20
1e-20
1e-20
1e-20
1e-20
2.84587e-20
1.46886e-19
8.55932e-19
5.48037e-18
3.89943e-17
3.12748e-16
2.87068e-15
3.06137e-14
3.8469e-13
5.77283e-12
1.04816e-10
2.32735e-09
6.3714e-08
2.16517e-06
9.10228e-05
0.00396894
0.0693207
0.155843
0.165448
0.158541
0.147227
0.135204
0.123774
0.113369
0.104069
0.0958164
0.0885034
0.0820107
0.0762258
0.0710485
0.0663924
0.0621843
0.0583625
0.0548749
0.0516779
0.0487349
0.0460146
0.0434907
0.0411409
0.0389458
0.036889
0.0349564
0.0331357
0.0314161
0.0297885
0.0282447
0.0267777
0.0253813
0.0240499
0.0227789
0.0215639
0.0204013
0.0192877
0.0182203
0.0171966
0.0162142
0.0152713
0.0143662
0.0134974
0.0126636
0.0118638
0.011097
0.0103625
0.00965967
0.0089879
0.00834678
0.00773595
0.0071551
0.00660398
0.00607706
0.0055702
0.0050848
0.00462225
0.00418393
0.00377113
0.00338501
0.00302657
0.00269653
0.0023953
0.00212292
0.001879
0.00166274
0.00147289
0.00130781
0.00116559
0.00104406
0.000940969
0.000854061
0.000781144
0.000720173
0.000669278
0.000626787
0.000591222
0.000561292
0.000535869
0.000513978
0.000494767
0.000477497
0.00046152
0.000446274
0.000431269
0.00041608
0.000400341
0.000383746
0.00036604
0.000347026
0.000326558
0.000304547
0.000280965
0.000255847
0.0002293
0.000201512
0.000172771
0.000143473
0.000114161
8.55523e-05
5.85961e-05
3.45468e-05
1.51022e-05
3.11928e-06
1.70578e-07
3.32114e-09
5.3767e-11
8.18106e-13
1.17397e-14
1.58976e-16
2.03969e-18
3.27219e-20
1e-20
1e-20
1e-20
1e-20
1e-20
1e-20
1e-20
1e-20
1e-20
1e-20
1e-20
1e-20
1e-20
1e-20
1e-20
1e-20
1e-20
1e-20
1e-20
1e-20
1e-20
1e-20
1e-20
1e-20
1e-20
1e-20
1e-20
1e-20
1e-20
1e-20
1e-20
1e-20
1e-20
1e-20
1e-20
1e-20
1e-20
1e-20
1e-20
1e-20
1e-20
1e-20
1e-20
1e-20
1e-20
1e-20
1e-20
1e-20
1e-20
1e-20
1e-20
1e-20
1e-20
1e-20
1e-20
1e-20
1e-20
1e-20
1e-20
1e-20
1e-20
1e-20
1e-20
1e-20
1e-20
1e-20
1e-20
1e-20
1e-20
1e-20
1e-20
1e-20
1e-20
1e-20
1e-20
1e-20
1e-20
1e-20
1e-20
1e-20
1e-20
1e-20
1e-20
1e-20
1e-20
1e-20
1e-20
1e-20
1e-20
1e-20
1e-20
1e-20
1e-20
1e-20
1e-20
1e-20
1e-20
1e-20
1e-20
1e-20
)
;

boundaryField
{
    inandouthalf11
    {
        type            cyclic;
    }
    inandouthalf12
    {
        type            cyclic;
    }
    inandouthalf21
    {
        type            cyclic;
    }
    inandouthalf22
    {
        type            cyclic;
    }
    inandouthalf31
    {
        type            cyclic;
    }
    inandouthalf32
    {
        type            cyclic;
    }
    inandouthalf41
    {
        type            cyclic;
    }
    inandouthalf42
    {
        type            cyclic;
    }
    top
    {
        type            symmetryPlane;
    }
    walls
    {
        type            zeroGradient;
    }
    frontAndBackPlanes
    {
        type            empty;
    }
}


// ************************************************************************* //
