/*--------------------------------*- C++ -*----------------------------------*\
| =========                 |                                                 |
| \\      /  F ield         | OpenFOAM: The Open Source CFD Toolbox           |
|  \\    /   O peration     | Version:  2.4.x                                 |
|   \\  /    A nd           | Web:      www.OpenFOAM.org                      |
|    \\/     M anipulation  |                                                 |
\*---------------------------------------------------------------------------*/
FoamFile
{
    version     2.0;
    format      ascii;
    class       volScalarField;
    location    "5.55";
    object      pa;
}
// * * * * * * * * * * * * * * * * * * * * * * * * * * * * * * * * * * * * * //

dimensions      [1 -1 -2 0 0 0 0];

internalField   nonuniform List<scalar> 
360
(
2.89837e-16
2.92573e-16
2.92695e-16
2.92391e-16
2.92279e-16
2.92254e-16
2.92212e-16
2.92151e-16
2.92087e-16
2.92022e-16
2.91958e-16
2.91895e-16
2.91832e-16
2.91768e-16
2.91703e-16
2.91637e-16
2.9157e-16
2.91504e-16
2.91436e-16
2.91367e-16
2.91298e-16
2.91227e-16
2.91156e-16
2.91085e-16
2.91014e-16
2.90943e-16
2.90873e-16
2.90805e-16
2.90738e-16
2.90674e-16
2.9061e-16
2.90544e-16
2.90476e-16
2.904e-16
2.90315e-16
2.90215e-16
2.90101e-16
2.89974e-16
2.8984e-16
2.89711e-16
2.89591e-16
2.89497e-16
2.89443e-16
2.89449e-16
2.89554e-16
2.89814e-16
2.90319e-16
2.91142e-16
2.92153e-16
2.9272e-16
2.91958e-16
2.90008e-16
2.88264e-16
2.87465e-16
2.87238e-16
2.87157e-16
2.87097e-16
2.87034e-16
2.86969e-16
2.86902e-16
2.86829e-16
2.86755e-16
2.86678e-16
2.86599e-16
2.86519e-16
2.86437e-16
2.86351e-16
2.86263e-16
2.86172e-16
2.86079e-16
2.8598e-16
2.85877e-16
2.85773e-16
2.85665e-16
2.85554e-16
2.8544e-16
2.85324e-16
2.85207e-16
2.85086e-16
2.84962e-16
2.84836e-16
2.84707e-16
2.84573e-16
2.84437e-16
2.84297e-16
2.84154e-16
2.84007e-16
2.83858e-16
2.83706e-16
2.8355e-16
2.83392e-16
2.8323e-16
2.83064e-16
2.82894e-16
2.82721e-16
2.82544e-16
2.82363e-16
2.82177e-16
2.81988e-16
2.81794e-16
2.81596e-16
2.81393e-16
2.81186e-16
2.80973e-16
2.80756e-16
2.80533e-16
2.80305e-16
2.80071e-16
2.79832e-16
2.79586e-16
2.79334e-16
2.79075e-16
2.78809e-16
2.78537e-16
2.78256e-16
2.77968e-16
2.77671e-16
2.77366e-16
2.77052e-16
2.76729e-16
2.76396e-16
2.76053e-16
2.75699e-16
2.75334e-16
2.74958e-16
2.74569e-16
2.74167e-16
2.73751e-16
2.73319e-16
2.72871e-16
2.72406e-16
2.71924e-16
5.62377e-16
2.52223e-15
1.28883e-14
7.14715e-14
4.34377e-13
2.93486e-12
2.24027e-11
1.96394e-10
2.0071e-09
2.42524e-08
3.51704e-07
6.23449e-06
0.000165271
0.0115858
0.451324
5.18135
4.45429
3.98622
3.19257
2.49361
1.93611
1.50462
1.17482
0.923551
0.731637
0.584214
0.470114
0.38107
0.31099
0.255379
0.210902
0.175068
0.146
0.122272
0.10279
0.0867108
0.0733747
0.0622649
0.0529722
0.0451705
0.0385985
0.0330449
0.0283387
0.0243402
0.0209348
0.0180281
0.0155421
0.013412
0.0115836
0.0100116
0.00865819
0.00749105
0.00648286
0.00561016
0.00485272
0.00419321
0.00361699
0.00311214
0.00266935
0.00228151
0.00194307
0.00164968
0.00139782
0.00118366
0.0010021
0.000847282
0.000714059
0.000599158
0.000500964
0.000417068
0.000345323
0.00028524
0.000235587
0.000194066
0.000159664
0.000131641
0.00010842
8.91557e-05
7.34047e-05
6.03696e-05
4.96317e-05
4.08159e-05
3.34085e-05
2.73557e-05
2.23961e-05
1.81881e-05
1.47537e-05
1.19497e-05
9.61765e-06
7.70809e-06
6.12806e-06
4.86204e-06
3.82618e-06
2.9693e-06
2.29375e-06
1.74703e-06
1.31013e-06
9.67451e-07
7.00809e-07
4.95027e-07
3.40423e-07
2.12791e-07
1.3053e-07
6.36005e-08
0
0
0
0
0
0
0
0
0
0
0
0
0
0
0
0
0
0
0
0
0
0
0
0
0
0
0
0
0
0
0
0
0
0
0
0
0
0
0
0
0
0
0
0
0
0
0
0
0
0
0
0
0
0
0
0
0
0
0
0
0
0
0
0
0
0
0
0
0
0
0
0
0
0
0
0
0
0
0
0
0
0
0
0
0
0
0
0
0
0
0
0
0
0
0
0
0
0
0
0
0
0
0
0
0
0
0
0
0
0
0
0
0
0
0
0
0
0
0
0
0
0
0
0
)
;

boundaryField
{
    inandouthalf11
    {
        type            cyclic;
    }
    inandouthalf12
    {
        type            cyclic;
    }
    inandouthalf21
    {
        type            cyclic;
    }
    inandouthalf22
    {
        type            cyclic;
    }
    inandouthalf31
    {
        type            cyclic;
    }
    inandouthalf32
    {
        type            cyclic;
    }
    inandouthalf41
    {
        type            cyclic;
    }
    inandouthalf42
    {
        type            cyclic;
    }
    top
    {
        type            symmetryPlane;
    }
    walls
    {
        type            calculated;
        value           uniform 2.89837e-16;
    }
    frontAndBackPlanes
    {
        type            empty;
    }
}


// ************************************************************************* //
