/*--------------------------------*- C++ -*----------------------------------*\
| =========                 |                                                 |
| \\      /  F ield         | OpenFOAM: The Open Source CFD Toolbox           |
|  \\    /   O peration     | Version:  2.4.x                                 |
|   \\  /    A nd           | Web:      www.OpenFOAM.org                      |
|    \\/     M anipulation  |                                                 |
\*---------------------------------------------------------------------------*/
FoamFile
{
    version     2.0;
    format      ascii;
    class       surfaceScalarField;
    location    "5.55";
    object      phia_0;
}
// * * * * * * * * * * * * * * * * * * * * * * * * * * * * * * * * * * * * * //

dimensions      [0 3 -1 0 0 0 0];

internalField   nonuniform List<scalar> 
359
(
-4.57612e-13
-1.21425e-12
-1.90947e-12
-2.55726e-12
-3.21262e-12
-3.8854e-12
-4.56784e-12
-5.25415e-12
-5.94239e-12
-6.63361e-12
-7.32924e-12
-8.02983e-12
-8.73544e-12
-9.44564e-12
-1.01602e-11
-1.0879e-11
-1.16024e-11
-1.23301e-11
-1.30621e-11
-1.37984e-11
-1.45385e-11
-1.52826e-11
-1.60306e-11
-1.67826e-11
-1.75388e-11
-1.82997e-11
-1.9066e-11
-1.98389e-11
-2.06194e-11
-2.14085e-11
-2.22066e-11
-2.30142e-11
-2.38296e-11
-2.4651e-11
-2.54738e-11
-2.62929e-11
-2.7102e-11
-2.7896e-11
-2.86716e-11
-2.9428e-11
-3.01708e-11
-3.09108e-11
-3.16656e-11
-3.24628e-11
-3.3339e-11
-3.43436e-11
-3.55351e-11
-3.69654e-11
-3.86407e-11
-4.04547e-11
-4.21562e-11
-4.34601e-11
-4.42387e-11
-4.45924e-11
-4.47145e-11
-4.47475e-11
-4.4755e-11
-4.47566e-11
-4.47569e-11
-4.4757e-11
-4.4757e-11
-4.4757e-11
-4.4757e-11
-4.4757e-11
-4.47571e-11
-4.47571e-11
-4.47571e-11
-4.47571e-11
-4.47571e-11
-4.47571e-11
-4.47571e-11
-4.47571e-11
-4.47571e-11
-4.47571e-11
-4.47572e-11
-4.47572e-11
-4.47572e-11
-4.47572e-11
-4.47572e-11
-4.47572e-11
-4.47573e-11
-4.47573e-11
-4.47573e-11
-4.47573e-11
-4.47573e-11
-4.47573e-11
-4.47573e-11
-4.47574e-11
-4.47574e-11
-4.47574e-11
-4.47574e-11
-4.47574e-11
-4.47574e-11
-4.47575e-11
-4.47575e-11
-4.47575e-11
-4.47575e-11
-4.47575e-11
-4.47575e-11
-4.47576e-11
-4.47576e-11
-4.47576e-11
-4.47576e-11
-4.47576e-11
-4.47576e-11
-4.47577e-11
-4.47577e-11
-4.47577e-11
-4.47577e-11
-4.47577e-11
-4.47578e-11
-4.47578e-11
-4.47578e-11
-4.47578e-11
-4.47578e-11
-4.47579e-11
-4.47579e-11
-4.47579e-11
-4.47579e-11
-4.47579e-11
-4.4758e-11
-4.4758e-11
-4.4758e-11
-4.4758e-11
-4.4758e-11
-4.4758e-11
-4.47581e-11
-4.47581e-11
-4.47581e-11
-4.47581e-11
-4.47581e-11
-4.47582e-11
-4.47582e-11
-4.47582e-11
-4.47582e-11
-4.47582e-11
-4.47582e-11
-4.47582e-11
-4.47582e-11
-4.47582e-11
-4.47582e-11
-4.47583e-11
-4.47583e-11
-4.47583e-11
-4.47583e-11
-4.47583e-11
-4.69339e-11
-7.78299e-10
-1.32014e-09
-1.75536e-09
-2.03069e-09
-2.24076e-09
-2.40261e-09
-2.51825e-09
-2.58566e-09
-2.60261e-09
-2.56781e-09
-2.48109e-09
-2.34319e-09
-2.15557e-09
-1.92002e-09
-1.63859e-09
-1.31332e-09
-9.46246e-10
-5.39296e-10
-9.42994e-11
3.87049e-10
9.03123e-10
1.45241e-09
2.03347e-09
2.64492e-09
3.28542e-09
3.95367e-09
4.64837e-09
5.36827e-09
6.11209e-09
6.87857e-09
7.6664e-09
8.47427e-09
9.30082e-09
1.01446e-08
1.10041e-08
1.18775e-08
1.27627e-08
1.36567e-08
1.45547e-08
1.54499e-08
1.63326e-08
1.71903e-08
1.80088e-08
1.8774e-08
1.9474e-08
2.01006e-08
2.06508e-08
2.11278e-08
2.15399e-08
2.1896e-08
2.22016e-08
2.24575e-08
2.26633e-08
2.28212e-08
2.29377e-08
2.30139e-08
2.30554e-08
2.307e-08
2.30602e-08
2.30294e-08
2.29847e-08
2.29277e-08
2.28598e-08
2.27849e-08
2.27036e-08
2.26172e-08
2.25283e-08
2.24346e-08
2.2338e-08
2.22407e-08
2.21383e-08
2.20324e-08
2.19239e-08
2.18104e-08
2.16926e-08
2.15669e-08
2.14358e-08
2.1298e-08
2.11472e-08
2.09867e-08
2.08116e-08
2.06177e-08
2.04021e-08
2.01603e-08
1.98824e-08
1.95746e-08
1.91563e-08
1.8735e-08
1.74155e-08
4.17844e-09
1.09524e-08
4.84972e-09
-1.10704e-07
-1.5851e-07
-1.5839e-07
-1.58373e-07
-1.58381e-07
-1.58385e-07
-1.58388e-07
-1.58388e-07
-1.58384e-07
-1.58375e-07
-1.58355e-07
-1.58315e-07
-1.58231e-07
-1.582e-07
-1.582e-07
-1.582e-07
-1.582e-07
-1.582e-07
-1.582e-07
-1.582e-07
-1.582e-07
-1.582e-07
-1.582e-07
-1.582e-07
-1.582e-07
-1.582e-07
-1.582e-07
-1.582e-07
-1.582e-07
-1.582e-07
-1.582e-07
-1.582e-07
-1.582e-07
-1.582e-07
-1.582e-07
-1.582e-07
-1.582e-07
-1.582e-07
-1.582e-07
-1.582e-07
-1.582e-07
-1.582e-07
-1.582e-07
-1.582e-07
-1.582e-07
-1.582e-07
-1.582e-07
-1.582e-07
-1.582e-07
-1.582e-07
-1.582e-07
-1.582e-07
-1.582e-07
-1.582e-07
-1.582e-07
-1.582e-07
-1.582e-07
-1.582e-07
-1.582e-07
-1.582e-07
-1.582e-07
-1.582e-07
-1.582e-07
-1.582e-07
-1.582e-07
-1.582e-07
-1.582e-07
-1.582e-07
-1.582e-07
-1.582e-07
-1.582e-07
-1.582e-07
-1.582e-07
-1.582e-07
-1.582e-07
-1.582e-07
-1.582e-07
-1.582e-07
-1.582e-07
-1.582e-07
-1.582e-07
-1.582e-07
-1.582e-07
-1.582e-07
-1.582e-07
-1.582e-07
-1.582e-07
-1.582e-07
-1.582e-07
-1.582e-07
-1.582e-07
-1.582e-07
-1.582e-07
-1.582e-07
-1.582e-07
-1.582e-07
-1.582e-07
-1.582e-07
-1.582e-07
-1.582e-07
-1.582e-07
-1.582e-07
-1.582e-07
-1.582e-07
-1.582e-07
-1.582e-07
-1.582e-07
-1.582e-07
-1.582e-07
-1.582e-07
-1.582e-07
-1.582e-07
-1.582e-07
-1.582e-07
-1.582e-07
-1.582e-07
-1.582e-07
-1.58183e-07
-1.57477e-07
-1.32608e-07
)
;

boundaryField
{
    inandouthalf11
    {
        type            cyclic;
        value           nonuniform List<scalar> 
100
(
1.01981e-38
3.39391e-14
7.31036e-14
1.07879e-13
1.42291e-13
1.7807e-13
2.14872e-13
2.52241e-13
2.90008e-13
3.2817e-13
3.668e-13
4.05962e-13
4.45682e-13
4.85951e-13
5.26758e-13
5.68102e-13
6.09992e-13
6.52438e-13
6.95443e-13
7.39011e-13
7.83136e-13
8.27815e-13
8.73055e-13
9.18866e-13
9.65267e-13
1.01229e-12
1.05997e-12
1.10839e-12
1.15762e-12
1.20774e-12
1.25881e-12
1.31088e-12
1.36392e-12
1.41783e-12
1.47241e-12
1.52736e-12
1.58227e-12
1.63677e-12
1.69054e-12
1.74344e-12
1.79561e-12
1.84761e-12
1.90043e-12
1.95566e-12
2.01561e-12
2.0834e-12
2.16308e-12
2.25908e-12
2.37437e-12
2.50614e-12
2.64072e-12
2.75527e-12
2.83174e-12
2.87022e-12
2.88467e-12
2.88883e-12
2.88981e-12
2.89002e-12
2.89006e-12
2.89008e-12
2.89008e-12
2.89008e-12
2.89008e-12
2.89008e-12
2.89008e-12
2.89008e-12
2.89008e-12
2.89008e-12
2.89008e-12
2.89008e-12
2.89009e-12
2.89009e-12
2.89009e-12
2.89009e-12
2.89009e-12
2.89009e-12
2.89009e-12
2.89009e-12
2.8901e-12
2.8901e-12
2.8901e-12
2.8901e-12
2.8901e-12
2.8901e-12
2.89011e-12
2.89011e-12
2.89011e-12
2.89011e-12
2.89011e-12
2.89011e-12
2.89012e-12
2.89012e-12
2.89012e-12
2.89012e-12
2.89012e-12
2.89012e-12
2.89013e-12
2.89013e-12
2.89013e-12
2.89013e-12
)
;
    }
    inandouthalf12
    {
        type            cyclic;
        value           nonuniform List<scalar> 
100
(
-1.01981e-38
-3.39391e-14
-7.31036e-14
-1.07879e-13
-1.42291e-13
-1.7807e-13
-2.14872e-13
-2.52241e-13
-2.90008e-13
-3.2817e-13
-3.668e-13
-4.05962e-13
-4.45682e-13
-4.85951e-13
-5.26758e-13
-5.68102e-13
-6.09992e-13
-6.52438e-13
-6.95443e-13
-7.39011e-13
-7.83136e-13
-8.27815e-13
-8.73055e-13
-9.18866e-13
-9.65267e-13
-1.01229e-12
-1.05997e-12
-1.10839e-12
-1.15762e-12
-1.20774e-12
-1.25881e-12
-1.31088e-12
-1.36392e-12
-1.41783e-12
-1.47241e-12
-1.52736e-12
-1.58227e-12
-1.63677e-12
-1.69054e-12
-1.74344e-12
-1.79561e-12
-1.84761e-12
-1.90043e-12
-1.95566e-12
-2.01561e-12
-2.0834e-12
-2.16308e-12
-2.25908e-12
-2.37437e-12
-2.50614e-12
-2.64072e-12
-2.75527e-12
-2.83174e-12
-2.87022e-12
-2.88467e-12
-2.88883e-12
-2.88981e-12
-2.89002e-12
-2.89006e-12
-2.89008e-12
-2.89008e-12
-2.89008e-12
-2.89008e-12
-2.89008e-12
-2.89008e-12
-2.89008e-12
-2.89008e-12
-2.89008e-12
-2.89008e-12
-2.89008e-12
-2.89009e-12
-2.89009e-12
-2.89009e-12
-2.89009e-12
-2.89009e-12
-2.89009e-12
-2.89009e-12
-2.89009e-12
-2.8901e-12
-2.8901e-12
-2.8901e-12
-2.8901e-12
-2.8901e-12
-2.8901e-12
-2.89011e-12
-2.89011e-12
-2.89011e-12
-2.89011e-12
-2.89011e-12
-2.89011e-12
-2.89012e-12
-2.89012e-12
-2.89012e-12
-2.89012e-12
-2.89012e-12
-2.89012e-12
-2.89013e-12
-2.89013e-12
-2.89013e-12
-2.89013e-12
)
;
    }
    inandouthalf21
    {
        type            cyclic;
        value           nonuniform List<scalar> 
100
(
2.89013e-12
2.89014e-12
2.89014e-12
2.89014e-12
2.89014e-12
2.89015e-12
2.89015e-12
2.89015e-12
2.89015e-12
2.89016e-12
2.89016e-12
2.89016e-12
2.89016e-12
2.89017e-12
2.89017e-12
2.89017e-12
2.89017e-12
2.89018e-12
2.89018e-12
2.89018e-12
2.89018e-12
2.89019e-12
2.89019e-12
2.89019e-12
2.8902e-12
2.8902e-12
2.8902e-12
2.89021e-12
2.89021e-12
2.89021e-12
2.89022e-12
2.89022e-12
2.89023e-12
2.89023e-12
2.89023e-12
2.89023e-12
2.89024e-12
2.89024e-12
2.89024e-12
2.89025e-12
2.89025e-12
2.89025e-12
2.89025e-12
2.89025e-12
2.89025e-12
2.89025e-12
2.89025e-12
7.94643e-12
6.87235e-08
1.66472e-07
2.42511e-07
3.03089e-07
3.52706e-07
3.94245e-07
4.29642e-07
4.60268e-07
4.87126e-07
5.10965e-07
5.32352e-07
5.51719e-07
5.69398e-07
5.8565e-07
6.00681e-07
6.14652e-07
6.27696e-07
6.39919e-07
6.51409e-07
6.62237e-07
6.72463e-07
6.82138e-07
6.91304e-07
6.99995e-07
7.08244e-07
7.16074e-07
7.23509e-07
7.30568e-07
7.37268e-07
7.43623e-07
7.49646e-07
7.55349e-07
7.60741e-07
7.65834e-07
7.70634e-07
7.75151e-07
7.79393e-07
7.83366e-07
7.87079e-07
7.9054e-07
7.93756e-07
7.96737e-07
7.99492e-07
8.02031e-07
8.04367e-07
8.0651e-07
8.08474e-07
8.1027e-07
8.11911e-07
8.13408e-07
8.14773e-07
8.16018e-07
)
;
    }
    inandouthalf22
    {
        type            cyclic;
        value           nonuniform List<scalar> 
100
(
-2.89013e-12
-2.89014e-12
-2.89014e-12
-2.89014e-12
-2.89014e-12
-2.89015e-12
-2.89015e-12
-2.89015e-12
-2.89015e-12
-2.89016e-12
-2.89016e-12
-2.89016e-12
-2.89016e-12
-2.89017e-12
-2.89017e-12
-2.89017e-12
-2.89017e-12
-2.89018e-12
-2.89018e-12
-2.89018e-12
-2.89018e-12
-2.89019e-12
-2.89019e-12
-2.89019e-12
-2.8902e-12
-2.8902e-12
-2.8902e-12
-2.89021e-12
-2.89021e-12
-2.89021e-12
-2.89022e-12
-2.89022e-12
-2.89023e-12
-2.89023e-12
-2.89023e-12
-2.89023e-12
-2.89024e-12
-2.89024e-12
-2.89024e-12
-2.89025e-12
-2.89025e-12
-2.89025e-12
-2.89025e-12
-2.89025e-12
-2.89025e-12
-2.89025e-12
-2.89025e-12
-7.94643e-12
-6.87235e-08
-1.66472e-07
-2.42511e-07
-3.03089e-07
-3.52706e-07
-3.94245e-07
-4.29642e-07
-4.60268e-07
-4.87126e-07
-5.10965e-07
-5.32352e-07
-5.51719e-07
-5.69398e-07
-5.8565e-07
-6.00681e-07
-6.14652e-07
-6.27696e-07
-6.39919e-07
-6.51409e-07
-6.62237e-07
-6.72463e-07
-6.82138e-07
-6.91304e-07
-6.99995e-07
-7.08244e-07
-7.16074e-07
-7.23509e-07
-7.30568e-07
-7.37268e-07
-7.43623e-07
-7.49646e-07
-7.55349e-07
-7.60741e-07
-7.65834e-07
-7.70634e-07
-7.75151e-07
-7.79393e-07
-7.83366e-07
-7.87079e-07
-7.9054e-07
-7.93756e-07
-7.96737e-07
-7.99492e-07
-8.02031e-07
-8.04367e-07
-8.0651e-07
-8.08474e-07
-8.1027e-07
-8.11911e-07
-8.13408e-07
-8.14773e-07
-8.16018e-07
)
;
    }
    inandouthalf31
    {
        type            cyclic;
        value           nonuniform List<scalar> 
110
(
8.17157e-07
8.34815e-07
8.52781e-07
8.71067e-07
8.89683e-07
9.0864e-07
9.27951e-07
9.47627e-07
9.67679e-07
9.88118e-07
1.00896e-06
1.03021e-06
1.05188e-06
1.07399e-06
1.09654e-06
1.11955e-06
1.14303e-06
1.16699e-06
1.19144e-06
1.2164e-06
1.24187e-06
1.26787e-06
1.29441e-06
1.3215e-06
1.34916e-06
1.37738e-06
1.4062e-06
1.43561e-06
1.46564e-06
1.49629e-06
1.52757e-06
1.55949e-06
1.59205e-06
1.62529e-06
1.6592e-06
1.69378e-06
1.72933e-06
1.91003e-06
1.94633e-06
1.98076e-06
2.01692e-06
2.05281e-06
2.08984e-06
2.12741e-06
2.16564e-06
2.20456e-06
2.24425e-06
2.28479e-06
2.32628e-06
2.36887e-06
2.41278e-06
2.45899e-06
2.5081e-06
2.55895e-06
2.61089e-06
2.66388e-06
2.71795e-06
2.77312e-06
2.82941e-06
2.88683e-06
2.94543e-06
3.00521e-06
3.06621e-06
3.12845e-06
3.19195e-06
3.25673e-06
3.32284e-06
3.39028e-06
3.45909e-06
3.5293e-06
3.60094e-06
3.67403e-06
3.7486e-06
3.82469e-06
3.90232e-06
3.98153e-06
4.06234e-06
4.1448e-06
4.22892e-06
4.31476e-06
4.40234e-06
4.49169e-06
4.58286e-06
4.67588e-06
4.77079e-06
4.86763e-06
4.96643e-06
5.06723e-06
5.17008e-06
5.27502e-06
5.38209e-06
5.49133e-06
5.60279e-06
5.71651e-06
5.83254e-06
5.95093e-06
6.07172e-06
6.19496e-06
6.3207e-06
6.44899e-06
6.57989e-06
6.71344e-06
6.84971e-06
6.98874e-06
7.13059e-06
7.27532e-06
7.42299e-06
7.57366e-06
7.72738e-06
7.88423e-06
)
;
    }
    inandouthalf32
    {
        type            cyclic;
        value           nonuniform List<scalar> 
110
(
-8.17157e-07
-8.34815e-07
-8.52781e-07
-8.71067e-07
-8.89683e-07
-9.0864e-07
-9.27951e-07
-9.47627e-07
-9.67679e-07
-9.88118e-07
-1.00896e-06
-1.03021e-06
-1.05188e-06
-1.07399e-06
-1.09654e-06
-1.11955e-06
-1.14303e-06
-1.16699e-06
-1.19144e-06
-1.2164e-06
-1.24187e-06
-1.26787e-06
-1.29441e-06
-1.3215e-06
-1.34916e-06
-1.37738e-06
-1.4062e-06
-1.43561e-06
-1.46564e-06
-1.49629e-06
-1.52757e-06
-1.55949e-06
-1.59205e-06
-1.62529e-06
-1.6592e-06
-1.69378e-06
-1.72933e-06
-1.91003e-06
-1.94633e-06
-1.98076e-06
-2.01692e-06
-2.05281e-06
-2.08984e-06
-2.12741e-06
-2.16564e-06
-2.20456e-06
-2.24425e-06
-2.28479e-06
-2.32628e-06
-2.36887e-06
-2.41278e-06
-2.45899e-06
-2.5081e-06
-2.55895e-06
-2.61089e-06
-2.66388e-06
-2.71795e-06
-2.77312e-06
-2.82941e-06
-2.88683e-06
-2.94543e-06
-3.00521e-06
-3.06621e-06
-3.12845e-06
-3.19195e-06
-3.25673e-06
-3.32284e-06
-3.39028e-06
-3.45909e-06
-3.5293e-06
-3.60094e-06
-3.67403e-06
-3.7486e-06
-3.82469e-06
-3.90232e-06
-3.98153e-06
-4.06234e-06
-4.1448e-06
-4.22892e-06
-4.31476e-06
-4.40234e-06
-4.49169e-06
-4.58286e-06
-4.67588e-06
-4.77079e-06
-4.86763e-06
-4.96643e-06
-5.06723e-06
-5.17008e-06
-5.27502e-06
-5.38209e-06
-5.49133e-06
-5.60279e-06
-5.71651e-06
-5.83254e-06
-5.95093e-06
-6.07172e-06
-6.19496e-06
-6.3207e-06
-6.44899e-06
-6.57989e-06
-6.71344e-06
-6.84971e-06
-6.98874e-06
-7.13059e-06
-7.27532e-06
-7.42299e-06
-7.57366e-06
-7.72738e-06
-7.88423e-06
)
;
    }
    inandouthalf41
    {
        type            cyclic;
        value           nonuniform List<scalar> 
50
(
7.05719e-06
7.05719e-06
7.05719e-06
7.05719e-06
7.05719e-06
7.05719e-06
7.05719e-06
7.05719e-06
7.05719e-06
7.05719e-06
7.05719e-06
7.05719e-06
7.05719e-06
7.05719e-06
7.05719e-06
7.05719e-06
7.05719e-06
7.05719e-06
7.05719e-06
7.05719e-06
7.05719e-06
7.05719e-06
7.05719e-06
7.05719e-06
7.05719e-06
7.05719e-06
7.05719e-06
7.05719e-06
7.05719e-06
7.05719e-06
7.05719e-06
7.05719e-06
7.05719e-06
7.05719e-06
7.05719e-06
7.05719e-06
7.05719e-06
7.05719e-06
7.05719e-06
7.05719e-06
7.05719e-06
7.05719e-06
7.05719e-06
7.05719e-06
7.05719e-06
7.05719e-06
7.05719e-06
7.05719e-06
7.05719e-06
7.05717e-06
)
;
    }
    inandouthalf42
    {
        type            cyclic;
        value           nonuniform List<scalar> 
50
(
-7.05719e-06
-7.05719e-06
-7.05719e-06
-7.05719e-06
-7.05719e-06
-7.05719e-06
-7.05719e-06
-7.05719e-06
-7.05719e-06
-7.05719e-06
-7.05719e-06
-7.05719e-06
-7.05719e-06
-7.05719e-06
-7.05719e-06
-7.05719e-06
-7.05719e-06
-7.05719e-06
-7.05719e-06
-7.05719e-06
-7.05719e-06
-7.05719e-06
-7.05719e-06
-7.05719e-06
-7.05719e-06
-7.05719e-06
-7.05719e-06
-7.05719e-06
-7.05719e-06
-7.05719e-06
-7.05719e-06
-7.05719e-06
-7.05719e-06
-7.05719e-06
-7.05719e-06
-7.05719e-06
-7.05719e-06
-7.05719e-06
-7.05719e-06
-7.05719e-06
-7.05719e-06
-7.05719e-06
-7.05719e-06
-7.05719e-06
-7.05719e-06
-7.05719e-06
-7.05719e-06
-7.05719e-06
-7.05719e-06
-7.05717e-06
)
;
    }
    top
    {
        type            symmetryPlane;
        value           uniform 0;
    }
    walls
    {
        type            fixedValue;
        value           uniform 0;
    }
    frontAndBackPlanes
    {
        type            empty;
        value           nonuniform 0();
    }
}


// ************************************************************************* //
