/*--------------------------------*- C++ -*----------------------------------*\
| =========                 |                                                 |
| \\      /  F ield         | OpenFOAM: The Open Source CFD Toolbox           |
|  \\    /   O peration     | Version:  2.4.x                                 |
|   \\  /    A nd           | Web:      www.OpenFOAM.org                      |
|    \\/     M anipulation  |                                                 |
\*---------------------------------------------------------------------------*/
FoamFile
{
    version     2.0;
    format      ascii;
    class       volScalarField;
    location    "5.55";
    object      Theta;
}
// * * * * * * * * * * * * * * * * * * * * * * * * * * * * * * * * * * * * * //

dimensions      [0 2 -2 0 0 0 0];

internalField   nonuniform List<scalar> 
360
(
6.66762e-21
6.68342e-21
6.67776e-21
6.67529e-21
6.67605e-21
6.67698e-21
6.6774e-21
6.67756e-21
6.67767e-21
6.67781e-21
6.67802e-21
6.67826e-21
6.6785e-21
6.67873e-21
6.67895e-21
6.67916e-21
6.67939e-21
6.67961e-21
6.67983e-21
6.68004e-21
6.68025e-21
6.68045e-21
6.68065e-21
6.68087e-21
6.68109e-21
6.68134e-21
6.68163e-21
6.68198e-21
6.6824e-21
6.68286e-21
6.68337e-21
6.68389e-21
6.68435e-21
6.68468e-21
6.68477e-21
6.68456e-21
6.68401e-21
6.68317e-21
6.68217e-21
6.68118e-21
6.68047e-21
6.68033e-21
6.68113e-21
6.68341e-21
6.68803e-21
6.69645e-21
6.71078e-21
6.73273e-21
6.75943e-21
6.77621e-21
6.76213e-21
6.72019e-21
6.68228e-21
6.66567e-21
6.66187e-21
6.66139e-21
6.66135e-21
6.66135e-21
6.66135e-21
6.66135e-21
6.66135e-21
6.66135e-21
6.66135e-21
6.66135e-21
6.66135e-21
6.66135e-21
6.66134e-21
6.66134e-21
6.66134e-21
6.66134e-21
6.66134e-21
6.66134e-21
6.66134e-21
6.66134e-21
6.66134e-21
6.66134e-21
6.66134e-21
6.66134e-21
6.66133e-21
6.66133e-21
6.66133e-21
6.66133e-21
6.66133e-21
6.66133e-21
6.66133e-21
6.66133e-21
6.66133e-21
6.66132e-21
6.66132e-21
6.66132e-21
6.66132e-21
6.66132e-21
6.66132e-21
6.66132e-21
6.66132e-21
6.66131e-21
6.66131e-21
6.66131e-21
6.66131e-21
6.66131e-21
6.66131e-21
6.6613e-21
6.6613e-21
6.6613e-21
6.6613e-21
6.6613e-21
6.6613e-21
6.66129e-21
6.66129e-21
6.66129e-21
6.66129e-21
6.66129e-21
6.66128e-21
6.66128e-21
6.66128e-21
6.66128e-21
6.66127e-21
6.66127e-21
6.66127e-21
6.66127e-21
6.66126e-21
6.66126e-21
6.66126e-21
6.66126e-21
6.66125e-21
6.66125e-21
6.66125e-21
6.66124e-21
6.66124e-21
6.66123e-21
6.66123e-21
6.66126e-21
1.3802e-20
6.20219e-20
3.17581e-19
1.765e-18
1.07517e-17
7.28209e-17
5.57366e-16
4.9013e-15
5.0258e-14
6.09221e-13
8.86842e-12
1.57982e-10
4.21349e-09
2.98587e-07
1.20546e-05
0.000166081
0.00119595
0.00254094
0.0031945
0.00362203
0.00395206
0.00422933
0.00446914
0.00467652
0.00485351
0.00500182
0.0051235
0.00522094
0.00529665
0.00535306
0.00539243
0.00541679
0.00542795
0.00542746
0.0054167
0.00539684
0.00536894
0.0053339
0.00529254
0.00524559
0.00519372
0.00513753
0.00507759
0.00501442
0.00494851
0.00488033
0.00481032
0.00473888
0.0046664
0.00459327
0.00451981
0.00444637
0.00437323
0.00430068
0.00422895
0.00415828
0.00408884
0.00402079
0.00395424
0.00388927
0.00382591
0.00376417
0.00370401
0.0036454
0.00358826
0.00353253
0.00347811
0.00342492
0.00337282
0.0033212
0.00326943
0.00321743
0.00316509
0.0031123
0.00305895
0.00300493
0.00295012
0.00289441
0.00283767
0.0027798
0.00272066
0.00266012
0.00259806
0.00253434
0.00246881
0.00240131
0.00233169
0.00225977
0.00218536
0.00210824
0.00202818
0.00194492
0.00185816
0.00176754
0.00167265
0.00157298
0.00146793
0.00135671
0.00123829
0.00111128
0.000973673
0.000822324
0.00065172
0.000449869
0
0
0
0
0
0
0
0
0
0
0
0
0
0
0
0
0
0
0
0
0
0
0
0
0
0
0
0
0
0
0
0
0
0
0
0
0
0
0
0
0
0
0
0
0
0
0
0
0
0
0
0
0
0
0
0
0
0
0
0
0
0
0
0
0
0
0
0
0
0
0
0
0
0
0
0
0
0
0
0
0
0
0
0
0
0
0
0
0
0
0
0
0
0
0
0
0
0
0
0
0
0
0
0
0
0
0
0
0
0
0
0
0
0
0
0
0
0
0
0
0
0
0
0
)
;

boundaryField
{
    inandouthalf11
    {
        type            cyclic;
    }
    inandouthalf12
    {
        type            cyclic;
    }
    inandouthalf21
    {
        type            cyclic;
    }
    inandouthalf22
    {
        type            cyclic;
    }
    inandouthalf31
    {
        type            cyclic;
    }
    inandouthalf32
    {
        type            cyclic;
    }
    inandouthalf41
    {
        type            cyclic;
    }
    inandouthalf42
    {
        type            cyclic;
    }
    top
    {
        type            symmetryPlane;
    }
    walls
    {
        type            zeroGradient;
    }
    frontAndBackPlanes
    {
        type            empty;
    }
}


// ************************************************************************* //
