/*--------------------------------*- C++ -*----------------------------------*\
| =========                 |                                                 |
| \\      /  F ield         | OpenFOAM: The Open Source CFD Toolbox           |
|  \\    /   O peration     | Version:  2.4.x                                 |
|   \\  /    A nd           | Web:      www.OpenFOAM.org                      |
|    \\/     M anipulation  |                                                 |
\*---------------------------------------------------------------------------*/
FoamFile
{
    version     2.0;
    format      ascii;
    class       volVectorField;
    location    "5.55";
    object      Ua;
}
// * * * * * * * * * * * * * * * * * * * * * * * * * * * * * * * * * * * * * //

dimensions      [0 1 -1 0 0 0 0];

internalField   nonuniform List<vector> 
360
(
(-1.01981e-32 -9.01216e-32 0)
(-3.39369e-08 -2.14411e-07 0)
(-7.30984e-08 -4.01397e-07 0)
(-1.07871e-07 -5.59442e-07 0)
(-1.42281e-07 -7.19355e-07 0)
(-1.78057e-07 -8.86166e-07 0)
(-2.14856e-07 -1.05628e-06 0)
(-2.52223e-07 -1.22755e-06 0)
(-2.89986e-07 -1.39934e-06 0)
(-3.28146e-07 -1.57167e-06 0)
(-3.66773e-07 -1.74495e-06 0)
(-4.05933e-07 -1.91944e-06 0)
(-4.45649e-07 -2.09523e-06 0)
(-4.85916e-07 -2.27222e-06 0)
(-5.2672e-07 -2.45031e-06 0)
(-5.6806e-07 -2.62947e-06 0)
(-6.09947e-07 -2.80972e-06 0)
(-6.5239e-07 -2.99109e-06 0)
(-6.95392e-07 -3.17355e-06 0)
(-7.38957e-07 -3.35709e-06 0)
(-7.83078e-07 -3.54165e-06 0)
(-8.27754e-07 -3.72717e-06 0)
(-8.7299e-07 -3.91366e-06 0)
(-9.18798e-07 -4.10113e-06 0)
(-9.65196e-07 -4.28962e-06 0)
(-1.01221e-06 -4.47922e-06 0)
(-1.05989e-06 -4.67006e-06 0)
(-1.10831e-06 -4.86237e-06 0)
(-1.15753e-06 -5.05647e-06 0)
(-1.20765e-06 -5.25259e-06 0)
(-1.25872e-06 -5.45095e-06 0)
(-1.31078e-06 -5.65168e-06 0)
(-1.36381e-06 -5.85464e-06 0)
(-1.41772e-06 -6.05943e-06 0)
(-1.4723e-06 -6.26525e-06 0)
(-1.52724e-06 -6.47085e-06 0)
(-1.58215e-06 -6.67474e-06 0)
(-1.63665e-06 -6.87543e-06 0)
(-1.69042e-06 -7.07176e-06 0)
(-1.74331e-06 -7.26312e-06 0)
(-1.79548e-06 -7.45005e-06 0)
(-1.84748e-06 -7.63451e-06 0)
(-1.90029e-06 -7.81995e-06 0)
(-1.95551e-06 -8.01193e-06 0)
(-2.01544e-06 -8.21835e-06 0)
(-2.0832e-06 -8.44989e-06 0)
(-2.16284e-06 -8.72039e-06 0)
(-2.25878e-06 -9.04522e-06 0)
(-2.37401e-06 -9.43533e-06 0)
(-2.50575e-06 -9.88289e-06 0)
(-2.64034e-06 -1.03421e-05 0)
(-2.75498e-06 -1.07339e-05 0)
(-2.83157e-06 -1.09944e-05 0)
(-2.87014e-06 -1.1124e-05 0)
(-2.88464e-06 -1.11718e-05 0)
(-2.88882e-06 -1.11853e-05 0)
(-2.88981e-06 -1.11884e-05 0)
(-2.89002e-06 -1.11891e-05 0)
(-2.89006e-06 -1.11892e-05 0)
(-2.89008e-06 -1.11892e-05 0)
(-2.89008e-06 -1.11893e-05 0)
(-2.89008e-06 -1.11893e-05 0)
(-2.89008e-06 -1.11893e-05 0)
(-2.89008e-06 -1.11893e-05 0)
(-2.89008e-06 -1.11893e-05 0)
(-2.89008e-06 -1.11893e-05 0)
(-2.89008e-06 -1.11893e-05 0)
(-2.89008e-06 -1.11893e-05 0)
(-2.89008e-06 -1.11893e-05 0)
(-2.89008e-06 -1.11893e-05 0)
(-2.89009e-06 -1.11893e-05 0)
(-2.89009e-06 -1.11893e-05 0)
(-2.89009e-06 -1.11893e-05 0)
(-2.89009e-06 -1.11893e-05 0)
(-2.89009e-06 -1.11893e-05 0)
(-2.89009e-06 -1.11893e-05 0)
(-2.89009e-06 -1.11893e-05 0)
(-2.89009e-06 -1.11893e-05 0)
(-2.8901e-06 -1.11893e-05 0)
(-2.8901e-06 -1.11893e-05 0)
(-2.8901e-06 -1.11893e-05 0)
(-2.8901e-06 -1.11893e-05 0)
(-2.8901e-06 -1.11893e-05 0)
(-2.8901e-06 -1.11893e-05 0)
(-2.89011e-06 -1.11893e-05 0)
(-2.89011e-06 -1.11893e-05 0)
(-2.89011e-06 -1.11893e-05 0)
(-2.89011e-06 -1.11893e-05 0)
(-2.89011e-06 -1.11893e-05 0)
(-2.89011e-06 -1.11893e-05 0)
(-2.89012e-06 -1.11893e-05 0)
(-2.89012e-06 -1.11894e-05 0)
(-2.89012e-06 -1.11894e-05 0)
(-2.89012e-06 -1.11894e-05 0)
(-2.89012e-06 -1.11894e-05 0)
(-2.89012e-06 -1.11894e-05 0)
(-2.89013e-06 -1.11894e-05 0)
(-2.89013e-06 -1.11894e-05 0)
(-2.89013e-06 -1.11894e-05 0)
(-2.89013e-06 -1.11894e-05 0)
(-2.89013e-06 -1.11894e-05 0)
(-2.89014e-06 -1.11894e-05 0)
(-2.89014e-06 -1.11894e-05 0)
(-2.89014e-06 -1.11894e-05 0)
(-2.89014e-06 -1.11894e-05 0)
(-2.89015e-06 -1.11894e-05 0)
(-2.89015e-06 -1.11894e-05 0)
(-2.89015e-06 -1.11894e-05 0)
(-2.89015e-06 -1.11894e-05 0)
(-2.89016e-06 -1.11894e-05 0)
(-2.89016e-06 -1.11894e-05 0)
(-2.89016e-06 -1.11894e-05 0)
(-2.89016e-06 -1.11894e-05 0)
(-2.89017e-06 -1.11895e-05 0)
(-2.89017e-06 -1.11895e-05 0)
(-2.89017e-06 -1.11895e-05 0)
(-2.89017e-06 -1.11895e-05 0)
(-2.89018e-06 -1.11895e-05 0)
(-2.89018e-06 -1.11895e-05 0)
(-2.89018e-06 -1.11895e-05 0)
(-2.89018e-06 -1.11895e-05 0)
(-2.89019e-06 -1.11895e-05 0)
(-2.89019e-06 -1.11895e-05 0)
(-2.89019e-06 -1.11895e-05 0)
(-2.8902e-06 -1.11895e-05 0)
(-2.8902e-06 -1.11895e-05 0)
(-2.8902e-06 -1.11895e-05 0)
(-2.89021e-06 -1.11895e-05 0)
(-2.89021e-06 -1.11895e-05 0)
(-2.89021e-06 -1.11895e-05 0)
(-2.89022e-06 -1.11895e-05 0)
(-2.89022e-06 -1.11895e-05 0)
(-2.89022e-06 -1.11895e-05 0)
(-2.89023e-06 -1.11895e-05 0)
(-2.89023e-06 -1.11895e-05 0)
(-2.89023e-06 -1.11896e-05 0)
(-2.89024e-06 -1.11896e-05 0)
(-2.89024e-06 -1.11896e-05 0)
(-2.89024e-06 -1.11896e-05 0)
(-2.89025e-06 -1.11896e-05 0)
(-2.89025e-06 -1.11896e-05 0)
(-2.89025e-06 -1.11896e-05 0)
(-2.89025e-06 -1.11896e-05 0)
(-2.89025e-06 -1.11896e-05 0)
(-2.89025e-06 -1.11896e-05 0)
(-2.89025e-06 -1.11896e-05 0)
(-2.89025e-06 -1.11896e-05 0)
(-7.95955e-06 -1.18289e-05 0)
(-0.0687171 -0.000356343 0)
(-0.166467 -0.000379461 0)
(-0.242506 -0.000482791 0)
(-0.303083 -0.000537942 0)
(-0.352699 -0.000583539 0)
(-0.394237 -0.000618023 0)
(-0.429633 -0.000640955 0)
(-0.460258 -0.000651535 0)
(-0.487115 -0.000649305 0)
(-0.510954 -0.000634093 0)
(-0.53234 -0.000605975 0)
(-0.551706 -0.000565231 0)
(-0.569384 -0.000512272 0)
(-0.585636 -0.00044758 0)
(-0.600665 -0.000371671 0)
(-0.614636 -0.000285057 0)
(-0.62768 -0.000188236 0)
(-0.639902 -8.16785e-05 0)
(-0.651391 3.41752e-05 0)
(-0.662219 0.00015891 0)
(-0.672445 0.000292134 0)
(-0.68212 0.000433479 0)
(-0.691285 0.000582592 0)
(-0.699977 0.000739134 0)
(-0.708224 0.000902775 0)
(-0.716055 0.00107319 0)
(-0.72349 0.00125007 0)
(-0.730549 0.00143308 0)
(-0.737248 0.00162192 0)
(-0.743603 0.00181626 0)
(-0.749626 0.00201578 0)
(-0.755329 0.00222015 0)
(-0.760722 0.002429 0)
(-0.765814 0.00264199 0)
(-0.770615 0.00285872 0)
(-0.775132 0.00307871 0)
(-0.779373 0.00330135 0)
(-0.783347 0.00352572 0)
(-0.787061 0.0037504 0)
(-0.790521 0.00397333 0)
(-0.793738 0.0041917 0)
(-0.796719 0.00440208 0)
(-0.799475 0.00460084 0)
(-0.802014 0.0047846 0)
(-0.80435 0.00495076 0)
(-0.806494 0.00509788 0)
(-0.808458 0.00522604 0)
(-0.810254 0.00533684 0)
(-0.811895 0.00543259 0)
(-0.813393 0.00551514 0)
(-0.814758 0.00558525 0)
(-0.816003 0.00564291 0)
(-0.81714 0.00568826 0)
(-0.81819 0.00572243 0)
(-0.819172 0.00574625 0)
(-0.820092 0.00576068 0)
(-0.820955 0.00576739 0)
(-0.821769 0.00576767 0)
(-0.822538 0.00576236 0)
(-0.823269 0.00575272 0)
(-0.823965 0.0057398 0)
(-0.824631 0.00572406 0)
(-0.825272 0.00570609 0)
(-0.82589 0.00568645 0)
(-0.826489 0.00566543 0)
(-0.827072 0.00564347 0)
(-0.827641 0.0056206 0)
(-0.828199 0.00559682 0)
(-0.828746 0.00557257 0)
(-0.829285 0.00554761 0)
(-0.829819 0.00552161 0)
(-0.830347 0.00549481 0)
(-0.830871 0.0054671 0)
(-0.831391 0.00543823 0)
(-0.831909 0.00540784 0)
(-0.832425 0.0053758 0)
(-0.832937 0.00534225 0)
(-0.833448 0.00530631 0)
(-0.833957 0.00526753 0)
(-0.834464 0.00522573 0)
(-0.834968 0.00517983 0)
(-0.83547 0.00512887 0)
(-0.835968 0.00507195 0)
(-0.83646 0.00500764 0)
(-0.83694 0.00493541 0)
(-0.837414 0.00484675 0)
(-0.837878 0.0047367 0)
(-0.838328 0.00458649 0)
(-0.838895 0.00441399 0)
(-0.908134 -0.00322184 0)
(-0.906982 0.0109128 0)
(-0.904664 -0.0104162 0)
(-0.902856 -0.0393709 0)
(-0.900642 -0.039603 0)
(-0.898645 -0.0395921 0)
(-0.896603 -0.0395944 0)
(-0.894557 -0.0395957 0)
(-0.892522 -0.0395966 0)
(-0.890515 -0.039597 0)
(-0.888564 -0.0395965 0)
(-0.886701 -0.0395948 0)
(-0.884975 -0.0395912 0)
(-0.883445 -0.0395829 0)
(-0.882453 -0.0395678 0)
(-0.882171 -0.0395545 0)
(-0.882152 -0.0395503 0)
(-0.882151 -0.0395501 0)
(-0.882151 -0.0395501 0)
(-0.88215 -0.0395501 0)
(-0.88215 -0.0395501 0)
(-0.88215 -0.0395501 0)
(-0.88215 -0.0395501 0)
(-0.88215 -0.0395501 0)
(-0.88215 -0.0395501 0)
(-0.88215 -0.0395501 0)
(-0.88215 -0.0395501 0)
(-0.88215 -0.0395501 0)
(-0.88215 -0.0395501 0)
(-0.88215 -0.0395501 0)
(-0.88215 -0.0395501 0)
(-0.88215 -0.0395501 0)
(-0.882149 -0.0395501 0)
(-0.882149 -0.0395501 0)
(-0.882149 -0.0395501 0)
(-0.882149 -0.0395501 0)
(-0.882149 -0.0395501 0)
(-0.882149 -0.0395501 0)
(-0.882149 -0.0395501 0)
(-0.882149 -0.0395501 0)
(-0.882149 -0.0395501 0)
(-0.882149 -0.0395501 0)
(-0.882149 -0.0395501 0)
(-0.882149 -0.0395501 0)
(-0.882149 -0.0395501 0)
(-0.882149 -0.0395501 0)
(-0.882149 -0.0395501 0)
(-0.882149 -0.0395501 0)
(-0.882149 -0.0395501 0)
(-0.882149 -0.0395501 0)
(-0.882149 -0.0395501 0)
(-0.882149 -0.0395501 0)
(-0.882149 -0.0395501 0)
(-0.882149 -0.0395501 0)
(-0.882149 -0.0395501 0)
(-0.882149 -0.0395501 0)
(-0.882149 -0.0395501 0)
(-0.882149 -0.0395501 0)
(-0.882149 -0.0395501 0)
(-0.882149 -0.0395501 0)
(-0.882149 -0.0395501 0)
(-0.882149 -0.0395501 0)
(-0.882149 -0.0395501 0)
(-0.882149 -0.0395501 0)
(-0.882149 -0.0395501 0)
(-0.882149 -0.0395501 0)
(-0.882149 -0.0395501 0)
(-0.882149 -0.0395501 0)
(-0.882149 -0.0395501 0)
(-0.882149 -0.0395501 0)
(-0.882149 -0.0395501 0)
(-0.882149 -0.0395501 0)
(-0.882149 -0.0395501 0)
(-0.882149 -0.0395501 0)
(-0.882149 -0.0395501 0)
(-0.882149 -0.0395501 0)
(-0.882149 -0.0395501 0)
(-0.882149 -0.0395501 0)
(-0.882149 -0.0395501 0)
(-0.882149 -0.0395501 0)
(-0.882149 -0.0395501 0)
(-0.882149 -0.0395501 0)
(-0.882149 -0.0395501 0)
(-0.882149 -0.0395501 0)
(-0.882149 -0.0395501 0)
(-0.882149 -0.0395501 0)
(-0.882149 -0.0395501 0)
(-0.882149 -0.0395501 0)
(-0.882149 -0.0395501 0)
(-0.882149 -0.0395501 0)
(-0.882149 -0.0395501 0)
(-0.882149 -0.0395501 0)
(-0.882149 -0.0395501 0)
(-0.882149 -0.0395501 0)
(-0.882149 -0.0395501 0)
(-0.882149 -0.0395501 0)
(-0.882149 -0.0395501 0)
(-0.882149 -0.0395501 0)
(-0.882149 -0.0395501 0)
(-0.882149 -0.0395501 0)
(-0.882149 -0.0395501 0)
(-0.882149 -0.0395501 0)
(-0.882149 -0.0395501 0)
(-0.882149 -0.0395501 0)
(-0.882149 -0.0395501 0)
(-0.882149 -0.0395501 0)
(-0.882149 -0.0395501 0)
(-0.882149 -0.0395501 0)
(-0.882149 -0.0395501 0)
(-0.882149 -0.0395501 0)
(-0.882149 -0.0395501 0)
(-0.882149 -0.0395501 0)
(-0.882149 -0.0395501 0)
(-0.882149 -0.0395501 0)
(-0.882149 -0.0395501 0)
(-0.882149 -0.0395501 0)
(-0.882149 -0.0395501 0)
(-0.882149 -0.0395501 0)
(-0.882149 -0.0395501 0)
(-0.882149 -0.0395499 0)
(-0.882149 -0.0395414 0)
(-0.882149 -0.0391968 0)
(-0.882147 -0.0225003 0)
)
;

boundaryField
{
    inandouthalf11
    {
        type            cyclic;
    }
    inandouthalf12
    {
        type            cyclic;
    }
    inandouthalf21
    {
        type            cyclic;
    }
    inandouthalf22
    {
        type            cyclic;
    }
    inandouthalf31
    {
        type            cyclic;
    }
    inandouthalf32
    {
        type            cyclic;
    }
    inandouthalf41
    {
        type            cyclic;
    }
    inandouthalf42
    {
        type            cyclic;
    }
    top
    {
        type            symmetryPlane;
    }
    walls
    {
        type            fixedValue;
        value           uniform (0 0 0);
    }
    frontAndBackPlanes
    {
        type            empty;
    }
}


// ************************************************************************* //
