/*--------------------------------*- C++ -*----------------------------------*\
| =========                 |                                                 |
| \\      /  F ield         | OpenFOAM: The Open Source CFD Toolbox           |
|  \\    /   O peration     | Version:  2.4.x                                 |
|   \\  /    A nd           | Web:      www.OpenFOAM.org                      |
|    \\/     M anipulation  |                                                 |
\*---------------------------------------------------------------------------*/
FoamFile
{
    version     2.0;
    format      ascii;
    class       volVectorField;
    location    "5.55";
    object      Ub;
}
// * * * * * * * * * * * * * * * * * * * * * * * * * * * * * * * * * * * * * //

dimensions      [0 1 -1 0 0 0 0];

internalField   nonuniform List<vector> 
360
(
(-8.90084e-07 8.70646e-08 0)
(-9.20231e-07 3.25545e-07 0)
(-9.58439e-07 6.14178e-07 0)
(-9.93717e-07 8.78321e-07 0)
(-1.0285e-06 1.13437e-06 0)
(-1.06445e-06 1.39527e-06 0)
(-1.10141e-06 1.66151e-06 0)
(-1.13895e-06 1.93036e-06 0)
(-1.17689e-06 2.20029e-06 0)
(-1.21524e-06 2.47113e-06 0)
(-1.25406e-06 2.74335e-06 0)
(-1.29341e-06 3.01736e-06 0)
(-1.33332e-06 3.29326e-06 0)
(-1.37378e-06 3.57099e-06 0)
(-1.41478e-06 3.85041e-06 0)
(-1.45632e-06 4.13147e-06 0)
(-1.4984e-06 4.41419e-06 0)
(-1.54105e-06 4.69858e-06 0)
(-1.58425e-06 4.9846e-06 0)
(-1.62802e-06 5.27224e-06 0)
(-1.67235e-06 5.5614e-06 0)
(-1.71723e-06 5.85203e-06 0)
(-1.76268e-06 6.14412e-06 0)
(-1.8087e-06 6.43768e-06 0)
(-1.85531e-06 6.73278e-06 0)
(-1.90254e-06 7.02957e-06 0)
(-1.95044e-06 7.32825e-06 0)
(-1.99908e-06 7.6292e-06 0)
(-2.04853e-06 7.93284e-06 0)
(-2.09887e-06 8.23956e-06 0)
(-2.15016e-06 8.54965e-06 0)
(-2.20246e-06 8.8633e-06 0)
(-2.25572e-06 9.18018e-06 0)
(-2.30987e-06 9.49974e-06 0)
(-2.36469e-06 9.82062e-06 0)
(-2.41987e-06 1.0141e-05 0)
(-2.47502e-06 1.04586e-05 0)
(-2.52975e-06 1.07712e-05 0)
(-2.58376e-06 1.10772e-05 0)
(-2.63688e-06 1.13757e-05 0)
(-2.68929e-06 1.16678e-05 0)
(-2.74151e-06 1.19565e-05 0)
(-2.79456e-06 1.22475e-05 0)
(-2.85005e-06 1.25495e-05 0)
(-2.91025e-06 1.2875e-05 0)
(-2.97833e-06 1.32407e-05 0)
(-3.05832e-06 1.36678e-05 0)
(-3.15467e-06 1.41777e-05 0)
(-3.27034e-06 1.47817e-05 0)
(-3.40252e-06 1.54607e-05 0)
(-3.53747e-06 1.61448e-05 0)
(-3.65234e-06 1.67297e-05 0)
(-3.72906e-06 1.71345e-05 0)
(-3.76774e-06 1.73538e-05 0)
(-3.78235e-06 1.74451e-05 0)
(-3.78668e-06 1.74739e-05 0)
(-3.78781e-06 1.74802e-05 0)
(-3.78819e-06 1.74804e-05 0)
(-3.78841e-06 1.74791e-05 0)
(-3.7886e-06 1.74774e-05 0)
(-3.78879e-06 1.74756e-05 0)
(-3.78899e-06 1.74736e-05 0)
(-3.7892e-06 1.74717e-05 0)
(-3.78941e-06 1.74697e-05 0)
(-3.78962e-06 1.74676e-05 0)
(-3.78984e-06 1.74655e-05 0)
(-3.79007e-06 1.74633e-05 0)
(-3.7903e-06 1.7461e-05 0)
(-3.79054e-06 1.74586e-05 0)
(-3.79079e-06 1.74562e-05 0)
(-3.79106e-06 1.74537e-05 0)
(-3.79133e-06 1.74511e-05 0)
(-3.79161e-06 1.74483e-05 0)
(-3.7919e-06 1.74456e-05 0)
(-3.7922e-06 1.74427e-05 0)
(-3.79251e-06 1.74398e-05 0)
(-3.79282e-06 1.74368e-05 0)
(-3.79314e-06 1.74337e-05 0)
(-3.79346e-06 1.74306e-05 0)
(-3.7938e-06 1.74274e-05 0)
(-3.79414e-06 1.74241e-05 0)
(-3.79449e-06 1.74208e-05 0)
(-3.79485e-06 1.74173e-05 0)
(-3.79522e-06 1.74138e-05 0)
(-3.7956e-06 1.74102e-05 0)
(-3.79598e-06 1.74065e-05 0)
(-3.79638e-06 1.74027e-05 0)
(-3.79679e-06 1.73988e-05 0)
(-3.7972e-06 1.73949e-05 0)
(-3.79762e-06 1.73908e-05 0)
(-3.79806e-06 1.73867e-05 0)
(-3.7985e-06 1.73825e-05 0)
(-3.79895e-06 1.73782e-05 0)
(-3.79941e-06 1.73738e-05 0)
(-3.79989e-06 1.73693e-05 0)
(-3.80037e-06 1.73647e-05 0)
(-3.80087e-06 1.73599e-05 0)
(-3.80138e-06 1.73551e-05 0)
(-3.8019e-06 1.73502e-05 0)
(-3.80243e-06 1.73451e-05 0)
(-3.80298e-06 1.734e-05 0)
(-3.80354e-06 1.73347e-05 0)
(-3.80411e-06 1.73293e-05 0)
(-3.8047e-06 1.73237e-05 0)
(-3.8053e-06 1.7318e-05 0)
(-3.80592e-06 1.73122e-05 0)
(-3.80656e-06 1.73063e-05 0)
(-3.80721e-06 1.73001e-05 0)
(-3.80788e-06 1.72939e-05 0)
(-3.80856e-06 1.72874e-05 0)
(-3.80927e-06 1.72808e-05 0)
(-3.80999e-06 1.7274e-05 0)
(-3.81074e-06 1.72671e-05 0)
(-3.81151e-06 1.72599e-05 0)
(-3.8123e-06 1.72525e-05 0)
(-3.81311e-06 1.72449e-05 0)
(-3.81395e-06 1.72371e-05 0)
(-3.81482e-06 1.72291e-05 0)
(-3.81571e-06 1.72208e-05 0)
(-3.81663e-06 1.72123e-05 0)
(-3.81758e-06 1.72035e-05 0)
(-3.81856e-06 1.71944e-05 0)
(-3.81958e-06 1.71851e-05 0)
(-3.82062e-06 1.71754e-05 0)
(-3.82171e-06 1.71654e-05 0)
(-3.82283e-06 1.71551e-05 0)
(-3.824e-06 1.71444e-05 0)
(-3.82521e-06 1.71333e-05 0)
(-3.82646e-06 1.71218e-05 0)
(-3.82777e-06 1.71099e-05 0)
(-3.82914e-06 1.70975e-05 0)
(-3.83056e-06 1.70846e-05 0)
(-3.83205e-06 1.7071e-05 0)
(-3.83361e-06 1.70568e-05 0)
(-3.83528e-06 1.70418e-05 0)
(-3.83705e-06 1.7026e-05 0)
(-3.8389e-06 1.70092e-05 0)
(-3.84087e-06 1.69909e-05 0)
(-3.84306e-06 1.69707e-05 0)
(-3.84558e-06 1.69491e-05 0)
(-3.8483e-06 1.69273e-05 0)
(-3.85091e-06 1.69002e-05 0)
(-3.85402e-06 1.68701e-05 0)
(-3.85807e-06 1.68348e-05 0)
(-3.8631e-06 1.67725e-05 0)
(-3.87266e-06 1.68214e-05 0)
(-4.45472e-06 1.2166e-05 0)
(-0.000443582 3.7406e-05 0)
(-0.076457 0.000219236 0)
(-0.175857 9.38422e-05 0)
(-0.250148 0.00011341 0)
(-0.309256 9.31901e-05 0)
(-0.357892 7.81339e-05 0)
(-0.398799 6.43406e-05 0)
(-0.433813 5.20316e-05 0)
(-0.464238 4.14166e-05 0)
(-0.491031 3.25249e-05 0)
(-0.514908 2.52186e-05 0)
(-0.536411 1.92891e-05 0)
(-0.555956 1.45164e-05 0)
(-0.573867 1.06965e-05 0)
(-0.590399 7.6523e-06 0)
(-0.605753 5.23538e-06 0)
(-0.620093 3.32382e-06 0)
(-0.633551 1.81872e-06 0)
(-0.646236 6.4037e-07 0)
(-0.658237 -2.75325e-07 0)
(-0.66963 -9.79829e-07 0)
(-0.680478 -1.51448e-06 0)
(-0.690834 -1.91255e-06 0)
(-0.700745 -2.20084e-06 0)
(-0.710249 -2.401e-06 0)
(-0.719381 -2.53053e-06 0)
(-0.72817 -2.60362e-06 0)
(-0.736642 -2.63179e-06 0)
(-0.744819 -2.62439e-06 0)
(-0.752721 -2.58905e-06 0)
(-0.760366 -2.53197e-06 0)
(-0.767768 -2.4582e-06 0)
(-0.774941 -2.37186e-06 0)
(-0.781898 -2.27627e-06 0)
(-0.788648 -2.17417e-06 0)
(-0.795201 -2.06772e-06 0)
(-0.801565 -1.95862e-06 0)
(-0.807747 -1.84809e-06 0)
(-0.813754 -1.73687e-06 0)
(-0.819591 -1.62524e-06 0)
(-0.825263 -1.51311e-06 0)
(-0.830773 -1.40027e-06 0)
(-0.836125 -1.28669e-06 0)
(-0.841323 -1.17285e-06 0)
(-0.846367 -1.05988e-06 0)
(-0.851259 -9.4946e-07 0)
(-0.856001 -8.43718e-07 0)
(-0.860593 -7.44827e-07 0)
(-0.865036 -6.54371e-07 0)
(-0.869328 -5.7274e-07 0)
(-0.873469 -4.99204e-07 0)
(-0.87746 -4.32694e-07 0)
(-0.881297 -3.7261e-07 0)
(-0.88498 -3.1892e-07 0)
(-0.888542 -2.71189e-07 0)
(-0.892011 -2.29121e-07 0)
(-0.895375 -1.92799e-07 0)
(-0.898622 -1.61889e-07 0)
(-0.90174 -1.35665e-07 0)
(-0.904717 -1.13535e-07 0)
(-0.907538 -9.50305e-08 0)
(-0.910191 -7.95411e-08 0)
(-0.912663 -6.65363e-08 0)
(-0.914941 -5.56627e-08 0)
(-0.917016 -4.65828e-08 0)
(-0.918879 -3.89937e-08 0)
(-0.920523 -3.26341e-08 0)
(-0.921946 -2.7281e-08 0)
(-0.923146 -2.27982e-08 0)
(-0.924128 -1.90428e-08 0)
(-0.924896 -1.58628e-08 0)
(-0.925459 -1.31869e-08 0)
(-0.925826 -1.09542e-08 0)
(-0.926007 -9.07886e-09 0)
(-0.926013 -7.49771e-09 0)
(-0.925854 -6.17176e-09 0)
(-0.925541 -5.06849e-09 0)
(-0.925083 -4.14572e-09 0)
(-0.924487 -3.36935e-09 0)
(-0.92376 -2.72412e-09 0)
(-0.922911 -2.18964e-09 0)
(-0.921945 -1.74569e-09 0)
(-0.920866 -1.3808e-09 0)
(-0.919682 -1.08412e-09 0)
(-0.918397 -8.44251e-10 0)
(-0.917017 -6.45467e-10 0)
(-0.915545 -4.76707e-10 0)
(-0.913989 -3.42972e-10 0)
(-0.912352 -3.22614e-10 0)
(-0.910641 -1.63605e-10 0)
(-0.908861 -3.33636e-11 0)
(-0.907018 -6.32044e-11 0)
(-0.90512 6.04176e-12 0)
(-0.903172 3.71065e-12 0)
(-0.901184 -1.21276e-12 0)
(-0.899164 -2.02985e-12 0)
(-0.897123 -8.92776e-12 0)
(-0.895072 3.00338e-11 0)
(-0.893027 -7.68967e-11 0)
(-0.891006 1.44123e-10 0)
(-0.889032 -2.43322e-10 0)
(-0.887139 3.66368e-10 0)
(-0.885369 -5.20481e-10 0)
(-0.883798 6.94196e-10 0)
(-0.882595 -8.89877e-10 0)
(-0.882197 1.09405e-09 0)
(-0.882169 -1.30911e-09 0)
(-0.882168 1.52646e-09 0)
(-0.882168 -1.75209e-09 0)
(-0.882167 1.98033e-09 0)
(-0.882167 -2.21691e-09 0)
(-0.882167 2.45695e-09 0)
(-0.882167 -2.7054e-09 0)
(-0.882167 2.9581e-09 0)
(-0.882167 -3.21924e-09 0)
(-0.882167 3.4854e-09 0)
(-0.882167 -3.76e-09 0)
(-0.882167 4.04032e-09 0)
(-0.882167 -4.3291e-09 0)
(-0.882167 4.62426e-09 0)
(-0.882166 -4.92789e-09 0)
(-0.882166 5.2385e-09 0)
(-0.882166 -5.55761e-09 0)
(-0.882166 5.88424e-09 0)
(-0.882166 -6.21941e-09 0)
(-0.882166 6.5626e-09 0)
(-0.882166 -6.9144e-09 0)
(-0.882166 7.27466e-09 0)
(-0.882166 -7.64361e-09 0)
(-0.882166 8.02146e-09 0)
(-0.882166 -8.40808e-09 0)
(-0.882166 8.80399e-09 0)
(-0.882166 -9.20878e-09 0)
(-0.882166 9.62319e-09 0)
(-0.882166 -1.00466e-08 0)
(-0.882166 1.048e-08 0)
(-0.882166 -1.09225e-08 0)
(-0.882166 1.13753e-08 0)
(-0.882166 -1.18373e-08 0)
(-0.882166 1.23098e-08 0)
(-0.882166 -1.27918e-08 0)
(-0.882166 1.32844e-08 0)
(-0.882166 -1.37868e-08 0)
(-0.882166 1.43e-08 0)
(-0.882166 -1.48231e-08 0)
(-0.882166 1.53572e-08 0)
(-0.882166 -1.59014e-08 0)
(-0.882166 1.64567e-08 0)
(-0.882166 -1.70224e-08 0)
(-0.882166 1.75993e-08 0)
(-0.882166 -1.81868e-08 0)
(-0.882166 1.87856e-08 0)
(-0.882166 -1.93952e-08 0)
(-0.882166 2.00163e-08 0)
(-0.882166 -2.06482e-08 0)
(-0.882166 2.12917e-08 0)
(-0.882166 -2.19462e-08 0)
(-0.882166 2.26124e-08 0)
(-0.882166 -2.32897e-08 0)
(-0.882166 2.39787e-08 0)
(-0.882166 -2.46788e-08 0)
(-0.882166 2.53907e-08 0)
(-0.882166 -2.61137e-08 0)
(-0.882166 2.35667e-08 0)
(-0.882166 -2.37669e-08 0)
(-0.882166 2.39653e-08 0)
(-0.882166 -2.41611e-08 0)
(-0.882166 2.43551e-08 0)
(-0.882166 -2.45465e-08 0)
(-0.882166 2.4736e-08 0)
(-0.882166 -2.49229e-08 0)
(-0.882166 2.51077e-08 0)
(-0.882166 -2.529e-08 0)
(-0.882166 2.54702e-08 0)
(-0.882166 -2.56477e-08 0)
(-0.882166 2.58231e-08 0)
(-0.882166 -2.59958e-08 0)
(-0.882166 2.61663e-08 0)
(-0.882166 -2.6334e-08 0)
(-0.882166 2.64995e-08 0)
(-0.882166 -2.66621e-08 0)
(-0.882166 2.68224e-08 0)
(-0.882166 -2.69799e-08 0)
(-0.882166 2.71348e-08 0)
(-0.882166 -2.72869e-08 0)
(-0.882166 2.74364e-08 0)
(-0.882166 -2.75829e-08 0)
(-0.882166 2.77268e-08 0)
(-0.882166 -2.78676e-08 0)
(-0.882166 2.80056e-08 0)
(-0.882166 -2.81405e-08 0)
(-0.882166 2.82724e-08 0)
(-0.882166 -2.8401e-08 0)
(-0.882166 2.85265e-08 0)
(-0.882166 -2.86487e-08 0)
(-0.882166 2.87674e-08 0)
(-0.882166 -2.88828e-08 0)
(-0.882166 2.89943e-08 0)
(-0.882166 -2.91027e-08 0)
(-0.882166 2.92065e-08 0)
(-0.882166 -2.93073e-08 0)
(-0.882166 2.94029e-08 0)
(-0.882166 -2.94954e-08 0)
(-0.882166 2.95821e-08 0)
(-0.882166 -2.96655e-08 0)
(-0.882166 2.97425e-08 0)
(-0.882166 -2.98156e-08 0)
(-0.882166 2.98815e-08 0)
(-0.882166 -2.99427e-08 0)
(-0.882166 2.99953e-08 0)
(-0.882166 -3.00414e-08 0)
(-0.882166 3.00757e-08 0)
(-0.882166 -3.01003e-08 0)
)
;

boundaryField
{
    inandouthalf11
    {
        type            cyclic;
    }
    inandouthalf12
    {
        type            cyclic;
    }
    inandouthalf21
    {
        type            cyclic;
    }
    inandouthalf22
    {
        type            cyclic;
    }
    inandouthalf31
    {
        type            cyclic;
    }
    inandouthalf32
    {
        type            cyclic;
    }
    inandouthalf41
    {
        type            cyclic;
    }
    inandouthalf42
    {
        type            cyclic;
    }
    top
    {
        type            symmetryPlane;
    }
    walls
    {
        type            fixedValue;
        value           uniform (0 0 0);
    }
    frontAndBackPlanes
    {
        type            empty;
    }
}


// ************************************************************************* //
