/*--------------------------------*- C++ -*----------------------------------*\
| =========                 |                                                 |
| \\      /  F ield         | OpenFOAM: The Open Source CFD Toolbox           |
|  \\    /   O peration     | Version:  2.4.x                                 |
|   \\  /    A nd           | Web:      www.OpenFOAM.org                      |
|    \\/     M anipulation  |                                                 |
\*---------------------------------------------------------------------------*/
FoamFile
{
    version     2.0;
    format      ascii;
    class       volVectorField;
    location    "5.55";
    object      Ub_0;
}
// * * * * * * * * * * * * * * * * * * * * * * * * * * * * * * * * * * * * * //

dimensions      [0 1 -1 0 0 0 0];

internalField   nonuniform List<vector> 
360
(
(-8.90295e-07 8.7069e-08 0)
(-9.20443e-07 3.25564e-07 0)
(-9.58654e-07 6.14216e-07 0)
(-9.93935e-07 8.78376e-07 0)
(-1.02872e-06 1.13444e-06 0)
(-1.06468e-06 1.39536e-06 0)
(-1.10163e-06 1.66161e-06 0)
(-1.13918e-06 1.93048e-06 0)
(-1.17713e-06 2.20043e-06 0)
(-1.21547e-06 2.47128e-06 0)
(-1.2543e-06 2.74352e-06 0)
(-1.29365e-06 3.01754e-06 0)
(-1.33356e-06 3.29347e-06 0)
(-1.37403e-06 3.57121e-06 0)
(-1.41503e-06 3.85065e-06 0)
(-1.45657e-06 4.13173e-06 0)
(-1.49866e-06 4.41447e-06 0)
(-1.54131e-06 4.69887e-06 0)
(-1.58451e-06 4.98491e-06 0)
(-1.62829e-06 5.27257e-06 0)
(-1.67262e-06 5.56175e-06 0)
(-1.7175e-06 5.8524e-06 0)
(-1.76295e-06 6.1445e-06 0)
(-1.80898e-06 6.43808e-06 0)
(-1.85559e-06 6.7332e-06 0)
(-1.90283e-06 7.03001e-06 0)
(-1.95073e-06 7.3287e-06 0)
(-1.99937e-06 7.62968e-06 0)
(-2.04882e-06 7.93334e-06 0)
(-2.09917e-06 8.24009e-06 0)
(-2.15047e-06 8.55019e-06 0)
(-2.20277e-06 8.86387e-06 0)
(-2.25604e-06 9.18078e-06 0)
(-2.31019e-06 9.50036e-06 0)
(-2.36502e-06 9.82126e-06 0)
(-2.4202e-06 1.01416e-05 0)
(-2.47535e-06 1.04592e-05 0)
(-2.53009e-06 1.07719e-05 0)
(-2.58409e-06 1.10779e-05 0)
(-2.63722e-06 1.13764e-05 0)
(-2.68962e-06 1.16684e-05 0)
(-2.74185e-06 1.19572e-05 0)
(-2.79491e-06 1.22482e-05 0)
(-2.85041e-06 1.25503e-05 0)
(-2.91063e-06 1.28759e-05 0)
(-2.97874e-06 1.32418e-05 0)
(-3.05878e-06 1.36691e-05 0)
(-3.15518e-06 1.41792e-05 0)
(-3.27091e-06 1.47836e-05 0)
(-3.40313e-06 1.54627e-05 0)
(-3.53806e-06 1.61467e-05 0)
(-3.65284e-06 1.67311e-05 0)
(-3.72944e-06 1.71354e-05 0)
(-3.76802e-06 1.73543e-05 0)
(-3.78259e-06 1.74452e-05 0)
(-3.7869e-06 1.74739e-05 0)
(-3.78803e-06 1.74802e-05 0)
(-3.7884e-06 1.74804e-05 0)
(-3.78862e-06 1.74791e-05 0)
(-3.78881e-06 1.74774e-05 0)
(-3.78901e-06 1.74756e-05 0)
(-3.7892e-06 1.74736e-05 0)
(-3.78941e-06 1.74717e-05 0)
(-3.78962e-06 1.74697e-05 0)
(-3.78983e-06 1.74676e-05 0)
(-3.79005e-06 1.74655e-05 0)
(-3.79028e-06 1.74633e-05 0)
(-3.79051e-06 1.7461e-05 0)
(-3.79076e-06 1.74586e-05 0)
(-3.79101e-06 1.74562e-05 0)
(-3.79127e-06 1.74537e-05 0)
(-3.79155e-06 1.74511e-05 0)
(-3.79183e-06 1.74483e-05 0)
(-3.79212e-06 1.74456e-05 0)
(-3.79242e-06 1.74427e-05 0)
(-3.79272e-06 1.74398e-05 0)
(-3.79303e-06 1.74368e-05 0)
(-3.79335e-06 1.74337e-05 0)
(-3.79368e-06 1.74306e-05 0)
(-3.79401e-06 1.74274e-05 0)
(-3.79435e-06 1.74241e-05 0)
(-3.7947e-06 1.74208e-05 0)
(-3.79506e-06 1.74173e-05 0)
(-3.79543e-06 1.74138e-05 0)
(-3.79581e-06 1.74102e-05 0)
(-3.7962e-06 1.74065e-05 0)
(-3.7966e-06 1.74027e-05 0)
(-3.797e-06 1.73988e-05 0)
(-3.79742e-06 1.73949e-05 0)
(-3.79784e-06 1.73908e-05 0)
(-3.79827e-06 1.73867e-05 0)
(-3.79871e-06 1.73825e-05 0)
(-3.79917e-06 1.73782e-05 0)
(-3.79963e-06 1.73738e-05 0)
(-3.8001e-06 1.73693e-05 0)
(-3.80059e-06 1.73647e-05 0)
(-3.80109e-06 1.73599e-05 0)
(-3.8016e-06 1.73551e-05 0)
(-3.80212e-06 1.73502e-05 0)
(-3.80265e-06 1.73451e-05 0)
(-3.8032e-06 1.734e-05 0)
(-3.80376e-06 1.73347e-05 0)
(-3.80433e-06 1.73293e-05 0)
(-3.80492e-06 1.73237e-05 0)
(-3.80552e-06 1.7318e-05 0)
(-3.80614e-06 1.73122e-05 0)
(-3.80677e-06 1.73063e-05 0)
(-3.80743e-06 1.73001e-05 0)
(-3.80809e-06 1.72939e-05 0)
(-3.80878e-06 1.72874e-05 0)
(-3.80949e-06 1.72808e-05 0)
(-3.81021e-06 1.7274e-05 0)
(-3.81096e-06 1.72671e-05 0)
(-3.81173e-06 1.72599e-05 0)
(-3.81252e-06 1.72525e-05 0)
(-3.81333e-06 1.72449e-05 0)
(-3.81417e-06 1.72371e-05 0)
(-3.81504e-06 1.72291e-05 0)
(-3.81593e-06 1.72208e-05 0)
(-3.81685e-06 1.72123e-05 0)
(-3.8178e-06 1.72035e-05 0)
(-3.81878e-06 1.71944e-05 0)
(-3.8198e-06 1.71851e-05 0)
(-3.82084e-06 1.71754e-05 0)
(-3.82193e-06 1.71654e-05 0)
(-3.82305e-06 1.71551e-05 0)
(-3.82422e-06 1.71444e-05 0)
(-3.82543e-06 1.71333e-05 0)
(-3.82669e-06 1.71218e-05 0)
(-3.828e-06 1.71099e-05 0)
(-3.82936e-06 1.70975e-05 0)
(-3.83078e-06 1.70846e-05 0)
(-3.83227e-06 1.7071e-05 0)
(-3.83384e-06 1.70568e-05 0)
(-3.8355e-06 1.70418e-05 0)
(-3.83727e-06 1.7026e-05 0)
(-3.83912e-06 1.70092e-05 0)
(-3.8411e-06 1.69909e-05 0)
(-3.84329e-06 1.69707e-05 0)
(-3.8458e-06 1.69491e-05 0)
(-3.84853e-06 1.69273e-05 0)
(-3.85114e-06 1.69002e-05 0)
(-3.85425e-06 1.68702e-05 0)
(-3.8583e-06 1.68348e-05 0)
(-3.86333e-06 1.67725e-05 0)
(-3.87289e-06 1.68221e-05 0)
(-4.45521e-06 1.21586e-05 0)
(-0.000443736 3.74178e-05 0)
(-0.0764639 0.000219321 0)
(-0.175862 9.38572e-05 0)
(-0.250153 0.000113438 0)
(-0.309262 9.32071e-05 0)
(-0.357899 7.8146e-05 0)
(-0.398806 6.43489e-05 0)
(-0.433821 5.20371e-05 0)
(-0.464247 4.14198e-05 0)
(-0.491042 3.25266e-05 0)
(-0.51492 2.52191e-05 0)
(-0.536423 1.92888e-05 0)
(-0.555969 1.45154e-05 0)
(-0.573881 1.06951e-05 0)
(-0.590413 7.65065e-06 0)
(-0.605768 5.23357e-06 0)
(-0.620109 3.32193e-06 0)
(-0.633568 1.81681e-06 0)
(-0.646253 6.38484e-07 0)
(-0.658255 -2.77155e-07 0)
(-0.669648 -9.81581e-07 0)
(-0.680496 -1.51614e-06 0)
(-0.690853 -1.91411e-06 0)
(-0.700764 -2.20229e-06 0)
(-0.710269 -2.40234e-06 0)
(-0.719401 -2.53176e-06 0)
(-0.72819 -2.60475e-06 0)
(-0.736662 -2.63281e-06 0)
(-0.74484 -2.62531e-06 0)
(-0.752742 -2.58988e-06 0)
(-0.760387 -2.53271e-06 0)
(-0.76779 -2.45886e-06 0)
(-0.774963 -2.37243e-06 0)
(-0.78192 -2.27678e-06 0)
(-0.78867 -2.17461e-06 0)
(-0.795223 -2.06809e-06 0)
(-0.801587 -1.95893e-06 0)
(-0.80777 -1.84835e-06 0)
(-0.813777 -1.73708e-06 0)
(-0.819614 -1.6254e-06 0)
(-0.825286 -1.51322e-06 0)
(-0.830796 -1.40033e-06 0)
(-0.836148 -1.2867e-06 0)
(-0.841346 -1.17282e-06 0)
(-0.84639 -1.05981e-06 0)
(-0.851282 -9.49359e-07 0)
(-0.856024 -8.43596e-07 0)
(-0.860616 -7.44694e-07 0)
(-0.865058 -6.54235e-07 0)
(-0.86935 -5.72606e-07 0)
(-0.873492 -4.99074e-07 0)
(-0.877482 -4.32569e-07 0)
(-0.881319 -3.72493e-07 0)
(-0.885001 -3.18812e-07 0)
(-0.888563 -2.71092e-07 0)
(-0.892032 -2.29036e-07 0)
(-0.895395 -1.92726e-07 0)
(-0.898642 -1.61827e-07 0)
(-0.901759 -1.35613e-07 0)
(-0.904735 -1.13492e-07 0)
(-0.907556 -9.49948e-08 0)
(-0.910208 -7.95116e-08 0)
(-0.912679 -6.6512e-08 0)
(-0.914956 -5.56428e-08 0)
(-0.91703 -4.65664e-08 0)
(-0.918892 -3.89803e-08 0)
(-0.920535 -3.26231e-08 0)
(-0.921957 -2.7272e-08 0)
(-0.923157 -2.27908e-08 0)
(-0.924137 -1.90367e-08 0)
(-0.924904 -1.58578e-08 0)
(-0.925466 -1.31828e-08 0)
(-0.925832 -1.09509e-08 0)
(-0.926012 -9.07613e-09 0)
(-0.926018 -7.49549e-09 0)
(-0.925859 -6.16995e-09 0)
(-0.925545 -5.06702e-09 0)
(-0.925086 -4.14453e-09 0)
(-0.924489 -3.36838e-09 0)
(-0.923763 -2.72335e-09 0)
(-0.922913 -2.18902e-09 0)
(-0.921946 -1.74519e-09 0)
(-0.920868 -1.38041e-09 0)
(-0.919683 -1.08381e-09 0)
(-0.918398 -8.44016e-10 0)
(-0.917017 -6.45281e-10 0)
(-0.915545 -4.76566e-10 0)
(-0.913988 -3.42877e-10 0)
(-0.912351 -3.22544e-10 0)
(-0.91064 -1.6349e-10 0)
(-0.90886 -3.34115e-11 0)
(-0.907017 -6.32714e-11 0)
(-0.905118 6.09622e-12 0)
(-0.90317 3.6676e-12 0)
(-0.901182 -1.22042e-12 0)
(-0.899162 -2.02842e-12 0)
(-0.89712 -8.94645e-12 0)
(-0.895069 3.00746e-11 0)
(-0.893024 -7.69652e-11 0)
(-0.891003 1.44232e-10 0)
(-0.889029 -2.43462e-10 0)
(-0.887136 3.66557e-10 0)
(-0.885366 -5.20698e-10 0)
(-0.883795 6.94458e-10 0)
(-0.882593 -8.90154e-10 0)
(-0.882196 1.09436e-09 0)
(-0.882168 -1.30942e-09 0)
(-0.882167 1.5268e-09 0)
(-0.882167 -1.75243e-09 0)
(-0.882167 1.9807e-09 0)
(-0.882166 -2.21729e-09 0)
(-0.882166 2.45736e-09 0)
(-0.882166 -2.70581e-09 0)
(-0.882166 2.95854e-09 0)
(-0.882166 -3.21969e-09 0)
(-0.882166 3.48587e-09 0)
(-0.882166 -3.76049e-09 0)
(-0.882166 4.04083e-09 0)
(-0.882166 -4.32964e-09 0)
(-0.882166 4.62481e-09 0)
(-0.882166 -4.92847e-09 0)
(-0.882166 5.23908e-09 0)
(-0.882166 -5.55823e-09 0)
(-0.882166 5.88486e-09 0)
(-0.882166 -6.22009e-09 0)
(-0.882166 6.56327e-09 0)
(-0.882166 -6.91513e-09 0)
(-0.882166 7.27538e-09 0)
(-0.882166 -7.6444e-09 0)
(-0.882166 8.02222e-09 0)
(-0.882166 -8.40892e-09 0)
(-0.882166 8.80481e-09 0)
(-0.882166 -9.20968e-09 0)
(-0.882166 9.62407e-09 0)
(-0.882166 -1.00476e-08 0)
(-0.882166 1.04809e-08 0)
(-0.882166 -1.09235e-08 0)
(-0.882166 1.13762e-08 0)
(-0.882166 -1.18384e-08 0)
(-0.882166 1.23109e-08 0)
(-0.882166 -1.27929e-08 0)
(-0.882166 1.32856e-08 0)
(-0.882166 -1.3788e-08 0)
(-0.882166 1.43012e-08 0)
(-0.882166 -1.48244e-08 0)
(-0.882166 1.53584e-08 0)
(-0.882166 -1.59028e-08 0)
(-0.882166 1.6458e-08 0)
(-0.882166 -1.70239e-08 0)
(-0.882166 1.76007e-08 0)
(-0.882166 -1.81883e-08 0)
(-0.882166 1.87871e-08 0)
(-0.882166 -1.93968e-08 0)
(-0.882166 2.00179e-08 0)
(-0.882166 -2.06499e-08 0)
(-0.882166 2.12934e-08 0)
(-0.882166 -2.1948e-08 0)
(-0.882166 2.26142e-08 0)
(-0.882166 -2.32915e-08 0)
(-0.882166 2.39806e-08 0)
(-0.882166 -2.46807e-08 0)
(-0.882166 2.53927e-08 0)
(-0.882166 -2.61157e-08 0)
(-0.882166 2.35685e-08 0)
(-0.882166 -2.37687e-08 0)
(-0.882166 2.39671e-08 0)
(-0.882166 -2.4163e-08 0)
(-0.882166 2.4357e-08 0)
(-0.882166 -2.45484e-08 0)
(-0.882166 2.47379e-08 0)
(-0.882166 -2.49247e-08 0)
(-0.882166 2.51096e-08 0)
(-0.882166 -2.52919e-08 0)
(-0.882166 2.54721e-08 0)
(-0.882166 -2.56496e-08 0)
(-0.882166 2.5825e-08 0)
(-0.882166 -2.59977e-08 0)
(-0.882166 2.61682e-08 0)
(-0.882166 -2.63359e-08 0)
(-0.882166 2.65014e-08 0)
(-0.882166 -2.66641e-08 0)
(-0.882166 2.68244e-08 0)
(-0.882166 -2.69817e-08 0)
(-0.882166 2.71369e-08 0)
(-0.882166 -2.72887e-08 0)
(-0.882166 2.74386e-08 0)
(-0.882166 -2.75847e-08 0)
(-0.882166 2.77291e-08 0)
(-0.882166 -2.78694e-08 0)
(-0.882166 2.80079e-08 0)
(-0.882166 -2.81422e-08 0)
(-0.882166 2.82747e-08 0)
(-0.882166 -2.84027e-08 0)
(-0.882166 2.85289e-08 0)
(-0.882166 -2.86503e-08 0)
(-0.882166 2.87698e-08 0)
(-0.882166 -2.88845e-08 0)
(-0.882166 2.89968e-08 0)
(-0.882166 -2.91043e-08 0)
(-0.882166 2.9209e-08 0)
(-0.882166 -2.9309e-08 0)
(-0.882166 2.94053e-08 0)
(-0.882166 -2.94972e-08 0)
(-0.882166 2.95844e-08 0)
(-0.882166 -2.96675e-08 0)
(-0.882166 2.97445e-08 0)
(-0.882166 -2.98179e-08 0)
(-0.882166 2.98832e-08 0)
(-0.882166 -2.99453e-08 0)
(-0.882166 2.99966e-08 0)
(-0.882166 -3.00446e-08 0)
(-0.882166 3.00765e-08 0)
(-0.882166 -3.01031e-08 0)
)
;

boundaryField
{
    inandouthalf11
    {
        type            cyclic;
    }
    inandouthalf12
    {
        type            cyclic;
    }
    inandouthalf21
    {
        type            cyclic;
    }
    inandouthalf22
    {
        type            cyclic;
    }
    inandouthalf31
    {
        type            cyclic;
    }
    inandouthalf32
    {
        type            cyclic;
    }
    inandouthalf41
    {
        type            cyclic;
    }
    inandouthalf42
    {
        type            cyclic;
    }
    top
    {
        type            symmetryPlane;
    }
    walls
    {
        type            fixedValue;
        value           uniform (0 0 0);
    }
    frontAndBackPlanes
    {
        type            empty;
    }
}


// ************************************************************************* //
