/*--------------------------------*- C++ -*----------------------------------*\
| =========                 |                                                 |
| \\      /  F ield         | OpenFOAM: The Open Source CFD Toolbox           |
|  \\    /   O peration     | Version:  2.4.x                                 |
|   \\  /    A nd           | Web:      www.OpenFOAM.org                      |
|    \\/     M anipulation  |                                                 |
\*---------------------------------------------------------------------------*/
FoamFile
{
    version     2.0;
    format      ascii;
    class       surfaceScalarField;
    location    "2.4";
    object      phia;
}
// * * * * * * * * * * * * * * * * * * * * * * * * * * * * * * * * * * * * * //

dimensions      [0 3 -1 0 0 0 0];

internalField   nonuniform List<scalar> 
359
(
-5.13016e-40
-5.13245e-40
-6.32216e-36
-7.01291e-35
-3.99663e-34
-1.58808e-33
-5.02263e-33
-1.37081e-32
-3.40284e-32
-7.9896e-32
-1.82394e-31
-4.12818e-31
-9.40908e-31
-2.1814e-30
-5.17885e-30
-1.26483e-29
-3.18921e-29
-8.33047e-29
-2.26127e-28
-6.40441e-28
-1.8958e-27
-5.88917e-27
-1.92438e-26
-6.62962e-26
-2.41387e-25
-9.31616e-25
-3.82122e-24
-1.6695e-23
-7.75379e-23
-3.814e-22
-1.97497e-21
-1.06862e-20
-5.95363e-20
-3.36972e-19
-1.89345e-18
-1.03528e-17
-5.38628e-17
-2.61321e-16
-1.16115e-15
-4.65039e-15
-1.66693e-14
-5.31431e-14
-1.50321e-13
-3.77948e-13
-8.45772e-13
-1.69147e-12
-3.04114e-12
-4.95172e-12
-7.37437e-12
-1.01526e-11
-1.30598e-11
-1.58781e-11
-1.8442e-11
-2.06656e-11
-2.25265e-11
-2.40507e-11
-2.5282e-11
-2.62729e-11
-2.70713e-11
-2.77187e-11
-2.82499e-11
-2.86914e-11
-2.90648e-11
-2.93866e-11
-2.96708e-11
-2.99288e-11
-3.01711e-11
-3.04071e-11
-3.06461e-11
-3.08981e-11
-3.1174e-11
-3.14866e-11
-3.18492e-11
-3.22771e-11
-3.2784e-11
-3.33809e-11
-3.40713e-11
-3.48509e-11
-3.57069e-11
-3.66216e-11
-3.7576e-11
-3.85549e-11
-3.95486e-11
-4.05534e-11
-4.15703e-11
-4.26028e-11
-4.36556e-11
-4.47321e-11
-4.58344e-11
-4.69628e-11
-4.81155e-11
-4.92902e-11
-5.04838e-11
-5.16936e-11
-5.29169e-11
-5.41513e-11
-5.53949e-11
-5.66455e-11
-5.79008e-11
-5.91587e-11
-6.0417e-11
-6.16736e-11
-6.29266e-11
-6.41744e-11
-6.54156e-11
-6.66489e-11
-6.78734e-11
-6.90882e-11
-7.02926e-11
-7.1486e-11
-7.26681e-11
-7.38387e-11
-7.49973e-11
-7.61441e-11
-7.72788e-11
-7.84015e-11
-7.95122e-11
-8.06109e-11
-8.16975e-11
-8.27717e-11
-8.38331e-11
-8.48808e-11
-8.59137e-11
-8.693e-11
-8.79279e-11
-8.89052e-11
-8.98598e-11
-9.07894e-11
-9.16913e-11
-9.25619e-11
-9.33969e-11
-9.41934e-11
-9.49524e-11
-9.56808e-11
-9.63905e-11
-9.70957e-11
-9.7815e-11
-9.85782e-11
-9.94265e-11
-1.00382e-10
-1.01384e-10
-1.02251e-10
-1.0288e-10
-1.03224e-10
-1.03322e-10
-1.0332e-10
1.94115e-09
8.00647e-09
9.98811e-09
1.20658e-08
1.45532e-08
1.71363e-08
1.98126e-08
2.26053e-08
2.55153e-08
2.85412e-08
3.16824e-08
3.49351e-08
3.8296e-08
4.17611e-08
4.53265e-08
4.8991e-08
5.27558e-08
5.66224e-08
6.05999e-08
6.46948e-08
6.89184e-08
7.3281e-08
7.77923e-08
8.2465e-08
8.73277e-08
9.2406e-08
9.75502e-08
1.021e-07
1.04975e-07
1.05526e-07
1.04254e-07
1.02264e-07
1.00409e-07
9.87559e-08
9.72887e-08
9.59848e-08
9.48221e-08
9.37803e-08
9.28392e-08
9.19868e-08
9.12062e-08
9.04885e-08
8.98234e-08
8.9205e-08
8.86249e-08
8.80786e-08
8.75604e-08
8.70688e-08
8.65982e-08
8.61459e-08
8.5708e-08
8.52841e-08
8.48731e-08
8.44716e-08
8.40759e-08
8.36758e-08
8.32748e-08
8.2875e-08
8.24712e-08
8.20562e-08
8.16321e-08
8.12071e-08
8.07778e-08
8.0333e-08
7.98758e-08
7.94134e-08
7.89386e-08
7.84463e-08
7.79451e-08
7.74348e-08
7.69007e-08
7.6344e-08
7.57798e-08
7.52012e-08
7.45925e-08
7.39612e-08
7.3308e-08
7.2624e-08
7.19165e-08
7.11815e-08
7.04028e-08
6.95914e-08
6.87511e-08
6.78608e-08
6.69277e-08
6.59592e-08
6.4938e-08
6.38656e-08
6.27426e-08
6.15726e-08
6.03536e-08
5.90916e-08
5.78241e-08
5.66064e-08
5.53937e-08
-5.0566e-08
-1.57964e-07
-1.57963e-07
-1.57964e-07
-1.57963e-07
-1.57964e-07
-1.57963e-07
-1.57964e-07
-1.57963e-07
-1.57964e-07
-1.57964e-07
-1.57964e-07
-1.57964e-07
-1.57964e-07
-1.57964e-07
-1.57964e-07
-1.57964e-07
-1.57964e-07
-1.57964e-07
-1.57964e-07
-1.57964e-07
-1.57964e-07
-1.57964e-07
-1.57964e-07
-1.57964e-07
-1.57964e-07
-1.57963e-07
-1.57964e-07
-1.57963e-07
-1.57964e-07
-1.57963e-07
-1.57964e-07
-1.57963e-07
-1.57964e-07
-1.57963e-07
-1.57964e-07
-1.57963e-07
-1.57964e-07
-1.57963e-07
-1.57964e-07
-1.57963e-07
-1.57964e-07
-1.57963e-07
-1.57964e-07
-1.57963e-07
-1.57964e-07
-1.57963e-07
-1.57964e-07
-1.57963e-07
-1.57964e-07
-1.57963e-07
-1.57964e-07
-1.57963e-07
-1.57964e-07
-1.57963e-07
-1.57964e-07
-1.57963e-07
-1.57964e-07
-1.57963e-07
-1.57964e-07
-1.57963e-07
-1.57964e-07
-1.57963e-07
-1.57964e-07
-1.57963e-07
-1.57964e-07
-1.57963e-07
-1.57964e-07
-1.57963e-07
-1.57964e-07
-1.57963e-07
-1.57964e-07
-1.57963e-07
-1.57964e-07
-1.57963e-07
-1.57964e-07
-1.57964e-07
-1.57964e-07
-1.57964e-07
-1.57964e-07
-1.57964e-07
-1.57964e-07
-1.57964e-07
-1.57964e-07
-1.57964e-07
-1.57964e-07
-1.57964e-07
-1.57964e-07
-1.57964e-07
-1.57964e-07
-1.57964e-07
-1.57964e-07
-1.57964e-07
-1.57964e-07
-1.57964e-07
-1.57964e-07
-1.57964e-07
-1.57964e-07
-1.57964e-07
-1.57964e-07
-1.57964e-07
-1.57964e-07
-1.57964e-07
-1.57964e-07
-1.57964e-07
-1.57964e-07
-1.57964e-07
-1.57964e-07
-1.57964e-07
-1.57964e-07
-1.57964e-07
-1.57964e-07
-1.57964e-07
-1.57964e-07
-1.57963e-07
-1.57946e-07
-1.57237e-07
-1.3224e-07
)
;

boundaryField
{
    inandouthalf11
    {
        type            cyclic;
        value           nonuniform List<scalar> 
100
(
1.07751e-41
1.07795e-41
1.07963e-41
4.37442e-37
4.43796e-36
2.34942e-35
8.80238e-35
2.66682e-34
7.0661e-34
1.72435e-33
4.01898e-33
9.17618e-33
2.09039e-32
4.81535e-32
1.13154e-31
2.7279e-31
6.77398e-31
1.73839e-30
4.62532e-30
1.28027e-29
3.69764e-29
1.11729e-28
3.54365e-28
1.18258e-27
4.16172e-27
1.5483e-26
6.1066e-26
2.56054e-25
1.14283e-24
5.41755e-24
2.71672e-23
1.43293e-22
7.87667e-22
4.45336e-21
2.54835e-20
1.44402e-19
7.93147e-19
4.13034e-18
1.9976e-17
8.80177e-17
3.48388e-16
1.22857e-15
3.83813e-15
1.06087e-14
2.59739e-14
5.647e-14
1.09538e-13
1.9086e-13
3.01445e-13
4.36222e-13
5.84966e-13
7.355e-13
8.77296e-13
1.00351e-12
1.11123e-12
1.20056e-12
1.27337e-12
1.3322e-12
1.37969e-12
1.41818e-12
1.44968e-12
1.47578e-12
1.49777e-12
1.51663e-12
1.53319e-12
1.54812e-12
1.56201e-12
1.5754e-12
1.5888e-12
1.60274e-12
1.61781e-12
1.63465e-12
1.654e-12
1.67666e-12
1.70344e-12
1.73501e-12
1.77177e-12
1.81362e-12
1.85998e-12
1.9099e-12
1.96222e-12
2.01592e-12
2.07026e-12
2.12483e-12
2.17953e-12
2.23447e-12
2.28984e-12
2.34582e-12
2.40252e-12
2.45993e-12
2.51797e-12
2.57649e-12
2.63528e-12
2.69415e-12
2.75292e-12
2.81142e-12
2.86951e-12
2.92703e-12
2.98384e-12
3.0398e-12
)
;
    }
    inandouthalf12
    {
        type            cyclic;
        value           nonuniform List<scalar> 
100
(
-1.07751e-41
-1.07795e-41
-1.07963e-41
-4.37442e-37
-4.43796e-36
-2.34942e-35
-8.80238e-35
-2.66682e-34
-7.0661e-34
-1.72435e-33
-4.01898e-33
-9.17618e-33
-2.09039e-32
-4.81535e-32
-1.13154e-31
-2.7279e-31
-6.77398e-31
-1.73839e-30
-4.62532e-30
-1.28027e-29
-3.69764e-29
-1.11729e-28
-3.54365e-28
-1.18258e-27
-4.16172e-27
-1.5483e-26
-6.1066e-26
-2.56054e-25
-1.14283e-24
-5.41755e-24
-2.71672e-23
-1.43293e-22
-7.87667e-22
-4.45336e-21
-2.54835e-20
-1.44402e-19
-7.93147e-19
-4.13034e-18
-1.9976e-17
-8.80177e-17
-3.48388e-16
-1.22857e-15
-3.83813e-15
-1.06087e-14
-2.59739e-14
-5.647e-14
-1.09538e-13
-1.9086e-13
-3.01445e-13
-4.36222e-13
-5.84966e-13
-7.355e-13
-8.77296e-13
-1.00351e-12
-1.11123e-12
-1.20056e-12
-1.27337e-12
-1.3322e-12
-1.37969e-12
-1.41818e-12
-1.44968e-12
-1.47578e-12
-1.49777e-12
-1.51663e-12
-1.53319e-12
-1.54812e-12
-1.56201e-12
-1.5754e-12
-1.5888e-12
-1.60274e-12
-1.61781e-12
-1.63465e-12
-1.654e-12
-1.67666e-12
-1.70344e-12
-1.73501e-12
-1.77177e-12
-1.81362e-12
-1.85998e-12
-1.9099e-12
-1.96222e-12
-2.01592e-12
-2.07026e-12
-2.12483e-12
-2.17953e-12
-2.23447e-12
-2.28984e-12
-2.34582e-12
-2.40252e-12
-2.45993e-12
-2.51797e-12
-2.57649e-12
-2.63528e-12
-2.69415e-12
-2.75292e-12
-2.81142e-12
-2.86951e-12
-2.92703e-12
-2.98384e-12
-3.0398e-12
)
;
    }
    inandouthalf21
    {
        type            cyclic;
        value           nonuniform List<scalar> 
100
(
3.09477e-12
3.14862e-12
3.20122e-12
3.25246e-12
3.30225e-12
3.35049e-12
3.39712e-12
3.44206e-12
3.48525e-12
3.52663e-12
3.56616e-12
3.60377e-12
3.63942e-12
3.67307e-12
3.70466e-12
3.73414e-12
3.76146e-12
3.78656e-12
3.80937e-12
3.82983e-12
3.84784e-12
3.86331e-12
3.87616e-12
3.88626e-12
3.89352e-12
3.89784e-12
3.89913e-12
3.89731e-12
3.89231e-12
3.8841e-12
3.87268e-12
3.8581e-12
3.84038e-12
3.81944e-12
3.79491e-12
3.76607e-12
3.73171e-12
3.68967e-12
3.63601e-12
3.56512e-12
3.47412e-12
3.37136e-12
3.27466e-12
3.2034e-12
3.17307e-12
3.17199e-12
3.17154e-12
-1.26927e-08
-6.44638e-08
-1.20846e-07
-1.715e-07
-2.17481e-07
-2.59746e-07
-2.99106e-07
-3.36157e-07
-3.71336e-07
-4.04966e-07
-4.37291e-07
-4.68497e-07
-4.98728e-07
-5.2809e-07
-5.56662e-07
-5.84495e-07
-6.11615e-07
-6.38022e-07
-6.63691e-07
-6.88566e-07
-7.12562e-07
-7.35554e-07
-7.57381e-07
-7.77837e-07
-7.96669e-07
-8.13581e-07
-8.28263e-07
-8.40462e-07
-8.50124e-07
-8.57502e-07
-8.6309e-07
-8.67426e-07
-8.7095e-07
-8.73985e-07
-8.76709e-07
-8.79209e-07
-8.81532e-07
-8.83707e-07
-8.85752e-07
-8.87685e-07
-8.89519e-07
-8.91264e-07
-8.92928e-07
-8.94518e-07
-8.96043e-07
-8.97507e-07
-8.98912e-07
-9.00262e-07
-9.01563e-07
-9.02818e-07
-9.04027e-07
-9.05189e-07
-9.06305e-07
)
;
    }
    inandouthalf22
    {
        type            cyclic;
        value           nonuniform List<scalar> 
100
(
-3.09477e-12
-3.14862e-12
-3.20122e-12
-3.25246e-12
-3.30225e-12
-3.35049e-12
-3.39712e-12
-3.44206e-12
-3.48525e-12
-3.52663e-12
-3.56616e-12
-3.60377e-12
-3.63942e-12
-3.67307e-12
-3.70466e-12
-3.73414e-12
-3.76146e-12
-3.78656e-12
-3.80937e-12
-3.82983e-12
-3.84784e-12
-3.86331e-12
-3.87616e-12
-3.88626e-12
-3.89352e-12
-3.89784e-12
-3.89913e-12
-3.89731e-12
-3.89231e-12
-3.8841e-12
-3.87268e-12
-3.8581e-12
-3.84038e-12
-3.81944e-12
-3.79491e-12
-3.76607e-12
-3.73171e-12
-3.68967e-12
-3.63601e-12
-3.56512e-12
-3.47412e-12
-3.37136e-12
-3.27466e-12
-3.2034e-12
-3.17307e-12
-3.17199e-12
-3.17154e-12
1.26927e-08
6.44638e-08
1.20846e-07
1.715e-07
2.17481e-07
2.59746e-07
2.99106e-07
3.36157e-07
3.71336e-07
4.04966e-07
4.37291e-07
4.68497e-07
4.98728e-07
5.2809e-07
5.56662e-07
5.84495e-07
6.11615e-07
6.38022e-07
6.63691e-07
6.88566e-07
7.12562e-07
7.35554e-07
7.57381e-07
7.77837e-07
7.96669e-07
8.13581e-07
8.28263e-07
8.40462e-07
8.50124e-07
8.57502e-07
8.6309e-07
8.67426e-07
8.7095e-07
8.73985e-07
8.76709e-07
8.79209e-07
8.81532e-07
8.83707e-07
8.85752e-07
8.87685e-07
8.89519e-07
8.91264e-07
8.92928e-07
8.94518e-07
8.96043e-07
8.97507e-07
8.98912e-07
9.00262e-07
9.01563e-07
9.02818e-07
9.04027e-07
9.05189e-07
9.06305e-07
)
;
    }
    inandouthalf31
    {
        type            cyclic;
        value           nonuniform List<scalar> 
110
(
-9.07383e-07
-9.26871e-07
-9.46758e-07
-9.67041e-07
-9.87731e-07
-1.00885e-06
-1.03042e-06
-1.05243e-06
-1.07488e-06
-1.0978e-06
-1.12121e-06
-1.14509e-06
-1.16947e-06
-1.19436e-06
-1.21978e-06
-1.24571e-06
-1.27218e-06
-1.29923e-06
-1.32685e-06
-1.35501e-06
-1.38379e-06
-1.41318e-06
-1.44318e-06
-1.47383e-06
-1.50512e-06
-1.53706e-06
-1.5697e-06
-1.60304e-06
-1.63707e-06
-1.67183e-06
-1.70734e-06
-1.74359e-06
-1.7806e-06
-1.81841e-06
-1.85699e-06
-1.89638e-06
-1.93656e-06
-1.97755e-06
-2.01931e-06
-2.0618e-06
-2.10493e-06
-2.14902e-06
-2.33013e-06
-2.37743e-06
-2.42569e-06
-2.47493e-06
-2.52517e-06
-2.57643e-06
-2.62873e-06
-2.68209e-06
-2.73653e-06
-2.79208e-06
-2.84875e-06
-2.90657e-06
-2.96557e-06
-3.02576e-06
-3.08718e-06
-3.14984e-06
-3.21378e-06
-3.27901e-06
-3.34556e-06
-3.41347e-06
-3.48275e-06
-3.55344e-06
-3.62557e-06
-3.69916e-06
-3.77424e-06
-3.85085e-06
-3.92901e-06
-4.00876e-06
-4.09013e-06
-4.17315e-06
-4.25785e-06
-4.34427e-06
-4.43245e-06
-4.52242e-06
-4.61421e-06
-4.70787e-06
-4.80342e-06
-4.90092e-06
-5.0004e-06
-5.10189e-06
-5.20544e-06
-5.3111e-06
-5.4189e-06
-5.52889e-06
-5.64111e-06
-5.75561e-06
-5.87244e-06
-5.99163e-06
-6.11325e-06
-6.23733e-06
-6.36393e-06
-6.4931e-06
-6.62489e-06
-6.75936e-06
-6.89656e-06
-7.03654e-06
-7.17936e-06
-7.32508e-06
-7.47376e-06
-7.62546e-06
-7.78024e-06
-7.93816e-06
-8.09928e-06
-8.26367e-06
-8.4314e-06
-8.60254e-06
-8.77715e-06
-8.9553e-06
)
;
    }
    inandouthalf32
    {
        type            cyclic;
        value           nonuniform List<scalar> 
110
(
9.07383e-07
9.26871e-07
9.46758e-07
9.67041e-07
9.87731e-07
1.00885e-06
1.03042e-06
1.05243e-06
1.07488e-06
1.0978e-06
1.12121e-06
1.14509e-06
1.16947e-06
1.19436e-06
1.21978e-06
1.24571e-06
1.27218e-06
1.29923e-06
1.32685e-06
1.35501e-06
1.38379e-06
1.41318e-06
1.44318e-06
1.47383e-06
1.50512e-06
1.53706e-06
1.5697e-06
1.60304e-06
1.63707e-06
1.67183e-06
1.70734e-06
1.74359e-06
1.7806e-06
1.81841e-06
1.85699e-06
1.89638e-06
1.93656e-06
1.97755e-06
2.01931e-06
2.0618e-06
2.10493e-06
2.14902e-06
2.33013e-06
2.37743e-06
2.42569e-06
2.47493e-06
2.52517e-06
2.57643e-06
2.62873e-06
2.68209e-06
2.73653e-06
2.79208e-06
2.84875e-06
2.90657e-06
2.96557e-06
3.02576e-06
3.08718e-06
3.14984e-06
3.21378e-06
3.27901e-06
3.34556e-06
3.41347e-06
3.48275e-06
3.55344e-06
3.62557e-06
3.69916e-06
3.77424e-06
3.85085e-06
3.92901e-06
4.00876e-06
4.09013e-06
4.17315e-06
4.25785e-06
4.34427e-06
4.43245e-06
4.52242e-06
4.61421e-06
4.70787e-06
4.80342e-06
4.90092e-06
5.0004e-06
5.10189e-06
5.20544e-06
5.3111e-06
5.4189e-06
5.52889e-06
5.64111e-06
5.75561e-06
5.87244e-06
5.99163e-06
6.11325e-06
6.23733e-06
6.36393e-06
6.4931e-06
6.62489e-06
6.75936e-06
6.89656e-06
7.03654e-06
7.17936e-06
7.32508e-06
7.47376e-06
7.62546e-06
7.78024e-06
7.93816e-06
8.09928e-06
8.26367e-06
8.4314e-06
8.60254e-06
8.77715e-06
8.9553e-06
)
;
    }
    inandouthalf41
    {
        type            cyclic;
        value           nonuniform List<scalar> 
50
(
-8.01591e-06
-8.01591e-06
-8.01591e-06
-8.01591e-06
-8.01591e-06
-8.01591e-06
-8.01591e-06
-8.01591e-06
-8.01591e-06
-8.01591e-06
-8.01591e-06
-8.01591e-06
-8.01591e-06
-8.01591e-06
-8.01591e-06
-8.01591e-06
-8.01591e-06
-8.01591e-06
-8.01591e-06
-8.01591e-06
-8.01591e-06
-8.01591e-06
-8.01591e-06
-8.01591e-06
-8.01591e-06
-8.01591e-06
-8.01591e-06
-8.01591e-06
-8.01591e-06
-8.01591e-06
-8.01591e-06
-8.01591e-06
-8.01591e-06
-8.01591e-06
-8.01591e-06
-8.01591e-06
-8.01591e-06
-8.01591e-06
-8.01591e-06
-8.01591e-06
-8.01591e-06
-8.01591e-06
-8.01591e-06
-8.01591e-06
-8.01591e-06
-8.01591e-06
-8.01591e-06
-8.01592e-06
-8.01616e-06
-8.02183e-06
)
;
    }
    inandouthalf42
    {
        type            cyclic;
        value           nonuniform List<scalar> 
50
(
8.01591e-06
8.01591e-06
8.01591e-06
8.01591e-06
8.01591e-06
8.01591e-06
8.01591e-06
8.01591e-06
8.01591e-06
8.01591e-06
8.01591e-06
8.01591e-06
8.01591e-06
8.01591e-06
8.01591e-06
8.01591e-06
8.01591e-06
8.01591e-06
8.01591e-06
8.01591e-06
8.01591e-06
8.01591e-06
8.01591e-06
8.01591e-06
8.01591e-06
8.01591e-06
8.01591e-06
8.01591e-06
8.01591e-06
8.01591e-06
8.01591e-06
8.01591e-06
8.01591e-06
8.01591e-06
8.01591e-06
8.01591e-06
8.01591e-06
8.01591e-06
8.01591e-06
8.01591e-06
8.01591e-06
8.01591e-06
8.01591e-06
8.01591e-06
8.01591e-06
8.01591e-06
8.01591e-06
8.01592e-06
8.01616e-06
8.02183e-06
)
;
    }
    top
    {
        type            symmetryPlane;
        value           uniform 0;
    }
    walls
    {
        type            fixedValue;
        value           uniform 0;
    }
    frontAndBackPlanes
    {
        type            empty;
        value           nonuniform 0();
    }
}


// ************************************************************************* //
