/*--------------------------------*- C++ -*----------------------------------*\
| =========                 |                                                 |
| \\      /  F ield         | OpenFOAM: The Open Source CFD Toolbox           |
|  \\    /   O peration     | Version:  2.4.x                                 |
|   \\  /    A nd           | Web:      www.OpenFOAM.org                      |
|    \\/     M anipulation  |                                                 |
\*---------------------------------------------------------------------------*/
FoamFile
{
    version     2.0;
    format      ascii;
    class       volVectorField;
    location    "2.4";
    object      susb;
}
// * * * * * * * * * * * * * * * * * * * * * * * * * * * * * * * * * * * * * //

dimensions      [0 1 -2 0 0 0 0];

internalField   nonuniform List<vector> 
360
(
(0 -1.69716e-28 0)
(0 -6.90916e-21 0)
(0 -6.90911e-21 0)
(0 3.74544e-28 0)
(-7.31531e-31 -6.90911e-21 0)
(-3.65763e-31 -6.90906e-21 0)
(-3.65763e-31 -6.90906e-21 0)
(0 -6.90902e-21 0)
(-3.6576e-31 -6.90902e-21 0)
(0 -1.38179e-20 0)
(-3.65755e-31 -6.90892e-21 0)
(0 -6.90892e-21 0)
(-7.31506e-31 -1.38178e-20 0)
(0 -1.38177e-20 0)
(0 -1.38176e-20 0)
(0 -1.38175e-20 0)
(0 -1.38174e-20 0)
(-3.65741e-31 -1.38173e-20 0)
(0 -2.07258e-20 0)
(0 -2.07255e-20 0)
(0 -2.07254e-20 0)
(-7.31451e-31 -2.76335e-20 0)
(0 -2.76331e-20 0)
(0 -2.76327e-20 0)
(0 -2.76323e-20 0)
(-3.65706e-31 -2.7632e-20 0)
(0 -3.45395e-20 0)
(0 -4.14465e-20 0)
(0 -4.14457e-20 0)
(0 -4.14449e-20 0)
(0 -4.83513e-20 0)
(0 -4.835e-20 0)
(0 -5.52561e-20 0)
(0 -6.2161e-20 0)
(0 -6.21593e-20 0)
(3.65619e-31 -6.90634e-20 0)
(0 -7.59663e-20 0)
(0 -8.97712e-20 0)
(0 -8.97517e-20 0)
(0 -9.65976e-20 0)
(0 -1.10223e-19 0)
(0 -1.09717e-19 0)
(3.65501e-31 -1.2229e-19 0)
(0 -1.33473e-19 0)
(0 -1.35539e-19 0)
(0 -1.41616e-19 0)
(0 -1.37874e-19 0)
(0 -1.38942e-19 0)
(0 -1.5333e-19 0)
(0 -1.55696e-19 0)
(7.30595e-31 -1.61151e-19 0)
(0 -1.76823e-19 0)
(0 -1.94915e-19 0)
(0 -2.14113e-19 0)
(0 -2.3945e-19 0)
(0 -2.63269e-19 0)
(0 -2.84689e-19 0)
(0 -3.0964e-19 0)
(0 -3.24438e-19 0)
(0 -3.47425e-19 0)
(0 -3.65247e-19 0)
(0 -3.7734e-19 0)
(0 -3.90281e-19 0)
(0 -3.98352e-19 0)
(0 -4.08826e-19 0)
(0 -4.22778e-19 0)
(0 -4.41937e-19 0)
(0 -4.62215e-19 0)
(0 -4.83415e-19 0)
(0 -5.12812e-19 0)
(0 -5.46669e-19 0)
(0 -5.69224e-19 0)
(0 -5.93306e-19 0)
(0 -6.16959e-19 0)
(0 -6.3242e-19 0)
(0 -6.3984e-19 0)
(0 -6.39355e-19 0)
(0 -6.39695e-19 0)
(0 -6.39866e-19 0)
(0 -6.40923e-19 0)
(0 -6.47587e-19 0)
(0 -6.61604e-19 0)
(0 -6.79009e-19 0)
(0 -6.99109e-19 0)
(0 -7.19871e-19 0)
(0 -7.39707e-19 0)
(0 -7.57133e-19 0)
(0 -7.71497e-19 0)
(0 -7.84637e-19 0)
(0 -7.96863e-19 0)
(0 -8.08709e-19 0)
(0 -8.21729e-19 0)
(0 -8.36294e-19 0)
(0 -8.51941e-19 0)
(0 -8.68666e-19 0)
(0 -8.86185e-19 0)
(0 -9.04163e-19 0)
(0 -9.22524e-19 0)
(0 -9.41418e-19 0)
(0 -9.60958e-19 0)
(0 -9.81268e-19 0)
(0 -1.00254e-18 0)
(0 -1.02481e-18 0)
(0 -1.04804e-18 0)
(0 -1.07226e-18 0)
(0 -1.09749e-18 0)
(0 -1.12375e-18 0)
(0 -1.15113e-18 0)
(0 -1.1797e-18 0)
(0 -1.20952e-18 0)
(0 -1.24067e-18 0)
(0 -1.27323e-18 0)
(0 -1.30728e-18 0)
(0 -1.34292e-18 0)
(0 -1.38028e-18 0)
(0 -1.41949e-18 0)
(0 -1.46071e-18 0)
(0 -1.50412e-18 0)
(0 -1.5499e-18 0)
(0 -1.59824e-18 0)
(0 -1.6493e-18 0)
(0 -1.70324e-18 0)
(0 -1.76028e-18 0)
(0 -1.82078e-18 0)
(0 -1.88543e-18 0)
(0 -1.95523e-18 0)
(0 -2.03132e-18 0)
(0 -2.11419e-18 0)
(0 -2.20276e-18 0)
(0 -2.29411e-18 0)
(0 -2.3861e-18 0)
(0 -2.48335e-18 0)
(0 -2.5997e-18 0)
(0 -2.7255e-18 0)
(0 -1.51701e-18 0)
(0 -1.72323e-17 0)
(0 -3.81371e-16 0)
(0 -8.61068e-15 0)
(0 -1.97788e-13 0)
(0 -4.35438e-12 0)
(0 -8.41472e-11 0)
(0 -1.72088e-09 0)
(0 -4.34017e-08 0)
(0 -1.12945e-06 0)
(0 -3.00443e-05 0)
(0 -0.0069206 0)
(0 -1.63997 0)
(0 -5.24636 0)
(0 -3.74633 0)
(0 -2.22666 0)
(0 -1.6608 0)
(0 -1.4308 0)
(0 -1.24551 0)
(0 -1.09316 0)
(0 -0.963936 0)
(0 -0.852251 0)
(0 -0.754726 0)
(0 -0.669013 0)
(0 -0.593306 0)
(0 -0.526227 0)
(0 -0.466542 0)
(0 -0.413282 0)
(0 -0.36565 0)
(0 -0.322946 0)
(0 -0.284518 0)
(0 -0.249901 0)
(0 -0.218724 0)
(0 -0.190608 0)
(0 -0.165209 0)
(0 -0.142142 0)
(0 -0.121161 0)
(0 -0.102544 0)
(0 -0.0868709 0)
(0 -0.0732193 0)
(0 -0.0582336 0)
(0 -0.0398339 0)
(0 -0.0212654 0)
(0 -0.0077852 0)
(0 -0.00113809 0)
(0 -2.79241e-05 0)
(0 -1.77572e-07 0)
(0 -1.06158e-09 0)
(0 -7.00365e-12 0)
(0 -5.18613e-14 0)
(0 -4.10136e-16 0)
(0 -3.45417e-18 0)
(0 -3.19847e-20 0)
(0 -2.31267e-21 0)
(0 -2.87676e-21 0)
(0 -2.40842e-21 0)
(0 -2.04334e-21 0)
(0 -1.71364e-21 0)
(0 -1.42671e-21 0)
(0 -1.21604e-21 0)
(0 -1.08242e-21 0)
(0 -9.41819e-22 0)
(0 -8.07953e-22 0)
(0 -6.68373e-22 0)
(0 -5.97978e-22 0)
(0 -5.54071e-22 0)
(0 -5.08266e-22 0)
(0 -4.23513e-22 0)
(-1.88024e-37 -3.27196e-22 0)
(0 -3.01415e-22 0)
(0 -3.15684e-22 0)
(1.75291e-37 -2.86737e-22 0)
(0 -2.06418e-22 0)
(-8.36192e-38 -1.64221e-22 0)
(0 -1.81758e-22 0)
(7.97769e-38 -1.71059e-22 0)
(0 -1.21701e-22 0)
(0 -1.055e-22 0)
(0 -1.09117e-22 0)
(3.62815e-38 -8.79307e-23 0)
(0 -6.5903e-23 0)
(0 -6.79289e-23 0)
(0 -6.60667e-23 0)
(0 -4.64849e-23 0)
(0 -3.60113e-23 0)
(0 -3.9889e-23 0)
(0 -3.48615e-23 0)
(-1.49738e-38 -2.56393e-23 0)
(0 -2.40592e-23 0)
(-7.13201e-39 -2.04427e-23 0)
(0 -1.57286e-23 0)
(0 -1.53982e-23 0)
(0 -1.31823e-23 0)
(0 -9.29766e-24 0)
(3.15427e-39 -8.8557e-24 0)
(3.07714e-39 -7.99666e-24 0)
(0 -5.63712e-24 0)
(0 -5.11932e-24 0)
(0 -4.51983e-24 0)
(0 -3.52091e-24 0)
(0 -2.94538e-24 0)
(0 -2.36623e-24 0)
(0 -2.03106e-24 0)
(0 -1.50396e-24 0)
(0 -9.38816e-25 0)
(0 -5.34388e-25 0)
(0 3.58799e-24 0)
(0 -2.07255e-24 0)
(0 -5.22065e-24 0)
(-2.39543e-43 -3.81864e-27 0)
(2.34778e-43 -3.8512e-28 0)
(0 -3.84794e-28 0)
(0 -3.94409e-28 0)
(-1.10522e-43 -3.40053e-28 0)
(0 -1.8306e-28 0)
(0 -1.49653e-28 0)
(-5.2028e-44 -1.0901e-28 0)
(0 -1.15221e-28 0)
(0 -1.03832e-28 0)
(0 -7.03112e-29 0)
(0 -4.98595e-29 0)
(0 -2.98888e-29 0)
(0 -3.9846e-29 0)
(0 -3.60459e-29 0)
(0 -1.87331e-29 0)
(0 -1.06212e-29 0)
(0 -9.45628e-30 0)
(0 -1.11452e-29 0)
(0 -8.75776e-30 0)
(0 -3.53353e-30 0)
(0 -2.54782e-30 0)
(0 -3.20558e-30 0)
(0 -2.6004e-30 0)
(0 -1.13193e-30 0)
(0 -7.41375e-31 0)
(0 -8.74851e-31 0)
(0 -6.91619e-31 0)
(0 -2.99711e-31 0)
(0 -2.15892e-31 0)
(0 -2.321e-31 0)
(0 -1.57923e-31 0)
(0 -7.0874e-32 0)
(0 -6.10299e-32 0)
(0 -4.98977e-32 0)
(0 -2.58901e-32 0)
(0 -1.87969e-32 0)
(0 -1.26288e-32 0)
(0 -7.43145e-33 0)
(0 -5.45059e-33 0)
(0 -3.27883e-33 0)
(0 -2.21724e-33 0)
(0 -1.38978e-33 0)
(3.85118e-49 -1.15593e-33 0)
(0 -5.95816e-34 0)
(0 -3.00042e-34 0)
(0 -1.44477e-34 0)
(0 -5.06369e-35 0)
(0 -2.06069e-35 0)
(0 -8.26367e-36 0)
(0 -3.2768e-36 0)
(0 -1.26067e-36 0)
(0 -4.68029e-37 0)
(3.84535e-53 -1.66081e-37 0)
(0 -5.58408e-38 0)
(0 -1.76646e-38 0)
(-1.13137e-54 -5.22281e-39 0)
(0 -1.43319e-39 0)
(0 -3.62063e-40 0)
(0 -8.33986e-41 0)
(0 -1.73119e-41 0)
(0 -3.19129e-42 0)
(0 -5.1253e-43 0)
(0 -6.98624e-44 0)
(0 -7.77852e-45 0)
(0 -6.64829e-46 0)
(0 -3.87422e-47 0)
(0 -1.152e-48 0)
(0 -1.41664e-50 0)
(0 -3.80985e-52 0)
(0 -5.0672e-54 0)
(0 -6.7972e-65 0)
(0 -4.55047e-76 0)
(0 -2.16393e-87 0)
(0 -7.68971e-99 0)
(0 -2.31458e-110 0)
(0 -7.27794e-122 0)
(0 -3.75375e-133 0)
(0 -5.66806e-141 0)
(0 -1.09214e-151 0)
(0 -1.95012e-159 0)
(0 -3.7281e-170 0)
(0 -6.70804e-178 0)
(0 -1.57738e-188 0)
(0 -2.30683e-196 0)
(0 -7.12763e-207 0)
(0 -7.93784e-215 0)
(0 -4.83379e-225 0)
(0 -2.74826e-233 0)
(0 -3.2115e-243 0)
(0 -9.61078e-252 0)
(0 -1.64569e-261 0)
(0 -3.39517e-270 0)
(0 -7.84392e-280 0)
(0 -1.21454e-288 0)
(0 -3.48338e-298 0)
(0 -4.39245e-307 0)
(0 -1.4961e-316 0)
(0 -0 0)
(0 -0 0)
(0 0 0)
(0 0 0)
(0 0 0)
(0 0 0)
(0 0 0)
(0 0 0)
(0 0 0)
(0 0 0)
(0 0 0)
(0 0 0)
(0 0 0)
(0 0 0)
(0 0 0)
(0 0 0)
(0 0 0)
(0 0 0)
(0 0 0)
)
;

boundaryField
{
    inandouthalf11
    {
        type            cyclic;
    }
    inandouthalf12
    {
        type            cyclic;
    }
    inandouthalf21
    {
        type            cyclic;
    }
    inandouthalf22
    {
        type            cyclic;
    }
    inandouthalf31
    {
        type            cyclic;
    }
    inandouthalf32
    {
        type            cyclic;
    }
    inandouthalf41
    {
        type            cyclic;
    }
    inandouthalf42
    {
        type            cyclic;
    }
    top
    {
        type            symmetryPlane;
    }
    walls
    {
        type            zeroGradient;
    }
    frontAndBackPlanes
    {
        type            empty;
    }
}


// ************************************************************************* //
