/*--------------------------------*- C++ -*----------------------------------*\
| =========                 |                                                 |
| \\      /  F ield         | OpenFOAM: The Open Source CFD Toolbox           |
|  \\    /   O peration     | Version:  2.4.x                                 |
|   \\  /    A nd           | Web:      www.OpenFOAM.org                      |
|    \\/     M anipulation  |                                                 |
\*---------------------------------------------------------------------------*/
FoamFile
{
    version     2.0;
    format      ascii;
    class       volTensorField;
    location    "2.4";
    object      Tauf;
}
// * * * * * * * * * * * * * * * * * * * * * * * * * * * * * * * * * * * * * //

dimensions      [0 2 -2 0 0 0 0];

internalField   nonuniform List<tensor> 
360
(
(0 -4.81509e-07 0 -4.81509e-07 -1.61954e-15 0 0 0 0)
(0 -4.12347e-10 0 -4.12347e-10 -1.62525e-15 0 0 0 0)
(0 -2.37182e-12 0 -2.37182e-12 -1.62804e-15 0 0 0 0)
(0 -3.74431e-15 0 -3.74431e-15 -1.62755e-15 0 0 0 0)
(5.16988e-23 -2.02217e-12 0 -2.02217e-12 -1.62492e-15 0 0 0 0)
(5.16988e-23 -2.02389e-12 0 -2.02389e-12 -1.61997e-15 0 0 0 0)
(5.16988e-23 -2.02391e-12 0 -2.02391e-12 -1.6138e-15 0 0 0 0)
(0 -2.02391e-12 0 -2.02391e-12 -1.60649e-15 0 0 0 0)
(5.16988e-23 -2.02564e-12 0 -2.02564e-12 -1.59773e-15 0 0 0 0)
(0 -4.04441e-12 0 -4.04441e-12 -1.58798e-15 0 0 0 0)
(5.16988e-23 -2.02566e-12 0 -2.02566e-12 -1.5757e-15 0 0 0 0)
(0 -2.02568e-12 0 -2.02568e-12 -1.5617e-15 0 0 0 0)
(5.16988e-23 -4.04619e-12 0 -4.04619e-12 -1.54684e-15 0 0 0 0)
(0 -4.04795e-12 0 -4.04795e-12 -1.53044e-15 0 0 0 0)
(0 -4.04798e-12 0 -4.04798e-12 -1.51338e-15 0 0 0 0)
(0 -4.04801e-12 0 -4.04801e-12 -1.4954e-15 0 0 0 0)
(0 -4.04804e-12 0 -4.04804e-12 -1.4759e-15 0 0 0 0)
(5.16988e-23 -4.04979e-12 0 -4.04979e-12 -1.45505e-15 0 0 0 0)
(0 -6.07045e-12 0 -6.07045e-12 -1.43265e-15 0 0 0 0)
(0 -6.07221e-12 0 -6.07221e-12 -1.40913e-15 0 0 0 0)
(0 -6.07403e-12 0 -6.07403e-12 -1.38534e-15 0 0 0 0)
(5.16988e-23 -8.09477e-12 0 -8.09477e-12 -1.36031e-15 0 0 0 0)
(0 -8.09662e-12 0 -8.09662e-12 -1.33349e-15 0 0 0 0)
(0 -8.09674e-12 0 -8.09674e-12 -1.306e-15 0 0 0 0)
(0 -8.09686e-12 0 -8.09686e-12 -1.2771e-15 0 0 0 0)
(5.16988e-23 -8.09871e-12 0 -8.09871e-12 -1.24764e-15 0 0 0 0)
(0 -1.01214e-11 0 -1.01214e-11 -1.21835e-15 0 0 0 0)
(0 -1.21442e-11 0 -1.21442e-11 -1.18781e-15 0 0 0 0)
(0 -1.21462e-11 0 -1.21462e-11 -1.15597e-15 0 0 0 0)
(0 -1.21482e-11 0 -1.21482e-11 -1.12264e-15 0 0 0 0)
(0 -1.41695e-11 0 -1.41695e-11 -1.08578e-15 0 0 0 0)
(0 -1.41733e-11 0 -1.41733e-11 -1.03084e-15 0 0 0 0)
(0 -1.61966e-11 0 -1.61966e-11 -8.73924e-16 0 0 0 0)
(0 -1.822e-11 0 -1.822e-11 -1.49898e-16 0 0 0 0)
(0 -1.82242e-11 0 -1.82242e-11 3.61213e-15 0 0 0 0)
(-5.16988e-23 -2.02484e-11 0 -2.02484e-11 2.23404e-14 0 0 0 0)
(0 -2.22785e-11 0 -2.22785e-11 1.07266e-13 0 0 0 0)
(0 -2.63371e-11 0 -2.63371e-11 4.64016e-13 0 0 0 0)
(0 -2.63989e-11 0 -2.63989e-11 1.87972e-12 0 0 0 0)
(0 -2.86372e-11 0 -2.86372e-11 6.99869e-12 0 0 0 0)
(0 -3.33951e-11 0 -3.33951e-11 2.32486e-11 0 0 0 0)
(0 -3.54832e-11 0 -3.54832e-11 6.79364e-11 0 0 0 0)
(-5.16988e-23 -4.4801e-11 0 -4.4801e-11 1.74438e-10 0 0 0 0)
(0 -6.03771e-11 0 -6.03771e-11 3.93622e-10 0 0 0 0)
(0 -8.40521e-11 0 -8.40521e-11 7.81744e-10 0 0 0 0)
(0 -1.22806e-10 0 -1.22806e-10 1.37152e-09 0 0 0 0)
(0 -1.72012e-10 0 -1.72012e-10 2.13589e-09 0 0 0 0)
(0 -2.29813e-10 0 -2.29813e-10 2.97276e-09 0 0 0 0)
(0 -2.88075e-10 0 -2.88075e-10 3.72992e-09 0 0 0 0)
(0 -3.28005e-10 0 -3.28005e-10 4.25566e-09 0 0 0 0)
(-5.16988e-23 -3.4659e-10 0 -3.4659e-10 4.45844e-09 0 0 0 0)
(0 -3.45275e-10 0 -3.45275e-10 4.33892e-09 0 0 0 0)
(0 -3.26914e-10 0 -3.26914e-10 3.97176e-09 0 0 0 0)
(0 -2.98725e-10 0 -2.98725e-10 3.46382e-09 0 0 0 0)
(0 -2.69247e-10 0 -2.69247e-10 2.91512e-09 0 0 0 0)
(0 -2.41129e-10 0 -2.41129e-10 2.39528e-09 0 0 0 0)
(0 -2.16661e-10 0 -2.16661e-10 1.94044e-09 0 0 0 0)
(0 -1.98421e-10 0 -1.98421e-10 1.56269e-09 0 0 0 0)
(0 -1.82222e-10 0 -1.82222e-10 1.25896e-09 0 0 0 0)
(0 -1.7283e-10 0 -1.7283e-10 1.02013e-09 0 0 0 0)
(0 -1.65576e-10 0 -1.65576e-10 8.35018e-10 0 0 0 0)
(0 -1.59553e-10 0 -1.59553e-10 6.9264e-10 0 0 0 0)
(0 -1.56085e-10 0 -1.56085e-10 5.84069e-10 0 0 0 0)
(0 -1.53028e-10 0 -1.53028e-10 5.02249e-10 0 0 0 0)
(0 -1.52186e-10 0 -1.52186e-10 4.42254e-10 0 0 0 0)
(0 -1.53655e-10 0 -1.53655e-10 4.00669e-10 0 0 0 0)
(0 -1.57802e-10 0 -1.57802e-10 3.75374e-10 0 0 0 0)
(0 -1.63347e-10 0 -1.63347e-10 3.65129e-10 0 0 0 0)
(0 -1.70222e-10 0 -1.70222e-10 3.69613e-10 0 0 0 0)
(0 -1.8064e-10 0 -1.8064e-10 3.89731e-10 0 0 0 0)
(0 -1.93627e-10 0 -1.93627e-10 4.27294e-10 0 0 0 0)
(0 -2.04681e-10 0 -2.04681e-10 4.84059e-10 0 0 0 0)
(0 -2.17727e-10 0 -2.17727e-10 5.62247e-10 0 0 0 0)
(0 -2.32265e-10 0 -2.32265e-10 6.62901e-10 0 0 0 0)
(0 -2.45881e-10 0 -2.45881e-10 7.84445e-10 0 0 0 0)
(0 -2.58177e-10 0 -2.58177e-10 9.2132e-10 0 0 0 0)
(0 -2.68423e-10 0 -2.68423e-10 1.06347e-09 0 0 0 0)
(0 -2.78251e-10 0 -2.78251e-10 1.19868e-09 0 0 0 0)
(0 -2.86486e-10 0 -2.86486e-10 1.31528e-09 0 0 0 0)
(0 -2.92884e-10 0 -2.92884e-10 1.40557e-09 0 0 0 0)
(0 -2.9878e-10 0 -2.9878e-10 1.46811e-09 0 0 0 0)
(0 -3.05091e-10 0 -3.05091e-10 1.50755e-09 0 0 0 0)
(0 -3.11279e-10 0 -3.11279e-10 1.53197e-09 0 0 0 0)
(0 -3.17785e-10 0 -3.17785e-10 1.55004e-09 0 0 0 0)
(0 -3.24506e-10 0 -3.24506e-10 1.56877e-09 0 0 0 0)
(0 -3.31258e-10 0 -3.31258e-10 1.59241e-09 0 0 0 0)
(0 -3.37672e-10 0 -3.37672e-10 1.62237e-09 0 0 0 0)
(0 -3.43467e-10 0 -3.43467e-10 1.65764e-09 0 0 0 0)
(0 -3.49016e-10 0 -3.49016e-10 1.69593e-09 0 0 0 0)
(0 -3.54219e-10 0 -3.54219e-10 1.73452e-09 0 0 0 0)
(0 -3.59068e-10 0 -3.59068e-10 1.77093e-09 0 0 0 0)
(0 -3.63927e-10 0 -3.63927e-10 1.80357e-09 0 0 0 0)
(0 -3.68871e-10 0 -3.68871e-10 1.83177e-09 0 0 0 0)
(0 -3.73774e-10 0 -3.73774e-10 1.85553e-09 0 0 0 0)
(0 -3.78666e-10 0 -3.78666e-10 1.87521e-09 0 0 0 0)
(0 -3.83493e-10 0 -3.83493e-10 1.89122e-09 0 0 0 0)
(0 -3.88178e-10 0 -3.88178e-10 1.9038e-09 0 0 0 0)
(0 -3.92706e-10 0 -3.92706e-10 1.91301e-09 0 0 0 0)
(0 -3.97125e-10 0 -3.97125e-10 1.91879e-09 0 0 0 0)
(0 -4.01475e-10 0 -4.01475e-10 1.92109e-09 0 0 0 0)
(0 -4.05803e-10 0 -4.05803e-10 1.91997e-09 0 0 0 0)
(0 -4.10185e-10 0 -4.10185e-10 1.91561e-09 0 0 0 0)
(0 -4.1466e-10 0 -4.1466e-10 1.9083e-09 0 0 0 0)
(0 -4.19242e-10 0 -4.19242e-10 1.89837e-09 0 0 0 0)
(0 -4.23962e-10 0 -4.23962e-10 1.88618e-09 0 0 0 0)
(0 -4.2885e-10 0 -4.2885e-10 1.87205e-09 0 0 0 0)
(0 -4.33935e-10 0 -4.33935e-10 1.85628e-09 0 0 0 0)
(0 -4.39257e-10 0 -4.39257e-10 1.83912e-09 0 0 0 0)
(0 -4.44855e-10 0 -4.44855e-10 1.82083e-09 0 0 0 0)
(0 -4.5076e-10 0 -4.5076e-10 1.80163e-09 0 0 0 0)
(0 -4.57006e-10 0 -4.57006e-10 1.78172e-09 0 0 0 0)
(0 -4.63623e-10 0 -4.63623e-10 1.76126e-09 0 0 0 0)
(0 -4.70643e-10 0 -4.70643e-10 1.74041e-09 0 0 0 0)
(0 -4.781e-10 0 -4.781e-10 1.71926e-09 0 0 0 0)
(0 -4.86032e-10 0 -4.86032e-10 1.69791e-09 0 0 0 0)
(0 -4.94481e-10 0 -4.94481e-10 1.67642e-09 0 0 0 0)
(0 -5.03493e-10 0 -5.03493e-10 1.6548e-09 0 0 0 0)
(0 -5.13119e-10 0 -5.13119e-10 1.63302e-09 0 0 0 0)
(0 -5.23409e-10 0 -5.23409e-10 1.61095e-09 0 0 0 0)
(0 -5.34406e-10 0 -5.34406e-10 1.58834e-09 0 0 0 0)
(0 -5.46154e-10 0 -5.46154e-10 1.5648e-09 0 0 0 0)
(0 -5.58695e-10 0 -5.58695e-10 1.5398e-09 0 0 0 0)
(0 -5.72092e-10 0 -5.72092e-10 1.51271e-09 0 0 0 0)
(0 -5.86466e-10 0 -5.86466e-10 1.48293e-09 0 0 0 0)
(0 -6.02048e-10 0 -6.02048e-10 1.44999e-09 0 0 0 0)
(0 -6.19187e-10 0 -6.19187e-10 1.41363e-09 0 0 0 0)
(0 -6.38274e-10 0 -6.38274e-10 1.37369e-09 0 0 0 0)
(0 -6.59521e-10 0 -6.59521e-10 1.32986e-09 0 0 0 0)
(0 -6.82646e-10 0 -6.82646e-10 1.28142e-09 0 0 0 0)
(0 -7.06822e-10 0 -7.06822e-10 1.22737e-09 0 0 0 0)
(0 -7.31471e-10 0 -7.31471e-10 1.16735e-09 0 0 0 0)
(0 -7.58111e-10 0 -7.58111e-10 1.10333e-09 0 0 0 0)
(0 -7.91047e-10 0 -7.91047e-10 1.04091e-09 0 0 0 0)
(0 -8.32457e-10 0 -8.32457e-10 9.88384e-10 0 0 0 0)
(0 -8.74956e-10 0 -8.74956e-10 9.52929e-10 0 0 0 0)
(0 -9.08163e-10 0 -9.08163e-10 9.38912e-10 0 0 0 0)
(0 -9.3975e-10 0 -9.3975e-10 9.52735e-10 0 0 0 0)
(0 -9.99861e-10 0 -9.99861e-10 1.00802e-09 0 0 0 0)
(0 -1.10437e-09 0 -1.10437e-09 1.11588e-09 0 0 0 0)
(0 -1.18511e-09 0 -1.18511e-09 1.24185e-09 0 0 0 0)
(0 -1.12131e-09 0 -1.12131e-09 1.24215e-09 0 0 0 0)
(0 -1.17002e-09 0 -1.17002e-09 1.03047e-09 0 0 0 0)
(0 -1.58417e-09 0 -1.58417e-09 6.76277e-10 0 0 0 0)
(0 -2.16487e-09 0 -2.16487e-09 -2.23341e-09 0 0 0 0)
(0 -2.72474e-09 0 -2.72474e-09 3.05727e-08 0 0 0 0)
(0 8.32159e-08 0 8.32159e-08 -1.42743e-07 0 0 0 0)
(0 3.20851e-05 0 3.20851e-05 -3.48522e-06 0 0 0 0)
(0 0.000693839 0 0.000693839 -1.82801e-05 0 0 0 0)
(0 0.0026503 0 0.0026503 9.03381e-07 0 0 0 0)
(0 0.00386399 0 0.00386399 1.83248e-05 0 0 0 0)
(0 0.00458044 0 0.00458044 2.97293e-06 0 0 0 0)
(0 0.00509657 0 0.00509657 3.77735e-06 0 0 0 0)
(0 0.00549572 0 0.00549572 5.4583e-06 0 0 0 0)
(0 0.00581126 0 0.00581126 6.89672e-06 0 0 0 0)
(0 0.00606107 0 0.00606107 8.09843e-06 0 0 0 0)
(0 0.0062554 0 0.0062554 9.22222e-06 0 0 0 0)
(0 0.0064005 0 0.0064005 1.02432e-05 0 0 0 0)
(0 0.00650038 0 0.00650038 1.11349e-05 0 0 0 0)
(0 0.00655755 0 0.00655755 1.1892e-05 0 0 0 0)
(0 0.00657379 0 0.00657379 1.25144e-05 0 0 0 0)
(0 0.00655031 0 0.00655031 1.29994e-05 0 0 0 0)
(0 0.00648805 0 0.00648805 1.33417e-05 0 0 0 0)
(0 0.00638761 0 0.00638761 1.35402e-05 0 0 0 0)
(0 0.00624958 0 0.00624958 1.35942e-05 0 0 0 0)
(0 0.00607444 0 0.00607444 1.35026e-05 0 0 0 0)
(0 0.00586263 0 0.00586263 1.32724e-05 0 0 0 0)
(0 0.00561461 0 0.00561461 1.29118e-05 0 0 0 0)
(0 0.00533081 0 0.00533081 1.24228e-05 0 0 0 0)
(0 0.0050117 0 0.0050117 1.17937e-05 0 0 0 0)
(0 0.00465777 0 0.00465777 1.10044e-05 0 0 0 0)
(0 0.00426955 0 0.00426955 1.0075e-05 0 0 0 0)
(0 0.00384762 0 0.00384762 9.12384e-06 0 0 0 0)
(0 0.00339256 0 0.00339256 8.28516e-06 0 0 0 0)
(0 0.00290497 0 0.00290497 7.44546e-06 0 0 0 0)
(0 0.00238569 0 0.00238569 6.20232e-06 0 0 0 0)
(0 0.0018373 0 0.0018373 4.35308e-06 0 0 0 0)
(0 0.00126694 0 0.00126694 2.33453e-06 0 0 0 0)
(0 0.000667881 0 0.000667881 8.3669e-07 0 0 0 0)
(0 0.000131063 0 0.000131063 1.24795e-07 0 0 0 0)
(0 1.11536e-05 0 1.11536e-05 1.20383e-08 0 0 0 0)
(0 4.1158e-06 0 4.1158e-06 4.95213e-09 0 0 0 0)
(0 3.40851e-06 0 3.40851e-06 2.76891e-09 0 0 0 0)
(0 3.08585e-06 0 3.08585e-06 1.62258e-09 0 0 0 0)
(0 2.81414e-06 0 2.81414e-06 1.03984e-09 0 0 0 0)
(0 2.57292e-06 0 2.57292e-06 7.42083e-10 0 0 0 0)
(0 2.35743e-06 0 2.35743e-06 5.42429e-10 0 0 0 0)
(0 2.16164e-06 0 2.16164e-06 4.32842e-10 0 0 0 0)
(0 1.98418e-06 0 1.98418e-06 3.33576e-10 0 0 0 0)
(0 1.82299e-06 0 1.82299e-06 2.77731e-10 0 0 0 0)
(0 1.67624e-06 0 1.67624e-06 2.19956e-10 0 0 0 0)
(0 1.54124e-06 0 1.54124e-06 1.93027e-10 0 0 0 0)
(0 1.41748e-06 0 1.41748e-06 1.53048e-10 0 0 0 0)
(0 1.30461e-06 0 1.30461e-06 1.35317e-10 0 0 0 0)
(0 1.20145e-06 0 1.20145e-06 1.08599e-10 0 0 0 0)
(0 1.10676e-06 0 1.10676e-06 1.01947e-10 0 0 0 0)
(0 1.01901e-06 0 1.01901e-06 8.21969e-11 0 0 0 0)
(0 9.38103e-07 0 9.38103e-07 7.52837e-11 0 0 0 0)
(0 8.63954e-07 0 8.63954e-07 5.87234e-11 0 0 0 0)
(0 7.9658e-07 0 7.9658e-07 5.69197e-11 0 0 0 0)
(0 7.34716e-07 0 7.34716e-07 4.878e-11 0 0 0 0)
(0 6.77358e-07 0 6.77358e-07 4.44933e-11 0 0 0 0)
(0 6.2321e-07 0 6.2321e-07 3.96484e-11 0 0 0 0)
(-2.03416e-19 5.72404e-07 0 5.72404e-07 2.69208e-11 0 0 0 0)
(0 5.25448e-07 0 5.25448e-07 3.11642e-11 0 0 0 0)
(0 4.82162e-07 0 4.82162e-07 2.48153e-11 0 0 0 0)
(1.91516e-19 4.4144e-07 0 4.4144e-07 2.84404e-11 0 0 0 0)
(0 4.02793e-07 0 4.02793e-07 1.48712e-11 0 0 0 0)
(-1.83972e-19 3.66746e-07 0 3.66746e-07 1.85007e-11 0 0 0 0)
(0 3.33711e-07 0 3.33711e-07 1.31372e-11 0 0 0 0)
(1.76725e-19 3.03345e-07 0 3.03345e-07 1.77625e-11 0 0 0 0)
(0 2.74936e-07 0 2.74936e-07 8.05411e-12 0 0 0 0)
(0 2.48474e-07 0 2.48474e-07 1.21757e-11 0 0 0 0)
(0 2.24367e-07 0 2.24367e-07 7.20586e-12 0 0 0 0)
(1.63076e-19 2.024e-07 0 2.024e-07 9.79646e-12 0 0 0 0)
(0 1.81928e-07 0 1.81928e-07 3.99534e-12 0 0 0 0)
(0 1.62979e-07 0 1.62979e-07 7.75676e-12 0 0 0 0)
(0 1.45916e-07 0 1.45916e-07 4.2237e-12 0 0 0 0)
(0 1.30576e-07 0 1.30576e-07 5.29497e-12 0 0 0 0)
(0 1.16426e-07 0 1.16426e-07 2.2207e-12 0 0 0 0)
(-1.44554e-19 1.03364e-07 0 1.03364e-07 4.31413e-12 0 0 0 0)
(0 9.16514e-08 0 9.16514e-08 2.31097e-12 0 0 0 0)
(-1.3886e-19 8.11908e-08 0 8.11908e-08 2.73359e-12 0 0 0 0)
(0 7.16384e-08 0 7.16384e-08 1.8147e-12 0 0 0 0)
(-1.3339e-19 6.30424e-08 0 6.30424e-08 1.83908e-12 0 0 0 0)
(0 5.54335e-08 0 5.54335e-08 1.4084e-12 0 0 0 0)
(0 4.85459e-08 0 4.85459e-08 1.16667e-12 0 0 0 0)
(0 4.23603e-08 0 4.23603e-08 1.36977e-12 0 0 0 0)
(0 3.69432e-08 0 3.69432e-08 4.47399e-13 0 0 0 0)
(1.2064e-19 3.21143e-08 0 3.21143e-08 1.17852e-12 0 0 0 0)
(1.1824e-19 2.77806e-08 0 2.77806e-08 1.76062e-13 0 0 0 0)
(0 2.40061e-08 0 2.40061e-08 1.01776e-12 0 0 0 0)
(0 2.07005e-08 0 2.07005e-08 -1.6304e-13 0 0 0 0)
(0 1.7756e-08 0 1.7756e-08 9.91964e-13 0 0 0 0)
(0 1.52011e-08 0 1.52011e-08 -3.59054e-13 0 0 0 0)
(0 1.29751e-08 0 1.29751e-08 9.04563e-13 0 0 0 0)
(0 1.1031e-08 0 1.1031e-08 -4.91665e-13 0 0 0 0)
(0 9.34663e-09 0 9.34663e-09 8.515e-13 0 0 0 0)
(0 7.87833e-09 0 7.87833e-09 -5.82024e-13 0 0 0 0)
(0 6.61987e-09 0 6.61987e-09 7.87469e-13 0 0 0 0)
(0 5.53839e-09 0 5.53839e-09 -6.89053e-13 0 0 0 0)
(0 4.60304e-09 0 4.60304e-09 5.88591e-13 0 0 0 0)
(0 3.91585e-09 0 3.91585e-09 3.16252e-14 0 0 0 0)
(0 3.31414e-09 0 3.31414e-09 3.94408e-13 0 0 0 0)
(-1.78492e-19 2.7002e-09 0 2.7002e-09 -6.68081e-13 0 0 0 0)
(1.74941e-19 2.22788e-09 0 2.22788e-09 6.91928e-13 0 0 0 0)
(0 1.83447e-09 0 1.83447e-09 -7.16038e-13 0 0 0 0)
(0 1.49681e-09 0 1.49681e-09 7.38822e-13 0 0 0 0)
(-1.64707e-19 1.21234e-09 0 1.21234e-09 -7.60985e-13 0 0 0 0)
(0 9.77555e-10 0 9.77555e-10 7.98854e-13 0 0 0 0)
(0 7.85902e-10 0 7.85902e-10 -8.51774e-13 0 0 0 0)
(-1.55071e-19 6.29482e-10 0 6.29482e-10 9.01471e-13 0 0 0 0)
(0 5.00923e-10 0 5.00923e-10 -9.48027e-13 0 0 0 0)
(0 3.96436e-10 0 3.96436e-10 9.91183e-13 0 0 0 0)
(0 3.12878e-10 0 3.12878e-10 -1.03103e-12 0 0 0 0)
(0 2.46245e-10 0 2.46245e-10 1.0675e-12 0 0 0 0)
(0 1.93026e-10 0 1.93026e-10 -1.1006e-12 0 0 0 0)
(0 1.50663e-10 0 1.50663e-10 1.13044e-12 0 0 0 0)
(0 1.17144e-10 0 1.17144e-10 -1.15697e-12 0 0 0 0)
(0 9.07367e-11 0 9.07367e-11 1.18041e-12 0 0 0 0)
(0 6.99779e-11 0 6.99779e-11 -1.20063e-12 0 0 0 0)
(0 5.37106e-11 0 5.37106e-11 1.21797e-12 0 0 0 0)
(0 4.10064e-11 0 4.10064e-11 -1.23226e-12 0 0 0 0)
(0 3.11389e-11 0 3.11389e-11 1.24389e-12 0 0 0 0)
(0 2.35132e-11 0 2.35132e-11 -1.2527e-12 0 0 0 0)
(0 1.76543e-11 0 1.76543e-11 1.25906e-12 0 0 0 0)
(0 1.31788e-11 0 1.31788e-11 -1.2629e-12 0 0 0 0)
(1.12435e-19 9.77935e-12 0 9.77935e-12 1.26452e-12 0 0 0 0)
(0 7.21287e-12 0 7.21287e-12 -1.26389e-12 0 0 0 0)
(0 5.28724e-12 0 5.28724e-12 1.2613e-12 0 0 0 0)
(0 3.8514e-12 0 3.8514e-12 -1.25677e-12 0 0 0 0)
(0 2.78704e-12 0 2.78704e-12 1.25054e-12 0 0 0 0)
(0 2.00448e-12 0 2.00448e-12 -1.24263e-12 0 0 0 0)
(0 1.4319e-12 0 1.4319e-12 1.23328e-12 0 0 0 0)
(0 1.01569e-12 0 1.01569e-12 -1.22252e-12 0 0 0 0)
(0 7.14871e-13 0 7.14871e-13 1.21057e-12 0 0 0 0)
(0 5.00164e-13 0 5.00164e-13 -1.19744e-12 0 0 0 0)
(0 3.48028e-13 0 3.48028e-13 1.18336e-12 0 0 0 0)
(0 2.40055e-13 0 2.40055e-13 -1.16831e-12 0 0 0 0)
(0 1.63637e-13 0 1.63637e-13 1.15254e-12 0 0 0 0)
(0 1.10727e-13 0 1.10727e-13 -1.13597e-12 0 0 0 0)
(0 7.4777e-14 0 7.4777e-14 1.11886e-12 0 0 0 0)
(0 5.02761e-14 0 5.02761e-14 -1.10115e-12 0 0 0 0)
(0 3.31139e-14 0 3.31139e-14 1.08304e-12 0 0 0 0)
(0 2.19354e-14 0 2.19354e-14 -1.06447e-12 0 0 0 0)
(0 1.44563e-14 0 1.44563e-14 1.04566e-12 0 0 0 0)
(0 9.16775e-15 0 9.16775e-15 -1.0265e-12 0 0 0 0)
(1.50452e-19 5.8908e-15 0 5.8908e-15 1.00722e-12 0 0 0 0)
(0 3.68198e-15 0 3.68198e-15 -9.87679e-13 0 0 0 0)
(0 2.31002e-15 0 2.31002e-15 9.68115e-13 0 0 0 0)
(0 1.37613e-15 0 1.37613e-15 -9.48391e-13 0 0 0 0)
(0 7.46641e-16 0 7.46641e-16 9.28708e-13 0 0 0 0)
(0 6.52935e-16 0 6.52935e-16 -9.08926e-13 0 0 0 0)
(0 4.86177e-16 0 4.86177e-16 8.89253e-13 0 0 0 0)
(0 1.90903e-16 0 1.90903e-16 -8.69534e-13 0 0 0 0)
(0 -9.30721e-17 0 -9.30721e-17 8.49967e-13 0 0 0 0)
(0 -2.1402e-16 0 -2.1402e-16 -8.30396e-13 0 0 0 0)
(1.23064e-19 1.54445e-16 0 1.54445e-16 8.10971e-13 0 0 0 0)
(0 2.30738e-16 0 2.30738e-16 -7.91669e-13 0 0 0 0)
(0 5.51479e-17 0 5.51479e-17 7.7249e-13 0 0 0 0)
(-1.15864e-19 -1.1291e-16 0 -1.1291e-16 -7.53418e-13 0 0 0 0)
(0 -4.2017e-17 0 -4.2017e-17 7.34529e-13 0 0 0 0)
(0 -1.35787e-17 0 -1.35787e-17 -7.1577e-13 0 0 0 0)
(0 1.30904e-18 0 1.30904e-18 6.97181e-13 0 0 0 0)
(0 1.41236e-16 0 1.41236e-16 -6.78744e-13 0 0 0 0)
(0 -9.0957e-17 0 -9.0957e-17 6.60488e-13 0 0 0 0)
(0 -2.45053e-16 0 -2.45053e-16 -6.42396e-13 0 0 0 0)
(0 1.93169e-16 0 1.93169e-16 6.24488e-13 0 0 0 0)
(0 2.89564e-16 0 2.89564e-16 -6.06749e-13 0 0 0 0)
(0 -1.6888e-16 0 -1.6888e-16 5.89203e-13 0 0 0 0)
(0 -2.32762e-16 0 -2.32762e-16 -5.71678e-13 0 0 0 0)
(0 9.635e-18 0 9.635e-18 6.31812e-13 0 0 0 0)
(0 -6.14099e-18 0 -6.14099e-18 -6.24549e-13 0 0 0 0)
(0 -3.26108e-17 0 -3.26108e-17 6.16811e-13 0 0 0 0)
(0 4.36222e-17 0 4.36222e-17 -6.08728e-13 0 0 0 0)
(0 -3.17637e-19 0 -3.17637e-19 6.00332e-13 0 0 0 0)
(0 -2.40875e-17 0 -2.40875e-17 -5.91607e-13 0 0 0 0)
(0 2.87462e-17 0 2.87462e-17 5.82586e-13 0 0 0 0)
(0 -6.40569e-18 0 -6.40569e-18 -5.73253e-13 0 0 0 0)
(0 -2.72639e-17 0 -2.72639e-17 5.63639e-13 0 0 0 0)
(0 1.63583e-17 0 1.63583e-17 -5.53728e-13 0 0 0 0)
(0 3.09696e-17 0 3.09696e-17 5.43553e-13 0 0 0 0)
(0 6.72332e-18 0 6.72332e-18 -5.3309e-13 0 0 0 0)
(0 -2.8905e-17 0 -2.8905e-17 5.22381e-13 0 0 0 0)
(0 4.65868e-18 0 4.65868e-18 -5.11398e-13 0 0 0 0)
(0 7.99387e-18 0 7.99387e-18 5.00184e-13 0 0 0 0)
(0 7.41154e-19 0 7.41154e-19 -4.88702e-13 0 0 0 0)
(0 2.35052e-17 0 2.35052e-17 4.77011e-13 0 0 0 0)
(0 -2.76344e-17 0 -2.76344e-17 -4.65053e-13 0 0 0 0)
(0 2.06464e-18 0 2.06464e-18 4.52958e-13 0 0 0 0)
(0 3.17637e-18 0 3.17637e-18 -4.40478e-13 0 0 0 0)
(0 -2.41404e-17 0 -2.41404e-17 4.27995e-13 0 0 0 0)
(0 2.56757e-17 0 2.56757e-17 -4.15108e-13 0 0 0 0)
(0 2.18111e-17 0 2.18111e-17 4.02216e-13 0 0 0 0)
(0 -2.87991e-17 0 -2.87991e-17 -3.88945e-13 0 0 0 0)
(0 5.24102e-18 0 5.24102e-18 3.75658e-13 0 0 0 0)
(0 1.94288e-17 0 1.94288e-17 -3.62073e-13 0 0 0 0)
(0 -1.82112e-17 0 -1.82112e-17 3.48445e-13 0 0 0 0)
(0 -1.98523e-17 0 -1.98523e-17 -3.34512e-13 0 0 0 0)
(0 -2.29228e-17 0 -2.29228e-17 3.20568e-13 0 0 0 0)
(0 4.8175e-18 0 4.8175e-18 -3.06404e-13 0 0 0 0)
(0 -7.3586e-18 0 -7.3586e-18 2.92143e-13 0 0 0 0)
(0 2.48816e-18 0 2.48816e-18 -2.77716e-13 0 0 0 0)
(0 -2.32934e-18 0 -2.32934e-18 2.63155e-13 0 0 0 0)
(0 -1.80524e-17 0 -1.80524e-17 -2.50853e-13 0 0 0 0)
(0 1.4029e-17 0 1.4029e-17 2.41979e-13 0 0 0 0)
(0 8.20563e-18 0 8.20563e-18 -2.34169e-13 0 0 0 0)
(0 8.15269e-18 0 8.15269e-18 2.26079e-13 0 0 0 0)
(0 8.09975e-18 0 8.09975e-18 -2.17684e-13 0 0 0 0)
(0 -3.70577e-18 0 -3.70577e-18 2.08844e-13 0 0 0 0)
(0 -2.59404e-17 0 -2.59404e-17 -1.99697e-13 0 0 0 0)
(0 -6.03511e-18 0 -6.03511e-18 1.90054e-13 0 0 0 0)
(0 6.14099e-17 0 6.14099e-17 -1.79939e-13 0 0 0 0)
(0 1.68348e-17 0 1.68348e-17 1.69107e-13 0 0 0 0)
(0 -4.27752e-17 0 -4.27752e-17 -1.57604e-13 0 0 0 0)
(0 -9.3703e-18 0 -9.3703e-18 1.45031e-13 0 0 0 0)
(0 2.6258e-17 0 2.6258e-17 -1.31286e-13 0 0 0 0)
(0 2.72109e-17 0 2.72109e-17 1.15851e-13 0 0 0 0)
(0 -1.96406e-17 0 -1.96406e-17 -9.77809e-14 0 0 0 0)
(0 -7.41154e-19 0 -7.41154e-19 7.51194e-14 0 0 0 0)
(0 2.28699e-17 0 2.28699e-17 -3.15238e-14 0 0 0 0)
)
;

boundaryField
{
    inandouthalf11
    {
        type            cyclic;
    }
    inandouthalf12
    {
        type            cyclic;
    }
    inandouthalf21
    {
        type            cyclic;
    }
    inandouthalf22
    {
        type            cyclic;
    }
    inandouthalf31
    {
        type            cyclic;
    }
    inandouthalf32
    {
        type            cyclic;
    }
    inandouthalf41
    {
        type            cyclic;
    }
    inandouthalf42
    {
        type            cyclic;
    }
    top
    {
        type            symmetryPlane;
    }
    walls
    {
        type            zeroGradient;
    }
    frontAndBackPlanes
    {
        type            empty;
    }
}


// ************************************************************************* //
