/*--------------------------------*- C++ -*----------------------------------*\
| =========                 |                                                 |
| \\      /  F ield         | OpenFOAM: The Open Source CFD Toolbox           |
|  \\    /   O peration     | Version:  2.4.x                                 |
|   \\  /    A nd           | Web:      www.OpenFOAM.org                      |
|    \\/     M anipulation  |                                                 |
\*---------------------------------------------------------------------------*/
FoamFile
{
    version     2.0;
    format      ascii;
    class       volVectorField;
    location    "2.4";
    object      Ub_0;
}
// * * * * * * * * * * * * * * * * * * * * * * * * * * * * * * * * * * * * * //

dimensions      [0 1 -1 0 0 0 0];

internalField   nonuniform List<vector> 
360
(
(-0.000240514 -1.78181e-13 0)
(-0.000240924 -5.35739e-13 0)
(-0.000240926 -8.93958e-13 0)
(-0.000240926 -1.25273e-12 0)
(-0.000240926 -1.61117e-12 0)
(-0.000240928 -1.96907e-12 0)
(-0.000240928 -2.32596e-12 0)
(-0.00024093 -2.68132e-12 0)
(-0.00024093 -3.03454e-12 0)
(-0.000240932 -3.38579e-12 0)
(-0.000240934 -3.73442e-12 0)
(-0.000240934 -4.08041e-12 0)
(-0.000240936 -4.42331e-12 0)
(-0.000240938 -4.76303e-12 0)
(-0.00024094 -5.0987e-12 0)
(-0.000240942 -5.4305e-12 0)
(-0.000240944 -5.7584e-12 0)
(-0.000240946 -6.08193e-12 0)
(-0.000240948 -6.40054e-12 0)
(-0.000240952 -6.7144e-12 0)
(-0.000240955 -7.02304e-12 0)
(-0.000240959 -7.32637e-12 0)
(-0.000240963 -7.62377e-12 0)
(-0.000240967 -7.91549e-12 0)
(-0.000240971 -8.20113e-12 0)
(-0.000240975 -8.48068e-12 0)
(-0.000240979 -8.75366e-12 0)
(-0.000240985 -9.01997e-12 0)
(-0.000240991 -9.27954e-12 0)
(-0.000240997 -9.5322e-12 0)
(-0.000241003 -9.77709e-12 0)
(-0.000241011 -1.00132e-11 0)
(-0.000241017 -1.02339e-11 0)
(-0.000241027 -1.03997e-11 0)
(-0.000241035 -1.02896e-11 0)
(-0.000241046 -8.72675e-12 0)
(-0.000241056 4.06983e-14 0)
(-0.000241068 4.11057e-11 0)
(-0.000241082 2.16452e-10 0)
(-0.000241094 9.21394e-10 0)
(-0.000241111 3.51301e-09 0)
(-0.000241128 1.19454e-08 0)
(-0.000241146 3.59457e-08 0)
(-0.000241172 9.5776e-08 0)
(-0.000241206 2.26324e-07 0)
(-0.000241255 4.76187e-07 0)
(-0.000241327 8.97589e-07 0)
(-0.000241425 1.52719e-06 0)
(-0.000241554 2.36763e-06 0)
(-0.000241711 3.37988e-06 0)
(-0.000241881 4.48972e-06 0)
(-0.000242058 5.61046e-06 0)
(-0.000242228 6.66639e-06 0)
(-0.000242386 7.60712e-06 0)
(-0.000242528 8.41031e-06 0)
(-0.000242657 9.07619e-06 0)
(-0.00024277 9.618e-06 0)
(-0.000242874 1.00546e-05 0)
(-0.000242969 1.04058e-05 0)
(-0.000243057 1.06891e-05 0)
(-0.000243143 1.09196e-05 0)
(-0.000243223 1.11093e-05 0)
(-0.000243302 1.12679e-05 0)
(-0.000243379 1.14028e-05 0)
(-0.000243455 1.15201e-05 0)
(-0.000243531 1.16247e-05 0)
(-0.000243609 1.1721e-05 0)
(-0.000243689 1.18128e-05 0)
(-0.000243772 1.19039e-05 0)
(-0.000243859 1.19979e-05 0)
(-0.000243953 1.20989e-05 0)
(-0.000244053 1.22116e-05 0)
(-0.000244158 1.2341e-05 0)
(-0.000244271 1.24928e-05 0)
(-0.00024439 1.26726e-05 0)
(-0.000244517 1.28851e-05 0)
(-0.000244648 1.31333e-05 0)
(-0.000244785 1.3417e-05 0)
(-0.000244926 1.37329e-05 0)
(-0.000245071 1.40749e-05 0)
(-0.000245219 1.44359e-05 0)
(-0.00024537 1.48093e-05 0)
(-0.000245524 1.519e-05 0)
(-0.000245681 1.55756e-05 0)
(-0.000245842 1.59654e-05 0)
(-0.000246006 1.63603e-05 0)
(-0.000246173 1.67619e-05 0)
(-0.000246344 1.71717e-05 0)
(-0.000246517 1.7591e-05 0)
(-0.000246693 1.802e-05 0)
(-0.000246871 1.84585e-05 0)
(-0.000247052 1.89058e-05 0)
(-0.000247235 1.93606e-05 0)
(-0.00024742 1.9822e-05 0)
(-0.000247608 2.02887e-05 0)
(-0.000247799 2.07599e-05 0)
(-0.000247992 2.12347e-05 0)
(-0.000248187 2.17122e-05 0)
(-0.000248384 2.21915e-05 0)
(-0.000248584 2.26719e-05 0)
(-0.000248786 2.31525e-05 0)
(-0.00024899 2.36323e-05 0)
(-0.000249196 2.41107e-05 0)
(-0.000249404 2.45869e-05 0)
(-0.000249615 2.50603e-05 0)
(-0.000249828 2.55304e-05 0)
(-0.000250044 2.59967e-05 0)
(-0.000250262 2.64589e-05 0)
(-0.000250483 2.69167e-05 0)
(-0.000250707 2.73698e-05 0)
(-0.000250934 2.78179e-05 0)
(-0.000251164 2.8261e-05 0)
(-0.000251397 2.8699e-05 0)
(-0.000251634 2.91316e-05 0)
(-0.000251875 2.9559e-05 0)
(-0.00025212 2.9981e-05 0)
(-0.00025237 3.03976e-05 0)
(-0.000252624 3.08088e-05 0)
(-0.000252883 3.12145e-05 0)
(-0.000253147 3.16146e-05 0)
(-0.000253417 3.2009e-05 0)
(-0.000253693 3.23973e-05 0)
(-0.000253976 3.27792e-05 0)
(-0.000254265 3.31541e-05 0)
(-0.000254562 3.35211e-05 0)
(-0.000254867 3.38794e-05 0)
(-0.000255181 3.42282e-05 0)
(-0.000255505 3.45666e-05 0)
(-0.00025584 3.48935e-05 0)
(-0.000256187 3.52076e-05 0)
(-0.000256547 3.55075e-05 0)
(-0.000256919 3.57916e-05 0)
(-0.000257305 3.60595e-05 0)
(-0.00025771 3.63124e-05 0)
(-0.000258137 3.6554e-05 0)
(-0.000258584 3.67892e-05 0)
(-0.000259045 3.70237e-05 0)
(-0.000259524 3.72658e-05 0)
(-0.000260044 3.7528e-05 0)
(-0.000260628 3.78238e-05 0)
(-0.000261229 3.81485e-05 0)
(-0.000261749 3.84438e-05 0)
(-0.000262399 3.86622e-05 0)
(-0.000263333 3.8782e-05 0)
(-0.000264564 3.74576e-05 0)
(-0.000266051 5.45778e-05 0)
(-0.000188425 -3.06029e-05 0)
(0.0145631 -0.000779503 0)
(0.0718904 -0.000984181 0)
(0.128006 -0.000746571 0)
(0.178057 -0.000730348 0)
(0.223324 -0.000716796 0)
(0.264944 -0.000698506 0)
(0.303723 -0.00067699 0)
(0.34024 -0.000653811 0)
(0.374928 -0.000629235 0)
(0.408109 -0.000603476 0)
(0.440032 -0.000576775 0)
(0.470893 -0.000549322 0)
(0.500847 -0.000521261 0)
(0.530015 -0.000492696 0)
(0.558497 -0.000463728 0)
(0.586373 -0.000434449 0)
(0.613709 -0.000404938 0)
(0.640557 -0.000375275 0)
(0.666959 -0.000345537 0)
(0.692949 -0.000315777 0)
(0.718552 -0.000286041 0)
(0.743786 -0.00025639 0)
(0.768661 -0.000226949 0)
(0.793179 -0.000197928 0)
(0.817332 -0.000169424 0)
(0.841098 -0.000141012 0)
(0.864436 -0.000111793 0)
(0.887266 -8.1741e-05 0)
(0.909443 -5.32424e-05 0)
(0.930713 -3.03255e-05 0)
(0.950659 -1.53939e-05 0)
(0.967124 -7.59861e-06 0)
(0.973764 -4.38723e-06 0)
(0.976058 -2.74195e-06 0)
(0.97785 -1.93414e-06 0)
(0.979465 -1.36544e-06 0)
(0.980936 -1.1269e-06 0)
(0.982279 -8.4753e-07 0)
(0.983509 -7.56946e-07 0)
(0.984636 -5.76976e-07 0)
(0.98567 -5.40955e-07 0)
(0.98662 -4.1051e-07 0)
(0.987493 -4.02304e-07 0)
(0.988296 -3.00698e-07 0)
(0.989034 -3.05908e-07 0)
(0.989714 -2.24285e-07 0)
(0.990339 -2.38323e-07 0)
(0.990915 -1.70048e-07 0)
(0.991446 -1.87388e-07 0)
(0.991934 -1.28997e-07 0)
(0.992384 -1.49782e-07 0)
(0.992798 -9.96691e-08 0)
(0.99318 -1.21334e-07 0)
(0.993533 -7.52944e-08 0)
(0.993861 -9.9347e-08 0)
(0.994168 -5.44003e-08 0)
(0.994456 -8.61203e-08 0)
(0.994726 -3.70365e-08 0)
(0.994979 -7.35352e-08 0)
(0.995214 -2.04286e-08 0)
(0.995433 -6.61566e-08 0)
(0.995636 -8.74638e-09 0)
(0.995825 -5.95264e-08 0)
(0.996 3.0249e-09 0)
(0.996161 -5.58298e-08 0)
(0.996309 1.18882e-08 0)
(0.996446 -5.25722e-08 0)
(0.996572 1.96134e-08 0)
(0.996687 -5.13628e-08 0)
(0.996792 2.63479e-08 0)
(0.996888 -4.99975e-08 0)
(0.996976 3.16534e-08 0)
(0.997055 -5.00405e-08 0)
(0.997127 3.64996e-08 0)
(0.997192 -5.005e-08 0)
(0.997251 4.03561e-08 0)
(0.997304 -5.04542e-08 0)
(0.997351 4.36682e-08 0)
(0.997393 -5.12085e-08 0)
(0.997431 4.65635e-08 0)
(0.997465 -5.20231e-08 0)
(0.997495 4.89491e-08 0)
(0.997521 -5.30242e-08 0)
(0.997544 5.11744e-08 0)
(0.997565 -5.41968e-08 0)
(0.997583 5.31565e-08 0)
(0.997599 -5.542e-08 0)
(0.997612 5.50055e-08 0)
(0.997624 -5.6754e-08 0)
(0.997635 5.67696e-08 0)
(0.997644 -5.81694e-08 0)
(0.997651 5.84819e-08 0)
(0.997658 -5.96814e-08 0)
(0.997663 6.01159e-08 0)
(0.997668 -6.14461e-08 0)
(0.997672 6.26166e-08 0)
(0.997676 -6.34985e-08 0)
(0.997679 6.43739e-08 0)
(0.997681 -6.5246e-08 0)
(0.997683 6.61097e-08 0)
(0.997685 -6.69699e-08 0)
(0.997686 6.78197e-08 0)
(0.997688 -6.86433e-08 0)
(0.997688 6.94339e-08 0)
(0.997689 -7.01983e-08 0)
(0.99769 7.09296e-08 0)
(0.99769 -7.16353e-08 0)
(0.997691 7.23085e-08 0)
(0.997691 -7.2957e-08 0)
(0.997691 7.35741e-08 0)
(0.997692 -7.41679e-08 0)
(0.997692 7.47318e-08 0)
(0.997692 -7.52738e-08 0)
(0.997692 7.5788e-08 0)
(0.997692 -7.6282e-08 0)
(0.997692 7.67504e-08 0)
(0.997692 -7.72006e-08 0)
(0.997692 7.76276e-08 0)
(0.997692 -7.80385e-08 0)
(0.997692 7.84287e-08 0)
(0.997692 -7.88051e-08 0)
(0.997692 7.91634e-08 0)
(0.997692 -7.95102e-08 0)
(0.997692 7.98412e-08 0)
(0.997692 -8.01633e-08 0)
(0.997692 8.04719e-08 0)
(0.997692 -8.07739e-08 0)
(0.997692 8.10649e-08 0)
(0.997692 -8.13514e-08 0)
(0.997692 8.16292e-08 0)
(0.997692 -8.19047e-08 0)
(0.997692 8.21737e-08 0)
(0.997692 -8.24422e-08 0)
(0.997692 8.27064e-08 0)
(0.997692 -8.2972e-08 0)
(0.997692 8.32355e-08 0)
(0.997692 -8.35019e-08 0)
(0.997692 8.37682e-08 0)
(0.997692 -8.40391e-08 0)
(0.997692 8.43118e-08 0)
(0.997692 -8.45906e-08 0)
(0.997692 8.48731e-08 0)
(0.997692 -8.51631e-08 0)
(0.997692 8.54586e-08 0)
(0.997692 -8.57631e-08 0)
(0.997692 8.6075e-08 0)
(0.997692 -8.63971e-08 0)
(0.997692 8.67286e-08 0)
(0.997692 -8.70716e-08 0)
(0.997692 8.74259e-08 0)
(0.997692 -8.77932e-08 0)
(0.997692 8.81734e-08 0)
(0.997692 -8.85683e-08 0)
(0.997692 8.8978e-08 0)
(0.997692 -8.94039e-08 0)
(0.997692 8.98465e-08 0)
(0.997692 -9.03072e-08 0)
(0.997692 9.07864e-08 0)
(0.997692 -9.12856e-08 0)
(0.997692 9.18053e-08 0)
(0.997692 -9.23471e-08 0)
(0.997692 9.29114e-08 0)
(0.997692 -9.34998e-08 0)
(0.997692 8.24875e-08 0)
(0.997692 -8.12306e-08 0)
(0.997692 7.99887e-08 0)
(0.997692 -7.87627e-08 0)
(0.997692 7.75532e-08 0)
(0.997692 -7.63608e-08 0)
(0.997692 7.51862e-08 0)
(0.997692 -7.40299e-08 0)
(0.997692 7.28926e-08 0)
(0.997692 -7.17748e-08 0)
(0.997692 7.06772e-08 0)
(0.997692 -6.96001e-08 0)
(0.997692 6.85443e-08 0)
(0.997692 -6.751e-08 0)
(0.997692 6.64983e-08 0)
(0.997692 -6.55088e-08 0)
(0.997692 6.4543e-08 0)
(0.997692 -6.36004e-08 0)
(0.997692 6.26823e-08 0)
(0.997692 -6.17881e-08 0)
(0.997692 6.092e-08 0)
(0.997692 -6.00758e-08 0)
(0.997692 5.92591e-08 0)
(0.997692 -5.84666e-08 0)
(0.997692 5.7703e-08 0)
(0.997692 -5.69637e-08 0)
(0.997692 5.62543e-08 0)
(0.997692 -5.55697e-08 0)
(0.997692 5.49159e-08 0)
(0.997692 -5.42872e-08 0)
(0.997692 5.369e-08 0)
(0.997692 -5.31184e-08 0)
(0.997692 5.25788e-08 0)
(0.997692 -5.20657e-08 0)
(0.997692 5.15751e-08 0)
(0.997692 -5.10978e-08 0)
(0.997692 5.06381e-08 0)
(0.997692 -5.01936e-08 0)
(0.997692 4.97671e-08 0)
(0.997692 -4.93582e-08 0)
(0.997692 4.89679e-08 0)
(0.997692 -4.85983e-08 0)
(0.997692 4.82476e-08 0)
(0.997692 -4.79222e-08 0)
(0.997692 4.76169e-08 0)
(0.997692 -4.73423e-08 0)
(0.997692 4.70915e-08 0)
(0.997692 -4.68791e-08 0)
(0.997692 4.66995e-08 0)
(0.997692 -4.6578e-08 0)
)
;

boundaryField
{
    inandouthalf11
    {
        type            cyclic;
    }
    inandouthalf12
    {
        type            cyclic;
    }
    inandouthalf21
    {
        type            cyclic;
    }
    inandouthalf22
    {
        type            cyclic;
    }
    inandouthalf31
    {
        type            cyclic;
    }
    inandouthalf32
    {
        type            cyclic;
    }
    inandouthalf41
    {
        type            cyclic;
    }
    inandouthalf42
    {
        type            cyclic;
    }
    top
    {
        type            symmetryPlane;
    }
    walls
    {
        type            fixedValue;
        value           uniform (0 0 0);
    }
    frontAndBackPlanes
    {
        type            empty;
    }
}


// ************************************************************************* //
