/*--------------------------------*- C++ -*----------------------------------*\
| =========                 |                                                 |
| \\      /  F ield         | OpenFOAM: The Open Source CFD Toolbox           |
|  \\    /   O peration     | Version:  2.4.x                                 |
|   \\  /    A nd           | Web:      www.OpenFOAM.org                      |
|    \\/     M anipulation  |                                                 |
\*---------------------------------------------------------------------------*/
FoamFile
{
    version     2.0;
    format      ascii;
    class       volVectorField;
    location    "2.4";
    object      Ur;
}
// * * * * * * * * * * * * * * * * * * * * * * * * * * * * * * * * * * * * * //

dimensions      [0 1 -1 0 0 0 0];

internalField   nonuniform List<vector> 
360
(
(-0.00024055 -2.0201e-13 0)
(-0.00024096 -6.07759e-13 0)
(-0.000240962 -1.01463e-12 0)
(-0.000240962 -1.42178e-12 0)
(-0.000240962 -1.82841e-12 0)
(-0.000240964 -2.23424e-12 0)
(-0.000240964 -2.6384e-12 0)
(-0.000240966 -3.04114e-12 0)
(-0.000240966 -3.44164e-12 0)
(-0.000240968 -3.84e-12 0)
(-0.00024097 -4.23563e-12 0)
(-0.00024097 -4.62785e-12 0)
(-0.000240972 -5.01648e-12 0)
(-0.000240974 -5.40127e-12 0)
(-0.000240976 -5.7817e-12 0)
(-0.000240978 -6.15796e-12 0)
(-0.00024098 -6.5294e-12 0)
(-0.000240982 -6.89591e-12 0)
(-0.000240984 -7.25692e-12 0)
(-0.000240988 -7.61224e-12 0)
(-0.00024099 -7.96149e-12 0)
(-0.000240994 -8.30491e-12 0)
(-0.000240999 -8.64164e-12 0)
(-0.000241003 -8.97166e-12 0)
(-0.000241007 -9.29464e-12 0)
(-0.000241011 -9.61021e-12 0)
(-0.000241015 -9.91846e-12 0)
(-0.000241021 -1.02194e-11 0)
(-0.000241027 -1.05124e-11 0)
(-0.000241033 -1.07973e-11 0)
(-0.000241039 -1.10735e-11 0)
(-0.000241047 -1.13394e-11 0)
(-0.000241053 -1.15846e-11 0)
(-0.000241063 -1.1752e-11 0)
(-0.000241071 -1.15209e-11 0)
(-0.000241082 -9.16759e-12 0)
(-0.000241092 3.87808e-12 0)
(-0.000241104 6.62178e-11 0)
(-0.000241118 3.39645e-10 0)
(-0.00024113 1.45577e-09 0)
(-0.000241146 5.58399e-09 0)
(-0.000241162 1.90894e-08 0)
(-0.000241178 5.77834e-08 0)
(-0.000241198 1.54911e-07 0)
(-0.000241217 3.6839e-07 0)
(-0.000241236 7.79704e-07 0)
(-0.000241256 1.47705e-06 0)
(-0.000241274 2.52231e-06 0)
(-0.000241294 3.91882e-06 0)
(-0.000241316 5.5988e-06 0)
(-0.000241338 7.43533e-06 0)
(-0.000241364 9.28195e-06 0)
(-0.000241391 1.10137e-05 0)
(-0.000241423 1.255e-05 0)
(-0.000241456 1.38572e-05 0)
(-0.000241495 1.49383e-05 0)
(-0.000241535 1.58167e-05 0)
(-0.00024158 1.65243e-05 0)
(-0.000241627 1.70935e-05 0)
(-0.000241676 1.75529e-05 0)
(-0.00024173 1.79273e-05 0)
(-0.000241784 1.8236e-05 0)
(-0.000241841 1.84944e-05 0)
(-0.000241899 1.87147e-05 0)
(-0.000241959 1.89065e-05 0)
(-0.00024202 1.90779e-05 0)
(-0.000242084 1.92358e-05 0)
(-0.00024215 1.93867e-05 0)
(-0.00024222 1.95364e-05 0)
(-0.000242293 1.9691e-05 0)
(-0.000242372 1.98573e-05 0)
(-0.000242455 2.00427e-05 0)
(-0.00024254 2.02555e-05 0)
(-0.000242631 2.05052e-05 0)
(-0.000242723 2.08009e-05 0)
(-0.000242818 2.11509e-05 0)
(-0.000242913 2.15599e-05 0)
(-0.000243008 2.20278e-05 0)
(-0.000243103 2.2549e-05 0)
(-0.000243198 2.31135e-05 0)
(-0.000243294 2.37091e-05 0)
(-0.000243391 2.43248e-05 0)
(-0.000243491 2.49524e-05 0)
(-0.000243593 2.55876e-05 0)
(-0.000243699 2.62298e-05 0)
(-0.000243808 2.68804e-05 0)
(-0.00024392 2.75423e-05 0)
(-0.000244035 2.8218e-05 0)
(-0.000244151 2.89094e-05 0)
(-0.00024427 2.96171e-05 0)
(-0.00024439 3.03408e-05 0)
(-0.000244512 3.1079e-05 0)
(-0.000244636 3.18299e-05 0)
(-0.000244763 3.25917e-05 0)
(-0.000244893 3.33625e-05 0)
(-0.000245025 3.41409e-05 0)
(-0.000245159 3.49254e-05 0)
(-0.000245297 3.57146e-05 0)
(-0.000245438 3.65072e-05 0)
(-0.000245582 3.73017e-05 0)
(-0.000245728 3.80967e-05 0)
(-0.000245879 3.88908e-05 0)
(-0.000246032 3.96828e-05 0)
(-0.000246189 4.04715e-05 0)
(-0.00024635 4.12559e-05 0)
(-0.000246515 4.20351e-05 0)
(-0.000246684 4.28086e-05 0)
(-0.000246858 4.35755e-05 0)
(-0.000247035 4.43355e-05 0)
(-0.000247218 4.50881e-05 0)
(-0.000247405 4.58331e-05 0)
(-0.000247598 4.657e-05 0)
(-0.000247796 4.72989e-05 0)
(-0.000247999 4.80196e-05 0)
(-0.000248209 4.87319e-05 0)
(-0.000248424 4.94359e-05 0)
(-0.000248646 5.01315e-05 0)
(-0.000248875 5.08187e-05 0)
(-0.000249111 5.14974e-05 0)
(-0.000249355 5.21674e-05 0)
(-0.000249607 5.28286e-05 0)
(-0.000249868 5.34805e-05 0)
(-0.000250138 5.41224e-05 0)
(-0.000250417 5.47533e-05 0)
(-0.000250707 5.5372e-05 0)
(-0.000251008 5.59772e-05 0)
(-0.00025132 5.65675e-05 0)
(-0.000251646 5.71414e-05 0)
(-0.000251987 5.76973e-05 0)
(-0.000252342 5.82331e-05 0)
(-0.000252713 5.87462e-05 0)
(-0.0002531 5.92342e-05 0)
(-0.000253504 5.96961e-05 0)
(-0.000253929 6.01342e-05 0)
(-0.000254382 6.05546e-05 0)
(-0.000254858 6.09655e-05 0)
(-0.000255353 6.13765e-05 0)
(-0.000255874 6.18013e-05 0)
(-0.000256448 6.22621e-05 0)
(-0.000257103 6.27844e-05 0)
(-0.000257795 6.33621e-05 0)
(-0.000258418 6.39013e-05 0)
(-0.000259165 6.43133e-05 0)
(-0.00026017 6.45559e-05 0)
(-0.000261431 6.33678e-05 0)
(-0.000262918 7.98423e-05 0)
(-0.000183671 -3.32427e-06 0)
(0.00211485 -0.00184704 0)
(0.00751043 -0.00346301 0)
(0.00716167 -0.00349747 0)
(0.00651944 -0.00406634 0)
(0.00577975 -0.00467102 0)
(0.00511433 -0.00531248 0)
(0.00451353 -0.00597476 0)
(0.00396151 -0.00666405 0)
(0.00345207 -0.00738119 0)
(0.00298576 -0.00812613 0)
(0.00256739 -0.00889854 0)
(0.00220507 -0.00969774 0)
(0.00191042 -0.0105229 0)
(0.00169926 -0.0113731 0)
(0.00159275 -0.0122478 0)
(0.00161957 -0.013147 0)
(0.00181866 -0.0140712 0)
(0.00224238 -0.0150217 0)
(0.00295891 -0.0160007 0)
(0.00405641 -0.0170105 0)
(0.00564741 -0.0180538 0)
(0.00787249 -0.0191323 0)
(0.0109043 -0.0202489 0)
(0.0149507 -0.0214133 0)
(0.0202561 -0.0226432 0)
(0.0270947 -0.0239312 0)
(0.035737 -0.025164 0)
(0.0463562 -0.0260887 0)
(0.0588611 -0.0264654 0)
(0.0727489 -0.0263013 0)
(0.0871072 -0.0258418 0)
(0.099331 -0.0253391 0)
(0.102571 -0.024891 0)
(0.101846 -0.0244988 0)
(0.100916 -0.0241525 0)
(0.10003 -0.0238445 0)
(0.0991784 -0.0235697 0)
(0.0983468 -0.0233225 0)
(0.0975312 -0.0230991 0)
(0.0967257 -0.0228956 0)
(0.0959259 -0.0227088 0)
(0.0951309 -0.0225363 0)
(0.0943402 -0.0223763 0)
(0.0935528 -0.0222268 0)
(0.0927663 -0.0220863 0)
(0.0919819 -0.0219534 0)
(0.0912019 -0.0218274 0)
(0.090428 -0.0217073 0)
(0.0896577 -0.0215922 0)
(0.0888914 -0.021481 0)
(0.0881312 -0.0213733 0)
(0.0873842 -0.0212691 0)
(0.0866505 -0.0211677 0)
(0.0859281 -0.0210683 0)
(0.0852063 -0.0209688 0)
(0.0844823 -0.0208683 0)
(0.0837667 -0.0207683 0)
(0.0830572 -0.0206683 0)
(0.082338 -0.0205662 0)
(0.0816036 -0.0204608 0)
(0.0808717 -0.0203544 0)
(0.0801511 -0.0202482 0)
(0.0794214 -0.0201394 0)
(0.078675 -0.020026 0)
(0.0779311 -0.019911 0)
(0.0771899 -0.0197945 0)
(0.0764351 -0.0196735 0)
(0.0756753 -0.0195486 0)
(0.074925 -0.0194229 0)
(0.0741671 -0.019293 0)
(0.0733878 -0.0191558 0)
(0.0726105 -0.019015 0)
(0.0718463 -0.0188735 0)
(0.0710692 -0.0187253 0)
(0.0702785 -0.0185695 0)
(0.0694897 -0.0184096 0)
(0.0686914 -0.0182426 0)
(0.0678862 -0.0180678 0)
(0.0670857 -0.0178888 0)
(0.0662714 -0.0176998 0)
(0.065443 -0.0174997 0)
(0.0646228 -0.0172942 0)
(0.0637953 -0.0170789 0)
(0.0629532 -0.0168492 0)
(0.0621194 -0.0166125 0)
(0.0612845 -0.0163644 0)
(0.0604455 -0.0161022 0)
(0.0596108 -0.0158278 0)
(0.0587849 -0.0155408 0)
(0.0579758 -0.0152425 0)
(0.0571854 -0.0149311 0)
(0.0564348 -0.0146116 0)
(0.0557585 -0.0142974 0)
(0.0551865 -0.0140031 0)
(0.0545947 -0.0136853 0)
(-0.00452135 0.039491 0)
(-0.00452151 0.0394908 0)
(-0.00452136 0.0394909 0)
(-0.00452127 0.0394908 0)
(-0.00452118 0.0394909 0)
(-0.00452111 0.0394908 0)
(-0.00452105 0.0394909 0)
(-0.00452101 0.0394908 0)
(-0.00452097 0.0394909 0)
(-0.00452094 0.0394908 0)
(-0.00452091 0.0394909 0)
(-0.00452089 0.0394908 0)
(-0.00452087 0.0394909 0)
(-0.00452086 0.0394908 0)
(-0.00452085 0.0394909 0)
(-0.00452084 0.0394908 0)
(-0.00452083 0.0394909 0)
(-0.00452083 0.0394908 0)
(-0.00452083 0.0394909 0)
(-0.00452083 0.0394908 0)
(-0.00452082 0.0394909 0)
(-0.00452082 0.0394908 0)
(-0.00452082 0.0394909 0)
(-0.00452082 0.0394908 0)
(-0.00452081 0.0394909 0)
(-0.00452082 0.0394908 0)
(-0.00452081 0.0394909 0)
(-0.00452082 0.0394908 0)
(-0.00452081 0.0394909 0)
(-0.00452082 0.0394908 0)
(-0.00452081 0.0394909 0)
(-0.00452082 0.0394908 0)
(-0.00452081 0.0394909 0)
(-0.00452082 0.0394908 0)
(-0.00452081 0.039491 0)
(-0.00452082 0.0394908 0)
(-0.00452081 0.039491 0)
(-0.00452082 0.0394908 0)
(-0.00452081 0.039491 0)
(-0.00452082 0.0394908 0)
(-0.00452081 0.039491 0)
(-0.00452082 0.0394908 0)
(-0.00452081 0.039491 0)
(-0.00452082 0.0394908 0)
(-0.00452081 0.039491 0)
(-0.00452082 0.0394908 0)
(-0.00452081 0.039491 0)
(-0.00452082 0.0394908 0)
(-0.00452081 0.039491 0)
(-0.00452082 0.0394908 0)
(-0.00452081 0.039491 0)
(-0.00452082 0.0394908 0)
(-0.00452081 0.039491 0)
(-0.00452082 0.0394908 0)
(-0.00452081 0.039491 0)
(-0.00452082 0.0394908 0)
(-0.00452081 0.039491 0)
(-0.00452082 0.0394908 0)
(-0.00452081 0.039491 0)
(-0.00452082 0.0394908 0)
(-0.00452081 0.039491 0)
(-0.00452082 0.0394908 0)
(-0.00452081 0.039491 0)
(-0.00452082 0.0394908 0)
(-0.00452081 0.039491 0)
(-0.00452082 0.0394908 0)
(-0.00452081 0.039491 0)
(-0.00452082 0.0394908 0)
(-0.00452081 0.0394909 0)
(-0.00452082 0.0394908 0)
(-0.00452081 0.0394909 0)
(-0.00452082 0.0394908 0)
(-0.00452081 0.0394909 0)
(-0.00452082 0.0394908 0)
(-0.00452081 0.0394909 0)
(-0.00452082 0.0394908 0)
(-0.00452081 0.0394909 0)
(-0.00452082 0.0394908 0)
(-0.00452081 0.0394909 0)
(-0.00452081 0.0394908 0)
(-0.00452081 0.0394909 0)
(-0.00452081 0.0394908 0)
(-0.00452081 0.0394909 0)
(-0.00452081 0.0394908 0)
(-0.00452081 0.0394909 0)
(-0.00452081 0.0394908 0)
(-0.00452081 0.0394909 0)
(-0.00452081 0.0394908 0)
(-0.00452081 0.0394909 0)
(-0.00452081 0.0394908 0)
(-0.00452081 0.0394909 0)
(-0.00452081 0.0394908 0)
(-0.00452081 0.0394909 0)
(-0.00452081 0.0394908 0)
(-0.00452081 0.0394909 0)
(-0.00452081 0.0394908 0)
(-0.00452081 0.0394909 0)
(-0.00452081 0.0394908 0)
(-0.00452081 0.0394909 0)
(-0.00452081 0.0394908 0)
(-0.00452081 0.0394909 0)
(-0.00452081 0.0394908 0)
(-0.00452081 0.0394909 0)
(-0.00452081 0.0394908 0)
(-0.00452081 0.0394909 0)
(-0.00452081 0.0394908 0)
(-0.00452081 0.0394909 0)
(-0.00452081 0.0394908 0)
(-0.00452081 0.0394909 0)
(-0.00452081 0.0394908 0)
(-0.00452081 0.0394909 0)
(-0.00452081 0.0394908 0)
(-0.00452081 0.0394909 0)
(-0.00452082 0.0394908 0)
(-0.00452086 0.0394907 0)
(-0.00452211 0.0394821 0)
(-0.00455265 0.0391363 0)
(-0.00526156 0.0223845 0)
)
;

boundaryField
{
    inandouthalf11
    {
        type            cyclic;
    }
    inandouthalf12
    {
        type            cyclic;
    }
    inandouthalf21
    {
        type            cyclic;
    }
    inandouthalf22
    {
        type            cyclic;
    }
    inandouthalf31
    {
        type            cyclic;
    }
    inandouthalf32
    {
        type            cyclic;
    }
    inandouthalf41
    {
        type            cyclic;
    }
    inandouthalf42
    {
        type            cyclic;
    }
    top
    {
        type            symmetryPlane;
    }
    walls
    {
        type            calculated;
        value           uniform (0 0 0);
    }
    frontAndBackPlanes
    {
        type            empty;
    }
}


// ************************************************************************* //
