/*--------------------------------*- C++ -*----------------------------------*\
| =========                 |                                                 |
| \\      /  F ield         | OpenFOAM: The Open Source CFD Toolbox           |
|  \\    /   O peration     | Version:  2.4.x                                 |
|   \\  /    A nd           | Web:      www.OpenFOAM.org                      |
|    \\/     M anipulation  |                                                 |
\*---------------------------------------------------------------------------*/
FoamFile
{
    version     2.0;
    format      ascii;
    class       volScalarField;
    location    "8.25";
    object      alpha_0;
}
// * * * * * * * * * * * * * * * * * * * * * * * * * * * * * * * * * * * * * //

dimensions      [0 0 0 0 0 0 0];

internalField   nonuniform List<scalar> 
360
(
0.610842
0.611684
0.611779
0.611692
0.611647
0.611632
0.611615
0.611593
0.61157
0.611546
0.611523
0.611499
0.611475
0.611452
0.611427
0.611403
0.611378
0.611354
0.611329
0.611303
0.611278
0.611252
0.611226
0.6112
0.611174
0.611147
0.61112
0.611093
0.611066
0.611038
0.61101
0.610982
0.610954
0.610925
0.610896
0.610867
0.610837
0.610807
0.610777
0.610747
0.610716
0.610685
0.610653
0.610621
0.610589
0.610557
0.610524
0.610491
0.610457
0.610423
0.610388
0.610354
0.610318
0.610283
0.610247
0.61021
0.610173
0.610136
0.610098
0.61006
0.61002
0.609981
0.609941
0.609901
0.60986
0.609819
0.609777
0.609734
0.609691
0.609647
0.609603
0.609558
0.609512
0.609466
0.609419
0.609371
0.609323
0.609274
0.609224
0.609173
0.609122
0.60907
0.609017
0.608963
0.608908
0.608852
0.608795
0.608737
0.608679
0.608619
0.608558
0.608496
0.608433
0.608368
0.608303
0.608236
0.608168
0.608098
0.608027
0.607954
0.60788
0.607805
0.607727
0.607648
0.607568
0.607485
0.6074
0.607313
0.607225
0.607134
0.60704
0.606944
0.606846
0.606745
0.606642
0.606535
0.606426
0.606313
0.606197
0.606078
0.605955
0.605828
0.605698
0.605563
0.605423
0.605279
0.605129
0.604974
0.604812
0.604644
0.604468
0.604285
0.604093
0.603892
0.603678
0.603452
0.603215
0.602965
0.602687
0.60237
0.602026
0.601693
0.601294
0.600779
0.600137
0.598897
0.589181
0.378056
0.272766
0.227006
0.196151
0.169969
0.146751
0.125736
0.106652
0.0894166
0.0740154
0.0604447
0.0486646
0.0386034
0.0301541
0.0231822
0.0175348
0.0130493
0.00956037
0.0069046
0.0049253
0.00347976
0.00244727
0.00172988
0.00124551
0.000924054
0.00070984
0.000563614
0.000460272
0.000384541
0.000327184
0.000282491
0.00024682
0.000217767
0.000193695
0.000173456
0.000156225
0.000141395
0.00012851
0.000117221
0.000107258
9.84066e-05
9.04974e-05
8.33926e-05
7.698e-05
7.11669e-05
6.58764e-05
6.10438e-05
5.6614e-05
5.25401e-05
4.87817e-05
4.53036e-05
4.20749e-05
3.9069e-05
3.62628e-05
3.36108e-05
3.10781e-05
2.8658e-05
2.63448e-05
2.41341e-05
2.20237e-05
2.00129e-05
1.81028e-05
1.62948e-05
1.45916e-05
1.29954e-05
1.15094e-05
1.01378e-05
8.8819e-06
7.73908e-06
6.70784e-06
5.78633e-06
4.96815e-06
4.2455e-06
3.61039e-06
3.05691e-06
2.57809e-06
2.16385e-06
1.8079e-06
1.50436e-06
1.24606e-06
1.027e-06
8.42331e-07
6.867e-07
5.5735e-07
4.47689e-07
3.59056e-07
2.86752e-07
2.36266e-07
1.72306e-07
1.20567e-07
8.79684e-08
6.34575e-08
4.34464e-08
2.96237e-08
1.70886e-08
1.0559e-08
2.55291e-09
5.39781e-20
6.04897e-31
7.45186e-42
6.86254e-43
5.34157e-43
3.6379e-43
1.6446e-43
7.3261e-44
3.88302e-44
2.2932e-44
1.47713e-44
9.49688e-45
4.83658e-45
2.21657e-45
1.15329e-45
6.31976e-46
3.52659e-46
1.76827e-46
8.75442e-47
4.42956e-47
2.21322e-47
1.08848e-47
5.26464e-48
2.50309e-48
1.16926e-48
5.36319e-49
2.41411e-49
1.06571e-49
4.61081e-50
1.95377e-50
8.10226e-51
3.28576e-51
1.30198e-51
5.0365e-52
1.90023e-52
6.98558e-53
2.49953e-53
8.6952e-54
2.93723e-54
9.62201e-55
3.05245e-55
9.3632e-56
2.77252e-56
7.91073e-57
2.17068e-57
5.7158e-58
1.44088e-58
3.46818e-59
7.94748e-60
1.72817e-60
3.55274e-61
6.87602e-62
1.24685e-62
2.10653e-63
3.29427e-64
4.7317e-65
6.18399e-66
7.26941e-67
7.57494e-68
6.86546e-69
5.2747e-70
3.3108e-71
1.60291e-72
5.40373e-74
1.00161e-75
2.4632e-78
2.28431e-83
1.85553e-85
7.47152e-88
2.65191e-98
4.7109e-109
6.09948e-120
5.66983e-131
4.53901e-142
2.74325e-153
1.43362e-164
8.9207e-175
3.90644e-185
2.88416e-193
1.15164e-203
9.9202e-212
4.66155e-222
3.41366e-230
1.97033e-240
1.17569e-248
1.26172e-258
4.12321e-267
8.36141e-277
1.48429e-285
4.14104e-295
5.46846e-304
1.98188e-313
1.77446e-318
8.52757e-321
4.57737e-319
2.8055e-319
6.80328e-321
7.09478e-321
6.08689e-321
8.5424e-321
0
0
0
0
0
0
0
0
0
0
0
0
0
0
0
0
)
;

boundaryField
{
    inandouthalf11
    {
        type            cyclic;
    }
    inandouthalf12
    {
        type            cyclic;
    }
    inandouthalf21
    {
        type            cyclic;
    }
    inandouthalf22
    {
        type            cyclic;
    }
    inandouthalf31
    {
        type            cyclic;
    }
    inandouthalf32
    {
        type            cyclic;
    }
    inandouthalf41
    {
        type            cyclic;
    }
    inandouthalf42
    {
        type            cyclic;
    }
    top
    {
        type            symmetryPlane;
    }
    walls
    {
        type            zeroGradient;
    }
    frontAndBackPlanes
    {
        type            empty;
    }
}


// ************************************************************************* //
