/*--------------------------------*- C++ -*----------------------------------*\
| =========                 |                                                 |
| \\      /  F ield         | OpenFOAM: The Open Source CFD Toolbox           |
|  \\    /   O peration     | Version:  2.4.x                                 |
|   \\  /    A nd           | Web:      www.OpenFOAM.org                      |
|    \\/     M anipulation  |                                                 |
\*---------------------------------------------------------------------------*/
FoamFile
{
    version     2.0;
    format      ascii;
    class       volScalarField;
    location    "8.25";
    object      ddt0(alpha);
}
// * * * * * * * * * * * * * * * * * * * * * * * * * * * * * * * * * * * * * //

dimensions      [0 0 -1 0 0 0 0];

internalField   nonuniform List<scalar> 
360
(
4.48337e-05
6.82276e-05
6.39969e-05
6.23425e-05
6.46965e-05
6.66008e-05
6.72836e-05
6.7484e-05
6.75879e-05
6.77008e-05
6.77778e-05
6.77613e-05
6.76629e-05
6.74838e-05
6.725e-05
6.69791e-05
6.66737e-05
6.63302e-05
6.59505e-05
6.55549e-05
6.51169e-05
6.46755e-05
6.42203e-05
6.37571e-05
6.32924e-05
6.28271e-05
6.23615e-05
6.19172e-05
6.14798e-05
6.10534e-05
6.06407e-05
6.02614e-05
5.98726e-05
5.95414e-05
5.92003e-05
5.8894e-05
5.85953e-05
5.83273e-05
5.80906e-05
5.78337e-05
5.76331e-05
5.74314e-05
5.72242e-05
5.7065e-05
5.68954e-05
5.6742e-05
5.65991e-05
5.64295e-05
5.62896e-05
5.61777e-05
5.60271e-05
5.59015e-05
5.57608e-05
5.56349e-05
5.54776e-05
5.53537e-05
5.51826e-05
5.50301e-05
5.48533e-05
5.46484e-05
5.44843e-05
5.42801e-05
5.41e-05
5.38898e-05
5.36723e-05
5.34296e-05
5.31817e-05
5.29148e-05
5.26248e-05
5.23071e-05
5.20099e-05
5.17115e-05
5.1367e-05
5.10455e-05
5.0701e-05
5.03581e-05
4.99702e-05
4.95616e-05
4.91351e-05
4.86941e-05
4.82314e-05
4.77666e-05
4.73002e-05
4.68291e-05
4.63538e-05
4.58662e-05
4.53656e-05
4.48423e-05
4.42975e-05
4.37356e-05
4.316e-05
4.25755e-05
4.19897e-05
4.14046e-05
4.08206e-05
4.02364e-05
3.96495e-05
3.90573e-05
3.84584e-05
3.78528e-05
3.72413e-05
3.66259e-05
3.60091e-05
3.53934e-05
3.47819e-05
3.41778e-05
3.35852e-05
3.30092e-05
3.24556e-05
3.19313e-05
3.14437e-05
3.10006e-05
3.06099e-05
3.02791e-05
3.00149e-05
2.98222e-05
2.97042e-05
2.96608e-05
2.9688e-05
2.97773e-05
2.99146e-05
3.00798e-05
3.02471e-05
3.0387e-05
3.04696e-05
3.04692e-05
3.03675e-05
3.0153e-05
2.98158e-05
2.93414e-05
2.87164e-05
2.79511e-05
2.71059e-05
2.62844e-05
2.55629e-05
2.49166e-05
2.42826e-05
2.36694e-05
2.29513e-05
2.13234e-05
1.71671e-05
9.52989e-06
1.56877e-06
-4.268e-06
-1.01716e-05
-0.00012139
-0.240221
-0.971426
-0.305606
-0.100947
-0.0151656
0.0345844
0.0685639
0.0938889
0.112924
0.126413
0.134346
0.137066
0.134932
0.128597
0.118893
0.106742
0.0930784
0.0787999
0.0647389
0.0516369
0.0400466
0.0301853
0.0219759
0.0153382
0.0102954
0.00676798
0.00446541
0.00301276
0.00209564
0.00150344
0.00110908
0.000838089
0.000646433
0.000507395
0.000404271
0.000326298
0.000266351
0.000219587
0.000182641
0.000153128
0.00012932
0.000109949
9.40682e-05
8.09606e-05
7.0077e-05
6.09924e-05
5.3375e-05
4.69637e-05
4.1551e-05
3.69706e-05
3.30887e-05
2.9797e-05
2.70057e-05
2.46373e-05
2.26223e-05
2.08847e-05
1.93706e-05
1.8052e-05
1.68983e-05
1.58754e-05
1.49492e-05
1.40893e-05
1.32707e-05
1.24736e-05
1.16824e-05
1.08859e-05
1.00693e-05
9.23275e-06
8.39956e-06
7.58084e-06
6.7731e-06
5.99426e-06
5.26787e-06
4.60091e-06
3.98798e-06
3.42537e-06
2.92688e-06
2.4911e-06
2.10285e-06
1.7639e-06
1.47401e-06
1.22484e-06
1.01286e-06
8.31421e-07
6.81717e-07
5.53189e-07
4.37107e-07
3.26134e-07
2.89651e-07
2.89539e-07
2.03543e-07
1.54485e-07
1.08233e-07
8.9974e-08
5.19328e-08
5.47157e-08
1.54215e-08
3.38288e-08
7.99711e-19
6.75876e-30
4.13815e-41
-6.97038e-42
-4.86118e-42
-5.75504e-42
-4.28385e-42
-1.49779e-42
-6.56651e-43
-3.29151e-43
-1.79944e-43
-1.30192e-43
-1.00653e-43
-4.02271e-44
-1.90765e-44
-9.69922e-45
-5.40669e-45
-3.13102e-45
-1.45967e-45
-7.32384e-46
-3.67124e-46
-1.80755e-46
-8.75282e-47
-4.16651e-47
-1.94863e-47
-8.94892e-48
-4.03309e-48
-1.78262e-48
-7.72226e-49
-3.27637e-49
-1.36045e-49
-5.52432e-50
-2.19189e-50
-8.49026e-51
-3.20762e-51
-1.18079e-51
-4.23084e-52
-1.47385e-52
-4.98572e-53
-1.6356e-53
-5.19627e-54
-1.59627e-54
-4.73375e-55
-1.35271e-55
-3.71753e-56
-9.80422e-57
-2.47544e-57
-5.96799e-58
-1.36984e-58
-2.98368e-59
-6.14429e-60
-1.19125e-60
-2.16397e-61
-3.66267e-62
-5.73857e-63
-8.25844e-64
-1.08147e-64
-1.27391e-65
-1.3303e-66
-1.20842e-67
-9.30637e-69
-5.85636e-70
-2.84334e-71
-9.6167e-73
-1.79013e-74
-4.47344e-77
-4.45555e-82
-3.64123e-84
-1.4751e-86
-5.23579e-97
-9.29654e-108
-1.20105e-118
-1.11524e-129
-8.89898e-141
-5.3752e-152
-2.80468e-163
-1.76026e-173
-7.69531e-184
-5.69405e-192
-2.27079e-202
-1.9585e-210
-9.18911e-221
-6.73943e-229
-3.88548e-239
-2.32114e-247
-2.48018e-257
-8.13818e-266
-1.64011e-275
-2.92772e-284
-8.11646e-294
-1.07763e-302
-3.88163e-312
9.73309e-321
0
0
0
0
0
0
0
0
0
0
0
0
0
0
0
0
0
0
0
0
0
0
0
)
;

boundaryField
{
    inandouthalf11
    {
        type            cyclic;
    }
    inandouthalf12
    {
        type            cyclic;
    }
    inandouthalf21
    {
        type            cyclic;
    }
    inandouthalf22
    {
        type            cyclic;
    }
    inandouthalf31
    {
        type            cyclic;
    }
    inandouthalf32
    {
        type            cyclic;
    }
    inandouthalf41
    {
        type            cyclic;
    }
    inandouthalf42
    {
        type            cyclic;
    }
    top
    {
        type            symmetryPlane;
    }
    walls
    {
        type            calculated;
        value           uniform 4.48337e-05;
    }
    frontAndBackPlanes
    {
        type            empty;
    }
}


// ************************************************************************* //
