/*--------------------------------*- C++ -*----------------------------------*\
| =========                 |                                                 |
| \\      /  F ield         | OpenFOAM: The Open Source CFD Toolbox           |
|  \\    /   O peration     | Version:  2.4.x                                 |
|   \\  /    A nd           | Web:      www.OpenFOAM.org                      |
|    \\/     M anipulation  |                                                 |
\*---------------------------------------------------------------------------*/
FoamFile
{
    version     2.0;
    format      ascii;
    class       surfaceScalarField;
    location    "8.25";
    object      ddt0(phia);
}
// * * * * * * * * * * * * * * * * * * * * * * * * * * * * * * * * * * * * * //

dimensions      [0 3 -2 0 0 0 0];

internalField   nonuniform List<scalar> 
359
(
9.71497e-14
2.46919e-13
3.797e-13
5.0087e-13
6.21219e-13
7.40836e-13
8.57279e-13
9.69368e-13
1.07679e-12
1.17957e-12
1.27775e-12
1.37133e-12
1.46042e-12
1.54516e-12
1.62586e-12
1.70287e-12
1.77662e-12
1.84757e-12
1.91616e-12
1.98291e-12
2.04828e-12
2.11278e-12
2.17687e-12
2.24101e-12
2.30564e-12
2.37115e-12
2.4379e-12
2.50625e-12
2.57647e-12
2.64882e-12
2.7235e-12
2.80071e-12
2.88055e-12
2.96318e-12
3.04861e-12
3.13692e-12
3.22809e-12
3.32212e-12
3.419e-12
3.51862e-12
3.62096e-12
3.72592e-12
3.83335e-12
3.94323e-12
4.05539e-12
4.16974e-12
4.28614e-12
4.40441e-12
4.52449e-12
4.6463e-12
4.76964e-12
4.89444e-12
5.02056e-12
5.14791e-12
5.27631e-12
5.40573e-12
5.53595e-12
5.66692e-12
5.79848e-12
5.9305e-12
6.06299e-12
6.19581e-12
6.32895e-12
6.46226e-12
6.59566e-12
6.729e-12
6.8622e-12
6.99515e-12
7.12771e-12
7.25979e-12
7.39139e-12
7.52248e-12
7.65292e-12
7.78274e-12
7.91186e-12
8.04024e-12
8.16771e-12
8.29416e-12
8.41951e-12
8.54369e-12
8.66663e-12
8.78832e-12
8.90877e-12
9.02798e-12
9.14594e-12
9.26263e-12
9.37801e-12
9.49199e-12
9.6045e-12
9.7155e-12
9.82494e-12
9.93281e-12
1.00391e-11
1.01439e-11
1.02473e-11
1.03492e-11
1.04497e-11
1.05488e-11
1.06465e-11
1.07428e-11
1.08378e-11
1.09313e-11
1.10234e-11
1.11141e-11
1.12033e-11
1.12911e-11
1.13773e-11
1.14621e-11
1.15453e-11
1.16269e-11
1.17071e-11
1.17858e-11
1.18631e-11
1.19391e-11
1.2014e-11
1.20878e-11
1.2161e-11
1.22336e-11
1.23061e-11
1.23788e-11
1.24519e-11
1.25258e-11
1.26008e-11
1.26771e-11
1.27547e-11
1.28335e-11
1.29131e-11
1.29928e-11
1.30714e-11
1.31471e-11
1.32172e-11
1.32782e-11
1.3326e-11
1.33561e-11
1.33635e-11
1.33436e-11
1.32935e-11
1.32142e-11
1.31136e-11
1.30133e-11
1.29506e-11
1.29504e-11
1.2993e-11
1.30353e-11
1.30524e-11
1.30611e-11
3.89055e-08
1.7371e-08
-1.42313e-08
-2.95192e-08
-3.60039e-08
-3.95574e-08
-4.23776e-08
-4.51368e-08
-4.77344e-08
-4.98214e-08
-5.11556e-08
-5.15356e-08
-5.08228e-08
-4.89022e-08
-4.56316e-08
-4.08124e-08
-3.41756e-08
-2.53847e-08
-1.39912e-08
7.73892e-10
2.00463e-08
4.39769e-08
6.96156e-08
9.18121e-08
1.0702e-07
1.15108e-07
1.17912e-07
1.17445e-07
1.15186e-07
1.12063e-07
1.08604e-07
1.05089e-07
1.01658e-07
9.83757e-08
9.52653e-08
9.2331e-08
8.95673e-08
8.69647e-08
8.45122e-08
8.21993e-08
8.00161e-08
7.79538e-08
7.60045e-08
7.41612e-08
7.24181e-08
7.07696e-08
6.92112e-08
6.77389e-08
6.63495e-08
6.50401e-08
6.38087e-08
6.26537e-08
6.15739e-08
6.05688e-08
5.96375e-08
5.87626e-08
5.79477e-08
5.71965e-08
5.65127e-08
5.58995e-08
5.53587e-08
5.48911e-08
5.44966e-08
5.41735e-08
5.39193e-08
5.37305e-08
5.36014e-08
5.35247e-08
5.34951e-08
5.35084e-08
5.35571e-08
5.3635e-08
5.37394e-08
5.38684e-08
5.40196e-08
5.41863e-08
5.4367e-08
5.45622e-08
5.47636e-08
5.49639e-08
5.51572e-08
5.53293e-08
5.54644e-08
5.55322e-08
5.55044e-08
5.53341e-08
5.49814e-08
5.43506e-08
5.34777e-08
5.33064e-08
5.81991e-08
5.65348e-08
5.71994e-08
5.54411e-08
6.58247e-08
5.58772e-08
1.10787e-07
6.93592e-07
1.88469e-07
1.95695e-09
-3.74066e-10
-2.20995e-10
-2.70723e-10
-3.06641e-10
-3.44463e-10
-3.81973e-10
-4.17863e-10
-4.51252e-10
-4.83883e-10
-4.98643e-10
-4.77698e-10
-4.80385e-10
-4.79473e-10
-4.44255e-10
-4.22622e-10
-4.0869e-10
-4.60713e-10
-4.44523e-10
-3.37337e-10
-3.27354e-10
-3.27839e-10
-3.27861e-10
-3.27866e-10
-3.27865e-10
-3.27866e-10
-3.27865e-10
-3.27866e-10
-3.27866e-10
-3.27866e-10
-3.27866e-10
-3.27866e-10
-3.27866e-10
-3.27866e-10
-3.27866e-10
-3.27866e-10
-3.27866e-10
-3.27867e-10
-3.27866e-10
-3.27867e-10
-3.27866e-10
-3.27867e-10
-3.27866e-10
-3.27867e-10
-3.27866e-10
-3.27867e-10
-3.27866e-10
-3.27867e-10
-3.27866e-10
-3.27867e-10
-3.27866e-10
-3.27867e-10
-3.27866e-10
-3.27867e-10
-3.27866e-10
-3.27867e-10
-3.27866e-10
-3.27867e-10
-3.27866e-10
-3.27867e-10
-3.27866e-10
-3.27867e-10
-3.27866e-10
-3.27867e-10
-3.27866e-10
-3.27867e-10
-3.27866e-10
-3.27867e-10
-3.27866e-10
-3.27867e-10
-3.27867e-10
-3.27867e-10
-3.27867e-10
-3.27867e-10
-3.27866e-10
-3.27867e-10
-3.27867e-10
-3.27867e-10
-3.27866e-10
-3.27867e-10
-3.27866e-10
-3.27867e-10
-3.27865e-10
-3.27867e-10
-3.27868e-10
-3.27868e-10
-3.27869e-10
-3.2787e-10
-3.2787e-10
-3.27871e-10
-3.27871e-10
-3.27872e-10
-3.27873e-10
-3.27873e-10
-3.27874e-10
-3.27875e-10
-3.27876e-10
-3.27877e-10
-3.27878e-10
-3.2788e-10
-3.27882e-10
-3.27883e-10
-3.27886e-10
-3.27888e-10
-3.27891e-10
-3.27893e-10
-3.27894e-10
-3.27901e-10
-3.27906e-10
-3.27912e-10
-3.27922e-10
-3.28096e-10
-3.31768e-10
-5.0107e-10
)
;

boundaryField
{
    inandouthalf11
    {
        type            cyclic;
        value           nonuniform List<scalar> 
100
(
-9.00839e-39
2.87706e-15
5.29242e-15
6.61784e-15
7.2346e-15
7.28784e-15
6.78419e-15
5.70311e-15
4.03044e-15
1.76514e-15
-1.08311e-15
-4.49708e-15
-8.45292e-15
-1.29204e-14
-1.78632e-14
-2.32396e-14
-2.9004e-14
-3.51074e-14
-4.14991e-14
-4.81278e-14
-5.49426e-14
-6.18938e-14
-6.89339e-14
-7.60178e-14
-8.31037e-14
-9.01531e-14
-9.71313e-14
-1.04008e-13
-1.10757e-13
-1.17357e-13
-1.23788e-13
-1.30038e-13
-1.36095e-13
-1.41953e-13
-1.4761e-13
-1.53063e-13
-1.58315e-13
-1.6337e-13
-1.68235e-13
-1.72917e-13
-1.77426e-13
-1.81772e-13
-1.85966e-13
-1.9002e-13
-1.93946e-13
-1.97756e-13
-2.01462e-13
-2.05078e-13
-2.08613e-13
-2.1208e-13
-2.1549e-13
-2.18852e-13
-2.22178e-13
-2.25476e-13
-2.28756e-13
-2.32028e-13
-2.35298e-13
-2.38576e-13
-2.41869e-13
-2.45183e-13
-2.48524e-13
-2.51897e-13
-2.55307e-13
-2.58758e-13
-2.62256e-13
-2.65806e-13
-2.69411e-13
-2.73078e-13
-2.76808e-13
-2.80605e-13
-2.84471e-13
-2.88409e-13
-2.92417e-13
-2.96498e-13
-3.00652e-13
-3.04882e-13
-3.09188e-13
-3.13571e-13
-3.18032e-13
-3.22572e-13
-3.2719e-13
-3.31884e-13
-3.36652e-13
-3.41493e-13
-3.46404e-13
-3.51382e-13
-3.56426e-13
-3.61534e-13
-3.66704e-13
-3.71934e-13
-3.77221e-13
-3.82561e-13
-3.87953e-13
-3.93392e-13
-3.98875e-13
-4.04398e-13
-4.09957e-13
-4.15549e-13
-4.2117e-13
-4.26819e-13
)
;
    }
    inandouthalf12
    {
        type            cyclic;
        value           nonuniform List<scalar> 
100
(
9.00839e-39
-2.87706e-15
-5.29242e-15
-6.61784e-15
-7.2346e-15
-7.28784e-15
-6.78419e-15
-5.70311e-15
-4.03044e-15
-1.76514e-15
1.08311e-15
4.49708e-15
8.45292e-15
1.29204e-14
1.78632e-14
2.32396e-14
2.9004e-14
3.51074e-14
4.14991e-14
4.81278e-14
5.49426e-14
6.18938e-14
6.89339e-14
7.60178e-14
8.31037e-14
9.01531e-14
9.71313e-14
1.04008e-13
1.10757e-13
1.17357e-13
1.23788e-13
1.30038e-13
1.36095e-13
1.41953e-13
1.4761e-13
1.53063e-13
1.58315e-13
1.6337e-13
1.68235e-13
1.72917e-13
1.77426e-13
1.81772e-13
1.85966e-13
1.9002e-13
1.93946e-13
1.97756e-13
2.01462e-13
2.05078e-13
2.08613e-13
2.1208e-13
2.1549e-13
2.18852e-13
2.22178e-13
2.25476e-13
2.28756e-13
2.32028e-13
2.35298e-13
2.38576e-13
2.41869e-13
2.45183e-13
2.48524e-13
2.51897e-13
2.55307e-13
2.58758e-13
2.62256e-13
2.65806e-13
2.69411e-13
2.73078e-13
2.76808e-13
2.80605e-13
2.84471e-13
2.88409e-13
2.92417e-13
2.96498e-13
3.00652e-13
3.04882e-13
3.09188e-13
3.13571e-13
3.18032e-13
3.22572e-13
3.2719e-13
3.31884e-13
3.36652e-13
3.41493e-13
3.46404e-13
3.51382e-13
3.56426e-13
3.61534e-13
3.66704e-13
3.71934e-13
3.77221e-13
3.82561e-13
3.87953e-13
3.93392e-13
3.98875e-13
4.04398e-13
4.09957e-13
4.15549e-13
4.2117e-13
4.26819e-13
)
;
    }
    inandouthalf21
    {
        type            cyclic;
        value           nonuniform List<scalar> 
100
(
-4.32492e-13
-4.38189e-13
-4.43909e-13
-4.49655e-13
-4.55427e-13
-4.61231e-13
-4.67072e-13
-4.72959e-13
-4.789e-13
-4.84908e-13
-4.90998e-13
-4.97187e-13
-5.03494e-13
-5.09942e-13
-5.16555e-13
-5.2336e-13
-5.30383e-13
-5.37655e-13
-5.45205e-13
-5.53064e-13
-5.6126e-13
-5.69822e-13
-5.78774e-13
-5.88137e-13
-5.97933e-13
-6.08179e-13
-6.18902e-13
-6.30137e-13
-6.41938e-13
-6.54388e-13
-6.67592e-13
-6.81691e-13
-6.96873e-13
-7.13394e-13
-7.31569e-13
-7.51702e-13
-7.73978e-13
-7.98441e-13
-8.24926e-13
-8.52437e-13
-8.77721e-13
-8.95829e-13
-9.04824e-13
-9.07437e-13
-9.07608e-13
-9.08163e-13
-9.10095e-13
-6.3969e-07
-6.85457e-07
-6.0098e-07
-5.30878e-07
-4.79684e-07
-4.45021e-07
-4.23706e-07
-4.13031e-07
-4.10954e-07
-4.16025e-07
-4.27335e-07
-4.44436e-07
-4.67238e-07
-4.9588e-07
-5.30542e-07
-5.71184e-07
-6.17272e-07
-6.67544e-07
-7.1995e-07
-7.71842e-07
-8.20423e-07
-8.63384e-07
-8.99508e-07
-9.28872e-07
-9.5246e-07
-9.7153e-07
-9.87203e-07
-1.00033e-06
-1.01152e-06
-1.0212e-06
-1.0297e-06
-1.03724e-06
-1.04398e-06
-1.05007e-06
-1.05561e-06
-1.06067e-06
-1.06532e-06
-1.06961e-06
-1.07358e-06
-1.07727e-06
-1.08071e-06
-1.08391e-06
-1.08691e-06
-1.08972e-06
-1.09235e-06
-1.09482e-06
-1.09714e-06
-1.09931e-06
-1.10135e-06
-1.10326e-06
-1.10506e-06
-1.10674e-06
-1.10831e-06
)
;
    }
    inandouthalf22
    {
        type            cyclic;
        value           nonuniform List<scalar> 
100
(
4.32492e-13
4.38189e-13
4.43909e-13
4.49655e-13
4.55427e-13
4.61231e-13
4.67072e-13
4.72959e-13
4.789e-13
4.84908e-13
4.90998e-13
4.97187e-13
5.03494e-13
5.09942e-13
5.16555e-13
5.2336e-13
5.30383e-13
5.37655e-13
5.45205e-13
5.53064e-13
5.6126e-13
5.69822e-13
5.78774e-13
5.88137e-13
5.97933e-13
6.08179e-13
6.18902e-13
6.30137e-13
6.41938e-13
6.54388e-13
6.67592e-13
6.81691e-13
6.96873e-13
7.13394e-13
7.31569e-13
7.51702e-13
7.73978e-13
7.98441e-13
8.24926e-13
8.52437e-13
8.77721e-13
8.95829e-13
9.04824e-13
9.07437e-13
9.07608e-13
9.08163e-13
9.10095e-13
6.3969e-07
6.85457e-07
6.0098e-07
5.30878e-07
4.79684e-07
4.45021e-07
4.23706e-07
4.13031e-07
4.10954e-07
4.16025e-07
4.27335e-07
4.44436e-07
4.67238e-07
4.9588e-07
5.30542e-07
5.71184e-07
6.17272e-07
6.67544e-07
7.1995e-07
7.71842e-07
8.20423e-07
8.63384e-07
8.99508e-07
9.28872e-07
9.5246e-07
9.7153e-07
9.87203e-07
1.00033e-06
1.01152e-06
1.0212e-06
1.0297e-06
1.03724e-06
1.04398e-06
1.05007e-06
1.05561e-06
1.06067e-06
1.06532e-06
1.06961e-06
1.07358e-06
1.07727e-06
1.08071e-06
1.08391e-06
1.08691e-06
1.08972e-06
1.09235e-06
1.09482e-06
1.09714e-06
1.09931e-06
1.10135e-06
1.10326e-06
1.10506e-06
1.10674e-06
1.10831e-06
)
;
    }
    inandouthalf31
    {
        type            cyclic;
        value           nonuniform List<scalar> 
110
(
-1.10978e-06
-1.13372e-06
-1.1581e-06
-1.18293e-06
-1.20822e-06
-1.23398e-06
-1.26022e-06
-1.28695e-06
-1.31418e-06
-1.34193e-06
-1.3702e-06
-1.39901e-06
-1.42837e-06
-1.45831e-06
-1.48882e-06
-1.51994e-06
-1.55168e-06
-1.58405e-06
-1.61707e-06
-1.65075e-06
-1.68511e-06
-1.72017e-06
-1.75593e-06
-1.79243e-06
-1.82966e-06
-1.86765e-06
-1.90641e-06
-1.94595e-06
-1.98628e-06
-2.02742e-06
-2.06938e-06
-2.11216e-06
-2.15577e-06
-2.20017e-06
-2.24536e-06
-2.2914e-06
-2.3385e-06
-2.50205e-06
-2.55383e-06
-2.61106e-06
-2.65728e-06
-2.71861e-06
-2.76504e-06
-2.8334e-06
-2.87258e-06
-2.94424e-06
-3.0011e-06
-3.06107e-06
-3.12132e-06
-3.18212e-06
-3.24337e-06
-3.30499e-06
-3.36694e-06
-3.4292e-06
-3.49181e-06
-3.55497e-06
-3.6185e-06
-3.6822e-06
-3.74973e-06
-3.81702e-06
-3.8876e-06
-3.9613e-06
-4.03883e-06
-4.12394e-06
-4.21161e-06
-4.29769e-06
-4.38494e-06
-4.47394e-06
-4.56475e-06
-4.65741e-06
-4.75194e-06
-4.84839e-06
-4.9468e-06
-5.04721e-06
-5.14965e-06
-5.25418e-06
-5.36082e-06
-5.46963e-06
-5.58065e-06
-5.69392e-06
-5.8095e-06
-5.92741e-06
-6.04772e-06
-6.17048e-06
-6.29572e-06
-6.42351e-06
-6.55389e-06
-6.68691e-06
-6.82264e-06
-6.96112e-06
-7.10241e-06
-7.24657e-06
-7.39366e-06
-7.54373e-06
-7.69685e-06
-7.85307e-06
-8.01247e-06
-8.1751e-06
-8.34104e-06
-8.51034e-06
-8.68307e-06
-8.85932e-06
-9.03914e-06
-9.22261e-06
-9.4098e-06
-9.6008e-06
-9.79567e-06
-9.99449e-06
-1.01974e-05
-1.04043e-05
)
;
    }
    inandouthalf32
    {
        type            cyclic;
        value           nonuniform List<scalar> 
110
(
1.10978e-06
1.13372e-06
1.1581e-06
1.18293e-06
1.20822e-06
1.23398e-06
1.26022e-06
1.28695e-06
1.31418e-06
1.34193e-06
1.3702e-06
1.39901e-06
1.42837e-06
1.45831e-06
1.48882e-06
1.51994e-06
1.55168e-06
1.58405e-06
1.61707e-06
1.65075e-06
1.68511e-06
1.72017e-06
1.75593e-06
1.79243e-06
1.82966e-06
1.86765e-06
1.90641e-06
1.94595e-06
1.98628e-06
2.02742e-06
2.06938e-06
2.11216e-06
2.15577e-06
2.20017e-06
2.24536e-06
2.2914e-06
2.3385e-06
2.50205e-06
2.55383e-06
2.61106e-06
2.65728e-06
2.71861e-06
2.76504e-06
2.8334e-06
2.87258e-06
2.94424e-06
3.0011e-06
3.06107e-06
3.12132e-06
3.18212e-06
3.24337e-06
3.30499e-06
3.36694e-06
3.4292e-06
3.49181e-06
3.55497e-06
3.6185e-06
3.6822e-06
3.74973e-06
3.81702e-06
3.8876e-06
3.9613e-06
4.03883e-06
4.12394e-06
4.21161e-06
4.29769e-06
4.38494e-06
4.47394e-06
4.56475e-06
4.65741e-06
4.75194e-06
4.84839e-06
4.9468e-06
5.04721e-06
5.14965e-06
5.25418e-06
5.36082e-06
5.46963e-06
5.58065e-06
5.69392e-06
5.8095e-06
5.92741e-06
6.04772e-06
6.17048e-06
6.29572e-06
6.42351e-06
6.55389e-06
6.68691e-06
6.82264e-06
6.96112e-06
7.10241e-06
7.24657e-06
7.39366e-06
7.54373e-06
7.69685e-06
7.85307e-06
8.01247e-06
8.1751e-06
8.34104e-06
8.51034e-06
8.68307e-06
8.85932e-06
9.03914e-06
9.22261e-06
9.4098e-06
9.6008e-06
9.79567e-06
9.99449e-06
1.01974e-05
1.04043e-05
)
;
    }
    inandouthalf41
    {
        type            cyclic;
        value           nonuniform List<scalar> 
50
(
-9.31294e-06
-9.31294e-06
-9.31294e-06
-9.31294e-06
-9.31294e-06
-9.31294e-06
-9.31294e-06
-9.31294e-06
-9.31294e-06
-9.31294e-06
-9.31294e-06
-9.31294e-06
-9.31294e-06
-9.31294e-06
-9.31294e-06
-9.31294e-06
-9.31294e-06
-9.31294e-06
-9.31294e-06
-9.31294e-06
-9.31294e-06
-9.31294e-06
-9.31294e-06
-9.31294e-06
-9.31294e-06
-9.31294e-06
-9.31294e-06
-9.31294e-06
-9.31294e-06
-9.31294e-06
-9.31294e-06
-9.31294e-06
-9.31294e-06
-9.31294e-06
-9.31294e-06
-9.31294e-06
-9.31294e-06
-9.31294e-06
-9.31294e-06
-9.31294e-06
-9.31294e-06
-9.31294e-06
-9.31294e-06
-9.31294e-06
-9.31294e-06
-9.31294e-06
-9.31294e-06
-9.31294e-06
-9.3131e-06
-9.31663e-06
)
;
    }
    inandouthalf42
    {
        type            cyclic;
        value           nonuniform List<scalar> 
50
(
9.31294e-06
9.31294e-06
9.31294e-06
9.31294e-06
9.31294e-06
9.31294e-06
9.31294e-06
9.31294e-06
9.31294e-06
9.31294e-06
9.31294e-06
9.31294e-06
9.31294e-06
9.31294e-06
9.31294e-06
9.31294e-06
9.31294e-06
9.31294e-06
9.31294e-06
9.31294e-06
9.31294e-06
9.31294e-06
9.31294e-06
9.31294e-06
9.31294e-06
9.31294e-06
9.31294e-06
9.31294e-06
9.31294e-06
9.31294e-06
9.31294e-06
9.31294e-06
9.31294e-06
9.31294e-06
9.31294e-06
9.31294e-06
9.31294e-06
9.31294e-06
9.31294e-06
9.31294e-06
9.31294e-06
9.31294e-06
9.31294e-06
9.31294e-06
9.31294e-06
9.31294e-06
9.31294e-06
9.31294e-06
9.3131e-06
9.31663e-06
)
;
    }
    top
    {
        type            symmetryPlane;
        value           uniform 0;
    }
    walls
    {
        type            calculated;
        value           uniform 0;
    }
    frontAndBackPlanes
    {
        type            empty;
        value           nonuniform 0();
    }
}


// ************************************************************************* //
