/*--------------------------------*- C++ -*----------------------------------*\
| =========                 |                                                 |
| \\      /  F ield         | OpenFOAM: The Open Source CFD Toolbox           |
|  \\    /   O peration     | Version:  2.4.x                                 |
|   \\  /    A nd           | Web:      www.OpenFOAM.org                      |
|    \\/     M anipulation  |                                                 |
\*---------------------------------------------------------------------------*/
FoamFile
{
    version     2.0;
    format      ascii;
    class       surfaceScalarField;
    location    "8.25";
    object      ddt0(phib);
}
// * * * * * * * * * * * * * * * * * * * * * * * * * * * * * * * * * * * * * //

dimensions      [0 3 -2 0 0 0 0];

internalField   nonuniform List<scalar> 
359
(
-1.51788e-13
-3.87037e-13
-5.95248e-13
-7.84941e-13
-9.73363e-13
-1.16066e-12
-1.34291e-12
-1.51827e-12
-1.68623e-12
-1.84686e-12
-2.00019e-12
-2.1463e-12
-2.28525e-12
-2.4174e-12
-2.54311e-12
-2.663e-12
-2.77775e-12
-2.8881e-12
-2.99465e-12
-3.09839e-12
-3.19984e-12
-3.29997e-12
-3.39937e-12
-3.49892e-12
-3.59914e-12
-3.70079e-12
-3.8043e-12
-3.91035e-12
-4.01923e-12
-4.13149e-12
-4.24735e-12
-4.36722e-12
-4.4911e-12
-4.61941e-12
-4.75204e-12
-4.8892e-12
-5.03073e-12
-5.17681e-12
-5.32724e-12
-5.48198e-12
-5.6409e-12
-5.80395e-12
-5.97078e-12
-6.14145e-12
-6.31556e-12
-6.49315e-12
-6.67379e-12
-6.85743e-12
-7.0437e-12
-7.23281e-12
-7.42408e-12
-7.61771e-12
-7.81322e-12
-8.01071e-12
-8.20964e-12
-8.41024e-12
-8.61188e-12
-8.81476e-12
-9.01839e-12
-9.22275e-12
-9.42767e-12
-9.63314e-12
-9.83889e-12
-1.0045e-11
-1.02509e-11
-1.04569e-11
-1.06624e-11
-1.08676e-11
-1.10719e-11
-1.12755e-11
-1.14781e-11
-1.168e-11
-1.18806e-11
-1.20803e-11
-1.22787e-11
-1.24759e-11
-1.26715e-11
-1.28655e-11
-1.30575e-11
-1.32478e-11
-1.34358e-11
-1.3622e-11
-1.38059e-11
-1.39879e-11
-1.41676e-11
-1.43455e-11
-1.4521e-11
-1.46943e-11
-1.48651e-11
-1.50336e-11
-1.51992e-11
-1.53625e-11
-1.5523e-11
-1.56813e-11
-1.58369e-11
-1.59903e-11
-1.61411e-11
-1.62899e-11
-1.6436e-11
-1.65801e-11
-1.67216e-11
-1.68609e-11
-1.69976e-11
-1.71321e-11
-1.7264e-11
-1.73935e-11
-1.75203e-11
-1.76447e-11
-1.77662e-11
-1.78854e-11
-1.80018e-11
-1.81158e-11
-1.82272e-11
-1.83365e-11
-1.84435e-11
-1.85488e-11
-1.86525e-11
-1.87553e-11
-1.88572e-11
-1.89593e-11
-1.90614e-11
-1.91646e-11
-1.92688e-11
-1.93747e-11
-1.94818e-11
-1.95905e-11
-1.96997e-11
-1.98086e-11
-1.9915e-11
-2.00164e-11
-2.01083e-11
-2.01857e-11
-2.0242e-11
-2.02703e-11
-2.02629e-11
-2.02131e-11
-2.01163e-11
-1.99739e-11
-1.97966e-11
-1.96179e-11
-1.9496e-11
-1.94672e-11
-1.94951e-11
-1.95125e-11
-1.94697e-11
-3.55134e-11
-3.4594e-08
1.91041e-09
9.10817e-09
9.34414e-09
7.80929e-09
5.9794e-09
4.25008e-09
2.67723e-09
1.23779e-09
-6.99315e-11
-1.21156e-09
-2.1507e-09
-2.85705e-09
-3.3181e-09
-3.54037e-09
-3.54651e-09
-3.37149e-09
-3.05914e-09
-2.65955e-09
-2.22417e-09
-1.79461e-09
-1.39284e-09
-1.03032e-09
-7.23841e-10
-4.89389e-10
-3.26912e-10
-2.21364e-10
-1.54263e-10
-1.11137e-10
-8.26505e-11
-6.32198e-11
-4.95439e-11
-3.96392e-11
-3.22804e-11
-2.66886e-11
-2.23543e-11
-1.89351e-11
-1.61959e-11
-1.39709e-11
-1.21415e-11
-1.06208e-11
-9.34453e-12
-8.26381e-12
-7.34164e-12
-6.54906e-12
-5.86365e-12
-5.26739e-12
-4.74612e-12
-4.28813e-12
-3.88416e-12
-3.52629e-12
-3.20823e-12
-2.92444e-12
-2.6705e-12
-2.44231e-12
-2.23281e-12
-2.04014e-12
-1.86292e-12
-1.69939e-12
-1.54836e-12
-1.40829e-12
-1.27825e-12
-1.15706e-12
-1.04416e-12
-9.38599e-13
-8.40057e-13
-7.4784e-13
-6.62266e-13
-5.8303e-13
-5.10277e-13
-4.43489e-13
-3.8322e-13
-3.28976e-13
-2.80759e-13
-2.37654e-13
-1.99961e-13
-1.66855e-13
-1.38317e-13
-1.13339e-13
-9.22057e-14
-7.38867e-14
-5.86055e-14
-4.53516e-14
-3.45774e-14
-2.5209e-14
-1.76479e-14
-1.09261e-14
-6.44266e-15
-3.02214e-15
3.21692e-16
3.21446e-15
5.48065e-15
7.20259e-15
8.26624e-15
8.87241e-15
9.53446e-15
9.39918e-15
1.02218e-14
9.93663e-15
9.34448e-15
9.16781e-15
8.56141e-15
8.38156e-15
7.78266e-15
7.59321e-15
7.01778e-15
6.83667e-15
6.32242e-15
6.16171e-15
5.6748e-15
5.49613e-15
5.03411e-15
4.90077e-15
4.51317e-15
4.4103e-15
4.10512e-15
4.08952e-15
3.8075e-15
3.50209e-15
3.00039e-15
2.70363e-15
2.37677e-15
2.07497e-15
1.81457e-15
1.6892e-15
1.60381e-15
1.35257e-15
1.14838e-15
1.00487e-15
9.42287e-16
8.07886e-16
7.57267e-16
7.39684e-16
8.15157e-16
6.4254e-16
5.51684e-16
4.71867e-16
4.63017e-16
3.87955e-16
3.66156e-16
3.385e-16
3.48846e-16
2.9012e-16
2.64189e-16
2.40542e-16
2.60587e-16
2.12823e-16
2.76359e-16
3.45278e-16
7.9029e-16
2.57741e-16
1.16561e-16
-1.84473e-17
-2.73641e-17
-1.3914e-16
-1.79187e-16
-2.24947e-16
-2.25711e-16
-3.257e-16
-3.72219e-16
-4.24586e-16
-4.42734e-16
-5.0356e-16
-5.23079e-16
-5.43127e-16
-4.97872e-16
-6.2647e-16
-6.75914e-16
-7.35129e-16
-7.3438e-16
-7.96754e-16
-7.91528e-16
-7.86973e-16
-6.16115e-16
-8.06835e-16
-8.10747e-16
-8.07373e-16
-5.02343e-16
-7.34056e-16
-2.88927e-16
1.58509e-16
4.0233e-15
-1.48839e-15
-3.59833e-15
-5.69826e-15
-7.17011e-15
-9.08672e-15
-1.08475e-14
-1.25839e-14
-1.44605e-14
-1.59508e-14
-1.78086e-14
-1.96237e-14
-2.20137e-14
-2.3893e-14
-2.6431e-14
-2.89656e-14
-3.12574e-14
-3.62901e-14
-4.13507e-14
-4.63915e-14
-5.2312e-14
-5.83581e-14
-6.40162e-14
-7.035e-14
-7.28089e-14
-9.25129e-14
-1.04142e-13
-1.17867e-13
-1.25173e-13
-1.44005e-13
-1.70865e-13
-2.37687e-13
)
;

boundaryField
{
    inandouthalf11
    {
        type            cyclic;
        value           nonuniform List<scalar> 
100
(
1.62558e-10
1.61738e-10
1.61602e-10
1.61719e-10
1.61784e-10
1.61809e-10
1.61833e-10
1.61863e-10
1.61893e-10
1.61922e-10
1.61952e-10
1.6198e-10
1.62009e-10
1.62036e-10
1.62064e-10
1.62091e-10
1.62118e-10
1.62145e-10
1.62172e-10
1.62199e-10
1.62226e-10
1.62253e-10
1.6228e-10
1.62308e-10
1.62336e-10
1.62364e-10
1.62393e-10
1.62422e-10
1.62452e-10
1.62482e-10
1.62513e-10
1.62544e-10
1.62576e-10
1.62609e-10
1.62642e-10
1.62676e-10
1.6271e-10
1.62746e-10
1.62782e-10
1.62818e-10
1.62855e-10
1.62893e-10
1.62931e-10
1.62971e-10
1.63011e-10
1.63051e-10
1.63092e-10
1.63134e-10
1.63176e-10
1.63219e-10
1.63262e-10
1.63307e-10
1.63351e-10
1.63397e-10
1.63443e-10
1.6349e-10
1.63536e-10
1.63584e-10
1.63633e-10
1.63681e-10
1.63732e-10
1.63782e-10
1.63833e-10
1.63884e-10
1.63937e-10
1.6399e-10
1.64044e-10
1.64098e-10
1.64153e-10
1.64209e-10
1.64266e-10
1.64323e-10
1.64381e-10
1.64441e-10
1.64501e-10
1.64562e-10
1.64623e-10
1.64686e-10
1.6475e-10
1.64814e-10
1.6488e-10
1.64946e-10
1.65014e-10
1.65083e-10
1.65154e-10
1.65225e-10
1.65298e-10
1.65372e-10
1.65447e-10
1.65524e-10
1.65602e-10
1.65681e-10
1.65763e-10
1.65845e-10
1.6593e-10
1.66017e-10
1.66105e-10
1.66195e-10
1.66287e-10
1.66382e-10
)
;
    }
    inandouthalf12
    {
        type            cyclic;
        value           nonuniform List<scalar> 
100
(
-1.62558e-10
-1.61738e-10
-1.61602e-10
-1.61719e-10
-1.61784e-10
-1.61809e-10
-1.61833e-10
-1.61863e-10
-1.61893e-10
-1.61922e-10
-1.61952e-10
-1.6198e-10
-1.62009e-10
-1.62036e-10
-1.62064e-10
-1.62091e-10
-1.62118e-10
-1.62145e-10
-1.62172e-10
-1.62199e-10
-1.62226e-10
-1.62253e-10
-1.6228e-10
-1.62308e-10
-1.62336e-10
-1.62364e-10
-1.62393e-10
-1.62422e-10
-1.62452e-10
-1.62482e-10
-1.62513e-10
-1.62544e-10
-1.62576e-10
-1.62609e-10
-1.62642e-10
-1.62676e-10
-1.6271e-10
-1.62746e-10
-1.62782e-10
-1.62818e-10
-1.62855e-10
-1.62893e-10
-1.62931e-10
-1.62971e-10
-1.63011e-10
-1.63051e-10
-1.63092e-10
-1.63134e-10
-1.63176e-10
-1.63219e-10
-1.63262e-10
-1.63307e-10
-1.63351e-10
-1.63397e-10
-1.63443e-10
-1.6349e-10
-1.63536e-10
-1.63584e-10
-1.63633e-10
-1.63681e-10
-1.63732e-10
-1.63782e-10
-1.63833e-10
-1.63884e-10
-1.63937e-10
-1.6399e-10
-1.64044e-10
-1.64098e-10
-1.64153e-10
-1.64209e-10
-1.64266e-10
-1.64323e-10
-1.64381e-10
-1.64441e-10
-1.64501e-10
-1.64562e-10
-1.64623e-10
-1.64686e-10
-1.6475e-10
-1.64814e-10
-1.6488e-10
-1.64946e-10
-1.65014e-10
-1.65083e-10
-1.65154e-10
-1.65225e-10
-1.65298e-10
-1.65372e-10
-1.65447e-10
-1.65524e-10
-1.65602e-10
-1.65681e-10
-1.65763e-10
-1.65845e-10
-1.6593e-10
-1.66017e-10
-1.66105e-10
-1.66195e-10
-1.66287e-10
-1.66382e-10
)
;
    }
    inandouthalf21
    {
        type            cyclic;
        value           nonuniform List<scalar> 
100
(
1.66478e-10
1.66577e-10
1.66678e-10
1.66782e-10
1.66888e-10
1.66996e-10
1.67108e-10
1.67223e-10
1.6734e-10
1.67461e-10
1.67585e-10
1.67713e-10
1.67844e-10
1.67979e-10
1.68118e-10
1.68261e-10
1.68408e-10
1.6856e-10
1.68716e-10
1.68877e-10
1.69043e-10
1.69215e-10
1.69392e-10
1.69575e-10
1.69763e-10
1.69959e-10
1.70161e-10
1.70371e-10
1.70589e-10
1.70817e-10
1.71054e-10
1.71301e-10
1.71559e-10
1.71831e-10
1.72119e-10
1.72424e-10
1.72742e-10
1.73079e-10
1.73453e-10
1.73884e-10
1.74351e-10
1.74802e-10
1.7536e-10
1.76101e-10
1.77019e-10
1.64115e-10
-9.55357e-09
-7.28223e-07
-6.83825e-07
-5.83249e-07
-5.11896e-07
-4.62614e-07
-4.29484e-07
-4.0887e-07
-3.98021e-07
-3.94874e-07
-3.97909e-07
-4.06029e-07
-4.18492e-07
-4.34864e-07
-4.54994e-07
-4.78991e-07
-5.07193e-07
-5.40102e-07
-5.78237e-07
-6.21873e-07
-6.70666e-07
-7.2327e-07
-7.77231e-07
-8.29401e-07
-8.76847e-07
-9.17695e-07
-9.51415e-07
-9.7851e-07
-1.00001e-06
-1.01704e-06
-1.03064e-06
-1.04163e-06
-1.05066e-06
-1.05821e-06
-1.06464e-06
-1.07022e-06
-1.07513e-06
-1.07952e-06
-1.08349e-06
-1.08714e-06
-1.09052e-06
-1.09368e-06
-1.09666e-06
-1.09947e-06
-1.10216e-06
-1.10473e-06
-1.10719e-06
-1.10957e-06
-1.11186e-06
-1.11408e-06
-1.11624e-06
-1.11833e-06
-1.12036e-06
-1.12234e-06
)
;
    }
    inandouthalf22
    {
        type            cyclic;
        value           nonuniform List<scalar> 
100
(
-1.66478e-10
-1.66577e-10
-1.66678e-10
-1.66782e-10
-1.66888e-10
-1.66996e-10
-1.67108e-10
-1.67223e-10
-1.6734e-10
-1.67461e-10
-1.67585e-10
-1.67713e-10
-1.67844e-10
-1.67979e-10
-1.68118e-10
-1.68261e-10
-1.68408e-10
-1.6856e-10
-1.68716e-10
-1.68877e-10
-1.69043e-10
-1.69215e-10
-1.69392e-10
-1.69575e-10
-1.69763e-10
-1.69959e-10
-1.70161e-10
-1.70371e-10
-1.70589e-10
-1.70817e-10
-1.71054e-10
-1.71301e-10
-1.71559e-10
-1.71831e-10
-1.72119e-10
-1.72424e-10
-1.72742e-10
-1.73079e-10
-1.73453e-10
-1.73884e-10
-1.74351e-10
-1.74802e-10
-1.7536e-10
-1.76101e-10
-1.77019e-10
-1.64115e-10
9.55357e-09
7.28223e-07
6.83825e-07
5.83249e-07
5.11896e-07
4.62614e-07
4.29484e-07
4.0887e-07
3.98021e-07
3.94874e-07
3.97909e-07
4.06029e-07
4.18492e-07
4.34864e-07
4.54994e-07
4.78991e-07
5.07193e-07
5.40102e-07
5.78237e-07
6.21873e-07
6.70666e-07
7.2327e-07
7.77231e-07
8.29401e-07
8.76847e-07
9.17695e-07
9.51415e-07
9.7851e-07
1.00001e-06
1.01704e-06
1.03064e-06
1.04163e-06
1.05066e-06
1.05821e-06
1.06464e-06
1.07022e-06
1.07513e-06
1.07952e-06
1.08349e-06
1.08714e-06
1.09052e-06
1.09368e-06
1.09666e-06
1.09947e-06
1.10216e-06
1.10473e-06
1.10719e-06
1.10957e-06
1.11186e-06
1.11408e-06
1.11624e-06
1.11833e-06
1.12036e-06
1.12234e-06
)
;
    }
    inandouthalf31
    {
        type            cyclic;
        value           nonuniform List<scalar> 
110
(
-1.12427e-06
-1.14902e-06
-1.17431e-06
-1.20014e-06
-1.22652e-06
-1.25347e-06
-1.281e-06
-1.30913e-06
-1.33786e-06
-1.3672e-06
-1.39718e-06
-1.42779e-06
-1.45907e-06
-1.49101e-06
-1.52363e-06
-1.55695e-06
-1.59097e-06
-1.62572e-06
-1.6612e-06
-1.69742e-06
-1.73441e-06
-1.77217e-06
-1.81071e-06
-1.85006e-06
-1.89021e-06
-1.93119e-06
-1.97301e-06
-2.01567e-06
-2.05919e-06
-2.10357e-06
-2.14883e-06
-2.19498e-06
-2.24202e-06
-2.28996e-06
-2.3388e-06
-2.38855e-06
-2.4392e-06
-2.49076e-06
-2.54323e-06
-2.59659e-06
-2.65083e-06
-2.70594e-06
-2.7619e-06
-2.81869e-06
-2.87627e-06
-2.93461e-06
-2.99365e-06
-3.05336e-06
-3.11366e-06
-3.17448e-06
-3.23577e-06
-3.29745e-06
-3.35946e-06
-3.42176e-06
-3.48437e-06
-3.54736e-06
-3.61092e-06
-3.67536e-06
-3.7411e-06
-3.80868e-06
-3.87868e-06
-3.95176e-06
-4.02865e-06
-4.11204e-06
-4.20042e-06
-4.28649e-06
-4.37352e-06
-4.46229e-06
-4.55286e-06
-4.64527e-06
-4.73956e-06
-4.83576e-06
-4.93391e-06
-5.03406e-06
-5.13623e-06
-5.24049e-06
-5.34685e-06
-5.45538e-06
-5.56611e-06
-5.67909e-06
-5.79436e-06
-5.91197e-06
-6.03196e-06
-6.1544e-06
-6.27932e-06
-6.40677e-06
-6.53681e-06
-6.66949e-06
-6.80486e-06
-6.94298e-06
-7.08391e-06
-7.22769e-06
-7.37439e-06
-7.52407e-06
-7.67679e-06
-7.83261e-06
-7.99159e-06
-8.1538e-06
-8.3193e-06
-8.48816e-06
-8.66045e-06
-8.83623e-06
-9.01558e-06
-9.19858e-06
-9.38528e-06
-9.57578e-06
-9.77014e-06
-9.96845e-06
-1.01708e-05
-1.03772e-05
)
;
    }
    inandouthalf32
    {
        type            cyclic;
        value           nonuniform List<scalar> 
110
(
1.12427e-06
1.14902e-06
1.17431e-06
1.20014e-06
1.22652e-06
1.25347e-06
1.281e-06
1.30913e-06
1.33786e-06
1.3672e-06
1.39718e-06
1.42779e-06
1.45907e-06
1.49101e-06
1.52363e-06
1.55695e-06
1.59097e-06
1.62572e-06
1.6612e-06
1.69742e-06
1.73441e-06
1.77217e-06
1.81071e-06
1.85006e-06
1.89021e-06
1.93119e-06
1.97301e-06
2.01567e-06
2.05919e-06
2.10357e-06
2.14883e-06
2.19498e-06
2.24202e-06
2.28996e-06
2.3388e-06
2.38855e-06
2.4392e-06
2.49076e-06
2.54323e-06
2.59659e-06
2.65083e-06
2.70594e-06
2.7619e-06
2.81869e-06
2.87627e-06
2.93461e-06
2.99365e-06
3.05336e-06
3.11366e-06
3.17448e-06
3.23577e-06
3.29745e-06
3.35946e-06
3.42176e-06
3.48437e-06
3.54736e-06
3.61092e-06
3.67536e-06
3.7411e-06
3.80868e-06
3.87868e-06
3.95176e-06
4.02865e-06
4.11204e-06
4.20042e-06
4.28649e-06
4.37352e-06
4.46229e-06
4.55286e-06
4.64527e-06
4.73956e-06
4.83576e-06
4.93391e-06
5.03406e-06
5.13623e-06
5.24049e-06
5.34685e-06
5.45538e-06
5.56611e-06
5.67909e-06
5.79436e-06
5.91197e-06
6.03196e-06
6.1544e-06
6.27932e-06
6.40677e-06
6.53681e-06
6.66949e-06
6.80486e-06
6.94298e-06
7.08391e-06
7.22769e-06
7.37439e-06
7.52407e-06
7.67679e-06
7.83261e-06
7.99159e-06
8.1538e-06
8.3193e-06
8.48816e-06
8.66045e-06
8.83623e-06
9.01558e-06
9.19858e-06
9.38528e-06
9.57578e-06
9.77014e-06
9.96845e-06
1.01708e-05
1.03772e-05
)
;
    }
    inandouthalf41
    {
        type            cyclic;
        value           nonuniform List<scalar> 
50
(
-9.28867e-06
-9.28867e-06
-9.28867e-06
-9.28867e-06
-9.28867e-06
-9.28867e-06
-9.28867e-06
-9.28867e-06
-9.28867e-06
-9.28867e-06
-9.28867e-06
-9.28867e-06
-9.28867e-06
-9.28867e-06
-9.28867e-06
-9.28867e-06
-9.28867e-06
-9.28867e-06
-9.28867e-06
-9.28867e-06
-9.28867e-06
-9.28867e-06
-9.28867e-06
-9.28867e-06
-9.28867e-06
-9.28867e-06
-9.28867e-06
-9.28867e-06
-9.28867e-06
-9.28867e-06
-9.28867e-06
-9.28867e-06
-9.28867e-06
-9.28867e-06
-9.28867e-06
-9.28867e-06
-9.28867e-06
-9.28867e-06
-9.28867e-06
-9.28867e-06
-9.28867e-06
-9.28867e-06
-9.28867e-06
-9.28867e-06
-9.28867e-06
-9.28867e-06
-9.28867e-06
-9.28867e-06
-9.28867e-06
-9.28867e-06
)
;
    }
    inandouthalf42
    {
        type            cyclic;
        value           nonuniform List<scalar> 
50
(
9.28867e-06
9.28867e-06
9.28867e-06
9.28867e-06
9.28867e-06
9.28867e-06
9.28867e-06
9.28867e-06
9.28867e-06
9.28867e-06
9.28867e-06
9.28867e-06
9.28867e-06
9.28867e-06
9.28867e-06
9.28867e-06
9.28867e-06
9.28867e-06
9.28867e-06
9.28867e-06
9.28867e-06
9.28867e-06
9.28867e-06
9.28867e-06
9.28867e-06
9.28867e-06
9.28867e-06
9.28867e-06
9.28867e-06
9.28867e-06
9.28867e-06
9.28867e-06
9.28867e-06
9.28867e-06
9.28867e-06
9.28867e-06
9.28867e-06
9.28867e-06
9.28867e-06
9.28867e-06
9.28867e-06
9.28867e-06
9.28867e-06
9.28867e-06
9.28867e-06
9.28867e-06
9.28867e-06
9.28867e-06
9.28867e-06
9.28867e-06
)
;
    }
    top
    {
        type            symmetryPlane;
        value           uniform 0;
    }
    walls
    {
        type            calculated;
        value           uniform 0;
    }
    frontAndBackPlanes
    {
        type            empty;
        value           nonuniform 0();
    }
}


// ************************************************************************* //
