/*--------------------------------*- C++ -*----------------------------------*\
| =========                 |                                                 |
| \\      /  F ield         | OpenFOAM: The Open Source CFD Toolbox           |
|  \\    /   O peration     | Version:  2.4.x                                 |
|   \\  /    A nd           | Web:      www.OpenFOAM.org                      |
|    \\/     M anipulation  |                                                 |
\*---------------------------------------------------------------------------*/
FoamFile
{
    version     2.0;
    format      ascii;
    class       volScalarField;
    location    "8.25";
    object      epsilon_0;
}
// * * * * * * * * * * * * * * * * * * * * * * * * * * * * * * * * * * * * * //

dimensions      [0 2 -3 0 0 0 0];

internalField   nonuniform List<scalar> 
360
(
1.60309e-27
1e-20
1e-20
1e-20
1e-20
1e-20
1e-20
1e-20
1e-20
1e-20
1e-20
1e-20
1e-20
1e-20
1e-20
1e-20
1e-20
1e-20
1e-20
1e-20
1e-20
1e-20
1e-20
1e-20
1e-20
1e-20
1e-20
1e-20
1e-20
1e-20
1e-20
1e-20
1e-20
1e-20
1e-20
1e-20
1e-20
1e-20
1e-20
1e-20
1e-20
1e-20
1e-20
1e-20
1e-20
1e-20
1e-20
1e-20
1e-20
1e-20
1e-20
1e-20
1e-20
1e-20
1e-20
1e-20
1e-20
1e-20
1e-20
1e-20
1e-20
1e-20
1e-20
1e-20
1e-20
1e-20
1e-20
1e-20
1e-20
1e-20
1e-20
1e-20
1e-20
1e-20
1e-20
1e-20
1e-20
1e-20
1e-20
1e-20
1e-20
1e-20
1e-20
1e-20
1e-20
1e-20
1e-20
1e-20
1e-20
1e-20
1e-20
1e-20
1e-20
1e-20
1e-20
1e-20
1e-20
1e-20
1e-20
1e-20
1e-20
1e-20
1e-20
1e-20
1e-20
1e-20
1e-20
1e-20
1e-20
1e-20
1e-20
1e-20
1e-20
1e-20
1e-20
1e-20
1e-20
1e-20
1e-20
1e-20
1e-20
1e-20
1e-20
1e-20
1e-20
1e-20
1e-20
1e-20
1e-20
1e-20
1e-20
1e-20
1e-20
1e-20
2.29931e-20
2.48898e-19
4.2262e-18
7.95091e-17
1.65027e-15
3.80748e-14
9.8524e-13
2.89084e-11
9.744e-10
3.82342e-08
1.76758e-06
9.67073e-05
0.00525586
0.106834
0.314445
0.372899
0.378186
0.361379
0.335108
0.304967
0.273817
0.243194
0.213922
0.186434
0.160948
0.137556
0.116285
0.0971277
0.0800632
0.0650655
0.0521041
0.0411351
0.0320848
0.0248309
0.019191
0.0149286
0.0117791
0.00948456
0.00782088
0.00661086
0.00572309
0.00506398
0.00456826
0.00419067
0.00389976
0.00367342
0.00349593
0.00335595
0.00324513
0.00315729
0.0030877
0.00303277
0.00298968
0.00295621
0.00293058
0.00291135
0.00289735
0.00288761
0.00288133
0.00287782
0.00287651
0.00287692
0.00287863
0.00288128
0.00288457
0.00288823
0.00289202
0.00289579
0.00289939
0.00290262
0.00290532
0.00290729
0.00290836
0.00290833
0.00290704
0.00290429
0.00289992
0.00289375
0.00288559
0.00287528
0.00286265
0.00284752
0.00282974
0.00280915
0.00278559
0.00275893
0.00272901
0.00269572
0.00265892
0.00261853
0.00257444
0.00252657
0.00247486
0.00241927
0.00235977
0.00229636
0.00222907
0.00215794
0.00208305
0.00200452
0.00192249
0.00183715
0.00174872
0.00165747
0.00156372
0.00146784
0.00137023
0.00127137
0.0011718
0.00107209
0.000972883
0.000874883
0.000778837
0.000685537
0.00059581
0.0005105
0.000430443
0.000356441
0.000289216
0.000229366
0.000177307
0.000133211
9.69598e-05
6.81142e-05
4.59321e-05
2.94386e-05
1.75534e-05
9.25545e-06
3.76107e-06
7.70358e-07
4.54935e-08
1.03787e-09
2.05493e-11
3.97178e-13
7.46671e-15
1.35683e-16
2.37672e-18
4.70886e-20
1e-20
1e-20
1e-20
1e-20
1e-20
1e-20
1e-20
1e-20
1e-20
1e-20
1e-20
1e-20
1e-20
1e-20
1e-20
1e-20
1e-20
1e-20
1e-20
1e-20
1e-20
1e-20
1e-20
1e-20
1e-20
1e-20
1e-20
1e-20
1e-20
1e-20
1e-20
1e-20
1e-20
1e-20
1e-20
1e-20
1e-20
1e-20
1e-20
1e-20
1e-20
1e-20
1e-20
1e-20
1e-20
1e-20
1e-20
1e-20
1e-20
1e-20
1e-20
1e-20
1e-20
1e-20
1e-20
1e-20
1e-20
1e-20
1e-20
1e-20
1e-20
1e-20
1e-20
1e-20
1e-20
1e-20
1e-20
1e-20
1e-20
1e-20
1e-20
1e-20
1e-20
1e-20
1e-20
1e-20
1e-20
1e-20
1e-20
1e-20
1e-20
1e-20
1e-20
1e-20
1e-20
1e-20
1e-20
1e-20
)
;

boundaryField
{
    inandouthalf11
    {
        type            cyclic;
    }
    inandouthalf12
    {
        type            cyclic;
    }
    inandouthalf21
    {
        type            cyclic;
    }
    inandouthalf22
    {
        type            cyclic;
    }
    inandouthalf31
    {
        type            cyclic;
    }
    inandouthalf32
    {
        type            cyclic;
    }
    inandouthalf41
    {
        type            cyclic;
    }
    inandouthalf42
    {
        type            cyclic;
    }
    top
    {
        type            symmetryPlane;
    }
    walls
    {
        type            zeroGradient;
    }
    frontAndBackPlanes
    {
        type            empty;
    }
}


// ************************************************************************* //
