/*--------------------------------*- C++ -*----------------------------------*\
| =========                 |                                                 |
| \\      /  F ield         | OpenFOAM: The Open Source CFD Toolbox           |
|  \\    /   O peration     | Version:  2.4.x                                 |
|   \\  /    A nd           | Web:      www.OpenFOAM.org                      |
|    \\/     M anipulation  |                                                 |
\*---------------------------------------------------------------------------*/
FoamFile
{
    version     2.0;
    format      ascii;
    class       surfaceScalarField;
    location    "8.25";
    object      phib;
}
// * * * * * * * * * * * * * * * * * * * * * * * * * * * * * * * * * * * * * //

dimensions      [0 3 -1 0 0 0 0];

internalField   nonuniform List<scalar> 
359
(
2.30231e-13
5.82188e-13
9.11915e-13
1.23268e-12
1.56567e-12
1.9085e-12
2.2548e-12
2.60208e-12
2.94985e-12
3.29817e-12
3.64683e-12
3.99538e-12
4.34337e-12
4.69041e-12
5.03619e-12
5.38054e-12
5.72327e-12
6.06419e-12
6.4031e-12
6.73994e-12
7.07448e-12
7.40669e-12
7.73652e-12
8.06392e-12
8.38887e-12
8.71139e-12
9.03145e-12
9.34918e-12
9.66461e-12
9.9778e-12
1.02888e-11
1.05978e-11
1.09048e-11
1.121e-11
1.15133e-11
1.18151e-11
1.21153e-11
1.2414e-11
1.27115e-11
1.30075e-11
1.33025e-11
1.35964e-11
1.38892e-11
1.41811e-11
1.4472e-11
1.47621e-11
1.50514e-11
1.53398e-11
1.56274e-11
1.59143e-11
1.62004e-11
1.64858e-11
1.67704e-11
1.70543e-11
1.73373e-11
1.76196e-11
1.79009e-11
1.81814e-11
1.84609e-11
1.87393e-11
1.90167e-11
1.9293e-11
1.95683e-11
1.98425e-11
2.01154e-11
2.03871e-11
2.06573e-11
2.09261e-11
2.11934e-11
2.14589e-11
2.17228e-11
2.1985e-11
2.22455e-11
2.25041e-11
2.27609e-11
2.30158e-11
2.32687e-11
2.35193e-11
2.37677e-11
2.40137e-11
2.42572e-11
2.44982e-11
2.47367e-11
2.49727e-11
2.52061e-11
2.54369e-11
2.5665e-11
2.58903e-11
2.61127e-11
2.63321e-11
2.65484e-11
2.67616e-11
2.69716e-11
2.71785e-11
2.73823e-11
2.75829e-11
2.77803e-11
2.79746e-11
2.81656e-11
2.83534e-11
2.85378e-11
2.8719e-11
2.88968e-11
2.90712e-11
2.92424e-11
2.94102e-11
2.95748e-11
2.97362e-11
2.98946e-11
3.00501e-11
3.02028e-11
3.03531e-11
3.0501e-11
3.0647e-11
3.07914e-11
3.09345e-11
3.10766e-11
3.12182e-11
3.13596e-11
3.15011e-11
3.16429e-11
3.17851e-11
3.19277e-11
3.20706e-11
3.22135e-11
3.23558e-11
3.2497e-11
3.26366e-11
3.27738e-11
3.29079e-11
3.30381e-11
3.31636e-11
3.3284e-11
3.33992e-11
3.35097e-11
3.36158e-11
3.37175e-11
3.38144e-11
3.39046e-11
3.39837e-11
3.40411e-11
3.40577e-11
3.40265e-11
3.39559e-11
3.38253e-11
3.30603e-11
-7.69025e-10
-3.5376e-09
-4.02491e-09
-4.0846e-09
-3.97929e-09
-3.78072e-09
-3.52558e-09
-3.23355e-09
-2.91846e-09
-2.59166e-09
-2.26371e-09
-1.94374e-09
-1.63963e-09
-1.35777e-09
-1.10286e-09
-8.77924e-10
-6.8439e-10
-5.22216e-10
-3.90003e-10
-2.85144e-10
-2.04154e-10
-1.43279e-10
-9.9041e-11
-6.81965e-11
-4.7505e-11
-3.39085e-11
-2.49411e-11
-1.8893e-11
-1.46873e-11
-1.1671e-11
-9.44631e-12
-7.76552e-12
-6.4693e-12
-5.45198e-12
-4.64151e-12
-3.9874e-12
-3.4535e-12
-3.01336e-12
-2.64728e-12
-2.34037e-12
-2.08118e-12
-1.86082e-12
-1.67228e-12
-1.51002e-12
-1.36957e-12
-1.24733e-12
-1.14036e-12
-1.04624e-12
-9.62964e-13
-8.8887e-13
-8.22556e-13
-7.62841e-13
-7.08721e-13
-6.59349e-13
-6.14016e-13
-5.71317e-13
-5.30912e-13
-4.92496e-13
-4.55807e-13
-4.20641e-13
-3.86857e-13
-3.54372e-13
-3.23155e-13
-2.93219e-13
-2.64614e-13
-2.37419e-13
-2.11754e-13
-1.87745e-13
-1.65459e-13
-1.44938e-13
-1.26231e-13
-1.09339e-13
-9.41935e-14
-8.06968e-14
-6.87608e-14
-5.83006e-14
-4.91814e-14
-4.12623e-14
-3.44418e-14
-2.86046e-14
-2.36277e-14
-1.94081e-14
-1.58481e-14
-1.28664e-14
-1.0372e-14
-8.30672e-15
-6.64173e-15
-5.37424e-15
-4.22596e-15
-3.05473e-15
-2.21484e-15
-1.56422e-15
-1.09933e-15
-7.0494e-16
-4.72915e-16
-2.23247e-16
-1.51768e-16
8.60756e-17
8.72919e-18
8.54253e-18
8.25725e-18
8.06164e-18
7.76716e-18
7.5545e-18
7.24825e-18
7.01434e-18
6.68796e-18
6.423e-18
6.07442e-18
5.78793e-18
5.43249e-18
5.13079e-18
4.76281e-18
4.44165e-18
4.07751e-18
3.76118e-18
3.41803e-18
3.14922e-18
2.91952e-18
2.75797e-18
2.59199e-18
2.45945e-18
2.34282e-18
2.23505e-18
2.11861e-18
2.00594e-18
1.93238e-18
1.85933e-18
1.78369e-18
1.69262e-18
1.61577e-18
1.52249e-18
1.42751e-18
1.32156e-18
1.25544e-18
1.18304e-18
1.11311e-18
1.03332e-18
9.61071e-19
8.84187e-19
7.76958e-19
6.95748e-19
6.16499e-19
5.37418e-19
4.5862e-19
3.818e-19
3.04915e-19
2.28029e-19
1.54005e-19
7.25396e-20
-2.8565e-20
-4.9209e-20
-6.63506e-20
-7.87277e-20
-9.46154e-20
-1.08567e-19
-1.22553e-19
-1.33592e-19
-1.51263e-19
-1.63922e-19
-1.77084e-19
-1.83186e-19
-1.95993e-19
-2.01625e-19
-2.06617e-19
-2.06215e-19
-2.20941e-19
-2.30579e-19
-2.40579e-19
-2.45525e-19
-2.55256e-19
-2.59775e-19
-2.64546e-19
-2.61366e-19
-2.8025e-19
-2.88635e-19
-2.97305e-19
-2.89229e-19
-3.14494e-19
-3.05384e-19
-3.06937e-19
-1.69026e-19
-6.47402e-19
-9.96602e-19
-1.35647e-18
-1.71286e-18
-2.06328e-18
-2.45263e-18
-2.83717e-18
-3.28862e-18
-3.60541e-18
-4.02062e-18
-4.43046e-18
-4.9623e-18
-5.39916e-18
-5.97253e-18
-6.55725e-18
-7.22098e-18
-8.16479e-18
-9.21515e-18
-1.02847e-17
-1.14842e-17
-1.27671e-17
-1.39831e-17
-1.53502e-17
-1.63043e-17
-1.9952e-17
-2.23836e-17
-2.51273e-17
-2.59071e-17
-3.02761e-17
-3.16155e-17
-3.59635e-17
)
;

boundaryField
{
    inandouthalf11
    {
        type            cyclic;
        value           nonuniform List<scalar> 
100
(
-2.45768e-10
-2.44467e-10
-2.44291e-10
-2.44488e-10
-2.44597e-10
-2.44647e-10
-2.44703e-10
-2.44768e-10
-2.44835e-10
-2.44902e-10
-2.4497e-10
-2.45038e-10
-2.45106e-10
-2.45175e-10
-2.45244e-10
-2.45313e-10
-2.45383e-10
-2.45453e-10
-2.45523e-10
-2.45594e-10
-2.45665e-10
-2.45736e-10
-2.45807e-10
-2.45879e-10
-2.45952e-10
-2.46024e-10
-2.46097e-10
-2.4617e-10
-2.46244e-10
-2.46318e-10
-2.46392e-10
-2.46468e-10
-2.46542e-10
-2.46619e-10
-2.46695e-10
-2.46772e-10
-2.46849e-10
-2.46927e-10
-2.47006e-10
-2.47084e-10
-2.47164e-10
-2.47244e-10
-2.47325e-10
-2.47407e-10
-2.47489e-10
-2.47572e-10
-2.47656e-10
-2.47739e-10
-2.47824e-10
-2.47911e-10
-2.47997e-10
-2.48084e-10
-2.48173e-10
-2.48262e-10
-2.48351e-10
-2.48443e-10
-2.48534e-10
-2.48627e-10
-2.4872e-10
-2.48814e-10
-2.4891e-10
-2.49006e-10
-2.49104e-10
-2.49202e-10
-2.49302e-10
-2.49402e-10
-2.49504e-10
-2.49607e-10
-2.49711e-10
-2.49816e-10
-2.49922e-10
-2.5003e-10
-2.50138e-10
-2.50249e-10
-2.50361e-10
-2.50474e-10
-2.50588e-10
-2.50704e-10
-2.50821e-10
-2.5094e-10
-2.5106e-10
-2.51182e-10
-2.51306e-10
-2.51431e-10
-2.51559e-10
-2.51688e-10
-2.51819e-10
-2.51952e-10
-2.52087e-10
-2.52224e-10
-2.52363e-10
-2.52505e-10
-2.52649e-10
-2.52795e-10
-2.52944e-10
-2.53095e-10
-2.5325e-10
-2.53407e-10
-2.53567e-10
-2.5373e-10
)
;
    }
    inandouthalf12
    {
        type            cyclic;
        value           nonuniform List<scalar> 
100
(
2.45768e-10
2.44467e-10
2.44291e-10
2.44488e-10
2.44597e-10
2.44647e-10
2.44703e-10
2.44768e-10
2.44835e-10
2.44902e-10
2.4497e-10
2.45038e-10
2.45106e-10
2.45175e-10
2.45244e-10
2.45313e-10
2.45383e-10
2.45453e-10
2.45523e-10
2.45594e-10
2.45665e-10
2.45736e-10
2.45807e-10
2.45879e-10
2.45952e-10
2.46024e-10
2.46097e-10
2.4617e-10
2.46244e-10
2.46318e-10
2.46392e-10
2.46468e-10
2.46542e-10
2.46619e-10
2.46695e-10
2.46772e-10
2.46849e-10
2.46927e-10
2.47006e-10
2.47084e-10
2.47164e-10
2.47244e-10
2.47325e-10
2.47407e-10
2.47489e-10
2.47572e-10
2.47656e-10
2.47739e-10
2.47824e-10
2.47911e-10
2.47997e-10
2.48084e-10
2.48173e-10
2.48262e-10
2.48351e-10
2.48443e-10
2.48534e-10
2.48627e-10
2.4872e-10
2.48814e-10
2.4891e-10
2.49006e-10
2.49104e-10
2.49202e-10
2.49302e-10
2.49402e-10
2.49504e-10
2.49607e-10
2.49711e-10
2.49816e-10
2.49922e-10
2.5003e-10
2.50138e-10
2.50249e-10
2.50361e-10
2.50474e-10
2.50588e-10
2.50704e-10
2.50821e-10
2.5094e-10
2.5106e-10
2.51182e-10
2.51306e-10
2.51431e-10
2.51559e-10
2.51688e-10
2.51819e-10
2.51952e-10
2.52087e-10
2.52224e-10
2.52363e-10
2.52505e-10
2.52649e-10
2.52795e-10
2.52944e-10
2.53095e-10
2.5325e-10
2.53407e-10
2.53567e-10
2.5373e-10
)
;
    }
    inandouthalf21
    {
        type            cyclic;
        value           nonuniform List<scalar> 
100
(
-2.53896e-10
-2.54065e-10
-2.54238e-10
-2.54415e-10
-2.54595e-10
-2.54779e-10
-2.54968e-10
-2.5516e-10
-2.55357e-10
-2.55559e-10
-2.55766e-10
-2.55978e-10
-2.56195e-10
-2.56418e-10
-2.56647e-10
-2.56882e-10
-2.57123e-10
-2.57371e-10
-2.57627e-10
-2.5789e-10
-2.58161e-10
-2.58441e-10
-2.58729e-10
-2.59027e-10
-2.59335e-10
-2.59653e-10
-2.59983e-10
-2.60326e-10
-2.60683e-10
-2.61055e-10
-2.61442e-10
-2.61847e-10
-2.62269e-10
-2.62715e-10
-2.63187e-10
-2.63686e-10
-2.64209e-10
-2.64763e-10
-2.65376e-10
-2.6608e-10
-2.66843e-10
-2.67581e-10
-2.68469e-10
-2.69616e-10
-2.71054e-10
-2.74424e-10
-7.51892e-10
-8.35597e-08
-2.14709e-07
-3.22834e-07
-4.14081e-07
-4.92705e-07
-5.6152e-07
-6.22362e-07
-6.76568e-07
-7.25156e-07
-7.68919e-07
-8.08482e-07
-8.44343e-07
-8.76899e-07
-9.06462e-07
-9.33271e-07
-9.57503e-07
-9.79278e-07
-9.98671e-07
-1.01572e-06
-1.03046e-06
-1.04294e-06
-1.05323e-06
-1.06151e-06
-1.06801e-06
-1.07301e-06
-1.07679e-06
-1.07961e-06
-1.08168e-06
-1.08318e-06
-1.08422e-06
-1.08492e-06
-1.08534e-06
-1.08553e-06
-1.08554e-06
-1.0854e-06
-1.08512e-06
-1.08473e-06
-1.08425e-06
-1.08368e-06
-1.08303e-06
-1.08232e-06
-1.08155e-06
-1.08071e-06
-1.07983e-06
-1.0789e-06
-1.07793e-06
-1.07692e-06
-1.07588e-06
-1.07479e-06
-1.07368e-06
-1.07254e-06
-1.07137e-06
-1.07018e-06
)
;
    }
    inandouthalf22
    {
        type            cyclic;
        value           nonuniform List<scalar> 
100
(
2.53896e-10
2.54065e-10
2.54238e-10
2.54415e-10
2.54595e-10
2.54779e-10
2.54968e-10
2.5516e-10
2.55357e-10
2.55559e-10
2.55766e-10
2.55978e-10
2.56195e-10
2.56418e-10
2.56647e-10
2.56882e-10
2.57123e-10
2.57371e-10
2.57627e-10
2.5789e-10
2.58161e-10
2.58441e-10
2.58729e-10
2.59027e-10
2.59335e-10
2.59653e-10
2.59983e-10
2.60326e-10
2.60683e-10
2.61055e-10
2.61442e-10
2.61847e-10
2.62269e-10
2.62715e-10
2.63187e-10
2.63686e-10
2.64209e-10
2.64763e-10
2.65376e-10
2.6608e-10
2.66843e-10
2.67581e-10
2.68469e-10
2.69616e-10
2.71054e-10
2.74424e-10
7.51892e-10
8.35597e-08
2.14709e-07
3.22834e-07
4.14081e-07
4.92705e-07
5.6152e-07
6.22362e-07
6.76568e-07
7.25156e-07
7.68919e-07
8.08482e-07
8.44343e-07
8.76899e-07
9.06462e-07
9.33271e-07
9.57503e-07
9.79278e-07
9.98671e-07
1.01572e-06
1.03046e-06
1.04294e-06
1.05323e-06
1.06151e-06
1.06801e-06
1.07301e-06
1.07679e-06
1.07961e-06
1.08168e-06
1.08318e-06
1.08422e-06
1.08492e-06
1.08534e-06
1.08553e-06
1.08554e-06
1.0854e-06
1.08512e-06
1.08473e-06
1.08425e-06
1.08368e-06
1.08303e-06
1.08232e-06
1.08155e-06
1.08071e-06
1.07983e-06
1.0789e-06
1.07793e-06
1.07692e-06
1.07588e-06
1.07479e-06
1.07368e-06
1.07254e-06
1.07137e-06
1.07018e-06
)
;
    }
    inandouthalf31
    {
        type            cyclic;
        value           nonuniform List<scalar> 
110
(
-1.06897e-06
-1.08939e-06
-1.11015e-06
-1.13126e-06
-1.15271e-06
-1.17452e-06
-1.19668e-06
-1.2192e-06
-1.24208e-06
-1.26533e-06
-1.28895e-06
-1.31295e-06
-1.33732e-06
-1.36208e-06
-1.38723e-06
-1.41276e-06
-1.43869e-06
-1.46503e-06
-1.49176e-06
-1.51891e-06
-1.54647e-06
-1.57444e-06
-1.60285e-06
-1.63168e-06
-1.66095e-06
-1.69066e-06
-1.72082e-06
-1.75144e-06
-1.78251e-06
-1.81407e-06
-1.8461e-06
-1.87862e-06
-1.91165e-06
-1.94519e-06
-1.97925e-06
-2.01386e-06
-2.04903e-06
-2.08477e-06
-2.12111e-06
-2.15807e-06
-2.19568e-06
-2.23395e-06
-2.27294e-06
-2.31267e-06
-2.35318e-06
-2.39453e-06
-2.43676e-06
-2.47994e-06
-2.52415e-06
-2.56945e-06
-2.61593e-06
-2.6637e-06
-2.71287e-06
-2.76355e-06
-2.81587e-06
-2.86996e-06
-2.92594e-06
-2.98392e-06
-3.04397e-06
-3.10614e-06
-3.17038e-06
-3.2366e-06
-3.30458e-06
-3.37381e-06
-3.44313e-06
-3.51308e-06
-3.58439e-06
-3.65714e-06
-3.73137e-06
-3.80711e-06
-3.88439e-06
-3.96323e-06
-4.04367e-06
-4.12575e-06
-4.20949e-06
-4.29493e-06
-4.38211e-06
-4.47105e-06
-4.5618e-06
-4.65439e-06
-4.74887e-06
-4.84525e-06
-4.9436e-06
-5.04394e-06
-5.14632e-06
-5.25078e-06
-5.35735e-06
-5.46609e-06
-5.57704e-06
-5.69024e-06
-5.80574e-06
-5.92358e-06
-6.04381e-06
-6.16648e-06
-6.29165e-06
-6.41935e-06
-6.54965e-06
-6.68259e-06
-6.81823e-06
-6.95662e-06
-7.09782e-06
-7.24189e-06
-7.38888e-06
-7.53885e-06
-7.69187e-06
-7.84799e-06
-8.00729e-06
-8.16981e-06
-8.33564e-06
-8.50483e-06
)
;
    }
    inandouthalf32
    {
        type            cyclic;
        value           nonuniform List<scalar> 
110
(
1.06897e-06
1.08939e-06
1.11015e-06
1.13126e-06
1.15271e-06
1.17452e-06
1.19668e-06
1.2192e-06
1.24208e-06
1.26533e-06
1.28895e-06
1.31295e-06
1.33732e-06
1.36208e-06
1.38723e-06
1.41276e-06
1.43869e-06
1.46503e-06
1.49176e-06
1.51891e-06
1.54647e-06
1.57444e-06
1.60285e-06
1.63168e-06
1.66095e-06
1.69066e-06
1.72082e-06
1.75144e-06
1.78251e-06
1.81407e-06
1.8461e-06
1.87862e-06
1.91165e-06
1.94519e-06
1.97925e-06
2.01386e-06
2.04903e-06
2.08477e-06
2.12111e-06
2.15807e-06
2.19568e-06
2.23395e-06
2.27294e-06
2.31267e-06
2.35318e-06
2.39453e-06
2.43676e-06
2.47994e-06
2.52415e-06
2.56945e-06
2.61593e-06
2.6637e-06
2.71287e-06
2.76355e-06
2.81587e-06
2.86996e-06
2.92594e-06
2.98392e-06
3.04397e-06
3.10614e-06
3.17038e-06
3.2366e-06
3.30458e-06
3.37381e-06
3.44313e-06
3.51308e-06
3.58439e-06
3.65714e-06
3.73137e-06
3.80711e-06
3.88439e-06
3.96323e-06
4.04367e-06
4.12575e-06
4.20949e-06
4.29493e-06
4.38211e-06
4.47105e-06
4.5618e-06
4.65439e-06
4.74887e-06
4.84525e-06
4.9436e-06
5.04394e-06
5.14632e-06
5.25078e-06
5.35735e-06
5.46609e-06
5.57704e-06
5.69024e-06
5.80574e-06
5.92358e-06
6.04381e-06
6.16648e-06
6.29165e-06
6.41935e-06
6.54965e-06
6.68259e-06
6.81823e-06
6.95662e-06
7.09782e-06
7.24189e-06
7.38888e-06
7.53885e-06
7.69187e-06
7.84799e-06
8.00729e-06
8.16981e-06
8.33564e-06
8.50483e-06
)
;
    }
    inandouthalf41
    {
        type            cyclic;
        value           nonuniform List<scalar> 
50
(
-7.61269e-06
-7.61269e-06
-7.61269e-06
-7.61269e-06
-7.61269e-06
-7.61269e-06
-7.61269e-06
-7.61269e-06
-7.61269e-06
-7.61269e-06
-7.61269e-06
-7.61269e-06
-7.61269e-06
-7.61269e-06
-7.61269e-06
-7.61269e-06
-7.61269e-06
-7.61269e-06
-7.61269e-06
-7.61269e-06
-7.61269e-06
-7.61269e-06
-7.61269e-06
-7.61269e-06
-7.61269e-06
-7.61269e-06
-7.61269e-06
-7.61269e-06
-7.61269e-06
-7.61269e-06
-7.61269e-06
-7.61269e-06
-7.61269e-06
-7.61269e-06
-7.61269e-06
-7.61269e-06
-7.61269e-06
-7.61269e-06
-7.61269e-06
-7.61269e-06
-7.61269e-06
-7.61269e-06
-7.61269e-06
-7.61269e-06
-7.61269e-06
-7.61269e-06
-7.61269e-06
-7.61269e-06
-7.61269e-06
-7.61269e-06
)
;
    }
    inandouthalf42
    {
        type            cyclic;
        value           nonuniform List<scalar> 
50
(
7.61269e-06
7.61269e-06
7.61269e-06
7.61269e-06
7.61269e-06
7.61269e-06
7.61269e-06
7.61269e-06
7.61269e-06
7.61269e-06
7.61269e-06
7.61269e-06
7.61269e-06
7.61269e-06
7.61269e-06
7.61269e-06
7.61269e-06
7.61269e-06
7.61269e-06
7.61269e-06
7.61269e-06
7.61269e-06
7.61269e-06
7.61269e-06
7.61269e-06
7.61269e-06
7.61269e-06
7.61269e-06
7.61269e-06
7.61269e-06
7.61269e-06
7.61269e-06
7.61269e-06
7.61269e-06
7.61269e-06
7.61269e-06
7.61269e-06
7.61269e-06
7.61269e-06
7.61269e-06
7.61269e-06
7.61269e-06
7.61269e-06
7.61269e-06
7.61269e-06
7.61269e-06
7.61269e-06
7.61269e-06
7.61269e-06
7.61269e-06
)
;
    }
    top
    {
        type            symmetryPlane;
        value           uniform 0;
    }
    walls
    {
        type            fixedValue;
        value           uniform 0;
    }
    frontAndBackPlanes
    {
        type            empty;
        value           nonuniform 0();
    }
}


// ************************************************************************* //
