/*--------------------------------*- C++ -*----------------------------------*\
| =========                 |                                                 |
| \\      /  F ield         | OpenFOAM: The Open Source CFD Toolbox           |
|  \\    /   O peration     | Version:  2.4.x                                 |
|   \\  /    A nd           | Web:      www.OpenFOAM.org                      |
|    \\/     M anipulation  |                                                 |
\*---------------------------------------------------------------------------*/
FoamFile
{
    version     2.0;
    format      ascii;
    class       volVectorField;
    location    "8.25";
    object      susb;
}
// * * * * * * * * * * * * * * * * * * * * * * * * * * * * * * * * * * * * * //

dimensions      [0 1 -2 0 0 0 0];

internalField   nonuniform List<vector> 
360
(
(0 5.85098e-18 0)
(0 6.5481e-18 0)
(0 5.17105e-20 0)
(0 -9.20839e-19 0)
(-3.69885e-31 -4.13417e-19 0)
(-7.39696e-31 -2.27605e-19 0)
(-3.69804e-31 -2.78825e-19 0)
(0 -3.16371e-19 0)
(-3.6969e-31 -3.23244e-19 0)
(0 -3.27445e-19 0)
(-3.69573e-31 -3.28976e-19 0)
(0 -3.30052e-19 0)
(-3.69454e-31 -3.32465e-19 0)
(0 -3.34982e-19 0)
(0 -3.38534e-19 0)
(0 -3.42141e-19 0)
(0 -3.4484e-19 0)
(-3.69149e-31 -3.47135e-19 0)
(0 -3.50917e-19 0)
(0 -3.5333e-19 0)
(0 -3.55883e-19 0)
(-3.68896e-31 -3.59891e-19 0)
(0 -3.62602e-19 0)
(0 -3.65865e-19 0)
(0 -3.69223e-19 0)
(-7.37267e-31 -3.71809e-19 0)
(0 -3.75663e-19 0)
(0 -3.79703e-19 0)
(0 -3.82387e-19 0)
(0 -3.85638e-19 0)
(0 -3.90525e-19 0)
(0 -3.92756e-19 0)
(0 -3.97277e-19 0)
(0 -4.01905e-19 0)
(0 -4.04569e-19 0)
(3.67934e-31 -4.08723e-19 0)
(0 -4.12665e-19 0)
(0 -4.18881e-19 0)
(0 -4.20457e-19 0)
(0 -4.25344e-19 0)
(0 -4.32234e-19 0)
(0 -4.33147e-19 0)
(3.67403e-31 -4.39361e-19 0)
(0 -4.45035e-19 0)
(0 -4.48396e-19 0)
(0 -4.55198e-19 0)
(0 -4.57676e-19 0)
(0 -4.61925e-19 0)
(0 -4.71502e-19 0)
(0 -4.74491e-19 0)
(3.66745e-31 -4.78483e-19 0)
(0 -4.85641e-19 0)
(0 -4.91354e-19 0)
(0 -4.95813e-19 0)
(0 -5.02934e-19 0)
(0 -5.08683e-19 0)
(0 -5.14054e-19 0)
(0 -5.21985e-19 0)
(0 -5.24861e-19 0)
(0 -5.33875e-19 0)
(0 -5.4091e-19 0)
(0 -5.46716e-19 0)
(0 -5.5498e-19 0)
(0 -5.60982e-19 0)
(0 -5.67948e-19 0)
(0 -5.75552e-19 0)
(0 -5.84344e-19 0)
(0 -5.91443e-19 0)
(0 -5.96987e-19 0)
(0 -6.06697e-19 0)
(0 -6.18435e-19 0)
(0 -6.23254e-19 0)
(0 -6.31814e-19 0)
(0 -6.42999e-19 0)
(0 -6.52533e-19 0)
(0 -6.61447e-19 0)
(0 -6.69359e-19 0)
(0 -6.80384e-19 0)
(0 -6.91261e-19 0)
(0 -7.00927e-19 0)
(0 -7.11565e-19 0)
(0 -7.23759e-19 0)
(0 -7.35319e-19 0)
(0 -7.47248e-19 0)
(0 -7.59536e-19 0)
(0 -7.72248e-19 0)
(0 -7.85075e-19 0)
(0 -7.97844e-19 0)
(0 -8.11608e-19 0)
(0 -8.25891e-19 0)
(0 -8.40426e-19 0)
(0 -8.55805e-19 0)
(0 -8.71899e-19 0)
(0 -8.88326e-19 0)
(0 -9.05277e-19 0)
(0 -9.2277e-19 0)
(0 -9.40766e-19 0)
(0 -9.59344e-19 0)
(0 -9.78645e-19 0)
(0 -9.98705e-19 0)
(0 -1.01955e-18 0)
(0 -1.04128e-18 0)
(0 -1.06389e-18 0)
(0 -1.08738e-18 0)
(0 -1.1118e-18 0)
(0 -1.13721e-18 0)
(0 -1.16364e-18 0)
(0 -1.19117e-18 0)
(0 -1.21985e-18 0)
(0 -1.24974e-18 0)
(0 -1.28089e-18 0)
(0 -1.31335e-18 0)
(0 -1.34718e-18 0)
(0 -1.38246e-18 0)
(0 -1.41924e-18 0)
(0 -1.45763e-18 0)
(0 -1.49771e-18 0)
(0 -1.53964e-18 0)
(0 -1.58356e-18 0)
(0 -1.62968e-18 0)
(0 -1.67821e-18 0)
(0 -1.72937e-18 0)
(0 -1.78341e-18 0)
(0 -1.84065e-18 0)
(0 -1.90164e-18 0)
(0 -1.96726e-18 0)
(0 -2.03873e-18 0)
(0 -2.1172e-18 0)
(0 -2.2028e-18 0)
(0 -2.29402e-18 0)
(0 -2.38916e-18 0)
(0 -2.49134e-18 0)
(0 -2.61152e-18 0)
(0 -2.75705e-18 0)
(0 -1.31195e-18 0)
(0 -5.57351e-18 0)
(0 -7.38158e-17 0)
(0 -1.11625e-15 0)
(0 -1.90686e-14 0)
(0 -3.51572e-13 0)
(0 -6.56278e-12 0)
(0 -1.44145e-10 0)
(0 -4.11924e-09 0)
(0 -1.36413e-07 0)
(0 -6.73858e-06 0)
(0 -0.00138719 0)
(0 -0.835432 0)
(0 -3.96831 0)
(0 -2.76101 0)
(0 -1.58336 0)
(0 -1.19874 0)
(0 -1.08135 0)
(0 -0.982171 0)
(0 -0.889254 0)
(0 -0.796699 0)
(0 -0.704155 0)
(0 -0.613009 0)
(0 -0.525463 0)
(0 -0.443612 0)
(0 -0.368901 0)
(0 -0.302281 0)
(0 -0.244136 0)
(0 -0.194387 0)
(0 -0.152622 0)
(0 -0.118242 0)
(0 -0.0905571 0)
(0 -0.0687654 0)
(0 -0.0518832 0)
(0 -0.0388341 0)
(0 -0.0287362 0)
(0 -0.0210558 0)
(0 -0.0154444 0)
(0 -0.0115202 0)
(0 -0.0088425 0)
(0 -0.00700903 0)
(0 -0.00572183 0)
(0 -0.00478638 0)
(0 -0.00408238 0)
(0 -0.00353578 0)
(0 -0.00310001 0)
(0 -0.00274489 0)
(0 -0.00245017 0)
(0 -0.00220187 0)
(0 -0.00199002 0)
(0 -0.00180734 0)
(0 -0.00164839 0)
(0 -0.001509 0)
(0 -0.00138595 0)
(0 -0.00127667 0)
(0 -0.00117909 0)
(0 -0.00109156 0)
(0 -0.00101271 0)
(0 -0.000941429 0)
(0 -0.000876813 0)
(0 -0.000818102 0)
(0 -0.000764659 0)
(0 -0.00071595 0)
(0 -0.000671522 0)
(0 -0.000630956 0)
(0 -0.000593811 0)
(0 -0.000559578 0)
(0 -0.000527481 0)
(-3.24122e-19 -0.000496992 0)
(0 -0.000468005 0)
(0 -0.00044031 0)
(3.09162e-19 -0.000413583 0)
(0 -0.000387494 0)
(-2.98038e-19 -0.000361785 0)
(0 -0.000336308 0)
(1.43035e-19 -0.000310985 0)
(0 -0.000285817 0)
(0 -0.000260841 0)
(0 -0.000235972 0)
(6.49661e-20 -0.000211434 0)
(0 -0.000187849 0)
(0 -0.000165467 0)
(0 -0.000144236 0)
(0 -0.000124515 0)
(0 -0.000106691 0)
(-2.69884e-20 -9.08012e-05 0)
(0 -7.66364e-05 0)
(-2.50369e-20 -6.405e-05 0)
(0 -5.3213e-05 0)
(-2.30397e-20 -4.39774e-05 0)
(0 -3.6002e-05 0)
(0 -2.92488e-05 0)
(0 -2.36343e-05 0)
(0 -1.89554e-05 0)
(4.47672e-21 -1.51038e-05 0)
(4.21901e-21 -1.19212e-05 0)
(0 -9.39882e-06 0)
(0 -7.33292e-06 0)
(0 -5.63382e-06 0)
(0 -4.14638e-06 0)
(0 -3.79242e-06 0)
(0 -3.82389e-06 0)
(0 -2.78085e-06 0)
(0 -1.73888e-06 0)
(0 -1.30929e-06 0)
(0 -9.37691e-07 0)
(0 -7.13536e-07 0)
(0 -4.71386e-07 0)
(0 -3.58848e-07 0)
(-8.66999e-24 -2.33368e-07 0)
(3.18278e-34 -7.16817e-08 0)
(0 -1.52566e-18 0)
(0 -1.59289e-29 0)
(-3.66222e-57 -1.68771e-40 0)
(0 -7.16424e-42 0)
(0 -7.53817e-42 0)
(0 -5.4107e-42 0)
(0 -2.11321e-42 0)
(0 -7.60232e-43 0)
(0 -3.23358e-43 0)
(0 -1.58959e-43 0)
(0 -1.02223e-43 0)
(0 -6.43105e-44 0)
(0 -2.73805e-44 0)
(0 -9.68177e-45 0)
(0 -3.88758e-45 0)
(0 -1.6669e-45 0)
(0 -6.7118e-46 0)
(0 -1.93687e-46 0)
(0 -3.12027e-47 0)
(0 -1.3331e-48 0)
(0 -1.59046e-50 0)
(2.08175e-68 -1.50551e-52 0)
(0 -1.36301e-54 0)
(0 -1.1793e-56 0)
(0 -9.69328e-59 0)
(0 -7.51016e-61 0)
(0 -4.77219e-63 0)
(0 -1.35862e-65 0)
(0 -3.2362e-66 0)
(0 -1.35644e-66 0)
(0 -5.56333e-67 0)
(0 -2.23098e-67 0)
(0 -8.74022e-68 0)
(0 -3.34221e-68 0)
(0 -1.2463e-68 0)
(0 -4.52746e-69 0)
(0 -1.60055e-69 0)
(0 -5.50009e-70 0)
(0 -1.83496e-70 0)
(0 -5.93568e-71 0)
(0 -1.85902e-71 0)
(5.65942e-88 -5.62867e-72 0)
(0 -1.6448e-72 0)
(0 -4.63041e-73 0)
(0 -1.25335e-73 0)
(0 -3.25485e-74 0)
(0 -8.0902e-75 0)
(0 -1.91961e-75 0)
(0 -4.33529e-76 0)
(0 -9.28847e-77 0)
(0 -1.88098e-77 0)
(4.41473e-94 -3.58514e-78 0)
(0 -6.40051e-79 0)
(0 -1.06435e-79 0)
(0 -1.63782e-80 0)
(0 -2.31414e-81 0)
(0 -2.97422e-82 0)
(0 -3.43716e-83 0)
(0 -3.51994e-84 0)
(0 -3.13425e-85 0)
(0 -2.36492e-86 0)
(0 -1.45729e-87 0)
(0 -6.92387e-89 0)
(0 -2.2897e-90 0)
(0 -4.16178e-92 0)
(0 -1.06921e-94 0)
(0 -1.04934e-99 0)
(0 -8.52381e-102 0)
(0 -3.43214e-104 0)
(0 -1.2182e-114 0)
(0 -2.16405e-125 0)
(0 -2.80197e-136 0)
(0 -2.60464e-147 0)
(0 -2.0852e-158 0)
(0 -1.26025e-169 0)
(0 -6.58616e-181 0)
(0 -4.09787e-191 0)
(0 -1.7945e-201 0)
(0 -1.32488e-209 0)
(0 -5.29027e-220 0)
(0 -4.55698e-228 0)
(0 -2.14137e-238 0)
(0 -1.56811e-246 0)
(0 -9.05112e-257 0)
(0 -5.40069e-265 0)
(0 -5.79605e-275 0)
(0 -1.89405e-283 0)
(0 -3.84105e-293 0)
(0 -6.81831e-302 0)
(0 -1.90231e-311 0)
(0 -2.51183e-320 0)
(0 -0 0)
(0 -0 0)
(0 0 0)
(0 0 0)
(0 0 0)
(0 0 0)
(0 0 0)
(0 0 0)
(0 0 0)
(0 0 0)
(0 0 0)
(0 0 0)
(0 0 0)
(0 0 0)
(0 0 0)
(0 0 0)
(0 0 0)
(0 0 0)
(0 0 0)
(0 0 0)
(0 0 0)
(0 0 0)
(0 0 0)
(0 0 0)
)
;

boundaryField
{
    inandouthalf11
    {
        type            cyclic;
    }
    inandouthalf12
    {
        type            cyclic;
    }
    inandouthalf21
    {
        type            cyclic;
    }
    inandouthalf22
    {
        type            cyclic;
    }
    inandouthalf31
    {
        type            cyclic;
    }
    inandouthalf32
    {
        type            cyclic;
    }
    inandouthalf41
    {
        type            cyclic;
    }
    inandouthalf42
    {
        type            cyclic;
    }
    top
    {
        type            symmetryPlane;
    }
    walls
    {
        type            zeroGradient;
    }
    frontAndBackPlanes
    {
        type            empty;
    }
}


// ************************************************************************* //
