/*--------------------------------*- C++ -*----------------------------------*\
| =========                 |                                                 |
| \\      /  F ield         | OpenFOAM: The Open Source CFD Toolbox           |
|  \\    /   O peration     | Version:  2.4.x                                 |
|   \\  /    A nd           | Web:      www.OpenFOAM.org                      |
|    \\/     M anipulation  |                                                 |
\*---------------------------------------------------------------------------*/
FoamFile
{
    version     2.0;
    format      ascii;
    class       volVectorField;
    location    "8.25";
    object      Ub;
}
// * * * * * * * * * * * * * * * * * * * * * * * * * * * * * * * * * * * * * //

dimensions      [0 1 -1 0 0 0 0];

internalField   nonuniform List<vector> 
360
(
(0.000245768 2.82488e-08 0)
(0.000244467 1.00869e-07 0)
(0.000244291 1.86707e-07 0)
(0.000244488 2.6808e-07 0)
(0.000244597 3.49804e-07 0)
(0.000244647 4.34263e-07 0)
(0.000244703 5.20401e-07 0)
(0.000244768 6.07102e-07 0)
(0.000244835 6.93984e-07 0)
(0.000244902 7.80995e-07 0)
(0.00024497 8.68118e-07 0)
(0.000245038 9.55269e-07 0)
(0.000245106 1.04234e-06 0)
(0.000245175 1.12922e-06 0)
(0.000245244 1.21582e-06 0)
(0.000245313 1.30208e-06 0)
(0.000245383 1.38797e-06 0)
(0.000245453 1.47342e-06 0)
(0.000245523 1.5584e-06 0)
(0.000245594 1.64287e-06 0)
(0.000245665 1.72679e-06 0)
(0.000245736 1.81014e-06 0)
(0.000245807 1.89289e-06 0)
(0.000245879 1.97505e-06 0)
(0.000245952 2.05659e-06 0)
(0.000246024 2.13752e-06 0)
(0.000246097 2.21785e-06 0)
(0.00024617 2.29757e-06 0)
(0.000246244 2.37672e-06 0)
(0.000246318 2.45529e-06 0)
(0.000246392 2.53332e-06 0)
(0.000246468 2.61082e-06 0)
(0.000246542 2.68781e-06 0)
(0.000246619 2.76433e-06 0)
(0.000246695 2.8404e-06 0)
(0.000246772 2.91605e-06 0)
(0.000246849 2.99129e-06 0)
(0.000246927 3.06615e-06 0)
(0.000247006 3.14068e-06 0)
(0.000247084 3.21486e-06 0)
(0.000247164 3.28875e-06 0)
(0.000247244 3.36236e-06 0)
(0.000247325 3.43568e-06 0)
(0.000247407 3.50877e-06 0)
(0.000247489 3.58162e-06 0)
(0.000247572 3.65425e-06 0)
(0.000247656 3.72668e-06 0)
(0.000247739 3.79889e-06 0)
(0.000247824 3.87088e-06 0)
(0.000247911 3.9427e-06 0)
(0.000247997 4.01433e-06 0)
(0.000248084 4.08577e-06 0)
(0.000248173 4.15701e-06 0)
(0.000248262 4.22808e-06 0)
(0.000248351 4.29893e-06 0)
(0.000248443 4.3696e-06 0)
(0.000248534 4.44004e-06 0)
(0.000248627 4.51027e-06 0)
(0.00024872 4.58027e-06 0)
(0.000248814 4.65e-06 0)
(0.00024891 4.71949e-06 0)
(0.000249006 4.7887e-06 0)
(0.000249104 4.85766e-06 0)
(0.000249202 4.92634e-06 0)
(0.000249302 4.99473e-06 0)
(0.000249402 5.0628e-06 0)
(0.000249504 5.13053e-06 0)
(0.000249607 5.19792e-06 0)
(0.000249711 5.26492e-06 0)
(0.000249816 5.33151e-06 0)
(0.000249922 5.39769e-06 0)
(0.00025003 5.46347e-06 0)
(0.000250138 5.52879e-06 0)
(0.000250249 5.59368e-06 0)
(0.000250361 5.65811e-06 0)
(0.000250474 5.72208e-06 0)
(0.000250588 5.78555e-06 0)
(0.000250704 5.84848e-06 0)
(0.000250821 5.91086e-06 0)
(0.00025094 5.97265e-06 0)
(0.00025106 6.03384e-06 0)
(0.000251182 6.0944e-06 0)
(0.000251306 6.15434e-06 0)
(0.000251431 6.21365e-06 0)
(0.000251559 6.27233e-06 0)
(0.000251688 6.33036e-06 0)
(0.000251819 6.38772e-06 0)
(0.000251952 6.4444e-06 0)
(0.000252087 6.50036e-06 0)
(0.000252224 6.55558e-06 0)
(0.000252363 6.61004e-06 0)
(0.000252505 6.66373e-06 0)
(0.000252649 6.71663e-06 0)
(0.000252795 6.76874e-06 0)
(0.000252944 6.82007e-06 0)
(0.000253095 6.87061e-06 0)
(0.00025325 6.92037e-06 0)
(0.000253407 6.96933e-06 0)
(0.000253567 7.01749e-06 0)
(0.00025373 7.06484e-06 0)
(0.000253896 7.11137e-06 0)
(0.000254065 7.15707e-06 0)
(0.000254238 7.20193e-06 0)
(0.000254415 7.24596e-06 0)
(0.000254595 7.28916e-06 0)
(0.000254779 7.33153e-06 0)
(0.000254968 7.37308e-06 0)
(0.00025516 7.41384e-06 0)
(0.000255357 7.45381e-06 0)
(0.000255559 7.49304e-06 0)
(0.000255766 7.53157e-06 0)
(0.000255978 7.56944e-06 0)
(0.000256195 7.60671e-06 0)
(0.000256418 7.64345e-06 0)
(0.000256647 7.67974e-06 0)
(0.000256882 7.71567e-06 0)
(0.000257123 7.75132e-06 0)
(0.000257371 7.78679e-06 0)
(0.000257627 7.82216e-06 0)
(0.00025789 7.85751e-06 0)
(0.000258161 7.89292e-06 0)
(0.000258441 7.92841e-06 0)
(0.000258729 7.96402e-06 0)
(0.000259027 7.99971e-06 0)
(0.000259335 8.03542e-06 0)
(0.000259653 8.07105e-06 0)
(0.000259983 8.10649e-06 0)
(0.000260326 8.14158e-06 0)
(0.000260683 8.17616e-06 0)
(0.000261055 8.21006e-06 0)
(0.000261442 8.24309e-06 0)
(0.000261847 8.27505e-06 0)
(0.000262269 8.30576e-06 0)
(0.000262715 8.33518e-06 0)
(0.000263187 8.36339e-06 0)
(0.000263686 8.39048e-06 0)
(0.000264209 8.4164e-06 0)
(0.000264763 8.44101e-06 0)
(0.000265376 8.46415e-06 0)
(0.00026608 8.48556e-06 0)
(0.000266843 8.50331e-06 0)
(0.000267581 8.51118e-06 0)
(0.000268469 8.5085e-06 0)
(0.000269616 8.49589e-06 0)
(0.000271054 8.30688e-06 0)
(0.000274424 1.13989e-05 0)
(0.000751892 -5.16555e-06 0)
(0.0835597 -0.000436905 0)
(0.214709 -0.00110541 0)
(0.322834 -0.00103344 0)
(0.414081 -0.0010265 0)
(0.492705 -0.000979291 0)
(0.56152 -0.000919385 0)
(0.622362 -0.000849207 0)
(0.676568 -0.000771982 0)
(0.725156 -0.000690634 0)
(0.768919 -0.000607849 0)
(0.808482 -0.000526064 0)
(0.844343 -0.000447406 0)
(0.876899 -0.000373653 0)
(0.906462 -0.000306185 0)
(0.933271 -0.000245961 0)
(0.957503 -0.000193528 0)
(0.979278 -0.000149048 0)
(0.998671 -0.000112324 0)
(1.01572 -8.28356e-05 0)
(1.03046 -5.9794e-05 0)
(1.04294 -4.22714e-05 0)
(1.05323 -2.93494e-05 0)
(1.06151 -2.01774e-05 0)
(1.06801 -1.39329e-05 0)
(1.07301 -9.8139e-06 0)
(1.07679 -7.12015e-06 0)
(1.07961 -5.32975e-06 0)
(1.08168 -4.10263e-06 0)
(1.08318 -3.23306e-06 0)
(1.08422 -2.59815e-06 0)
(1.08492 -2.12264e-06 0)
(1.08534 -1.75874e-06 0)
(1.08553 -1.47506e-06 0)
(1.08554 -1.25039e-06 0)
(1.0854 -1.07001e-06 0)
(1.08512 -9.23449e-07 0)
(1.08473 -8.03127e-07 0)
(1.08425 -7.03425e-07 0)
(1.08368 -6.20121e-07 0)
(1.08303 -5.49991e-07 0)
(1.08232 -4.90542e-07 0)
(1.08155 -4.39822e-07 0)
(1.08071 -3.96285e-07 0)
(1.07983 -3.58698e-07 0)
(1.0789 -3.26067e-07 0)
(1.07793 -2.97583e-07 0)
(1.07692 -2.72584e-07 0)
(1.07588 -2.50524e-07 0)
(1.07479 -2.30949e-07 0)
(1.07368 -2.13478e-07 0)
(1.07254 -1.97793e-07 0)
(1.07137 -1.83621e-07 0)
(1.07018 -1.70733e-07 0)
(1.06897 -1.58936e-07 0)
(1.06772 -1.47958e-07 0)
(1.06642 -1.37593e-07 0)
(1.06508 -1.2776e-07 0)
(1.06368 -1.18389e-07 0)
(1.06224 -1.0942e-07 0)
(1.06076 -1.0081e-07 0)
(1.05922 -9.25319e-08 0)
(1.05763 -8.45716e-08 0)
(1.056 -7.69273e-08 0)
(1.05431 -6.96072e-08 0)
(1.05257 -6.26282e-08 0)
(1.05079 -5.60164e-08 0)
(1.04895 -4.98034e-08 0)
(1.04706 -4.4014e-08 0)
(1.04512 -3.86627e-08 0)
(1.04313 -3.3761e-08 0)
(1.04109 -2.93151e-08 0)
(1.039 -2.53164e-08 0)
(1.03686 -2.17435e-08 0)
(1.03468 -1.85728e-08 0)
(1.03244 -1.5782e-08 0)
(1.03015 -1.33435e-08 0)
(1.02782 -1.1223e-08 0)
(1.02545 -9.38944e-09 0)
(1.02302 -7.81543e-09 0)
(1.02056 -6.47158e-09 0)
(1.01805 -5.32939e-09 0)
(1.01551 -4.36365e-09 0)
(1.01292 -3.55174e-09 0)
(1.0103 -2.8718e-09 0)
(1.00765 -2.30562e-09 0)
(1.00496 -1.84496e-09 0)
(1.00225 -1.48512e-09 0)
(0.999518 -1.18763e-09 0)
(0.996764 -8.99771e-10 0)
(0.993994 -6.45838e-10 0)
(0.991214 -4.59141e-10 0)
(0.988429 -3.22744e-10 0)
(0.985646 -2.18407e-10 0)
(0.982871 -1.41454e-10 0)
(0.980112 -8.27828e-11 0)
(0.977378 -4.57127e-11 0)
(0.974678 -3.6414e-12 0)
(0.972023 1.94502e-11 0)
(0.969425 1.78187e-12 0)
(0.966898 7.81871e-13 0)
(0.964458 1.80853e-12 0)
(0.962119 2.06088e-12 0)
(0.959902 1.95128e-12 0)
(0.957827 1.84694e-12 0)
(0.955916 1.78163e-12 0)
(0.954193 1.74047e-12 0)
(0.952682 1.63714e-12 0)
(0.951408 1.16944e-12 0)
(0.950393 2.99184e-13 0)
(0.949656 1.16825e-11 0)
(0.949207 -2.97029e-11 0)
(0.949048 6.7479e-11 0)
(0.949162 -1.16388e-10 0)
(0.949521 1.86338e-10 0)
(0.95007 -2.67597e-10 0)
(0.950727 3.66217e-10 0)
(0.951337 -4.71489e-10 0)
(0.951567 5.86756e-10 0)
(0.951586 -7.03057e-10 0)
(0.951586 8.2513e-10 0)
(0.951586 -9.47304e-10 0)
(0.951586 1.07489e-09 0)
(0.951586 -1.20309e-09 0)
(0.951586 1.33671e-09 0)
(0.951586 -1.4714e-09 0)
(0.951586 1.6115e-09 0)
(0.951586 -1.75309e-09 0)
(0.951586 1.90012e-09 0)
(0.951586 -2.04896e-09 0)
(0.951586 2.20327e-09 0)
(0.951586 -2.35972e-09 0)
(0.951586 2.52161e-09 0)
(0.951586 -2.68597e-09 0)
(0.951586 2.85571e-09 0)
(0.951586 -3.02823e-09 0)
(0.951586 3.2061e-09 0)
(0.951586 -3.38701e-09 0)
(0.951586 3.57322e-09 0)
(0.951586 -3.76271e-09 0)
(0.951586 3.95746e-09 0)
(0.951586 -4.15574e-09 0)
(0.951586 4.35915e-09 0)
(0.951586 -4.56636e-09 0)
(0.951586 4.77861e-09 0)
(0.951586 -4.99486e-09 0)
(0.951586 5.21606e-09 0)
(0.951586 -5.44147e-09 0)
(0.951586 5.67172e-09 0)
(0.951586 -5.90636e-09 0)
(0.951586 6.14571e-09 0)
(0.951586 -6.38966e-09 0)
(0.951586 6.63818e-09 0)
(0.951586 -6.89138e-09 0)
(0.951586 7.14912e-09 0)
(0.951586 -7.41156e-09 0)
(0.951586 7.67849e-09 0)
(0.951586 -7.95011e-09 0)
(0.951586 8.22615e-09 0)
(0.951586 -8.50686e-09 0)
(0.951586 8.79189e-09 0)
(0.951586 -9.08153e-09 0)
(0.951586 9.37537e-09 0)
(0.951586 -9.67371e-09 0)
(0.951586 8.75857e-09 0)
(0.951586 -8.86268e-09 0)
(0.951586 8.96548e-09 0)
(0.951586 -9.06739e-09 0)
(0.951586 9.16796e-09 0)
(0.951586 -9.26764e-09 0)
(0.951586 9.36594e-09 0)
(0.951586 -9.46333e-09 0)
(0.951586 9.55931e-09 0)
(0.951586 -9.65437e-09 0)
(0.951586 9.74797e-09 0)
(0.951586 -9.84064e-09 0)
(0.951586 9.93181e-09 0)
(0.951586 -1.0022e-08 0)
(0.951586 1.01107e-08 0)
(0.951586 -1.01984e-08 0)
(0.951586 1.02845e-08 0)
(0.951586 -1.03696e-08 0)
(0.951586 1.04531e-08 0)
(0.951586 -1.05357e-08 0)
(0.951586 1.06161e-08 0)
(0.951586 -1.06963e-08 0)
(0.951586 1.07736e-08 0)
(0.951586 -1.08514e-08 0)
(0.951586 1.09255e-08 0)
(0.951586 -1.10007e-08 0)
(0.951586 1.10713e-08 0)
(0.951586 -1.11438e-08 0)
(0.951586 1.12109e-08 0)
(0.951586 -1.12807e-08 0)
(0.951586 1.1344e-08 0)
(0.951586 -1.14109e-08 0)
(0.951586 1.14702e-08 0)
(0.951586 -1.15341e-08 0)
(0.951586 1.15891e-08 0)
(0.951586 -1.165e-08 0)
(0.951586 1.17002e-08 0)
(0.951586 -1.1758e-08 0)
(0.951586 1.18029e-08 0)
(0.951586 -1.18576e-08 0)
(0.951586 1.18965e-08 0)
(0.951586 -1.19476e-08 0)
(0.951586 1.19799e-08 0)
(0.951586 -1.20277e-08 0)
(0.951586 1.20515e-08 0)
(0.951586 -1.20954e-08 0)
(0.951586 1.21097e-08 0)
(0.951586 -1.21479e-08 0)
(0.951586 1.21496e-08 0)
(0.951586 -1.21723e-08 0)
)
;

boundaryField
{
    inandouthalf11
    {
        type            cyclic;
    }
    inandouthalf12
    {
        type            cyclic;
    }
    inandouthalf21
    {
        type            cyclic;
    }
    inandouthalf22
    {
        type            cyclic;
    }
    inandouthalf31
    {
        type            cyclic;
    }
    inandouthalf32
    {
        type            cyclic;
    }
    inandouthalf41
    {
        type            cyclic;
    }
    inandouthalf42
    {
        type            cyclic;
    }
    top
    {
        type            symmetryPlane;
    }
    walls
    {
        type            fixedValue;
        value           uniform (0 0 0);
    }
    frontAndBackPlanes
    {
        type            empty;
    }
}


// ************************************************************************* //
