/*--------------------------------*- C++ -*----------------------------------*\
| =========                 |                                                 |
| \\      /  F ield         | OpenFOAM: The Open Source CFD Toolbox           |
|  \\    /   O peration     | Version:  2.4.x                                 |
|   \\  /    A nd           | Web:      www.OpenFOAM.org                      |
|    \\/     M anipulation  |                                                 |
\*---------------------------------------------------------------------------*/
FoamFile
{
    version     2.0;
    format      ascii;
    class       volScalarField;
    location    "5.15";
    object      alpha_0;
}
// * * * * * * * * * * * * * * * * * * * * * * * * * * * * * * * * * * * * * //

dimensions      [0 0 0 0 0 0 0];

internalField   nonuniform List<scalar> 
360
(
0.61055
0.611217
0.611352
0.611291
0.61124
0.611215
0.611193
0.611169
0.611145
0.61112
0.611095
0.611069
0.611042
0.611016
0.61099
0.610964
0.610937
0.61091
0.610883
0.610855
0.610828
0.6108
0.610771
0.610743
0.610714
0.610685
0.610655
0.610625
0.610595
0.610564
0.610534
0.610503
0.610473
0.610442
0.610412
0.610382
0.610353
0.610323
0.610292
0.610259
0.610223
0.610182
0.610135
0.610082
0.610026
0.609973
0.609931
0.609902
0.609882
0.609866
0.609852
0.609837
0.609821
0.609804
0.609787
0.609767
0.609747
0.609725
0.609702
0.609678
0.609653
0.609627
0.6096
0.609572
0.609544
0.609515
0.609485
0.609454
0.609422
0.609389
0.609354
0.609318
0.609281
0.609243
0.609204
0.609164
0.609123
0.609081
0.609039
0.608995
0.60895
0.608904
0.608857
0.608809
0.608759
0.608708
0.608656
0.608603
0.608549
0.608494
0.608437
0.60838
0.608321
0.60826
0.608198
0.608135
0.60807
0.608004
0.607936
0.607867
0.607796
0.607723
0.607648
0.607572
0.607494
0.607414
0.607331
0.607247
0.607161
0.607072
0.60698
0.606887
0.60679
0.606691
0.606589
0.606484
0.606376
0.606265
0.606151
0.606032
0.60591
0.605784
0.605655
0.60552
0.605382
0.605238
0.605089
0.604935
0.604775
0.604609
0.604435
0.604255
0.604067
0.603869
0.603658
0.603435
0.603202
0.602954
0.602679
0.602364
0.602023
0.601699
0.601312
0.60081
0.600192
0.599107
0.59563
0.525077
0.311442
0.229873
0.187152
0.153826
0.126
0.102515
0.0829135
0.0668183
0.0537908
0.0433531
0.0350382
0.0284273
0.0231666
0.0189687
0.0156053
0.0128976
0.0107069
0.00892514
0.00746864
0.00627211
0.0052845
0.00446567
0.00378391
0.00321401
0.00273586
0.00233328
0.00199324
0.00170513
0.00146035
0.00125181
0.0010737
0.000921161
0.000790076
0.000676925
0.000578713
0.000492996
0.000417953
0.00035238
0.000295555
0.000246973
0.000206087
0.000172146
0.000144242
0.000121418
0.0001027
8.70781e-05
7.36882e-05
6.2058e-05
5.2068e-05
4.36764e-05
3.6737e-05
3.10074e-05
2.62641e-05
2.23238e-05
1.90113e-05
1.61521e-05
1.37196e-05
1.17209e-05
9.99888e-06
8.48559e-06
7.23848e-06
6.1873e-06
5.25939e-06
4.47838e-06
3.81361e-06
3.23084e-06
2.74725e-06
2.32975e-06
1.9554e-06
1.65532e-06
1.3989e-06
1.16654e-06
9.77353e-07
8.1593e-07
6.77881e-07
5.62152e-07
4.59018e-07
3.7734e-07
3.07783e-07
2.46648e-07
1.99003e-07
1.58478e-07
1.25012e-07
9.69832e-08
7.31246e-08
5.47231e-08
4.54002e-08
3.55298e-08
3.30266e-08
3.19452e-08
1.21932e-09
5.428e-21
3.16682e-21
2.76567e-21
2.01344e-21
9.79961e-22
4.5861e-22
2.23192e-22
1.33327e-22
9.2342e-23
7.19054e-23
6.07879e-23
5.23617e-23
4.2891e-23
3.06315e-23
1.59485e-23
6.27955e-24
2.94784e-24
1.61845e-24
1.00088e-24
6.88193e-25
5.05399e-25
3.51482e-25
1.88401e-25
7.90671e-26
3.86643e-26
2.07759e-26
1.18535e-26
6.99947e-27
3.74078e-27
1.76594e-27
8.87881e-28
4.5025e-28
2.24578e-28
1.10107e-28
5.29332e-29
2.49325e-29
1.14973e-29
5.18648e-30
2.28676e-30
9.84572e-31
4.13555e-31
1.69291e-31
6.74633e-32
2.61413e-32
9.83699e-33
3.58991e-33
1.26868e-33
4.33491e-34
1.4296e-34
4.54193e-35
1.38727e-35
4.06433e-36
1.1393e-36
3.04719e-37
7.75211e-38
1.86929e-38
4.25544e-39
9.10439e-40
1.82103e-40
3.38437e-41
5.80209e-42
9.09585e-43
1.29005e-43
1.6332e-44
1.81381e-45
1.72627e-46
1.36203e-47
8.46743e-49
3.79812e-50
1.01454e-51
7.00158e-54
3.51105e-57
4.51802e-59
2.88547e-61
6.71186e-72
7.79882e-83
6.47357e-94
3.96829e-105
2.0324e-116
8.39883e-128
3.08392e-139
3.22525e-148
1.0274e-158
1.11196e-166
3.20328e-177
3.82524e-185
1.32193e-195
1.31584e-203
5.76091e-214
4.53017e-222
3.77549e-232
1.57657e-240
2.48873e-250
5.57779e-259
1.24329e-268
2.00495e-277
5.89243e-287
7.31561e-296
2.59534e-305
2.71377e-314
2.71968e-319
6.80328e-321
7.09478e-321
6.08689e-321
8.5424e-321
0
0
0
0
0
0
0
0
0
0
0
0
0
0
0
0
)
;

boundaryField
{
    inandouthalf11
    {
        type            cyclic;
    }
    inandouthalf12
    {
        type            cyclic;
    }
    inandouthalf21
    {
        type            cyclic;
    }
    inandouthalf22
    {
        type            cyclic;
    }
    inandouthalf31
    {
        type            cyclic;
    }
    inandouthalf32
    {
        type            cyclic;
    }
    inandouthalf41
    {
        type            cyclic;
    }
    inandouthalf42
    {
        type            cyclic;
    }
    top
    {
        type            symmetryPlane;
    }
    walls
    {
        type            zeroGradient;
    }
    frontAndBackPlanes
    {
        type            empty;
    }
}


// ************************************************************************* //
