/*--------------------------------*- C++ -*----------------------------------*\
| =========                 |                                                 |
| \\      /  F ield         | OpenFOAM: The Open Source CFD Toolbox           |
|  \\    /   O peration     | Version:  2.4.x                                 |
|   \\  /    A nd           | Web:      www.OpenFOAM.org                      |
|    \\/     M anipulation  |                                                 |
\*---------------------------------------------------------------------------*/
FoamFile
{
    version     2.0;
    format      ascii;
    class       surfaceScalarField;
    location    "5.15";
    object      ddt0(phib);
}
// * * * * * * * * * * * * * * * * * * * * * * * * * * * * * * * * * * * * * //

dimensions      [0 3 -2 0 0 0 0];

internalField   nonuniform List<scalar> 
359
(
-1.23623e-13
-4.30865e-13
-7.35257e-13
-1.00182e-12
-1.25498e-12
-1.5185e-12
-1.79901e-12
-2.09221e-12
-2.39218e-12
-2.69723e-12
-3.0086e-12
-3.32802e-12
-3.65636e-12
-3.99319e-12
-4.3378e-12
-4.69013e-12
-5.05103e-12
-5.42233e-12
-5.80693e-12
-6.20912e-12
-6.63347e-12
-7.08565e-12
-7.57061e-12
-8.09119e-12
-8.64622e-12
-9.22827e-12
-9.822e-12
-1.04034e-11
-1.09405e-11
-1.1398e-11
-1.1746e-11
-1.19729e-11
-1.20958e-11
-1.2172e-11
-1.2299e-11
-1.26149e-11
-1.32946e-11
-1.45547e-11
-1.66656e-11
-1.99441e-11
-2.46921e-11
-3.08825e-11
-3.74598e-11
-4.15604e-11
-3.928e-11
-2.9493e-11
-1.66717e-11
-6.91117e-12
-2.11257e-12
-4.96098e-13
-9.37453e-14
-1.02758e-14
6.38011e-15
9.974e-15
1.08693e-14
1.10551e-14
1.10528e-14
1.09362e-14
1.07203e-14
1.04101e-14
1.00418e-14
9.62615e-15
9.14125e-15
8.62921e-15
8.14178e-15
7.68422e-15
7.27359e-15
6.88543e-15
6.53842e-15
6.19704e-15
5.88004e-15
5.54953e-15
5.21594e-15
4.84258e-15
4.49797e-15
4.10985e-15
3.71199e-15
3.2878e-15
2.80389e-15
2.35348e-15
1.87013e-15
1.38713e-15
8.66044e-16
3.39152e-16
-1.75071e-16
-7.26897e-16
-1.29886e-15
-1.89029e-15
-2.48667e-15
-3.07449e-15
-3.69559e-15
-4.28825e-15
-4.89382e-15
-5.53974e-15
-6.15733e-15
-6.76564e-15
-7.42377e-15
-8.08573e-15
-8.69841e-15
-9.35231e-15
-1.00038e-14
-1.06407e-14
-1.12906e-14
-1.19576e-14
-1.26388e-14
-1.33147e-14
-1.39741e-14
-1.46335e-14
-1.52668e-14
-1.59243e-14
-1.659e-14
-1.72236e-14
-1.78518e-14
-1.85217e-14
-1.91556e-14
-1.97868e-14
-2.04106e-14
-2.10402e-14
-2.16595e-14
-2.22922e-14
-2.28864e-14
-2.34901e-14
-2.40825e-14
-2.46714e-14
-2.53197e-14
-2.59298e-14
-2.65251e-14
-2.71183e-14
-2.77055e-14
-2.82373e-14
-2.87823e-14
-2.92771e-14
-2.97378e-14
-3.01727e-14
-3.0568e-14
-3.09103e-14
-3.1255e-14
-3.16141e-14
-3.20158e-14
-3.22862e-14
-3.24641e-14
-3.28561e-14
-3.34928e-14
-3.46743e-14
-4.29701e-14
2.13801e-14
-7.87114e-11
2.0245e-10
-6.58984e-11
9.43516e-11
5.84772e-11
6.1606e-11
5.89791e-11
5.98415e-11
6.2798e-11
6.64964e-11
6.99025e-11
7.22593e-11
7.3305e-11
7.29708e-11
7.13864e-11
6.87594e-11
6.5326e-11
6.13014e-11
5.6892e-11
5.22718e-11
4.7586e-11
4.29469e-11
3.84396e-11
3.41236e-11
3.00374e-11
2.62025e-11
2.26278e-11
1.93127e-11
1.62506e-11
1.34317e-11
1.08432e-11
8.46745e-12
6.27457e-12
4.21519e-12
2.22254e-12
2.36321e-13
-1.75332e-12
-3.66502e-12
-5.32716e-12
-6.5409e-12
-7.17617e-12
-7.2364e-12
-6.84696e-12
-6.185e-12
-5.41412e-12
-4.66332e-12
-4.02048e-12
-3.50866e-12
-3.08316e-12
-2.68412e-12
-2.29105e-12
-1.92241e-12
-1.60053e-12
-1.32872e-12
-1.10017e-12
-9.1164e-13
-7.61308e-13
-6.32251e-13
-5.19519e-13
-4.3253e-13
-3.6348e-13
-3.00269e-13
-2.48162e-13
-2.08496e-13
-1.74176e-13
-1.45147e-13
-1.21646e-13
-1.01139e-13
-8.47525e-14
-7.14835e-14
-5.88211e-14
-4.87223e-14
-4.11726e-14
-3.4088e-14
-2.79915e-14
-2.3177e-14
-1.91986e-14
-1.58986e-14
-1.28674e-14
-1.04577e-14
-8.55331e-15
-6.81534e-15
-5.40279e-15
-4.31313e-15
-3.41799e-15
-2.67173e-15
-1.92047e-15
-1.27011e-15
-8.54593e-16
-8.65647e-16
1.01099e-15
-1.34e-16
6.40925e-16
1.16469e-16
1.22662e-16
1.32801e-16
1.24132e-16
1.17891e-16
1.11039e-16
1.11931e-16
1.18711e-16
1.14828e-16
1.02982e-16
1.03933e-16
1.13522e-16
1.06246e-16
1.11781e-16
1.16732e-16
1.07869e-16
1.12279e-16
1.04436e-16
1.05229e-16
1.02098e-16
1.03976e-16
1.08043e-16
1.09067e-16
1.05311e-16
1.08019e-16
1.10688e-16
1.05607e-16
1.10737e-16
1.12122e-16
1.20816e-16
1.19107e-16
1.17228e-16
1.19006e-16
1.23439e-16
1.29029e-16
1.32372e-16
1.32751e-16
1.42589e-16
1.35376e-16
1.20909e-16
1.26849e-16
1.40832e-16
1.39601e-16
1.28047e-16
1.23473e-16
1.30451e-16
1.16263e-16
1.13339e-16
1.19287e-16
1.16634e-16
1.05159e-16
1.0179e-16
1.11611e-16
1.08244e-16
1.10131e-16
1.17564e-16
1.55155e-16
1.2598e-16
1.26243e-16
1.2183e-16
1.23683e-16
1.25792e-16
1.22813e-16
1.14587e-16
1.13455e-16
1.06631e-16
1.06525e-16
1.07608e-16
9.82105e-17
1.06711e-16
8.48035e-17
7.97215e-17
6.08582e-17
3.82493e-17
2.01541e-17
-1.41832e-18
-2.46062e-17
-3.5053e-17
-4.53049e-17
-7.00511e-17
-7.00368e-17
-1.17022e-16
-1.40376e-16
-1.65532e-16
-1.6485e-16
-2.08005e-16
-2.16182e-16
-2.53586e-16
-3.11526e-16
-7.40153e-16
-1.09276e-15
-1.47757e-15
-1.61986e-15
-1.98196e-15
-1.99546e-15
-2.02866e-15
-1.76747e-15
-1.92976e-15
-1.75804e-15
-1.58999e-15
-1.10814e-15
-6.40703e-16
-2.17623e-16
2.81741e-16
2.90588e-16
1.93914e-15
2.17371e-15
2.39477e-15
4.15997e-16
4.81051e-17
-3.75595e-15
-7.70417e-15
-1.16619e-14
-2.26651e-14
-3.49016e-14
-4.78999e-14
-5.11121e-14
-8.89812e-14
-6.51614e-14
-6.31949e-15
)
;

boundaryField
{
    inandouthalf11
    {
        type            cyclic;
        value           nonuniform List<scalar> 
100
(
-3.55778e-13
-3.62358e-13
-3.75472e-13
-3.87888e-13
-3.99153e-13
-4.10484e-13
-4.22521e-13
-4.35255e-13
-4.48468e-13
-4.62018e-13
-4.75905e-13
-4.902e-13
-5.04964e-13
-5.20209e-13
-5.3592e-13
-5.52086e-13
-5.68728e-13
-5.85903e-13
-6.03713e-13
-6.22304e-13
-6.41864e-13
-6.62613e-13
-6.84787e-13
-7.08574e-13
-7.34045e-13
-7.61064e-13
-7.89199e-13
-8.17659e-13
-8.4527e-13
-8.70568e-13
-8.92079e-13
-9.08778e-13
-9.20639e-13
-9.29161e-13
-9.37672e-13
-9.51385e-13
-9.77322e-13
-1.02438e-12
-1.10372e-12
-1.22924e-12
-1.41658e-12
-1.67611e-12
-1.9904e-12
-2.27156e-12
-2.33844e-12
-2.02762e-12
-1.42428e-12
-8.51396e-13
-5.23478e-13
-4.0096e-13
-3.68378e-13
-3.61407e-13
-3.60035e-13
-3.59782e-13
-3.59762e-13
-3.59805e-13
-3.59865e-13
-3.5994e-13
-3.60021e-13
-3.6011e-13
-3.60211e-13
-3.60316e-13
-3.6043e-13
-3.60546e-13
-3.60666e-13
-3.60787e-13
-3.60909e-13
-3.61033e-13
-3.61158e-13
-3.61285e-13
-3.61418e-13
-3.61555e-13
-3.61693e-13
-3.61838e-13
-3.61987e-13
-3.62141e-13
-3.62298e-13
-3.62459e-13
-3.62625e-13
-3.62796e-13
-3.62972e-13
-3.63153e-13
-3.6334e-13
-3.63532e-13
-3.63729e-13
-3.63932e-13
-3.6414e-13
-3.64353e-13
-3.64571e-13
-3.64794e-13
-3.65022e-13
-3.65255e-13
-3.65493e-13
-3.65737e-13
-3.65986e-13
-3.66241e-13
-3.66501e-13
-3.66767e-13
-3.6704e-13
-3.67318e-13
)
;
    }
    inandouthalf12
    {
        type            cyclic;
        value           nonuniform List<scalar> 
100
(
3.55778e-13
3.62358e-13
3.75472e-13
3.87888e-13
3.99153e-13
4.10484e-13
4.22521e-13
4.35255e-13
4.48468e-13
4.62018e-13
4.75905e-13
4.902e-13
5.04964e-13
5.20209e-13
5.3592e-13
5.52086e-13
5.68728e-13
5.85903e-13
6.03713e-13
6.22304e-13
6.41864e-13
6.62613e-13
6.84787e-13
7.08574e-13
7.34045e-13
7.61064e-13
7.89199e-13
8.17659e-13
8.4527e-13
8.70568e-13
8.92079e-13
9.08778e-13
9.20639e-13
9.29161e-13
9.37672e-13
9.51385e-13
9.77322e-13
1.02438e-12
1.10372e-12
1.22924e-12
1.41658e-12
1.67611e-12
1.9904e-12
2.27156e-12
2.33844e-12
2.02762e-12
1.42428e-12
8.51396e-13
5.23478e-13
4.0096e-13
3.68378e-13
3.61407e-13
3.60035e-13
3.59782e-13
3.59762e-13
3.59805e-13
3.59865e-13
3.5994e-13
3.60021e-13
3.6011e-13
3.60211e-13
3.60316e-13
3.6043e-13
3.60546e-13
3.60666e-13
3.60787e-13
3.60909e-13
3.61033e-13
3.61158e-13
3.61285e-13
3.61418e-13
3.61555e-13
3.61693e-13
3.61838e-13
3.61987e-13
3.62141e-13
3.62298e-13
3.62459e-13
3.62625e-13
3.62796e-13
3.62972e-13
3.63153e-13
3.6334e-13
3.63532e-13
3.63729e-13
3.63932e-13
3.6414e-13
3.64353e-13
3.64571e-13
3.64794e-13
3.65022e-13
3.65255e-13
3.65493e-13
3.65737e-13
3.65986e-13
3.66241e-13
3.66501e-13
3.66767e-13
3.6704e-13
3.67318e-13
)
;
    }
    inandouthalf21
    {
        type            cyclic;
        value           nonuniform List<scalar> 
100
(
-3.67602e-13
-3.67893e-13
-3.6819e-13
-3.68494e-13
-3.68805e-13
-3.69123e-13
-3.69449e-13
-3.69782e-13
-3.70123e-13
-3.70472e-13
-3.7083e-13
-3.71197e-13
-3.71573e-13
-3.71958e-13
-3.72354e-13
-3.7276e-13
-3.73178e-13
-3.73607e-13
-3.74048e-13
-3.74502e-13
-3.7497e-13
-3.75453e-13
-3.75951e-13
-3.76465e-13
-3.76996e-13
-3.77545e-13
-3.78113e-13
-3.78701e-13
-3.7931e-13
-3.79942e-13
-3.80595e-13
-3.81271e-13
-3.81972e-13
-3.82705e-13
-3.83477e-13
-3.84287e-13
-3.85133e-13
-3.86027e-13
-3.87014e-13
-3.88137e-13
-3.89341e-13
-3.90485e-13
-3.91839e-13
-3.9358e-13
-3.95788e-13
-4.39064e-13
-4.10527e-11
-2.41418e-08
-5.7611e-08
-5.48664e-08
-5.844e-08
-6.40629e-08
-7.04414e-08
-7.69865e-08
-8.33936e-08
-8.95041e-08
-9.52453e-08
-1.00596e-07
-1.05564e-07
-1.10173e-07
-1.14449e-07
-1.18423e-07
-1.22123e-07
-1.25572e-07
-1.28793e-07
-1.31804e-07
-1.3462e-07
-1.37252e-07
-1.39712e-07
-1.42005e-07
-1.44138e-07
-1.46114e-07
-1.47934e-07
-1.49599e-07
-1.51107e-07
-1.52454e-07
-1.53637e-07
-1.54649e-07
-1.55483e-07
-1.5613e-07
-1.5658e-07
-1.56821e-07
-1.56839e-07
-1.5662e-07
-1.56147e-07
-1.55402e-07
-1.54367e-07
-1.53025e-07
-1.51357e-07
-1.49348e-07
-1.46984e-07
-1.44255e-07
-1.41152e-07
-1.37673e-07
-1.33822e-07
-1.2961e-07
-1.25057e-07
-1.20197e-07
-1.15071e-07
-1.09735e-07
)
;
    }
    inandouthalf22
    {
        type            cyclic;
        value           nonuniform List<scalar> 
100
(
3.67602e-13
3.67893e-13
3.6819e-13
3.68494e-13
3.68805e-13
3.69123e-13
3.69449e-13
3.69782e-13
3.70123e-13
3.70472e-13
3.7083e-13
3.71197e-13
3.71573e-13
3.71958e-13
3.72354e-13
3.7276e-13
3.73178e-13
3.73607e-13
3.74048e-13
3.74502e-13
3.7497e-13
3.75453e-13
3.75951e-13
3.76465e-13
3.76996e-13
3.77545e-13
3.78113e-13
3.78701e-13
3.7931e-13
3.79942e-13
3.80595e-13
3.81271e-13
3.81972e-13
3.82705e-13
3.83477e-13
3.84287e-13
3.85133e-13
3.86027e-13
3.87014e-13
3.88137e-13
3.89341e-13
3.90485e-13
3.91839e-13
3.9358e-13
3.95788e-13
4.39064e-13
4.10527e-11
2.41418e-08
5.7611e-08
5.48664e-08
5.844e-08
6.40629e-08
7.04414e-08
7.69865e-08
8.33936e-08
8.95041e-08
9.52453e-08
1.00596e-07
1.05564e-07
1.10173e-07
1.14449e-07
1.18423e-07
1.22123e-07
1.25572e-07
1.28793e-07
1.31804e-07
1.3462e-07
1.37252e-07
1.39712e-07
1.42005e-07
1.44138e-07
1.46114e-07
1.47934e-07
1.49599e-07
1.51107e-07
1.52454e-07
1.53637e-07
1.54649e-07
1.55483e-07
1.5613e-07
1.5658e-07
1.56821e-07
1.56839e-07
1.5662e-07
1.56147e-07
1.55402e-07
1.54367e-07
1.53025e-07
1.51357e-07
1.49348e-07
1.46984e-07
1.44255e-07
1.41152e-07
1.37673e-07
1.33822e-07
1.2961e-07
1.25057e-07
1.20197e-07
1.15071e-07
1.09735e-07
)
;
    }
    inandouthalf31
    {
        type            cyclic;
        value           nonuniform List<scalar> 
110
(
-1.04253e-07
-1.00638e-07
-9.67119e-08
-9.25433e-08
-8.82108e-08
-8.37958e-08
-7.93764e-08
-7.50215e-08
-7.07859e-08
-6.67086e-08
-6.28119e-08
-5.91035e-08
-5.5579e-08
-5.22256e-08
-4.90246e-08
-4.59551e-08
-4.29953e-08
-4.01247e-08
-3.73245e-08
-3.45786e-08
-3.18731e-08
-2.91968e-08
-2.65404e-08
-2.38965e-08
-2.12593e-08
-1.86242e-08
-1.59877e-08
-1.33471e-08
-1.07005e-08
-8.04694e-09
-5.38633e-09
-2.71968e-09
-4.93548e-11
2.62056e-09
5.2838e-09
7.93128e-09
1.05503e-08
1.31236e-08
1.56276e-08
1.80304e-08
2.02891e-08
2.23449e-08
2.41161e-08
2.54849e-08
2.62754e-08
2.62144e-08
2.4883e-08
2.14992e-08
9.7078e-09
-8.32887e-09
-1.14671e-08
-1.17737e-08
-1.20139e-08
-1.22578e-08
-1.25067e-08
-1.27605e-08
-1.30196e-08
-1.32839e-08
-1.35535e-08
-1.38286e-08
-1.41093e-08
-1.43957e-08
-1.46879e-08
-1.4986e-08
-1.52902e-08
-1.56006e-08
-1.59172e-08
-1.62403e-08
-1.65699e-08
-1.69063e-08
-1.72494e-08
-1.75995e-08
-1.79567e-08
-1.83212e-08
-1.86931e-08
-1.90725e-08
-1.94596e-08
-1.98546e-08
-2.02576e-08
-2.06688e-08
-2.10883e-08
-2.15163e-08
-2.19531e-08
-2.23987e-08
-2.28533e-08
-2.33172e-08
-2.37904e-08
-2.42733e-08
-2.4766e-08
-2.52687e-08
-2.57816e-08
-2.63049e-08
-2.68388e-08
-2.73835e-08
-2.79394e-08
-2.85065e-08
-2.90851e-08
-2.96754e-08
-3.02777e-08
-3.08923e-08
-3.15193e-08
-3.21591e-08
-3.28118e-08
-3.34778e-08
-3.41573e-08
-3.48507e-08
-3.5558e-08
-3.62798e-08
-3.70161e-08
-3.77675e-08
)
;
    }
    inandouthalf32
    {
        type            cyclic;
        value           nonuniform List<scalar> 
110
(
1.04253e-07
1.00638e-07
9.67119e-08
9.25433e-08
8.82108e-08
8.37958e-08
7.93764e-08
7.50215e-08
7.07859e-08
6.67086e-08
6.28119e-08
5.91035e-08
5.5579e-08
5.22256e-08
4.90246e-08
4.59551e-08
4.29953e-08
4.01247e-08
3.73245e-08
3.45786e-08
3.18731e-08
2.91968e-08
2.65404e-08
2.38965e-08
2.12593e-08
1.86242e-08
1.59877e-08
1.33471e-08
1.07005e-08
8.04694e-09
5.38633e-09
2.71968e-09
4.93548e-11
-2.62056e-09
-5.2838e-09
-7.93128e-09
-1.05503e-08
-1.31236e-08
-1.56276e-08
-1.80304e-08
-2.02891e-08
-2.23449e-08
-2.41161e-08
-2.54849e-08
-2.62754e-08
-2.62144e-08
-2.4883e-08
-2.14992e-08
-9.7078e-09
8.32887e-09
1.14671e-08
1.17737e-08
1.20139e-08
1.22578e-08
1.25067e-08
1.27605e-08
1.30196e-08
1.32839e-08
1.35535e-08
1.38286e-08
1.41093e-08
1.43957e-08
1.46879e-08
1.4986e-08
1.52902e-08
1.56006e-08
1.59172e-08
1.62403e-08
1.65699e-08
1.69063e-08
1.72494e-08
1.75995e-08
1.79567e-08
1.83212e-08
1.86931e-08
1.90725e-08
1.94596e-08
1.98546e-08
2.02576e-08
2.06688e-08
2.10883e-08
2.15163e-08
2.19531e-08
2.23987e-08
2.28533e-08
2.33172e-08
2.37904e-08
2.42733e-08
2.4766e-08
2.52687e-08
2.57816e-08
2.63049e-08
2.68388e-08
2.73835e-08
2.79394e-08
2.85065e-08
2.90851e-08
2.96754e-08
3.02777e-08
3.08923e-08
3.15193e-08
3.21591e-08
3.28118e-08
3.34778e-08
3.41573e-08
3.48507e-08
3.5558e-08
3.62798e-08
3.70161e-08
3.77675e-08
)
;
    }
    inandouthalf41
    {
        type            cyclic;
        value           nonuniform List<scalar> 
50
(
-3.38057e-08
-3.38057e-08
-3.38057e-08
-3.38057e-08
-3.38057e-08
-3.38057e-08
-3.38057e-08
-3.38057e-08
-3.38057e-08
-3.38057e-08
-3.38057e-08
-3.38057e-08
-3.38057e-08
-3.38057e-08
-3.38057e-08
-3.38057e-08
-3.38057e-08
-3.38057e-08
-3.38057e-08
-3.38057e-08
-3.38057e-08
-3.38057e-08
-3.38057e-08
-3.38057e-08
-3.38057e-08
-3.38057e-08
-3.38057e-08
-3.38057e-08
-3.38057e-08
-3.38057e-08
-3.38057e-08
-3.38057e-08
-3.38057e-08
-3.38057e-08
-3.38057e-08
-3.38057e-08
-3.38057e-08
-3.38057e-08
-3.38057e-08
-3.38057e-08
-3.38057e-08
-3.38057e-08
-3.38057e-08
-3.38057e-08
-3.38057e-08
-3.38057e-08
-3.38057e-08
-3.38057e-08
-3.38057e-08
-3.38057e-08
)
;
    }
    inandouthalf42
    {
        type            cyclic;
        value           nonuniform List<scalar> 
50
(
3.38057e-08
3.38057e-08
3.38057e-08
3.38057e-08
3.38057e-08
3.38057e-08
3.38057e-08
3.38057e-08
3.38057e-08
3.38057e-08
3.38057e-08
3.38057e-08
3.38057e-08
3.38057e-08
3.38057e-08
3.38057e-08
3.38057e-08
3.38057e-08
3.38057e-08
3.38057e-08
3.38057e-08
3.38057e-08
3.38057e-08
3.38057e-08
3.38057e-08
3.38057e-08
3.38057e-08
3.38057e-08
3.38057e-08
3.38057e-08
3.38057e-08
3.38057e-08
3.38057e-08
3.38057e-08
3.38057e-08
3.38057e-08
3.38057e-08
3.38057e-08
3.38057e-08
3.38057e-08
3.38057e-08
3.38057e-08
3.38057e-08
3.38057e-08
3.38057e-08
3.38057e-08
3.38057e-08
3.38057e-08
3.38057e-08
3.38057e-08
)
;
    }
    top
    {
        type            symmetryPlane;
        value           uniform 0;
    }
    walls
    {
        type            calculated;
        value           uniform 0;
    }
    frontAndBackPlanes
    {
        type            empty;
        value           nonuniform 0();
    }
}


// ************************************************************************* //
