/*--------------------------------*- C++ -*----------------------------------*\
| =========                 |                                                 |
| \\      /  F ield         | OpenFOAM: The Open Source CFD Toolbox           |
|  \\    /   O peration     | Version:  2.4.x                                 |
|   \\  /    A nd           | Web:      www.OpenFOAM.org                      |
|    \\/     M anipulation  |                                                 |
\*---------------------------------------------------------------------------*/
FoamFile
{
    version     2.0;
    format      ascii;
    class       volScalarField;
    location    "5.15";
    object      ddt0(alpha);
}
// * * * * * * * * * * * * * * * * * * * * * * * * * * * * * * * * * * * * * //

dimensions      [0 0 -1 0 0 0 0];

internalField   nonuniform List<scalar> 
360
(
0.000151868
0.000257758
0.000238022
0.000220612
0.000222011
0.000228063
0.000232007
0.000233788
0.000234574
0.000235589
0.000237151
0.000238989
0.000240907
0.00024265
0.000244254
0.000245827
0.000247421
0.000249034
0.000250665
0.000252446
0.000254233
0.000256331
0.000258727
0.000261486
0.000264615
0.000268026
0.000271522
0.000274932
0.000277672
0.00027922
0.000279059
0.000277048
0.000272879
0.000267657
0.000261998
0.00025802
0.000257799
0.000264289
0.000280887
0.000311205
0.00036035
0.000430195
0.000513969
0.000585418
0.000593458
0.000498673
0.000326392
0.000159661
5.77176e-05
1.56766e-05
3.27128e-06
4.03984e-07
-1.99019e-07
-3.42256e-07
-4.01293e-07
-4.36696e-07
-4.63931e-07
-4.95685e-07
-5.12479e-07
-5.43056e-07
-5.66036e-07
-5.81416e-07
-5.98968e-07
-6.09235e-07
-6.22889e-07
-6.40526e-07
-6.63965e-07
-6.86444e-07
-7.08041e-07
-7.40056e-07
-7.76585e-07
-7.95984e-07
-8.20266e-07
-8.47877e-07
-8.69484e-07
-8.87482e-07
-9.02114e-07
-9.23645e-07
-9.46345e-07
-9.68003e-07
-9.92575e-07
-1.02099e-06
-1.0481e-06
-1.07498e-06
-1.10113e-06
-1.12653e-06
-1.15077e-06
-1.1739e-06
-1.19851e-06
-1.22422e-06
-1.2508e-06
-1.27939e-06
-1.30968e-06
-1.3407e-06
-1.37254e-06
-1.40504e-06
-1.43806e-06
-1.47174e-06
-1.50639e-06
-1.54217e-06
-1.57919e-06
-1.61768e-06
-1.65767e-06
-1.69913e-06
-1.74218e-06
-1.7869e-06
-1.8334e-06
-1.88182e-06
-1.9323e-06
-1.98497e-06
-2.03993e-06
-2.0973e-06
-2.15721e-06
-2.21977e-06
-2.28511e-06
-2.35337e-06
-2.4247e-06
-2.49928e-06
-2.5773e-06
-2.65897e-06
-2.74447e-06
-2.83397e-06
-2.92767e-06
-3.0259e-06
-3.12941e-06
-3.2396e-06
-3.35846e-06
-3.48784e-06
-3.62801e-06
-3.7767e-06
-3.93196e-06
-4.10071e-06
-4.30377e-06
-4.55586e-06
-4.83177e-06
-5.09189e-06
-5.37508e-06
-5.8346e-06
-6.58598e-06
-7.33185e-06
-7.4412e-06
-7.95446e-06
-9.93925e-06
-1.25318e-05
-1.9063e-05
-7.27501e-05
0.000443635
0.123813
0.0366649
-0.00445151
-0.0150237
-0.0196196
-0.0214772
-0.0213985
-0.0199337
-0.0176334
-0.0149878
-0.0123514
-0.00993498
-0.0078336
-0.00606833
-0.00461946
-0.00344896
-0.00251442
-0.00177468
-0.00119347
-0.00073994
-0.000388595
-0.000118678
8.65725e-05
0.000240583
0.000354098
0.000435689
0.000492191
0.000529058
0.000550624
0.000560342
0.000561045
0.000555286
0.000545692
0.000535056
0.000525844
0.000519088
0.000513259
0.000504163
0.000486558
0.000456866
0.000415264
0.000365666
0.000313606
0.000263817
0.000219565
0.000183251
0.000155779
0.000135111
0.000117437
0.00010036
8.4005e-05
6.95452e-05
5.7511e-05
4.74426e-05
3.8988e-05
3.24196e-05
2.71709e-05
2.22526e-05
1.82402e-05
1.54786e-05
1.29131e-05
1.05018e-05
8.82291e-06
7.44466e-06
6.15181e-06
5.18098e-06
4.32948e-06
3.57206e-06
3.06172e-06
2.55186e-06
2.05597e-06
1.75974e-06
1.48367e-06
1.20419e-06
1.00329e-06
8.29524e-07
6.96205e-07
5.74171e-07
4.57638e-07
3.84262e-07
3.11903e-07
2.45664e-07
2.0017e-07
1.61272e-07
1.31585e-07
1.03812e-07
6.73207e-08
4.45956e-08
2.97436e-08
6.24888e-08
5.30369e-08
1.30713e-08
-2.70032e-20
-2.04974e-20
-2.01889e-20
-3.04708e-20
-2.6931e-20
-1.24323e-20
-4.43229e-21
-1.92763e-21
-9.35316e-22
-4.78974e-22
-2.89744e-22
-2.59025e-22
-3.08022e-22
-3.74455e-22
-3.75877e-22
-1.4209e-22
-5.32612e-23
-2.35967e-23
-1.16812e-23
-6.12584e-24
-4.07285e-24
-3.7538e-24
-3.522e-24
-1.42717e-24
-5.96757e-25
-2.89588e-25
-1.48023e-25
-8.53496e-26
-5.66258e-26
-2.65106e-26
-1.28467e-26
-6.45978e-27
-3.25138e-27
-1.60187e-27
-7.73918e-28
-3.66349e-28
-1.69783e-28
-7.69732e-29
-3.41084e-29
-1.47593e-29
-6.23062e-30
-2.56339e-30
-1.02668e-30
-3.9984e-31
-1.51223e-31
-5.54673e-32
-1.9702e-32
-6.76624e-33
-2.24284e-33
-7.16217e-34
-2.19884e-34
-6.47532e-35
-1.82456e-35
-4.90544e-36
-1.2545e-36
-3.04098e-37
-6.95963e-38
-1.49698e-38
-3.01045e-39
-5.62563e-40
-9.69817e-41
-1.52898e-41
-2.18107e-42
-2.7776e-43
-3.10363e-44
-2.97264e-45
-2.36116e-46
-1.47849e-47
-6.68564e-49
-1.80382e-50
-1.27273e-52
-6.81018e-56
-8.84896e-58
-5.70614e-60
-1.29693e-70
-1.47359e-81
-1.19989e-92
-7.21688e-104
-3.63681e-115
-1.4808e-126
-5.39799e-138
-6.37694e-147
-2.00569e-157
-2.19888e-165
-6.26919e-176
-7.56437e-184
-2.59497e-194
-2.60206e-202
-1.13391e-212
-8.95833e-221
-7.44852e-231
-3.11753e-239
-4.91325e-249
-1.10291e-257
-2.4562e-267
-3.9642e-276
-1.16421e-285
-1.44641e-294
-5.1291e-304
-5.36296e-313
4.50538e-320
0
0
0
0
0
0
0
0
0
0
0
0
0
0
0
0
0
0
0
0
)
;

boundaryField
{
    inandouthalf11
    {
        type            cyclic;
    }
    inandouthalf12
    {
        type            cyclic;
    }
    inandouthalf21
    {
        type            cyclic;
    }
    inandouthalf22
    {
        type            cyclic;
    }
    inandouthalf31
    {
        type            cyclic;
    }
    inandouthalf32
    {
        type            cyclic;
    }
    inandouthalf41
    {
        type            cyclic;
    }
    inandouthalf42
    {
        type            cyclic;
    }
    top
    {
        type            symmetryPlane;
    }
    walls
    {
        type            calculated;
        value           uniform 0.000151868;
    }
    frontAndBackPlanes
    {
        type            empty;
    }
}


// ************************************************************************* //
