/*--------------------------------*- C++ -*----------------------------------*\
| =========                 |                                                 |
| \\      /  F ield         | OpenFOAM: The Open Source CFD Toolbox           |
|  \\    /   O peration     | Version:  2.4.x                                 |
|   \\  /    A nd           | Web:      www.OpenFOAM.org                      |
|    \\/     M anipulation  |                                                 |
\*---------------------------------------------------------------------------*/
FoamFile
{
    version     2.0;
    format      ascii;
    class       volVectorField;
    location    "5.15";
    object      ddt0(Ua);
}
// * * * * * * * * * * * * * * * * * * * * * * * * * * * * * * * * * * * * * //

dimensions      [0 1 -2 0 0 0 0];

internalField   nonuniform List<vector> 
360
(
(-9.75801e-35 -7.55754e-33 0)
(8.83143e-09 4.00704e-08 0)
(2.22231e-08 9.55515e-08 0)
(3.43184e-08 1.40299e-07 0)
(4.54348e-08 1.80117e-07 0)
(5.67331e-08 2.20739e-07 0)
(6.87308e-08 2.64293e-07 0)
(8.14045e-08 3.10415e-07 0)
(9.45489e-08 3.5799e-07 0)
(1.08028e-07 4.06348e-07 0)
(1.21845e-07 4.5555e-07 0)
(1.36072e-07 5.05937e-07 0)
(1.50767e-07 5.57747e-07 0)
(1.65943e-07 6.1099e-07 0)
(1.81582e-07 6.65535e-07 0)
(1.97675e-07 7.21295e-07 0)
(2.14242e-07 7.7833e-07 0)
(2.31342e-07 8.36851e-07 0)
(2.49076e-07 8.97235e-07 0)
(2.67591e-07 9.60057e-07 0)
(2.87073e-07 1.02603e-06 0)
(3.07746e-07 1.096e-06 0)
(3.29844e-07 1.17088e-06 0)
(3.53556e-07 1.25136e-06 0)
(3.78952e-07 1.33767e-06 0)
(4.05895e-07 1.4292e-06 0)
(4.33954e-07 1.52419e-06 0)
(4.62335e-07 1.61954e-06 0)
(4.89861e-07 1.71065e-06 0)
(5.15065e-07 1.79186e-06 0)
(5.36471e-07 1.85754e-06 0)
(5.53053e-07 1.90384e-06 0)
(5.64786e-07 1.93071e-06 0)
(5.73175e-07 1.94384e-06 0)
(5.81557e-07 1.95563e-06 0)
(5.95157e-07 1.98507e-06 0)
(6.21008e-07 2.05722e-06 0)
(6.68009e-07 2.20314e-06 0)
(7.47327e-07 2.46132e-06 0)
(8.7284e-07 2.87948e-06 0)
(1.06019e-06 3.51273e-06 0)
(1.31981e-06 4.40238e-06 0)
(1.63436e-06 5.50021e-06 0)
(1.91615e-06 6.51722e-06 0)
(1.9839e-06 6.8168e-06 0)
(1.6734e-06 5.78138e-06 0)
(1.06902e-06 3.67921e-06 0)
(4.94199e-07 1.6766e-06 0)
(1.64748e-07 5.46356e-07 0)
(4.15183e-08 1.33397e-07 0)
(8.70136e-09 2.631e-08 0)
(1.6403e-09 3.87732e-09 0)
(2.1073e-10 -5.50855e-10 0)
(-9.92804e-11 -1.48921e-09 0)
(-1.75545e-10 -1.71549e-09 0)
(-1.95453e-10 -1.77364e-09 0)
(-1.98397e-10 -1.78213e-09 0)
(-1.94091e-10 -1.76978e-09 0)
(-1.84813e-10 -1.74338e-09 0)
(-1.70763e-10 -1.70376e-09 0)
(-1.51779e-10 -1.65078e-09 0)
(-1.28107e-10 -1.58555e-09 0)
(-1.00717e-10 -1.51117e-09 0)
(-7.11717e-11 -1.43226e-09 0)
(-4.11983e-11 -1.35363e-09 0)
(-1.22062e-11 -1.279e-09 0)
(1.49958e-11 -1.21028e-09 0)
(4.02133e-11 -1.14772e-09 0)
(6.37044e-11 -1.09036e-09 0)
(8.59825e-11 -1.03671e-09 0)
(1.0766e-10 -9.85054e-10 0)
(1.29329e-10 -9.33821e-10 0)
(1.51496e-10 -8.81747e-10 0)
(1.74568e-10 -8.27844e-10 0)
(1.98856e-10 -7.7139e-10 0)
(2.24563e-10 -7.11951e-10 0)
(2.51793e-10 -6.49357e-10 0)
(2.80569e-10 -5.83639e-10 0)
(3.10873e-10 -5.14911e-10 0)
(3.4267e-10 -4.43328e-10 0)
(3.75922e-10 -3.69045e-10 0)
(4.10613e-10 -2.92168e-10 0)
(4.46749e-10 -2.12737e-10 0)
(4.84348e-10 -1.30767e-10 0)
(5.23428e-10 -4.62797e-11 0)
(5.63989e-10 4.06685e-11 0)
(6.06005e-10 1.29961e-10 0)
(6.49416e-10 2.2141e-10 0)
(6.94136e-10 3.14767e-10 0)
(7.40062e-10 4.09766e-10 0)
(7.87091e-10 5.06145e-10 0)
(8.35134e-10 6.03677e-10 0)
(8.84121e-10 7.02187e-10 0)
(9.34006e-10 8.01554e-10 0)
(9.84763e-10 9.01696e-10 0)
(1.03638e-09 1.00256e-09 0)
(1.08884e-09 1.10409e-09 0)
(1.14214e-09 1.20625e-09 0)
(1.19627e-09 1.30898e-09 0)
(1.25121e-09 1.41221e-09 0)
(1.30694e-09 1.51586e-09 0)
(1.36344e-09 1.61986e-09 0)
(1.42068e-09 1.72413e-09 0)
(1.47864e-09 1.82859e-09 0)
(1.5373e-09 1.93315e-09 0)
(1.59661e-09 2.03773e-09 0)
(1.65657e-09 2.14222e-09 0)
(1.71713e-09 2.24655e-09 0)
(1.77827e-09 2.35062e-09 0)
(1.83996e-09 2.45434e-09 0)
(1.90219e-09 2.55762e-09 0)
(1.96493e-09 2.66041e-09 0)
(2.02818e-09 2.76263e-09 0)
(2.09196e-09 2.86426e-09 0)
(2.15628e-09 2.96525e-09 0)
(2.22118e-09 3.06563e-09 0)
(2.28675e-09 3.16541e-09 0)
(2.35306e-09 3.26465e-09 0)
(2.42024e-09 3.36343e-09 0)
(2.48843e-09 3.46187e-09 0)
(2.55781e-09 3.56005e-09 0)
(2.62854e-09 3.65809e-09 0)
(2.70079e-09 3.75604e-09 0)
(2.77469e-09 3.85388e-09 0)
(2.85031e-09 3.95148e-09 0)
(2.92762e-09 4.04859e-09 0)
(3.00647e-09 4.14477e-09 0)
(3.08657e-09 4.23944e-09 0)
(3.16744e-09 4.33184e-09 0)
(3.24841e-09 4.42102e-09 0)
(3.32861e-09 4.50591e-09 0)
(3.40709e-09 4.58543e-09 0)
(3.483e-09 4.65874e-09 0)
(3.55583e-09 4.72546e-09 0)
(3.62551e-09 4.78575e-09 0)
(3.69225e-09 4.83998e-09 0)
(3.75643e-09 4.88854e-09 0)
(3.81867e-09 4.93192e-09 0)
(3.87975e-09 4.97079e-09 0)
(3.93949e-09 5.00551e-09 0)
(3.99459e-09 5.0346e-09 0)
(4.03838e-09 5.05456e-09 0)
(4.06663e-09 5.06485e-09 0)
(4.08121e-09 5.06869e-09 0)
(4.08766e-09 5.06931e-09 0)
(4.09131e-09 5.06849e-09 0)
(4.09625e-09 5.06687e-09 0)
(0.0224427 8.71287e-05 0)
(0.0552966 -0.000228178 0)
(0.0559558 6.39288e-05 0)
(0.0591061 -0.000111765 0)
(0.0645043 -0.000151887 0)
(0.0708241 -0.00019885 0)
(0.0774014 -0.000243593 0)
(0.0838805 -0.000295488 0)
(0.0900662 -0.000355621 0)
(0.0958596 -0.000424549 0)
(0.101223 -0.00050274 0)
(0.106156 -0.000590406 0)
(0.110675 -0.000687591 0)
(0.114807 -0.000793902 0)
(0.118577 -0.0009089 0)
(0.12201 -0.00103155 0)
(0.125126 -0.00116092 0)
(0.127942 -0.00129623 0)
(0.13047 -0.00143652 0)
(0.132719 -0.00158104 0)
(0.134696 -0.00172923 0)
(0.136402 -0.00188067 0)
(0.137838 -0.00203506 0)
(0.139 -0.00219209 0)
(0.139884 -0.00235134 0)
(0.140487 -0.00251214 0)
(0.140804 -0.0026735 0)
(0.140832 -0.00283399 0)
(0.140569 -0.00299172 0)
(0.140018 -0.00314436 0)
(0.139182 -0.00328894 0)
(0.138068 -0.00342104 0)
(0.13669 -0.00353265 0)
(0.135062 -0.00360898 0)
(0.133209 -0.00362585 0)
(0.131162 -0.00355106 0)
(0.128965 -0.00335238 0)
(0.126671 -0.00301116 0)
(0.124338 -0.00253517 0)
(0.122026 -0.00196209 0)
(0.119783 -0.00134962 0)
(0.117645 -0.000757152 0)
(0.115629 -0.000229659 0)
(0.113739 0.000208292 0)
(0.111968 0.000550722 0)
(0.110308 0.000808313 0)
(0.108753 0.0010057 0)
(0.107307 0.00117054 0)
(0.105979 0.00131861 0)
(0.104773 0.00144969 0)
(0.103682 0.00155701 0)
(0.102695 0.00163763 0)
(0.101798 0.00169453 0)
(0.100981 0.00173195 0)
(0.100223 0.00175285 0)
(0.0995113 0.00176181 0)
(0.0988461 0.00176509 0)
(0.098221 0.0017629 0)
(0.0976252 0.0017532 0)
(0.09706 0.0017417 0)
(0.096527 0.00173258 0)
(0.0960135 0.00172149 0)
(0.095515 0.00170888 0)
(0.0950357 0.0016996 0)
(0.0945696 0.00169235 0)
(0.0941128 0.0016867 0)
(0.0936651 0.00168449 0)
(0.0932195 0.00168343 0)
(0.0927785 0.00168551 0)
(0.0923438 0.00169356 0)
(0.0919008 0.00170123 0)
(0.0914514 0.00170941 0)
(0.0910052 0.0017245 0)
(0.0905515 0.00174201 0)
(0.0900863 0.00175996 0)
(0.0896131 0.00178083 0)
(0.0891339 0.00180562 0)
(0.0886496 0.00183661 0)
(0.0881511 0.0018688 0)
(0.0876427 0.00190317 0)
(0.0871304 0.00194583 0)
(0.0866048 0.00198977 0)
(0.0860691 0.00203446 0)
(0.085532 0.00208492 0)
(0.0850004 0.00214398 0)
(0.0844795 0.00221835 0)
(0.0839414 0.00227558 0)
(0.0833808 0.00226096 0)
(0.0828326 0.00214164 0)
(0.0821418 0.00198274 0)
(-0.00810021 -0.0261959 0)
(-0.0080727 0.0340255 0)
(-0.00756327 0.0213017 0)
(-0.0102521 -0.00122931 0)
(-0.0100415 0.000214376 0)
(-0.0105829 3.97957e-05 0)
(-0.0108836 4.71185e-05 0)
(-0.0109062 3.46977e-05 0)
(-0.0105368 1.79636e-05 0)
(-0.00960251 -1.07122e-05 0)
(-0.00781631 -9.44582e-05 0)
(-0.00156837 -0.000151817 0)
(0.00347663 -9.72259e-05 0)
(0.00419306 -1.3186e-05 0)
(0.00420913 6.3282e-08 0)
(0.00420964 -1.40565e-08 0)
(0.00420965 4.18616e-09 0)
(0.00420966 1.75125e-09 0)
(0.00420967 2.86391e-09 0)
(0.00420968 1.80972e-09 0)
(0.00420968 2.90448e-09 0)
(0.00420969 1.76565e-09 0)
(0.00420969 2.949e-09 0)
(0.0042097 1.72095e-09 0)
(0.0042097 2.99556e-09 0)
(0.0042097 1.67281e-09 0)
(0.0042097 3.04489e-09 0)
(0.0042097 1.62047e-09 0)
(0.0042097 3.09805e-09 0)
(0.0042097 1.56429e-09 0)
(0.0042097 3.15513e-09 0)
(0.0042097 1.50049e-09 0)
(0.0042097 3.13233e-09 0)
(0.0042097 1.67031e-09 0)
(0.0042097 3.06458e-09 0)
(0.0042097 1.52984e-09 0)
(0.0042097 3.1913e-09 0)
(0.0042097 1.46591e-09 0)
(0.0042097 3.25833e-09 0)
(0.0042097 1.39632e-09 0)
(0.0042097 3.32984e-09 0)
(0.0042097 1.3225e-09 0)
(0.0042097 3.40245e-09 0)
(0.0042097 1.24708e-09 0)
(0.0042097 3.48078e-09 0)
(0.0042097 1.16684e-09 0)
(0.0042097 3.56128e-09 0)
(0.0042097 1.08188e-09 0)
(0.0042097 3.64697e-09 0)
(0.0042097 9.92598e-10 0)
(0.0042097 3.73639e-09 0)
(0.0042097 9.00027e-10 0)
(0.0042097 3.8305e-09 0)
(0.0042097 8.02436e-10 0)
(0.0042097 3.9287e-09 0)
(0.0042097 7.01831e-10 0)
(0.0042097 4.03232e-09 0)
(0.0042097 5.97904e-10 0)
(0.0042097 4.1414e-09 0)
(0.0042097 4.90368e-10 0)
(0.0042097 4.25322e-09 0)
(0.0042097 3.7584e-10 0)
(0.0042097 4.36853e-09 0)
(0.0042097 2.57529e-10 0)
(0.0042097 4.48893e-09 0)
(0.0042097 1.34261e-10 0)
(0.0042097 4.6123e-09 0)
(0.0042097 7.11058e-12 0)
(0.0042097 4.73931e-09 0)
(0.0042097 -1.22131e-10 0)
(0.0042097 4.86925e-09 0)
(0.0042097 -2.52969e-10 0)
(0.0042097 5.01555e-09 0)
(0.0042097 -3.14677e-11 0)
(0.0042097 4.71587e-09 0)
(0.0042097 -5.00008e-11 0)
(0.0042097 4.72727e-09 0)
(0.0042097 -6.84763e-11 0)
(0.0042097 4.73786e-09 0)
(0.0042097 -8.65535e-11 0)
(0.0042097 4.75003e-09 0)
(0.0042097 -1.04127e-10 0)
(0.0042097 4.76175e-09 0)
(0.0042097 -1.21967e-10 0)
(0.0042097 4.77063e-09 0)
(0.0042097 -1.41138e-10 0)
(0.0042097 4.78038e-09 0)
(0.0042097 -1.57605e-10 0)
(0.0042097 4.78888e-09 0)
(0.0042097 -1.74742e-10 0)
(0.0042097 4.79188e-09 0)
(0.0042097 -2.15795e-10 0)
(0.0042097 4.7455e-09 0)
(0.0042097 -2.95921e-10 0)
(0.0042097 4.69536e-09 0)
(0.0042097 -3.55433e-10 0)
(0.0042097 4.6645e-09 0)
(0.0042097 -3.84206e-10 0)
(0.0042097 4.67986e-09 0)
(0.0042097 -3.79701e-10 0)
(0.0042097 4.69536e-09 0)
(0.0042097 -3.6943e-10 0)
(0.0042097 4.75042e-09 0)
(0.0042097 -3.01558e-10 0)
(0.0042097 4.84556e-09 0)
(0.0042097 -2.20747e-10 0)
(0.0042097 4.92835e-09 0)
(0.0042097 -1.17491e-10 0)
(0.0042097 5.0968e-09 0)
(0.0042097 -1.57431e-11 0)
(0.0042097 5.0524e-09 0)
(0.0042097 -2.00961e-10 0)
(0.0042097 4.75669e-09 0)
(0.0042097 -7.46328e-10 0)
(0.0042097 4.03717e-09 0)
(0.0042097 -1.81647e-09 0)
(0.0042097 2.28527e-09 0)
(0.0042097 -4.02921e-09 0)
(0.0042097 4.37891e-10 0)
(0.0042097 -1.2666e-08 0)
(0.00420969 -8.32055e-07 0)
(0.00420948 -6.59491e-05 0)
(0.00420501 -7.13791e-05 0)
)
;

boundaryField
{
    inandouthalf11
    {
        type            cyclic;
    }
    inandouthalf12
    {
        type            cyclic;
    }
    inandouthalf21
    {
        type            cyclic;
    }
    inandouthalf22
    {
        type            cyclic;
    }
    inandouthalf31
    {
        type            cyclic;
    }
    inandouthalf32
    {
        type            cyclic;
    }
    inandouthalf41
    {
        type            cyclic;
    }
    inandouthalf42
    {
        type            cyclic;
    }
    top
    {
        type            symmetryPlane;
    }
    walls
    {
        type            calculated;
        value           uniform (0 0 0);
    }
    frontAndBackPlanes
    {
        type            empty;
    }
}


// ************************************************************************* //
