/*--------------------------------*- C++ -*----------------------------------*\
| =========                 |                                                 |
| \\      /  F ield         | OpenFOAM: The Open Source CFD Toolbox           |
|  \\    /   O peration     | Version:  2.4.x                                 |
|   \\  /    A nd           | Web:      www.OpenFOAM.org                      |
|    \\/     M anipulation  |                                                 |
\*---------------------------------------------------------------------------*/
FoamFile
{
    version     2.0;
    format      ascii;
    class       volVectorField;
    location    "5.15";
    object      ddt0(Ub);
}
// * * * * * * * * * * * * * * * * * * * * * * * * * * * * * * * * * * * * * //

dimensions      [0 1 -2 0 0 0 0];

internalField   nonuniform List<vector> 
360
(
(3.55778e-07 -1.35677e-08 0)
(3.62358e-07 -6.74946e-08 0)
(3.75472e-07 -1.45754e-07 0)
(3.87888e-07 -2.17118e-07 0)
(3.99153e-07 -2.82092e-07 0)
(4.10484e-07 -3.4668e-07 0)
(4.22521e-07 -4.14684e-07 0)
(4.35255e-07 -4.86398e-07 0)
(4.48468e-07 -5.60539e-07 0)
(4.62018e-07 -6.36164e-07 0)
(4.75905e-07 -7.13218e-07 0)
(4.902e-07 -7.92067e-07 0)
(5.04964e-07 -8.73039e-07 0)
(5.20209e-07 -9.56184e-07 0)
(5.3592e-07 -1.04136e-06 0)
(5.52086e-07 -1.12848e-06 0)
(5.68728e-07 -1.21763e-06 0)
(5.85903e-07 -1.30916e-06 0)
(6.03713e-07 -1.40364e-06 0)
(6.22304e-07 -1.50199e-06 0)
(6.41864e-07 -1.6053e-06 0)
(6.62613e-07 -1.71487e-06 0)
(6.84787e-07 -1.83201e-06 0)
(7.08574e-07 -1.9577e-06 0)
(7.34045e-07 -2.09215e-06 0)
(7.61064e-07 -2.23429e-06 0)
(7.89199e-07 -2.38126e-06 0)
(8.17659e-07 -2.52818e-06 0)
(8.4527e-07 -2.66801e-06 0)
(8.70568e-07 -2.79234e-06 0)
(8.92079e-07 -2.89303e-06 0)
(9.08778e-07 -2.96491e-06 0)
(9.20639e-07 -3.00862e-06 0)
(9.29161e-07 -3.0335e-06 0)
(9.37672e-07 -3.05882e-06 0)
(9.51385e-07 -3.11412e-06 0)
(9.77322e-07 -3.23843e-06 0)
(1.02438e-06 -3.48072e-06 0)
(1.10372e-06 -3.90184e-06 0)
(1.22924e-06 -4.57512e-06 0)
(1.41658e-06 -5.57813e-06 0)
(1.67611e-06 -6.94568e-06 0)
(1.9904e-06 -8.54317e-06 0)
(2.27156e-06 -9.88015e-06 0)
(2.33844e-06 -1.01108e-05 0)
(2.02762e-06 -8.60284e-06 0)
(1.42428e-06 -5.77116e-06 0)
(8.51396e-07 -2.9437e-06 0)
(5.23478e-07 -1.12437e-06 0)
(4.0096e-07 -3.24484e-07 0)
(3.68378e-07 -7.32164e-08 0)
(3.61407e-07 -1.28678e-08 0)
(3.60035e-07 -4.56581e-10 0)
(3.59782e-07 2.0503e-09 0)
(3.59762e-07 2.60685e-09 0)
(3.59805e-07 2.74097e-09 0)
(3.59865e-07 2.76335e-09 0)
(3.5994e-07 2.74919e-09 0)
(3.60021e-07 2.70657e-09 0)
(3.6011e-07 2.64159e-09 0)
(3.60211e-07 2.55679e-09 0)
(3.60316e-07 2.45843e-09 0)
(3.6043e-07 2.3462e-09 0)
(3.60546e-07 2.22119e-09 0)
(3.60666e-07 2.09624e-09 0)
(3.60787e-07 1.97804e-09 0)
(3.60909e-07 1.86976e-09 0)
(3.61033e-07 1.76991e-09 0)
(3.61158e-07 1.6776e-09 0)
(3.61285e-07 1.59177e-09 0)
(3.61418e-07 1.51027e-09 0)
(3.61555e-07 1.42853e-09 0)
(3.61693e-07 1.34557e-09 0)
(3.61838e-07 1.25755e-09 0)
(3.61987e-07 1.16771e-09 0)
(3.62141e-07 1.07612e-09 0)
(3.62298e-07 9.77494e-10 0)
(3.62459e-07 8.74948e-10 0)
(3.62625e-07 7.61517e-10 0)
(3.62796e-07 6.44584e-10 0)
(3.62972e-07 5.2783e-10 0)
(3.63153e-07 4.07226e-10 0)
(3.6334e-07 2.81678e-10 0)
(3.63532e-07 1.507e-10 0)
(3.63729e-07 2.05631e-11 0)
(3.63932e-07 -1.12677e-10 0)
(3.6414e-07 -2.53151e-10 0)
(3.64353e-07 -3.98667e-10 0)
(3.64571e-07 -5.4713e-10 0)
(3.64794e-07 -6.95144e-10 0)
(3.65022e-07 -8.463e-10 0)
(3.65255e-07 -9.98007e-10 0)
(3.65493e-07 -1.14775e-09 0)
(3.65737e-07 -1.30419e-09 0)
(3.65986e-07 -1.46212e-09 0)
(3.66241e-07 -1.61535e-09 0)
(3.66501e-07 -1.77366e-09 0)
(3.66767e-07 -1.93868e-09 0)
(3.6704e-07 -2.09801e-09 0)
(3.67318e-07 -2.25634e-09 0)
(3.67602e-07 -2.41952e-09 0)
(3.67893e-07 -2.58057e-09 0)
(3.6819e-07 -2.74142e-09 0)
(3.68494e-07 -2.90602e-09 0)
(3.68805e-07 -3.07454e-09 0)
(3.69123e-07 -3.24419e-09 0)
(3.69449e-07 -3.41111e-09 0)
(3.69782e-07 -3.57596e-09 0)
(3.70123e-07 -3.73755e-09 0)
(3.70472e-07 -3.89889e-09 0)
(3.7083e-07 -4.06429e-09 0)
(3.71197e-07 -4.22671e-09 0)
(3.71573e-07 -4.38443e-09 0)
(3.71958e-07 -4.5467e-09 0)
(3.72354e-07 -4.70968e-09 0)
(3.7276e-07 -4.86781e-09 0)
(3.73178e-07 -5.0247e-09 0)
(3.73607e-07 -5.18137e-09 0)
(3.74048e-07 -5.33749e-09 0)
(3.74502e-07 -5.49399e-09 0)
(3.7497e-07 -5.64735e-09 0)
(3.75453e-07 -5.79709e-09 0)
(3.75951e-07 -5.94661e-09 0)
(3.76465e-07 -6.09428e-09 0)
(3.76996e-07 -6.24898e-09 0)
(3.77545e-07 -6.40635e-09 0)
(3.78113e-07 -6.55708e-09 0)
(3.78701e-07 -6.70563e-09 0)
(3.7931e-07 -6.8531e-09 0)
(3.79942e-07 -6.99289e-09 0)
(3.80595e-07 -7.12773e-09 0)
(3.81271e-07 -7.25844e-09 0)
(3.81972e-07 -7.37836e-09 0)
(3.82705e-07 -7.48936e-09 0)
(3.83477e-07 -7.59172e-09 0)
(3.84287e-07 -7.68531e-09 0)
(3.85133e-07 -7.77655e-09 0)
(3.86027e-07 -7.86834e-09 0)
(3.87014e-07 -7.95262e-09 0)
(3.88137e-07 -8.01466e-09 0)
(3.89341e-07 -8.10815e-09 0)
(3.90485e-07 -8.21504e-09 0)
(3.91839e-07 -8.33529e-09 0)
(3.9358e-07 -8.71159e-09 0)
(3.95788e-07 -1.79457e-08 0)
(4.39064e-07 1.30459e-06 0)
(4.10527e-05 -9.6799e-06 0)
(0.0241418 -1.94047e-05 0)
(0.057611 6.68195e-05 0)
(0.0548664 -5.22973e-05 0)
(0.05844 4.61084e-05 0)
(0.0640629 1.26729e-05 0)
(0.0704414 1.34325e-05 0)
(0.0769865 1.44526e-05 0)
(0.0833936 1.52278e-05 0)
(0.0895041 1.61143e-05 0)
(0.0952453 1.70575e-05 0)
(0.100596 1.78233e-05 0)
(0.105564 1.82692e-05 0)
(0.110173 1.83612e-05 0)
(0.114449 1.81141e-05 0)
(0.118423 1.75742e-05 0)
(0.122123 1.6803e-05 0)
(0.125572 1.58591e-05 0)
(0.128793 1.47939e-05 0)
(0.131804 1.36556e-05 0)
(0.13462 1.24845e-05 0)
(0.137252 1.13127e-05 0)
(0.139712 1.01649e-05 0)
(0.142005 9.05872e-06 0)
(0.144138 8.00632e-06 0)
(0.146114 7.01499e-06 0)
(0.147934 6.08828e-06 0)
(0.149599 5.22704e-06 0)
(0.151107 4.43023e-06 0)
(0.152454 3.69574e-06 0)
(0.153637 3.02084e-06 0)
(0.154649 2.40203e-06 0)
(0.155483 1.83357e-06 0)
(0.15613 1.30534e-06 0)
(0.15658 8.01764e-07 0)
(0.156821 3.05198e-07 0)
(0.156839 -1.9476e-07 0)
(0.15662 -6.89422e-07 0)
(0.156147 -1.1453e-06 0)
(0.155402 -1.51264e-06 0)
(0.154367 -1.7471e-06 0)
(0.153025 -1.83151e-06 0)
(0.151357 -1.78304e-06 0)
(0.149348 -1.64207e-06 0)
(0.146984 -1.45394e-06 0)
(0.144255 -1.25725e-06 0)
(0.141152 -1.07995e-06 0)
(0.137673 -9.3548e-07 0)
(0.133822 -8.19911e-07 0)
(0.12961 -7.18598e-07 0)
(0.125057 -6.20349e-07 0)
(0.120197 -5.24833e-07 0)
(0.115071 -4.37848e-07 0)
(0.109735 -3.63237e-07 0)
(0.104252 -3.00804e-07 0)
(0.0986358 -2.49029e-07 0)
(0.092902 -2.07028e-07 0)
(0.0871291 -1.72406e-07 0)
(0.0813979 -1.42551e-07 0)
(0.0757856 -1.17835e-07 0)
(0.0703606 -9.84396e-08 0)
(0.0651774 -8.21307e-08 0)
(0.0602742 -6.79259e-08 0)
(0.0556724 -5.64988e-08 0)
(0.0513775 -4.73404e-08 0)
(0.0473824 -3.95621e-08 0)
(0.0436705 -3.3042e-08 0)
(0.0402192 -2.75838e-08 0)
(0.0370031 -2.30378e-08 0)
(0.0339962 -1.93502e-08 0)
(0.0311739 -1.61388e-08 0)
(0.0285138 -1.33292e-08 0)
(0.0259963 -1.11259e-08 0)
(0.0236047 -9.31766e-09 0)
(0.021325 -7.69542e-09 0)
(0.0191457 -6.33414e-09 0)
(0.0170576 -5.24337e-09 0)
(0.0150528 -4.34478e-09 0)
(0.0131252 -3.56127e-09 0)
(0.0112696 -2.8872e-09 0)
(0.00948175 -2.34911e-09 0)
(0.00775822 -1.89853e-09 0)
(0.00609611 -1.50921e-09 0)
(0.00449318 -1.19799e-09 0)
(0.00294774 -9.54789e-10 0)
(0.00145877 -7.53512e-10 0)
(2.59461e-05 -5.65497e-10 0)
(-0.00135024 -3.86993e-10 0)
(-0.0026683 -2.63441e-10 0)
(-0.0039256 -2.44734e-10 0)
(-0.00511802 -2.62035e-11 0)
(-0.00623969 1.02285e-10 0)
(-0.00728238 6.85199e-11 0)
(-0.00823493 9.02765e-11 0)
(-0.00908219 1.89519e-11 0)
(-0.00980348 -1.26948e-12 0)
(-0.0103701 7.50688e-11 0)
(-0.0107407 4.7258e-11 0)
(-0.0108535 -1.27115e-10 0)
(-0.0106129 3.88543e-10 0)
(-0.00987348 -5.78547e-10 0)
(-0.00836108 8.94273e-10 0)
(-0.00370029 -1.08027e-09 0)
(0.00311153 1.34817e-09 0)
(0.00419869 -1.486e-09 0)
(0.00422521 1.7167e-09 0)
(0.00422563 -1.82301e-09 0)
(0.00422566 2.02131e-09 0)
(0.00422567 -2.08937e-09 0)
(0.00422568 2.2549e-09 0)
(0.00422569 -2.30116e-09 0)
(0.00422569 2.45116e-09 0)
(0.0042257 -2.49447e-09 0)
(0.0042257 2.64286e-09 0)
(0.0042257 -2.69045e-09 0)
(0.0042257 2.8471e-09 0)
(0.00422571 -2.89991e-09 0)
(0.00422571 3.06451e-09 0)
(0.00422571 -3.12492e-09 0)
(0.00422571 3.29767e-09 0)
(0.00422571 -3.36598e-09 0)
(0.00422571 3.54704e-09 0)
(0.00422571 -3.62085e-09 0)
(0.00422571 3.81404e-09 0)
(0.00422571 -3.8931e-09 0)
(0.00422571 4.09439e-09 0)
(0.00422571 -4.17963e-09 0)
(0.00422571 4.38965e-09 0)
(0.00422571 -4.47844e-09 0)
(0.00422571 4.70077e-09 0)
(0.00422571 -4.79592e-09 0)
(0.00422571 5.02871e-09 0)
(0.00422571 -5.12972e-09 0)
(0.00422571 5.36411e-09 0)
(0.00422571 -5.47355e-09 0)
(0.00422571 5.72036e-09 0)
(0.00422571 -5.83579e-09 0)
(0.00422571 6.0882e-09 0)
(0.00422571 -6.21644e-09 0)
(0.00422571 6.47472e-09 0)
(0.00422571 -6.6145e-09 0)
(0.00422571 6.87687e-09 0)
(0.00422571 -7.02731e-09 0)
(0.00422571 7.29698e-09 0)
(0.00422571 -7.45919e-09 0)
(0.00422571 7.73341e-09 0)
(0.00422571 -7.90537e-09 0)
(0.00422571 8.18989e-09 0)
(0.00422571 -8.36705e-09 0)
(0.00422571 8.66621e-09 0)
(0.00422571 -8.8438e-09 0)
(0.00422571 9.15655e-09 0)
(0.00422571 -9.34476e-09 0)
(0.00422571 9.66315e-09 0)
(0.00422571 -9.86189e-09 0)
(0.00422571 1.01896e-08 0)
(0.00422571 -1.03987e-08 0)
(0.00422571 1.07302e-08 0)
(0.00422571 -1.09516e-08 0)
(0.00422571 1.12859e-08 0)
(0.00422571 -1.15158e-08 0)
(0.00422571 1.18538e-08 0)
(0.00422571 -1.20895e-08 0)
(0.00422571 1.24289e-08 0)
(0.00422571 -1.11218e-08 0)
(0.00422571 1.11975e-08 0)
(0.00422571 -1.12048e-08 0)
(0.00422571 1.12606e-08 0)
(0.00422571 -1.12868e-08 0)
(0.00422571 1.1322e-08 0)
(0.00422571 -1.13678e-08 0)
(0.00422571 1.13861e-08 0)
(0.00422571 -1.14461e-08 0)
(0.00422571 1.14483e-08 0)
(0.00422571 -1.15242e-08 0)
(0.00422571 1.15016e-08 0)
(0.00422571 -1.16037e-08 0)
(0.00422571 1.15555e-08 0)
(0.00422571 -1.1675e-08 0)
(0.00422571 1.16048e-08 0)
(0.00422571 -1.17467e-08 0)
(0.00422571 1.16376e-08 0)
(0.00422571 -1.18794e-08 0)
(0.00422571 1.15396e-08 0)
(0.00422571 -1.21126e-08 0)
(0.00422571 1.1431e-08 0)
(0.00422571 -1.22905e-08 0)
(0.00422571 1.1371e-08 0)
(0.00422571 -1.2386e-08 0)
(0.00422571 1.14311e-08 0)
(0.00422571 -1.23922e-08 0)
(0.00422571 1.14909e-08 0)
(0.00422571 -1.23829e-08 0)
(0.00422571 1.1652e-08 0)
(0.00422571 -1.2223e-08 0)
(0.00422571 1.19141e-08 0)
(0.00422571 -1.20323e-08 0)
(0.00422571 1.21352e-08 0)
(0.00422571 -1.17843e-08 0)
(0.00422571 1.25832e-08 0)
(0.00422571 -1.1541e-08 0)
(0.00422571 1.2453e-08 0)
(0.00422571 -1.20728e-08 0)
(0.00422571 1.16414e-08 0)
(0.00422571 -1.35746e-08 0)
(0.00422571 9.68311e-09 0)
(0.00422571 -1.64915e-08 0)
(0.00422571 4.95205e-09 0)
(0.00422571 -2.24825e-08 0)
(0.00422571 -2.83063e-10 0)
(0.00422571 -2.96298e-08 0)
(0.00422571 -6.79767e-09 0)
(0.00422571 -2.11083e-08 0)
(0.00422571 1.12718e-08 0)
)
;

boundaryField
{
    inandouthalf11
    {
        type            cyclic;
    }
    inandouthalf12
    {
        type            cyclic;
    }
    inandouthalf21
    {
        type            cyclic;
    }
    inandouthalf22
    {
        type            cyclic;
    }
    inandouthalf31
    {
        type            cyclic;
    }
    inandouthalf32
    {
        type            cyclic;
    }
    inandouthalf41
    {
        type            cyclic;
    }
    inandouthalf42
    {
        type            cyclic;
    }
    top
    {
        type            symmetryPlane;
    }
    walls
    {
        type            calculated;
        value           uniform (0 0 0);
    }
    frontAndBackPlanes
    {
        type            empty;
    }
}


// ************************************************************************* //
