/*--------------------------------*- C++ -*----------------------------------*\
| =========                 |                                                 |
| \\      /  F ield         | OpenFOAM: The Open Source CFD Toolbox           |
|  \\    /   O peration     | Version:  2.4.x                                 |
|   \\  /    A nd           | Web:      www.OpenFOAM.org                      |
|    \\/     M anipulation  |                                                 |
\*---------------------------------------------------------------------------*/
FoamFile
{
    version     2.0;
    format      ascii;
    class       volScalarField;
    location    "5.15";
    object      epsilon_0;
}
// * * * * * * * * * * * * * * * * * * * * * * * * * * * * * * * * * * * * * //

dimensions      [0 2 -3 0 0 0 0];

internalField   nonuniform List<scalar> 
360
(
1.60309e-27
1e-20
1e-20
1e-20
1e-20
1e-20
1e-20
1e-20
1e-20
1e-20
1e-20
1e-20
1e-20
1e-20
1e-20
1e-20
1e-20
1e-20
1e-20
1e-20
1e-20
1e-20
1e-20
1e-20
1e-20
1e-20
1e-20
1e-20
1e-20
1e-20
1e-20
1e-20
1e-20
1e-20
1e-20
1e-20
1e-20
1e-20
1e-20
1e-20
1e-20
1e-20
1e-20
1e-20
1e-20
1e-20
1e-20
1e-20
1e-20
1e-20
1e-20
1e-20
1e-20
1e-20
1e-20
1e-20
1e-20
1e-20
1e-20
1e-20
1e-20
1e-20
1e-20
1e-20
1e-20
1e-20
1e-20
1e-20
1e-20
1e-20
1e-20
1e-20
1e-20
1e-20
1e-20
1e-20
1e-20
1e-20
1e-20
1e-20
1e-20
1e-20
1e-20
1e-20
1e-20
1e-20
1e-20
1e-20
1e-20
1e-20
1e-20
1e-20
1e-20
1e-20
1e-20
1e-20
1e-20
1e-20
1e-20
1e-20
1e-20
1e-20
1e-20
1e-20
1e-20
1e-20
1e-20
1e-20
1e-20
1e-20
1e-20
1e-20
1e-20
1e-20
1e-20
1e-20
1e-20
1e-20
1e-20
1e-20
1e-20
1e-20
1e-20
1e-20
1e-20
1e-20
1e-20
1e-20
1e-20
1e-20
1e-20
1e-20
3.30714e-20
1.83969e-19
1.13423e-18
7.60934e-18
5.64646e-17
4.71737e-16
4.51326e-15
5.02219e-14
6.5915e-13
1.03402e-11
1.96423e-10
4.56729e-09
1.3108e-07
4.67395e-06
0.000204859
0.00817697
0.0967192
0.173567
0.182752
0.175698
0.163867
0.150997
0.138514
0.12695
0.116464
0.107045
0.0986128
0.0910629
0.0842887
0.0781903
0.0726786
0.0676759
0.0631156
0.0589407
0.0551028
0.0515607
0.0482794
0.0452289
0.0423838
0.0397222
0.0372254
0.0348773
0.0326641
0.0305738
0.0285962
0.0267224
0.0249448
0.0232568
0.0216529
0.0201283
0.0186789
0.0173013
0.0159927
0.0147508
0.0135736
0.0124596
0.0114077
0.0104167
0.00948599
0.00861469
0.00780216
0.00704764
0.00635028
0.00570905
0.00512269
0.00458963
0.00410799
0.00367556
0.00328976
0.00294425
0.0026344
0.00235892
0.00211608
0.00190373
0.00171945
0.00156063
0.00142458
0.00130867
0.00121035
0.00112727
0.00105726
0.000998404
0.000948978
0.000907477
0.000872582
0.00084314
0.000818139
0.000796691
0.000778012
0.000761404
0.000746244
0.000731972
0.000718084
0.000704125
0.000689682
0.000674383
0.000657897
0.000639926
0.000620211
0.00059853
0.000574699
0.000548576
0.000520062
0.000489107
0.000455716
0.000419957
0.000381967
0.00034197
0.00030029
0.000257372
0.000213811
0.000170389
0.000128127
8.83557e-05
5.28227e-05
2.38999e-05
5.35455e-06
3.21035e-07
6.07965e-09
9.1726e-11
1.3015e-12
1.74444e-14
2.21002e-16
2.65479e-18
3.82802e-20
1e-20
1e-20
1e-20
1e-20
1e-20
1e-20
1e-20
1e-20
1e-20
1e-20
1e-20
1e-20
1e-20
1e-20
1e-20
1e-20
1e-20
1e-20
1e-20
1e-20
1e-20
1e-20
1e-20
1e-20
1e-20
1e-20
1e-20
1e-20
1e-20
1e-20
1e-20
1e-20
1e-20
1e-20
1e-20
1e-20
1e-20
1e-20
1e-20
1e-20
1e-20
1e-20
1e-20
1e-20
1e-20
1e-20
1e-20
1e-20
1e-20
1e-20
1e-20
1e-20
1e-20
1e-20
1e-20
1e-20
1e-20
1e-20
1e-20
1e-20
1e-20
1e-20
1e-20
1e-20
1e-20
1e-20
1e-20
1e-20
1e-20
1e-20
1e-20
1e-20
1e-20
1e-20
1e-20
1e-20
1e-20
1e-20
1e-20
1e-20
1e-20
1e-20
1e-20
1e-20
1e-20
1e-20
1e-20
1e-20
1e-20
1e-20
1e-20
1e-20
1e-20
1e-20
1e-20
1e-20
1e-20
1e-20
1e-20
1e-20
1e-20
1e-20
1e-20
)
;

boundaryField
{
    inandouthalf11
    {
        type            cyclic;
    }
    inandouthalf12
    {
        type            cyclic;
    }
    inandouthalf21
    {
        type            cyclic;
    }
    inandouthalf22
    {
        type            cyclic;
    }
    inandouthalf31
    {
        type            cyclic;
    }
    inandouthalf32
    {
        type            cyclic;
    }
    inandouthalf41
    {
        type            cyclic;
    }
    inandouthalf42
    {
        type            cyclic;
    }
    top
    {
        type            symmetryPlane;
    }
    walls
    {
        type            zeroGradient;
    }
    frontAndBackPlanes
    {
        type            empty;
    }
}


// ************************************************************************* //
