/*--------------------------------*- C++ -*----------------------------------*\
| =========                 |                                                 |
| \\      /  F ield         | OpenFOAM: The Open Source CFD Toolbox           |
|  \\    /   O peration     | Version:  2.4.x                                 |
|   \\  /    A nd           | Web:      www.OpenFOAM.org                      |
|    \\/     M anipulation  |                                                 |
\*---------------------------------------------------------------------------*/
FoamFile
{
    version     2.0;
    format      ascii;
    class       volScalarField;
    location    "5.15";
    object      k_0;
}
// * * * * * * * * * * * * * * * * * * * * * * * * * * * * * * * * * * * * * //

dimensions      [0 2 -2 0 0 0 0];

internalField   nonuniform List<scalar> 
360
(
1e-20
1e-20
1e-20
1e-20
1e-20
1e-20
1e-20
1e-20
1e-20
1e-20
1e-20
1e-20
1e-20
1e-20
1e-20
1e-20
1e-20
1e-20
1e-20
1e-20
1e-20
1e-20
1e-20
1e-20
1e-20
1e-20
1e-20
1e-20
1e-20
1e-20
1e-20
1e-20
1e-20
1e-20
1e-20
1e-20
1e-20
1e-20
1e-20
1e-20
1e-20
1e-20
1e-20
1e-20
1e-20
1e-20
1e-20
1e-20
1e-20
1e-20
1e-20
1e-20
1e-20
1e-20
1e-20
1e-20
1e-20
1e-20
1e-20
1e-20
1e-20
1e-20
1e-20
1e-20
1e-20
1e-20
1e-20
1e-20
1e-20
1e-20
1e-20
1e-20
1e-20
1e-20
1e-20
1e-20
1e-20
1e-20
1e-20
1e-20
1e-20
1e-20
1e-20
1e-20
1e-20
1e-20
1e-20
1e-20
1e-20
1e-20
1e-20
1e-20
1e-20
1e-20
1e-20
1e-20
1e-20
1e-20
1e-20
1e-20
1e-20
1e-20
1e-20
1e-20
1e-20
1e-20
1e-20
1e-20
1e-20
1e-20
1e-20
1e-20
1e-20
1e-20
1e-20
1e-20
1e-20
1e-20
1e-20
1e-20
1e-20
1e-20
1e-20
1e-20
1e-20
1e-20
1e-20
1e-20
1e-20
1e-20
1e-20
1e-20
2.29744e-20
1.11691e-19
6.06544e-19
3.53391e-18
2.2435e-17
1.581e-16
1.25994e-15
1.1552e-14
1.23669e-13
1.56683e-12
2.38486e-11
4.41725e-10
1.00473e-08
2.82854e-07
9.74319e-06
0.000301587
0.00283983
0.00555399
0.00684042
0.00757646
0.00803404
0.00832946
0.00852254
0.00864609
0.00871891
0.00875231
0.00875361
0.00872787
0.0086789
0.00860972
0.0085228
0.00842024
0.00830382
0.00817509
0.00803542
0.00788599
0.00772785
0.00756193
0.00738907
0.00721002
0.00702549
0.0068361
0.00664245
0.0064451
0.00624458
0.00604142
0.0058361
0.00562914
0.00542103
0.00521227
0.00500338
0.00479489
0.00458733
0.00438129
0.00417733
0.00397605
0.00377807
0.00358402
0.00339455
0.00321031
0.00303196
0.00286015
0.00269552
0.00253866
0.00239011
0.00225033
0.00211968
0.00199841
0.00188664
0.00178333
0.00168773
0.00160009
0.00152049
0.00144883
0.00138487
0.00132826
0.00127851
0.00123507
0.00119733
0.00116469
0.00113653
0.00111225
0.00109127
0.00107307
0.00105715
0.00104302
0.00103027
0.00101848
0.00100726
0.000996252
0.000985119
0.000973533
0.000961186
0.000947783
0.000933046
0.00091671
0.000898527
0.000878262
0.000855696
0.000830628
0.000802875
0.000772276
0.000738692
0.000702011
0.000662153
0.000619077
0.000572786
0.00052334
0.00047087
0.000415602
0.000357881
0.000298224
0.000237383
0.000176466
0.000117155
6.22757e-05
1.77511e-05
1.3033e-06
2.571e-08
3.86207e-10
5.45012e-12
7.26581e-14
9.15692e-16
1.09212e-17
1.31339e-19
1.06212e-20
1e-20
1e-20
1e-20
1e-20
1e-20
1e-20
1e-20
1e-20
1e-20
1e-20
1e-20
1e-20
1e-20
1e-20
1e-20
1e-20
1e-20
1e-20
1e-20
1e-20
1e-20
1e-20
1e-20
1e-20
1e-20
1e-20
1e-20
1e-20
1e-20
1e-20
1e-20
1e-20
1e-20
1e-20
1e-20
1e-20
1e-20
1e-20
1e-20
1e-20
1e-20
1e-20
1e-20
1e-20
1e-20
1e-20
1e-20
1e-20
1e-20
1e-20
1e-20
1e-20
1e-20
1e-20
1e-20
1e-20
1e-20
1e-20
1e-20
1e-20
1e-20
1e-20
1e-20
1e-20
1e-20
1e-20
1e-20
1e-20
1e-20
1e-20
1e-20
1e-20
1e-20
1e-20
1e-20
1e-20
1e-20
1e-20
1e-20
1e-20
1e-20
1e-20
1e-20
1e-20
1e-20
1e-20
1e-20
1e-20
1e-20
1e-20
1e-20
1e-20
1e-20
1e-20
1e-20
1e-20
1e-20
1e-20
1e-20
1e-20
1e-20
1e-20
)
;

boundaryField
{
    inandouthalf11
    {
        type            cyclic;
    }
    inandouthalf12
    {
        type            cyclic;
    }
    inandouthalf21
    {
        type            cyclic;
    }
    inandouthalf22
    {
        type            cyclic;
    }
    inandouthalf31
    {
        type            cyclic;
    }
    inandouthalf32
    {
        type            cyclic;
    }
    inandouthalf41
    {
        type            cyclic;
    }
    inandouthalf42
    {
        type            cyclic;
    }
    top
    {
        type            symmetryPlane;
    }
    walls
    {
        type            zeroGradient;
    }
    frontAndBackPlanes
    {
        type            empty;
    }
}


// ************************************************************************* //
