/*--------------------------------*- C++ -*----------------------------------*\
| =========                 |                                                 |
| \\      /  F ield         | OpenFOAM: The Open Source CFD Toolbox           |
|  \\    /   O peration     | Version:  2.4.x                                 |
|   \\  /    A nd           | Web:      www.OpenFOAM.org                      |
|    \\/     M anipulation  |                                                 |
\*---------------------------------------------------------------------------*/
FoamFile
{
    version     2.0;
    format      ascii;
    class       volScalarField;
    location    "5.15";
    object      nutb;
}
// * * * * * * * * * * * * * * * * * * * * * * * * * * * * * * * * * * * * * //

dimensions      [0 2 -1 0 0 0 0];

internalField   nonuniform List<scalar> 
360
(
9e-22
9e-22
9e-22
9e-22
9e-22
9e-22
9e-22
9e-22
9e-22
9e-22
9e-22
9e-22
9e-22
9e-22
9e-22
9e-22
9e-22
9e-22
9e-22
9e-22
9e-22
9e-22
9e-22
9e-22
9e-22
9e-22
9e-22
9e-22
9e-22
9e-22
9e-22
9e-22
9e-22
9e-22
9e-22
9e-22
9e-22
9e-22
9e-22
9e-22
9e-22
9e-22
9e-22
9e-22
9e-22
9e-22
9e-22
9e-22
9e-22
9e-22
9e-22
9e-22
9e-22
9e-22
9e-22
9e-22
9e-22
9e-22
9e-22
9e-22
9e-22
9e-22
9e-22
9e-22
9e-22
9e-22
9e-22
9e-22
9e-22
9e-22
9e-22
9e-22
9e-22
9e-22
9e-22
9e-22
9e-22
9e-22
9e-22
9e-22
9e-22
9e-22
9e-22
9e-22
9e-22
9e-22
9e-22
9e-22
9e-22
9e-22
9e-22
9e-22
9e-22
9e-22
9e-22
9e-22
9e-22
9e-22
9e-22
9e-22
9e-22
9e-22
9e-22
9e-22
9e-22
9e-22
9e-22
9e-22
9e-22
9e-22
9e-22
9e-22
9e-22
9e-22
9e-22
9e-22
9e-22
9e-22
9e-22
9e-22
9e-22
9e-22
9e-22
9e-22
9e-22
9e-22
9e-22
9e-22
9e-22
9e-22
9e-22
9e-22
1.43652e-21
6.10301e-21
2.91912e-20
1.47698e-19
8.0218e-19
4.76812e-18
3.16508e-17
2.39105e-16
2.08782e-15
2.13631e-14
2.60538e-13
3.84391e-12
6.92914e-11
1.5401e-09
4.16916e-08
1.00082e-06
7.50358e-06
1.59944e-05
2.30428e-05
2.94038e-05
3.54501e-05
4.1353e-05
4.71946e-05
5.29973e-05
5.87465e-05
6.44067e-05
6.99351e-05
7.52888e-05
8.04299e-05
8.53265e-05
8.99536e-05
9.42924e-05
9.83292e-05
0.000102055
0.000105466
0.000108558
0.000111333
0.000113794
0.000115945
0.000117792
0.000119341
0.000120602
0.000121581
0.000122291
0.000122739
0.000122939
0.000122901
0.000122638
0.000122163
0.00012149
0.000120635
0.000119613
0.00011844
0.000117136
0.00011572
0.00011421
0.000112629
0.000110998
0.000109343
0.000107686
0.000106057
0.000104481
0.00010299
0.000101612
0.000100377
9.93127e-05
9.84451e-05
9.77963e-05
9.73834e-05
9.72188e-05
9.73152e-05
9.7684e-05
9.83267e-05
9.92331e-05
0.000100381
0.000101738
0.00010326
0.000104896
0.000106592
0.000108294
0.000109947
0.000111507
0.000112932
0.000114191
0.000115259
0.000116119
0.000116759
0.000117174
0.000117359
0.000117313
0.000117037
0.000116529
0.000115789
0.000114815
0.000113603
0.000112148
0.000110444
0.000108482
0.000106252
0.000103745
0.000100949
9.78488e-05
9.44327e-05
9.06856e-05
8.65928e-05
8.2139e-05
7.73088e-05
7.20869e-05
6.64579e-05
6.04072e-05
5.39208e-05
4.69862e-05
3.95925e-05
3.1731e-05
2.33976e-05
1.46177e-05
5.30871e-06
4.78569e-07
9.84699e-09
1.47297e-10
2.0676e-12
2.74198e-14
3.43802e-16
4.07164e-18
4.08686e-20
1.01671e-21
9e-22
9e-22
9e-22
9e-22
9e-22
9e-22
9e-22
9e-22
9e-22
9e-22
9e-22
9e-22
9e-22
9e-22
9e-22
9e-22
9e-22
9e-22
9e-22
9e-22
9e-22
9e-22
9e-22
9e-22
9e-22
9e-22
9e-22
9e-22
9e-22
9e-22
9e-22
9e-22
9e-22
9e-22
9e-22
9e-22
9e-22
9e-22
9e-22
9e-22
9e-22
9e-22
9e-22
9e-22
9e-22
9e-22
9e-22
9e-22
9e-22
9e-22
9e-22
9e-22
9e-22
9e-22
9e-22
9e-22
9e-22
9e-22
9e-22
9e-22
9e-22
9e-22
9e-22
9e-22
9e-22
9e-22
9e-22
9e-22
9e-22
9e-22
9e-22
9e-22
9e-22
9e-22
9e-22
9e-22
9e-22
9e-22
9e-22
9e-22
9e-22
9e-22
9e-22
9e-22
9e-22
9e-22
9e-22
9e-22
9e-22
9e-22
9e-22
9e-22
9e-22
9e-22
9e-22
9e-22
9e-22
9e-22
9e-22
9e-22
9e-22
9e-22
)
;

boundaryField
{
    inandouthalf11
    {
        type            cyclic;
    }
    inandouthalf12
    {
        type            cyclic;
    }
    inandouthalf21
    {
        type            cyclic;
    }
    inandouthalf22
    {
        type            cyclic;
    }
    inandouthalf31
    {
        type            cyclic;
    }
    inandouthalf32
    {
        type            cyclic;
    }
    inandouthalf41
    {
        type            cyclic;
    }
    inandouthalf42
    {
        type            cyclic;
    }
    top
    {
        type            symmetryPlane;
    }
    walls
    {
        type            calculated;
        value           uniform 0;
    }
    frontAndBackPlanes
    {
        type            empty;
    }
}


// ************************************************************************* //
