/*--------------------------------*- C++ -*----------------------------------*\
| =========                 |                                                 |
| \\      /  F ield         | OpenFOAM: The Open Source CFD Toolbox           |
|  \\    /   O peration     | Version:  2.4.x                                 |
|   \\  /    A nd           | Web:      www.OpenFOAM.org                      |
|    \\/     M anipulation  |                                                 |
\*---------------------------------------------------------------------------*/
FoamFile
{
    version     2.0;
    format      ascii;
    class       surfaceScalarField;
    location    "5.15";
    object      phia;
}
// * * * * * * * * * * * * * * * * * * * * * * * * * * * * * * * * * * * * * //

dimensions      [0 3 -1 0 0 0 0];

internalField   nonuniform List<scalar> 
359
(
-4.9659e-13
-1.33996e-12
-2.11883e-12
-2.84062e-12
-3.56717e-12
-4.31352e-12
-5.07283e-12
-5.83802e-12
-6.60585e-12
-7.37707e-12
-8.15348e-12
-8.93596e-12
-9.72479e-12
-1.05194e-11
-1.13193e-11
-1.21245e-11
-1.29349e-11
-1.37507e-11
-1.45719e-11
-1.5399e-11
-1.6232e-11
-1.7072e-11
-1.79199e-11
-1.8777e-11
-1.96443e-11
-2.05229e-11
-2.14131e-11
-2.23145e-11
-2.3225e-11
-2.41407e-11
-2.5056e-11
-2.59649e-11
-2.68602e-11
-2.77384e-11
-2.85982e-11
-2.94449e-11
-3.0291e-11
-3.11583e-11
-3.20799e-11
-3.31009e-11
-3.42829e-11
-3.5694e-11
-3.73801e-11
-3.93017e-11
-4.12515e-11
-4.28922e-11
-4.39682e-11
-4.44959e-11
-4.46876e-11
-4.47405e-11
-4.47524e-11
-4.47549e-11
-4.47555e-11
-4.47556e-11
-4.47557e-11
-4.47557e-11
-4.47557e-11
-4.47558e-11
-4.47558e-11
-4.47558e-11
-4.47558e-11
-4.47559e-11
-4.47559e-11
-4.4756e-11
-4.4756e-11
-4.47561e-11
-4.47561e-11
-4.47562e-11
-4.47563e-11
-4.47563e-11
-4.47564e-11
-4.47564e-11
-4.47565e-11
-4.47566e-11
-4.47566e-11
-4.47567e-11
-4.47567e-11
-4.47568e-11
-4.47569e-11
-4.47569e-11
-4.4757e-11
-4.47571e-11
-4.47572e-11
-4.47572e-11
-4.47573e-11
-4.47574e-11
-4.47575e-11
-4.47575e-11
-4.47576e-11
-4.47577e-11
-4.47578e-11
-4.47579e-11
-4.4758e-11
-4.47581e-11
-4.47582e-11
-4.47583e-11
-4.47583e-11
-4.47584e-11
-4.47585e-11
-4.47586e-11
-4.47587e-11
-4.47588e-11
-4.47589e-11
-4.4759e-11
-4.47591e-11
-4.47592e-11
-4.47593e-11
-4.47594e-11
-4.47595e-11
-4.47596e-11
-4.47597e-11
-4.47598e-11
-4.47599e-11
-4.476e-11
-4.47601e-11
-4.47602e-11
-4.47603e-11
-4.47604e-11
-4.47605e-11
-4.47606e-11
-4.47607e-11
-4.47608e-11
-4.47609e-11
-4.4761e-11
-4.47611e-11
-4.47612e-11
-4.47613e-11
-4.47613e-11
-4.47614e-11
-4.47615e-11
-4.47616e-11
-4.47617e-11
-4.47617e-11
-4.47618e-11
-4.47619e-11
-4.47619e-11
-4.4762e-11
-4.4762e-11
-4.4762e-11
-4.47621e-11
-4.47621e-11
-4.47621e-11
-4.47621e-11
-4.47621e-11
-4.47621e-11
-4.47621e-11
-5.30359e-11
-7.46789e-10
-1.28765e-09
-1.62903e-09
-1.81609e-09
-1.93255e-09
-1.99054e-09
-1.99147e-09
-1.93371e-09
-1.8158e-09
-1.63723e-09
-1.3986e-09
-1.1013e-09
-7.47308e-10
-3.389e-10
1.2153e-10
6.31553e-10
1.18885e-09
1.79117e-09
2.43637e-09
3.12239e-09
3.84726e-09
4.60902e-09
5.40572e-09
6.23541e-09
7.09607e-09
7.98556e-09
8.90163e-09
9.84179e-09
1.08033e-08
1.17832e-08
1.27778e-08
1.3783e-08
1.47926e-08
1.57973e-08
1.67823e-08
1.77263e-08
1.86021e-08
1.93813e-08
2.00404e-08
2.05672e-08
2.09638e-08
2.12452e-08
2.14341e-08
2.15553e-08
2.16324e-08
2.16844e-08
2.17216e-08
2.17439e-08
2.17469e-08
2.1729e-08
2.16927e-08
2.16428e-08
2.15833e-08
2.1517e-08
2.1446e-08
2.13733e-08
2.12978e-08
2.1219e-08
2.1142e-08
2.10656e-08
2.09859e-08
2.09065e-08
2.08287e-08
2.07481e-08
2.06665e-08
2.05844e-08
2.04976e-08
2.04093e-08
2.03191e-08
2.02192e-08
2.01167e-08
2.00116e-08
1.9895e-08
1.97728e-08
1.96426e-08
1.95023e-08
1.93549e-08
1.91886e-08
1.90118e-08
1.88212e-08
1.86044e-08
1.83714e-08
1.81122e-08
1.78237e-08
1.74957e-08
1.71077e-08
1.66401e-08
1.62202e-08
1.56582e-08
8.57671e-09
1.82258e-09
-8.93155e-08
-1.57905e-07
-1.58745e-07
-1.58424e-07
-1.58454e-07
-1.58451e-07
-1.58446e-07
-1.58433e-07
-1.58407e-07
-1.58359e-07
-1.58248e-07
-1.58201e-07
-1.582e-07
-1.582e-07
-1.582e-07
-1.582e-07
-1.582e-07
-1.582e-07
-1.582e-07
-1.582e-07
-1.582e-07
-1.582e-07
-1.582e-07
-1.582e-07
-1.582e-07
-1.582e-07
-1.582e-07
-1.582e-07
-1.582e-07
-1.582e-07
-1.582e-07
-1.582e-07
-1.582e-07
-1.582e-07
-1.582e-07
-1.582e-07
-1.582e-07
-1.582e-07
-1.582e-07
-1.582e-07
-1.582e-07
-1.582e-07
-1.582e-07
-1.582e-07
-1.582e-07
-1.582e-07
-1.582e-07
-1.582e-07
-1.582e-07
-1.582e-07
-1.582e-07
-1.582e-07
-1.582e-07
-1.582e-07
-1.582e-07
-1.582e-07
-1.582e-07
-1.582e-07
-1.582e-07
-1.582e-07
-1.582e-07
-1.582e-07
-1.582e-07
-1.582e-07
-1.582e-07
-1.582e-07
-1.582e-07
-1.582e-07
-1.582e-07
-1.582e-07
-1.582e-07
-1.582e-07
-1.582e-07
-1.582e-07
-1.582e-07
-1.582e-07
-1.582e-07
-1.582e-07
-1.582e-07
-1.582e-07
-1.582e-07
-1.582e-07
-1.582e-07
-1.582e-07
-1.582e-07
-1.582e-07
-1.582e-07
-1.582e-07
-1.582e-07
-1.582e-07
-1.582e-07
-1.582e-07
-1.582e-07
-1.582e-07
-1.582e-07
-1.582e-07
-1.582e-07
-1.582e-07
-1.582e-07
-1.582e-07
-1.582e-07
-1.582e-07
-1.582e-07
-1.582e-07
-1.582e-07
-1.582e-07
-1.582e-07
-1.582e-07
-1.582e-07
-1.582e-07
-1.582e-07
-1.582e-07
-1.582e-07
-1.582e-07
-1.582e-07
-1.582e-07
-1.582e-07
-1.582e-07
-1.58183e-07
-1.57477e-07
-1.32413e-07
)
;

boundaryField
{
    inandouthalf11
    {
        type            cyclic;
        value           nonuniform List<scalar> 
100
(
1.01209e-38
3.77336e-14
8.23269e-14
1.21968e-13
1.60902e-13
2.01289e-13
2.42939e-13
2.85359e-13
3.28303e-13
3.71725e-13
4.15702e-13
4.60325e-13
5.05637e-13
5.51635e-13
5.98297e-13
6.45616e-13
6.93599e-13
7.4226e-13
7.91615e-13
8.41685e-13
8.92497e-13
9.44096e-13
9.96552e-13
1.04995e-12
1.10437e-12
1.15991e-12
1.21662e-12
1.27452e-12
1.33356e-12
1.39354e-12
1.45417e-12
1.51506e-12
1.57578e-12
1.63594e-12
1.69537e-12
1.75419e-12
1.81299e-12
1.87296e-12
1.93603e-12
2.00496e-12
2.08361e-12
2.17685e-12
2.28944e-12
2.42272e-12
2.56829e-12
2.70412e-12
2.80436e-12
2.85951e-12
2.88155e-12
2.88808e-12
2.88962e-12
2.88994e-12
2.89002e-12
2.89003e-12
2.89004e-12
2.89004e-12
2.89005e-12
2.89005e-12
2.89005e-12
2.89005e-12
2.89005e-12
2.89006e-12
2.89006e-12
2.89007e-12
2.89007e-12
2.89008e-12
2.89008e-12
2.89009e-12
2.89009e-12
2.8901e-12
2.89011e-12
2.89011e-12
2.89012e-12
2.89012e-12
2.89013e-12
2.89014e-12
2.89014e-12
2.89015e-12
2.89016e-12
2.89016e-12
2.89017e-12
2.89018e-12
2.89018e-12
2.89019e-12
2.8902e-12
2.89021e-12
2.89022e-12
2.89023e-12
2.89024e-12
2.89025e-12
2.89026e-12
2.89027e-12
2.89028e-12
2.89029e-12
2.8903e-12
2.89031e-12
2.89032e-12
2.89033e-12
2.89035e-12
2.89036e-12
)
;
    }
    inandouthalf12
    {
        type            cyclic;
        value           nonuniform List<scalar> 
100
(
-1.01209e-38
-3.77336e-14
-8.23269e-14
-1.21968e-13
-1.60902e-13
-2.01289e-13
-2.42939e-13
-2.85359e-13
-3.28303e-13
-3.71725e-13
-4.15702e-13
-4.60325e-13
-5.05637e-13
-5.51635e-13
-5.98297e-13
-6.45616e-13
-6.93599e-13
-7.4226e-13
-7.91615e-13
-8.41685e-13
-8.92497e-13
-9.44096e-13
-9.96552e-13
-1.04995e-12
-1.10437e-12
-1.15991e-12
-1.21662e-12
-1.27452e-12
-1.33356e-12
-1.39354e-12
-1.45417e-12
-1.51506e-12
-1.57578e-12
-1.63594e-12
-1.69537e-12
-1.75419e-12
-1.81299e-12
-1.87296e-12
-1.93603e-12
-2.00496e-12
-2.08361e-12
-2.17685e-12
-2.28944e-12
-2.42272e-12
-2.56829e-12
-2.70412e-12
-2.80436e-12
-2.85951e-12
-2.88155e-12
-2.88808e-12
-2.88962e-12
-2.88994e-12
-2.89002e-12
-2.89003e-12
-2.89004e-12
-2.89004e-12
-2.89005e-12
-2.89005e-12
-2.89005e-12
-2.89005e-12
-2.89005e-12
-2.89006e-12
-2.89006e-12
-2.89007e-12
-2.89007e-12
-2.89008e-12
-2.89008e-12
-2.89009e-12
-2.89009e-12
-2.8901e-12
-2.89011e-12
-2.89011e-12
-2.89012e-12
-2.89012e-12
-2.89013e-12
-2.89014e-12
-2.89014e-12
-2.89015e-12
-2.89016e-12
-2.89016e-12
-2.89017e-12
-2.89018e-12
-2.89018e-12
-2.89019e-12
-2.8902e-12
-2.89021e-12
-2.89022e-12
-2.89023e-12
-2.89024e-12
-2.89025e-12
-2.89026e-12
-2.89027e-12
-2.89028e-12
-2.89029e-12
-2.8903e-12
-2.89031e-12
-2.89032e-12
-2.89033e-12
-2.89035e-12
-2.89036e-12
)
;
    }
    inandouthalf21
    {
        type            cyclic;
        value           nonuniform List<scalar> 
100
(
2.89037e-12
2.89038e-12
2.8904e-12
2.89041e-12
2.89042e-12
2.89043e-12
2.89045e-12
2.89046e-12
2.89048e-12
2.89049e-12
2.8905e-12
2.89052e-12
2.89053e-12
2.89055e-12
2.89056e-12
2.89058e-12
2.89059e-12
2.8906e-12
2.89062e-12
2.89064e-12
2.89065e-12
2.89067e-12
2.89068e-12
2.8907e-12
2.89072e-12
2.89074e-12
2.89075e-12
2.89077e-12
2.89079e-12
2.89081e-12
2.89083e-12
2.89085e-12
2.89086e-12
2.89088e-12
2.8909e-12
2.89091e-12
2.89093e-12
2.89094e-12
2.89096e-12
2.89097e-12
2.89098e-12
2.89099e-12
2.891e-12
2.891e-12
2.89101e-12
2.89101e-12
2.89101e-12
1.55693e-09
8.27239e-08
1.80597e-07
2.57629e-07
3.20199e-07
3.7224e-07
4.16331e-07
4.54248e-07
4.87274e-07
5.16372e-07
5.42278e-07
5.6556e-07
5.86659e-07
6.0592e-07
6.23618e-07
6.39966e-07
6.55138e-07
6.69273e-07
6.82484e-07
6.94861e-07
7.06482e-07
7.17406e-07
7.27687e-07
7.37366e-07
7.4648e-07
7.55059e-07
7.6313e-07
7.70713e-07
7.77829e-07
7.84494e-07
7.90725e-07
7.96535e-07
8.01937e-07
8.06946e-07
8.11574e-07
8.15834e-07
8.19743e-07
8.23317e-07
8.26574e-07
8.29535e-07
8.32223e-07
8.34659e-07
8.36865e-07
8.38863e-07
8.40671e-07
8.42305e-07
8.43782e-07
8.45115e-07
8.4632e-07
8.47411e-07
8.48402e-07
8.49305e-07
8.50132e-07
)
;
    }
    inandouthalf22
    {
        type            cyclic;
        value           nonuniform List<scalar> 
100
(
-2.89037e-12
-2.89038e-12
-2.8904e-12
-2.89041e-12
-2.89042e-12
-2.89043e-12
-2.89045e-12
-2.89046e-12
-2.89048e-12
-2.89049e-12
-2.8905e-12
-2.89052e-12
-2.89053e-12
-2.89055e-12
-2.89056e-12
-2.89058e-12
-2.89059e-12
-2.8906e-12
-2.89062e-12
-2.89064e-12
-2.89065e-12
-2.89067e-12
-2.89068e-12
-2.8907e-12
-2.89072e-12
-2.89074e-12
-2.89075e-12
-2.89077e-12
-2.89079e-12
-2.89081e-12
-2.89083e-12
-2.89085e-12
-2.89086e-12
-2.89088e-12
-2.8909e-12
-2.89091e-12
-2.89093e-12
-2.89094e-12
-2.89096e-12
-2.89097e-12
-2.89098e-12
-2.89099e-12
-2.891e-12
-2.891e-12
-2.89101e-12
-2.89101e-12
-2.89101e-12
-1.55693e-09
-8.27239e-08
-1.80597e-07
-2.57629e-07
-3.20199e-07
-3.7224e-07
-4.16331e-07
-4.54248e-07
-4.87274e-07
-5.16372e-07
-5.42278e-07
-5.6556e-07
-5.86659e-07
-6.0592e-07
-6.23618e-07
-6.39966e-07
-6.55138e-07
-6.69273e-07
-6.82484e-07
-6.94861e-07
-7.06482e-07
-7.17406e-07
-7.27687e-07
-7.37366e-07
-7.4648e-07
-7.55059e-07
-7.6313e-07
-7.70713e-07
-7.77829e-07
-7.84494e-07
-7.90725e-07
-7.96535e-07
-8.01937e-07
-8.06946e-07
-8.11574e-07
-8.15834e-07
-8.19743e-07
-8.23317e-07
-8.26574e-07
-8.29535e-07
-8.32223e-07
-8.34659e-07
-8.36865e-07
-8.38863e-07
-8.40671e-07
-8.42305e-07
-8.43782e-07
-8.45115e-07
-8.4632e-07
-8.47411e-07
-8.48402e-07
-8.49305e-07
-8.50132e-07
)
;
    }
    inandouthalf31
    {
        type            cyclic;
        value           nonuniform List<scalar> 
110
(
8.50895e-07
8.68887e-07
8.87217e-07
9.05894e-07
9.2493e-07
9.44332e-07
9.64111e-07
9.84278e-07
1.00484e-06
1.02581e-06
1.0472e-06
1.06902e-06
1.09127e-06
1.11398e-06
1.13714e-06
1.16077e-06
1.18488e-06
1.20948e-06
1.23458e-06
1.26019e-06
1.28632e-06
1.31299e-06
1.3402e-06
1.36796e-06
1.39629e-06
1.4252e-06
1.45469e-06
1.48478e-06
1.51548e-06
1.5468e-06
1.57875e-06
1.61135e-06
1.6446e-06
1.67852e-06
1.71309e-06
1.74828e-06
1.78427e-06
1.90382e-06
1.93844e-06
1.97303e-06
2.00734e-06
2.04285e-06
2.07895e-06
2.11576e-06
2.15338e-06
2.19189e-06
2.23147e-06
2.2723e-06
2.31535e-06
2.36138e-06
2.40924e-06
2.45813e-06
2.50803e-06
2.55893e-06
2.61087e-06
2.66386e-06
2.71793e-06
2.7731e-06
2.82938e-06
2.88681e-06
2.94541e-06
3.00519e-06
3.06619e-06
3.12842e-06
3.19192e-06
3.25671e-06
3.32281e-06
3.39025e-06
3.45907e-06
3.52928e-06
3.60091e-06
3.674e-06
3.74857e-06
3.82466e-06
3.90229e-06
3.9815e-06
4.06231e-06
4.14476e-06
4.22889e-06
4.31473e-06
4.4023e-06
4.49166e-06
4.58283e-06
4.67585e-06
4.77075e-06
4.86759e-06
4.96639e-06
5.06719e-06
5.17004e-06
5.27498e-06
5.38205e-06
5.49129e-06
5.60275e-06
5.71647e-06
5.8325e-06
5.95088e-06
6.07167e-06
6.19491e-06
6.32065e-06
6.44894e-06
6.57983e-06
6.71339e-06
6.84965e-06
6.98868e-06
7.13053e-06
7.27526e-06
7.42293e-06
7.5736e-06
7.72732e-06
7.88417e-06
)
;
    }
    inandouthalf32
    {
        type            cyclic;
        value           nonuniform List<scalar> 
110
(
-8.50895e-07
-8.68887e-07
-8.87217e-07
-9.05894e-07
-9.2493e-07
-9.44332e-07
-9.64111e-07
-9.84278e-07
-1.00484e-06
-1.02581e-06
-1.0472e-06
-1.06902e-06
-1.09127e-06
-1.11398e-06
-1.13714e-06
-1.16077e-06
-1.18488e-06
-1.20948e-06
-1.23458e-06
-1.26019e-06
-1.28632e-06
-1.31299e-06
-1.3402e-06
-1.36796e-06
-1.39629e-06
-1.4252e-06
-1.45469e-06
-1.48478e-06
-1.51548e-06
-1.5468e-06
-1.57875e-06
-1.61135e-06
-1.6446e-06
-1.67852e-06
-1.71309e-06
-1.74828e-06
-1.78427e-06
-1.90382e-06
-1.93844e-06
-1.97303e-06
-2.00734e-06
-2.04285e-06
-2.07895e-06
-2.11576e-06
-2.15338e-06
-2.19189e-06
-2.23147e-06
-2.2723e-06
-2.31535e-06
-2.36138e-06
-2.40924e-06
-2.45813e-06
-2.50803e-06
-2.55893e-06
-2.61087e-06
-2.66386e-06
-2.71793e-06
-2.7731e-06
-2.82938e-06
-2.88681e-06
-2.94541e-06
-3.00519e-06
-3.06619e-06
-3.12842e-06
-3.19192e-06
-3.25671e-06
-3.32281e-06
-3.39025e-06
-3.45907e-06
-3.52928e-06
-3.60091e-06
-3.674e-06
-3.74857e-06
-3.82466e-06
-3.90229e-06
-3.9815e-06
-4.06231e-06
-4.14476e-06
-4.22889e-06
-4.31473e-06
-4.4023e-06
-4.49166e-06
-4.58283e-06
-4.67585e-06
-4.77075e-06
-4.86759e-06
-4.96639e-06
-5.06719e-06
-5.17004e-06
-5.27498e-06
-5.38205e-06
-5.49129e-06
-5.60275e-06
-5.71647e-06
-5.8325e-06
-5.95088e-06
-6.07167e-06
-6.19491e-06
-6.32065e-06
-6.44894e-06
-6.57983e-06
-6.71339e-06
-6.84965e-06
-6.98868e-06
-7.13053e-06
-7.27526e-06
-7.42293e-06
-7.5736e-06
-7.72732e-06
-7.88417e-06
)
;
    }
    inandouthalf41
    {
        type            cyclic;
        value           nonuniform List<scalar> 
50
(
7.05713e-06
7.05713e-06
7.05713e-06
7.05713e-06
7.05713e-06
7.05713e-06
7.05713e-06
7.05713e-06
7.05713e-06
7.05713e-06
7.05713e-06
7.05713e-06
7.05713e-06
7.05713e-06
7.05713e-06
7.05713e-06
7.05713e-06
7.05713e-06
7.05713e-06
7.05713e-06
7.05713e-06
7.05713e-06
7.05713e-06
7.05713e-06
7.05713e-06
7.05713e-06
7.05713e-06
7.05713e-06
7.05713e-06
7.05713e-06
7.05713e-06
7.05713e-06
7.05713e-06
7.05713e-06
7.05713e-06
7.05713e-06
7.05713e-06
7.05713e-06
7.05713e-06
7.05713e-06
7.05713e-06
7.05713e-06
7.05713e-06
7.05713e-06
7.05713e-06
7.05713e-06
7.05713e-06
7.05713e-06
7.05713e-06
7.05716e-06
)
;
    }
    inandouthalf42
    {
        type            cyclic;
        value           nonuniform List<scalar> 
50
(
-7.05713e-06
-7.05713e-06
-7.05713e-06
-7.05713e-06
-7.05713e-06
-7.05713e-06
-7.05713e-06
-7.05713e-06
-7.05713e-06
-7.05713e-06
-7.05713e-06
-7.05713e-06
-7.05713e-06
-7.05713e-06
-7.05713e-06
-7.05713e-06
-7.05713e-06
-7.05713e-06
-7.05713e-06
-7.05713e-06
-7.05713e-06
-7.05713e-06
-7.05713e-06
-7.05713e-06
-7.05713e-06
-7.05713e-06
-7.05713e-06
-7.05713e-06
-7.05713e-06
-7.05713e-06
-7.05713e-06
-7.05713e-06
-7.05713e-06
-7.05713e-06
-7.05713e-06
-7.05713e-06
-7.05713e-06
-7.05713e-06
-7.05713e-06
-7.05713e-06
-7.05713e-06
-7.05713e-06
-7.05713e-06
-7.05713e-06
-7.05713e-06
-7.05713e-06
-7.05713e-06
-7.05713e-06
-7.05713e-06
-7.05716e-06
)
;
    }
    top
    {
        type            symmetryPlane;
        value           uniform 0;
    }
    walls
    {
        type            fixedValue;
        value           uniform 0;
    }
    frontAndBackPlanes
    {
        type            empty;
        value           nonuniform 0();
    }
}


// ************************************************************************* //
