/*--------------------------------*- C++ -*----------------------------------*\
| =========                 |                                                 |
| \\      /  F ield         | OpenFOAM: The Open Source CFD Toolbox           |
|  \\    /   O peration     | Version:  2.4.x                                 |
|   \\  /    A nd           | Web:      www.OpenFOAM.org                      |
|    \\/     M anipulation  |                                                 |
\*---------------------------------------------------------------------------*/
FoamFile
{
    version     2.0;
    format      ascii;
    class       surfaceScalarField;
    location    "5.15";
    object      phib;
}
// * * * * * * * * * * * * * * * * * * * * * * * * * * * * * * * * * * * * * //

dimensions      [0 3 -1 0 0 0 0];

internalField   nonuniform List<scalar> 
359
(
7.7961e-13
2.10719e-12
3.33255e-12
4.46674e-12
5.60832e-12
6.78106e-12
7.97394e-12
9.17583e-12
1.03816e-11
1.15924e-11
1.2811e-11
1.4039e-11
1.52766e-11
1.6523e-11
1.77775e-11
1.90399e-11
2.03103e-11
2.15887e-11
2.28754e-11
2.4171e-11
2.54756e-11
2.67908e-11
2.8118e-11
2.94592e-11
3.08163e-11
3.21906e-11
3.35826e-11
3.49919e-11
3.6415e-11
3.78459e-11
3.92758e-11
4.06951e-11
4.20929e-11
4.34637e-11
4.48053e-11
4.61262e-11
4.74456e-11
4.87978e-11
5.02345e-11
5.18257e-11
5.36676e-11
5.58663e-11
5.84931e-11
6.14859e-11
6.45216e-11
6.70744e-11
6.87467e-11
6.95647e-11
6.98592e-11
6.99374e-11
6.99517e-11
6.99511e-11
6.99471e-11
6.99422e-11
6.99368e-11
6.9931e-11
6.99249e-11
6.99183e-11
6.99115e-11
6.99043e-11
6.98968e-11
6.98891e-11
6.98812e-11
6.9873e-11
6.98647e-11
6.98562e-11
6.98473e-11
6.98382e-11
6.98287e-11
6.98189e-11
6.98086e-11
6.9798e-11
6.97871e-11
6.97758e-11
6.97643e-11
6.97525e-11
6.97406e-11
6.97283e-11
6.97158e-11
6.9703e-11
6.96898e-11
6.96763e-11
6.96624e-11
6.96482e-11
6.96336e-11
6.96187e-11
6.96035e-11
6.9588e-11
6.95721e-11
6.95559e-11
6.95394e-11
6.95225e-11
6.95052e-11
6.94875e-11
6.94694e-11
6.94509e-11
6.94319e-11
6.94125e-11
6.93927e-11
6.93724e-11
6.93516e-11
6.93304e-11
6.93086e-11
6.92863e-11
6.92635e-11
6.924e-11
6.9216e-11
6.91914e-11
6.91661e-11
6.91401e-11
6.91135e-11
6.90861e-11
6.9058e-11
6.9029e-11
6.89993e-11
6.89687e-11
6.89371e-11
6.89047e-11
6.88712e-11
6.88367e-11
6.88011e-11
6.87645e-11
6.87266e-11
6.86875e-11
6.8647e-11
6.86052e-11
6.8562e-11
6.8517e-11
6.84704e-11
6.84219e-11
6.83714e-11
6.83189e-11
6.82638e-11
6.82056e-11
6.81439e-11
6.80791e-11
6.80107e-11
6.79366e-11
6.7853e-11
6.77602e-11
6.76662e-11
6.75659e-11
6.74408e-11
6.72836e-11
6.70452e-11
6.64117e-11
6.76003e-11
5.3696e-10
4.7785e-10
4.29153e-10
3.7325e-10
3.14363e-10
2.56762e-10
2.03495e-10
1.56476e-10
1.16521e-10
8.35786e-11
5.7052e-11
3.60906e-11
1.97877e-11
7.29312e-12
-2.13774e-12
-9.1303e-12
-1.41982e-11
-1.77559e-11
-2.01352e-11
-2.16001e-11
-2.23597e-11
-2.25794e-11
-2.239e-11
-2.18944e-11
-2.11739e-11
-2.02921e-11
-1.92991e-11
-1.8234e-11
-1.71271e-11
-1.60019e-11
-1.48762e-11
-1.37628e-11
-1.26692e-11
-1.15974e-11
-1.05446e-11
-9.50553e-12
-8.47845e-12
-7.46975e-12
-6.49635e-12
-5.58236e-12
-4.75157e-12
-4.01995e-12
-3.39246e-12
-2.86457e-12
-2.42521e-12
-2.05851e-12
-1.7468e-12
-1.47646e-12
-1.24147e-12
-1.04065e-12
-8.72551e-13
-7.33384e-13
-6.18297e-13
-5.23358e-13
-4.43756e-13
-3.76222e-13
-3.18473e-13
-2.70218e-13
-2.29861e-13
-1.94921e-13
-1.6518e-13
-1.40502e-13
-1.19349e-13
-1.01138e-13
-8.57839e-14
-7.25909e-14
-6.13424e-14
-5.18735e-14
-4.35929e-14
-3.65509e-14
-3.07623e-14
-2.57073e-14
-2.13587e-14
-1.77576e-14
-1.46965e-14
-1.21141e-14
-9.90275e-15
-8.04194e-15
-6.52868e-15
-5.23226e-15
-4.15856e-15
-3.29567e-15
-2.57831e-15
-1.98858e-15
-1.49763e-15
-1.10236e-15
-8.40758e-16
-6.63888e-16
-5.43544e-16
-2.85079e-16
-3.66829e-17
4.91106e-17
-5.84762e-18
-5.67664e-18
-5.51742e-18
-5.34154e-18
-5.17988e-18
-4.99862e-18
-4.82922e-18
-4.64523e-18
-4.47014e-18
-4.28091e-18
-4.10212e-18
-3.92398e-18
-3.74071e-18
-3.54516e-18
-3.35577e-18
-3.15698e-18
-2.96363e-18
-2.76401e-18
-2.56895e-18
-2.36875e-18
-2.17346e-18
-1.97565e-18
-1.78403e-18
-1.59491e-18
-1.41647e-18
-1.24704e-18
-1.08902e-18
-9.28145e-19
-7.85152e-19
-6.49714e-19
-5.20894e-19
-3.98482e-19
-2.80726e-19
-1.67537e-19
-6.20675e-20
3.61312e-20
1.24736e-19
2.12622e-19
2.88105e-19
3.58416e-19
4.20344e-19
5.02027e-19
5.67625e-19
6.27712e-19
6.58828e-19
7.03263e-19
7.1084e-19
6.72981e-19
6.41e-19
6.49922e-19
6.24301e-19
5.94892e-19
5.22623e-19
4.75404e-19
3.94301e-19
3.19043e-19
2.42686e-19
2.60141e-19
2.69206e-19
2.90393e-19
3.90177e-19
4.17211e-19
4.24745e-19
4.33703e-19
4.24684e-19
4.47615e-19
4.53226e-19
4.60032e-19
4.44496e-19
4.46271e-19
4.26876e-19
4.10027e-19
3.83594e-19
3.81373e-19
3.71783e-19
3.63289e-19
3.46719e-19
3.36107e-19
3.18807e-19
3.01527e-19
2.79076e-19
2.65086e-19
2.46918e-19
2.29147e-19
2.08048e-19
1.9039e-19
1.70303e-19
1.52784e-19
1.40832e-19
1.44646e-19
1.51547e-19
1.60022e-19
1.62203e-19
1.71118e-19
1.69751e-19
1.68613e-19
1.57723e-19
1.60734e-19
1.53317e-19
1.46219e-19
1.28372e-19
1.11372e-19
9.55493e-20
7.73364e-20
7.54612e-20
1.97183e-20
1.00436e-20
9.58702e-22
6.3348e-20
7.36654e-20
1.95175e-19
3.20592e-19
4.48882e-19
7.97555e-19
1.18762e-18
1.60136e-18
1.70776e-18
2.91003e-18
2.16099e-18
3.05239e-19
)
;

boundaryField
{
    inandouthalf11
    {
        type            cyclic;
        value           nonuniform List<scalar> 
100
(
-8.9707e-13
-8.55861e-13
-8.10259e-13
-7.71067e-13
-7.32508e-13
-6.92305e-13
-6.50818e-13
-6.08573e-13
-5.65804e-13
-5.22565e-13
-4.78778e-13
-4.34346e-13
-3.89227e-13
-3.4342e-13
-2.9695e-13
-2.49826e-13
-2.02039e-13
-1.53576e-13
-1.04421e-13
-5.45534e-14
-3.94154e-15
4.74527e-14
9.97021e-14
1.5289e-13
2.07105e-13
2.62431e-13
3.18927e-13
3.76609e-13
4.3542e-13
4.95179e-13
5.55586e-13
6.1625e-13
6.76741e-13
7.36677e-13
7.95885e-13
8.54482e-13
9.13068e-13
9.72831e-13
1.03568e-12
1.10441e-12
1.18284e-12
1.27583e-12
1.38815e-12
1.5211e-12
1.66624e-12
1.80156e-12
1.90132e-12
1.95612e-12
1.97795e-12
1.98433e-12
1.98576e-12
1.98596e-12
1.98592e-12
1.98581e-12
1.98568e-12
1.98553e-12
1.98538e-12
1.98522e-12
1.98504e-12
1.98487e-12
1.98467e-12
1.98448e-12
1.98428e-12
1.98407e-12
1.98386e-12
1.98365e-12
1.98342e-12
1.98319e-12
1.98296e-12
1.98271e-12
1.98245e-12
1.98218e-12
1.98191e-12
1.98162e-12
1.98133e-12
1.98103e-12
1.98072e-12
1.98041e-12
1.98009e-12
1.97977e-12
1.97943e-12
1.97909e-12
1.97873e-12
1.97837e-12
1.978e-12
1.97762e-12
1.97723e-12
1.97683e-12
1.97643e-12
1.97601e-12
1.97559e-12
1.97516e-12
1.97471e-12
1.97426e-12
1.97379e-12
1.97332e-12
1.97283e-12
1.97233e-12
1.97182e-12
1.9713e-12
)
;
    }
    inandouthalf12
    {
        type            cyclic;
        value           nonuniform List<scalar> 
100
(
8.9707e-13
8.55861e-13
8.10259e-13
7.71067e-13
7.32508e-13
6.92305e-13
6.50818e-13
6.08573e-13
5.65804e-13
5.22565e-13
4.78778e-13
4.34346e-13
3.89227e-13
3.4342e-13
2.9695e-13
2.49826e-13
2.02039e-13
1.53576e-13
1.04421e-13
5.45534e-14
3.94154e-15
-4.74527e-14
-9.97021e-14
-1.5289e-13
-2.07105e-13
-2.62431e-13
-3.18927e-13
-3.76609e-13
-4.3542e-13
-4.95179e-13
-5.55586e-13
-6.1625e-13
-6.76741e-13
-7.36677e-13
-7.95885e-13
-8.54482e-13
-9.13068e-13
-9.72831e-13
-1.03568e-12
-1.10441e-12
-1.18284e-12
-1.27583e-12
-1.38815e-12
-1.5211e-12
-1.66624e-12
-1.80156e-12
-1.90132e-12
-1.95612e-12
-1.97795e-12
-1.98433e-12
-1.98576e-12
-1.98596e-12
-1.98592e-12
-1.98581e-12
-1.98568e-12
-1.98553e-12
-1.98538e-12
-1.98522e-12
-1.98504e-12
-1.98487e-12
-1.98467e-12
-1.98448e-12
-1.98428e-12
-1.98407e-12
-1.98386e-12
-1.98365e-12
-1.98342e-12
-1.98319e-12
-1.98296e-12
-1.98271e-12
-1.98245e-12
-1.98218e-12
-1.98191e-12
-1.98162e-12
-1.98133e-12
-1.98103e-12
-1.98072e-12
-1.98041e-12
-1.98009e-12
-1.97977e-12
-1.97943e-12
-1.97909e-12
-1.97873e-12
-1.97837e-12
-1.978e-12
-1.97762e-12
-1.97723e-12
-1.97683e-12
-1.97643e-12
-1.97601e-12
-1.97559e-12
-1.97516e-12
-1.97471e-12
-1.97426e-12
-1.97379e-12
-1.97332e-12
-1.97283e-12
-1.97233e-12
-1.97182e-12
-1.9713e-12
)
;
    }
    inandouthalf21
    {
        type            cyclic;
        value           nonuniform List<scalar> 
100
(
1.97076e-12
1.97021e-12
1.96965e-12
1.96907e-12
1.96848e-12
1.96788e-12
1.96725e-12
1.96661e-12
1.96596e-12
1.96528e-12
1.96459e-12
1.96387e-12
1.96314e-12
1.96238e-12
1.96161e-12
1.9608e-12
1.95998e-12
1.95912e-12
1.95824e-12
1.95733e-12
1.9564e-12
1.95543e-12
1.95443e-12
1.95339e-12
1.95232e-12
1.95121e-12
1.95006e-12
1.94886e-12
1.94762e-12
1.94632e-12
1.94497e-12
1.94356e-12
1.94209e-12
1.94053e-12
1.93887e-12
1.93711e-12
1.93526e-12
1.9333e-12
1.93111e-12
1.9286e-12
1.92587e-12
1.92326e-12
1.92014e-12
1.91607e-12
1.91104e-12
1.90593e-12
5.83613e-12
2.50502e-09
9.17316e-08
1.89558e-07
2.64969e-07
3.26161e-07
3.77245e-07
4.20691e-07
4.58195e-07
4.90992e-07
5.20005e-07
5.45941e-07
5.69348e-07
5.90652e-07
6.10189e-07
6.28226e-07
6.44979e-07
6.60621e-07
6.75293e-07
6.89112e-07
7.02176e-07
7.14564e-07
7.26346e-07
7.37578e-07
7.4831e-07
7.58584e-07
7.68434e-07
7.77894e-07
7.86987e-07
7.95739e-07
8.04168e-07
8.1229e-07
8.20122e-07
8.27674e-07
8.34958e-07
8.41981e-07
8.48751e-07
8.55273e-07
8.61551e-07
8.67588e-07
8.73385e-07
8.78944e-07
8.84262e-07
8.89341e-07
8.94176e-07
8.98767e-07
9.03111e-07
9.07206e-07
9.11047e-07
9.14634e-07
9.17965e-07
9.21039e-07
9.23856e-07
9.26418e-07
)
;
    }
    inandouthalf22
    {
        type            cyclic;
        value           nonuniform List<scalar> 
100
(
-1.97076e-12
-1.97021e-12
-1.96965e-12
-1.96907e-12
-1.96848e-12
-1.96788e-12
-1.96725e-12
-1.96661e-12
-1.96596e-12
-1.96528e-12
-1.96459e-12
-1.96387e-12
-1.96314e-12
-1.96238e-12
-1.96161e-12
-1.9608e-12
-1.95998e-12
-1.95912e-12
-1.95824e-12
-1.95733e-12
-1.9564e-12
-1.95543e-12
-1.95443e-12
-1.95339e-12
-1.95232e-12
-1.95121e-12
-1.95006e-12
-1.94886e-12
-1.94762e-12
-1.94632e-12
-1.94497e-12
-1.94356e-12
-1.94209e-12
-1.94053e-12
-1.93887e-12
-1.93711e-12
-1.93526e-12
-1.9333e-12
-1.93111e-12
-1.9286e-12
-1.92587e-12
-1.92326e-12
-1.92014e-12
-1.91607e-12
-1.91104e-12
-1.90593e-12
-5.83613e-12
-2.50502e-09
-9.17316e-08
-1.89558e-07
-2.64969e-07
-3.26161e-07
-3.77245e-07
-4.20691e-07
-4.58195e-07
-4.90992e-07
-5.20005e-07
-5.45941e-07
-5.69348e-07
-5.90652e-07
-6.10189e-07
-6.28226e-07
-6.44979e-07
-6.60621e-07
-6.75293e-07
-6.89112e-07
-7.02176e-07
-7.14564e-07
-7.26346e-07
-7.37578e-07
-7.4831e-07
-7.58584e-07
-7.68434e-07
-7.77894e-07
-7.86987e-07
-7.95739e-07
-8.04168e-07
-8.1229e-07
-8.20122e-07
-8.27674e-07
-8.34958e-07
-8.41981e-07
-8.48751e-07
-8.55273e-07
-8.61551e-07
-8.67588e-07
-8.73385e-07
-8.78944e-07
-8.84262e-07
-8.89341e-07
-8.94176e-07
-8.98767e-07
-9.03111e-07
-9.07206e-07
-9.11047e-07
-9.14634e-07
-9.17965e-07
-9.21039e-07
-9.23856e-07
-9.26418e-07
)
;
    }
    inandouthalf31
    {
        type            cyclic;
        value           nonuniform List<scalar> 
110
(
9.28733e-07
9.49713e-07
9.70947e-07
9.92428e-07
1.01415e-06
1.03612e-06
1.05833e-06
1.08078e-06
1.10348e-06
1.12645e-06
1.14968e-06
1.17319e-06
1.19698e-06
1.22107e-06
1.24547e-06
1.27017e-06
1.2952e-06
1.32056e-06
1.34625e-06
1.37228e-06
1.39866e-06
1.42539e-06
1.45248e-06
1.47992e-06
1.50774e-06
1.53593e-06
1.5645e-06
1.59345e-06
1.62279e-06
1.65253e-06
1.68267e-06
1.71323e-06
1.7442e-06
1.77561e-06
1.80746e-06
1.83977e-06
1.87254e-06
1.90581e-06
1.93958e-06
1.97388e-06
2.00874e-06
2.0442e-06
2.0803e-06
2.1171e-06
2.15467e-06
2.19312e-06
2.23259e-06
2.27332e-06
2.31576e-06
2.36138e-06
2.40919e-06
2.45809e-06
2.50798e-06
2.55888e-06
2.61082e-06
2.66381e-06
2.71788e-06
2.77304e-06
2.82933e-06
2.88676e-06
2.94535e-06
3.00513e-06
3.06613e-06
3.12836e-06
3.19186e-06
3.25664e-06
3.32275e-06
3.39019e-06
3.459e-06
3.52921e-06
3.60084e-06
3.67393e-06
3.7485e-06
3.82459e-06
3.90221e-06
3.98142e-06
4.06223e-06
4.14468e-06
4.22881e-06
4.31464e-06
4.40222e-06
4.49157e-06
4.58274e-06
4.67576e-06
4.77066e-06
4.86749e-06
4.96629e-06
5.06709e-06
5.16994e-06
5.27488e-06
5.38194e-06
5.49118e-06
5.60264e-06
5.71636e-06
5.83238e-06
5.95077e-06
6.07155e-06
6.19479e-06
6.32053e-06
6.44882e-06
6.57971e-06
6.71326e-06
6.84952e-06
6.98855e-06
7.1304e-06
7.27512e-06
7.42279e-06
7.57345e-06
7.72717e-06
7.88402e-06
)
;
    }
    inandouthalf32
    {
        type            cyclic;
        value           nonuniform List<scalar> 
110
(
-9.28733e-07
-9.49713e-07
-9.70947e-07
-9.92428e-07
-1.01415e-06
-1.03612e-06
-1.05833e-06
-1.08078e-06
-1.10348e-06
-1.12645e-06
-1.14968e-06
-1.17319e-06
-1.19698e-06
-1.22107e-06
-1.24547e-06
-1.27017e-06
-1.2952e-06
-1.32056e-06
-1.34625e-06
-1.37228e-06
-1.39866e-06
-1.42539e-06
-1.45248e-06
-1.47992e-06
-1.50774e-06
-1.53593e-06
-1.5645e-06
-1.59345e-06
-1.62279e-06
-1.65253e-06
-1.68267e-06
-1.71323e-06
-1.7442e-06
-1.77561e-06
-1.80746e-06
-1.83977e-06
-1.87254e-06
-1.90581e-06
-1.93958e-06
-1.97388e-06
-2.00874e-06
-2.0442e-06
-2.0803e-06
-2.1171e-06
-2.15467e-06
-2.19312e-06
-2.23259e-06
-2.27332e-06
-2.31576e-06
-2.36138e-06
-2.40919e-06
-2.45809e-06
-2.50798e-06
-2.55888e-06
-2.61082e-06
-2.66381e-06
-2.71788e-06
-2.77304e-06
-2.82933e-06
-2.88676e-06
-2.94535e-06
-3.00513e-06
-3.06613e-06
-3.12836e-06
-3.19186e-06
-3.25664e-06
-3.32275e-06
-3.39019e-06
-3.459e-06
-3.52921e-06
-3.60084e-06
-3.67393e-06
-3.7485e-06
-3.82459e-06
-3.90221e-06
-3.98142e-06
-4.06223e-06
-4.14468e-06
-4.22881e-06
-4.31464e-06
-4.40222e-06
-4.49157e-06
-4.58274e-06
-4.67576e-06
-4.77066e-06
-4.86749e-06
-4.96629e-06
-5.06709e-06
-5.16994e-06
-5.27488e-06
-5.38194e-06
-5.49118e-06
-5.60264e-06
-5.71636e-06
-5.83238e-06
-5.95077e-06
-6.07155e-06
-6.19479e-06
-6.32053e-06
-6.44882e-06
-6.57971e-06
-6.71326e-06
-6.84952e-06
-6.98855e-06
-7.1304e-06
-7.27512e-06
-7.42279e-06
-7.57345e-06
-7.72717e-06
-7.88402e-06
)
;
    }
    inandouthalf41
    {
        type            cyclic;
        value           nonuniform List<scalar> 
50
(
7.057e-06
7.057e-06
7.057e-06
7.057e-06
7.057e-06
7.057e-06
7.057e-06
7.057e-06
7.057e-06
7.057e-06
7.057e-06
7.057e-06
7.057e-06
7.057e-06
7.057e-06
7.057e-06
7.057e-06
7.057e-06
7.057e-06
7.057e-06
7.057e-06
7.057e-06
7.057e-06
7.057e-06
7.057e-06
7.057e-06
7.057e-06
7.057e-06
7.057e-06
7.057e-06
7.057e-06
7.057e-06
7.057e-06
7.057e-06
7.057e-06
7.057e-06
7.057e-06
7.057e-06
7.057e-06
7.057e-06
7.057e-06
7.057e-06
7.057e-06
7.057e-06
7.057e-06
7.057e-06
7.057e-06
7.057e-06
7.057e-06
7.057e-06
)
;
    }
    inandouthalf42
    {
        type            cyclic;
        value           nonuniform List<scalar> 
50
(
-7.057e-06
-7.057e-06
-7.057e-06
-7.057e-06
-7.057e-06
-7.057e-06
-7.057e-06
-7.057e-06
-7.057e-06
-7.057e-06
-7.057e-06
-7.057e-06
-7.057e-06
-7.057e-06
-7.057e-06
-7.057e-06
-7.057e-06
-7.057e-06
-7.057e-06
-7.057e-06
-7.057e-06
-7.057e-06
-7.057e-06
-7.057e-06
-7.057e-06
-7.057e-06
-7.057e-06
-7.057e-06
-7.057e-06
-7.057e-06
-7.057e-06
-7.057e-06
-7.057e-06
-7.057e-06
-7.057e-06
-7.057e-06
-7.057e-06
-7.057e-06
-7.057e-06
-7.057e-06
-7.057e-06
-7.057e-06
-7.057e-06
-7.057e-06
-7.057e-06
-7.057e-06
-7.057e-06
-7.057e-06
-7.057e-06
-7.057e-06
)
;
    }
    top
    {
        type            symmetryPlane;
        value           uniform 0;
    }
    walls
    {
        type            fixedValue;
        value           uniform 0;
    }
    frontAndBackPlanes
    {
        type            empty;
        value           nonuniform 0();
    }
}


// ************************************************************************* //
