/*--------------------------------*- C++ -*----------------------------------*\
| =========                 |                                                 |
| \\      /  F ield         | OpenFOAM: The Open Source CFD Toolbox           |
|  \\    /   O peration     | Version:  2.4.x                                 |
|   \\  /    A nd           | Web:      www.OpenFOAM.org                      |
|    \\/     M anipulation  |                                                 |
\*---------------------------------------------------------------------------*/
FoamFile
{
    version     2.0;
    format      ascii;
    class       volVectorField;
    location    "5.15";
    object      susb;
}
// * * * * * * * * * * * * * * * * * * * * * * * * * * * * * * * * * * * * * //

dimensions      [0 1 -2 0 0 0 0];

internalField   nonuniform List<vector> 
360
(
(0 4.62528e-18 0)
(0 5.5849e-18 0)
(0 5.15311e-19 0)
(0 -7.76685e-19 0)
(-3.6868e-31 -5.26963e-19 0)
(-7.37235e-31 -3.28296e-19 0)
(-3.68563e-31 -3.19579e-19 0)
(0 -3.31842e-19 0)
(-7.36889e-31 -3.39521e-19 0)
(0 -3.53384e-19 0)
(-3.68318e-31 -3.60576e-19 0)
(0 -3.62391e-19 0)
(-3.68189e-31 -3.62959e-19 0)
(0 -3.63156e-19 0)
(0 -3.66302e-19 0)
(0 -3.70702e-19 0)
(0 -3.74044e-19 0)
(-3.6786e-31 -3.76332e-19 0)
(0 -3.80676e-19 0)
(0 -3.82605e-19 0)
(0 -3.84974e-19 0)
(-3.67587e-31 -3.90249e-19 0)
(0 -3.93721e-19 0)
(0 -3.98217e-19 0)
(0 -4.03024e-19 0)
(-3.67303e-31 -4.06964e-19 0)
(0 -4.13293e-19 0)
(0 -4.1953e-19 0)
(0 -4.22417e-19 0)
(0 -4.24452e-19 0)
(0 -4.27578e-19 0)
(0 -4.24021e-19 0)
(0 -4.22239e-19 0)
(0 -4.18875e-19 0)
(0 -4.11743e-19 0)
(3.66555e-31 -4.09504e-19 0)
(0 -4.11432e-19 0)
(0 -4.24998e-19 0)
(0 -4.40952e-19 0)
(0 -4.76994e-19 0)
(0 -5.35414e-19 0)
(0 -6.02709e-19 0)
(3.65947e-31 -6.89309e-19 0)
(0 -7.55455e-19 0)
(0 -7.51125e-19 0)
(0 -6.57632e-19 0)
(0 -4.9042e-19 0)
(0 -3.34524e-19 0)
(0 -2.48686e-19 0)
(0 -2.08583e-19 0)
(3.6525e-31 -2.01854e-19 0)
(0 -2.13267e-19 0)
(0 -2.2677e-19 0)
(0 -2.39975e-19 0)
(0 -2.58199e-19 0)
(0 -2.74766e-19 0)
(0 -2.89848e-19 0)
(0 -3.09e-19 0)
(0 -3.19579e-19 0)
(0 -3.39092e-19 0)
(0 -3.54265e-19 0)
(0 -3.64965e-19 0)
(0 -3.77052e-19 0)
(0 -3.84521e-19 0)
(0 -3.93809e-19 0)
(0 -4.05214e-19 0)
(0 -4.19873e-19 0)
(0 -4.33699e-19 0)
(0 -4.46828e-19 0)
(0 -4.66295e-19 0)
(0 -4.88538e-19 0)
(0 -5.00291e-19 0)
(0 -5.15087e-19 0)
(0 -5.31988e-19 0)
(0 -5.45239e-19 0)
(0 -5.56305e-19 0)
(0 -5.65317e-19 0)
(0 -5.78568e-19 0)
(0 -5.9254e-19 0)
(0 -6.05881e-19 0)
(0 -6.21021e-19 0)
(0 -6.38535e-19 0)
(0 -6.55273e-19 0)
(0 -6.71889e-19 0)
(0 -6.88065e-19 0)
(0 -7.03784e-19 0)
(0 -7.18779e-19 0)
(0 -7.33056e-19 0)
(0 -7.48191e-19 0)
(0 -7.63958e-19 0)
(0 -7.80194e-19 0)
(0 -7.97608e-19 0)
(0 -8.16016e-19 0)
(0 -8.34829e-19 0)
(0 -8.54097e-19 0)
(0 -8.73737e-19 0)
(0 -8.93652e-19 0)
(0 -9.13924e-19 0)
(0 -9.34747e-19 0)
(0 -9.56208e-19 0)
(0 -9.78377e-19 0)
(0 -1.00138e-18 0)
(0 -1.02524e-18 0)
(0 -1.04995e-18 0)
(0 -1.07555e-18 0)
(0 -1.10211e-18 0)
(0 -1.12969e-18 0)
(0 -1.15836e-18 0)
(0 -1.18821e-18 0)
(0 -1.21931e-18 0)
(0 -1.25172e-18 0)
(0 -1.28552e-18 0)
(0 -1.32077e-18 0)
(0 -1.35755e-18 0)
(0 -1.39592e-18 0)
(0 -1.43598e-18 0)
(0 -1.4778e-18 0)
(0 -1.52151e-18 0)
(0 -1.56719e-18 0)
(0 -1.61498e-18 0)
(0 -1.66498e-18 0)
(0 -1.71726e-18 0)
(0 -1.77193e-18 0)
(0 -1.82915e-18 0)
(0 -1.88934e-18 0)
(0 -1.95329e-18 0)
(0 -2.02214e-18 0)
(0 -2.09693e-18 0)
(0 -2.17773e-18 0)
(0 -2.26316e-18 0)
(0 -2.352e-18 0)
(0 -2.44834e-18 0)
(0 -4.09336e-18 0)
(0 -1.8372e-17 0)
(0 -9.30075e-17 0)
(0 -4.94927e-16 0)
(0 -2.83183e-15 0)
(0 -1.82329e-14 0)
(0 -1.36306e-13 0)
(0 -1.14351e-12 0)
(0 -1.01077e-11 0)
(0 -1.10269e-10 0)
(0 -1.67539e-09 0)
(0 -3.10561e-08 0)
(0 -8.48033e-07 0)
(0 -5.01157e-05 0)
(0 -0.0215046 0)
(0 -1.27052 0)
(0 -2.96569 0)
(0 -1.61904 0)
(0 -1.0404 0)
(0 -0.904409 0)
(0 -0.800998 0)
(0 -0.704585 0)
(0 -0.611299 0)
(0 -0.523577 0)
(0 -0.444135 0)
(0 -0.374433 0)
(0 -0.314672 0)
(0 -0.264214 0)
(0 -0.222003 0)
(0 -0.186861 0)
(0 -0.157658 0)
(0 -0.133384 0)
(0 -0.113174 0)
(0 -0.0963075 0)
(0 -0.0821906 0)
(0 -0.0703375 0)
(0 -0.0603523 0)
(0 -0.051913 0)
(0 -0.0447567 0)
(0 -0.0386692 0)
(0 -0.0334749 0)
(0 -0.0290297 0)
(0 -0.0252149 0)
(0 -0.0219325 0)
(0 -0.0191011 0)
(0 -0.0166539 0)
(0 -0.0145371 0)
(0 -0.0127088 0)
(0 -0.0111369 0)
(0 -0.00979322 0)
(0 -0.00864616 0)
(0 -0.00765522 0)
(0 -0.00677258 0)
(0 -0.00595343 0)
(0 -0.00516969 0)
(0 -0.0044178 0)
(0 -0.00371449 0)
(0 -0.00308198 0)
(0 -0.00253452 0)
(0 -0.00207858 0)
(0 -0.00171908 0)
(0 -0.00145205 0)
(0 -0.00125155 0)
(0 -0.00108077 0)
(0 -0.000918491 0)
(0 -0.000766134 0)
(0 -0.000633685 0)
(0 -0.000524893 0)
(0 -0.000434696 0)
(0 -0.000359574 0)
(-7.89374e-20 -0.000301882 0)
(0 -0.000255923 0)
(0 -0.000212321 0)
(3.83544e-20 -0.000176853 0)
(0 -0.0001528 0)
(-3.79182e-20 -0.000129745 0)
(0 -0.000107522 0)
(3.75799e-20 -9.2155e-05 0)
(0 -7.92111e-05 0)
(0 -6.6629e-05 0)
(0 -5.70798e-05 0)
(1.83017e-20 -4.83787e-05 0)
(0 -4.04354e-05 0)
(0 -3.5069e-05 0)
(0 -2.9433e-05 0)
(0 -2.38515e-05 0)
(0 -2.05226e-05 0)
(-4.14127e-21 -1.7311e-05 0)
(0 -1.40353e-05 0)
(-3.92716e-21 -1.16592e-05 0)
(0 -9.58577e-06 0)
(-3.68642e-21 -7.99677e-06 0)
(0 -6.5209e-06 0)
(0 -5.13424e-06 0)
(0 -4.25789e-06 0)
(0 -3.39393e-06 0)
(0 -2.6235e-06 0)
(0 -2.09397e-06 0)
(0 -1.64913e-06 0)
(0 -1.31352e-06 0)
(0 -1.00629e-06 0)
(0 -6.1906e-07 0)
(0 -3.9759e-07 0)
(0 -2.38672e-07 0)
(0 -6.33938e-08 0)
(0 -3.10815e-07 0)
(0 -2.96992e-07 0)
(0 -1.63864e-08 0)
(0 -3.26829e-20 0)
(0 -1.24976e-20 0)
(0 -1.69394e-20 0)
(-1.45441e-36 -1.26213e-20 0)
(6.00576e-37 -5.05843e-21 0)
(0 -1.7082e-21 0)
(0 -4.96742e-22 0)
(-5.21832e-38 -1.42796e-22 0)
(0 -2.61125e-23 0)
(0 -1.42902e-24 0)
(-1.65422e-41 -2.63985e-26 0)
(0 -4.69978e-28 0)
(0 -8.01556e-30 0)
(0 -9.42327e-32 0)
(0 -6.18166e-34 0)
(0 -2.57078e-36 0)
(0 -1.05653e-38 0)
(0 -1.231e-40 0)
(0 -5.68852e-41 0)
(0 -3.78805e-41 0)
(0 -3.49485e-41 0)
(0 -2.9465e-41 0)
(0 -1.58821e-41 0)
(0 -6.05531e-42 0)
(0 -2.72974e-42 0)
(0 -1.3747e-42 0)
(0 -7.93181e-43 0)
(0 -5.01756e-43 0)
(0 -2.68239e-43 0)
(0 -1.21187e-43 0)
(0 -5.98804e-44 0)
(0 -3.00991e-44 0)
(0 -1.48873e-44 0)
(0 -7.24104e-45 0)
(0 -3.4528e-45 0)
(0 -1.61281e-45 0)
(0 -7.37392e-46 0)
(0 -3.29737e-46 0)
(0 -1.44085e-46 0)
(0 -6.14684e-47 0)
(0 -2.5577e-47 0)
(0 -1.03696e-47 0)
(0 -4.09177e-48 0)
(0 -1.56957e-48 0)
(0 -5.84552e-49 0)
(0 -2.11078e-49 0)
(1.0673e-65 -7.3791e-50 0)
(0 -2.4935e-50 0)
(0 -8.13035e-51 0)
(0 -2.55318e-51 0)
(0 -7.70599e-52 0)
(0 -2.23029e-52 0)
(0 -6.17433e-53 0)
(0 -1.63042e-53 0)
(0 -4.09387e-54 0)
(0 -9.74023e-55 0)
(3.33027e-71 -2.18713e-55 0)
(0 -4.61395e-56 0)
(0 -9.09663e-57 0)
(-1.22478e-73 -1.66583e-57 0)
(0 -2.81296e-58 0)
(0 -4.34194e-59 0)
(0 -6.06088e-60 0)
(0 -7.54877e-61 0)
(0 -8.2442e-62 0)
(0 -7.71238e-63 0)
(0 -5.97835e-64 0)
(0 -3.64954e-65 0)
(0 -1.60659e-66 0)
(0 -4.21024e-68 0)
(0 -3.03483e-70 0)
(0 -1.6105e-73 0)
(0 -2.07248e-75 0)
(0 -1.32356e-77 0)
(0 -3.07899e-88 0)
(0 -3.57792e-99 0)
(0 -2.97014e-110 0)
(0 -1.82081e-121 0)
(0 -9.32598e-133 0)
(0 -3.85413e-144 0)
(0 -1.41521e-155 0)
(0 -1.47942e-164 0)
(0 -4.7129e-175 0)
(0 -5.10053e-183 0)
(0 -1.4694e-193 0)
(0 -1.75463e-201 0)
(0 -6.06384e-212 0)
(0 -6.03576e-220 0)
(0 -2.64257e-230 0)
(0 -2.07798e-238 0)
(0 -1.73182e-248 0)
(0 -7.23172e-257 0)
(0 -1.14158e-266 0)
(0 -2.55852e-275 0)
(0 -5.70294e-285 0)
(0 -9.1967e-294 0)
(0 -2.70285e-303 0)
(0 -3.35566e-312 0)
(0 -1.1907e-321 0)
(0 -0 0)
(0 0 0)
(0 0 0)
(0 0 0)
(0 0 0)
(0 0 0)
(0 0 0)
(0 0 0)
(0 0 0)
(0 0 0)
(0 0 0)
(0 0 0)
(0 0 0)
(0 0 0)
(0 0 0)
(0 0 0)
(0 0 0)
(0 0 0)
(0 0 0)
(0 0 0)
(0 0 0)
)
;

boundaryField
{
    inandouthalf11
    {
        type            cyclic;
    }
    inandouthalf12
    {
        type            cyclic;
    }
    inandouthalf21
    {
        type            cyclic;
    }
    inandouthalf22
    {
        type            cyclic;
    }
    inandouthalf31
    {
        type            cyclic;
    }
    inandouthalf32
    {
        type            cyclic;
    }
    inandouthalf41
    {
        type            cyclic;
    }
    inandouthalf42
    {
        type            cyclic;
    }
    top
    {
        type            symmetryPlane;
    }
    walls
    {
        type            zeroGradient;
    }
    frontAndBackPlanes
    {
        type            empty;
    }
}


// ************************************************************************* //
