/*--------------------------------*- C++ -*----------------------------------*\
| =========                 |                                                 |
| \\      /  F ield         | OpenFOAM: The Open Source CFD Toolbox           |
|  \\    /   O peration     | Version:  2.4.x                                 |
|   \\  /    A nd           | Web:      www.OpenFOAM.org                      |
|    \\/     M anipulation  |                                                 |
\*---------------------------------------------------------------------------*/
FoamFile
{
    version     2.0;
    format      ascii;
    class       volTensorField;
    location    "5.15";
    object      Tauf;
}
// * * * * * * * * * * * * * * * * * * * * * * * * * * * * * * * * * * * * * //

dimensions      [0 2 -2 0 0 0 0];

internalField   nonuniform List<tensor> 
360
(
(0 1.75293e-09 0 1.75293e-09 9.01706e-10 0 0 0 0)
(0 -8.68108e-11 0 -8.68108e-11 1.17201e-09 0 0 0 0)
(0 -8.47938e-11 0 -8.47938e-11 1.23584e-09 0 0 0 0)
(0 -7.77512e-11 0 -7.77512e-11 1.1591e-09 0 0 0 0)
(-2.01948e-25 -7.87618e-11 0 -7.87618e-11 1.14748e-09 0 0 0 0)
(-2.01948e-25 -8.16896e-11 0 -8.16896e-11 1.16986e-09 0 0 0 0)
(-1.00974e-25 -8.37321e-11 0 -8.37321e-11 1.19009e-09 0 0 0 0)
(0 -8.5014e-11 0 -8.5014e-11 1.20061e-09 0 0 0 0)
(-1.00974e-25 -8.60076e-11 0 -8.60076e-11 1.20604e-09 0 0 0 0)
(0 -8.70258e-11 0 -8.70258e-11 1.21151e-09 0 0 0 0)
(-1.00974e-25 -8.8219e-11 0 -8.8219e-11 1.21901e-09 0 0 0 0)
(0 -8.95519e-11 0 -8.95519e-11 1.22804e-09 0 0 0 0)
(-1.00974e-25 -9.0926e-11 0 -9.0926e-11 1.2374e-09 0 0 0 0)
(0 -9.22766e-11 0 -9.22766e-11 1.24623e-09 0 0 0 0)
(0 -9.35945e-11 0 -9.35945e-11 1.25443e-09 0 0 0 0)
(0 -9.49109e-11 0 -9.49109e-11 1.26241e-09 0 0 0 0)
(0 -9.62497e-11 0 -9.62497e-11 1.27041e-09 0 0 0 0)
(-2.52435e-26 -9.76181e-11 0 -9.76181e-11 1.2785e-09 0 0 0 0)
(0 -9.90227e-11 0 -9.90227e-11 1.28687e-09 0 0 0 0)
(0 -1.00479e-10 0 -1.00479e-10 1.29563e-09 0 0 0 0)
(0 -1.02006e-10 0 -1.02006e-10 1.30498e-09 0 0 0 0)
(1.26218e-26 -1.03644e-10 0 -1.03644e-10 1.31555e-09 0 0 0 0)
(0 -1.05437e-10 0 -1.05437e-10 1.32771e-09 0 0 0 0)
(0 -1.07403e-10 0 -1.07403e-10 1.34166e-09 0 0 0 0)
(0 -1.09541e-10 0 -1.09541e-10 1.35739e-09 0 0 0 0)
(5.04871e-26 -1.11822e-10 0 -1.11822e-10 1.3744e-09 0 0 0 0)
(0 -1.14179e-10 0 -1.14179e-10 1.39191e-09 0 0 0 0)
(0 -1.16494e-10 0 -1.16494e-10 1.40845e-09 0 0 0 0)
(0 -1.18569e-10 0 -1.18569e-10 1.42161e-09 0 0 0 0)
(0 -1.20166e-10 0 -1.20166e-10 1.42868e-09 0 0 0 0)
(0 -1.21071e-10 0 -1.21071e-10 1.42753e-09 0 0 0 0)
(0 -1.21155e-10 0 -1.21155e-10 1.41659e-09 0 0 0 0)
(0 -1.20427e-10 0 -1.20427e-10 1.39646e-09 0 0 0 0)
(0 -1.19143e-10 0 -1.19143e-10 1.37028e-09 0 0 0 0)
(0 -1.17804e-10 0 -1.17804e-10 1.34369e-09 0 0 0 0)
(-2.01948e-25 -1.17184e-10 0 -1.17184e-10 1.32566e-09 0 0 0 0)
(0 -1.1835e-10 0 -1.1835e-10 1.32787e-09 0 0 0 0)
(0 -1.22614e-10 0 -1.22614e-10 1.36504e-09 0 0 0 0)
(0 -1.31576e-10 0 -1.31576e-10 1.45393e-09 0 0 0 0)
(0 -1.47152e-10 0 -1.47152e-10 1.61493e-09 0 0 0 0)
(0 -1.71424e-10 0 -1.71424e-10 1.86816e-09 0 0 0 0)
(0 -2.05318e-10 0 -2.05318e-10 2.2162e-09 0 0 0 0)
(-2.01948e-25 -2.45266e-10 0 -2.45266e-10 2.61147e-09 0 0 0 0)
(0 -2.78086e-10 0 -2.78086e-10 2.91295e-09 0 0 0 0)
(0 -2.80465e-10 0 -2.80465e-10 2.90576e-09 0 0 0 0)
(0 -2.35083e-10 0 -2.35083e-10 2.4549e-09 0 0 0 0)
(0 -1.54557e-10 0 -1.54557e-10 1.6789e-09 0 0 0 0)
(0 -7.66273e-11 0 -7.66273e-11 8.99559e-10 0 0 0 0)
(0 -2.82125e-11 0 -2.82125e-11 3.70441e-10 0 0 0 0)
(0 -7.80585e-12 0 -7.80585e-12 1.15807e-10 0 0 0 0)
(-4.03897e-25 -1.6324e-12 0 -1.6324e-12 2.63008e-11 0 0 0 0)
(0 -1.62072e-13 0 -1.62072e-13 2.21037e-12 0 0 0 0)
(0 1.57974e-13 0 1.57974e-13 -3.36717e-12 0 0 0 0)
(0 2.38181e-13 0 2.38181e-13 -4.83321e-12 0 0 0 0)
(0 2.7452e-13 0 2.7452e-13 -5.35847e-12 0 0 0 0)
(0 2.97618e-13 0 2.97618e-13 -5.7775e-12 0 0 0 0)
(0 3.15879e-13 0 3.15879e-13 -6.2064e-12 0 0 0 0)
(0 3.37443e-13 0 3.37443e-13 -6.41759e-12 0 0 0 0)
(0 3.4898e-13 0 3.4898e-13 -6.92076e-12 0 0 0 0)
(0 3.69932e-13 0 3.69932e-13 -7.11937e-12 0 0 0 0)
(0 3.85781e-13 0 3.85781e-13 -7.43222e-12 0 0 0 0)
(0 3.9648e-13 0 3.9648e-13 -7.74384e-12 0 0 0 0)
(0 4.0863e-13 0 4.0863e-13 -7.89518e-12 0 0 0 0)
(0 4.15786e-13 0 4.15786e-13 -8.14767e-12 0 0 0 0)
(0 4.25185e-13 0 4.25185e-13 -8.34302e-12 0 0 0 0)
(0 4.37235e-13 0 4.37235e-13 -8.59945e-12 0 0 0 0)
(0 4.53193e-13 0 4.53193e-13 -8.8443e-12 0 0 0 0)
(0 4.68486e-13 0 4.68486e-13 -9.14084e-12 0 0 0 0)
(0 4.83184e-13 0 4.83184e-13 -9.53393e-12 0 0 0 0)
(0 5.04983e-13 0 5.04983e-13 -9.8935e-12 0 0 0 0)
(0 5.29879e-13 0 5.29879e-13 -1.01573e-11 0 0 0 0)
(0 5.43152e-13 0 5.43152e-13 -1.06251e-11 0 0 0 0)
(0 5.59752e-13 0 5.59752e-13 -1.09264e-11 0 0 0 0)
(0 5.78645e-13 0 5.78645e-13 -1.1195e-11 0 0 0 0)
(0 5.93461e-13 0 5.93461e-13 -1.15008e-11 0 0 0 0)
(0 6.05827e-13 0 6.05827e-13 -1.17384e-11 0 0 0 0)
(0 6.15906e-13 0 6.15906e-13 -1.20305e-11 0 0 0 0)
(0 6.30693e-13 0 6.30693e-13 -1.22562e-11 0 0 0 0)
(0 6.46288e-13 0 6.46288e-13 -1.25318e-11 0 0 0 0)
(0 6.61186e-13 0 6.61186e-13 -1.28542e-11 0 0 0 0)
(0 6.78082e-13 0 6.78082e-13 -1.31853e-11 0 0 0 0)
(0 6.97615e-13 0 6.97615e-13 -1.35073e-11 0 0 0 0)
(0 7.16274e-13 0 7.16274e-13 -1.38733e-11 0 0 0 0)
(0 7.34785e-13 0 7.34785e-13 -1.4221e-11 0 0 0 0)
(0 7.52804e-13 0 7.52804e-13 -1.45639e-11 0 0 0 0)
(0 7.70322e-13 0 7.70322e-13 -1.48931e-11 0 0 0 0)
(0 7.87059e-13 0 7.87059e-13 -1.52112e-11 0 0 0 0)
(0 8.03041e-13 0 8.03041e-13 -1.55394e-11 0 0 0 0)
(0 8.20042e-13 0 8.20042e-13 -1.58574e-11 0 0 0 0)
(0 8.37823e-13 0 8.37823e-13 -1.61902e-11 0 0 0 0)
(0 8.56207e-13 0 8.56207e-13 -1.65474e-11 0 0 0 0)
(0 8.7599e-13 0 8.7599e-13 -1.69158e-11 0 0 0 0)
(0 8.96963e-13 0 8.96963e-13 -1.72993e-11 0 0 0 0)
(0 9.18461e-13 0 9.18461e-13 -1.7702e-11 0 0 0 0)
(0 9.4054e-13 0 9.4054e-13 -1.81125e-11 0 0 0 0)
(0 9.63105e-13 0 9.63105e-13 -1.8531e-11 0 0 0 0)
(0 9.8605e-13 0 9.8605e-13 -1.89584e-11 0 0 0 0)
(0 1.00947e-12 0 1.00947e-12 -1.93956e-11 0 0 0 0)
(0 1.0336e-12 0 1.0336e-12 -1.98431e-11 0 0 0 0)
(0 1.05853e-12 0 1.05853e-12 -2.03042e-11 0 0 0 0)
(0 1.08436e-12 0 1.08436e-12 -2.07818e-11 0 0 0 0)
(0 1.11122e-12 0 1.11122e-12 -2.12758e-11 0 0 0 0)
(0 1.13917e-12 0 1.13917e-12 -2.1788e-11 0 0 0 0)
(0 1.16817e-12 0 1.16817e-12 -2.23197e-11 0 0 0 0)
(0 1.19831e-12 0 1.19831e-12 -2.2871e-11 0 0 0 0)
(0 1.22966e-12 0 1.22966e-12 -2.34431e-11 0 0 0 0)
(0 1.2623e-12 0 1.2623e-12 -2.40377e-11 0 0 0 0)
(0 1.29631e-12 0 1.29631e-12 -2.46562e-11 0 0 0 0)
(0 1.33182e-12 0 1.33182e-12 -2.53002e-11 0 0 0 0)
(0 1.3689e-12 0 1.3689e-12 -2.59713e-11 0 0 0 0)
(0 1.40764e-12 0 1.40764e-12 -2.6671e-11 0 0 0 0)
(0 1.44812e-12 0 1.44812e-12 -2.74007e-11 0 0 0 0)
(0 1.49044e-12 0 1.49044e-12 -2.81621e-11 0 0 0 0)
(0 1.53469e-12 0 1.53469e-12 -2.89566e-11 0 0 0 0)
(0 1.58095e-12 0 1.58095e-12 -2.97859e-11 0 0 0 0)
(0 1.62932e-12 0 1.62932e-12 -3.06517e-11 0 0 0 0)
(0 1.67993e-12 0 1.67993e-12 -3.15561e-11 0 0 0 0)
(0 1.73288e-12 0 1.73288e-12 -3.25012e-11 0 0 0 0)
(0 1.78833e-12 0 1.78833e-12 -3.34893e-11 0 0 0 0)
(0 1.84642e-12 0 1.84642e-12 -3.45227e-11 0 0 0 0)
(0 1.90729e-12 0 1.90729e-12 -3.56036e-11 0 0 0 0)
(0 1.97106e-12 0 1.97106e-12 -3.67342e-11 0 0 0 0)
(0 2.03789e-12 0 2.03789e-12 -3.79179e-11 0 0 0 0)
(0 2.10803e-12 0 2.10803e-12 -3.91612e-11 0 0 0 0)
(0 2.18203e-12 0 2.18203e-12 -4.04754e-11 0 0 0 0)
(0 2.26093e-12 0 2.26093e-12 -4.18773e-11 0 0 0 0)
(0 2.34618e-12 0 2.34618e-12 -4.33847e-11 0 0 0 0)
(0 2.43918e-12 0 2.43918e-12 -4.50063e-11 0 0 0 0)
(0 2.54018e-12 0 2.54018e-12 -4.6736e-11 0 0 0 0)
(0 2.64772e-12 0 2.64772e-12 -4.85711e-11 0 0 0 0)
(0 2.76051e-12 0 2.76051e-12 -5.0568e-11 0 0 0 0)
(0 2.88353e-12 0 2.88353e-12 -5.28624e-11 0 0 0 0)
(0 3.03157e-12 0 3.03157e-12 -5.55276e-11 0 0 0 0)
(0 3.21516e-12 0 3.21516e-12 -5.84281e-11 0 0 0 0)
(0 3.41654e-12 0 3.41654e-12 -6.14861e-11 0 0 0 0)
(0 3.6076e-12 0 3.6076e-12 -6.50804e-11 0 0 0 0)
(0 3.81603e-12 0 3.81603e-12 -7.00399e-11 0 0 0 0)
(0 4.15155e-12 0 4.15155e-12 -7.68516e-11 0 0 0 0)
(0 4.69799e-12 0 4.69799e-12 -8.3417e-11 0 0 0 0)
(0 5.24428e-12 0 5.24428e-12 -8.67482e-11 0 0 0 0)
(0 5.33844e-12 0 5.33844e-12 -9.77963e-11 0 0 0 0)
(0 5.72837e-12 0 5.72837e-12 -1.14084e-10 0 0 0 0)
(0 7.18786e-12 0 7.18786e-12 -1.30396e-10 0 0 0 0)
(0 9.10227e-12 0 9.10227e-12 -1.93797e-10 0 0 0 0)
(0 1.01449e-11 0 1.01449e-11 3.07154e-10 0 0 0 0)
(0 -3.93114e-09 0 -3.93114e-09 -1.17832e-08 0 0 0 0)
(0 -2.60747e-06 0 -2.60747e-06 4.35523e-08 0 0 0 0)
(0 -0.000183527 0 -0.000183527 6.79234e-07 0 0 0 0)
(0 -0.00159062 0 -0.00159062 1.05312e-06 0 0 0 0)
(0 -0.00294405 0 -0.00294405 -2.60429e-06 0 0 0 0)
(0 -0.00328434 0 -0.00328434 -6.03084e-07 0 0 0 0)
(0 -0.00341363 0 -0.00341363 -1.95907e-06 0 0 0 0)
(0 -0.00344562 0 -0.00344562 -2.16904e-06 0 0 0 0)
(0 -0.0034285 0 -0.0034285 -2.28766e-06 0 0 0 0)
(0 -0.00338812 0 -0.00338812 -2.28532e-06 0 0 0 0)
(0 -0.00333754 0 -0.00333754 -2.17235e-06 0 0 0 0)
(0 -0.00328305 0 -0.00328305 -1.97914e-06 0 0 0 0)
(0 -0.00322739 0 -0.00322739 -1.74241e-06 0 0 0 0)
(0 -0.00317154 0 -0.00317154 -1.49164e-06 0 0 0 0)
(0 -0.00311568 0 -0.00311568 -1.24666e-06 0 0 0 0)
(0 -0.00305969 0 -0.00305969 -1.0192e-06 0 0 0 0)
(0 -0.00300333 0 -0.00300333 -8.15146e-07 0 0 0 0)
(0 -0.00294638 0 -0.00294638 -6.36571e-07 0 0 0 0)
(0 -0.00288866 0 -0.00288866 -4.83228e-07 0 0 0 0)
(0 -0.00283004 0 -0.00283004 -3.53533e-07 0 0 0 0)
(0 -0.00277042 0 -0.00277042 -2.45259e-07 0 0 0 0)
(0 -0.00270976 0 -0.00270976 -1.55962e-07 0 0 0 0)
(0 -0.00264803 0 -0.00264803 -8.31963e-08 0 0 0 0)
(0 -0.00258523 0 -0.00258523 -2.46514e-08 0 0 0 0)
(0 -0.00252137 0 -0.00252137 2.17826e-08 0 0 0 0)
(0 -0.00245649 0 -0.00245649 5.79905e-08 0 0 0 0)
(0 -0.00239061 0 -0.00239061 8.56299e-08 0 0 0 0)
(0 -0.00232379 0 -0.00232379 1.06143e-07 0 0 0 0)
(0 -0.00225607 0 -0.00225607 1.20775e-07 0 0 0 0)
(0 -0.0021875 0 -0.0021875 1.3059e-07 0 0 0 0)
(0 -0.00211815 0 -0.00211815 1.3649e-07 0 0 0 0)
(0 -0.00204809 0 -0.00204809 1.3924e-07 0 0 0 0)
(0 -0.00197737 0 -0.00197737 1.39509e-07 0 0 0 0)
(0 -0.00190607 0 -0.00190607 1.3794e-07 0 0 0 0)
(0 -0.00183428 0 -0.00183428 1.35218e-07 0 0 0 0)
(0 -0.00176207 0 -0.00176207 1.32061e-07 0 0 0 0)
(0 -0.00168953 0 -0.00168953 1.29075e-07 0 0 0 0)
(0 -0.00161676 0 -0.00161676 1.26488e-07 0 0 0 0)
(0 -0.00154385 0 -0.00154385 1.23919e-07 0 0 0 0)
(0 -0.00147091 0 -0.00147091 1.20412e-07 0 0 0 0)
(0 -0.00139806 0 -0.00139806 1.14847e-07 0 0 0 0)
(0 -0.00132542 0 -0.00132542 1.06541e-07 0 0 0 0)
(0 -0.00125315 0 -0.00125315 9.56601e-08 0 0 0 0)
(0 -0.00118139 0 -0.00118139 8.31637e-08 0 0 0 0)
(0 -0.00111035 0 -0.00111035 7.03326e-08 0 0 0 0)
(0 -0.00104019 0 -0.00104019 5.82884e-08 0 0 0 0)
(0 -0.000971125 0 -0.000971125 4.78124e-08 0 0 0 0)
(0 -0.000903358 0 -0.000903358 3.93524e-08 0 0 0 0)
(0 -0.000837091 0 -0.000837091 3.29316e-08 0 0 0 0)
(0 -0.000772523 0 -0.000772523 2.80666e-08 0 0 0 0)
(0 -0.000709846 0 -0.000709846 2.4029e-08 0 0 0 0)
(0 -0.000649243 0 -0.000649243 2.03223e-08 0 0 0 0)
(0 -0.000590887 0 -0.000590887 1.6883e-08 0 0 0 0)
(0 -0.000534934 0 -0.000534934 1.38688e-08 0 0 0 0)
(0 -0.000481515 0 -0.000481515 1.13668e-08 0 0 0 0)
(0 -0.000430725 0 -0.000430725 9.32956e-09 0 0 0 0)
(0 -0.000382168 0 -0.000382168 7.68451e-09 0 0 0 0)
(1.99989e-17 -0.000335492 0 -0.000335492 6.38334e-09 0 0 0 0)
(0 -0.000290841 0 -0.000290841 5.33025e-09 0 0 0 0)
(0 -0.000248315 0 -0.000248315 4.42753e-09 0 0 0 0)
(-1.91963e-17 -0.000207977 0 -0.000207977 3.68859e-09 0 0 0 0)
(0 -0.00016985 0 -0.00016985 3.11953e-09 0 0 0 0)
(1.89009e-17 -0.000133919 0 -0.000133919 2.63823e-09 0 0 0 0)
(0 -0.000100141 0 -0.000100141 2.2113e-09 0 0 0 0)
(-1.87145e-17 -6.84507e-05 0 -6.84507e-05 1.86811e-09 0 0 0 0)
(0 -3.87695e-05 0 -3.87695e-05 1.59218e-09 0 0 0 0)
(0 -1.10111e-05 0 -1.10111e-05 1.35241e-09 0 0 0 0)
(0 1.49109e-05 0 1.49109e-05 1.14731e-09 0 0 0 0)
(-1.83472e-17 3.9079e-05 0 3.9079e-05 9.71494e-10 0 0 0 0)
(0 6.15685e-05 0 6.15685e-05 8.22258e-10 0 0 0 0)
(0 8.24452e-05 0 8.24452e-05 6.99975e-10 0 0 0 0)
(0 0.000101766 0 0.000101766 5.89528e-10 0 0 0 0)
(0 0.000119577 0 0.000119577 4.89889e-10 0 0 0 0)
(0 0.000135915 0 0.000135915 4.12121e-10 0 0 0 0)
(1.70825e-17 0.000150809 0 0.000150809 3.47571e-10 0 0 0 0)
(0 0.000164282 0 0.000164282 2.87742e-10 0 0 0 0)
(1.6429e-17 0.000176349 0 0.000176349 2.37023e-10 0 0 0 0)
(0 0.00018702 0 0.00018702 1.96494e-10 0 0 0 0)
(1.56772e-17 0.000196302 0 0.000196302 1.62997e-10 0 0 0 0)
(0 0.000204199 0 0.000204199 1.33381e-10 0 0 0 0)
(0 0.000210712 0 0.000210712 1.07661e-10 0 0 0 0)
(0 0.000215838 0 0.000215838 8.72952e-11 0 0 0 0)
(0 0.000219574 0 0.000219574 7.02393e-11 0 0 0 0)
(-1.34445e-17 0.000221917 0 0.000221917 5.5371e-11 0 0 0 0)
(-1.29451e-17 0.000222861 0 0.000222861 4.36796e-11 0 0 0 0)
(0 0.000222402 0 0.000222402 3.47752e-11 0 0 0 0)
(0 0.000220533 0 0.000220533 2.75431e-11 0 0 0 0)
(0 0.000217251 0 0.000217251 2.05954e-11 0 0 0 0)
(0 0.000212552 0 0.000212552 1.35869e-11 0 0 0 0)
(0 0.000206438 0 0.000206438 8.14597e-12 0 0 0 0)
(0 0.00019891 0 0.00019891 7.18518e-12 0 0 0 0)
(0 0.000189978 0 0.000189978 9.82246e-12 0 0 0 0)
(0 0.000179658 0 0.000179658 9.09347e-12 0 0 0 0)
(0 0.000167976 0 0.000167976 3.34671e-12 0 0 0 0)
(0 0.000154973 0 0.000154973 -6.1192e-13 0 0 0 0)
(0 0.000140707 0 0.000140707 -1.90319e-12 0 0 0 0)
(0 0.00012526 0 0.00012526 3.15171e-12 0 0 0 0)
(0 0.00010875 0 0.00010875 -4.88366e-12 0 0 0 0)
(8.56515e-18 9.13434e-05 0 9.13434e-05 6.35327e-12 0 0 0 0)
(-7.10129e-18 7.32771e-05 0 7.32771e-05 -7.16444e-12 0 0 0 0)
(0 5.48946e-05 0 5.48946e-05 7.14292e-12 0 0 0 0)
(0 3.66864e-05 0 3.66864e-05 -6.18582e-12 0 0 0 0)
(2.57234e-18 1.94293e-05 0 1.94293e-05 4.36897e-12 0 0 0 0)
(0 4.65974e-06 0 4.65974e-06 -1.85718e-12 0 0 0 0)
(0 3.12571e-07 0 3.12571e-07 4.42255e-13 0 0 0 0)
(1.56598e-19 1.61233e-08 0 1.61233e-08 -3.00179e-13 0 0 0 0)
(0 8.38224e-10 0 8.38224e-10 2.93362e-13 0 0 0 0)
(0 4.32414e-10 0 4.32414e-10 -2.88808e-13 0 0 0 0)
(0 3.37847e-10 0 3.37847e-10 2.8473e-13 0 0 0 0)
(0 2.65549e-10 0 2.65549e-10 -2.80579e-13 0 0 0 0)
(0 2.0797e-10 0 2.0797e-10 2.76869e-13 0 0 0 0)
(0 1.62248e-10 0 1.62248e-10 -2.73062e-13 0 0 0 0)
(0 1.26078e-10 0 1.26078e-10 2.69655e-13 0 0 0 0)
(0 9.75736e-11 0 9.75736e-11 -2.66123e-13 0 0 0 0)
(0 7.51925e-11 0 7.51925e-11 2.62945e-13 0 0 0 0)
(0 5.76796e-11 0 5.76796e-11 -2.59615e-13 0 0 0 0)
(0 4.40263e-11 0 4.40263e-11 2.56594e-13 0 0 0 0)
(0 3.34281e-11 0 3.34281e-11 -2.53404e-13 0 0 0 0)
(0 2.52418e-11 0 2.52418e-11 2.50475e-13 0 0 0 0)
(0 1.89525e-11 0 1.89525e-11 -2.47378e-13 0 0 0 0)
(0 1.41478e-11 0 1.41478e-11 2.44491e-13 0 0 0 0)
(-1.12435e-19 1.04986e-11 0 1.04986e-11 -2.41442e-13 0 0 0 0)
(0 7.74387e-12 0 7.74387e-12 2.38566e-13 0 0 0 0)
(0 5.67654e-12 0 5.67654e-12 -2.35538e-13 0 0 0 0)
(0 4.13501e-12 0 4.13501e-12 2.32643e-13 0 0 0 0)
(0 2.99285e-12 0 2.99285e-12 -2.29608e-13 0 0 0 0)
(0 2.15211e-12 0 2.15211e-12 2.2668e-13 0 0 0 0)
(0 1.5371e-12 0 1.5371e-12 -2.23621e-13 0 0 0 0)
(0 1.09034e-12 0 1.09034e-12 2.20649e-13 0 0 0 0)
(0 7.68236e-13 0 7.68236e-13 -2.17561e-13 0 0 0 0)
(0 5.37341e-13 0 5.37341e-13 2.14548e-13 0 0 0 0)
(0 3.73125e-13 0 3.73125e-13 -2.11437e-13 0 0 0 0)
(0 2.57257e-13 0 2.57257e-13 2.08376e-13 0 0 0 0)
(0 1.7593e-13 0 1.7593e-13 -2.05222e-13 0 0 0 0)
(0 1.19357e-13 0 1.19357e-13 2.02101e-13 0 0 0 0)
(0 8.04299e-14 0 8.04299e-14 -1.98899e-13 0 0 0 0)
(0 5.37472e-14 0 5.37472e-14 1.95732e-13 0 0 0 0)
(0 3.56989e-14 0 3.56989e-14 -1.92487e-13 0 0 0 0)
(0 2.34608e-14 0 2.34608e-14 1.89259e-13 0 0 0 0)
(0 1.53008e-14 0 1.53008e-14 -1.85976e-13 0 0 0 0)
(0 9.93659e-15 0 9.93659e-15 1.82696e-13 0 0 0 0)
(-1.50452e-19 6.31267e-15 0 6.31267e-15 -1.79386e-13 0 0 0 0)
(0 3.99544e-15 0 3.99544e-15 1.76038e-13 0 0 0 0)
(0 2.47381e-15 0 2.47381e-15 -1.72691e-13 0 0 0 0)
(0 1.47752e-15 0 1.47752e-15 1.6932e-13 0 0 0 0)
(0 9.35523e-16 0 9.35523e-16 -1.65943e-13 0 0 0 0)
(0 6.52969e-16 0 6.52969e-16 1.62524e-13 0 0 0 0)
(0 4.09727e-16 0 4.09727e-16 -1.59125e-13 0 0 0 0)
(0 1.87504e-16 0 1.87504e-16 1.55674e-13 0 0 0 0)
(0 5.55038e-17 0 5.55038e-17 -1.52254e-13 0 0 0 0)
(0 1.34351e-17 0 1.34351e-17 1.48776e-13 0 0 0 0)
(-1.23064e-19 3.16582e-17 0 3.16582e-17 -1.45323e-13 0 0 0 0)
(0 6.40771e-17 0 6.40771e-17 1.41857e-13 0 0 0 0)
(0 2.72488e-17 0 2.72488e-17 -1.38373e-13 0 0 0 0)
(1.15864e-19 -1.625e-17 0 -1.625e-17 1.34904e-13 0 0 0 0)
(0 4.3181e-17 0 4.3181e-17 -1.31392e-13 0 0 0 0)
(0 2.72964e-17 0 2.72964e-17 1.27889e-13 0 0 0 0)
(0 -4.4289e-17 0 -4.4289e-17 -1.2437e-13 0 0 0 0)
(0 2.37888e-18 0 2.37888e-18 1.20843e-13 0 0 0 0)
(0 -3.94269e-17 0 -3.94269e-17 -1.17305e-13 0 0 0 0)
(0 -5.19685e-17 0 -5.19685e-17 1.13764e-13 0 0 0 0)
(0 7.21742e-17 0 7.21742e-17 -1.10206e-13 0 0 0 0)
(0 1.03617e-16 0 1.03617e-16 1.06637e-13 0 0 0 0)
(0 -4.25705e-17 0 -4.25705e-17 -1.03058e-13 0 0 0 0)
(0 -1.36946e-16 0 -1.36946e-16 9.95156e-14 0 0 0 0)
(0 -5.09808e-17 0 -5.09808e-17 -1.09682e-13 0 0 0 0)
(0 -2.63904e-17 0 -2.63904e-17 1.08391e-13 0 0 0 0)
(0 2.2764e-18 0 2.2764e-18 -1.07153e-13 0 0 0 0)
(0 2.96462e-17 0 2.96462e-17 1.059e-13 0 0 0 0)
(0 7.22625e-18 0 7.22625e-18 -1.04641e-13 0 0 0 0)
(0 1.11173e-17 0 1.11173e-17 1.03366e-13 0 0 0 0)
(0 -5.0822e-18 0 -5.0822e-18 -1.02087e-13 0 0 0 0)
(0 5.02926e-19 0 5.02926e-19 1.00789e-13 0 0 0 0)
(0 1.29702e-17 0 1.29702e-17 -9.94874e-14 0 0 0 0)
(0 -4.37545e-17 0 -4.37545e-17 9.81635e-14 0 0 0 0)
(0 -5.66453e-18 0 -5.66453e-18 -9.68361e-14 0 0 0 0)
(0 3.61577e-17 0 3.61577e-17 9.54865e-14 0 0 0 0)
(0 5.691e-18 0 5.691e-18 -9.41313e-14 0 0 0 0)
(0 3.20284e-18 0 3.20284e-18 9.2752e-14 0 0 0 0)
(0 2.5411e-18 0 2.5411e-18 -9.1367e-14 0 0 0 0)
(0 -1.05879e-19 0 -1.05879e-19 8.99566e-14 0 0 0 0)
(0 -4.52633e-18 0 -4.52633e-18 -8.85388e-14 0 0 0 0)
(0 7.91446e-18 0 7.91446e-18 8.70959e-14 0 0 0 0)
(0 -3.73224e-18 0 -3.73224e-18 -8.56394e-14 0 0 0 0)
(0 -6.88214e-18 0 -6.88214e-18 8.41635e-14 0 0 0 0)
(0 -5.98217e-18 0 -5.98217e-18 -8.26653e-14 0 0 0 0)
(0 -3.65283e-18 0 -3.65283e-18 8.11491e-14 0 0 0 0)
(0 9.07913e-18 0 9.07913e-18 -7.96078e-14 0 0 0 0)
(0 9.60853e-18 0 9.60853e-18 7.80447e-14 0 0 0 0)
(0 4.57927e-18 0 4.57927e-18 -7.6456e-14 0 0 0 0)
(0 3.44107e-18 0 3.44107e-18 7.48391e-14 0 0 0 0)
(0 -1.75759e-17 0 -1.75759e-17 -7.31956e-14 0 0 0 0)
(0 -1.52201e-17 0 -1.52201e-17 7.15193e-14 0 0 0 0)
(0 -2.59404e-17 0 -2.59404e-17 -6.9813e-14 0 0 0 0)
(0 -6.51686e-17 0 -6.51686e-17 6.80662e-14 0 0 0 0)
(0 -2.06067e-16 0 -2.06067e-16 -6.6288e-14 0 0 0 0)
(0 1.53525e-18 0 1.53525e-18 6.44601e-14 0 0 0 0)
(0 2.01991e-16 0 2.01991e-16 -6.2595e-14 0 0 0 0)
(0 5.52954e-17 0 5.52954e-17 6.06722e-14 0 0 0 0)
(0 1.63319e-17 0 1.63319e-17 -5.87055e-14 0 0 0 0)
(0 7.51742e-18 0 7.51742e-18 5.66665e-14 0 0 0 0)
(0 3.32196e-17 0 3.32196e-17 -5.45682e-14 0 0 0 0)
(0 1.6226e-17 0 1.6226e-17 5.23982e-14 0 0 0 0)
(0 -1.55378e-17 0 -1.55378e-17 -5.01278e-14 0 0 0 0)
(0 -6.77097e-17 0 -6.77097e-17 4.77891e-14 0 0 0 0)
(0 5.50571e-18 0 5.50571e-18 -4.52925e-14 0 0 0 0)
(0 1.14746e-16 0 1.14746e-16 4.27298e-14 0 0 0 0)
(0 5.17219e-17 0 5.17219e-17 -3.99098e-14 0 0 0 0)
(0 -4.56339e-17 0 -4.56339e-17 3.7042e-14 0 0 0 0)
(0 -4.02076e-17 0 -4.02076e-17 -3.37485e-14 0 0 0 0)
(0 -1.28908e-17 0 -1.28908e-17 3.03044e-14 0 0 0 0)
(0 -6.51157e-18 0 -6.51157e-18 -2.6178e-14 0 0 0 0)
(0 6.24687e-18 0 6.24687e-18 2.1385e-14 0 0 0 0)
(0 -3.80371e-17 0 -3.80371e-17 -1.57329e-14 0 0 0 0)
(0 -4.02341e-17 0 -4.02341e-17 6.08923e-15 0 0 0 0)
)
;

boundaryField
{
    inandouthalf11
    {
        type            cyclic;
    }
    inandouthalf12
    {
        type            cyclic;
    }
    inandouthalf21
    {
        type            cyclic;
    }
    inandouthalf22
    {
        type            cyclic;
    }
    inandouthalf31
    {
        type            cyclic;
    }
    inandouthalf32
    {
        type            cyclic;
    }
    inandouthalf41
    {
        type            cyclic;
    }
    inandouthalf42
    {
        type            cyclic;
    }
    top
    {
        type            symmetryPlane;
    }
    walls
    {
        type            zeroGradient;
    }
    frontAndBackPlanes
    {
        type            empty;
    }
}


// ************************************************************************* //
