/*--------------------------------*- C++ -*----------------------------------*\
| =========                 |                                                 |
| \\      /  F ield         | OpenFOAM: The Open Source CFD Toolbox           |
|  \\    /   O peration     | Version:  2.4.x                                 |
|   \\  /    A nd           | Web:      www.OpenFOAM.org                      |
|    \\/     M anipulation  |                                                 |
\*---------------------------------------------------------------------------*/
FoamFile
{
    version     2.0;
    format      ascii;
    class       volTensorField;
    location    "5.15";
    object      Taus;
}
// * * * * * * * * * * * * * * * * * * * * * * * * * * * * * * * * * * * * * //

dimensions      [0 2 -2 0 0 0 0];

internalField   nonuniform List<tensor> 
360
(
(0 -0.0153272 0 -0.0153272 -0.189882 0 0 0 0)
(0 -0.0211219 0 -0.0211219 -0.228057 0 0 0 0)
(0 -0.0255982 0 -0.0255982 -0.235783 0 0 0 0)
(0 -0.0256578 0 -0.0256578 -0.231607 0 0 0 0)
(7.9612e-18 -0.0250161 0 -0.0250161 -0.22842 0 0 0 0)
(1.53195e-17 -0.0248928 0 -0.0248928 -0.226798 0 0 0 0)
(1.49745e-17 -0.0249352 0 -0.0249352 -0.225327 0 0 0 0)
(0 -0.0249676 0 -0.0249676 -0.223757 0 0 0 0)
(1.46089e-17 -0.0249907 0 -0.0249907 -0.222198 0 0 0 0)
(0 -0.0249965 0 -0.0249965 -0.220588 0 0 0 0)
(2.84754e-17 -0.0249858 0 -0.0249858 -0.218934 0 0 0 0)
(0 -0.0249731 0 -0.0249731 -0.217288 0 0 0 0)
(2.76045e-17 -0.0249623 0 -0.0249623 -0.215642 0 0 0 0)
(0 -0.0249565 0 -0.0249565 -0.214014 0 0 0 0)
(0 -0.0249526 0 -0.0249526 -0.212388 0 0 0 0)
(0 -0.0249463 0 -0.0249463 -0.210756 0 0 0 0)
(0 -0.0249377 0 -0.0249377 -0.209119 0 0 0 0)
(5.13636e-17 -0.0249292 0 -0.0249292 -0.207483 0 0 0 0)
(0 -0.0249205 0 -0.0249205 -0.20585 0 0 0 0)
(0 -0.0249095 0 -0.0249095 -0.204203 0 0 0 0)
(0 -0.0249025 0 -0.0249025 -0.202579 0 0 0 0)
(4.83105e-17 -0.0248921 0 -0.0248921 -0.200937 0 0 0 0)
(0 -0.0248798 0 -0.0248798 -0.199296 0 0 0 0)
(0 -0.024866 0 -0.024866 -0.197652 0 0 0 0)
(0 -0.0248492 0 -0.0248492 -0.196002 0 0 0 0)
(8.93454e-17 -0.0248302 0 -0.0248302 -0.194349 0 0 0 0)
(0 -0.0248087 0 -0.0248087 -0.192696 0 0 0 0)
(0 -0.0247804 0 -0.0247804 -0.191024 0 0 0 0)
(0 -0.0247506 0 -0.0247506 -0.189354 0 0 0 0)
(0 -0.0247226 0 -0.0247226 -0.187689 0 0 0 0)
(0 -0.0246969 0 -0.0246969 -0.186032 0 0 0 0)
(0 -0.0246756 0 -0.0246756 -0.18437 0 0 0 0)
(0 -0.0246701 0 -0.0246701 -0.182761 0 0 0 0)
(0 -0.0246704 0 -0.0246704 -0.18113 0 0 0 0)
(0 -0.0246917 0 -0.0246917 -0.179558 0 0 0 0)
(-8.4908e-17 -0.0247257 0 -0.0247257 -0.177987 0 0 0 0)
(0 -0.0247695 0 -0.0247695 -0.17644 0 0 0 0)
(0 -0.0248058 0 -0.0248058 -0.174869 0 0 0 0)
(0 -0.0248207 0 -0.0248207 -0.173249 0 0 0 0)
(0 -0.0248009 0 -0.0248009 -0.171607 0 0 0 0)
(0 -0.0246962 0 -0.0246962 -0.16981 0 0 0 0)
(0 -0.0244894 0 -0.0244894 -0.167879 0 0 0 0)
(-3.96887e-17 -0.0241609 0 -0.0241609 -0.165777 0 0 0 0)
(0 -0.0237159 0 -0.0237159 -0.163448 0 0 0 0)
(0 -0.0232484 0 -0.0232484 -0.16108 0 0 0 0)
(0 -0.0228753 0 -0.0228753 -0.158888 0 0 0 0)
(0 -0.0227051 0 -0.0227051 -0.157137 0 0 0 0)
(0 -0.0227888 0 -0.0227888 -0.155936 0 0 0 0)
(0 -0.0230767 0 -0.0230767 -0.155044 0 0 0 0)
(0 -0.0234894 0 -0.0234894 -0.154243 0 0 0 0)
(-5.20534e-15 -0.0239809 0 -0.0239809 -0.153451 0 0 0 0)
(0 -0.0244961 0 -0.0244961 -0.152522 0 0 0 0)
(0 -0.0250119 0 -0.0250119 -0.151491 0 0 0 0)
(0 -0.0254936 0 -0.0254936 -0.150353 0 0 0 0)
(0 -0.0258836 0 -0.0258836 -0.149208 0 0 0 0)
(0 -0.0260812 0 -0.0260812 -0.148065 0 0 0 0)
(0 -0.0260719 0 -0.0260719 -0.147043 0 0 0 0)
(0 -0.0259112 0 -0.0259112 -0.146058 0 0 0 0)
(0 -0.0257213 0 -0.0257213 -0.1451 0 0 0 0)
(0 -0.0255765 0 -0.0255765 -0.144131 0 0 0 0)
(0 -0.0254854 0 -0.0254854 -0.143076 0 0 0 0)
(0 -0.0254586 0 -0.0254586 -0.142009 0 0 0 0)
(0 -0.0254698 0 -0.0254698 -0.140875 0 0 0 0)
(0 -0.0255129 0 -0.0255129 -0.139723 0 0 0 0)
(0 -0.0255726 0 -0.0255726 -0.138536 0 0 0 0)
(0 -0.0256387 0 -0.0256387 -0.137329 0 0 0 0)
(0 -0.0256972 0 -0.0256972 -0.136085 0 0 0 0)
(0 -0.0257426 0 -0.0257426 -0.134813 0 0 0 0)
(0 -0.0257731 0 -0.0257731 -0.133515 0 0 0 0)
(0 -0.0257843 0 -0.0257843 -0.132199 0 0 0 0)
(0 -0.025763 0 -0.025763 -0.130834 0 0 0 0)
(0 -0.0257193 0 -0.0257193 -0.129441 0 0 0 0)
(0 -0.025666 0 -0.025666 -0.128051 0 0 0 0)
(0 -0.0255918 0 -0.0255918 -0.126619 0 0 0 0)
(0 -0.0255065 0 -0.0255065 -0.125181 0 0 0 0)
(0 -0.0254117 0 -0.0254117 -0.123719 0 0 0 0)
(0 -0.0253168 0 -0.0253168 -0.12226 0 0 0 0)
(0 -0.0252175 0 -0.0252175 -0.120785 0 0 0 0)
(0 -0.0251109 0 -0.0251109 -0.119297 0 0 0 0)
(0 -0.0249976 0 -0.0249976 -0.117794 0 0 0 0)
(0 -0.0248784 0 -0.0248784 -0.116282 0 0 0 0)
(0 -0.024749 0 -0.024749 -0.11475 0 0 0 0)
(0 -0.0246098 0 -0.0246098 -0.113201 0 0 0 0)
(0 -0.0244627 0 -0.0244627 -0.111638 0 0 0 0)
(0 -0.0243084 0 -0.0243084 -0.110061 0 0 0 0)
(0 -0.024149 0 -0.024149 -0.108471 0 0 0 0)
(0 -0.0239854 0 -0.0239854 -0.10687 0 0 0 0)
(0 -0.0238198 0 -0.0238198 -0.10526 0 0 0 0)
(0 -0.0236522 0 -0.0236522 -0.103643 0 0 0 0)
(0 -0.0234816 0 -0.0234816 -0.102016 0 0 0 0)
(0 -0.0233077 0 -0.0233077 -0.100382 0 0 0 0)
(0 -0.0231298 0 -0.0231298 -0.0987393 0 0 0 0)
(0 -0.0229465 0 -0.0229465 -0.0970876 0 0 0 0)
(0 -0.0227577 0 -0.0227577 -0.0954275 0 0 0 0)
(0 -0.0225636 0 -0.0225636 -0.0937593 0 0 0 0)
(0 -0.0223642 0 -0.0223642 -0.0920836 0 0 0 0)
(0 -0.0221602 0 -0.0221602 -0.0904008 0 0 0 0)
(0 -0.0219519 0 -0.0219519 -0.0887117 0 0 0 0)
(0 -0.0217398 0 -0.0217398 -0.0870167 0 0 0 0)
(0 -0.0215239 0 -0.0215239 -0.085316 0 0 0 0)
(0 -0.0213044 0 -0.0213044 -0.08361 0 0 0 0)
(0 -0.0210813 0 -0.0210813 -0.0818989 0 0 0 0)
(0 -0.0208546 0 -0.0208546 -0.0801826 0 0 0 0)
(0 -0.0206243 0 -0.0206243 -0.0784616 0 0 0 0)
(0 -0.0203905 0 -0.0203905 -0.076736 0 0 0 0)
(0 -0.0201535 0 -0.0201535 -0.0750061 0 0 0 0)
(0 -0.0199132 0 -0.0199132 -0.073272 0 0 0 0)
(0 -0.0196699 0 -0.0196699 -0.0715339 0 0 0 0)
(0 -0.0194236 0 -0.0194236 -0.069792 0 0 0 0)
(0 -0.0191745 0 -0.0191745 -0.0680464 0 0 0 0)
(0 -0.0189227 0 -0.0189227 -0.0662972 0 0 0 0)
(0 -0.0186684 0 -0.0186684 -0.0645446 0 0 0 0)
(0 -0.0184118 0 -0.0184118 -0.0627886 0 0 0 0)
(0 -0.0181532 0 -0.0181532 -0.0610295 0 0 0 0)
(0 -0.0178929 0 -0.0178929 -0.0592672 0 0 0 0)
(0 -0.0176313 0 -0.0176313 -0.0575018 0 0 0 0)
(0 -0.0173687 0 -0.0173687 -0.0557335 0 0 0 0)
(0 -0.0171055 0 -0.0171055 -0.0539622 0 0 0 0)
(0 -0.0168423 0 -0.0168423 -0.0521879 0 0 0 0)
(0 -0.0165794 0 -0.0165794 -0.0504106 0 0 0 0)
(0 -0.0163173 0 -0.0163173 -0.0486302 0 0 0 0)
(0 -0.0160565 0 -0.0160565 -0.0468468 0 0 0 0)
(0 -0.0157975 0 -0.0157975 -0.0450601 0 0 0 0)
(0 -0.0155408 0 -0.0155408 -0.04327 0 0 0 0)
(0 -0.0152869 0 -0.0152869 -0.0414763 0 0 0 0)
(0 -0.0150358 0 -0.0150358 -0.0396786 0 0 0 0)
(0 -0.0147871 0 -0.0147871 -0.0378762 0 0 0 0)
(0 -0.0145396 0 -0.0145396 -0.0360682 0 0 0 0)
(0 -0.0142922 0 -0.0142922 -0.0342535 0 0 0 0)
(0 -0.0140448 0 -0.0140448 -0.0324306 0 0 0 0)
(0 -0.0137992 0 -0.0137992 -0.0305978 0 0 0 0)
(0 -0.0135572 0 -0.0135572 -0.0287529 0 0 0 0)
(0 -0.0133155 0 -0.0133155 -0.0268933 0 0 0 0)
(0 -0.0130628 0 -0.0130628 -0.0250157 0 0 0 0)
(0 -0.0127904 0 -0.0127904 -0.0231171 0 0 0 0)
(0 -0.0125062 0 -0.0125062 -0.0211954 0 0 0 0)
(0 -0.0122221 0 -0.0122221 -0.0192485 0 0 0 0)
(0 -0.0119154 0 -0.0119154 -0.0172867 0 0 0 0)
(0 -0.0115165 0 -0.0115165 -0.0153491 0 0 0 0)
(0 -0.0109854 0 -0.0109854 -0.0134542 0 0 0 0)
(0 -0.0104379 0 -0.0104379 -0.0115304 0 0 0 0)
(0 -0.0100245 0 -0.0100245 -0.00954691 0 0 0 0)
(0 -0.00950765 0 -0.00950765 -0.00736184 0 0 0 0)
(0 -0.00879767 0 -0.00879767 -0.00479249 0 0 0 0)
(0 -0.00793131 0 -0.00793131 -0.000725419 0 0 0 0)
(0 -0.00590117 0 -0.00590117 0.00277085 0 0 0 0)
(0 -0.00265274 0 -0.00265274 -5.11683e-05 0 0 0 0)
(0 -0.00155813 0 -0.00155813 -1.10128e-05 0 0 0 0)
(0 -0.0024687 0 -0.0024687 -9.67047e-06 0 0 0 0)
(0 -0.00254954 0 -0.00254954 -4.04144e-06 0 0 0 0)
(0 -0.00215586 0 -0.00215586 -2.96427e-06 0 0 0 0)
(0 -0.00193003 0 -0.00193003 -1.73572e-06 0 0 0 0)
(0 -0.00182795 0 -0.00182795 -1.07543e-06 0 0 0 0)
(0 -0.00181932 0 -0.00181932 -1.85634e-08 0 0 0 0)
(0 -0.00188452 0 -0.00188452 1.53791e-06 0 0 0 0)
(0 -0.00201138 0 -0.00201138 3.82416e-06 0 0 0 0)
(0 -0.00219251 0 -0.00219251 7.12149e-06 0 0 0 0)
(0 -0.00242372 0 -0.00242372 1.17574e-05 0 0 0 0)
(0 -0.00270299 0 -0.00270299 1.80999e-05 0 0 0 0)
(0 -0.00302983 0 -0.00302983 2.65616e-05 0 0 0 0)
(0 -0.00340482 0 -0.00340482 3.76081e-05 0 0 0 0)
(0 -0.00382924 0 -0.00382924 5.17675e-05 0 0 0 0)
(0 -0.00430486 0 -0.00430486 6.96376e-05 0 0 0 0)
(0 -0.00483372 0 -0.00483372 9.18961e-05 0 0 0 0)
(0 -0.00541798 0 -0.00541798 0.000119316 0 0 0 0)
(0 -0.00605974 0 -0.00605974 0.000152774 0 0 0 0)
(0 -0.00676094 0 -0.00676094 0.000193255 0 0 0 0)
(0 -0.00752326 0 -0.00752326 0.000241871 0 0 0 0)
(0 -0.00834793 0 -0.00834793 0.000299866 0 0 0 0)
(0 -0.0092357 0 -0.0092357 0.000368629 0 0 0 0)
(0 -0.0101867 0 -0.0101867 0.000449703 0 0 0 0)
(0 -0.0112002 0 -0.0112002 0.000544794 0 0 0 0)
(0 -0.0122749 0 -0.0122749 0.000655769 0 0 0 0)
(0 -0.0134083 0 -0.0134083 0.000784653 0 0 0 0)
(0 -0.0145972 0 -0.0145972 0.000933617 0 0 0 0)
(0 -0.0158371 0 -0.0158371 0.00110496 0 0 0 0)
(0 -0.0171227 0 -0.0171227 0.00130106 0 0 0 0)
(0 -0.0184477 0 -0.0184477 0.00152424 0 0 0 0)
(0 -0.0198053 0 -0.0198053 0.00177608 0 0 0 0)
(0 -0.0211892 0 -0.0211892 0.00205576 0 0 0 0)
(0 -0.0225971 0 -0.0225971 0.00235692 0 0 0 0)
(0 -0.0240345 0 -0.0240345 0.00266354 0 0 0 0)
(0 -0.0255203 0 -0.0255203 0.00294695 0 0 0 0)
(0 -0.0270887 0 -0.0270887 0.00316682 0 0 0 0)
(0 -0.0287847 0 -0.0287847 0.0032783 0 0 0 0)
(0 -0.0306521 0 -0.0306521 0.00324444 0 0 0 0)
(0 -0.0327151 0 -0.0327151 0.0030499 0 0 0 0)
(0 -0.0349621 0 -0.0349621 0.00270996 0 0 0 0)
(0 -0.0373411 0 -0.0373411 0.00226956 0 0 0 0)
(0 -0.0397695 0 -0.0397695 0.00179283 0 0 0 0)
(0 -0.0421493 0 -0.0421493 0.00135045 0 0 0 0)
(0 -0.0443783 0 -0.0443783 0.0010054 0 0 0 0)
(0 -0.0463945 0 -0.0463945 0.000781802 0 0 0 0)
(0 -0.048262 0 -0.048262 0.000625912 0 0 0 0)
(0 -0.0501761 0 -0.0501761 0.000418794 0 0 0 0)
(0 -0.0523079 0 -0.0523079 5.92611e-05 0 0 0 0)
(0 -0.0546598 0 -0.0546598 -0.000463439 0 0 0 0)
(0 -0.0570888 0 -0.0570888 -0.00107952 0 0 0 0)
(0 -0.0594415 0 -0.0594415 -0.00171 0 0 0 0)
(0 -0.061654 0 -0.061654 -0.00231852 0 0 0 0)
(0 -0.0636868 0 -0.0636868 -0.00288308 0 0 0 0)
(0 -0.0654515 0 -0.0654515 -0.0033655 0 0 0 0)
(5.46576e-15 -0.066958 0 -0.066958 -0.0037853 0 0 0 0)
(0 -0.0684205 0 -0.0684205 -0.00422561 0 0 0 0)
(0 -0.0696926 0 -0.0696926 -0.00463445 0 0 0 0)
(-1.3425e-14 -0.0704546 0 -0.0704546 -0.00490716 0 0 0 0)
(0 -0.0710679 0 -0.0710679 -0.00518205 0 0 0 0)
(1.48974e-14 -0.0716891 0 -0.0716891 -0.00553783 0 0 0 0)
(0 -0.0718261 0 -0.0718261 -0.00579429 0 0 0 0)
(-1.60461e-14 -0.0716065 0 -0.0716065 -0.00597899 0 0 0 0)
(0 -0.071344 0 -0.071344 -0.00623774 0 0 0 0)
(0 -0.0707808 0 -0.0707808 -0.00648719 0 0 0 0)
(0 -0.0699771 0 -0.0699771 -0.00673736 0 0 0 0)
(-1.73774e-14 -0.0690649 0 -0.0690649 -0.00704028 0 0 0 0)
(0 -0.0677999 0 -0.0677999 -0.00728083 0 0 0 0)
(0 -0.0664409 0 -0.0664409 -0.00760014 0 0 0 0)
(0 -0.0651166 0 -0.0651166 -0.00806442 0 0 0 0)
(0 -0.0633369 0 -0.0633369 -0.00836338 0 0 0 0)
(0 -0.0613746 0 -0.0613746 -0.00864306 0 0 0 0)
(1.68276e-14 -0.0595194 0 -0.0595194 -0.00912379 0 0 0 0)
(0 -0.057434 0 -0.057434 -0.00956052 0 0 0 0)
(1.61196e-14 -0.0551499 0 -0.0551499 -0.00993311 0 0 0 0)
(0 -0.0527528 0 -0.0527528 -0.0103115 0 0 0 0)
(1.52296e-14 -0.0503267 0 -0.0503267 -0.0107827 0 0 0 0)
(0 -0.0479311 0 -0.0479311 -0.0113942 0 0 0 0)
(0 -0.0453093 0 -0.0453093 -0.0118779 0 0 0 0)
(0 -0.0426309 0 -0.0426309 -0.0124148 0 0 0 0)
(0 -0.0399969 0 -0.0399969 -0.0131393 0 0 0 0)
(-1.23902e-14 -0.0371558 0 -0.0371558 -0.0137413 0 0 0 0)
(-1.17207e-14 -0.0341672 0 -0.0341672 -0.0143037 0 0 0 0)
(0 -0.0311306 0 -0.0311306 -0.0149908 0 0 0 0)
(0 -0.0281235 0 -0.0281235 -0.0159958 0 0 0 0)
(0 -0.0251236 0 -0.0251236 -0.0175263 0 0 0 0)
(0 -0.0213342 0 -0.0213342 -0.0179966 0 0 0 0)
(0 -0.0162498 0 -0.0162498 -0.0158139 0 0 0 0)
(0 -0.0129715 0 -0.0129715 -0.0157531 0 0 0 0)
(0 -0 0 -0 -0 0 0 0 0)
(0 -0 0 -0 -0 0 0 0 0)
(0 0 0 0 -0 0 0 0 0)
(0 0 0 0 -0 0 0 0 0)
(0 0 0 0 -0 0 0 0 0)
(0 0 0 0 0 0 0 0 0)
(0 0 0 0 -0 0 0 0 0)
(0 0 0 0 0 0 0 0 0)
(-0 0 0 0 0 0 0 0 0)
(0 0 0 0 0 0 0 0 0)
(0 0 0 0 0 0 0 0 0)
(0 0 0 0 0 0 0 0 0)
(0 0 0 0 0 0 0 0 0)
(0 0 0 0 0 0 0 0 0)
(0 0 0 0 0 0 0 0 0)
(0 0 0 0 0 0 0 0 0)
(0 0 0 0 -0 0 0 0 0)
(0 0 0 0 0 0 0 0 0)
(0 0 0 0 -0 0 0 0 0)
(0 0 0 0 0 0 0 0 0)
(0 0 0 0 -0 0 0 0 0)
(0 0 0 0 0 0 0 0 0)
(0 0 0 0 -0 0 0 0 0)
(0 0 0 0 0 0 0 0 0)
(0 0 0 0 -0 0 0 0 0)
(0 0 0 0 0 0 0 0 0)
(0 0 0 0 -0 0 0 0 0)
(0 0 0 0 0 0 0 0 0)
(0 0 0 0 -0 0 0 0 0)
(0 0 0 0 0 0 0 0 0)
(-0 0 0 0 -0 0 0 0 0)
(0 0 0 0 0 0 0 0 0)
(0 0 0 0 -0 0 0 0 0)
(0 0 0 0 -0 0 0 0 0)
(0 0 0 0 0 0 0 0 0)
(0 0 0 0 -0 0 0 0 0)
(0 0 0 0 -0 0 0 0 0)
(0 0 0 0 0 0 0 0 0)
(0 0 0 0 -0 0 0 0 0)
(0 0 0 0 0 0 0 0 0)
(0 0 0 0 -0 0 0 0 0)
(0 0 0 0 0 0 0 0 0)
(0 0 0 0 -0 0 0 0 0)
(0 0 0 0 0 0 0 0 0)
(0 0 0 0 -0 0 0 0 0)
(0 0 0 0 0 0 0 0 0)
(0 0 0 0 -0 0 0 0 0)
(0 0 0 0 0 0 0 0 0)
(0 0 0 0 -0 0 0 0 0)
(0 0 0 0 0 0 0 0 0)
(-0 0 0 0 -0 0 0 0 0)
(0 0 0 0 0 0 0 0 0)
(0 0 0 0 -0 0 0 0 0)
(0 0 0 0 0 0 0 0 0)
(0 0 0 0 -0 0 0 0 0)
(0 0 0 0 0 0 0 0 0)
(0 0 0 0 -0 0 0 0 0)
(0 0 0 0 0 0 0 0 0)
(0 0 0 0 -0 0 0 0 0)
(0 0 0 0 0 0 0 0 0)
(-0 0 0 0 -0 0 0 0 0)
(0 0 0 0 0 0 0 0 0)
(0 0 0 0 -0 0 0 0 0)
(0 -0 0 -0 0 0 0 0 0)
(0 0 0 0 -0 0 0 0 0)
(0 0 0 0 0 0 0 0 0)
(0 -0 0 -0 -0 0 0 0 0)
(0 0 0 0 0 0 0 0 0)
(0 -0 0 -0 -0 0 0 0 0)
(0 -0 0 -0 0 0 0 0 0)
(0 0 0 0 -0 0 0 0 0)
(0 0 0 0 0 0 0 0 0)
(0 -0 0 -0 -0 0 0 0 0)
(0 -0 0 -0 0 0 0 0 0)
(0 -0 0 -0 -0 0 0 0 0)
(0 -0 0 -0 0 0 0 0 0)
(0 -0 0 -0 -0 0 0 0 0)
(0 0 0 0 0 0 0 0 0)
(0 0 0 0 -0 0 0 0 0)
(0 0 0 0 0 0 0 0 0)
(0 -0 0 -0 -0 0 0 0 0)
(0 0 0 0 0 0 0 0 0)
(0 0 0 0 -0 0 0 0 0)
(0 -0 0 -0 0 0 0 0 0)
(0 -0 0 -0 -0 0 0 0 0)
(0 0 0 0 0 0 0 0 0)
(0 0 0 0 -0 0 0 0 0)
(0 0 0 0 0 0 0 0 0)
(0 -0 0 -0 -0 0 0 0 0)
(0 0 0 0 0 0 0 0 0)
(0 -0 0 -0 -0 0 0 0 0)
(0 0 0 0 0 0 0 0 0)
(0 -0 0 -0 -0 0 0 0 0)
(0 -0 0 -0 0 0 0 0 0)
(0 -0 0 -0 -0 0 0 0 0)
(0 0 0 0 0 0 0 0 0)
(0 0 0 0 -0 0 0 0 0)
(0 0 0 0 0 0 0 0 0)
(0 0 0 0 -0 0 0 0 0)
(0 0 0 0 0 0 0 0 0)
(0 -0 0 -0 -0 0 0 0 0)
(0 -0 0 -0 0 0 0 0 0)
(0 -0 0 -0 -0 0 0 0 0)
(0 -0 0 -0 0 0 0 0 0)
(0 -0 0 -0 -0 0 0 0 0)
(0 0 0 0 0 0 0 0 0)
(0 0 0 0 -0 0 0 0 0)
(0 0 0 0 0 0 0 0 0)
(0 0 0 0 -0 0 0 0 0)
(0 0 0 0 0 0 0 0 0)
(0 0 0 0 -0 0 0 0 0)
(0 0 0 0 0 0 0 0 0)
(0 -0 0 -0 -0 0 0 0 0)
(0 -0 0 -0 0 0 0 0 0)
(0 0 0 0 -0 0 0 0 0)
(0 0 0 0 0 0 0 0 0)
(0 0 0 0 -0 0 0 0 0)
(0 -0 0 -0 0 0 0 0 0)
(0 -0 0 -0 0 0 0 0 0)
(0 -0 0 -0 0 0 0 0 0)
(0 -0 0 -0 0 0 0 0 0)
(0 -0 0 -0 0 0 0 0 0)
(0 -0 0 -0 0 0 0 0 0)
(0 -0 0 -0 0 0 0 0 0)
)
;

boundaryField
{
    inandouthalf11
    {
        type            cyclic;
    }
    inandouthalf12
    {
        type            cyclic;
    }
    inandouthalf21
    {
        type            cyclic;
    }
    inandouthalf22
    {
        type            cyclic;
    }
    inandouthalf31
    {
        type            cyclic;
    }
    inandouthalf32
    {
        type            cyclic;
    }
    inandouthalf41
    {
        type            cyclic;
    }
    inandouthalf42
    {
        type            cyclic;
    }
    top
    {
        type            symmetryPlane;
    }
    walls
    {
        type            zeroGradient;
    }
    frontAndBackPlanes
    {
        type            empty;
    }
}


// ************************************************************************* //
