/*--------------------------------*- C++ -*----------------------------------*\
| =========                 |                                                 |
| \\      /  F ield         | OpenFOAM: The Open Source CFD Toolbox           |
|  \\    /   O peration     | Version:  2.4.x                                 |
|   \\  /    A nd           | Web:      www.OpenFOAM.org                      |
|    \\/     M anipulation  |                                                 |
\*---------------------------------------------------------------------------*/
FoamFile
{
    version     2.0;
    format      ascii;
    class       volScalarField;
    location    "5.15";
    object      Theta;
}
// * * * * * * * * * * * * * * * * * * * * * * * * * * * * * * * * * * * * * //

dimensions      [0 2 -2 0 0 0 0];

internalField   nonuniform List<scalar> 
360
(
6.66879e-21
6.68841e-21
6.68208e-21
6.67868e-21
6.67941e-21
6.68058e-21
6.68122e-21
6.68151e-21
6.68166e-21
6.68184e-21
6.68212e-21
6.68245e-21
6.6828e-21
6.68312e-21
6.68341e-21
6.68371e-21
6.684e-21
6.68431e-21
6.68462e-21
6.68495e-21
6.68531e-21
6.68571e-21
6.68618e-21
6.68672e-21
6.68734e-21
6.68803e-21
6.68875e-21
6.68945e-21
6.69002e-21
6.69036e-21
6.69034e-21
6.68992e-21
6.68911e-21
6.68804e-21
6.68696e-21
6.68619e-21
6.68617e-21
6.68746e-21
6.69085e-21
6.69763e-21
6.71002e-21
6.73082e-21
6.76083e-21
6.79053e-21
6.794e-21
6.75462e-21
6.70119e-21
6.67092e-21
6.66261e-21
6.66145e-21
6.66136e-21
6.66135e-21
6.66135e-21
6.66135e-21
6.66135e-21
6.66135e-21
6.66135e-21
6.66135e-21
6.66135e-21
6.66135e-21
6.66135e-21
6.66135e-21
6.66135e-21
6.66135e-21
6.66135e-21
6.66135e-21
6.66134e-21
6.66134e-21
6.66134e-21
6.66134e-21
6.66134e-21
6.66134e-21
6.66134e-21
6.66134e-21
6.66134e-21
6.66134e-21
6.66134e-21
6.66134e-21
6.66133e-21
6.66133e-21
6.66133e-21
6.66133e-21
6.66133e-21
6.66133e-21
6.66133e-21
6.66133e-21
6.66133e-21
6.66132e-21
6.66132e-21
6.66132e-21
6.66132e-21
6.66132e-21
6.66132e-21
6.66132e-21
6.66132e-21
6.66131e-21
6.66131e-21
6.66131e-21
6.66131e-21
6.66131e-21
6.66131e-21
6.6613e-21
6.6613e-21
6.6613e-21
6.6613e-21
6.6613e-21
6.6613e-21
6.66129e-21
6.66129e-21
6.66129e-21
6.66129e-21
6.66129e-21
6.66128e-21
6.66128e-21
6.66128e-21
6.66128e-21
6.66127e-21
6.66127e-21
6.66127e-21
6.66127e-21
6.66126e-21
6.66126e-21
6.66126e-21
6.66126e-21
6.66125e-21
6.66125e-21
6.66125e-21
6.66124e-21
6.66124e-21
6.66123e-21
6.66123e-21
6.66127e-21
1.52983e-20
7.43625e-20
4.03765e-19
2.35195e-18
1.49271e-17
1.05153e-16
8.37593e-16
7.67499e-15
8.21024e-14
1.03938e-12
1.58205e-11
2.96566e-10
9.16984e-09
6.34378e-07
2.00655e-05
0.000278635
0.00155591
0.00280895
0.00341422
0.00381857
0.00413054
0.00439126
0.00461596
0.00480968
0.00497392
0.00510956
0.0052178
0.00530042
0.00535956
0.00539753
0.00541659
0.0054189
0.00540645
0.00538103
0.00534424
0.00529754
0.00524224
0.00517953
0.00511049
0.00503615
0.00495745
0.00487525
0.00479041
0.00470369
0.00461584
0.00452754
0.00443942
0.00435208
0.00426603
0.00418176
0.00409965
0.00402001
0.00394308
0.003869
0.00379779
0.00372944
0.00366385
0.00360089
0.00354041
0.00348226
0.00342628
0.00337232
0.00332022
0.00326981
0.00322091
0.00317335
0.00312693
0.0030815
0.00303691
0.00299258
0.00294797
0.00290298
0.0028575
0.00281144
0.0027647
0.00271719
0.00266879
0.00261941
0.00256895
0.00251732
0.00246441
0.00241011
0.00235431
0.0022969
0.00223776
0.00217677
0.00211377
0.00204864
0.00198119
0.00191125
0.00183862
0.00176307
0.00168433
0.00160208
0.00151596
0.00142552
0.00133021
0.00122932
0.00112192
0.00100677
0.000882035
0.000744873
0.000590293
0.000407437
0
0
0
0
0
0
0
0
0
0
0
0
0
0
0
0
0
0
0
0
0
0
0
0
0
0
0
0
0
0
0
0
0
0
0
0
0
0
0
0
0
0
0
0
0
0
0
0
0
0
0
0
0
0
0
0
0
0
0
0
0
0
0
0
0
0
0
0
0
0
0
0
0
0
0
0
0
0
0
0
0
0
0
0
0
0
0
0
0
0
0
0
0
0
0
0
0
0
0
0
0
0
0
0
0
0
0
0
0
0
0
0
0
0
0
0
0
0
0
0
0
0
0
0
)
;

boundaryField
{
    inandouthalf11
    {
        type            cyclic;
    }
    inandouthalf12
    {
        type            cyclic;
    }
    inandouthalf21
    {
        type            cyclic;
    }
    inandouthalf22
    {
        type            cyclic;
    }
    inandouthalf31
    {
        type            cyclic;
    }
    inandouthalf32
    {
        type            cyclic;
    }
    inandouthalf41
    {
        type            cyclic;
    }
    inandouthalf42
    {
        type            cyclic;
    }
    top
    {
        type            symmetryPlane;
    }
    walls
    {
        type            zeroGradient;
    }
    frontAndBackPlanes
    {
        type            empty;
    }
}


// ************************************************************************* //
