/*--------------------------------*- C++ -*----------------------------------*\
| =========                 |                                                 |
| \\      /  F ield         | OpenFOAM: The Open Source CFD Toolbox           |
|  \\    /   O peration     | Version:  2.4.x                                 |
|   \\  /    A nd           | Web:      www.OpenFOAM.org                      |
|    \\/     M anipulation  |                                                 |
\*---------------------------------------------------------------------------*/
FoamFile
{
    version     2.0;
    format      ascii;
    class       volScalarField;
    location    "5.15";
    object      tmf;
}
// * * * * * * * * * * * * * * * * * * * * * * * * * * * * * * * * * * * * * //

dimensions      [0 0 0 0 0 0 0];

internalField   nonuniform List<scalar> 
360
(
0.999205
0.999207
0.999208
0.999208
0.999207
0.999207
0.999207
0.999207
0.999207
0.999207
0.999207
0.999207
0.999207
0.999207
0.999207
0.999207
0.999206
0.999206
0.999206
0.999206
0.999206
0.999206
0.999206
0.999206
0.999206
0.999206
0.999206
0.999205
0.999205
0.999205
0.999205
0.999205
0.999205
0.999205
0.999205
0.999205
0.999205
0.999204
0.999204
0.999204
0.999204
0.999204
0.999204
0.999204
0.999203
0.999203
0.999203
0.999203
0.999203
0.999203
0.999203
0.999203
0.999203
0.999203
0.999203
0.999203
0.999203
0.999202
0.999202
0.999202
0.999202
0.999202
0.999202
0.999202
0.999202
0.999202
0.999202
0.999202
0.999201
0.999201
0.999201
0.999201
0.999201
0.999201
0.999201
0.999201
0.9992
0.9992
0.9992
0.9992
0.9992
0.9992
0.9992
0.999199
0.999199
0.999199
0.999199
0.999199
0.999199
0.999198
0.999198
0.999198
0.999198
0.999198
0.999197
0.999197
0.999197
0.999197
0.999196
0.999196
0.999196
0.999196
0.999195
0.999195
0.999195
0.999195
0.999194
0.999194
0.999194
0.999194
0.999193
0.999193
0.999193
0.999192
0.999192
0.999192
0.999191
0.999191
0.99919
0.99919
0.99919
0.999189
0.999189
0.999188
0.999188
0.999187
0.999187
0.999186
0.999186
0.999185
0.999185
0.999184
0.998825
0.998654
0.998471
0.998238
0.997938
0.997554
0.997061
0.996429
0.995618
0.994569
0.993216
0.991473
0.989226
0.986312
0.982364
0.969978
0.915652
0.887949
0.876308
0.878137
0.881266
0.885306
0.890048
0.89528
0.900777
0.906331
0.911779
0.91701
0.921962
0.926606
0.930939
0.93497
0.938718
0.942204
0.945451
0.94848
0.951311
0.953963
0.956452
0.958792
0.960995
0.963072
0.965034
0.966888
0.968642
0.970303
0.971877
0.973368
0.974782
0.976124
0.977397
0.978606
0.979752
0.980841
0.981874
0.982855
0.983787
0.984672
0.985514
0.986314
0.987076
0.987803
0.988494
0.989153
0.98978
0.990376
0.99094
0.991473
0.991976
0.992451
0.992903
0.993328
0.993726
0.994094
0.994431
0.994737
0.995012
0.995256
0.99547
0.995656
0.995815
0.995951
0.996064
0.996157
0.996232
0.996291
0.996336
0.996368
0.996389
0.996401
0.996404
0.996401
0.996391
0.996376
0.996358
0.996335
0.99631
0.996283
0.996254
0.996225
0.996196
0.996168
0.996141
0.996118
0.996098
0.993614
0.993798
0.996143
0.996297
0.996399
0.996526
0.996678
0.996861
0.997088
0.997377
0.997767
0.998244
0.998566
0.998623
0.998617
0.998609
0.998602
0.998595
0.998584
0.998303
0.994528
0.994189
0.994189
0.994189
0.994189
0.994189
0.994189
0.994189
0.994189
0.994189
0.994189
0.994189
0.994189
0.994189
0.994189
0.994189
0.994189
0.994189
0.994189
0.994189
0.994189
0.994189
0.994189
0.994189
0.994189
0.994189
0.994189
0.994189
0.994189
0.994189
0.994189
0.994189
0.994189
0.994189
0.994189
0.994189
0.994189
0.994189
0.994189
0.994189
0.994189
0.994189
0.994189
0.994189
0.994189
0.994189
0.994189
0.994189
0.994189
0.994189
0.994189
0.994189
0.994189
0.994189
0.994189
0.994189
0.994189
0.994189
0.994189
0.994189
0.994189
0.994189
0.994189
0.994189
0.994189
0.994189
0.994189
0.994189
0.994189
0.994189
0.994189
0.994189
0.994189
0.994189
0.994189
0.994189
0.994189
0.994189
0.994189
0.994189
0.994189
0.994189
0.994189
0.994189
0.994189
0.994189
0.994189
0.994189
0.994189
0.994189
0.994189
0.994189
0.994189
0.994189
0.994189
0.994189
0.994189
0.994189
0.994189
0.994189
0.994189
0.994174
0.993239
)
;

boundaryField
{
    inandouthalf11
    {
        type            cyclic;
    }
    inandouthalf12
    {
        type            cyclic;
    }
    inandouthalf21
    {
        type            cyclic;
    }
    inandouthalf22
    {
        type            cyclic;
    }
    inandouthalf31
    {
        type            cyclic;
    }
    inandouthalf32
    {
        type            cyclic;
    }
    inandouthalf41
    {
        type            cyclic;
    }
    inandouthalf42
    {
        type            cyclic;
    }
    top
    {
        type            symmetryPlane;
    }
    walls
    {
        type            calculated;
        value           uniform 0;
    }
    frontAndBackPlanes
    {
        type            empty;
    }
}


// ************************************************************************* //
