/*--------------------------------*- C++ -*----------------------------------*\
| =========                 |                                                 |
| \\      /  F ield         | OpenFOAM: The Open Source CFD Toolbox           |
|  \\    /   O peration     | Version:  2.4.x                                 |
|   \\  /    A nd           | Web:      www.OpenFOAM.org                      |
|    \\/     M anipulation  |                                                 |
\*---------------------------------------------------------------------------*/
FoamFile
{
    version     2.0;
    format      ascii;
    class       volVectorField;
    location    "5.15";
    object      Ub;
}
// * * * * * * * * * * * * * * * * * * * * * * * * * * * * * * * * * * * * * //

dimensions      [0 1 -1 0 0 0 0];

internalField   nonuniform List<vector> 
360
(
(8.9707e-07 9.3857e-08 0)
(8.55861e-07 3.56996e-07 0)
(8.10259e-07 6.7986e-07 0)
(7.71067e-07 9.74914e-07 0)
(7.32508e-07 1.25941e-06 0)
(6.92305e-07 1.54865e-06 0)
(6.50818e-07 1.84434e-06 0)
(6.08573e-07 2.1437e-06 0)
(5.65804e-07 2.44465e-06 0)
(5.22565e-07 2.74671e-06 0)
(4.78778e-07 3.0504e-06 0)
(4.34346e-07 3.35622e-06 0)
(3.89227e-07 3.66442e-06 0)
(3.4342e-07 3.97492e-06 0)
(2.9695e-07 4.28753e-06 0)
(2.49826e-07 4.60214e-06 0)
(2.02039e-07 4.91873e-06 0)
(1.53576e-07 5.23734e-06 0)
(1.04421e-07 5.55798e-06 0)
(5.45534e-08 5.88078e-06 0)
(3.94154e-09 6.20579e-06 0)
(-4.74527e-08 6.53327e-06 0)
(-9.97021e-08 6.86357e-06 0)
(-1.5289e-07 7.19712e-06 0)
(-2.07105e-07 7.5344e-06 0)
(-2.62431e-07 7.87582e-06 0)
(-3.18927e-07 8.2216e-06 0)
(-3.76609e-07 8.57177e-06 0)
(-4.3542e-07 8.92582e-06 0)
(-4.95179e-07 9.28258e-06 0)
(-5.55586e-07 9.64016e-06 0)
(-6.1625e-07 9.99634e-06 0)
(-6.76741e-07 1.03485e-05 0)
(-7.36677e-07 1.06946e-05 0)
(-7.95885e-07 1.10336e-05 0)
(-8.54482e-07 1.13664e-05 0)
(-9.13068e-07 1.16964e-05 0)
(-9.72831e-07 1.20304e-05 0)
(-1.03568e-06 1.23789e-05 0)
(-1.10441e-06 1.27573e-05 0)
(-1.18284e-06 1.31864e-05 0)
(-1.27583e-06 1.36914e-05 0)
(-1.38815e-06 1.42945e-05 0)
(-1.5211e-06 1.49971e-05 0)
(-1.66624e-06 1.5751e-05 0)
(-1.80156e-06 1.645e-05 0)
(-1.90132e-06 1.69784e-05 0)
(-1.95612e-06 1.72895e-05 0)
(-1.97795e-06 1.74282e-05 0)
(-1.98433e-06 1.74747e-05 0)
(-1.98576e-06 1.74861e-05 0)
(-1.98596e-06 1.74878e-05 0)
(-1.98592e-06 1.74872e-05 0)
(-1.98581e-06 1.74862e-05 0)
(-1.98568e-06 1.74848e-05 0)
(-1.98553e-06 1.74835e-05 0)
(-1.98538e-06 1.74819e-05 0)
(-1.98522e-06 1.74804e-05 0)
(-1.98504e-06 1.74787e-05 0)
(-1.98487e-06 1.74769e-05 0)
(-1.98467e-06 1.74751e-05 0)
(-1.98448e-06 1.74732e-05 0)
(-1.98428e-06 1.74713e-05 0)
(-1.98407e-06 1.74692e-05 0)
(-1.98386e-06 1.74672e-05 0)
(-1.98365e-06 1.74651e-05 0)
(-1.98342e-06 1.74629e-05 0)
(-1.98319e-06 1.74607e-05 0)
(-1.98296e-06 1.74583e-05 0)
(-1.98271e-06 1.74559e-05 0)
(-1.98245e-06 1.74534e-05 0)
(-1.98218e-06 1.74508e-05 0)
(-1.98191e-06 1.74481e-05 0)
(-1.98162e-06 1.74453e-05 0)
(-1.98133e-06 1.74425e-05 0)
(-1.98103e-06 1.74396e-05 0)
(-1.98072e-06 1.74366e-05 0)
(-1.98041e-06 1.74336e-05 0)
(-1.98009e-06 1.74305e-05 0)
(-1.97977e-06 1.74273e-05 0)
(-1.97943e-06 1.7424e-05 0)
(-1.97909e-06 1.74207e-05 0)
(-1.97873e-06 1.74173e-05 0)
(-1.97837e-06 1.74138e-05 0)
(-1.978e-06 1.74102e-05 0)
(-1.97762e-06 1.74065e-05 0)
(-1.97723e-06 1.74027e-05 0)
(-1.97683e-06 1.73989e-05 0)
(-1.97643e-06 1.7395e-05 0)
(-1.97601e-06 1.7391e-05 0)
(-1.97559e-06 1.73869e-05 0)
(-1.97516e-06 1.73827e-05 0)
(-1.97471e-06 1.73784e-05 0)
(-1.97426e-06 1.7374e-05 0)
(-1.97379e-06 1.73696e-05 0)
(-1.97332e-06 1.7365e-05 0)
(-1.97283e-06 1.73603e-05 0)
(-1.97233e-06 1.73555e-05 0)
(-1.97182e-06 1.73506e-05 0)
(-1.9713e-06 1.73456e-05 0)
(-1.97076e-06 1.73404e-05 0)
(-1.97021e-06 1.73352e-05 0)
(-1.96965e-06 1.73298e-05 0)
(-1.96907e-06 1.73243e-05 0)
(-1.96848e-06 1.73187e-05 0)
(-1.96788e-06 1.73129e-05 0)
(-1.96725e-06 1.73069e-05 0)
(-1.96661e-06 1.73008e-05 0)
(-1.96596e-06 1.72946e-05 0)
(-1.96528e-06 1.72882e-05 0)
(-1.96459e-06 1.72816e-05 0)
(-1.96387e-06 1.72749e-05 0)
(-1.96314e-06 1.72679e-05 0)
(-1.96238e-06 1.72608e-05 0)
(-1.96161e-06 1.72534e-05 0)
(-1.9608e-06 1.72459e-05 0)
(-1.95998e-06 1.72381e-05 0)
(-1.95912e-06 1.72301e-05 0)
(-1.95824e-06 1.72219e-05 0)
(-1.95733e-06 1.72134e-05 0)
(-1.9564e-06 1.72046e-05 0)
(-1.95543e-06 1.71956e-05 0)
(-1.95443e-06 1.71862e-05 0)
(-1.95339e-06 1.71766e-05 0)
(-1.95232e-06 1.71667e-05 0)
(-1.95121e-06 1.71564e-05 0)
(-1.95006e-06 1.71457e-05 0)
(-1.94886e-06 1.71347e-05 0)
(-1.94762e-06 1.71232e-05 0)
(-1.94632e-06 1.71113e-05 0)
(-1.94497e-06 1.70989e-05 0)
(-1.94356e-06 1.7086e-05 0)
(-1.94209e-06 1.70725e-05 0)
(-1.94053e-06 1.70583e-05 0)
(-1.93887e-06 1.70433e-05 0)
(-1.93711e-06 1.70275e-05 0)
(-1.93526e-06 1.70107e-05 0)
(-1.9333e-06 1.69925e-05 0)
(-1.93111e-06 1.69723e-05 0)
(-1.9286e-06 1.69508e-05 0)
(-1.92587e-06 1.69289e-05 0)
(-1.92326e-06 1.69019e-05 0)
(-1.92014e-06 1.68719e-05 0)
(-1.91607e-06 1.68367e-05 0)
(-1.91104e-06 1.6775e-05 0)
(-1.90593e-06 1.69903e-05 0)
(-5.83613e-06 1.08925e-05 0)
(-0.00250502 3.78949e-05 0)
(-0.0917316 0.000180632 0)
(-0.189558 9.98172e-05 0)
(-0.264969 0.000104009 0)
(-0.326161 8.72753e-05 0)
(-0.377245 7.17921e-05 0)
(-0.420691 5.75218e-05 0)
(-0.458195 4.4785e-05 0)
(-0.490992 3.38125e-05 0)
(-0.520005 2.46697e-05 0)
(-0.545941 1.72497e-05 0)
(-0.569348 1.13499e-05 0)
(-0.590652 6.7356e-06 0)
(-0.610189 3.17917e-06 0)
(-0.628226 4.7744e-07 0)
(-0.644979 -1.54212e-06 0)
(-0.660621 -3.02198e-06 0)
(-0.675293 -4.07763e-06 0)
(-0.689112 -4.80159e-06 0)
(-0.702176 -5.26757e-06 0)
(-0.714564 -5.53404e-06 0)
(-0.726346 -5.64726e-06 0)
(-0.737578 -5.64376e-06 0)
(-0.74831 -5.55238e-06 0)
(-0.758584 -5.39583e-06 0)
(-0.768434 -5.19196e-06 0)
(-0.777894 -4.95482e-06 0)
(-0.786987 -4.69536e-06 0)
(-0.795739 -4.42215e-06 0)
(-0.804168 -4.14183e-06 0)
(-0.81229 -3.85951e-06 0)
(-0.820122 -3.57901e-06 0)
(-0.827674 -3.30286e-06 0)
(-0.834958 -3.03218e-06 0)
(-0.841981 -2.76674e-06 0)
(-0.848751 -2.50531e-06 0)
(-0.855273 -2.24679e-06 0)
(-0.861551 -1.9916e-06 0)
(-0.867588 -1.74272e-06 0)
(-0.873385 -1.50552e-06 0)
(-0.878944 -1.28632e-06 0)
(-0.884262 -1.09036e-06 0)
(-0.889341 -9.20376e-07 0)
(-0.894176 -7.76374e-07 0)
(-0.898767 -6.56251e-07 0)
(-0.903111 -5.56418e-07 0)
(-0.907206 -4.72459e-07 0)
(-0.911047 -4.00317e-07 0)
(-0.914634 -3.37511e-07 0)
(-0.917965 -2.8323e-07 0)
(-0.921039 -2.37279e-07 0)
(-0.923856 -1.99079e-07 0)
(-0.926418 -1.67548e-07 0)
(-0.928729 -1.41552e-07 0)
(-0.930817 -1.19916e-07 0)
(-0.932697 -1.01673e-07 0)
(-0.934367 -8.61486e-08 0)
(-0.935825 -7.30121e-08 0)
(-0.937074 -6.20169e-08 0)
(-0.938118 -5.26839e-08 0)
(-0.938962 -4.46737e-08 0)
(-0.939616 -3.79177e-08 0)
(-0.940088 -3.22302e-08 0)
(-0.940389 -2.73569e-08 0)
(-0.940527 -2.31915e-08 0)
(-0.940513 -1.96455e-08 0)
(-0.940355 -1.66163e-08 0)
(-0.940061 -1.40438e-08 0)
(-0.939638 -1.18391e-08 0)
(-0.939092 -9.93974e-09 0)
(-0.938429 -8.34528e-09 0)
(-0.937654 -6.99919e-09 0)
(-0.936771 -5.83474e-09 0)
(-0.935784 -4.84668e-09 0)
(-0.934695 -4.01955e-09 0)
(-0.93351 -3.32043e-09 0)
(-0.932229 -2.72553e-09 0)
(-0.930857 -2.2205e-09 0)
(-0.929396 -1.80147e-09 0)
(-0.92785 -1.45308e-09 0)
(-0.92622 -1.15984e-09 0)
(-0.92451 -9.1963e-10 0)
(-0.922724 -7.24228e-10 0)
(-0.920864 -5.6271e-10 0)
(-0.918934 -4.28265e-10 0)
(-0.916938 -3.17831e-10 0)
(-0.91488 -2.36417e-10 0)
(-0.912764 -1.84747e-10 0)
(-0.910596 -1.52094e-10 0)
(-0.90838 -1.05439e-10 0)
(-0.906124 -3.6287e-11 0)
(-0.903835 9.3483e-12 0)
(-0.901521 9.10809e-12 0)
(-0.899192 9.43542e-14 0)
(-0.896861 -2.25418e-11 0)
(-0.894543 5.96392e-11 0)
(-0.892257 -1.28655e-10 0)
(-0.890027 2.22129e-10 0)
(-0.887887 -3.51585e-10 0)
(-0.885886 5.06029e-10 0)
(-0.8841 -6.91721e-10 0)
(-0.882691 8.9365e-10 0)
(-0.882171 -1.11398e-09 0)
(-0.88213 1.33879e-09 0)
(-0.882128 -1.5738e-09 0)
(-0.882127 1.81073e-09 0)
(-0.882127 -2.05721e-09 0)
(-0.882126 2.3064e-09 0)
(-0.882126 -2.56521e-09 0)
(-0.882126 2.82756e-09 0)
(-0.882125 -3.0996e-09 0)
(-0.882125 3.37601e-09 0)
(-0.882125 -3.66215e-09 0)
(-0.882125 3.95348e-09 0)
(-0.882125 -4.25454e-09 0)
(-0.882125 4.56158e-09 0)
(-0.882125 -4.87835e-09 0)
(-0.882125 5.20184e-09 0)
(-0.882125 -5.53505e-09 0)
(-0.882125 5.87566e-09 0)
(-0.882125 -6.226e-09 0)
(-0.882125 6.58437e-09 0)
(-0.882125 -6.9525e-09 0)
(-0.882125 7.32923e-09 0)
(-0.882125 -7.71577e-09 0)
(-0.882125 8.11144e-09 0)
(-0.882125 -8.51697e-09 0)
(-0.882125 8.93214e-09 0)
(-0.882125 -9.35723e-09 0)
(-0.882125 9.79245e-09 0)
(-0.882125 -1.02377e-08 0)
(-0.882125 1.06935e-08 0)
(-0.882125 -1.11594e-08 0)
(-0.882125 1.16363e-08 0)
(-0.882125 -1.21235e-08 0)
(-0.882125 1.2622e-08 0)
(-0.882125 -1.31308e-08 0)
(-0.882125 1.36514e-08 0)
(-0.882125 -1.41824e-08 0)
(-0.882125 1.47255e-08 0)
(-0.882125 -1.52793e-08 0)
(-0.882125 1.58452e-08 0)
(-0.882125 -1.64222e-08 0)
(-0.882125 1.70115e-08 0)
(-0.882125 -1.76122e-08 0)
(-0.882125 1.82253e-08 0)
(-0.882125 -1.885e-08 0)
(-0.882125 1.94874e-08 0)
(-0.882125 -2.01366e-08 0)
(-0.882125 2.07985e-08 0)
(-0.882125 -2.14727e-08 0)
(-0.882125 2.21597e-08 0)
(-0.882125 -2.28591e-08 0)
(-0.882125 2.35715e-08 0)
(-0.882125 -2.42965e-08 0)
(-0.882125 2.50347e-08 0)
(-0.882125 -2.57855e-08 0)
(-0.882125 2.65498e-08 0)
(-0.882125 -2.73267e-08 0)
(-0.882125 2.81172e-08 0)
(-0.882125 -2.89204e-08 0)
(-0.882125 2.97373e-08 0)
(-0.882125 -3.0567e-08 0)
(-0.882125 2.75699e-08 0)
(-0.882125 -2.77877e-08 0)
(-0.882125 2.80035e-08 0)
(-0.882125 -2.82163e-08 0)
(-0.882125 2.84271e-08 0)
(-0.882125 -2.86349e-08 0)
(-0.882125 2.88405e-08 0)
(-0.882125 -2.90432e-08 0)
(-0.882125 2.92437e-08 0)
(-0.882125 -2.94412e-08 0)
(-0.882125 2.96363e-08 0)
(-0.882125 -2.98285e-08 0)
(-0.882125 3.00183e-08 0)
(-0.882125 -3.02051e-08 0)
(-0.882125 3.03893e-08 0)
(-0.882125 -3.05705e-08 0)
(-0.882125 3.07491e-08 0)
(-0.882125 -3.09247e-08 0)
(-0.882125 3.10975e-08 0)
(-0.882125 -3.12672e-08 0)
(-0.882125 3.14342e-08 0)
(-0.882125 -3.15979e-08 0)
(-0.882125 3.17588e-08 0)
(-0.882125 -3.19163e-08 0)
(-0.882125 3.20709e-08 0)
(-0.882125 -3.22222e-08 0)
(-0.882125 3.23703e-08 0)
(-0.882125 -3.25149e-08 0)
(-0.882125 3.26564e-08 0)
(-0.882125 -3.27942e-08 0)
(-0.882125 3.29286e-08 0)
(-0.882125 -3.30593e-08 0)
(-0.882125 3.31865e-08 0)
(-0.882125 -3.33097e-08 0)
(-0.882125 3.34292e-08 0)
(-0.882125 -3.35445e-08 0)
(-0.882125 3.36558e-08 0)
(-0.882125 -3.37628e-08 0)
(-0.882125 3.38654e-08 0)
(-0.882125 -3.39633e-08 0)
(-0.882125 3.40566e-08 0)
(-0.882125 -3.41445e-08 0)
(-0.882125 3.42275e-08 0)
(-0.882125 -3.43041e-08 0)
(-0.882125 3.43757e-08 0)
(-0.882125 -3.44391e-08 0)
(-0.882125 3.44969e-08 0)
(-0.882125 -3.45438e-08 0)
(-0.882125 3.45824e-08 0)
(-0.882125 -3.46068e-08 0)
)
;

boundaryField
{
    inandouthalf11
    {
        type            cyclic;
    }
    inandouthalf12
    {
        type            cyclic;
    }
    inandouthalf21
    {
        type            cyclic;
    }
    inandouthalf22
    {
        type            cyclic;
    }
    inandouthalf31
    {
        type            cyclic;
    }
    inandouthalf32
    {
        type            cyclic;
    }
    inandouthalf41
    {
        type            cyclic;
    }
    inandouthalf42
    {
        type            cyclic;
    }
    top
    {
        type            symmetryPlane;
    }
    walls
    {
        type            fixedValue;
        value           uniform (0 0 0);
    }
    frontAndBackPlanes
    {
        type            empty;
    }
}


// ************************************************************************* //
