/*--------------------------------*- C++ -*----------------------------------*\
| =========                 |                                                 |
| \\      /  F ield         | OpenFOAM: The Open Source CFD Toolbox           |
|  \\    /   O peration     | Version:  2.4.x                                 |
|   \\  /    A nd           | Web:      www.OpenFOAM.org                      |
|    \\/     M anipulation  |                                                 |
\*---------------------------------------------------------------------------*/
FoamFile
{
    version     2.0;
    format      ascii;
    class       volVectorField;
    location    "5.15";
    object      Ur;
}
// * * * * * * * * * * * * * * * * * * * * * * * * * * * * * * * * * * * * * //

dimensions      [0 1 -1 0 0 0 0];

internalField   nonuniform List<vector> 
360
(
(8.9707e-07 9.3857e-08 0)
(8.93594e-07 5.90728e-07 0)
(8.92586e-07 1.12431e-06 0)
(8.93034e-07 1.59658e-06 0)
(8.93409e-07 2.0585e-06 0)
(8.93594e-07 2.53246e-06 0)
(8.93757e-07 3.01715e-06 0)
(8.93932e-07 3.50735e-06 0)
(8.94108e-07 3.99997e-06 0)
(8.94291e-07 4.49432e-06 0)
(8.94481e-07 4.99136e-06 0)
(8.94671e-07 5.492e-06 0)
(8.94863e-07 5.99663e-06 0)
(8.95055e-07 6.5051e-06 0)
(8.95247e-07 7.01704e-06 0)
(8.95442e-07 7.53228e-06 0)
(8.95638e-07 8.05082e-06 0)
(8.95836e-07 8.5727e-06 0)
(8.96036e-07 9.09795e-06 0)
(8.96238e-07 9.62677e-06 0)
(8.96439e-07 1.01593e-05 0)
(8.96644e-07 1.06958e-05 0)
(8.9685e-07 1.1237e-05 0)
(8.97057e-07 1.17836e-05 0)
(8.97268e-07 1.23364e-05 0)
(8.9748e-07 1.2896e-05 0)
(8.97694e-07 1.34629e-05 0)
(8.97913e-07 1.40371e-05 0)
(8.98135e-07 1.46178e-05 0)
(8.98358e-07 1.52031e-05 0)
(8.98584e-07 1.579e-05 0)
(8.98813e-07 1.63746e-05 0)
(8.99037e-07 1.69526e-05 0)
(8.99267e-07 1.75206e-05 0)
(8.99488e-07 1.80768e-05 0)
(8.99708e-07 1.86224e-05 0)
(8.99921e-07 1.91629e-05 0)
(9.00133e-07 1.97093e-05 0)
(9.00346e-07 2.02791e-05 0)
(9.00554e-07 2.0897e-05 0)
(9.00777e-07 2.15972e-05 0)
(9.01014e-07 2.2422e-05 0)
(9.01284e-07 2.34108e-05 0)
(9.01625e-07 2.45712e-05 0)
(9.02054e-07 2.58282e-05 0)
(9.02556e-07 2.6999e-05 0)
(9.03038e-07 2.78755e-05 0)
(9.03388e-07 2.83761e-05 0)
(9.03605e-07 2.85893e-05 0)
(9.0375e-07 2.86573e-05 0)
(9.03862e-07 2.86737e-05 0)
(9.03978e-07 2.86765e-05 0)
(9.04098e-07 2.86761e-05 0)
(9.04228e-07 2.8675e-05 0)
(9.04362e-07 2.86737e-05 0)
(9.04513e-07 2.86724e-05 0)
(9.04665e-07 2.86708e-05 0)
(9.04833e-07 2.86693e-05 0)
(9.05006e-07 2.86676e-05 0)
(9.05185e-07 2.86659e-05 0)
(9.05381e-07 2.86641e-05 0)
(9.05576e-07 2.86622e-05 0)
(9.05784e-07 2.86602e-05 0)
(9.05993e-07 2.86582e-05 0)
(9.06209e-07 2.86562e-05 0)
(9.06429e-07 2.86541e-05 0)
(9.06657e-07 2.86519e-05 0)
(9.06893e-07 2.86497e-05 0)
(9.07137e-07 2.86474e-05 0)
(9.07388e-07 2.8645e-05 0)
(9.07654e-07 2.86425e-05 0)
(9.0793e-07 2.86399e-05 0)
(9.08209e-07 2.86372e-05 0)
(9.08502e-07 2.86345e-05 0)
(9.088e-07 2.86316e-05 0)
(9.09108e-07 2.86288e-05 0)
(9.09419e-07 2.86258e-05 0)
(9.09737e-07 2.86228e-05 0)
(9.10063e-07 2.86197e-05 0)
(9.10397e-07 2.86165e-05 0)
(9.10738e-07 2.86133e-05 0)
(9.11089e-07 2.861e-05 0)
(9.11451e-07 2.86066e-05 0)
(9.11821e-07 2.86031e-05 0)
(9.12202e-07 2.85995e-05 0)
(9.12591e-07 2.85958e-05 0)
(9.12989e-07 2.85921e-05 0)
(9.13396e-07 2.85883e-05 0)
(9.13811e-07 2.85844e-05 0)
(9.14235e-07 2.85804e-05 0)
(9.14668e-07 2.85763e-05 0)
(9.15112e-07 2.85722e-05 0)
(9.15565e-07 2.85679e-05 0)
(9.1603e-07 2.85635e-05 0)
(9.16506e-07 2.85591e-05 0)
(9.16993e-07 2.85545e-05 0)
(9.17491e-07 2.85499e-05 0)
(9.18002e-07 2.85451e-05 0)
(9.18525e-07 2.85402e-05 0)
(9.1906e-07 2.85352e-05 0)
(9.19608e-07 2.85301e-05 0)
(9.20169e-07 2.85249e-05 0)
(9.20744e-07 2.85195e-05 0)
(9.21334e-07 2.8514e-05 0)
(9.21938e-07 2.85084e-05 0)
(9.22559e-07 2.85027e-05 0)
(9.23195e-07 2.84968e-05 0)
(9.23848e-07 2.84907e-05 0)
(9.24518e-07 2.84845e-05 0)
(9.25207e-07 2.84781e-05 0)
(9.25915e-07 2.84715e-05 0)
(9.26643e-07 2.84648e-05 0)
(9.27392e-07 2.84579e-05 0)
(9.28162e-07 2.84508e-05 0)
(9.28955e-07 2.84435e-05 0)
(9.29772e-07 2.84359e-05 0)
(9.30614e-07 2.84282e-05 0)
(9.31482e-07 2.84202e-05 0)
(9.32377e-07 2.8412e-05 0)
(9.33301e-07 2.84035e-05 0)
(9.34255e-07 2.83948e-05 0)
(9.3524e-07 2.83857e-05 0)
(9.36258e-07 2.83764e-05 0)
(9.37311e-07 2.83668e-05 0)
(9.384e-07 2.83569e-05 0)
(9.39528e-07 2.83466e-05 0)
(9.40697e-07 2.8336e-05 0)
(9.41911e-07 2.8325e-05 0)
(9.43173e-07 2.83136e-05 0)
(9.44488e-07 2.83017e-05 0)
(9.45858e-07 2.82893e-05 0)
(9.47285e-07 2.82764e-05 0)
(9.48777e-07 2.82629e-05 0)
(9.50351e-07 2.82487e-05 0)
(9.52026e-07 2.82337e-05 0)
(9.538e-07 2.8218e-05 0)
(9.55664e-07 2.82012e-05 0)
(9.57645e-07 2.8183e-05 0)
(9.59844e-07 2.81628e-05 0)
(9.62372e-07 2.81413e-05 0)
(9.65116e-07 2.81195e-05 0)
(9.67734e-07 2.80924e-05 0)
(9.70862e-07 2.80624e-05 0)
(9.74932e-07 2.80272e-05 0)
(9.79969e-07 2.79655e-05 0)
(9.85079e-07 2.81808e-05 0)
(-2.94512e-06 2.2083e-05 0)
(-0.000948089 6.40732e-05 0)
(-0.00900776 0.000484156 0)
(-0.00896085 0.000476665 0)
(-0.00733924 0.000546161 0)
(-0.00596217 0.000560099 0)
(-0.00500536 0.000565479 0)
(-0.00435995 0.000558624 0)
(-0.00394792 0.000538891 0)
(-0.00371804 0.000505967 0)
(-0.00363277 0.000459718 0)
(-0.00366337 0.000400074 0)
(-0.0037885 0.000327094 0)
(-0.00399329 0.000240969 0)
(-0.00426842 0.000142008 0)
(-0.00460895 3.0595e-05 0)
(-0.00501335 -9.28437e-05 0)
(-0.00548262 -0.000227852 0)
(-0.0060196 -0.000373967 0)
(-0.00662846 -0.000530738 0)
(-0.00731426 -0.000697713 0)
(-0.00808268 -0.000874446 0)
(-0.00893972 -0.00106049 0)
(-0.00989153 -0.00125541 0)
(-0.0109442 -0.00145873 0)
(-0.0121036 -0.00166999 0)
(-0.0133752 -0.00188869 0)
(-0.014764 -0.00211429 0)
(-0.0162744 -0.00234621 0)
(-0.01791 -0.00258383 0)
(-0.0196732 -0.00282643 0)
(-0.0215655 -0.00307322 0)
(-0.0235872 -0.00332328 0)
(-0.025737 -0.00357541 0)
(-0.028012 -0.00382777 0)
(-0.0304076 -0.00407741 0)
(-0.0329167 -0.00431976 0)
(-0.0355298 -0.00454858 0)
(-0.0382342 -0.00475662 0)
(-0.0410139 -0.00493706 0)
(-0.0438499 -0.00508524 0)
(-0.0467207 -0.00519991 0)
(-0.0496035 -0.00528339 0)
(-0.0524751 -0.00534063 0)
(-0.0553132 -0.00537784 0)
(-0.0580967 -0.00540133 0)
(-0.0608062 -0.00541661 0)
(-0.0634237 -0.00542736 0)
(-0.0659322 -0.00543468 0)
(-0.0683145 -0.00543782 0)
(-0.0705542 -0.00543586 0)
(-0.0726367 -0.00542889 0)
(-0.0745501 -0.00541787 0)
(-0.0762856 -0.00540393 0)
(-0.0778377 -0.00538798 0)
(-0.0792179 -0.00537067 0)
(-0.0804318 -0.0053526 0)
(-0.0814715 -0.00533397 0)
(-0.0823319 -0.00531464 0)
(-0.0830118 -0.00529514 0)
(-0.083513 -0.00527592 0)
(-0.0838382 -0.00525641 0)
(-0.0839927 -0.00523654 0)
(-0.0839844 -0.00521686 0)
(-0.0838206 -0.00519708 0)
(-0.083509 -0.00517687 0)
(-0.0830577 -0.00515641 0)
(-0.0824737 -0.00513532 0)
(-0.0817638 -0.0051135 0)
(-0.0809348 -0.00509119 0)
(-0.0799906 -0.00506747 0)
(-0.0789361 -0.00504223 0)
(-0.0777776 -0.00501627 0)
(-0.0765173 -0.00498865 0)
(-0.0751581 -0.00495884 0)
(-0.0737046 -0.00492727 0)
(-0.0721597 -0.00489357 0)
(-0.0705268 -0.00485769 0)
(-0.0688075 -0.00481858 0)
(-0.067005 -0.00477577 0)
(-0.0651241 -0.00472994 0)
(-0.063166 -0.00467924 0)
(-0.0611346 -0.00462309 0)
(-0.059035 -0.00456177 0)
(-0.056871 -0.00449381 0)
(-0.0546466 -0.00441753 0)
(-0.0523642 -0.00432847 0)
(-0.0500281 -0.00422048 0)
(-0.0476594 -0.00410437 0)
(-0.0452812 -0.00399514 0)
(-0.0428217 -0.0038283 0)
(-0.000944659 -0.00173308 0)
(-0.000530377 0.00231478 0)
(-0.000386351 0.0376511 0)
(-0.000628172 0.0397722 0)
(-0.000593607 0.0395982 0)
(-0.000583091 0.0396137 0)
(-0.000563746 0.0396128 0)
(-0.00053684 0.0396121 0)
(-0.000499188 0.0396098 0)
(-0.000447535 0.039605 0)
(-0.000397164 0.0395947 0)
(-0.000155757 0.0395751 0)
(2.04077e-06 0.0395569 0)
(1.64363e-05 0.0395505 0)
(1.67745e-05 0.0395501 0)
(1.68317e-05 0.0395501 0)
(1.68523e-05 0.0395501 0)
(1.68703e-05 0.0395501 0)
(1.68845e-05 0.0395501 0)
(1.68957e-05 0.0395501 0)
(1.69047e-05 0.0395501 0)
(1.69117e-05 0.0395501 0)
(1.69172e-05 0.0395501 0)
(1.69215e-05 0.0395501 0)
(1.69249e-05 0.0395501 0)
(1.69275e-05 0.0395501 0)
(1.69295e-05 0.0395501 0)
(1.69311e-05 0.0395501 0)
(1.69323e-05 0.0395501 0)
(1.69332e-05 0.0395501 0)
(1.69339e-05 0.0395501 0)
(1.69344e-05 0.0395501 0)
(1.69347e-05 0.0395501 0)
(1.69349e-05 0.0395501 0)
(1.69352e-05 0.0395501 0)
(1.69355e-05 0.0395501 0)
(1.69355e-05 0.0395501 0)
(1.69356e-05 0.0395501 0)
(1.69357e-05 0.0395501 0)
(1.69357e-05 0.0395501 0)
(1.69357e-05 0.0395501 0)
(1.69357e-05 0.0395501 0)
(1.69357e-05 0.0395501 0)
(1.69358e-05 0.0395501 0)
(1.69358e-05 0.0395501 0)
(1.69358e-05 0.0395501 0)
(1.69358e-05 0.0395501 0)
(1.69358e-05 0.0395501 0)
(1.69358e-05 0.0395501 0)
(1.69358e-05 0.0395501 0)
(1.69358e-05 0.0395501 0)
(1.69358e-05 0.0395501 0)
(1.69358e-05 0.0395501 0)
(1.69358e-05 0.0395501 0)
(1.69358e-05 0.0395501 0)
(1.69358e-05 0.0395501 0)
(1.69358e-05 0.0395501 0)
(1.69358e-05 0.0395501 0)
(1.69358e-05 0.0395501 0)
(1.69358e-05 0.0395501 0)
(1.69358e-05 0.0395501 0)
(1.69358e-05 0.0395501 0)
(1.69358e-05 0.0395501 0)
(1.69358e-05 0.0395501 0)
(1.69358e-05 0.0395501 0)
(1.69358e-05 0.0395501 0)
(1.69358e-05 0.0395501 0)
(1.69358e-05 0.0395501 0)
(1.69358e-05 0.0395501 0)
(1.69358e-05 0.0395501 0)
(1.69358e-05 0.0395501 0)
(1.69358e-05 0.0395501 0)
(1.69358e-05 0.0395501 0)
(1.69358e-05 0.0395501 0)
(1.69358e-05 0.0395501 0)
(1.69358e-05 0.0395501 0)
(1.69358e-05 0.0395501 0)
(1.69358e-05 0.0395501 0)
(1.69358e-05 0.0395501 0)
(1.69358e-05 0.0395501 0)
(1.69358e-05 0.0395501 0)
(1.69358e-05 0.0395501 0)
(1.69358e-05 0.0395501 0)
(1.69358e-05 0.0395501 0)
(1.69358e-05 0.0395501 0)
(1.69358e-05 0.0395501 0)
(1.69358e-05 0.0395501 0)
(1.69358e-05 0.0395501 0)
(1.69358e-05 0.0395501 0)
(1.69358e-05 0.0395501 0)
(1.69358e-05 0.0395501 0)
(1.69358e-05 0.0395501 0)
(1.69358e-05 0.0395501 0)
(1.69358e-05 0.0395501 0)
(1.69358e-05 0.0395501 0)
(1.69358e-05 0.0395501 0)
(1.69358e-05 0.0395501 0)
(1.69358e-05 0.0395501 0)
(1.69358e-05 0.0395501 0)
(1.69358e-05 0.0395501 0)
(1.69358e-05 0.0395501 0)
(1.69358e-05 0.0395501 0)
(1.69358e-05 0.0395501 0)
(1.69358e-05 0.0395501 0)
(1.69358e-05 0.0395501 0)
(1.69358e-05 0.0395501 0)
(1.69358e-05 0.0395501 0)
(1.69358e-05 0.0395501 0)
(1.69358e-05 0.0395501 0)
(1.69358e-05 0.0395501 0)
(1.69358e-05 0.0395501 0)
(1.69358e-05 0.0395501 0)
(1.69358e-05 0.0395501 0)
(1.69358e-05 0.0395501 0)
(1.69358e-05 0.0395501 0)
(1.69358e-05 0.0395501 0)
(1.69358e-05 0.0395501 0)
(1.69358e-05 0.0395501 0)
(1.69358e-05 0.03955 0)
(1.69359e-05 0.0395499 0)
(1.69407e-05 0.0395414 0)
(1.70566e-05 0.039197 0)
(1.97658e-05 0.0225005 0)
)
;

boundaryField
{
    inandouthalf11
    {
        type            cyclic;
    }
    inandouthalf12
    {
        type            cyclic;
    }
    inandouthalf21
    {
        type            cyclic;
    }
    inandouthalf22
    {
        type            cyclic;
    }
    inandouthalf31
    {
        type            cyclic;
    }
    inandouthalf32
    {
        type            cyclic;
    }
    inandouthalf41
    {
        type            cyclic;
    }
    inandouthalf42
    {
        type            cyclic;
    }
    top
    {
        type            symmetryPlane;
    }
    walls
    {
        type            calculated;
        value           uniform (0 0 0);
    }
    frontAndBackPlanes
    {
        type            empty;
    }
}


// ************************************************************************* //
