/*--------------------------------*- C++ -*----------------------------------*\
| =========                 |                                                 |
| \\      /  F ield         | OpenFOAM: The Open Source CFD Toolbox           |
|  \\    /   O peration     | Version:  2.4.x                                 |
|   \\  /    A nd           | Web:      www.OpenFOAM.org                      |
|    \\/     M anipulation  |                                                 |
\*---------------------------------------------------------------------------*/
FoamFile
{
    version     2.0;
    format      ascii;
    class       volScalarField;
    location    "12.45";
    object      alpha_0;
}
// * * * * * * * * * * * * * * * * * * * * * * * * * * * * * * * * * * * * * //

dimensions      [0 0 0 0 0 0 0];

internalField   nonuniform List<scalar> 
360
(
0.610896
0.611765
0.611854
0.611764
0.611722
0.611709
0.611692
0.61167
0.611647
0.611624
0.611601
0.611579
0.611555
0.611532
0.611509
0.611485
0.611461
0.611436
0.611412
0.611387
0.611362
0.611336
0.611311
0.611285
0.611259
0.611232
0.611206
0.611179
0.611152
0.611124
0.611096
0.611068
0.61104
0.611011
0.610982
0.610953
0.610923
0.610893
0.610863
0.610832
0.610801
0.61077
0.610738
0.610706
0.610674
0.610641
0.610608
0.610574
0.61054
0.610506
0.610471
0.610436
0.610401
0.610364
0.610328
0.610291
0.610254
0.610216
0.610178
0.610139
0.610099
0.61006
0.610019
0.609979
0.609937
0.609895
0.609853
0.60981
0.609766
0.609722
0.609677
0.609631
0.609585
0.609538
0.60949
0.609442
0.609393
0.609343
0.609293
0.609241
0.609189
0.609136
0.609082
0.609028
0.608972
0.608915
0.608858
0.608799
0.60874
0.608679
0.608618
0.608555
0.608491
0.608425
0.608359
0.608291
0.608222
0.608152
0.60808
0.608006
0.607931
0.607855
0.607777
0.607697
0.607615
0.607531
0.607446
0.607358
0.607269
0.607177
0.607083
0.606986
0.606887
0.606786
0.606681
0.606574
0.606464
0.606351
0.606235
0.606115
0.605991
0.605864
0.605732
0.605596
0.605456
0.60531
0.60516
0.605004
0.604842
0.604674
0.604499
0.604317
0.604127
0.603927
0.603713
0.603485
0.603245
0.602987
0.602702
0.602378
0.602028
0.601614
0.598783
0.599203
0.598689
0.597837
0.595014
0.458652
0.29104
0.227192
0.188948
0.157629
0.130835
0.10776
0.0881159
0.0716708
0.0581213
0.0470959
0.0381991
0.0310529
0.0253214
0.0207213
0.0170208
0.0140343
0.0116147
0.0096463
0.0080381
0.00671868
0.00563176
0.00473285
0.00398666
0.00336504
0.00284546
0.0024098
0.00204339
0.00173425
0.00147247
0.00124972
0.00105908
0.00089506
0.000753761
0.000632683
0.000530188
0.00044477
0.000374607
0.000317543
0.000271319
0.000233829
0.000203264
0.000178152
0.000157332
0.000139902
0.000125169
0.000112599
0.000101777
9.23829e-05
8.41633e-05
7.69197e-05
7.04937e-05
6.47584e-05
5.96112e-05
5.49223e-05
5.05961e-05
4.65954e-05
4.28882e-05
3.94475e-05
3.625e-05
3.32759e-05
3.05081e-05
2.79319e-05
2.55343e-05
2.33036e-05
2.12293e-05
1.93019e-05
1.75123e-05
1.58522e-05
1.4314e-05
1.28904e-05
1.15749e-05
1.03614e-05
9.24431e-06
8.21863e-06
7.27956e-06
6.42244e-06
5.64246e-06
4.93404e-06
4.29007e-06
3.70122e-06
3.15629e-06
2.64514e-06
2.16639e-06
1.73865e-06
1.40022e-06
1.1735e-06
1.02118e-06
8.87498e-07
7.86738e-07
6.30949e-07
4.87507e-07
3.75848e-07
2.88726e-07
2.2065e-07
1.67451e-07
1.25909e-07
9.35215e-08
6.8342e-08
4.8829e-08
3.37921e-08
2.23424e-08
1.33555e-08
7.18553e-09
1.62604e-09
1.07776e-12
8.25919e-24
5.55752e-35
3.4909e-46
1.93796e-57
9.38168e-69
7.31608e-77
3.79783e-77
1.87489e-77
9.41673e-78
4.65812e-78
2.2682e-78
1.08665e-78
5.11951e-79
2.37067e-79
1.07842e-79
4.81652e-80
2.11083e-80
9.07166e-81
3.82079e-81
1.576e-81
6.36201e-82
2.51153e-82
9.68824e-83
3.64879e-83
1.34048e-83
4.79917e-84
1.67271e-84
5.6693e-85
1.86609e-85
5.95878e-86
1.84348e-86
5.51755e-87
1.59515e-87
4.44695e-88
1.19324e-88
3.07552e-89
7.5975e-90
1.7944e-90
4.04102e-91
8.65108e-92
1.75464e-92
3.3588e-93
6.04189e-94
1.01622e-94
1.58896e-95
2.29407e-96
3.03361e-97
3.63861e-98
3.91108e-99
3.7104e-100
3.04546e-101
2.10478e-102
1.17778e-103
5.01745e-105
1.45589e-106
2.20585e-108
1.80818e-111
4.92007e-119
2.67147e-121
7.16847e-124
3.59213e-134
9.15142e-145
1.71634e-155
2.38059e-166
2.80986e-177
2.64231e-188
2.09084e-199
2.18946e-210
6.45463e-221
2.77682e-229
1.62316e-239
9.54693e-248
6.51765e-258
3.28812e-266
2.71639e-276
1.13468e-284
1.72376e-294
4.05062e-303
1.14398e-312
1.60571e-321
6.79834e-321
7.96928e-321
7.83094e-321
2.51973e-321
8.86848e-321
4.57737e-319
2.8055e-319
6.80328e-321
7.09478e-321
6.08689e-321
8.5424e-321
0
0
0
0
0
0
0
0
0
0
0
0
0
0
0
0
)
;

boundaryField
{
    inandouthalf11
    {
        type            cyclic;
    }
    inandouthalf12
    {
        type            cyclic;
    }
    inandouthalf21
    {
        type            cyclic;
    }
    inandouthalf22
    {
        type            cyclic;
    }
    inandouthalf31
    {
        type            cyclic;
    }
    inandouthalf32
    {
        type            cyclic;
    }
    inandouthalf41
    {
        type            cyclic;
    }
    inandouthalf42
    {
        type            cyclic;
    }
    top
    {
        type            symmetryPlane;
    }
    walls
    {
        type            zeroGradient;
    }
    frontAndBackPlanes
    {
        type            empty;
    }
}


// ************************************************************************* //
