/*--------------------------------*- C++ -*----------------------------------*\
| =========                 |                                                 |
| \\      /  F ield         | OpenFOAM: The Open Source CFD Toolbox           |
|  \\    /   O peration     | Version:  2.4.x                                 |
|   \\  /    A nd           | Web:      www.OpenFOAM.org                      |
|    \\/     M anipulation  |                                                 |
\*---------------------------------------------------------------------------*/
FoamFile
{
    version     2.0;
    format      ascii;
    class       surfaceScalarField;
    location    "12.45";
    object      ddt0(phib);
}
// * * * * * * * * * * * * * * * * * * * * * * * * * * * * * * * * * * * * * //

dimensions      [0 3 -2 0 0 0 0];

internalField   nonuniform List<scalar> 
359
(
-6.48681e-15
-1.62505e-14
-2.55608e-14
-3.48854e-14
-4.47866e-14
-5.53451e-14
-6.63505e-14
-7.78148e-14
-8.97435e-14
-1.02131e-13
-1.15001e-13
-1.28351e-13
-1.42154e-13
-1.56329e-13
-1.70887e-13
-1.85745e-13
-2.00837e-13
-2.16165e-13
-2.31656e-13
-2.47191e-13
-2.62807e-13
-2.78366e-13
-2.93815e-13
-3.09138e-13
-3.24243e-13
-3.3908e-13
-3.53622e-13
-3.67775e-13
-3.81496e-13
-3.94795e-13
-4.07608e-13
-4.19909e-13
-4.31706e-13
-4.42917e-13
-4.53586e-13
-4.63651e-13
-4.73159e-13
-4.8209e-13
-4.90478e-13
-4.98248e-13
-5.05501e-13
-5.12233e-13
-5.18453e-13
-5.24177e-13
-5.29459e-13
-5.34298e-13
-5.38718e-13
-5.42722e-13
-5.46384e-13
-5.49747e-13
-5.52829e-13
-5.55611e-13
-5.58151e-13
-5.60477e-13
-5.62585e-13
-5.64547e-13
-5.66353e-13
-5.68037e-13
-5.69625e-13
-5.71111e-13
-5.72536e-13
-5.73936e-13
-5.75308e-13
-5.76674e-13
-5.78016e-13
-5.79398e-13
-5.80825e-13
-5.82266e-13
-5.83748e-13
-5.85281e-13
-5.86858e-13
-5.8851e-13
-5.90202e-13
-5.92002e-13
-5.93874e-13
-5.95803e-13
-5.9786e-13
-5.99996e-13
-6.02248e-13
-6.04494e-13
-6.06879e-13
-6.09325e-13
-6.11836e-13
-6.14467e-13
-6.17158e-13
-6.19918e-13
-6.22784e-13
-6.2569e-13
-6.28687e-13
-6.31718e-13
-6.34813e-13
-6.37953e-13
-6.41151e-13
-6.4445e-13
-6.47735e-13
-6.51054e-13
-6.54428e-13
-6.5787e-13
-6.61309e-13
-6.64771e-13
-6.6825e-13
-6.71729e-13
-6.75265e-13
-6.78779e-13
-6.82313e-13
-6.85821e-13
-6.8935e-13
-6.9286e-13
-6.9636e-13
-6.99852e-13
-7.03321e-13
-7.06778e-13
-7.10216e-13
-7.13652e-13
-7.17022e-13
-7.20411e-13
-7.23735e-13
-7.27039e-13
-7.30316e-13
-7.33555e-13
-7.36709e-13
-7.39826e-13
-7.42827e-13
-7.45797e-13
-7.48644e-13
-7.51408e-13
-7.5405e-13
-7.56619e-13
-7.59081e-13
-7.61504e-13
-7.6381e-13
-7.66052e-13
-7.68272e-13
-7.70336e-13
-7.72249e-13
-7.73806e-13
-7.74856e-13
-7.75277e-13
-7.75056e-13
-7.74295e-13
-7.73221e-13
-7.67985e-13
-7.64577e-13
-7.64514e-13
-7.6243e-13
-7.52451e-13
-1.25666e-11
2.85684e-10
2.53909e-10
2.24058e-10
1.98668e-10
1.75901e-10
1.56004e-10
1.39356e-10
1.2594e-10
1.15267e-10
1.06599e-10
9.92059e-11
9.25124e-11
8.61479e-11
7.99416e-11
7.37572e-11
6.75789e-11
6.14434e-11
5.54019e-11
4.95045e-11
4.3798e-11
3.83224e-11
3.31076e-11
2.81741e-11
2.35338e-11
1.91906e-11
1.51421e-11
1.13763e-11
7.86038e-12
4.52348e-12
1.25674e-12
-2.0353e-12
-5.32632e-12
-8.37905e-12
-1.07968e-11
-1.22338e-11
-1.26035e-11
-1.21035e-11
-1.10707e-11
-9.81878e-12
-8.55987e-12
-7.40529e-12
-6.39688e-12
-5.53812e-12
-4.81527e-12
-4.20892e-12
-3.69956e-12
-3.26983e-12
-2.90516e-12
-2.59374e-12
-2.32591e-12
-2.09404e-12
-1.892e-12
-1.71493e-12
-1.55886e-12
-1.41797e-12
-1.29042e-12
-1.17474e-12
-1.0696e-12
-9.7388e-13
-8.86627e-13
-8.0698e-13
-7.34219e-13
-6.67729e-13
-6.0688e-13
-5.51158e-13
-5.00135e-13
-4.53397e-13
-4.10535e-13
-3.71226e-13
-3.35124e-13
-3.01968e-13
-2.71546e-13
-2.43594e-13
-2.17961e-13
-1.94488e-13
-1.72989e-13
-1.53339e-13
-1.35403e-13
-1.19019e-13
-1.03957e-13
-8.99459e-14
-7.67405e-14
-6.4179e-14
-5.25133e-14
-4.25144e-14
-3.50971e-14
-3.01008e-14
-2.62495e-14
-2.27416e-14
-1.77511e-14
-1.40549e-14
-1.11974e-14
-8.86397e-15
-6.94342e-15
-5.36069e-15
-4.07894e-15
-3.05381e-15
-2.26081e-15
-1.6357e-15
-1.17227e-15
-8.90528e-16
-6.56757e-16
-5.12279e-16
-2.32358e-16
-5.19863e-16
-3.0867e-16
-2.95973e-16
-2.94438e-16
-2.93014e-16
-2.86587e-16
-2.7593e-16
-2.74317e-16
-2.77199e-16
-2.67362e-16
-2.68921e-16
-2.61915e-16
-2.71445e-16
-2.61191e-16
-2.57047e-16
-2.58e-16
-2.50137e-16
-2.49237e-16
-2.3954e-16
-2.2809e-16
-2.20491e-16
-2.18503e-16
-2.1641e-16
-2.09805e-16
-1.98911e-16
-1.8388e-16
-1.86538e-16
-1.82094e-16
-1.72592e-16
-1.69716e-16
-1.67067e-16
-1.65172e-16
-1.67906e-16
-1.72507e-16
-1.73852e-16
-1.72952e-16
-1.79327e-16
-1.8436e-16
-1.91419e-16
-1.9444e-16
-1.95667e-16
-1.89297e-16
-1.86452e-16
-1.88577e-16
-1.95737e-16
-1.79348e-16
-1.70372e-16
-1.65968e-16
-1.58683e-16
-1.49483e-16
-1.44099e-16
-1.40822e-16
-1.35542e-16
-1.24391e-16
-1.19911e-16
-1.09412e-16
-1.1059e-16
-9.45118e-17
-1.09341e-16
-1.1066e-16
-1.23648e-16
-1.06241e-16
-1.12942e-16
-1.04883e-16
-1.14761e-16
-1.22512e-16
-1.25253e-16
-1.42613e-16
-1.58448e-16
-1.576e-16
-1.6499e-16
-1.78083e-16
-1.87415e-16
-2.04165e-16
-2.15063e-16
-2.25962e-16
-2.9153e-16
-2.38025e-16
-2.28372e-16
-2.17889e-16
-2.17644e-16
-2.08851e-16
-2.09073e-16
-2.05947e-16
-2.03221e-16
-1.9347e-16
-1.88179e-16
-1.91357e-16
-1.88763e-16
-1.85685e-16
-1.87721e-16
-1.86384e-16
-1.88059e-16
-1.87677e-16
-1.9113e-16
-1.88686e-16
-1.87565e-16
-1.94232e-16
-1.97307e-16
-2.03011e-16
-2.07648e-16
-2.06767e-16
-2.06984e-16
-2.09211e-16
-2.20157e-16
-2.27732e-16
-2.56085e-16
-2.83698e-16
)
;

boundaryField
{
    inandouthalf11
    {
        type            cyclic;
        value           nonuniform List<scalar> 
100
(
-2.22519e-11
-2.21278e-11
-2.21117e-11
-2.21291e-11
-2.21375e-11
-2.21407e-11
-2.21445e-11
-2.21494e-11
-2.21543e-11
-2.21594e-11
-2.21645e-11
-2.21696e-11
-2.21748e-11
-2.21801e-11
-2.21855e-11
-2.21909e-11
-2.21964e-11
-2.2202e-11
-2.22077e-11
-2.22134e-11
-2.22192e-11
-2.2225e-11
-2.22309e-11
-2.22369e-11
-2.22429e-11
-2.22489e-11
-2.2255e-11
-2.22612e-11
-2.22673e-11
-2.22735e-11
-2.22798e-11
-2.22861e-11
-2.22924e-11
-2.22988e-11
-2.23052e-11
-2.23116e-11
-2.2318e-11
-2.23245e-11
-2.23311e-11
-2.23375e-11
-2.23442e-11
-2.23508e-11
-2.23574e-11
-2.23641e-11
-2.23709e-11
-2.23776e-11
-2.23845e-11
-2.23913e-11
-2.23982e-11
-2.24053e-11
-2.24123e-11
-2.24194e-11
-2.24265e-11
-2.24338e-11
-2.2441e-11
-2.24484e-11
-2.24558e-11
-2.24634e-11
-2.2471e-11
-2.24786e-11
-2.24865e-11
-2.24943e-11
-2.25023e-11
-2.25103e-11
-2.25185e-11
-2.25267e-11
-2.25351e-11
-2.25436e-11
-2.25522e-11
-2.25609e-11
-2.25698e-11
-2.25788e-11
-2.25878e-11
-2.25971e-11
-2.26064e-11
-2.26159e-11
-2.26256e-11
-2.26354e-11
-2.26453e-11
-2.26554e-11
-2.26657e-11
-2.26761e-11
-2.26867e-11
-2.26975e-11
-2.27085e-11
-2.27196e-11
-2.2731e-11
-2.27425e-11
-2.27543e-11
-2.27662e-11
-2.27784e-11
-2.27908e-11
-2.28034e-11
-2.28163e-11
-2.28294e-11
-2.28428e-11
-2.28565e-11
-2.28704e-11
-2.28846e-11
-2.28991e-11
)
;
    }
    inandouthalf12
    {
        type            cyclic;
        value           nonuniform List<scalar> 
100
(
2.22519e-11
2.21278e-11
2.21117e-11
2.21291e-11
2.21375e-11
2.21407e-11
2.21445e-11
2.21494e-11
2.21543e-11
2.21594e-11
2.21645e-11
2.21696e-11
2.21748e-11
2.21801e-11
2.21855e-11
2.21909e-11
2.21964e-11
2.2202e-11
2.22077e-11
2.22134e-11
2.22192e-11
2.2225e-11
2.22309e-11
2.22369e-11
2.22429e-11
2.22489e-11
2.2255e-11
2.22612e-11
2.22673e-11
2.22735e-11
2.22798e-11
2.22861e-11
2.22924e-11
2.22988e-11
2.23052e-11
2.23116e-11
2.2318e-11
2.23245e-11
2.23311e-11
2.23375e-11
2.23442e-11
2.23508e-11
2.23574e-11
2.23641e-11
2.23709e-11
2.23776e-11
2.23845e-11
2.23913e-11
2.23982e-11
2.24053e-11
2.24123e-11
2.24194e-11
2.24265e-11
2.24338e-11
2.2441e-11
2.24484e-11
2.24558e-11
2.24634e-11
2.2471e-11
2.24786e-11
2.24865e-11
2.24943e-11
2.25023e-11
2.25103e-11
2.25185e-11
2.25267e-11
2.25351e-11
2.25436e-11
2.25522e-11
2.25609e-11
2.25698e-11
2.25788e-11
2.25878e-11
2.25971e-11
2.26064e-11
2.26159e-11
2.26256e-11
2.26354e-11
2.26453e-11
2.26554e-11
2.26657e-11
2.26761e-11
2.26867e-11
2.26975e-11
2.27085e-11
2.27196e-11
2.2731e-11
2.27425e-11
2.27543e-11
2.27662e-11
2.27784e-11
2.27908e-11
2.28034e-11
2.28163e-11
2.28294e-11
2.28428e-11
2.28565e-11
2.28704e-11
2.28846e-11
2.28991e-11
)
;
    }
    inandouthalf21
    {
        type            cyclic;
        value           nonuniform List<scalar> 
100
(
-2.29139e-11
-2.2929e-11
-2.29445e-11
-2.29603e-11
-2.29764e-11
-2.2993e-11
-2.30099e-11
-2.30272e-11
-2.30449e-11
-2.30631e-11
-2.30817e-11
-2.31008e-11
-2.31204e-11
-2.31405e-11
-2.31611e-11
-2.31824e-11
-2.32042e-11
-2.32266e-11
-2.32497e-11
-2.32735e-11
-2.32981e-11
-2.33234e-11
-2.33495e-11
-2.33765e-11
-2.34044e-11
-2.34333e-11
-2.34633e-11
-2.34943e-11
-2.35266e-11
-2.35602e-11
-2.35951e-11
-2.36315e-11
-2.36696e-11
-2.37098e-11
-2.37527e-11
-2.37984e-11
-2.38468e-11
-2.38984e-11
-2.39555e-11
-2.40206e-11
-2.40908e-11
-2.41743e-11
-2.47495e-11
-2.46641e-11
-2.477e-11
-2.50881e-11
-1.63466e-10
-4.50898e-08
-7.13243e-08
-7.08274e-08
-7.49104e-08
-8.05268e-08
-8.67109e-08
-9.30024e-08
-9.91524e-08
-1.05026e-07
-1.10556e-07
-1.15723e-07
-1.2053e-07
-1.24996e-07
-1.29144e-07
-1.32999e-07
-1.36585e-07
-1.39921e-07
-1.43024e-07
-1.45905e-07
-1.48575e-07
-1.51037e-07
-1.53294e-07
-1.55345e-07
-1.57185e-07
-1.58807e-07
-1.60203e-07
-1.61361e-07
-1.62266e-07
-1.62903e-07
-1.63254e-07
-1.63299e-07
-1.63016e-07
-1.62384e-07
-1.61381e-07
-1.59986e-07
-1.58181e-07
-1.55953e-07
-1.53293e-07
-1.502e-07
-1.46683e-07
-1.42756e-07
-1.38447e-07
-1.33791e-07
-1.28836e-07
-1.23639e-07
-1.18264e-07
-1.12782e-07
-1.07264e-07
-1.01778e-07
-9.63902e-08
-9.11555e-08
-8.61196e-08
-8.13169e-08
)
;
    }
    inandouthalf22
    {
        type            cyclic;
        value           nonuniform List<scalar> 
100
(
2.29139e-11
2.2929e-11
2.29445e-11
2.29603e-11
2.29764e-11
2.2993e-11
2.30099e-11
2.30272e-11
2.30449e-11
2.30631e-11
2.30817e-11
2.31008e-11
2.31204e-11
2.31405e-11
2.31611e-11
2.31824e-11
2.32042e-11
2.32266e-11
2.32497e-11
2.32735e-11
2.32981e-11
2.33234e-11
2.33495e-11
2.33765e-11
2.34044e-11
2.34333e-11
2.34633e-11
2.34943e-11
2.35266e-11
2.35602e-11
2.35951e-11
2.36315e-11
2.36696e-11
2.37098e-11
2.37527e-11
2.37984e-11
2.38468e-11
2.38984e-11
2.39555e-11
2.40206e-11
2.40908e-11
2.41743e-11
2.47495e-11
2.46641e-11
2.477e-11
2.50881e-11
1.63466e-10
4.50898e-08
7.13243e-08
7.08274e-08
7.49104e-08
8.05268e-08
8.67109e-08
9.30024e-08
9.91524e-08
1.05026e-07
1.10556e-07
1.15723e-07
1.2053e-07
1.24996e-07
1.29144e-07
1.32999e-07
1.36585e-07
1.39921e-07
1.43024e-07
1.45905e-07
1.48575e-07
1.51037e-07
1.53294e-07
1.55345e-07
1.57185e-07
1.58807e-07
1.60203e-07
1.61361e-07
1.62266e-07
1.62903e-07
1.63254e-07
1.63299e-07
1.63016e-07
1.62384e-07
1.61381e-07
1.59986e-07
1.58181e-07
1.55953e-07
1.53293e-07
1.502e-07
1.46683e-07
1.42756e-07
1.38447e-07
1.33791e-07
1.28836e-07
1.23639e-07
1.18264e-07
1.12782e-07
1.07264e-07
1.01778e-07
9.63902e-08
9.11555e-08
8.61196e-08
8.13169e-08
)
;
    }
    inandouthalf31
    {
        type            cyclic;
        value           nonuniform List<scalar> 
110
(
-7.67709e-08
-7.39209e-08
-7.11306e-08
-6.84199e-08
-6.58025e-08
-6.32863e-08
-6.08746e-08
-5.8566e-08
-5.63558e-08
-5.42366e-08
-5.21991e-08
-5.02327e-08
-4.83264e-08
-4.64684e-08
-4.46475e-08
-4.28525e-08
-4.10728e-08
-3.92984e-08
-3.752e-08
-3.57289e-08
-3.39172e-08
-3.20777e-08
-3.02039e-08
-2.82899e-08
-2.63302e-08
-2.43202e-08
-2.22557e-08
-2.01328e-08
-1.79484e-08
-1.56995e-08
-1.33839e-08
-1.09994e-08
-8.54457e-09
-6.01823e-09
-3.41968e-09
-7.48667e-10
1.99452e-09
4.80901e-09
7.6931e-09
1.06445e-08
1.36601e-08
1.67359e-08
1.98664e-08
2.30453e-08
2.62645e-08
2.95141e-08
3.27824e-08
3.60554e-08
3.93161e-08
4.25451e-08
4.5719e-08
4.88108e-08
5.17893e-08
5.46182e-08
5.72562e-08
5.96564e-08
6.17662e-08
6.35275e-08
6.48775e-08
6.575e-08
6.60779e-08
6.57974e-08
6.48536e-08
6.32084e-08
6.08492e-08
5.77993e-08
5.41256e-08
4.99422e-08
4.5407e-08
4.07091e-08
3.60504e-08
3.16255e-08
2.76081e-08
2.41445e-08
2.13566e-08
1.93479e-08
1.82149e-08
1.80637e-08
1.89417e-08
2.30347e-08
2.65957e-08
2.7396e-08
2.79565e-08
2.8524e-08
2.9103e-08
2.96937e-08
3.02964e-08
3.09113e-08
3.15387e-08
3.21789e-08
3.2832e-08
3.34984e-08
3.41784e-08
3.48721e-08
3.55799e-08
3.63021e-08
3.70389e-08
3.77907e-08
3.85578e-08
3.93404e-08
4.01389e-08
4.09536e-08
4.17848e-08
4.2633e-08
4.34983e-08
4.43812e-08
4.5282e-08
4.62011e-08
4.71389e-08
4.80957e-08
)
;
    }
    inandouthalf32
    {
        type            cyclic;
        value           nonuniform List<scalar> 
110
(
7.67709e-08
7.39209e-08
7.11306e-08
6.84199e-08
6.58025e-08
6.32863e-08
6.08746e-08
5.8566e-08
5.63558e-08
5.42366e-08
5.21991e-08
5.02327e-08
4.83264e-08
4.64684e-08
4.46475e-08
4.28525e-08
4.10728e-08
3.92984e-08
3.752e-08
3.57289e-08
3.39172e-08
3.20777e-08
3.02039e-08
2.82899e-08
2.63302e-08
2.43202e-08
2.22557e-08
2.01328e-08
1.79484e-08
1.56995e-08
1.33839e-08
1.09994e-08
8.54457e-09
6.01823e-09
3.41968e-09
7.48667e-10
-1.99452e-09
-4.80901e-09
-7.6931e-09
-1.06445e-08
-1.36601e-08
-1.67359e-08
-1.98664e-08
-2.30453e-08
-2.62645e-08
-2.95141e-08
-3.27824e-08
-3.60554e-08
-3.93161e-08
-4.25451e-08
-4.5719e-08
-4.88108e-08
-5.17893e-08
-5.46182e-08
-5.72562e-08
-5.96564e-08
-6.17662e-08
-6.35275e-08
-6.48775e-08
-6.575e-08
-6.60779e-08
-6.57974e-08
-6.48536e-08
-6.32084e-08
-6.08492e-08
-5.77993e-08
-5.41256e-08
-4.99422e-08
-4.5407e-08
-4.07091e-08
-3.60504e-08
-3.16255e-08
-2.76081e-08
-2.41445e-08
-2.13566e-08
-1.93479e-08
-1.82149e-08
-1.80637e-08
-1.89417e-08
-2.30347e-08
-2.65957e-08
-2.7396e-08
-2.79565e-08
-2.8524e-08
-2.9103e-08
-2.96937e-08
-3.02964e-08
-3.09113e-08
-3.15387e-08
-3.21789e-08
-3.2832e-08
-3.34984e-08
-3.41784e-08
-3.48721e-08
-3.55799e-08
-3.63021e-08
-3.70389e-08
-3.77907e-08
-3.85578e-08
-3.93404e-08
-4.01389e-08
-4.09536e-08
-4.17848e-08
-4.2633e-08
-4.34983e-08
-4.43812e-08
-4.5282e-08
-4.62011e-08
-4.71389e-08
-4.80957e-08
)
;
    }
    inandouthalf41
    {
        type            cyclic;
        value           nonuniform List<scalar> 
50
(
4.30505e-08
4.30505e-08
4.30505e-08
4.30505e-08
4.30505e-08
4.30505e-08
4.30505e-08
4.30505e-08
4.30505e-08
4.30505e-08
4.30505e-08
4.30505e-08
4.30505e-08
4.30505e-08
4.30505e-08
4.30505e-08
4.30505e-08
4.30505e-08
4.30505e-08
4.30505e-08
4.30505e-08
4.30505e-08
4.30505e-08
4.30505e-08
4.30505e-08
4.30505e-08
4.30505e-08
4.30505e-08
4.30505e-08
4.30505e-08
4.30505e-08
4.30505e-08
4.30505e-08
4.30505e-08
4.30505e-08
4.30505e-08
4.30505e-08
4.30505e-08
4.30505e-08
4.30505e-08
4.30505e-08
4.30505e-08
4.30505e-08
4.30505e-08
4.30505e-08
4.30505e-08
4.30505e-08
4.30505e-08
4.30505e-08
4.30505e-08
)
;
    }
    inandouthalf42
    {
        type            cyclic;
        value           nonuniform List<scalar> 
50
(
-4.30505e-08
-4.30505e-08
-4.30505e-08
-4.30505e-08
-4.30505e-08
-4.30505e-08
-4.30505e-08
-4.30505e-08
-4.30505e-08
-4.30505e-08
-4.30505e-08
-4.30505e-08
-4.30505e-08
-4.30505e-08
-4.30505e-08
-4.30505e-08
-4.30505e-08
-4.30505e-08
-4.30505e-08
-4.30505e-08
-4.30505e-08
-4.30505e-08
-4.30505e-08
-4.30505e-08
-4.30505e-08
-4.30505e-08
-4.30505e-08
-4.30505e-08
-4.30505e-08
-4.30505e-08
-4.30505e-08
-4.30505e-08
-4.30505e-08
-4.30505e-08
-4.30505e-08
-4.30505e-08
-4.30505e-08
-4.30505e-08
-4.30505e-08
-4.30505e-08
-4.30505e-08
-4.30505e-08
-4.30505e-08
-4.30505e-08
-4.30505e-08
-4.30505e-08
-4.30505e-08
-4.30505e-08
-4.30505e-08
-4.30505e-08
)
;
    }
    top
    {
        type            symmetryPlane;
        value           uniform 0;
    }
    walls
    {
        type            calculated;
        value           uniform 0;
    }
    frontAndBackPlanes
    {
        type            empty;
        value           nonuniform 0();
    }
}


// ************************************************************************* //
