/*--------------------------------*- C++ -*----------------------------------*\
| =========                 |                                                 |
| \\      /  F ield         | OpenFOAM: The Open Source CFD Toolbox           |
|  \\    /   O peration     | Version:  2.4.x                                 |
|   \\  /    A nd           | Web:      www.OpenFOAM.org                      |
|    \\/     M anipulation  |                                                 |
\*---------------------------------------------------------------------------*/
FoamFile
{
    version     2.0;
    format      ascii;
    class       volVectorField;
    location    "12.45";
    object      ddt0(Ub);
}
// * * * * * * * * * * * * * * * * * * * * * * * * * * * * * * * * * * * * * //

dimensions      [0 1 -2 0 0 0 0];

internalField   nonuniform List<vector> 
360
(
(2.22519e-05 -7.97426e-10 0)
(2.21278e-05 -2.82397e-09 0)
(2.21117e-05 -5.22458e-09 0)
(2.21291e-05 -7.55583e-09 0)
(2.21375e-05 -9.95913e-09 0)
(2.21407e-05 -1.25161e-08 0)
(2.21445e-05 -1.52115e-08 0)
(2.21494e-05 -1.80203e-08 0)
(2.21543e-05 -2.09444e-08 0)
(2.21594e-05 -2.3984e-08 0)
(2.21645e-05 -2.71412e-08 0)
(2.21696e-05 -3.04187e-08 0)
(2.21748e-05 -3.38128e-08 0)
(2.21801e-05 -3.731e-08 0)
(2.21855e-05 -4.09016e-08 0)
(2.21909e-05 -4.45786e-08 0)
(2.21964e-05 -4.83224e-08 0)
(2.2202e-05 -5.21249e-08 0)
(2.22077e-05 -5.59772e-08 0)
(2.22134e-05 -5.98556e-08 0)
(2.22192e-05 -6.37494e-08 0)
(2.2225e-05 -6.76463e-08 0)
(2.22309e-05 -7.15222e-08 0)
(2.22369e-05 -7.53687e-08 0)
(2.22429e-05 -7.91722e-08 0)
(2.22489e-05 -8.29151e-08 0)
(2.2255e-05 -8.65875e-08 0)
(2.22612e-05 -9.01744e-08 0)
(2.22673e-05 -9.36586e-08 0)
(2.22735e-05 -9.70361e-08 0)
(2.22798e-05 -1.003e-07 0)
(2.22861e-05 -1.03439e-07 0)
(2.22924e-05 -1.06451e-07 0)
(2.22988e-05 -1.09328e-07 0)
(2.23052e-05 -1.12063e-07 0)
(2.23116e-05 -1.14654e-07 0)
(2.2318e-05 -1.17101e-07 0)
(2.23245e-05 -1.19406e-07 0)
(2.23311e-05 -1.21571e-07 0)
(2.23375e-05 -1.2359e-07 0)
(2.23442e-05 -1.25469e-07 0)
(2.23508e-05 -1.27217e-07 0)
(2.23574e-05 -1.28835e-07 0)
(2.23641e-05 -1.30329e-07 0)
(2.23709e-05 -1.31704e-07 0)
(2.23776e-05 -1.32969e-07 0)
(2.23845e-05 -1.34127e-07 0)
(2.23913e-05 -1.3518e-07 0)
(2.23982e-05 -1.36138e-07 0)
(2.24053e-05 -1.37016e-07 0)
(2.24123e-05 -1.37822e-07 0)
(2.24194e-05 -1.38555e-07 0)
(2.24265e-05 -1.3922e-07 0)
(2.24338e-05 -1.39829e-07 0)
(2.2441e-05 -1.40382e-07 0)
(2.24484e-05 -1.40891e-07 0)
(2.24558e-05 -1.41362e-07 0)
(2.24634e-05 -1.41799e-07 0)
(2.2471e-05 -1.42208e-07 0)
(2.24786e-05 -1.42592e-07 0)
(2.24865e-05 -1.42956e-07 0)
(2.24943e-05 -1.43309e-07 0)
(2.25023e-05 -1.43655e-07 0)
(2.25103e-05 -1.43998e-07 0)
(2.25185e-05 -1.44336e-07 0)
(2.25267e-05 -1.44676e-07 0)
(2.25351e-05 -1.45028e-07 0)
(2.25436e-05 -1.45386e-07 0)
(2.25522e-05 -1.45752e-07 0)
(2.25609e-05 -1.46128e-07 0)
(2.25698e-05 -1.46517e-07 0)
(2.25788e-05 -1.46921e-07 0)
(2.25878e-05 -1.47339e-07 0)
(2.25971e-05 -1.47775e-07 0)
(2.26064e-05 -1.48234e-07 0)
(2.26159e-05 -1.48709e-07 0)
(2.26256e-05 -1.49208e-07 0)
(2.26354e-05 -1.49732e-07 0)
(2.26453e-05 -1.5028e-07 0)
(2.26554e-05 -1.50842e-07 0)
(2.26657e-05 -1.51421e-07 0)
(2.26761e-05 -1.52025e-07 0)
(2.26867e-05 -1.52645e-07 0)
(2.26975e-05 -1.53287e-07 0)
(2.27085e-05 -1.53953e-07 0)
(2.27196e-05 -1.54634e-07 0)
(2.2731e-05 -1.55337e-07 0)
(2.27425e-05 -1.56059e-07 0)
(2.27543e-05 -1.56797e-07 0)
(2.27662e-05 -1.5755e-07 0)
(2.27784e-05 -1.58316e-07 0)
(2.27908e-05 -1.59095e-07 0)
(2.28034e-05 -1.59888e-07 0)
(2.28163e-05 -1.607e-07 0)
(2.28294e-05 -1.61523e-07 0)
(2.28428e-05 -1.62348e-07 0)
(2.28565e-05 -1.63185e-07 0)
(2.28704e-05 -1.64037e-07 0)
(2.28846e-05 -1.64897e-07 0)
(2.28991e-05 -1.65759e-07 0)
(2.29139e-05 -1.66627e-07 0)
(2.2929e-05 -1.67497e-07 0)
(2.29445e-05 -1.68373e-07 0)
(2.29603e-05 -1.69255e-07 0)
(2.29764e-05 -1.70136e-07 0)
(2.2993e-05 -1.71016e-07 0)
(2.30099e-05 -1.71895e-07 0)
(2.30272e-05 -1.72775e-07 0)
(2.30449e-05 -1.73652e-07 0)
(2.30631e-05 -1.74525e-07 0)
(2.30817e-05 -1.75395e-07 0)
(2.31008e-05 -1.76261e-07 0)
(2.31204e-05 -1.77123e-07 0)
(2.31405e-05 -1.77982e-07 0)
(2.31611e-05 -1.78833e-07 0)
(2.31824e-05 -1.79678e-07 0)
(2.32042e-05 -1.80517e-07 0)
(2.32266e-05 -1.81345e-07 0)
(2.32497e-05 -1.82168e-07 0)
(2.32735e-05 -1.82982e-07 0)
(2.32981e-05 -1.83781e-07 0)
(2.33234e-05 -1.84565e-07 0)
(2.33495e-05 -1.8533e-07 0)
(2.33765e-05 -1.86076e-07 0)
(2.34044e-05 -1.86803e-07 0)
(2.34333e-05 -1.87504e-07 0)
(2.34633e-05 -1.8818e-07 0)
(2.34943e-05 -1.88831e-07 0)
(2.35266e-05 -1.8946e-07 0)
(2.35602e-05 -1.9007e-07 0)
(2.35951e-05 -1.90661e-07 0)
(2.36315e-05 -1.91229e-07 0)
(2.36696e-05 -1.91786e-07 0)
(2.37098e-05 -1.9232e-07 0)
(2.37527e-05 -1.92817e-07 0)
(2.37984e-05 -1.93251e-07 0)
(2.38468e-05 -1.93576e-07 0)
(2.38984e-05 -1.93756e-07 0)
(2.39555e-05 -1.93776e-07 0)
(2.40206e-05 -1.93659e-07 0)
(2.40908e-05 -1.93418e-07 0)
(2.41743e-05 -1.91694e-07 0)
(2.47495e-05 -1.97689e-07 0)
(2.46641e-05 -1.19708e-07 0)
(2.477e-05 -3.98943e-07 0)
(2.50881e-05 6.63559e-07 0)
(0.000163466 -3.58814e-06 0)
(0.0450898 5.92134e-06 0)
(0.0713243 0.000103581 0)
(0.0708274 5.01798e-05 0)
(0.0749104 5.4853e-05 0)
(0.0805268 4.74704e-05 0)
(0.0867109 4.1588e-05 0)
(0.0930024 3.68433e-05 0)
(0.0991524 3.30448e-05 0)
(0.105026 3.00403e-05 0)
(0.110556 2.76497e-05 0)
(0.115723 2.56732e-05 0)
(0.12053 2.39398e-05 0)
(0.124996 2.23322e-05 0)
(0.129144 2.07667e-05 0)
(0.132999 1.92119e-05 0)
(0.136585 1.76661e-05 0)
(0.139921 1.61252e-05 0)
(0.143024 1.46e-05 0)
(0.145905 1.31043e-05 0)
(0.148575 1.1651e-05 0)
(0.151037 1.02509e-05 0)
(0.153294 8.91285e-06 0)
(0.155345 7.64315e-06 0)
(0.157185 6.44576e-06 0)
(0.158807 5.32265e-06 0)
(0.160203 4.27427e-06 0)
(0.161361 3.2994e-06 0)
(0.162266 2.39293e-06 0)
(0.162903 1.54136e-06 0)
(0.163254 7.19728e-07 0)
(0.163299 -1.01484e-07 0)
(0.163016 -9.33703e-07 0)
(0.162384 -1.74264e-06 0)
(0.161381 -2.44313e-06 0)
(0.159986 -2.93491e-06 0)
(0.158181 -3.15932e-06 0)
(0.155953 -3.13111e-06 0)
(0.153293 -2.92258e-06 0)
(0.1502 -2.62126e-06 0)
(0.146683 -2.29644e-06 0)
(0.142756 -1.98892e-06 0)
(0.138447 -1.71644e-06 0)
(0.133791 -1.48302e-06 0)
(0.128836 -1.28621e-06 0)
(0.123639 -1.12124e-06 0)
(0.118264 -9.82918e-07 0)
(0.112782 -8.66541e-07 0)
(0.107264 -7.68083e-07 0)
(0.101778 -6.84253e-07 0)
(0.0963902 -6.12394e-07 0)
(0.0911555 -5.50411e-07 0)
(0.0861196 -4.96541e-07 0)
(0.0813169 -4.49409e-07 0)
(0.0767707 -4.0799e-07 0)
(0.0724501 -3.71016e-07 0)
(0.0683285 -3.37587e-07 0)
(0.0644171 -3.0729e-07 0)
(0.0607203 -2.79779e-07 0)
(0.0572367 -2.54751e-07 0)
(0.0539603 -2.31948e-07 0)
(0.0508811 -2.11146e-07 0)
(0.0479869 -1.92147e-07 0)
(0.0452637 -1.74787e-07 0)
(0.0426966 -1.58911e-07 0)
(0.0402709 -1.44377e-07 0)
(0.0379718 -1.31068e-07 0)
(0.0357856 -1.18878e-07 0)
(0.0336993 -1.07705e-07 0)
(0.031701 -9.74587e-08 0)
(0.02978 -8.80545e-08 0)
(0.0279266 -7.94172e-08 0)
(0.0261324 -7.14877e-08 0)
(0.0243899 -6.42065e-08 0)
(0.0226926 -5.75225e-08 0)
(0.0210349 -5.13969e-08 0)
(0.0194121 -4.5787e-08 0)
(0.0178203 -4.06548e-08 0)
(0.0162559 -3.59688e-08 0)
(0.0147163 -3.16931e-08 0)
(0.0131991 -2.77787e-08 0)
(0.0117026 -2.41608e-08 0)
(0.0102253 -2.07677e-08 0)
(0.00876616 -1.7539e-08 0)
(0.00732449 -1.44845e-08 0)
(0.00589981 -1.17473e-08 0)
(0.00449193 -9.56045e-09 0)
(0.00310088 -8.02818e-09 0)
(0.00172693 -6.985e-09 0)
(0.000370554 -6.15695e-09 0)
(-0.00096755 -5.10508e-09 0)
(-0.00228646 -3.93816e-09 0)
(-0.00358495 -3.0922e-09 0)
(-0.00486162 -2.46708e-09 0)
(-0.00611481 -1.95e-09 0)
(-0.00734259 -1.51651e-09 0)
(-0.00854269 -1.1608e-09 0)
(-0.0097125 -8.74981e-10 0)
(-0.010849 -6.50171e-10 0)
(-0.0119488 -4.74876e-10 0)
(-0.013008 -3.40939e-10 0)
(-0.014022 -2.5017e-10 0)
(-0.014986 -1.88986e-10 0)
(-0.0158941 -1.41375e-10 0)
(-0.0167401 -8.87621e-11 0)
(-0.0175166 -9.652e-11 0)
(-0.0182158 -1.08513e-10 0)
(-0.0188286 -7.23311e-11 0)
(-0.0193453 -7.1541e-11 0)
(-0.0197553 -7.32774e-11 0)
(-0.0200471 -7.26055e-11 0)
(-0.0202086 -7.035e-11 0)
(-0.0202275 -6.87744e-11 0)
(-0.0200917 -6.89407e-11 0)
(-0.0197902 -6.80756e-11 0)
(-0.0193141 -6.70368e-11 0)
(-0.0186584 -6.63556e-11 0)
(-0.0178233 -6.66739e-11 0)
(-0.0168167 -6.65846e-11 0)
(-0.015656 -6.47823e-11 0)
(-0.0143693 -6.43791e-11 0)
(-0.0129949 -6.35154e-11 0)
(-0.0115798 -6.2452e-11 0)
(-0.0101752 -6.11542e-11 0)
(-0.00883152 -5.80423e-11 0)
(-0.00759341 -5.39745e-11 0)
(-0.00649693 -6.75521e-11 0)
(-0.00556883 -2.41612e-11 0)
(-0.00482782 -1.06227e-10 0)
(-0.00428672 2.8199e-11 0)
(-0.00395542 -1.55102e-10 0)
(-0.00384455 8.85176e-11 0)
(-0.00395123 -2.06007e-10 0)
(-0.00470942 1.36584e-10 0)
(-0.00532929 -2.40599e-10 0)
(-0.00538045 1.7038e-10 0)
(-0.00538131 -2.68455e-10 0)
(-0.00538132 2.00033e-10 0)
(-0.00538132 -2.99325e-10 0)
(-0.00538132 2.29018e-10 0)
(-0.00538132 -3.31493e-10 0)
(-0.00538132 2.60302e-10 0)
(-0.00538132 -3.66516e-10 0)
(-0.00538132 2.91203e-10 0)
(-0.00538132 -4.03826e-10 0)
(-0.00538132 3.24733e-10 0)
(-0.00538132 -4.39806e-10 0)
(-0.00538132 3.63366e-10 0)
(-0.00538132 -4.76269e-10 0)
(-0.00538132 4.00706e-10 0)
(-0.00538132 -5.1526e-10 0)
(-0.00538132 4.44756e-10 0)
(-0.00538132 -5.51177e-10 0)
(-0.00538132 4.89478e-10 0)
(-0.00538132 -5.89796e-10 0)
(-0.00538132 5.3621e-10 0)
(-0.00538132 -6.3055e-10 0)
(-0.00538132 5.82723e-10 0)
(-0.00538132 -6.72426e-10 0)
(-0.00538132 6.32442e-10 0)
(-0.00538132 -7.15037e-10 0)
(-0.00538132 6.82661e-10 0)
(-0.00538132 -7.59939e-10 0)
(-0.00538132 7.33197e-10 0)
(-0.00538132 -7.15461e-10 0)
(-0.00538132 6.67945e-10 0)
(-0.00538132 -7.3501e-10 0)
(-0.00538132 6.87881e-10 0)
(-0.00538132 -7.51417e-10 0)
(-0.00538132 7.05498e-10 0)
(-0.00538132 -7.71333e-10 0)
(-0.00538132 7.19287e-10 0)
(-0.00538132 -7.92276e-10 0)
(-0.00538132 7.29518e-10 0)
(-0.00538132 -8.14825e-10 0)
(-0.00538132 7.43136e-10 0)
(-0.00538132 -8.34426e-10 0)
(-0.00538132 7.53735e-10 0)
(-0.00538132 -8.56179e-10 0)
(-0.00538132 7.62541e-10 0)
(-0.00538132 -8.77841e-10 0)
(-0.00538132 7.65491e-10 0)
(-0.00538132 -9.03079e-10 0)
(-0.00538132 7.85969e-10 0)
(-0.00538132 -9.07372e-10 0)
(-0.00538132 8.0408e-10 0)
(-0.00538132 -9.18671e-10 0)
(-0.00538132 8.19832e-10 0)
(-0.00538132 -9.30547e-10 0)
(-0.00538132 8.33976e-10 0)
(-0.00538132 -9.41011e-10 0)
(-0.00538132 8.49875e-10 0)
(-0.00538132 -9.51067e-10 0)
(-0.00538132 8.62017e-10 0)
(-0.00538132 -9.6206e-10 0)
(-0.00538132 8.74149e-10 0)
(-0.00538132 -9.72975e-10 0)
(-0.00538132 8.84623e-10 0)
(-0.00538132 -9.83515e-10 0)
(-0.00538132 8.941e-10 0)
(-0.00538132 -9.93608e-10 0)
(-0.00538132 9.03674e-10 0)
(-0.00538132 -1.00282e-09 0)
(-0.00538132 9.10382e-10 0)
(-0.00538132 -1.01327e-09 0)
(-0.00538132 9.15621e-10 0)
(-0.00538132 -1.02231e-09 0)
(-0.00538132 9.22105e-10 0)
(-0.00538132 -1.02878e-09 0)
(-0.00538132 9.25889e-10 0)
(-0.00538132 -1.03791e-09 0)
(-0.00538132 9.23754e-10 0)
(-0.00538132 -1.05321e-09 0)
(-0.00538132 9.49399e-10 0)
)
;

boundaryField
{
    inandouthalf11
    {
        type            cyclic;
    }
    inandouthalf12
    {
        type            cyclic;
    }
    inandouthalf21
    {
        type            cyclic;
    }
    inandouthalf22
    {
        type            cyclic;
    }
    inandouthalf31
    {
        type            cyclic;
    }
    inandouthalf32
    {
        type            cyclic;
    }
    inandouthalf41
    {
        type            cyclic;
    }
    inandouthalf42
    {
        type            cyclic;
    }
    top
    {
        type            symmetryPlane;
    }
    walls
    {
        type            calculated;
        value           uniform (0 0 0);
    }
    frontAndBackPlanes
    {
        type            empty;
    }
}


// ************************************************************************* //
