/*--------------------------------*- C++ -*----------------------------------*\
| =========                 |                                                 |
| \\      /  F ield         | OpenFOAM: The Open Source CFD Toolbox           |
|  \\    /   O peration     | Version:  2.4.x                                 |
|   \\  /    A nd           | Web:      www.OpenFOAM.org                      |
|    \\/     M anipulation  |                                                 |
\*---------------------------------------------------------------------------*/
FoamFile
{
    version     2.0;
    format      ascii;
    class       volScalarField;
    location    "12.45";
    object      pa;
}
// * * * * * * * * * * * * * * * * * * * * * * * * * * * * * * * * * * * * * //

dimensions      [1 -1 -2 0 0 0 0];

internalField   nonuniform List<scalar> 
360
(
2.90394e-16
2.92917e-16
2.93177e-16
2.92914e-16
2.92792e-16
2.92753e-16
2.92704e-16
2.9264e-16
2.92574e-16
2.92508e-16
2.92441e-16
2.92374e-16
2.92307e-16
2.92239e-16
2.92171e-16
2.92101e-16
2.92031e-16
2.91961e-16
2.91889e-16
2.91817e-16
2.91744e-16
2.91671e-16
2.91596e-16
2.91521e-16
2.91446e-16
2.91369e-16
2.91292e-16
2.91214e-16
2.91135e-16
2.91055e-16
2.90975e-16
2.90893e-16
2.90811e-16
2.90728e-16
2.90644e-16
2.90559e-16
2.90474e-16
2.90387e-16
2.90299e-16
2.90211e-16
2.90121e-16
2.90031e-16
2.8994e-16
2.89847e-16
2.89754e-16
2.89659e-16
2.89564e-16
2.89468e-16
2.8937e-16
2.89271e-16
2.89171e-16
2.8907e-16
2.88968e-16
2.88864e-16
2.8876e-16
2.88654e-16
2.88547e-16
2.88438e-16
2.88329e-16
2.88218e-16
2.88105e-16
2.87992e-16
2.87876e-16
2.87759e-16
2.87641e-16
2.87521e-16
2.874e-16
2.87276e-16
2.87152e-16
2.87026e-16
2.86898e-16
2.86767e-16
2.86637e-16
2.86503e-16
2.86368e-16
2.8623e-16
2.86091e-16
2.8595e-16
2.85806e-16
2.85661e-16
2.85513e-16
2.85363e-16
2.85211e-16
2.85056e-16
2.84899e-16
2.84739e-16
2.84577e-16
2.84412e-16
2.84244e-16
2.84073e-16
2.83899e-16
2.83723e-16
2.83543e-16
2.8336e-16
2.83173e-16
2.82983e-16
2.82789e-16
2.82592e-16
2.82391e-16
2.82186e-16
2.81976e-16
2.81763e-16
2.81545e-16
2.81322e-16
2.81095e-16
2.80862e-16
2.80625e-16
2.80382e-16
2.80133e-16
2.79879e-16
2.79619e-16
2.79352e-16
2.79079e-16
2.78799e-16
2.78512e-16
2.78217e-16
2.77915e-16
2.77605e-16
2.77285e-16
2.76957e-16
2.76619e-16
2.76272e-16
2.75913e-16
2.75544e-16
2.75162e-16
2.74769e-16
2.74362e-16
2.73941e-16
2.73504e-16
2.73051e-16
2.72581e-16
2.72063e-16
8.53994e-16
4.45312e-15
2.50663e-14
1.507e-13
9.88919e-13
7.23917e-12
6.02801e-11
5.80632e-10
6.56281e-09
8.82535e-08
1.42546e-06
2.88057e-05
0.00114138
0.070985
1.56596
5.73658
5.48763
4.78303
3.90695
3.1274
2.48217
1.96226
1.54988
1.22571
0.971939
0.773416
0.617862
0.495598
0.399115
0.322641
0.261749
0.213046
0.173924
0.142371
0.116827
0.0960755
0.0791645
0.0653438
0.0540194
0.0447187
0.0370636
0.0307506
0.0255345
0.0212163
0.0176323
0.0146472
0.0121497
0.0100518
0.00828828
0.00681345
0.00559348
0.00459818
0.00379622
0.00315518
0.00264404
0.00223545
0.00190685
0.00164036
0.0014222
0.00124183
0.00109125
0.000964366
0.000856494
0.00076403
0.000684168
0.000614704
0.000553896
0.000500351
0.000452952
0.000410374
0.000371649
0.000336363
0.000304161
0.000274739
0.000247832
0.000223214
0.000200688
0.000180079
0.000161233
0.000144013
0.000128294
0.000113962
0.000100913
8.90515e-05
7.82883e-05
6.85422e-05
5.97385e-05
5.18084e-05
4.46884e-05
3.83196e-05
3.26468e-05
2.76172e-05
2.3179e-05
1.92796e-05
1.58633e-05
1.28708e-05
1.02433e-05
7.9345e-06
5.93172e-06
4.27269e-06
3.01524e-06
2.13447e-06
1.47225e-06
8.8334e-07
0
0
0
0
0
0
0
0
0
0
0
0
0
0
0
0
0
0
0
0
0
0
0
0
0
0
0
0
0
0
0
0
0
0
0
0
0
0
0
0
0
0
0
0
0
0
0
0
0
0
0
0
0
0
0
0
0
0
0
0
0
0
0
0
0
0
0
0
0
0
0
0
0
0
0
0
0
0
0
0
0
0
0
0
0
0
0
0
0
0
0
0
0
0
0
0
0
0
0
0
0
0
0
0
0
0
0
0
0
0
0
0
0
0
0
0
0
0
0
0
0
0
0
0
)
;

boundaryField
{
    inandouthalf11
    {
        type            cyclic;
    }
    inandouthalf12
    {
        type            cyclic;
    }
    inandouthalf21
    {
        type            cyclic;
    }
    inandouthalf22
    {
        type            cyclic;
    }
    inandouthalf31
    {
        type            cyclic;
    }
    inandouthalf32
    {
        type            cyclic;
    }
    inandouthalf41
    {
        type            cyclic;
    }
    inandouthalf42
    {
        type            cyclic;
    }
    top
    {
        type            symmetryPlane;
    }
    walls
    {
        type            calculated;
        value           uniform 2.90394e-16;
    }
    frontAndBackPlanes
    {
        type            empty;
    }
}


// ************************************************************************* //
