/*--------------------------------*- C++ -*----------------------------------*\
| =========                 |                                                 |
| \\      /  F ield         | OpenFOAM: The Open Source CFD Toolbox           |
|  \\    /   O peration     | Version:  2.4.x                                 |
|   \\  /    A nd           | Web:      www.OpenFOAM.org                      |
|    \\/     M anipulation  |                                                 |
\*---------------------------------------------------------------------------*/
FoamFile
{
    version     2.0;
    format      ascii;
    class       surfaceScalarField;
    location    "12.45";
    object      phia;
}
// * * * * * * * * * * * * * * * * * * * * * * * * * * * * * * * * * * * * * //

dimensions      [0 3 -1 0 0 0 0];

internalField   nonuniform List<scalar> 
359
(
-3.97713e-15
-9.92505e-15
-1.54418e-14
-2.07917e-14
-2.63667e-14
-3.21607e-14
-3.81095e-14
-4.42118e-14
-5.04918e-14
-5.69739e-14
-6.36729e-14
-7.05938e-14
-7.77394e-14
-8.51091e-14
-9.27015e-14
-1.00514e-13
-1.08543e-13
-1.1678e-13
-1.25217e-13
-1.33845e-13
-1.42651e-13
-1.51625e-13
-1.60753e-13
-1.70023e-13
-1.79419e-13
-1.88928e-13
-1.98534e-13
-2.08223e-13
-2.17981e-13
-2.27791e-13
-2.37639e-13
-2.47512e-13
-2.57393e-13
-2.67274e-13
-2.77137e-13
-2.86972e-13
-2.96767e-13
-3.06511e-13
-3.16197e-13
-3.2581e-13
-3.35347e-13
-3.44798e-13
-3.54154e-13
-3.63414e-13
-3.72569e-13
-3.81616e-13
-3.90552e-13
-3.99367e-13
-4.08065e-13
-4.16645e-13
-4.251e-13
-4.33433e-13
-4.41642e-13
-4.49727e-13
-4.57687e-13
-4.65526e-13
-4.73241e-13
-4.80835e-13
-4.88309e-13
-4.95661e-13
-5.02899e-13
-5.1002e-13
-5.1703e-13
-5.23929e-13
-5.3072e-13
-5.37403e-13
-5.43982e-13
-5.50458e-13
-5.56833e-13
-5.63108e-13
-5.69288e-13
-5.75375e-13
-5.81368e-13
-5.87273e-13
-5.93091e-13
-5.98824e-13
-6.04473e-13
-6.10038e-13
-6.15522e-13
-6.20926e-13
-6.26251e-13
-6.31499e-13
-6.36672e-13
-6.41772e-13
-6.468e-13
-6.51757e-13
-6.56644e-13
-6.61461e-13
-6.66209e-13
-6.70888e-13
-6.75498e-13
-6.80041e-13
-6.84516e-13
-6.88927e-13
-6.93272e-13
-6.97553e-13
-7.01771e-13
-7.05926e-13
-7.10018e-13
-7.14048e-13
-7.18016e-13
-7.21924e-13
-7.25771e-13
-7.2956e-13
-7.3329e-13
-7.36964e-13
-7.40583e-13
-7.44147e-13
-7.47659e-13
-7.51121e-13
-7.54533e-13
-7.57897e-13
-7.61215e-13
-7.64487e-13
-7.67714e-13
-7.70897e-13
-7.74035e-13
-7.77126e-13
-7.80168e-13
-7.83159e-13
-7.86094e-13
-7.8897e-13
-7.91784e-13
-7.94531e-13
-7.97213e-13
-7.99831e-13
-8.02393e-13
-8.04911e-13
-8.07404e-13
-8.09891e-13
-8.12391e-13
-8.14914e-13
-8.17456e-13
-8.19982e-13
-8.22405e-13
-8.24571e-13
-8.26293e-13
-8.27455e-13
-8.28092e-13
-8.28369e-13
-8.28489e-13
-8.28479e-13
-8.28898e-13
-8.29064e-13
-8.29152e-13
-8.29123e-13
-8.08388e-12
-6.3981e-10
-1.08437e-09
-1.33141e-09
-1.46856e-09
-1.54559e-09
-1.56849e-09
-1.53702e-09
-1.44921e-09
-1.30351e-09
-1.09942e-09
-8.3758e-10
-5.19583e-10
-1.47717e-10
2.75274e-10
7.46262e-10
1.26195e-09
1.8189e-09
2.41356e-09
3.04221e-09
3.70097e-09
4.38574e-09
5.09209e-09
5.81521e-09
6.54975e-09
7.28969e-09
8.02816e-09
8.75718e-09
9.46708e-09
1.01453e-08
1.07736e-08
1.13249e-08
1.17612e-08
1.20367e-08
1.21086e-08
1.19507e-08
1.15633e-08
1.09718e-08
1.02187e-08
9.35183e-09
8.41662e-09
7.45136e-09
6.48612e-09
5.54322e-09
4.63838e-09
3.78216e-09
2.98113e-09
2.23887e-09
1.55681e-09
9.34768e-10
3.71431e-10
-1.35304e-10
-5.88085e-10
-9.89908e-10
-1.34398e-09
-1.65947e-09
-1.93742e-09
-2.17919e-09
-2.38632e-09
-2.56055e-09
-2.70373e-09
-2.81779e-09
-2.90469e-09
-2.96638e-09
-3.00476e-09
-3.02164e-09
-3.01876e-09
-2.99775e-09
-2.96011e-09
-2.90725e-09
-2.84048e-09
-2.76098e-09
-2.66985e-09
-2.56805e-09
-2.4564e-09
-2.33554e-09
-2.20591e-09
-2.06774e-09
-1.92108e-09
-1.76608e-09
-1.60368e-09
-1.43701e-09
-1.27389e-09
-1.13011e-09
-1.03232e-09
-1.01482e-09
-1.09306e-09
-1.22272e-09
-1.33327e-09
-1.51439e-09
-2.47254e-09
-4.02841e-09
-5.5092e-09
-6.86676e-09
-8.09035e-09
-9.16601e-09
-1.00831e-08
-1.08339e-08
-1.14142e-08
-1.18331e-08
-1.20909e-08
-1.21128e-08
-1.23717e-08
-1.14546e-08
-1.76326e-08
-8.7596e-08
-1.50918e-07
-1.5855e-07
-1.5842e-07
-1.58429e-07
-1.5843e-07
-1.58429e-07
-1.58426e-07
-1.58422e-07
-1.58415e-07
-1.58407e-07
-1.58397e-07
-1.58386e-07
-1.58372e-07
-1.58358e-07
-1.58343e-07
-1.58329e-07
-1.58315e-07
-1.58302e-07
-1.5829e-07
-1.58279e-07
-1.58271e-07
-1.58264e-07
-1.58258e-07
-1.58252e-07
-1.58246e-07
-1.5824e-07
-1.58227e-07
-1.58205e-07
-1.582e-07
-1.582e-07
-1.582e-07
-1.582e-07
-1.582e-07
-1.582e-07
-1.582e-07
-1.582e-07
-1.582e-07
-1.582e-07
-1.582e-07
-1.582e-07
-1.582e-07
-1.582e-07
-1.582e-07
-1.582e-07
-1.582e-07
-1.582e-07
-1.582e-07
-1.582e-07
-1.582e-07
-1.582e-07
-1.582e-07
-1.582e-07
-1.582e-07
-1.582e-07
-1.582e-07
-1.582e-07
-1.582e-07
-1.582e-07
-1.582e-07
-1.582e-07
-1.582e-07
-1.582e-07
-1.582e-07
-1.582e-07
-1.582e-07
-1.582e-07
-1.582e-07
-1.582e-07
-1.582e-07
-1.582e-07
-1.582e-07
-1.582e-07
-1.582e-07
-1.582e-07
-1.582e-07
-1.582e-07
-1.582e-07
-1.582e-07
-1.582e-07
-1.582e-07
-1.582e-07
-1.582e-07
-1.582e-07
-1.582e-07
-1.582e-07
-1.582e-07
-1.582e-07
-1.582e-07
-1.582e-07
-1.582e-07
-1.582e-07
-1.582e-07
-1.582e-07
-1.582e-07
-1.582e-07
-1.582e-07
-1.582e-07
-1.582e-07
-1.582e-07
-1.582e-07
-1.582e-07
-1.582e-07
-1.582e-07
-1.582e-07
-1.58183e-07
-1.57477e-07
-1.32608e-07
)
;

boundaryField
{
    inandouthalf11
    {
        type            cyclic;
        value           nonuniform List<scalar> 
100
(
1.55525e-38
3.94762e-16
8.20127e-16
1.20519e-15
1.60346e-15
2.02619e-15
2.46504e-15
2.91707e-15
3.38401e-15
3.86803e-15
4.37071e-15
4.89295e-15
5.43522e-15
5.99776e-15
6.58067e-15
7.18398e-15
7.8076e-15
8.45122e-15
9.11437e-15
9.79651e-15
1.04969e-14
1.12148e-14
1.19493e-14
1.26995e-14
1.34643e-14
1.42428e-14
1.50337e-14
1.58359e-14
1.66483e-14
1.74696e-14
1.82987e-14
1.91343e-14
1.99752e-14
2.08204e-14
2.16688e-14
2.25191e-14
2.33703e-14
2.42215e-14
2.50718e-14
2.59201e-14
2.67658e-14
2.7608e-14
2.84459e-14
2.9279e-14
3.01067e-14
3.09285e-14
3.17439e-14
3.25524e-14
3.33535e-14
3.41472e-14
3.49332e-14
3.57111e-14
3.64808e-14
3.72423e-14
3.79953e-14
3.874e-14
3.94761e-14
4.02038e-14
4.09231e-14
4.16337e-14
4.2336e-14
4.30301e-14
4.3716e-14
4.4394e-14
4.5064e-14
4.57263e-14
4.63809e-14
4.7028e-14
4.76678e-14
4.83001e-14
4.89253e-14
4.95437e-14
5.01554e-14
5.07604e-14
5.1359e-14
5.19515e-14
5.25378e-14
5.31181e-14
5.36924e-14
5.42608e-14
5.48236e-14
5.53807e-14
5.59323e-14
5.64787e-14
5.70199e-14
5.75561e-14
5.80873e-14
5.86136e-14
5.9135e-14
5.96516e-14
6.01633e-14
6.06702e-14
6.11724e-14
6.16701e-14
6.21633e-14
6.26521e-14
6.31365e-14
6.36168e-14
6.40929e-14
6.45649e-14
)
;
    }
    inandouthalf12
    {
        type            cyclic;
        value           nonuniform List<scalar> 
100
(
-1.55525e-38
-3.94762e-16
-8.20127e-16
-1.20519e-15
-1.60346e-15
-2.02619e-15
-2.46504e-15
-2.91707e-15
-3.38401e-15
-3.86803e-15
-4.37071e-15
-4.89295e-15
-5.43522e-15
-5.99776e-15
-6.58067e-15
-7.18398e-15
-7.8076e-15
-8.45122e-15
-9.11437e-15
-9.79651e-15
-1.04969e-14
-1.12148e-14
-1.19493e-14
-1.26995e-14
-1.34643e-14
-1.42428e-14
-1.50337e-14
-1.58359e-14
-1.66483e-14
-1.74696e-14
-1.82987e-14
-1.91343e-14
-1.99752e-14
-2.08204e-14
-2.16688e-14
-2.25191e-14
-2.33703e-14
-2.42215e-14
-2.50718e-14
-2.59201e-14
-2.67658e-14
-2.7608e-14
-2.84459e-14
-2.9279e-14
-3.01067e-14
-3.09285e-14
-3.17439e-14
-3.25524e-14
-3.33535e-14
-3.41472e-14
-3.49332e-14
-3.57111e-14
-3.64808e-14
-3.72423e-14
-3.79953e-14
-3.874e-14
-3.94761e-14
-4.02038e-14
-4.09231e-14
-4.16337e-14
-4.2336e-14
-4.30301e-14
-4.3716e-14
-4.4394e-14
-4.5064e-14
-4.57263e-14
-4.63809e-14
-4.7028e-14
-4.76678e-14
-4.83001e-14
-4.89253e-14
-4.95437e-14
-5.01554e-14
-5.07604e-14
-5.1359e-14
-5.19515e-14
-5.25378e-14
-5.31181e-14
-5.36924e-14
-5.42608e-14
-5.48236e-14
-5.53807e-14
-5.59323e-14
-5.64787e-14
-5.70199e-14
-5.75561e-14
-5.80873e-14
-5.86136e-14
-5.9135e-14
-5.96516e-14
-6.01633e-14
-6.06702e-14
-6.11724e-14
-6.16701e-14
-6.21633e-14
-6.26521e-14
-6.31365e-14
-6.36168e-14
-6.40929e-14
-6.45649e-14
)
;
    }
    inandouthalf21
    {
        type            cyclic;
        value           nonuniform List<scalar> 
100
(
6.50328e-14
6.54969e-14
6.59571e-14
6.64136e-14
6.68667e-14
6.73165e-14
6.77632e-14
6.8207e-14
6.86484e-14
6.90874e-14
6.95245e-14
6.996e-14
7.03943e-14
7.08275e-14
7.12602e-14
7.16925e-14
7.21246e-14
7.25568e-14
7.2989e-14
7.34212e-14
7.38533e-14
7.42851e-14
7.47163e-14
7.51468e-14
7.55767e-14
7.60066e-14
7.6438e-14
7.68731e-14
7.73157e-14
7.77703e-14
7.82426e-14
7.87378e-14
7.92602e-14
7.98095e-14
8.03761e-14
8.09329e-14
8.14325e-14
8.18214e-14
8.20708e-14
8.21974e-14
8.22511e-14
8.22815e-14
8.23185e-14
8.24026e-14
8.24506e-14
8.24845e-14
8.25508e-14
1.73075e-08
1.13114e-07
2.08421e-07
2.84466e-07
3.47242e-07
4.00091e-07
4.4528e-07
4.84415e-07
5.18682e-07
5.48988e-07
5.76037e-07
6.00385e-07
6.22466e-07
6.42628e-07
6.61146e-07
6.7824e-07
6.94086e-07
7.08828e-07
7.22581e-07
7.35441e-07
7.47485e-07
7.58779e-07
7.69376e-07
7.79322e-07
7.88656e-07
7.97412e-07
8.05618e-07
8.13301e-07
8.20485e-07
8.27193e-07
8.33445e-07
8.39265e-07
8.44673e-07
8.49695e-07
8.54355e-07
8.58681e-07
8.62699e-07
8.66436e-07
8.69916e-07
8.7316e-07
8.76189e-07
8.7902e-07
8.81667e-07
8.84143e-07
8.8646e-07
8.88629e-07
8.90659e-07
8.92559e-07
8.94337e-07
8.96e-07
8.97555e-07
8.99008e-07
9.00367e-07
)
;
    }
    inandouthalf22
    {
        type            cyclic;
        value           nonuniform List<scalar> 
100
(
-6.50328e-14
-6.54969e-14
-6.59571e-14
-6.64136e-14
-6.68667e-14
-6.73165e-14
-6.77632e-14
-6.8207e-14
-6.86484e-14
-6.90874e-14
-6.95245e-14
-6.996e-14
-7.03943e-14
-7.08275e-14
-7.12602e-14
-7.16925e-14
-7.21246e-14
-7.25568e-14
-7.2989e-14
-7.34212e-14
-7.38533e-14
-7.42851e-14
-7.47163e-14
-7.51468e-14
-7.55767e-14
-7.60066e-14
-7.6438e-14
-7.68731e-14
-7.73157e-14
-7.77703e-14
-7.82426e-14
-7.87378e-14
-7.92602e-14
-7.98095e-14
-8.03761e-14
-8.09329e-14
-8.14325e-14
-8.18214e-14
-8.20708e-14
-8.21974e-14
-8.22511e-14
-8.22815e-14
-8.23185e-14
-8.24026e-14
-8.24506e-14
-8.24845e-14
-8.25508e-14
-1.73075e-08
-1.13114e-07
-2.08421e-07
-2.84466e-07
-3.47242e-07
-4.00091e-07
-4.4528e-07
-4.84415e-07
-5.18682e-07
-5.48988e-07
-5.76037e-07
-6.00385e-07
-6.22466e-07
-6.42628e-07
-6.61146e-07
-6.7824e-07
-6.94086e-07
-7.08828e-07
-7.22581e-07
-7.35441e-07
-7.47485e-07
-7.58779e-07
-7.69376e-07
-7.79322e-07
-7.88656e-07
-7.97412e-07
-8.05618e-07
-8.13301e-07
-8.20485e-07
-8.27193e-07
-8.33445e-07
-8.39265e-07
-8.44673e-07
-8.49695e-07
-8.54355e-07
-8.58681e-07
-8.62699e-07
-8.66436e-07
-8.69916e-07
-8.7316e-07
-8.76189e-07
-8.7902e-07
-8.81667e-07
-8.84143e-07
-8.8646e-07
-8.88629e-07
-8.90659e-07
-8.92559e-07
-8.94337e-07
-8.96e-07
-8.97555e-07
-8.99008e-07
-9.00367e-07
)
;
    }
    inandouthalf31
    {
        type            cyclic;
        value           nonuniform List<scalar> 
110
(
9.01639e-07
9.21161e-07
9.41044e-07
9.61294e-07
9.81918e-07
1.00292e-06
1.02432e-06
1.04611e-06
1.0683e-06
1.09091e-06
1.11394e-06
1.1374e-06
1.1613e-06
1.18565e-06
1.21045e-06
1.23573e-06
1.26149e-06
1.28773e-06
1.31448e-06
1.34174e-06
1.36952e-06
1.39783e-06
1.42669e-06
1.45611e-06
1.4861e-06
1.51667e-06
1.54783e-06
1.5796e-06
1.61198e-06
1.645e-06
1.67867e-06
1.71301e-06
1.74802e-06
1.78373e-06
1.82013e-06
1.85722e-06
1.89508e-06
1.96171e-06
1.9976e-06
2.03406e-06
2.07106e-06
2.10863e-06
2.14677e-06
2.1855e-06
2.22483e-06
2.26478e-06
2.30536e-06
2.3466e-06
2.38843e-06
2.43114e-06
2.47443e-06
2.51807e-06
2.56255e-06
2.60882e-06
2.65494e-06
2.70253e-06
2.75106e-06
2.80065e-06
2.85136e-06
2.90327e-06
2.95647e-06
3.01106e-06
3.06713e-06
3.12479e-06
3.18416e-06
3.24534e-06
3.30844e-06
3.37352e-06
3.44073e-06
3.51009e-06
3.58155e-06
3.65522e-06
3.73106e-06
3.80901e-06
3.88903e-06
3.97102e-06
4.05486e-06
4.1404e-06
4.22744e-06
4.31519e-06
4.40323e-06
4.49263e-06
4.58382e-06
4.67686e-06
4.77178e-06
4.86864e-06
4.96746e-06
5.06829e-06
5.17116e-06
5.27612e-06
5.38321e-06
5.49247e-06
5.60396e-06
5.7177e-06
5.83376e-06
5.95217e-06
6.07298e-06
6.19624e-06
6.32201e-06
6.45033e-06
6.58126e-06
6.71484e-06
6.85113e-06
6.99019e-06
7.13207e-06
7.27684e-06
7.42454e-06
7.57523e-06
7.72899e-06
7.88587e-06
)
;
    }
    inandouthalf32
    {
        type            cyclic;
        value           nonuniform List<scalar> 
110
(
-9.01639e-07
-9.21161e-07
-9.41044e-07
-9.61294e-07
-9.81918e-07
-1.00292e-06
-1.02432e-06
-1.04611e-06
-1.0683e-06
-1.09091e-06
-1.11394e-06
-1.1374e-06
-1.1613e-06
-1.18565e-06
-1.21045e-06
-1.23573e-06
-1.26149e-06
-1.28773e-06
-1.31448e-06
-1.34174e-06
-1.36952e-06
-1.39783e-06
-1.42669e-06
-1.45611e-06
-1.4861e-06
-1.51667e-06
-1.54783e-06
-1.5796e-06
-1.61198e-06
-1.645e-06
-1.67867e-06
-1.71301e-06
-1.74802e-06
-1.78373e-06
-1.82013e-06
-1.85722e-06
-1.89508e-06
-1.96171e-06
-1.9976e-06
-2.03406e-06
-2.07106e-06
-2.10863e-06
-2.14677e-06
-2.1855e-06
-2.22483e-06
-2.26478e-06
-2.30536e-06
-2.3466e-06
-2.38843e-06
-2.43114e-06
-2.47443e-06
-2.51807e-06
-2.56255e-06
-2.60882e-06
-2.65494e-06
-2.70253e-06
-2.75106e-06
-2.80065e-06
-2.85136e-06
-2.90327e-06
-2.95647e-06
-3.01106e-06
-3.06713e-06
-3.12479e-06
-3.18416e-06
-3.24534e-06
-3.30844e-06
-3.37352e-06
-3.44073e-06
-3.51009e-06
-3.58155e-06
-3.65522e-06
-3.73106e-06
-3.80901e-06
-3.88903e-06
-3.97102e-06
-4.05486e-06
-4.1404e-06
-4.22744e-06
-4.31519e-06
-4.40323e-06
-4.49263e-06
-4.58382e-06
-4.67686e-06
-4.77178e-06
-4.86864e-06
-4.96746e-06
-5.06829e-06
-5.17116e-06
-5.27612e-06
-5.38321e-06
-5.49247e-06
-5.60396e-06
-5.7177e-06
-5.83376e-06
-5.95217e-06
-6.07298e-06
-6.19624e-06
-6.32201e-06
-6.45033e-06
-6.58126e-06
-6.71484e-06
-6.85113e-06
-6.99019e-06
-7.13207e-06
-7.27684e-06
-7.42454e-06
-7.57523e-06
-7.72899e-06
-7.88587e-06
)
;
    }
    inandouthalf41
    {
        type            cyclic;
        value           nonuniform List<scalar> 
50
(
7.05866e-06
7.05866e-06
7.05866e-06
7.05866e-06
7.05866e-06
7.05866e-06
7.05866e-06
7.05866e-06
7.05866e-06
7.05866e-06
7.05866e-06
7.05866e-06
7.05866e-06
7.05866e-06
7.05866e-06
7.05866e-06
7.05866e-06
7.05866e-06
7.05866e-06
7.05866e-06
7.05866e-06
7.05866e-06
7.05866e-06
7.05866e-06
7.05866e-06
7.05866e-06
7.05866e-06
7.05866e-06
7.05866e-06
7.05866e-06
7.05866e-06
7.05866e-06
7.05866e-06
7.05866e-06
7.05866e-06
7.05866e-06
7.05866e-06
7.05866e-06
7.05866e-06
7.05866e-06
7.05866e-06
7.05866e-06
7.05866e-06
7.05866e-06
7.05866e-06
7.05866e-06
7.05866e-06
7.05866e-06
7.05866e-06
7.05862e-06
)
;
    }
    inandouthalf42
    {
        type            cyclic;
        value           nonuniform List<scalar> 
50
(
-7.05866e-06
-7.05866e-06
-7.05866e-06
-7.05866e-06
-7.05866e-06
-7.05866e-06
-7.05866e-06
-7.05866e-06
-7.05866e-06
-7.05866e-06
-7.05866e-06
-7.05866e-06
-7.05866e-06
-7.05866e-06
-7.05866e-06
-7.05866e-06
-7.05866e-06
-7.05866e-06
-7.05866e-06
-7.05866e-06
-7.05866e-06
-7.05866e-06
-7.05866e-06
-7.05866e-06
-7.05866e-06
-7.05866e-06
-7.05866e-06
-7.05866e-06
-7.05866e-06
-7.05866e-06
-7.05866e-06
-7.05866e-06
-7.05866e-06
-7.05866e-06
-7.05866e-06
-7.05866e-06
-7.05866e-06
-7.05866e-06
-7.05866e-06
-7.05866e-06
-7.05866e-06
-7.05866e-06
-7.05866e-06
-7.05866e-06
-7.05866e-06
-7.05866e-06
-7.05866e-06
-7.05866e-06
-7.05866e-06
-7.05862e-06
)
;
    }
    top
    {
        type            symmetryPlane;
        value           uniform 0;
    }
    walls
    {
        type            fixedValue;
        value           uniform 0;
    }
    frontAndBackPlanes
    {
        type            empty;
        value           nonuniform 0();
    }
}


// ************************************************************************* //
