/*--------------------------------*- C++ -*----------------------------------*\
| =========                 |                                                 |
| \\      /  F ield         | OpenFOAM: The Open Source CFD Toolbox           |
|  \\    /   O peration     | Version:  2.4.x                                 |
|   \\  /    A nd           | Web:      www.OpenFOAM.org                      |
|    \\/     M anipulation  |                                                 |
\*---------------------------------------------------------------------------*/
FoamFile
{
    version     2.0;
    format      ascii;
    class       surfaceScalarField;
    location    "12.45";
    object      phib_0;
}
// * * * * * * * * * * * * * * * * * * * * * * * * * * * * * * * * * * * * * //

dimensions      [0 3 -1 0 0 0 0];

internalField   nonuniform List<scalar> 
359
(
6.2574e-15
1.56468e-14
2.43438e-14
3.27688e-14
4.15506e-14
5.06781e-14
6.00472e-14
6.9656e-14
7.95426e-14
8.97457e-14
1.00288e-13
1.11179e-13
1.2242e-13
1.34012e-13
1.45953e-13
1.58238e-13
1.70859e-13
1.83807e-13
1.97065e-13
2.10622e-13
2.24455e-13
2.38549e-13
2.52882e-13
2.67434e-13
2.82182e-13
2.97104e-13
3.12173e-13
3.27371e-13
3.42671e-13
3.5805e-13
3.73485e-13
3.88955e-13
4.04433e-13
4.19905e-13
4.35346e-13
4.50739e-13
4.66063e-13
4.81303e-13
4.96448e-13
5.11472e-13
5.26374e-13
5.41136e-13
5.55743e-13
5.70194e-13
5.84477e-13
5.98584e-13
6.12512e-13
6.26248e-13
6.39793e-13
6.53148e-13
6.66304e-13
6.79262e-13
6.9202e-13
7.0458e-13
7.16938e-13
7.29102e-13
7.41066e-13
7.52837e-13
7.64413e-13
7.75793e-13
7.86989e-13
7.97997e-13
8.08826e-13
8.19475e-13
8.2995e-13
8.4025e-13
8.50382e-13
8.60348e-13
8.70151e-13
8.7979e-13
8.89274e-13
8.98609e-13
9.07791e-13
9.16828e-13
9.25722e-13
9.34479e-13
9.43097e-13
9.51578e-13
9.59926e-13
9.68143e-13
9.7623e-13
9.84189e-13
9.92025e-13
9.99738e-13
1.00733e-12
1.01481e-12
1.02217e-12
1.02941e-12
1.03654e-12
1.04355e-12
1.05045e-12
1.05723e-12
1.0639e-12
1.07046e-12
1.0769e-12
1.08324e-12
1.08947e-12
1.0956e-12
1.10161e-12
1.10752e-12
1.11332e-12
1.11901e-12
1.1246e-12
1.13009e-12
1.13548e-12
1.14076e-12
1.14594e-12
1.15103e-12
1.15603e-12
1.16092e-12
1.16573e-12
1.17045e-12
1.17508e-12
1.17962e-12
1.18408e-12
1.18844e-12
1.19272e-12
1.19691e-12
1.201e-12
1.20499e-12
1.20887e-12
1.21264e-12
1.21628e-12
1.21979e-12
1.22318e-12
1.22644e-12
1.22958e-12
1.23262e-12
1.23558e-12
1.2385e-12
1.24139e-12
1.24428e-12
1.24714e-12
1.24991e-12
1.25245e-12
1.25452e-12
1.25583e-12
1.25617e-12
1.25554e-12
1.25419e-12
1.25238e-12
1.24392e-12
1.23831e-12
1.23832e-12
1.23493e-12
1.22549e-12
9.00366e-12
3.83599e-10
3.79202e-10
3.49764e-10
3.07782e-10
2.60454e-10
2.12426e-10
1.66842e-10
1.25805e-10
9.04361e-11
6.10265e-11
3.72904e-11
1.86171e-11
4.26715e-12
-6.50218e-12
-1.43678e-11
-1.9917e-11
-2.36413e-11
-2.59436e-11
-2.71494e-11
-2.75189e-11
-2.7259e-11
-2.65333e-11
-2.54702e-11
-2.41703e-11
-2.27117e-11
-2.11549e-11
-1.95459e-11
-1.79185e-11
-1.62951e-11
-1.46858e-11
-1.30899e-11
-1.15035e-11
-9.93155e-12
-8.3994e-12
-6.95183e-12
-5.6385e-12
-4.4956e-12
-3.53632e-12
-2.75297e-12
-2.12511e-12
-1.62767e-12
-1.23613e-12
-9.29017e-13
-6.88567e-13
-5.00545e-13
-3.53735e-13
-2.3936e-13
-1.50566e-13
-8.19928e-14
-2.94379e-14
1.04099e-14
4.01698e-14
6.19234e-14
7.73328e-14
8.78956e-14
9.4471e-14
9.77992e-14
9.85169e-14
9.71706e-14
9.42275e-14
9.0085e-14
8.50783e-14
7.94879e-14
7.35453e-14
6.74397e-14
6.13225e-14
5.5313e-14
4.95031e-14
4.39617e-14
3.87383e-14
3.38666e-14
2.93673e-14
2.52504e-14
2.15169e-14
1.81605e-14
1.51686e-14
1.25237e-14
1.0204e-14
8.18528e-15
6.4433e-15
4.95867e-15
3.72295e-15
2.74302e-15
2.03658e-15
1.61072e-15
1.42223e-15
1.3556e-15
1.28503e-15
1.27913e-15
1.76387e-15
2.26386e-15
2.38846e-15
2.29103e-15
2.06882e-15
1.78599e-15
1.4854e-15
1.19422e-15
9.28622e-16
6.97454e-16
5.03142e-16
3.43156e-16
2.23643e-16
1.20063e-16
8.00269e-17
7.36768e-17
1.69409e-18
1.48658e-18
1.38492e-18
1.28631e-18
1.20932e-18
1.13718e-18
1.0846e-18
1.03864e-18
1.00974e-18
9.89026e-19
9.8512e-19
9.90657e-19
1.00988e-18
1.03827e-18
1.08001e-18
1.12331e-18
1.1714e-18
1.22232e-18
1.27386e-18
1.3275e-18
1.38407e-18
1.43674e-18
1.48411e-18
1.52016e-18
1.55683e-18
1.5766e-18
1.59358e-18
1.60284e-18
1.63881e-18
1.66107e-18
1.67865e-18
1.66063e-18
1.65571e-18
1.60605e-18
1.61398e-18
1.51793e-18
1.46806e-18
1.37954e-18
1.28613e-18
1.13997e-18
1.02407e-18
8.67672e-19
7.2369e-19
6.0071e-19
6.32749e-19
6.46834e-19
6.83063e-19
8.10661e-19
8.57714e-19
8.70168e-19
8.86838e-19
8.71692e-19
9.16476e-19
9.27801e-19
9.4294e-19
9.09184e-19
9.1404e-19
8.69967e-19
8.34551e-19
7.78665e-19
7.71482e-19
7.49383e-19
7.31047e-19
6.90748e-19
6.66008e-19
6.24431e-19
5.82819e-19
5.29815e-19
4.90957e-19
4.43913e-19
3.96867e-19
3.42786e-19
2.90082e-19
2.31988e-19
1.69148e-19
9.09725e-20
-1.82302e-20
-1.39304e-19
-2.64953e-19
-3.87885e-19
-5.19159e-19
-6.41692e-19
-7.6573e-19
-8.77846e-19
-1.01982e-18
-1.14241e-18
-1.26604e-18
-1.36015e-18
-1.48788e-18
-1.56993e-18
-1.66225e-18
-1.72093e-18
-1.92642e-18
-2.07113e-18
-2.22508e-18
-2.26879e-18
-2.41648e-18
-2.40826e-18
-2.41894e-18
-2.36307e-18
-2.46665e-18
-2.3886e-18
-2.32059e-18
-2.036e-18
-1.62381e-18
-1.17142e-18
-1.36041e-18
)
;

boundaryField
{
    inandouthalf11
    {
        type            cyclic;
        value           nonuniform List<scalar> 
100
(
1.14384e-12
1.13781e-12
1.13737e-12
1.13862e-12
1.13942e-12
1.13997e-12
1.14058e-12
1.14124e-12
1.14192e-12
1.14263e-12
1.14335e-12
1.14409e-12
1.14486e-12
1.14565e-12
1.14646e-12
1.14729e-12
1.14815e-12
1.14903e-12
1.14993e-12
1.15085e-12
1.15179e-12
1.15275e-12
1.15374e-12
1.15474e-12
1.15575e-12
1.15679e-12
1.15784e-12
1.1589e-12
1.15998e-12
1.16106e-12
1.16216e-12
1.16327e-12
1.16438e-12
1.16551e-12
1.16664e-12
1.16777e-12
1.16891e-12
1.17005e-12
1.1712e-12
1.17234e-12
1.17349e-12
1.17464e-12
1.17578e-12
1.17693e-12
1.17807e-12
1.17921e-12
1.18035e-12
1.18148e-12
1.18261e-12
1.18374e-12
1.18486e-12
1.18598e-12
1.18709e-12
1.18821e-12
1.18931e-12
1.19042e-12
1.19152e-12
1.19261e-12
1.19371e-12
1.19479e-12
1.19588e-12
1.19696e-12
1.19804e-12
1.19912e-12
1.20019e-12
1.20126e-12
1.20233e-12
1.2034e-12
1.20447e-12
1.20553e-12
1.20659e-12
1.20766e-12
1.20872e-12
1.20979e-12
1.21085e-12
1.21192e-12
1.21298e-12
1.21405e-12
1.21512e-12
1.21619e-12
1.21727e-12
1.21834e-12
1.21942e-12
1.22051e-12
1.22159e-12
1.22269e-12
1.22378e-12
1.22489e-12
1.22599e-12
1.22711e-12
1.22823e-12
1.22935e-12
1.23048e-12
1.23163e-12
1.23277e-12
1.23393e-12
1.2351e-12
1.23628e-12
1.23746e-12
1.23866e-12
)
;
    }
    inandouthalf12
    {
        type            cyclic;
        value           nonuniform List<scalar> 
100
(
-1.14384e-12
-1.13781e-12
-1.13737e-12
-1.13862e-12
-1.13942e-12
-1.13997e-12
-1.14058e-12
-1.14124e-12
-1.14192e-12
-1.14263e-12
-1.14335e-12
-1.14409e-12
-1.14486e-12
-1.14565e-12
-1.14646e-12
-1.14729e-12
-1.14815e-12
-1.14903e-12
-1.14993e-12
-1.15085e-12
-1.15179e-12
-1.15275e-12
-1.15374e-12
-1.15474e-12
-1.15575e-12
-1.15679e-12
-1.15784e-12
-1.1589e-12
-1.15998e-12
-1.16106e-12
-1.16216e-12
-1.16327e-12
-1.16438e-12
-1.16551e-12
-1.16664e-12
-1.16777e-12
-1.16891e-12
-1.17005e-12
-1.1712e-12
-1.17234e-12
-1.17349e-12
-1.17464e-12
-1.17578e-12
-1.17693e-12
-1.17807e-12
-1.17921e-12
-1.18035e-12
-1.18148e-12
-1.18261e-12
-1.18374e-12
-1.18486e-12
-1.18598e-12
-1.18709e-12
-1.18821e-12
-1.18931e-12
-1.19042e-12
-1.19152e-12
-1.19261e-12
-1.19371e-12
-1.19479e-12
-1.19588e-12
-1.19696e-12
-1.19804e-12
-1.19912e-12
-1.20019e-12
-1.20126e-12
-1.20233e-12
-1.2034e-12
-1.20447e-12
-1.20553e-12
-1.20659e-12
-1.20766e-12
-1.20872e-12
-1.20979e-12
-1.21085e-12
-1.21192e-12
-1.21298e-12
-1.21405e-12
-1.21512e-12
-1.21619e-12
-1.21727e-12
-1.21834e-12
-1.21942e-12
-1.22051e-12
-1.22159e-12
-1.22269e-12
-1.22378e-12
-1.22489e-12
-1.22599e-12
-1.22711e-12
-1.22823e-12
-1.22935e-12
-1.23048e-12
-1.23163e-12
-1.23277e-12
-1.23393e-12
-1.2351e-12
-1.23628e-12
-1.23746e-12
-1.23866e-12
)
;
    }
    inandouthalf21
    {
        type            cyclic;
        value           nonuniform List<scalar> 
100
(
1.23987e-12
1.24109e-12
1.24233e-12
1.24358e-12
1.24484e-12
1.24612e-12
1.24742e-12
1.24873e-12
1.25007e-12
1.25142e-12
1.25279e-12
1.25419e-12
1.25561e-12
1.25706e-12
1.25853e-12
1.26004e-12
1.26157e-12
1.26314e-12
1.26474e-12
1.26637e-12
1.26805e-12
1.26976e-12
1.27151e-12
1.27331e-12
1.27516e-12
1.27706e-12
1.27901e-12
1.28102e-12
1.2831e-12
1.28526e-12
1.28751e-12
1.28985e-12
1.29231e-12
1.29491e-12
1.29766e-12
1.30054e-12
1.30351e-12
1.30654e-12
1.30972e-12
1.31319e-12
1.31687e-12
1.3212e-12
1.3509e-12
1.34658e-12
1.35212e-12
1.40641e-12
4.65985e-11
1.96058e-08
1.22915e-07
2.16871e-07
2.91475e-07
3.53008e-07
4.04962e-07
4.49528e-07
4.88249e-07
5.22275e-07
5.52481e-07
5.79549e-07
6.04015e-07
6.26301e-07
6.46746e-07
6.65618e-07
6.83138e-07
6.99482e-07
7.14797e-07
7.29202e-07
7.42796e-07
7.55664e-07
7.67873e-07
7.79483e-07
7.90543e-07
8.01094e-07
8.11172e-07
8.20807e-07
8.30022e-07
8.3884e-07
8.47277e-07
8.55347e-07
8.63063e-07
8.70432e-07
8.77462e-07
8.84157e-07
8.90523e-07
8.9656e-07
9.0227e-07
9.07656e-07
9.12719e-07
9.1746e-07
9.21882e-07
9.25987e-07
9.29782e-07
9.33271e-07
9.36463e-07
9.39368e-07
9.41995e-07
9.4436e-07
9.46475e-07
9.48356e-07
9.50018e-07
9.51479e-07
)
;
    }
    inandouthalf22
    {
        type            cyclic;
        value           nonuniform List<scalar> 
100
(
-1.23987e-12
-1.24109e-12
-1.24233e-12
-1.24358e-12
-1.24484e-12
-1.24612e-12
-1.24742e-12
-1.24873e-12
-1.25007e-12
-1.25142e-12
-1.25279e-12
-1.25419e-12
-1.25561e-12
-1.25706e-12
-1.25853e-12
-1.26004e-12
-1.26157e-12
-1.26314e-12
-1.26474e-12
-1.26637e-12
-1.26805e-12
-1.26976e-12
-1.27151e-12
-1.27331e-12
-1.27516e-12
-1.27706e-12
-1.27901e-12
-1.28102e-12
-1.2831e-12
-1.28526e-12
-1.28751e-12
-1.28985e-12
-1.29231e-12
-1.29491e-12
-1.29766e-12
-1.30054e-12
-1.30351e-12
-1.30654e-12
-1.30972e-12
-1.31319e-12
-1.31687e-12
-1.3212e-12
-1.3509e-12
-1.34658e-12
-1.35212e-12
-1.40641e-12
-4.65985e-11
-1.96058e-08
-1.22915e-07
-2.16871e-07
-2.91475e-07
-3.53008e-07
-4.04962e-07
-4.49528e-07
-4.88249e-07
-5.22275e-07
-5.52481e-07
-5.79549e-07
-6.04015e-07
-6.26301e-07
-6.46746e-07
-6.65618e-07
-6.83138e-07
-6.99482e-07
-7.14797e-07
-7.29202e-07
-7.42796e-07
-7.55664e-07
-7.67873e-07
-7.79483e-07
-7.90543e-07
-8.01094e-07
-8.11172e-07
-8.20807e-07
-8.30022e-07
-8.3884e-07
-8.47277e-07
-8.55347e-07
-8.63063e-07
-8.70432e-07
-8.77462e-07
-8.84157e-07
-8.90523e-07
-8.9656e-07
-9.0227e-07
-9.07656e-07
-9.12719e-07
-9.1746e-07
-9.21882e-07
-9.25987e-07
-9.29782e-07
-9.33271e-07
-9.36463e-07
-9.39368e-07
-9.41995e-07
-9.4436e-07
-9.46475e-07
-9.48356e-07
-9.50018e-07
-9.51479e-07
)
;
    }
    inandouthalf31
    {
        type            cyclic;
        value           nonuniform List<scalar> 
110
(
9.52756e-07
9.73231e-07
9.93998e-07
1.01506e-06
1.03644e-06
1.05812e-06
1.08013e-06
1.10247e-06
1.12515e-06
1.14817e-06
1.17155e-06
1.1953e-06
1.21942e-06
1.24392e-06
1.2688e-06
1.29408e-06
1.31975e-06
1.34584e-06
1.37233e-06
1.39925e-06
1.42659e-06
1.45436e-06
1.48257e-06
1.51122e-06
1.54032e-06
1.56987e-06
1.59988e-06
1.63034e-06
1.66128e-06
1.6927e-06
1.72459e-06
1.75696e-06
1.78983e-06
1.82319e-06
1.85706e-06
1.89144e-06
1.92634e-06
1.96176e-06
1.99771e-06
2.03421e-06
2.07125e-06
2.10886e-06
2.14705e-06
2.18582e-06
2.22519e-06
2.26517e-06
2.30579e-06
2.34706e-06
2.389e-06
2.43164e-06
2.47501e-06
2.51913e-06
2.56404e-06
2.60979e-06
2.6564e-06
2.70394e-06
2.75246e-06
2.80202e-06
2.85269e-06
2.90456e-06
2.9577e-06
3.01221e-06
3.0682e-06
3.12577e-06
3.18503e-06
3.24609e-06
3.30906e-06
3.37403e-06
3.44109e-06
3.51028e-06
3.58166e-06
3.65522e-06
3.73095e-06
3.80883e-06
3.88879e-06
3.97074e-06
4.05457e-06
4.14013e-06
4.22719e-06
4.3152e-06
4.40335e-06
4.49275e-06
4.58394e-06
4.67698e-06
4.77191e-06
4.86877e-06
4.96759e-06
5.06842e-06
5.17129e-06
5.27626e-06
5.38335e-06
5.49262e-06
5.60411e-06
5.71785e-06
5.83391e-06
5.95232e-06
6.07314e-06
6.19641e-06
6.32218e-06
6.4505e-06
6.58143e-06
6.71502e-06
6.85131e-06
6.99038e-06
7.13226e-06
7.27703e-06
7.42473e-06
7.57544e-06
7.7292e-06
7.88608e-06
)
;
    }
    inandouthalf32
    {
        type            cyclic;
        value           nonuniform List<scalar> 
110
(
-9.52756e-07
-9.73231e-07
-9.93998e-07
-1.01506e-06
-1.03644e-06
-1.05812e-06
-1.08013e-06
-1.10247e-06
-1.12515e-06
-1.14817e-06
-1.17155e-06
-1.1953e-06
-1.21942e-06
-1.24392e-06
-1.2688e-06
-1.29408e-06
-1.31975e-06
-1.34584e-06
-1.37233e-06
-1.39925e-06
-1.42659e-06
-1.45436e-06
-1.48257e-06
-1.51122e-06
-1.54032e-06
-1.56987e-06
-1.59988e-06
-1.63034e-06
-1.66128e-06
-1.6927e-06
-1.72459e-06
-1.75696e-06
-1.78983e-06
-1.82319e-06
-1.85706e-06
-1.89144e-06
-1.92634e-06
-1.96176e-06
-1.99771e-06
-2.03421e-06
-2.07125e-06
-2.10886e-06
-2.14705e-06
-2.18582e-06
-2.22519e-06
-2.26517e-06
-2.30579e-06
-2.34706e-06
-2.389e-06
-2.43164e-06
-2.47501e-06
-2.51913e-06
-2.56404e-06
-2.60979e-06
-2.6564e-06
-2.70394e-06
-2.75246e-06
-2.80202e-06
-2.85269e-06
-2.90456e-06
-2.9577e-06
-3.01221e-06
-3.0682e-06
-3.12577e-06
-3.18503e-06
-3.24609e-06
-3.30906e-06
-3.37403e-06
-3.44109e-06
-3.51028e-06
-3.58166e-06
-3.65522e-06
-3.73095e-06
-3.80883e-06
-3.88879e-06
-3.97074e-06
-4.05457e-06
-4.14013e-06
-4.22719e-06
-4.3152e-06
-4.40335e-06
-4.49275e-06
-4.58394e-06
-4.67698e-06
-4.77191e-06
-4.86877e-06
-4.96759e-06
-5.06842e-06
-5.17129e-06
-5.27626e-06
-5.38335e-06
-5.49262e-06
-5.60411e-06
-5.71785e-06
-5.83391e-06
-5.95232e-06
-6.07314e-06
-6.19641e-06
-6.32218e-06
-6.4505e-06
-6.58143e-06
-6.71502e-06
-6.85131e-06
-6.99038e-06
-7.13226e-06
-7.27703e-06
-7.42473e-06
-7.57544e-06
-7.7292e-06
-7.88608e-06
)
;
    }
    inandouthalf41
    {
        type            cyclic;
        value           nonuniform List<scalar> 
50
(
7.05884e-06
7.05884e-06
7.05884e-06
7.05884e-06
7.05884e-06
7.05884e-06
7.05884e-06
7.05884e-06
7.05884e-06
7.05884e-06
7.05884e-06
7.05884e-06
7.05884e-06
7.05884e-06
7.05884e-06
7.05884e-06
7.05884e-06
7.05884e-06
7.05884e-06
7.05884e-06
7.05884e-06
7.05884e-06
7.05884e-06
7.05884e-06
7.05884e-06
7.05884e-06
7.05884e-06
7.05884e-06
7.05884e-06
7.05884e-06
7.05884e-06
7.05884e-06
7.05884e-06
7.05884e-06
7.05884e-06
7.05884e-06
7.05884e-06
7.05884e-06
7.05884e-06
7.05884e-06
7.05884e-06
7.05884e-06
7.05884e-06
7.05884e-06
7.05884e-06
7.05884e-06
7.05884e-06
7.05884e-06
7.05884e-06
7.05884e-06
)
;
    }
    inandouthalf42
    {
        type            cyclic;
        value           nonuniform List<scalar> 
50
(
-7.05884e-06
-7.05884e-06
-7.05884e-06
-7.05884e-06
-7.05884e-06
-7.05884e-06
-7.05884e-06
-7.05884e-06
-7.05884e-06
-7.05884e-06
-7.05884e-06
-7.05884e-06
-7.05884e-06
-7.05884e-06
-7.05884e-06
-7.05884e-06
-7.05884e-06
-7.05884e-06
-7.05884e-06
-7.05884e-06
-7.05884e-06
-7.05884e-06
-7.05884e-06
-7.05884e-06
-7.05884e-06
-7.05884e-06
-7.05884e-06
-7.05884e-06
-7.05884e-06
-7.05884e-06
-7.05884e-06
-7.05884e-06
-7.05884e-06
-7.05884e-06
-7.05884e-06
-7.05884e-06
-7.05884e-06
-7.05884e-06
-7.05884e-06
-7.05884e-06
-7.05884e-06
-7.05884e-06
-7.05884e-06
-7.05884e-06
-7.05884e-06
-7.05884e-06
-7.05884e-06
-7.05884e-06
-7.05884e-06
-7.05884e-06
)
;
    }
    top
    {
        type            symmetryPlane;
        value           uniform 0;
    }
    walls
    {
        type            fixedValue;
        value           uniform 0;
    }
    frontAndBackPlanes
    {
        type            empty;
        value           nonuniform 0();
    }
}


// ************************************************************************* //
