/*--------------------------------*- C++ -*----------------------------------*\
| =========                 |                                                 |
| \\      /  F ield         | OpenFOAM: The Open Source CFD Toolbox           |
|  \\    /   O peration     | Version:  2.4.x                                 |
|   \\  /    A nd           | Web:      www.OpenFOAM.org                      |
|    \\/     M anipulation  |                                                 |
\*---------------------------------------------------------------------------*/
FoamFile
{
    version     2.0;
    format      ascii;
    class       surfaceScalarField;
    location    "12.45";
    object      phib;
}
// * * * * * * * * * * * * * * * * * * * * * * * * * * * * * * * * * * * * * //

dimensions      [0 3 -1 0 0 0 0];

internalField   nonuniform List<scalar> 
359
(
6.25611e-15
1.56435e-14
2.43387e-14
3.27618e-14
4.15417e-14
5.06671e-14
6.0034e-14
6.96405e-14
7.95247e-14
8.97254e-14
1.00265e-13
1.11153e-13
1.22392e-13
1.33981e-13
1.45919e-13
1.58201e-13
1.70819e-13
1.83764e-13
1.97019e-13
2.10573e-13
2.24403e-13
2.38493e-13
2.52824e-13
2.67372e-13
2.82118e-13
2.97036e-13
3.12103e-13
3.27297e-13
3.42595e-13
3.57972e-13
3.73403e-13
3.88871e-13
4.04347e-13
4.19817e-13
4.35256e-13
4.50647e-13
4.65969e-13
4.81207e-13
4.9635e-13
5.11373e-13
5.26273e-13
5.41034e-13
5.5564e-13
5.7009e-13
5.84371e-13
5.98478e-13
6.12405e-13
6.2614e-13
6.39684e-13
6.53039e-13
6.66193e-13
6.79151e-13
6.91908e-13
7.04469e-13
7.16826e-13
7.2899e-13
7.40953e-13
7.52723e-13
7.64299e-13
7.75679e-13
7.86875e-13
7.97883e-13
8.08711e-13
8.1936e-13
8.29834e-13
8.40135e-13
8.50266e-13
8.60232e-13
8.70034e-13
8.79673e-13
8.89157e-13
8.98491e-13
9.07673e-13
9.1671e-13
9.25603e-13
9.3436e-13
9.42978e-13
9.51459e-13
9.59806e-13
9.68023e-13
9.76109e-13
9.84068e-13
9.91903e-13
9.99616e-13
1.00721e-12
1.01469e-12
1.02204e-12
1.02929e-12
1.03641e-12
1.04342e-12
1.05032e-12
1.0571e-12
1.06377e-12
1.07033e-12
1.07677e-12
1.08311e-12
1.08934e-12
1.09546e-12
1.10148e-12
1.10739e-12
1.11319e-12
1.11888e-12
1.12447e-12
1.12996e-12
1.13534e-12
1.14062e-12
1.14581e-12
1.15089e-12
1.15589e-12
1.16078e-12
1.16559e-12
1.17031e-12
1.17494e-12
1.17948e-12
1.18393e-12
1.1883e-12
1.19258e-12
1.19677e-12
1.20086e-12
1.20484e-12
1.20872e-12
1.21249e-12
1.21613e-12
1.21964e-12
1.22303e-12
1.22629e-12
1.22943e-12
1.23247e-12
1.23543e-12
1.23834e-12
1.24124e-12
1.24413e-12
1.24699e-12
1.24976e-12
1.25229e-12
1.25436e-12
1.25568e-12
1.25602e-12
1.25539e-12
1.25404e-12
1.25222e-12
1.24377e-12
1.23816e-12
1.23817e-12
1.23478e-12
1.22534e-12
9.00116e-12
3.83656e-10
3.79252e-10
3.49808e-10
3.07822e-10
2.60489e-10
2.12457e-10
1.66869e-10
1.2583e-10
9.0459e-11
6.10477e-11
3.73102e-11
1.86355e-11
4.28431e-12
-6.48625e-12
-1.43531e-11
-1.99035e-11
-2.3629e-11
-2.59326e-11
-2.71395e-11
-2.75102e-11
-2.72514e-11
-2.65267e-11
-2.54646e-11
-2.41656e-11
-2.27079e-11
-2.11519e-11
-1.95436e-11
-1.7917e-11
-1.62942e-11
-1.46855e-11
-1.30903e-11
-1.15045e-11
-9.93322e-12
-8.40155e-12
-6.95427e-12
-5.64101e-12
-4.49801e-12
-3.53853e-12
-2.75493e-12
-2.12682e-12
-1.62914e-12
-1.2374e-12
-9.3012e-13
-6.89526e-13
-5.01384e-13
-3.54472e-13
-2.40011e-13
-1.51144e-13
-8.25094e-14
-2.99012e-14
9.99277e-15
3.97929e-14
6.15818e-14
7.70223e-14
8.76131e-14
9.42139e-14
9.75652e-14
9.83039e-14
9.69767e-14
9.4051e-14
8.99243e-14
8.49321e-14
7.93549e-14
7.34245e-14
6.733e-14
6.12229e-14
5.52227e-14
4.94214e-14
4.38879e-14
3.86716e-14
3.38065e-14
2.93133e-14
2.52019e-14
2.14735e-14
1.81218e-14
1.51342e-14
1.24932e-14
1.01771e-14
8.16163e-15
6.42265e-15
4.94081e-15
3.70772e-15
2.7303e-15
2.02617e-15
1.6023e-15
1.4153e-15
1.34967e-15
1.27985e-15
1.27466e-15
1.76039e-15
2.26112e-15
2.38629e-15
2.28933e-15
2.0675e-15
1.78499e-15
1.48465e-15
1.19368e-15
9.28236e-16
6.97192e-16
5.02972e-16
3.43047e-16
2.23577e-16
1.20026e-16
8.00434e-17
7.36363e-17
1.6984e-18
1.49111e-18
1.38897e-18
1.29193e-18
1.2145e-18
1.14194e-18
1.08946e-18
1.04338e-18
1.01422e-18
9.9336e-19
9.89466e-19
9.95231e-19
1.01445e-18
1.04266e-18
1.085e-18
1.12842e-18
1.17704e-18
1.22782e-18
1.27983e-18
1.33333e-18
1.39112e-18
1.44431e-18
1.49104e-18
1.52638e-18
1.56288e-18
1.58293e-18
1.59893e-18
1.6079e-18
1.64394e-18
1.66618e-18
1.68341e-18
1.66509e-18
1.6613e-18
1.61152e-18
1.61917e-18
1.52258e-18
1.47304e-18
1.38398e-18
1.29045e-18
1.14402e-18
1.02778e-18
8.71284e-19
7.27107e-19
6.06107e-19
6.34642e-19
6.48666e-19
6.84694e-19
8.12286e-19
8.59084e-19
8.71611e-19
8.8805e-19
8.71624e-19
9.15482e-19
9.25632e-19
9.40059e-19
9.06697e-19
9.1006e-19
8.67317e-19
8.31981e-19
7.76637e-19
7.69022e-19
7.46866e-19
7.28624e-19
6.89391e-19
6.65227e-19
6.24358e-19
5.83383e-19
5.31624e-19
4.93407e-19
4.47078e-19
4.00671e-19
3.47358e-19
2.95463e-19
2.38622e-19
1.76103e-19
1.03088e-19
-9.56386e-21
-1.30728e-19
-2.56223e-19
-3.78233e-19
-5.08987e-19
-6.30993e-19
-7.54124e-19
-8.65774e-19
-1.00721e-18
-1.12959e-18
-1.25263e-18
-1.34572e-18
-1.47218e-18
-1.5531e-18
-1.64434e-18
-1.70179e-18
-1.90557e-18
-2.04902e-18
-2.2013e-18
-2.24443e-18
-2.39074e-18
-2.38246e-18
-2.39283e-18
-2.33809e-18
-2.44099e-18
-2.36346e-18
-2.29606e-18
-2.01413e-18
-1.60282e-18
-1.15226e-18
-1.34204e-18
)
;

boundaryField
{
    inandouthalf11
    {
        type            cyclic;
        value           nonuniform List<scalar> 
100
(
1.13941e-12
1.1334e-12
1.13297e-12
1.13422e-12
1.13502e-12
1.13557e-12
1.13617e-12
1.13683e-12
1.13751e-12
1.13822e-12
1.13894e-12
1.13968e-12
1.14045e-12
1.14123e-12
1.14204e-12
1.14288e-12
1.14373e-12
1.14461e-12
1.14551e-12
1.14643e-12
1.14737e-12
1.14833e-12
1.14931e-12
1.15031e-12
1.15133e-12
1.15236e-12
1.15341e-12
1.15447e-12
1.15554e-12
1.15663e-12
1.15773e-12
1.15884e-12
1.15995e-12
1.16107e-12
1.1622e-12
1.16333e-12
1.16447e-12
1.16561e-12
1.16675e-12
1.1679e-12
1.16904e-12
1.17019e-12
1.17133e-12
1.17247e-12
1.17361e-12
1.17475e-12
1.17589e-12
1.17702e-12
1.17815e-12
1.17928e-12
1.1804e-12
1.18152e-12
1.18263e-12
1.18374e-12
1.18485e-12
1.18595e-12
1.18705e-12
1.18814e-12
1.18923e-12
1.19032e-12
1.1914e-12
1.19248e-12
1.19356e-12
1.19464e-12
1.19571e-12
1.19678e-12
1.19785e-12
1.19891e-12
1.19998e-12
1.20104e-12
1.2021e-12
1.20317e-12
1.20423e-12
1.20529e-12
1.20635e-12
1.20742e-12
1.20848e-12
1.20954e-12
1.21061e-12
1.21168e-12
1.21275e-12
1.21383e-12
1.21491e-12
1.21599e-12
1.21707e-12
1.21816e-12
1.21926e-12
1.22036e-12
1.22146e-12
1.22257e-12
1.22369e-12
1.22481e-12
1.22595e-12
1.22708e-12
1.22823e-12
1.22939e-12
1.23055e-12
1.23172e-12
1.23291e-12
1.2341e-12
)
;
    }
    inandouthalf12
    {
        type            cyclic;
        value           nonuniform List<scalar> 
100
(
-1.13941e-12
-1.1334e-12
-1.13297e-12
-1.13422e-12
-1.13502e-12
-1.13557e-12
-1.13617e-12
-1.13683e-12
-1.13751e-12
-1.13822e-12
-1.13894e-12
-1.13968e-12
-1.14045e-12
-1.14123e-12
-1.14204e-12
-1.14288e-12
-1.14373e-12
-1.14461e-12
-1.14551e-12
-1.14643e-12
-1.14737e-12
-1.14833e-12
-1.14931e-12
-1.15031e-12
-1.15133e-12
-1.15236e-12
-1.15341e-12
-1.15447e-12
-1.15554e-12
-1.15663e-12
-1.15773e-12
-1.15884e-12
-1.15995e-12
-1.16107e-12
-1.1622e-12
-1.16333e-12
-1.16447e-12
-1.16561e-12
-1.16675e-12
-1.1679e-12
-1.16904e-12
-1.17019e-12
-1.17133e-12
-1.17247e-12
-1.17361e-12
-1.17475e-12
-1.17589e-12
-1.17702e-12
-1.17815e-12
-1.17928e-12
-1.1804e-12
-1.18152e-12
-1.18263e-12
-1.18374e-12
-1.18485e-12
-1.18595e-12
-1.18705e-12
-1.18814e-12
-1.18923e-12
-1.19032e-12
-1.1914e-12
-1.19248e-12
-1.19356e-12
-1.19464e-12
-1.19571e-12
-1.19678e-12
-1.19785e-12
-1.19891e-12
-1.19998e-12
-1.20104e-12
-1.2021e-12
-1.20317e-12
-1.20423e-12
-1.20529e-12
-1.20635e-12
-1.20742e-12
-1.20848e-12
-1.20954e-12
-1.21061e-12
-1.21168e-12
-1.21275e-12
-1.21383e-12
-1.21491e-12
-1.21599e-12
-1.21707e-12
-1.21816e-12
-1.21926e-12
-1.22036e-12
-1.22146e-12
-1.22257e-12
-1.22369e-12
-1.22481e-12
-1.22595e-12
-1.22708e-12
-1.22823e-12
-1.22939e-12
-1.23055e-12
-1.23172e-12
-1.23291e-12
-1.2341e-12
)
;
    }
    inandouthalf21
    {
        type            cyclic;
        value           nonuniform List<scalar> 
100
(
1.23531e-12
1.23653e-12
1.23776e-12
1.23901e-12
1.24027e-12
1.24155e-12
1.24284e-12
1.24415e-12
1.24548e-12
1.24683e-12
1.2482e-12
1.24959e-12
1.25101e-12
1.25245e-12
1.25392e-12
1.25542e-12
1.25695e-12
1.25851e-12
1.26011e-12
1.26174e-12
1.26341e-12
1.26512e-12
1.26687e-12
1.26866e-12
1.2705e-12
1.27239e-12
1.27434e-12
1.27634e-12
1.27842e-12
1.28057e-12
1.28281e-12
1.28515e-12
1.2876e-12
1.29019e-12
1.29293e-12
1.29581e-12
1.29876e-12
1.30178e-12
1.30495e-12
1.30841e-12
1.31207e-12
1.31639e-12
1.34598e-12
1.34167e-12
1.34719e-12
1.40142e-12
4.65659e-11
1.95968e-08
1.22901e-07
2.16857e-07
2.9146e-07
3.52992e-07
4.04945e-07
4.49509e-07
4.8823e-07
5.22254e-07
5.52459e-07
5.79526e-07
6.03991e-07
6.26276e-07
6.4672e-07
6.65592e-07
6.83111e-07
6.99455e-07
7.14769e-07
7.29173e-07
7.42767e-07
7.55633e-07
7.67842e-07
7.79452e-07
7.90512e-07
8.01063e-07
8.11141e-07
8.20775e-07
8.2999e-07
8.38808e-07
8.47244e-07
8.55315e-07
8.6303e-07
8.70399e-07
8.7743e-07
8.84126e-07
8.90491e-07
8.96529e-07
9.0224e-07
9.07627e-07
9.1269e-07
9.17432e-07
9.21854e-07
9.25961e-07
9.29756e-07
9.33247e-07
9.3644e-07
9.39345e-07
9.41974e-07
9.4434e-07
9.46456e-07
9.48338e-07
9.50001e-07
9.51463e-07
)
;
    }
    inandouthalf22
    {
        type            cyclic;
        value           nonuniform List<scalar> 
100
(
-1.23531e-12
-1.23653e-12
-1.23776e-12
-1.23901e-12
-1.24027e-12
-1.24155e-12
-1.24284e-12
-1.24415e-12
-1.24548e-12
-1.24683e-12
-1.2482e-12
-1.24959e-12
-1.25101e-12
-1.25245e-12
-1.25392e-12
-1.25542e-12
-1.25695e-12
-1.25851e-12
-1.26011e-12
-1.26174e-12
-1.26341e-12
-1.26512e-12
-1.26687e-12
-1.26866e-12
-1.2705e-12
-1.27239e-12
-1.27434e-12
-1.27634e-12
-1.27842e-12
-1.28057e-12
-1.28281e-12
-1.28515e-12
-1.2876e-12
-1.29019e-12
-1.29293e-12
-1.29581e-12
-1.29876e-12
-1.30178e-12
-1.30495e-12
-1.30841e-12
-1.31207e-12
-1.31639e-12
-1.34598e-12
-1.34167e-12
-1.34719e-12
-1.40142e-12
-4.65659e-11
-1.95968e-08
-1.22901e-07
-2.16857e-07
-2.9146e-07
-3.52992e-07
-4.04945e-07
-4.49509e-07
-4.8823e-07
-5.22254e-07
-5.52459e-07
-5.79526e-07
-6.03991e-07
-6.26276e-07
-6.4672e-07
-6.65592e-07
-6.83111e-07
-6.99455e-07
-7.14769e-07
-7.29173e-07
-7.42767e-07
-7.55633e-07
-7.67842e-07
-7.79452e-07
-7.90512e-07
-8.01063e-07
-8.11141e-07
-8.20775e-07
-8.2999e-07
-8.38808e-07
-8.47244e-07
-8.55315e-07
-8.6303e-07
-8.70399e-07
-8.7743e-07
-8.84126e-07
-8.90491e-07
-8.96529e-07
-9.0224e-07
-9.07627e-07
-9.1269e-07
-9.17432e-07
-9.21854e-07
-9.25961e-07
-9.29756e-07
-9.33247e-07
-9.3644e-07
-9.39345e-07
-9.41974e-07
-9.4434e-07
-9.46456e-07
-9.48338e-07
-9.50001e-07
-9.51463e-07
)
;
    }
    inandouthalf31
    {
        type            cyclic;
        value           nonuniform List<scalar> 
110
(
9.52741e-07
9.73216e-07
9.93984e-07
1.01505e-06
1.03642e-06
1.05811e-06
1.08012e-06
1.10246e-06
1.12514e-06
1.14816e-06
1.17154e-06
1.19529e-06
1.21941e-06
1.24391e-06
1.26879e-06
1.29407e-06
1.31975e-06
1.34583e-06
1.37233e-06
1.39924e-06
1.42659e-06
1.45436e-06
1.48257e-06
1.51122e-06
1.54031e-06
1.56986e-06
1.59987e-06
1.63034e-06
1.66128e-06
1.69269e-06
1.72458e-06
1.75696e-06
1.78983e-06
1.82319e-06
1.85706e-06
1.89144e-06
1.92634e-06
1.96176e-06
1.99771e-06
2.03421e-06
2.07126e-06
2.10887e-06
2.14705e-06
2.18582e-06
2.22519e-06
2.26518e-06
2.3058e-06
2.34707e-06
2.38901e-06
2.43165e-06
2.47502e-06
2.51914e-06
2.56406e-06
2.6098e-06
2.65641e-06
2.70395e-06
2.75247e-06
2.80203e-06
2.85271e-06
2.90457e-06
2.95771e-06
3.01223e-06
3.06821e-06
3.12578e-06
3.18504e-06
3.2461e-06
3.30907e-06
3.37404e-06
3.4411e-06
3.51029e-06
3.58166e-06
3.65522e-06
3.73096e-06
3.80883e-06
3.88879e-06
3.97074e-06
4.05458e-06
4.14013e-06
4.2272e-06
4.3152e-06
4.40335e-06
4.49275e-06
4.58394e-06
4.67699e-06
4.77192e-06
4.86877e-06
4.9676e-06
5.06843e-06
5.1713e-06
5.27626e-06
5.38336e-06
5.49263e-06
5.60411e-06
5.71786e-06
5.83392e-06
5.95233e-06
6.07315e-06
6.19642e-06
6.32219e-06
6.45051e-06
6.58144e-06
6.71502e-06
6.85132e-06
6.99039e-06
7.13227e-06
7.27704e-06
7.42474e-06
7.57544e-06
7.72921e-06
7.88609e-06
)
;
    }
    inandouthalf32
    {
        type            cyclic;
        value           nonuniform List<scalar> 
110
(
-9.52741e-07
-9.73216e-07
-9.93984e-07
-1.01505e-06
-1.03642e-06
-1.05811e-06
-1.08012e-06
-1.10246e-06
-1.12514e-06
-1.14816e-06
-1.17154e-06
-1.19529e-06
-1.21941e-06
-1.24391e-06
-1.26879e-06
-1.29407e-06
-1.31975e-06
-1.34583e-06
-1.37233e-06
-1.39924e-06
-1.42659e-06
-1.45436e-06
-1.48257e-06
-1.51122e-06
-1.54031e-06
-1.56986e-06
-1.59987e-06
-1.63034e-06
-1.66128e-06
-1.69269e-06
-1.72458e-06
-1.75696e-06
-1.78983e-06
-1.82319e-06
-1.85706e-06
-1.89144e-06
-1.92634e-06
-1.96176e-06
-1.99771e-06
-2.03421e-06
-2.07126e-06
-2.10887e-06
-2.14705e-06
-2.18582e-06
-2.22519e-06
-2.26518e-06
-2.3058e-06
-2.34707e-06
-2.38901e-06
-2.43165e-06
-2.47502e-06
-2.51914e-06
-2.56406e-06
-2.6098e-06
-2.65641e-06
-2.70395e-06
-2.75247e-06
-2.80203e-06
-2.85271e-06
-2.90457e-06
-2.95771e-06
-3.01223e-06
-3.06821e-06
-3.12578e-06
-3.18504e-06
-3.2461e-06
-3.30907e-06
-3.37404e-06
-3.4411e-06
-3.51029e-06
-3.58166e-06
-3.65522e-06
-3.73096e-06
-3.80883e-06
-3.88879e-06
-3.97074e-06
-4.05458e-06
-4.14013e-06
-4.2272e-06
-4.3152e-06
-4.40335e-06
-4.49275e-06
-4.58394e-06
-4.67699e-06
-4.77192e-06
-4.86877e-06
-4.9676e-06
-5.06843e-06
-5.1713e-06
-5.27626e-06
-5.38336e-06
-5.49263e-06
-5.60411e-06
-5.71786e-06
-5.83392e-06
-5.95233e-06
-6.07315e-06
-6.19642e-06
-6.32219e-06
-6.45051e-06
-6.58144e-06
-6.71502e-06
-6.85132e-06
-6.99039e-06
-7.13227e-06
-7.27704e-06
-7.42474e-06
-7.57544e-06
-7.72921e-06
-7.88609e-06
)
;
    }
    inandouthalf41
    {
        type            cyclic;
        value           nonuniform List<scalar> 
50
(
7.05885e-06
7.05885e-06
7.05885e-06
7.05885e-06
7.05885e-06
7.05885e-06
7.05885e-06
7.05885e-06
7.05885e-06
7.05885e-06
7.05885e-06
7.05885e-06
7.05885e-06
7.05885e-06
7.05885e-06
7.05885e-06
7.05885e-06
7.05885e-06
7.05885e-06
7.05885e-06
7.05885e-06
7.05885e-06
7.05885e-06
7.05885e-06
7.05885e-06
7.05885e-06
7.05885e-06
7.05885e-06
7.05885e-06
7.05885e-06
7.05885e-06
7.05885e-06
7.05885e-06
7.05885e-06
7.05885e-06
7.05885e-06
7.05885e-06
7.05885e-06
7.05885e-06
7.05885e-06
7.05885e-06
7.05885e-06
7.05885e-06
7.05885e-06
7.05885e-06
7.05885e-06
7.05885e-06
7.05885e-06
7.05885e-06
7.05885e-06
)
;
    }
    inandouthalf42
    {
        type            cyclic;
        value           nonuniform List<scalar> 
50
(
-7.05885e-06
-7.05885e-06
-7.05885e-06
-7.05885e-06
-7.05885e-06
-7.05885e-06
-7.05885e-06
-7.05885e-06
-7.05885e-06
-7.05885e-06
-7.05885e-06
-7.05885e-06
-7.05885e-06
-7.05885e-06
-7.05885e-06
-7.05885e-06
-7.05885e-06
-7.05885e-06
-7.05885e-06
-7.05885e-06
-7.05885e-06
-7.05885e-06
-7.05885e-06
-7.05885e-06
-7.05885e-06
-7.05885e-06
-7.05885e-06
-7.05885e-06
-7.05885e-06
-7.05885e-06
-7.05885e-06
-7.05885e-06
-7.05885e-06
-7.05885e-06
-7.05885e-06
-7.05885e-06
-7.05885e-06
-7.05885e-06
-7.05885e-06
-7.05885e-06
-7.05885e-06
-7.05885e-06
-7.05885e-06
-7.05885e-06
-7.05885e-06
-7.05885e-06
-7.05885e-06
-7.05885e-06
-7.05885e-06
-7.05885e-06
)
;
    }
    top
    {
        type            symmetryPlane;
        value           uniform 0;
    }
    walls
    {
        type            fixedValue;
        value           uniform 0;
    }
    frontAndBackPlanes
    {
        type            empty;
        value           nonuniform 0();
    }
}


// ************************************************************************* //
