/*--------------------------------*- C++ -*----------------------------------*\
| =========                 |                                                 |
| \\      /  F ield         | OpenFOAM: The Open Source CFD Toolbox           |
|  \\    /   O peration     | Version:  2.4.x                                 |
|   \\  /    A nd           | Web:      www.OpenFOAM.org                      |
|    \\/     M anipulation  |                                                 |
\*---------------------------------------------------------------------------*/
FoamFile
{
    version     2.0;
    format      ascii;
    class       volVectorField;
    location    "12.45";
    object      susb;
}
// * * * * * * * * * * * * * * * * * * * * * * * * * * * * * * * * * * * * * //

dimensions      [0 1 -2 0 0 0 0];

internalField   nonuniform List<vector> 
360
(
(0 6.03766e-18 0)
(0 6.69655e-18 0)
(0 -7.20981e-21 0)
(0 -9.23726e-19 0)
(-3.69885e-31 -3.85042e-19 0)
(-7.39704e-31 -2.10159e-19 0)
(-3.69809e-31 -2.7184e-19 0)
(0 -3.10975e-19 0)
(-3.69698e-31 -3.16184e-19 0)
(0 -3.18841e-19 0)
(-7.39166e-31 -3.20016e-19 0)
(0 -3.21364e-19 0)
(-3.69468e-31 -3.24174e-19 0)
(0 -3.27078e-19 0)
(0 -3.3086e-19 0)
(0 -3.34698e-19 0)
(0 -3.37767e-19 0)
(-3.69169e-31 -3.4056e-19 0)
(0 -3.44752e-19 0)
(0 -3.47724e-19 0)
(0 -3.50818e-19 0)
(-7.37839e-31 -3.55213e-19 0)
(0 -3.58428e-19 0)
(0 -3.62159e-19 0)
(0 -3.65987e-19 0)
(-3.6866e-31 -3.69094e-19 0)
(0 -3.73325e-19 0)
(0 -3.7772e-19 0)
(0 -3.80888e-19 0)
(0 -3.84589e-19 0)
(0 -3.89737e-19 0)
(0 -3.92461e-19 0)
(0 -3.97248e-19 0)
(0 -4.02144e-19 0)
(0 -4.0528e-19 0)
(3.67961e-31 -4.09727e-19 0)
(0 -4.13981e-19 0)
(0 -4.20258e-19 0)
(0 -4.22358e-19 0)
(0 -4.27486e-19 0)
(0 -4.34402e-19 0)
(0 -4.35908e-19 0)
(3.67427e-31 -4.42196e-19 0)
(0 -4.47959e-19 0)
(0 -4.51673e-19 0)
(0 -4.58582e-19 0)
(0 -4.61556e-19 0)
(0 -4.66083e-19 0)
(0 -4.7538e-19 0)
(0 -4.7873e-19 0)
(3.66763e-31 -4.83068e-19 0)
(0 -4.90305e-19 0)
(0 -4.96172e-19 0)
(0 -5.00912e-19 0)
(0 -5.08101e-19 0)
(0 -5.14046e-19 0)
(0 -5.1973e-19 0)
(0 -5.27741e-19 0)
(0 -5.31148e-19 0)
(0 -5.40067e-19 0)
(0 -5.47126e-19 0)
(0 -5.53101e-19 0)
(0 -5.61405e-19 0)
(0 -5.67716e-19 0)
(0 -5.74917e-19 0)
(0 -5.82718e-19 0)
(0 -5.9164e-19 0)
(0 -5.99043e-19 0)
(0 -6.04988e-19 0)
(0 -6.14707e-19 0)
(0 -6.26223e-19 0)
(0 -6.31447e-19 0)
(0 -6.40169e-19 0)
(0 -6.51283e-19 0)
(0 -6.60921e-19 0)
(0 -6.70109e-19 0)
(0 -6.78483e-19 0)
(0 -6.89716e-19 0)
(0 -7.00764e-19 0)
(0 -7.10666e-19 0)
(0 -7.21456e-19 0)
(0 -7.33643e-19 0)
(0 -7.45234e-19 0)
(0 -7.57213e-19 0)
(0 -7.69604e-19 0)
(0 -7.82476e-19 0)
(0 -7.95536e-19 0)
(0 -8.08606e-19 0)
(0 -8.22626e-19 0)
(0 -8.37114e-19 0)
(0 -8.5181e-19 0)
(0 -8.67269e-19 0)
(0 -8.83384e-19 0)
(0 -8.99826e-19 0)
(0 -9.16806e-19 0)
(0 -9.34356e-19 0)
(0 -9.5244e-19 0)
(0 -9.71126e-19 0)
(0 -9.90534e-19 0)
(0 -1.01068e-18 0)
(0 -1.03157e-18 0)
(0 -1.0533e-18 0)
(0 -1.07586e-18 0)
(0 -1.09925e-18 0)
(0 -1.12353e-18 0)
(0 -1.14873e-18 0)
(0 -1.1749e-18 0)
(0 -1.20211e-18 0)
(0 -1.23042e-18 0)
(0 -1.25989e-18 0)
(0 -1.29059e-18 0)
(0 -1.32258e-18 0)
(0 -1.35596e-18 0)
(0 -1.39083e-18 0)
(0 -1.42728e-18 0)
(0 -1.46546e-18 0)
(0 -1.5055e-18 0)
(0 -1.54757e-18 0)
(0 -1.59184e-18 0)
(0 -1.63851e-18 0)
(0 -1.68775e-18 0)
(0 -1.7397e-18 0)
(0 -1.79446e-18 0)
(0 -1.85214e-18 0)
(0 -1.91298e-18 0)
(0 -1.97751e-18 0)
(0 -2.04662e-18 0)
(0 -2.12123e-18 0)
(0 -2.20154e-18 0)
(0 -2.28651e-18 0)
(0 -2.37548e-18 0)
(0 -2.1793e-18 0)
(0 -5.35132e-18 0)
(0 -2.61287e-17 0)
(0 -1.37828e-16 0)
(0 -7.61444e-16 0)
(0 -4.52936e-15 0)
(0 -3.0344e-14 0)
(0 -2.36009e-13 0)
(0 -2.06834e-12 0)
(0 -2.15461e-11 0)
(0 -9.9493e-10 0)
(0 -9.8127e-09 0)
(0 -6.04712e-09 0)
(0 -1.6201e-06 0)
(0 -0.000100507 0)
(0 -0.102064 0)
(0 -1.8983 0)
(0 -2.72828 0)
(0 -1.45838 0)
(0 -1.02325 0)
(0 -0.912721 0)
(0 -0.818297 0)
(0 -0.726945 0)
(0 -0.636577 0)
(0 -0.549869 0)
(0 -0.469829 0)
(0 -0.398387 0)
(0 -0.336229 0)
(0 -0.283114 0)
(0 -0.238258 0)
(0 -0.200643 0)
(0 -0.169214 0)
(0 -0.142989 0)
(0 -0.121098 0)
(0 -0.102801 0)
(0 -0.0874753 0)
(0 -0.0746082 0)
(0 -0.0637764 0)
(0 -0.054633 0)
(0 -0.0468937 0)
(0 -0.0403258 0)
(0 -0.0347377 0)
(0 -0.029973 0)
(0 -0.0259051 0)
(0 -0.0224348 0)
(0 -0.0194855 0)
(0 -0.016992 0)
(0 -0.0148821 0)
(0 -0.0130642 0)
(0 -0.0114363 0)
(0 -0.00991716 0)
(0 -0.00847557 0)
(0 -0.00713012 0)
(0 -0.00592113 0)
(0 -0.00487983 0)
(0 -0.00401442 0)
(0 -0.00331294 0)
(0 -0.00275255 0)
(0 -0.0023077 0)
(0 -0.00195474 0)
(0 -0.00167376 0)
(0 -0.00144884 0)
(0 -0.0012675 0)
(0 -0.00112015 0)
(0 -0.000999411 0)
(0 -0.000899589 0)
(0 -0.000816295 0)
(0 -0.000746114 0)
(0 -0.000686375 0)
(0 -0.000634947 0)
(0 -0.00058988 0)
(-4.26347e-19 -0.000549621 0)
(0 -0.000513288 0)
(0 -0.000480168 0)
(2.18784e-19 -0.000449665 0)
(0 -0.000421291 0)
(-2.22002e-19 -0.000394655 0)
(0 -0.000369456 0)
(2.24347e-19 -0.000345472 0)
(0 -0.000322548 0)
(0 -0.000300586 0)
(0 -0.000279527 0)
(1.12679e-19 -0.000259343 0)
(0 -0.000240021 0)
(0 -0.000221554 0)
(0 -0.000203937 0)
(0 -0.000187157 0)
(0 -0.000171199 0)
(-1.08129e-19 -0.000156042 0)
(0 -0.000141667 0)
(-5.26308e-20 -0.000128064 0)
(0 -0.000115234 0)
(-5.09028e-20 -0.000103207 0)
(0 -9.20555e-05 0)
(0 -8.19234e-05 0)
(0 -7.30221e-05 0)
(0 -6.55531e-05 0)
(0 -5.95002e-05 0)
(2.213e-20 -5.42535e-05 0)
(0 -4.82518e-05 0)
(0 -3.95466e-05 0)
(0 -2.82346e-05 0)
(0 -1.82749e-05 0)
(0 -1.32602e-05 0)
(0 -1.04489e-05 0)
(0 -1.0914e-05 0)
(0 -9.41804e-06 0)
(0 -7.93048e-06 0)
(0 -6.1221e-06 0)
(0 -4.7112e-06 0)
(0 -3.61911e-06 0)
(0 -2.77158e-06 0)
(-1.44213e-21 -2.11433e-06 0)
(3.51504e-22 -1.60511e-06 0)
(0 -1.212e-06 0)
(0 -9.06803e-07 0)
(-1.61422e-22 -6.78326e-07 0)
(0 -4.91715e-07 0)
(0 -3.71098e-07 0)
(-3.23632e-23 -2.4069e-07 0)
(0 -1.81672e-07 0)
(0 -5.0619e-08 0)
(0 -3.37451e-11 0)
(0 -2.45989e-22 0)
(0 -1.57184e-33 0)
(0 -9.35278e-45 0)
(0 -4.90533e-56 0)
(0 -2.23712e-67 0)
(0 -1.21237e-75 0)
(0 -5.95764e-76 0)
(0 -2.74057e-76 0)
(0 -1.29231e-76 0)
(0 -5.98064e-77 0)
(0 -2.71463e-77 0)
(0 -1.20778e-77 0)
(7.44284e-94 -5.26354e-78 0)
(0 -2.24481e-78 0)
(0 -9.35714e-79 0)
(0 -3.80552e-79 0)
(0 -1.50647e-79 0)
(0 -5.78671e-80 0)
(0 -2.14806e-80 0)
(0 -7.66382e-81 0)
(0 -2.60816e-81 0)
(0 -8.36877e-82 0)
(0 -2.48104e-82 0)
(0 -6.51423e-83 0)
(0 -1.34569e-83 0)
(0 -1.2686e-84 0)
(0 -2.30178e-86 0)
(0 -1.18114e-88 0)
(0 -4.97443e-91 0)
(0 -1.91581e-93 0)
(0 -6.74748e-96 0)
(0 -2.16528e-98 0)
(7.74413e-117 -5.37946e-101 0)
(0 -4.23457e-104 0)
(0 -7.03827e-105 0)
(0 -1.78835e-105 0)
(0 -4.35422e-106 0)
(0 -1.01338e-106 0)
(0 -2.24834e-107 0)
(0 -4.74092e-108 0)
(0 -9.46896e-109 0)
(0 -1.78451e-109 0)
(0 -3.15952e-110 0)
(0 -5.22928e-111 0)
(0 -8.04387e-112 0)
(-9.9901e-129 -1.1422e-112 0)
(0 -1.48512e-113 0)
(0 -1.75097e-114 0)
(0 -1.84953e-115 0)
(0 -1.72376e-116 0)
(0 -1.38953e-117 0)
(0 -9.42846e-119 0)
(0 -5.17817e-120 0)
(0 -2.16433e-121 0)
(0 -6.15944e-123 0)
(0 -9.14983e-125 0)
(0 -7.83604e-128 0)
(0 -2.25646e-135 0)
(0 -1.2252e-137 0)
(0 -3.28757e-140 0)
(0 -1.64756e-150 0)
(0 -4.19774e-161 0)
(0 -7.8733e-172 0)
(0 -1.09212e-182 0)
(0 -1.28911e-193 0)
(0 -1.21231e-204 0)
(0 -9.59333e-216 0)
(0 -1.00444e-226 0)
(0 -2.96052e-237 0)
(0 -1.27349e-245 0)
(0 -7.44436e-256 0)
(0 -4.37837e-264 0)
(0 -2.98918e-274 0)
(0 -1.50798e-282 0)
(0 -1.24579e-292 0)
(0 -5.2038e-301 0)
(0 -7.90544e-311 0)
(0 -1.85769e-319 0)
(0 -0 0)
(0 0 0)
(0 0 0)
(0 0 0)
(0 0 0)
(0 0 0)
(0 0 0)
(0 0 0)
(0 0 0)
(0 0 0)
(0 0 0)
(0 0 0)
(0 0 0)
(0 0 0)
(0 0 0)
(0 0 0)
(0 0 0)
(0 0 0)
(0 0 0)
(0 0 0)
(0 0 0)
(0 0 0)
(0 0 0)
(0 0 0)
(0 0 0)
(0 0 0)
(0 0 0)
(0 0 0)
)
;

boundaryField
{
    inandouthalf11
    {
        type            cyclic;
    }
    inandouthalf12
    {
        type            cyclic;
    }
    inandouthalf21
    {
        type            cyclic;
    }
    inandouthalf22
    {
        type            cyclic;
    }
    inandouthalf31
    {
        type            cyclic;
    }
    inandouthalf32
    {
        type            cyclic;
    }
    inandouthalf41
    {
        type            cyclic;
    }
    inandouthalf42
    {
        type            cyclic;
    }
    top
    {
        type            symmetryPlane;
    }
    walls
    {
        type            zeroGradient;
    }
    frontAndBackPlanes
    {
        type            empty;
    }
}


// ************************************************************************* //
