/*--------------------------------*- C++ -*----------------------------------*\
| =========                 |                                                 |
| \\      /  F ield         | OpenFOAM: The Open Source CFD Toolbox           |
|  \\    /   O peration     | Version:  2.4.x                                 |
|   \\  /    A nd           | Web:      www.OpenFOAM.org                      |
|    \\/     M anipulation  |                                                 |
\*---------------------------------------------------------------------------*/
FoamFile
{
    version     2.0;
    format      ascii;
    class       volTensorField;
    location    "12.45";
    object      Tauf;
}
// * * * * * * * * * * * * * * * * * * * * * * * * * * * * * * * * * * * * * //

dimensions      [0 2 -2 0 0 0 0];

internalField   nonuniform List<tensor> 
360
(
(0 -2.27281e-09 0 -2.27281e-09 6.98767e-12 0 0 0 0)
(0 6.43837e-12 0 6.43837e-12 8.44996e-12 0 0 0 0)
(0 -8.15519e-13 0 -8.15519e-13 8.83073e-12 0 0 0 0)
(0 -2.04797e-12 0 -2.04797e-12 8.58366e-12 0 0 0 0)
(2.01948e-25 -1.3498e-12 0 -1.3498e-12 8.77599e-12 0 0 0 0)
(4.03897e-25 -1.15051e-12 0 -1.15051e-12 9.09817e-12 0 0 0 0)
(4.03897e-25 -1.26424e-12 0 -1.26424e-12 9.36649e-12 0 0 0 0)
(0 -1.34616e-12 0 -1.34616e-12 9.61621e-12 0 0 0 0)
(2.01948e-25 -1.3855e-12 0 -1.3855e-12 9.89387e-12 0 0 0 0)
(0 -1.42504e-12 0 -1.42504e-12 1.02064e-11 0 0 0 0)
(2.01948e-25 -1.46504e-12 0 -1.46504e-12 1.0542e-11 0 0 0 0)
(0 -1.50665e-12 0 -1.50665e-12 1.08885e-11 0 0 0 0)
(2.01948e-25 -1.55097e-12 0 -1.55097e-12 1.12386e-11 0 0 0 0)
(0 -1.59577e-12 0 -1.59577e-12 1.15887e-11 0 0 0 0)
(0 -1.64192e-12 0 -1.64192e-12 1.19365e-11 0 0 0 0)
(0 -1.68807e-12 0 -1.68807e-12 1.228e-11 0 0 0 0)
(0 -1.73277e-12 0 -1.73277e-12 1.26159e-11 0 0 0 0)
(2.01948e-25 -1.77634e-12 0 -1.77634e-12 1.29407e-11 0 0 0 0)
(0 -1.8208e-12 0 -1.8208e-12 1.32522e-11 0 0 0 0)
(0 -1.86232e-12 0 -1.86232e-12 1.3548e-11 0 0 0 0)
(0 -1.90249e-12 0 -1.90249e-12 1.3826e-11 0 0 0 0)
(2.01948e-25 -1.94283e-12 0 -1.94283e-12 1.40854e-11 0 0 0 0)
(0 -1.97977e-12 0 -1.97977e-12 1.4325e-11 0 0 0 0)
(0 -2.01547e-12 0 -2.01547e-12 1.45433e-11 0 0 0 0)
(0 -2.04921e-12 0 -2.04921e-12 1.47394e-11 0 0 0 0)
(2.01948e-25 -2.07972e-12 0 -2.07972e-12 1.49121e-11 0 0 0 0)
(0 -2.10952e-12 0 -2.10952e-12 1.50617e-11 0 0 0 0)
(0 -2.13728e-12 0 -2.13728e-12 1.51885e-11 0 0 0 0)
(0 -2.16097e-12 0 -2.16097e-12 1.52915e-11 0 0 0 0)
(0 -2.18296e-12 0 -2.18296e-12 1.53705e-11 0 0 0 0)
(0 -2.20457e-12 0 -2.20457e-12 1.54271e-11 0 0 0 0)
(0 -2.22047e-12 0 -2.22047e-12 1.54606e-11 0 0 0 0)
(0 -2.23689e-12 0 -2.23689e-12 1.54723e-11 0 0 0 0)
(0 -2.25125e-12 0 -2.25125e-12 1.54639e-11 0 0 0 0)
(0 -2.26094e-12 0 -2.26094e-12 1.54346e-11 0 0 0 0)
(-2.01948e-25 -2.27021e-12 0 -2.27021e-12 1.53856e-11 0 0 0 0)
(0 -2.27721e-12 0 -2.27721e-12 1.53182e-11 0 0 0 0)
(0 -2.28518e-12 0 -2.28518e-12 1.52358e-11 0 0 0 0)
(0 -2.28552e-12 0 -2.28552e-12 1.51366e-11 0 0 0 0)
(0 -2.28825e-12 0 -2.28825e-12 1.5022e-11 0 0 0 0)
(0 -2.29195e-12 0 -2.29195e-12 1.48962e-11 0 0 0 0)
(0 -2.28663e-12 0 -2.28663e-12 1.47564e-11 0 0 0 0)
(-2.01948e-25 -2.2865e-12 0 -2.2865e-12 1.46059e-11 0 0 0 0)
(0 -2.28455e-12 0 -2.28455e-12 1.44472e-11 0 0 0 0)
(0 -2.27872e-12 0 -2.27872e-12 1.42796e-11 0 0 0 0)
(0 -2.2763e-12 0 -2.2763e-12 1.41058e-11 0 0 0 0)
(0 -2.26737e-12 0 -2.26737e-12 1.39238e-11 0 0 0 0)
(0 -2.2597e-12 0 -2.2597e-12 1.37348e-11 0 0 0 0)
(0 -2.25823e-12 0 -2.25823e-12 1.35449e-11 0 0 0 0)
(0 -2.24808e-12 0 -2.24808e-12 1.3352e-11 0 0 0 0)
(-2.01948e-25 -2.23868e-12 0 -2.23868e-12 1.31552e-11 0 0 0 0)
(0 -2.23289e-12 0 -2.23289e-12 1.2957e-11 0 0 0 0)
(0 -2.22498e-12 0 -2.22498e-12 1.27582e-11 0 0 0 0)
(0 -2.21527e-12 0 -2.21527e-12 1.25585e-11 0 0 0 0)
(0 -2.20885e-12 0 -2.20885e-12 1.23598e-11 0 0 0 0)
(0 -2.20067e-12 0 -2.20067e-12 1.21621e-11 0 0 0 0)
(0 -2.19209e-12 0 -2.19209e-12 1.19649e-11 0 0 0 0)
(0 -2.18673e-12 0 -2.18673e-12 1.17704e-11 0 0 0 0)
(0 -2.17489e-12 0 -2.17489e-12 1.15749e-11 0 0 0 0)
(0 -2.17086e-12 0 -2.17086e-12 1.13831e-11 0 0 0 0)
(0 -2.16457e-12 0 -2.16457e-12 1.11948e-11 0 0 0 0)
(0 -2.15707e-12 0 -2.15707e-12 1.10096e-11 0 0 0 0)
(0 -2.1531e-12 0 -2.1531e-12 1.08287e-11 0 0 0 0)
(0 -2.14657e-12 0 -2.14657e-12 1.06501e-11 0 0 0 0)
(0 -2.14147e-12 0 -2.14147e-12 1.04743e-11 0 0 0 0)
(0 -2.13748e-12 0 -2.13748e-12 1.03013e-11 0 0 0 0)
(0 -2.13541e-12 0 -2.13541e-12 1.01324e-11 0 0 0 0)
(0 -2.13147e-12 0 -2.13147e-12 9.96653e-12 0 0 0 0)
(0 -2.12559e-12 0 -2.12559e-12 9.80184e-12 0 0 0 0)
(0 -2.12537e-12 0 -2.12537e-12 9.64076e-12 0 0 0 0)
(0 -2.12825e-12 0 -2.12825e-12 9.4861e-12 0 0 0 0)
(0 -2.12264e-12 0 -2.12264e-12 9.33304e-12 0 0 0 0)
(0 -2.12216e-12 0 -2.12216e-12 9.18318e-12 0 0 0 0)
(0 -2.12547e-12 0 -2.12547e-12 9.03737e-12 0 0 0 0)
(0 -2.1272e-12 0 -2.1272e-12 8.89522e-12 0 0 0 0)
(0 -2.12859e-12 0 -2.12859e-12 8.75621e-12 0 0 0 0)
(0 -2.12895e-12 0 -2.12895e-12 8.61792e-12 0 0 0 0)
(0 -2.13352e-12 0 -2.13352e-12 8.48193e-12 0 0 0 0)
(0 -2.13812e-12 0 -2.13812e-12 8.34823e-12 0 0 0 0)
(0 -2.14135e-12 0 -2.14135e-12 8.2164e-12 0 0 0 0)
(0 -2.14609e-12 0 -2.14609e-12 8.08667e-12 0 0 0 0)
(0 -2.15314e-12 0 -2.15314e-12 7.95985e-12 0 0 0 0)
(0 -2.15973e-12 0 -2.15973e-12 7.83548e-12 0 0 0 0)
(0 -2.16721e-12 0 -2.16721e-12 7.71373e-12 0 0 0 0)
(0 -2.17557e-12 0 -2.17557e-12 7.59402e-12 0 0 0 0)
(0 -2.18485e-12 0 -2.18485e-12 7.47597e-12 0 0 0 0)
(0 -2.19457e-12 0 -2.19457e-12 7.35902e-12 0 0 0 0)
(0 -2.2044e-12 0 -2.2044e-12 7.24241e-12 0 0 0 0)
(0 -2.21568e-12 0 -2.21568e-12 7.12629e-12 0 0 0 0)
(0 -2.22775e-12 0 -2.22775e-12 7.01068e-12 0 0 0 0)
(0 -2.24027e-12 0 -2.24027e-12 6.89566e-12 0 0 0 0)
(0 -2.25409e-12 0 -2.25409e-12 6.78168e-12 0 0 0 0)
(0 -2.26911e-12 0 -2.26911e-12 6.66901e-12 0 0 0 0)
(0 -2.28488e-12 0 -2.28488e-12 6.55762e-12 0 0 0 0)
(0 -2.30169e-12 0 -2.30169e-12 6.44747e-12 0 0 0 0)
(0 -2.31958e-12 0 -2.31958e-12 6.3383e-12 0 0 0 0)
(0 -2.33846e-12 0 -2.33846e-12 6.22982e-12 0 0 0 0)
(0 -2.35842e-12 0 -2.35842e-12 6.1218e-12 0 0 0 0)
(0 -2.37963e-12 0 -2.37963e-12 6.01418e-12 0 0 0 0)
(0 -2.40213e-12 0 -2.40213e-12 5.907e-12 0 0 0 0)
(0 -2.42599e-12 0 -2.42599e-12 5.80039e-12 0 0 0 0)
(0 -2.45138e-12 0 -2.45138e-12 5.69458e-12 0 0 0 0)
(0 -2.47837e-12 0 -2.47837e-12 5.5898e-12 0 0 0 0)
(0 -2.507e-12 0 -2.507e-12 5.48625e-12 0 0 0 0)
(0 -2.53741e-12 0 -2.53741e-12 5.3841e-12 0 0 0 0)
(0 -2.56971e-12 0 -2.56971e-12 5.28348e-12 0 0 0 0)
(0 -2.60403e-12 0 -2.60403e-12 5.18453e-12 0 0 0 0)
(0 -2.64052e-12 0 -2.64052e-12 5.08735e-12 0 0 0 0)
(0 -2.67934e-12 0 -2.67934e-12 4.99203e-12 0 0 0 0)
(0 -2.72063e-12 0 -2.72063e-12 4.89861e-12 0 0 0 0)
(0 -2.76454e-12 0 -2.76454e-12 4.80706e-12 0 0 0 0)
(0 -2.81122e-12 0 -2.81122e-12 4.71723e-12 0 0 0 0)
(0 -2.86081e-12 0 -2.86081e-12 4.62882e-12 0 0 0 0)
(0 -2.91345e-12 0 -2.91345e-12 4.54137e-12 0 0 0 0)
(0 -2.96927e-12 0 -2.96927e-12 4.4542e-12 0 0 0 0)
(0 -3.02838e-12 0 -3.02838e-12 4.36643e-12 0 0 0 0)
(0 -3.09088e-12 0 -3.09088e-12 4.27698e-12 0 0 0 0)
(0 -3.15687e-12 0 -3.15687e-12 4.18462e-12 0 0 0 0)
(0 -3.22645e-12 0 -3.22645e-12 4.08805e-12 0 0 0 0)
(0 -3.29974e-12 0 -3.29974e-12 3.98603e-12 0 0 0 0)
(0 -3.37688e-12 0 -3.37688e-12 3.87757e-12 0 0 0 0)
(0 -3.45803e-12 0 -3.45803e-12 3.76218e-12 0 0 0 0)
(0 -3.54348e-12 0 -3.54348e-12 3.64023e-12 0 0 0 0)
(0 -3.63378e-12 0 -3.63378e-12 3.51327e-12 0 0 0 0)
(0 -3.73008e-12 0 -3.73008e-12 3.38447e-12 0 0 0 0)
(0 -3.8345e-12 0 -3.8345e-12 3.25877e-12 0 0 0 0)
(0 -3.95021e-12 0 -3.95021e-12 3.14282e-12 0 0 0 0)
(0 -4.08094e-12 0 -4.08094e-12 3.04412e-12 0 0 0 0)
(0 -4.22941e-12 0 -4.22941e-12 2.96934e-12 0 0 0 0)
(0 -4.39605e-12 0 -4.39605e-12 2.92145e-12 0 0 0 0)
(0 -4.58068e-12 0 -4.58068e-12 2.896e-12 0 0 0 0)
(0 -4.78928e-12 0 -4.78928e-12 2.87771e-12 0 0 0 0)
(0 -5.03711e-12 0 -5.03711e-12 2.83822e-12 0 0 0 0)
(0 -5.32749e-12 0 -5.32749e-12 2.7304e-12 0 0 0 0)
(0 -5.6165e-12 0 -5.6165e-12 2.47877e-12 0 0 0 0)
(0 -5.83302e-12 0 -5.83302e-12 1.99469e-12 0 0 0 0)
(0 -5.977e-12 0 -5.977e-12 1.24161e-12 0 0 0 0)
(0 -6.18908e-12 0 -6.18908e-12 3.11867e-13 0 0 0 0)
(0 -6.63116e-12 0 -6.63116e-12 -5.62247e-13 0 0 0 0)
(0 -7.11876e-12 0 -7.11876e-12 -1.30908e-12 0 0 0 0)
(0 -7.97997e-12 0 -7.97997e-12 -6.41932e-12 0 0 0 0)
(0 -3.39069e-11 0 -3.39069e-11 -4.39844e-12 0 0 0 0)
(0 -2.52762e-11 0 -2.52762e-11 8.31399e-11 0 0 0 0)
(0 -1.2119e-12 0 -1.2119e-12 -5.89782e-10 0 0 0 0)
(0 -5.9762e-11 0 -5.9762e-11 2.03158e-09 0 0 0 0)
(0 -4.53936e-08 0 -4.53936e-08 -7.93887e-09 0 0 0 0)
(0 -2.16657e-05 0 -2.16657e-05 3.82333e-08 0 0 0 0)
(0 -0.000376804 0 -0.000376804 8.30738e-07 0 0 0 0)
(0 -0.00214405 0 -0.00214405 1.44259e-06 0 0 0 0)
(0 -0.00319277 0 -0.00319277 -1.7878e-06 0 0 0 0)
(0 -0.00350231 0 -0.00350231 -6.62253e-07 0 0 0 0)
(0 -0.00361535 0 -0.00361535 -1.57771e-06 0 0 0 0)
(0 -0.00363444 0 -0.00363444 -1.85889e-06 0 0 0 0)
(0 -0.0036042 0 -0.0036042 -1.99884e-06 0 0 0 0)
(0 -0.00354974 0 -0.00354974 -2.01839e-06 0 0 0 0)
(0 -0.00348437 0 -0.00348437 -1.93097e-06 0 0 0 0)
(0 -0.00341487 0 -0.00341487 -1.76289e-06 0 0 0 0)
(0 -0.00334437 0 -0.00334437 -1.54711e-06 0 0 0 0)
(0 -0.00327406 0 -0.00327406 -1.31229e-06 0 0 0 0)
(0 -0.00320424 0 -0.00320424 -1.07904e-06 0 0 0 0)
(0 -0.00313475 0 -0.00313475 -8.60401e-07 0 0 0 0)
(0 -0.00306534 0 -0.00306534 -6.63615e-07 0 0 0 0)
(0 -0.00299573 0 -0.00299573 -4.9161e-07 0 0 0 0)
(0 -0.00292567 0 -0.00292567 -3.44623e-07 0 0 0 0)
(0 -0.00285498 0 -0.00285498 -2.21451e-07 0 0 0 0)
(0 -0.00278352 0 -0.00278352 -1.20045e-07 0 0 0 0)
(0 -0.00271121 0 -0.00271121 -3.79794e-08 0 0 0 0)
(0 -0.00263801 0 -0.00263801 2.72473e-08 0 0 0 0)
(0 -0.00256389 0 -0.00256389 7.80464e-08 0 0 0 0)
(0 -0.00248885 0 -0.00248885 1.16653e-07 0 0 0 0)
(0 -0.00241294 0 -0.00241294 1.45084e-07 0 0 0 0)
(0 -0.0023362 0 -0.0023362 1.65121e-07 0 0 0 0)
(0 -0.00225868 0 -0.00225868 1.78316e-07 0 0 0 0)
(0 -0.00218047 0 -0.00218047 1.86033e-07 0 0 0 0)
(0 -0.00210164 0 -0.00210164 1.89551e-07 0 0 0 0)
(0 -0.00202231 0 -0.00202231 1.90215e-07 0 0 0 0)
(0 -0.00194257 0 -0.00194257 1.89454e-07 0 0 0 0)
(0 -0.00186257 0 -0.00186257 1.88472e-07 0 0 0 0)
(0 -0.00178242 0 -0.00178242 1.87597e-07 0 0 0 0)
(0 -0.00170227 0 -0.00170227 1.85752e-07 0 0 0 0)
(0 -0.00162229 0 -0.00162229 1.80755e-07 0 0 0 0)
(0 -0.00154265 0 -0.00154265 1.70587e-07 0 0 0 0)
(0 -0.00146354 0 -0.00146354 1.54775e-07 0 0 0 0)
(0 -0.00138517 0 -0.00138517 1.34793e-07 0 0 0 0)
(0 -0.00130778 0 -0.00130778 1.13221e-07 0 0 0 0)
(0 -0.0012316 0 -0.0012316 9.25089e-08 0 0 0 0)
(0 -0.00115687 0 -0.00115687 7.42071e-08 0 0 0 0)
(0 -0.00108382 0 -0.00108382 5.89004e-08 0 0 0 0)
(0 -0.00101268 0 -0.00101268 4.65198e-08 0 0 0 0)
(0 -0.000943635 0 -0.000943635 3.66877e-08 0 0 0 0)
(0 -0.000876873 0 -0.000876873 2.89451e-08 0 0 0 0)
(0 -0.00081254 0 -0.00081254 2.28618e-08 0 0 0 0)
(0 -0.000750749 0 -0.000750749 1.80753e-08 0 0 0 0)
(0 -0.000691576 0 -0.000691576 1.42948e-08 0 0 0 0)
(0 -0.000635064 0 -0.000635064 1.12933e-08 0 0 0 0)
(0 -0.000581215 0 -0.000581215 8.89617e-09 0 0 0 0)
(0 -0.000529999 0 -0.000529999 6.97005e-09 0 0 0 0)
(0 -0.000481356 0 -0.000481356 5.41324e-09 0 0 0 0)
(0 -0.0004352 0 -0.0004352 4.14816e-09 0 0 0 0)
(0 -0.000391428 0 -0.000391428 3.11554e-09 0 0 0 0)
(0 -0.000349919 0 -0.000349919 2.26989e-09 0 0 0 0)
(0 -0.000310186 0 -0.000310186 1.57073e-09 0 0 0 0)
(3.17241e-17 -0.000271757 0 -0.000271757 9.88348e-10 0 0 0 0)
(0 -0.000234599 0 -0.000234599 5.06814e-10 0 0 0 0)
(0 -0.000198669 0 -0.000198669 1.12658e-10 0 0 0 0)
(-3.2743e-17 -0.000163921 0 -0.000163921 -2.05486e-10 0 0 0 0)
(0 -0.000130304 0 -0.000130304 -4.57371e-10 0 0 0 0)
(3.34245e-17 -9.77676e-05 0 -9.77676e-05 -6.51535e-10 0 0 0 0)
(0 -6.62627e-05 0 -6.62627e-05 -7.95613e-10 0 0 0 0)
(-3.40352e-17 -3.57436e-05 0 -3.57436e-05 -8.96538e-10 0 0 0 0)
(0 -6.16832e-06 0 -6.16832e-06 -9.60667e-10 0 0 0 0)
(0 2.25001e-05 0 2.25001e-05 -9.93835e-10 0 0 0 0)
(0 5.02937e-05 0 5.02937e-05 -1.00136e-09 0 0 0 0)
(-3.48672e-17 7.72386e-05 0 7.72386e-05 -9.88068e-10 0 0 0 0)
(0 0.000103356 0 0.000103356 -9.58238e-10 0 0 0 0)
(0 0.000128661 0 0.000128661 -9.15651e-10 0 0 0 0)
(0 0.000153163 0 0.000153163 -8.63587e-10 0 0 0 0)
(0 0.000176869 0 0.000176869 -8.0486e-10 0 0 0 0)
(0 0.000199778 0 0.000199778 -7.4187e-10 0 0 0 0)
(3.48491e-17 0.000221887 0 0.000221887 -6.76654e-10 0 0 0 0)
(0 0.000243188 0 0.000243188 -6.10939e-10 0 0 0 0)
(3.45051e-17 0.000263668 0 0.000263668 -5.46184e-10 0 0 0 0)
(0 0.000283314 0 0.000283314 -4.8361e-10 0 0 0 0)
(3.40109e-17 0.000302107 0 0.000302107 -4.24218e-10 0 0 0 0)
(0 0.000320026 0 0.000320026 -3.6879e-10 0 0 0 0)
(0 0.000337049 0 0.000337049 -3.17817e-10 0 0 0 0)
(0 0.00035315 0 0.00035315 -2.71294e-10 0 0 0 0)
(0 0.000368302 0 0.000368302 -2.28426e-10 0 0 0 0)
(-3.22152e-17 0.000382476 0 0.000382476 -1.87469e-10 0 0 0 0)
(-3.17741e-17 0.000395642 0 0.000395642 -1.46158e-10 0 0 0 0)
(0 0.000407769 0 0.000407769 -1.03279e-10 0 0 0 0)
(0 0.000418824 0 0.000418824 -6.14125e-11 0 0 0 0)
(0 0.000428773 0 0.000428773 -2.85224e-11 0 0 0 0)
(0 0.000437583 0 0.000437583 -1.31018e-11 0 0 0 0)
(0 0.000445217 0 0.000445217 -8.96814e-12 0 0 0 0)
(0 0.000451643 0 0.000451643 1.33509e-11 0 0 0 0)
(0 0.000456825 0 0.000456825 5.28243e-11 0 0 0 0)
(0 0.000460731 0 0.000460731 5.85117e-11 0 0 0 0)
(0 0.000463327 0 0.000463327 2.33262e-11 0 0 0 0)
(0 0.000464581 0 0.000464581 -1.06821e-11 0 0 0 0)
(0 0.000464461 0 0.000464461 -2.73867e-11 0 0 0 0)
(0 0.000462937 0 0.000462937 -3.36125e-11 0 0 0 0)
(0 0.000459985 0 0.000459985 -3.4519e-11 0 0 0 0)
(4.71715e-17 0.000455581 0 0.000455581 -3.24528e-11 0 0 0 0)
(-4.57783e-17 0.000449704 0 0.000449704 -2.87148e-11 0 0 0 0)
(0 0.00044234 0 0.00044234 -2.42468e-11 0 0 0 0)
(0 0.000433478 0 0.000433478 -1.97447e-11 0 0 0 0)
(4.14663e-17 0.000423116 0 0.000423116 -1.55088e-11 0 0 0 0)
(0 0.000411258 0 0.000411258 -1.19113e-11 0 0 0 0)
(0 0.000397917 0 0.000397917 -8.22297e-12 0 0 0 0)
(3.69871e-17 0.000383118 0 0.000383118 -3.78533e-12 0 0 0 0)
(0 0.000366898 0 0.000366898 -2.33732e-12 0 0 0 0)
(0 0.000349309 0 0.000349309 -3.18224e-12 0 0 0 0)
(0 0.000330419 0 0.000330419 -1.50747e-12 0 0 0 0)
(0 0.000310315 0 0.000310315 1.90885e-13 0 0 0 0)
(0 0.00028911 0 0.00028911 1.23127e-13 0 0 0 0)
(0 0.000266938 0 0.000266938 -3.55104e-16 0 0 0 0)
(0 0.000243962 0 0.000243962 -1.39168e-14 0 0 0 0)
(0 0.000220376 0 0.000220376 -5.10284e-15 0 0 0 0)
(0 0.000196407 0 0.000196407 -1.91931e-15 0 0 0 0)
(0 0.000172315 0 0.000172315 -1.42646e-15 0 0 0 0)
(0 0.000148394 0 0.000148394 -9.44417e-16 0 0 0 0)
(0 0.000124967 0 0.000124967 -3.17715e-16 0 0 0 0)
(0 0.000102382 0 0.000102382 2.51888e-16 0 0 0 0)
(0 8.09965e-05 0 8.09965e-05 6.97098e-16 0 0 0 0)
(0 6.11682e-05 0 6.11682e-05 1.04477e-15 0 0 0 0)
(-1.35855e-17 4.3229e-05 0 4.3229e-05 1.31594e-15 0 0 0 0)
(0 2.74648e-05 0 2.74648e-05 1.54664e-15 0 0 0 0)
(0 1.40925e-05 0 1.40925e-05 8.59338e-16 0 0 0 0)
(0 3.24224e-06 0 3.24224e-06 -2.36498e-15 0 0 0 0)
(0 -5.0526e-06 0 -5.0526e-06 -9.83501e-17 0 0 0 0)
(0 -1.08557e-05 0 -1.08557e-05 9.0894e-14 0 0 0 0)
(0 -1.43214e-05 0 -1.43214e-05 -3.01942e-13 0 0 0 0)
(0 -1.56834e-05 0 -1.56834e-05 5.72497e-13 0 0 0 0)
(0 -1.5243e-05 0 -1.5243e-05 -8.05691e-13 0 0 0 0)
(0 -1.33586e-05 0 -1.33586e-05 9.43718e-13 0 0 0 0)
(0 -1.04387e-05 0 -1.04387e-05 -9.45336e-13 0 0 0 0)
(0 -6.93781e-06 0 -6.93781e-06 8.00619e-13 0 0 0 0)
(0 -3.26121e-06 0 -3.26121e-06 -5.21817e-13 0 0 0 0)
(0 -5.30332e-07 0 -5.30332e-07 1.74232e-13 0 0 0 0)
(0 -2.83293e-08 0 -2.83293e-08 -4.56626e-14 0 0 0 0)
(0 -1.04246e-09 0 -1.04246e-09 3.80593e-14 0 0 0 0)
(0 -1.52919e-11 0 -1.52919e-11 -3.7205e-14 0 0 0 0)
(0 -1.66386e-13 0 -1.66386e-13 3.64517e-14 0 0 0 0)
(0 1.62028e-14 0 1.62028e-14 -3.57324e-14 0 0 0 0)
(0 1.19022e-14 0 1.19022e-14 3.50249e-14 0 0 0 0)
(0 7.63153e-15 0 7.63153e-15 -3.43566e-14 0 0 0 0)
(0 4.81527e-15 0 4.81527e-15 3.36823e-14 0 0 0 0)
(0 3.01018e-15 0 3.01018e-15 -3.3062e-14 0 0 0 0)
(0 1.82414e-15 0 1.82414e-15 3.24036e-14 0 0 0 0)
(0 1.15956e-15 0 1.15956e-15 -3.18058e-14 0 0 0 0)
(0 7.58662e-16 0 7.58662e-16 3.11434e-14 0 0 0 0)
(0 4.49202e-16 0 4.49202e-16 -3.05642e-14 0 0 0 0)
(0 2.28711e-16 0 2.28711e-16 2.9901e-14 0 0 0 0)
(0 1.19911e-16 0 1.19911e-16 -2.93248e-14 0 0 0 0)
(0 6.46329e-17 0 6.46329e-17 2.86602e-14 0 0 0 0)
(-1.23064e-19 2.22438e-17 0 2.22438e-17 -2.80461e-14 0 0 0 0)
(0 3.4285e-17 0 3.4285e-17 2.74199e-14 0 0 0 0)
(0 1.06986e-17 0 1.06986e-17 -2.67736e-14 0 0 0 0)
(1.15864e-19 -7.50223e-18 0 -7.50223e-18 2.61494e-14 0 0 0 0)
(0 6.77666e-17 0 6.77666e-17 -2.54701e-14 0 0 0 0)
(0 5.94901e-17 0 5.94901e-17 2.48118e-14 0 0 0 0)
(0 -3.38167e-17 0 -3.38167e-17 -2.41308e-14 0 0 0 0)
(0 -2.09288e-17 0 -2.09288e-17 2.34419e-14 0 0 0 0)
(0 -8.66869e-17 0 -8.66869e-17 -2.27372e-14 0 0 0 0)
(0 -7.32284e-17 0 -7.32284e-17 2.20292e-14 0 0 0 0)
(0 9.31873e-17 0 9.31873e-17 -2.12968e-14 0 0 0 0)
(0 1.20117e-16 0 1.20117e-16 2.05493e-14 0 0 0 0)
(0 -9.35536e-18 0 -9.35536e-18 -1.97903e-14 0 0 0 0)
(0 -1.43983e-16 0 -1.43983e-16 1.90278e-14 0 0 0 0)
(0 -1.23879e-16 0 -1.23879e-16 -2.09185e-14 0 0 0 0)
(0 -6.05629e-17 0 -6.05629e-17 2.0636e-14 0 0 0 0)
(0 2.51992e-17 0 2.51992e-17 -2.03934e-14 0 0 0 0)
(0 4.7725e-17 0 4.7725e-17 2.01382e-14 0 0 0 0)
(0 3.15784e-17 0 3.15784e-17 -1.98904e-14 0 0 0 0)
(0 4.14781e-17 0 4.14781e-17 1.96288e-14 0 0 0 0)
(0 2.11758e-18 0 2.11758e-18 -1.93809e-14 0 0 0 0)
(0 -8.57621e-18 0 -8.57621e-18 1.91153e-14 0 0 0 0)
(0 -2.54375e-17 0 -2.54375e-17 -1.88663e-14 0 0 0 0)
(0 -1.03047e-16 0 -1.03047e-16 1.85937e-14 0 0 0 0)
(0 -4.05252e-17 0 -4.05252e-17 -1.83421e-14 0 0 0 0)
(0 7.8827e-17 0 7.8827e-17 1.80666e-14 0 0 0 0)
(0 5.6513e-17 0 5.6513e-17 -1.78111e-14 0 0 0 0)
(0 -1.42937e-18 0 -1.42937e-18 1.75292e-14 0 0 0 0)
(0 -6.77626e-18 0 -6.77626e-18 -1.72706e-14 0 0 0 0)
(0 4.47339e-18 0 4.47339e-18 1.69825e-14 0 0 0 0)
(0 3.99694e-18 0 3.99694e-18 -1.67201e-14 0 0 0 0)
(0 9.44971e-18 0 9.44971e-18 1.64226e-14 0 0 0 0)
(0 -1.24408e-17 0 -1.24408e-17 -1.61624e-14 0 0 0 0)
(0 1.77348e-18 0 1.77348e-18 1.58475e-14 0 0 0 0)
(0 -7.94093e-19 0 -7.94093e-19 -1.55898e-14 0 0 0 0)
(0 -3.04667e-17 0 -3.04667e-17 1.52662e-14 0 0 0 0)
(0 -9.50265e-18 0 -9.50265e-18 -1.50011e-14 0 0 0 0)
(0 3.08373e-17 0 3.08373e-17 1.46683e-14 0 0 0 0)
(0 1.33143e-17 0 1.33143e-17 -1.43929e-14 0 0 0 0)
(0 1.45584e-17 0 1.45584e-17 1.40524e-14 0 0 0 0)
(0 1.63583e-17 0 1.63583e-17 -1.37673e-14 0 0 0 0)
(0 -2.50934e-17 0 -2.50934e-17 1.34117e-14 0 0 0 0)
(0 -9.8547e-17 0 -9.8547e-17 -1.31132e-14 0 0 0 0)
(0 -2.04691e-16 0 -2.04691e-16 1.27499e-14 0 0 0 0)
(0 -4.42945e-16 0 -4.42945e-16 -1.24334e-14 0 0 0 0)
(0 -3.10226e-17 0 -3.10226e-17 1.20551e-14 0 0 0 0)
(0 4.2529e-16 0 4.2529e-16 -1.17151e-14 0 0 0 0)
(0 2.25258e-16 0 2.25258e-16 1.13249e-14 0 0 0 0)
(0 9.13472e-17 0 9.13472e-17 -1.09751e-14 0 0 0 0)
(0 3.14461e-17 0 3.14461e-17 1.0537e-14 0 0 0 0)
(0 4.22458e-17 0 4.22458e-17 -1.01652e-14 0 0 0 0)
(0 1.28114e-17 0 1.28114e-17 9.71599e-15 0 0 0 0)
(0 -2.76609e-17 0 -2.76609e-17 -9.29665e-15 0 0 0 0)
(0 -8.78532e-17 0 -8.78532e-17 8.81519e-15 0 0 0 0)
(0 2.06729e-17 0 2.06729e-17 -8.32635e-15 0 0 0 0)
(0 1.70095e-16 0 1.70095e-16 7.81356e-15 0 0 0 0)
(0 9.91293e-17 0 9.91293e-17 -7.26544e-15 0 0 0 0)
(0 -5.73071e-17 0 -5.73071e-17 6.6627e-15 0 0 0 0)
(0 -9.90499e-17 0 -9.90499e-17 -5.98579e-15 0 0 0 0)
(0 -7.4883e-17 0 -7.4883e-17 5.28815e-15 0 0 0 0)
(0 -3.86988e-17 0 -3.86988e-17 -4.33334e-15 0 0 0 0)
(0 4.42045e-18 0 4.42045e-18 3.33429e-15 0 0 0 0)
(0 -9.58471e-17 0 -9.58471e-17 -1.86309e-15 0 0 0 0)
(0 -9.56353e-17 0 -9.56353e-17 6.85038e-16 0 0 0 0)
)
;

boundaryField
{
    inandouthalf11
    {
        type            cyclic;
    }
    inandouthalf12
    {
        type            cyclic;
    }
    inandouthalf21
    {
        type            cyclic;
    }
    inandouthalf22
    {
        type            cyclic;
    }
    inandouthalf31
    {
        type            cyclic;
    }
    inandouthalf32
    {
        type            cyclic;
    }
    inandouthalf41
    {
        type            cyclic;
    }
    inandouthalf42
    {
        type            cyclic;
    }
    top
    {
        type            symmetryPlane;
    }
    walls
    {
        type            zeroGradient;
    }
    frontAndBackPlanes
    {
        type            empty;
    }
}


// ************************************************************************* //
