/*--------------------------------*- C++ -*----------------------------------*\
| =========                 |                                                 |
| \\      /  F ield         | OpenFOAM: The Open Source CFD Toolbox           |
|  \\    /   O peration     | Version:  2.4.x                                 |
|   \\  /    A nd           | Web:      www.OpenFOAM.org                      |
|    \\/     M anipulation  |                                                 |
\*---------------------------------------------------------------------------*/
FoamFile
{
    version     2.0;
    format      ascii;
    class       volScalarField;
    location    "12.45";
    object      tmf;
}
// * * * * * * * * * * * * * * * * * * * * * * * * * * * * * * * * * * * * * //

dimensions      [0 0 0 0 0 0 0];

internalField   nonuniform List<scalar> 
360
(
0.999206
0.999209
0.99921
0.999209
0.999209
0.999209
0.999209
0.999209
0.999209
0.999209
0.999209
0.999209
0.999209
0.999208
0.999208
0.999208
0.999208
0.999208
0.999208
0.999208
0.999208
0.999208
0.999208
0.999208
0.999208
0.999207
0.999207
0.999207
0.999207
0.999207
0.999207
0.999207
0.999207
0.999207
0.999207
0.999207
0.999206
0.999206
0.999206
0.999206
0.999206
0.999206
0.999206
0.999206
0.999206
0.999205
0.999205
0.999205
0.999205
0.999205
0.999205
0.999205
0.999205
0.999205
0.999204
0.999204
0.999204
0.999204
0.999204
0.999204
0.999204
0.999204
0.999203
0.999203
0.999203
0.999203
0.999203
0.999203
0.999203
0.999202
0.999202
0.999202
0.999202
0.999202
0.999202
0.999201
0.999201
0.999201
0.999201
0.999201
0.999201
0.9992
0.9992
0.9992
0.9992
0.9992
0.9992
0.999199
0.999199
0.999199
0.999199
0.999198
0.999198
0.999198
0.999198
0.999198
0.999197
0.999197
0.999197
0.999197
0.999196
0.999196
0.999196
0.999196
0.999195
0.999195
0.999195
0.999194
0.999194
0.999194
0.999194
0.999193
0.999193
0.999193
0.999192
0.999192
0.999191
0.999191
0.999191
0.99919
0.99919
0.999189
0.999189
0.999188
0.999188
0.999188
0.999187
0.999186
0.999186
0.999185
0.999185
0.999074
0.998755
0.998588
0.998393
0.998141
0.997815
0.997395
0.996857
0.996168
0.995281
0.99414
0.992732
0.990956
0.98852
0.985394
0.981054
0.958539
0.906312
0.887341
0.876485
0.878073
0.880727
0.884206
0.888381
0.893108
0.89821
0.903499
0.908807
0.914007
0.919013
0.923774
0.928267
0.932488
0.936443
0.940147
0.943615
0.946866
0.949916
0.952781
0.955476
0.958014
0.960407
0.962664
0.964797
0.966812
0.968717
0.970519
0.972224
0.973837
0.975363
0.976805
0.978168
0.979457
0.980674
0.981824
0.98291
0.983935
0.984902
0.985813
0.98667
0.987474
0.988228
0.988931
0.989585
0.990192
0.990752
0.991267
0.991738
0.992169
0.992561
0.99292
0.99325
0.993553
0.993829
0.994079
0.994306
0.99451
0.994693
0.994856
0.995001
0.995129
0.995241
0.995339
0.995424
0.995496
0.995558
0.995609
0.99565
0.995682
0.995707
0.995723
0.995732
0.995735
0.99573
0.99572
0.995704
0.995681
0.995654
0.99562
0.995581
0.995535
0.995483
0.995425
0.99536
0.995288
0.995207
0.993683
0.993777
0.993903
0.994005
0.994099
0.994186
0.994267
0.994343
0.994417
0.994476
0.994592
0.994519
0.99488
0.994229
0.995557
0.996595
0.996847
0.996912
0.996985
0.997063
0.997146
0.997234
0.997329
0.997429
0.997534
0.997645
0.997759
0.997878
0.997998
0.998119
0.998238
0.998354
0.998465
0.99857
0.998667
0.998757
0.998841
0.998923
0.999005
0.999095
0.999201
0.999339
0.999485
0.999564
0.99957
0.999567
0.999564
0.999562
0.999558
0.999471
0.995388
0.994189
0.994189
0.994189
0.994189
0.994189
0.994189
0.994189
0.994189
0.994189
0.994189
0.994189
0.994189
0.994189
0.994189
0.994189
0.994189
0.994189
0.994189
0.994189
0.994189
0.994189
0.994189
0.994189
0.994189
0.994189
0.994189
0.994189
0.994189
0.994189
0.994189
0.994189
0.994189
0.994189
0.994189
0.994189
0.994189
0.994189
0.994189
0.994189
0.994189
0.994189
0.994189
0.994189
0.994189
0.994189
0.994189
0.994189
0.994189
0.994189
0.994189
0.994189
0.994189
0.994189
0.994189
0.994189
0.994189
0.994189
0.994189
0.994189
0.994189
0.994189
0.994189
0.994189
0.994189
0.994189
0.994189
0.994189
0.994189
0.994189
0.994189
0.994174
0.993239
)
;

boundaryField
{
    inandouthalf11
    {
        type            cyclic;
    }
    inandouthalf12
    {
        type            cyclic;
    }
    inandouthalf21
    {
        type            cyclic;
    }
    inandouthalf22
    {
        type            cyclic;
    }
    inandouthalf31
    {
        type            cyclic;
    }
    inandouthalf32
    {
        type            cyclic;
    }
    inandouthalf41
    {
        type            cyclic;
    }
    inandouthalf42
    {
        type            cyclic;
    }
    top
    {
        type            symmetryPlane;
    }
    walls
    {
        type            calculated;
        value           uniform 0;
    }
    frontAndBackPlanes
    {
        type            empty;
    }
}


// ************************************************************************* //
