/*--------------------------------*- C++ -*----------------------------------*\
| =========                 |                                                 |
| \\      /  F ield         | OpenFOAM: The Open Source CFD Toolbox           |
|  \\    /   O peration     | Version:  2.4.x                                 |
|   \\  /    A nd           | Web:      www.OpenFOAM.org                      |
|    \\/     M anipulation  |                                                 |
\*---------------------------------------------------------------------------*/
FoamFile
{
    version     2.0;
    format      ascii;
    class       volVectorField;
    location    "12.45";
    object      Ua_0;
}
// * * * * * * * * * * * * * * * * * * * * * * * * * * * * * * * * * * * * * //

dimensions      [0 1 -1 0 0 0 0];

internalField   nonuniform List<vector> 
360
(
(-1.55538e-32 -1.0316e-31 0)
(-3.94877e-10 -1.827e-09 0)
(-8.20368e-10 -3.25568e-09 0)
(-1.20555e-09 -4.52105e-09 0)
(-1.60394e-09 -5.8725e-09 0)
(-2.0268e-09 -7.30585e-09 0)
(-2.46579e-09 -8.77767e-09 0)
(-2.91796e-09 -1.02824e-08 0)
(-3.38505e-09 -1.18285e-08 0)
(-3.86924e-09 -1.3423e-08 0)
(-4.37208e-09 -1.50705e-08 0)
(-4.89449e-09 -1.67732e-08 0)
(-5.43694e-09 -1.85319e-08 0)
(-5.99966e-09 -2.03468e-08 0)
(-6.58276e-09 -2.22176e-08 0)
(-7.18627e-09 -2.4144e-08 0)
(-7.81009e-09 -2.6125e-08 0)
(-8.45391e-09 -2.81592e-08 0)
(-9.11728e-09 -3.02446e-08 0)
(-9.79963e-09 -3.23788e-08 0)
(-1.05002e-08 -3.45593e-08 0)
(-1.12183e-08 -3.6783e-08 0)
(-1.1953e-08 -3.90471e-08 0)
(-1.27035e-08 -4.13481e-08 0)
(-1.34685e-08 -4.36828e-08 0)
(-1.42472e-08 -4.60473e-08 0)
(-1.50383e-08 -4.8438e-08 0)
(-1.58408e-08 -5.08513e-08 0)
(-1.66534e-08 -5.32836e-08 0)
(-1.74749e-08 -5.57309e-08 0)
(-1.83042e-08 -5.81895e-08 0)
(-1.914e-08 -6.06559e-08 0)
(-1.99812e-08 -6.31265e-08 0)
(-2.08265e-08 -6.55978e-08 0)
(-2.16751e-08 -6.8067e-08 0)
(-2.25256e-08 -7.05304e-08 0)
(-2.3377e-08 -7.29851e-08 0)
(-2.42283e-08 -7.54283e-08 0)
(-2.50788e-08 -7.7858e-08 0)
(-2.59273e-08 -8.02712e-08 0)
(-2.67731e-08 -8.26656e-08 0)
(-2.76154e-08 -8.50399e-08 0)
(-2.84535e-08 -8.73915e-08 0)
(-2.92867e-08 -8.9719e-08 0)
(-3.01146e-08 -9.20213e-08 0)
(-3.09365e-08 -9.4297e-08 0)
(-3.1752e-08 -9.65453e-08 0)
(-3.25606e-08 -9.87645e-08 0)
(-3.33618e-08 -1.00954e-07 0)
(-3.41556e-08 -1.03114e-07 0)
(-3.49417e-08 -1.05243e-07 0)
(-3.57197e-08 -1.07342e-07 0)
(-3.64895e-08 -1.0941e-07 0)
(-3.7251e-08 -1.11447e-07 0)
(-3.80042e-08 -1.13452e-07 0)
(-3.87489e-08 -1.15427e-07 0)
(-3.94852e-08 -1.17371e-07 0)
(-4.02129e-08 -1.19285e-07 0)
(-4.09322e-08 -1.21169e-07 0)
(-4.1643e-08 -1.23022e-07 0)
(-4.23453e-08 -1.24845e-07 0)
(-4.30394e-08 -1.2664e-07 0)
(-4.37254e-08 -1.28407e-07 0)
(-4.44035e-08 -1.30145e-07 0)
(-4.50736e-08 -1.31856e-07 0)
(-4.57359e-08 -1.3354e-07 0)
(-4.63906e-08 -1.35198e-07 0)
(-4.70378e-08 -1.3683e-07 0)
(-4.76776e-08 -1.38436e-07 0)
(-4.831e-08 -1.40017e-07 0)
(-4.89353e-08 -1.41574e-07 0)
(-4.95538e-08 -1.43107e-07 0)
(-5.01655e-08 -1.44617e-07 0)
(-5.07706e-08 -1.46105e-07 0)
(-5.13692e-08 -1.4757e-07 0)
(-5.19618e-08 -1.49014e-07 0)
(-5.25482e-08 -1.50436e-07 0)
(-5.31285e-08 -1.51838e-07 0)
(-5.37029e-08 -1.53219e-07 0)
(-5.42714e-08 -1.5458e-07 0)
(-5.48342e-08 -1.55921e-07 0)
(-5.53914e-08 -1.57243e-07 0)
(-5.59431e-08 -1.58546e-07 0)
(-5.64895e-08 -1.5983e-07 0)
(-5.70308e-08 -1.61096e-07 0)
(-5.75671e-08 -1.62344e-07 0)
(-5.80984e-08 -1.63574e-07 0)
(-5.86248e-08 -1.64787e-07 0)
(-5.91463e-08 -1.65983e-07 0)
(-5.96629e-08 -1.67162e-07 0)
(-6.01747e-08 -1.68323e-07 0)
(-6.06817e-08 -1.69467e-07 0)
(-6.1184e-08 -1.70594e-07 0)
(-6.16817e-08 -1.71705e-07 0)
(-6.2175e-08 -1.728e-07 0)
(-6.26638e-08 -1.73878e-07 0)
(-6.31484e-08 -1.7494e-07 0)
(-6.36288e-08 -1.75987e-07 0)
(-6.41049e-08 -1.77018e-07 0)
(-6.4577e-08 -1.78033e-07 0)
(-6.5045e-08 -1.79033e-07 0)
(-6.55091e-08 -1.80018e-07 0)
(-6.59694e-08 -1.80987e-07 0)
(-6.64261e-08 -1.81942e-07 0)
(-6.68792e-08 -1.82882e-07 0)
(-6.73291e-08 -1.83807e-07 0)
(-6.77759e-08 -1.84719e-07 0)
(-6.82198e-08 -1.85617e-07 0)
(-6.86612e-08 -1.86501e-07 0)
(-6.91004e-08 -1.87373e-07 0)
(-6.95376e-08 -1.88232e-07 0)
(-6.99732e-08 -1.89079e-07 0)
(-7.04075e-08 -1.89915e-07 0)
(-7.08408e-08 -1.90738e-07 0)
(-7.12736e-08 -1.91551e-07 0)
(-7.17059e-08 -1.92352e-07 0)
(-7.21382e-08 -1.93143e-07 0)
(-7.25704e-08 -1.93921e-07 0)
(-7.30028e-08 -1.94688e-07 0)
(-7.34351e-08 -1.95443e-07 0)
(-7.38673e-08 -1.96184e-07 0)
(-7.42991e-08 -1.96911e-07 0)
(-7.47304e-08 -1.97622e-07 0)
(-7.5161e-08 -1.98318e-07 0)
(-7.5591e-08 -1.98996e-07 0)
(-7.60211e-08 -1.99659e-07 0)
(-7.64525e-08 -2.00306e-07 0)
(-7.68877e-08 -2.0094e-07 0)
(-7.73304e-08 -2.01565e-07 0)
(-7.77851e-08 -2.02186e-07 0)
(-7.82575e-08 -2.02809e-07 0)
(-7.87528e-08 -2.03436e-07 0)
(-7.92753e-08 -2.0407e-07 0)
(-7.98247e-08 -2.04707e-07 0)
(-8.03914e-08 -2.05334e-07 0)
(-8.09484e-08 -2.05919e-07 0)
(-8.14481e-08 -2.06417e-07 0)
(-8.1837e-08 -2.0678e-07 0)
(-8.20864e-08 -2.06998e-07 0)
(-8.22131e-08 -2.07099e-07 0)
(-8.22668e-08 -2.07136e-07 0)
(-8.22972e-08 -2.07149e-07 0)
(-8.23342e-08 -2.0718e-07 0)
(-8.24184e-08 -2.07282e-07 0)
(-8.24663e-08 -2.07309e-07 0)
(-8.25003e-08 -2.07315e-07 0)
(-8.25666e-08 -2.07311e-07 0)
(-0.0173158 -1.70588e-05 0)
(-0.113128 -0.000244047 0)
(-0.208435 -0.000312898 0)
(-0.284481 -0.000359335 0)
(-0.347258 -0.000380194 0)
(-0.400108 -0.000392028 0)
(-0.445298 -0.000391147 0)
(-0.484434 -0.000376403 0)
(-0.518703 -0.000347254 0)
(-0.54901 -0.000303495 0)
(-0.57606 -0.000245174 0)
(-0.600409 -0.000172586 0)
(-0.622491 -8.62247e-05 0)
(-0.642654 1.32918e-05 0)
(-0.661172 0.000125224 0)
(-0.678267 0.000248753 0)
(-0.694114 0.000383036 0)
(-0.708856 0.000527205 0)
(-0.72261 0.000680352 0)
(-0.73547 0.00084153 0)
(-0.747514 0.00100975 0)
(-0.758808 0.00118393 0)
(-0.769406 0.00136295 0)
(-0.779352 0.00154553 0)
(-0.788686 0.00173025 0)
(-0.797442 0.00191554 0)
(-0.805648 0.00209955 0)
(-0.813331 0.00228018 0)
(-0.820515 0.00245477 0)
(-0.827222 0.00261964 0)
(-0.833474 0.00276919 0)
(-0.839293 0.00289506 0)
(-0.844701 0.00298631 0)
(-0.849723 0.00303125 0)
(-0.854383 0.00302077 0)
(-0.858708 0.00295153 0)
(-0.862726 0.002827 0)
(-0.866462 0.00265617 0)
(-0.869941 0.00245081 0)
(-0.873186 0.00222295 0)
(-0.876214 0.00198323 0)
(-0.879045 0.00174023 0)
(-0.881691 0.00150048 0)
(-0.884167 0.00126865 0)
(-0.886484 0.00104795 0)
(-0.888653 0.000840459 0)
(-0.890682 0.000647379 0)
(-0.892582 0.000469295 0)
(-0.894359 0.00030633 0)
(-0.896022 0.000158269 0)
(-0.897577 2.46681e-05 0)
(-0.89903 -9.50834e-05 0)
(-0.900388 -0.000201702 0)
(-0.901657 -0.000295972 0)
(-0.902854 -0.000379546 0)
(-0.903993 -0.000453588 0)
(-0.905074 -0.000518402 0)
(-0.9061 -0.000574353 0)
(-0.907072 -0.000621856 0)
(-0.907991 -0.000661362 0)
(-0.908859 -0.000693346 0)
(-0.909677 -0.0007183 0)
(-0.910448 -0.000736712 0)
(-0.911173 -0.000749066 0)
(-0.911855 -0.000755828 0)
(-0.912494 -0.000757444 0)
(-0.913092 -0.000754332 0)
(-0.913652 -0.000746886 0)
(-0.914176 -0.000735469 0)
(-0.914664 -0.00072042 0)
(-0.915119 -0.000702051 0)
(-0.915543 -0.000680648 0)
(-0.915937 -0.000656467 0)
(-0.916303 -0.000629734 0)
(-0.916641 -0.000600632 0)
(-0.916955 -0.000569298 0)
(-0.917244 -0.00053581 0)
(-0.917511 -0.00050019 0)
(-0.917756 -0.000462432 0)
(-0.91798 -0.000422599 0)
(-0.918184 -0.000381086 0)
(-0.918369 -0.000339124 0)
(-0.918537 -0.000299618 0)
(-0.91869 -0.000268129 0)
(-0.918831 -0.000252888 0)
(-0.918961 -0.000260795 0)
(-0.919078 -0.000288482 0)
(-0.919175 -0.000321781 0)
(-0.919248 -0.000350473 0)
(-0.919326 -0.000376797 0)
(-0.932702 -0.000927425 0)
(-0.930874 -0.00116227 0)
(-0.929004 -0.00155939 0)
(-0.927087 -0.00187325 0)
(-0.925126 -0.00216105 0)
(-0.923123 -0.0024097 0)
(-0.921081 -0.00261782 0)
(-0.919003 -0.00278346 0)
(-0.916893 -0.00291738 0)
(-0.914755 -0.00292744 0)
(-0.912595 -0.00330611 0)
(-0.910384 -0.00236025 0)
(-0.90823 -0.00450303 0)
(-0.906013 -0.00021071 0)
(-0.90365 -0.010454 0)
(-0.901317 -0.0325653 0)
(-0.899337 -0.039662 0)
(-0.89703 -0.0396025 0)
(-0.894945 -0.0396072 0)
(-0.892893 -0.0396073 0)
(-0.890903 -0.0396073 0)
(-0.88899 -0.0396069 0)
(-0.887167 -0.039606 0)
(-0.885452 -0.0396046 0)
(-0.88386 -0.0396028 0)
(-0.882409 -0.0396005 0)
(-0.881115 -0.0395978 0)
(-0.879994 -0.0395947 0)
(-0.879061 -0.0395913 0)
(-0.878324 -0.0395877 0)
(-0.877785 -0.039584 0)
(-0.877463 -0.0395804 0)
(-0.877343 -0.0395772 0)
(-0.877397 -0.0395739 0)
(-0.877632 -0.0395711 0)
(-0.878018 -0.0395688 0)
(-0.878532 -0.0395668 0)
(-0.879143 -0.0395652 0)
(-0.87982 -0.0395637 0)
(-0.880524 -0.0395623 0)
(-0.881213 -0.0395607 0)
(-0.881838 -0.0395581 0)
(-0.882235 -0.039554 0)
(-0.882327 -0.0395509 0)
(-0.882331 -0.0395501 0)
(-0.882331 -0.0395501 0)
(-0.882331 -0.0395501 0)
(-0.882331 -0.0395501 0)
(-0.882331 -0.0395501 0)
(-0.882331 -0.0395501 0)
(-0.882331 -0.0395501 0)
(-0.882331 -0.0395501 0)
(-0.882331 -0.0395501 0)
(-0.882331 -0.0395501 0)
(-0.882331 -0.0395501 0)
(-0.882331 -0.0395501 0)
(-0.882331 -0.0395501 0)
(-0.882331 -0.0395501 0)
(-0.882331 -0.0395501 0)
(-0.882331 -0.0395501 0)
(-0.882331 -0.0395501 0)
(-0.882331 -0.0395501 0)
(-0.882331 -0.0395501 0)
(-0.882331 -0.0395501 0)
(-0.882331 -0.0395501 0)
(-0.882331 -0.0395501 0)
(-0.882331 -0.0395501 0)
(-0.882331 -0.0395501 0)
(-0.882331 -0.0395501 0)
(-0.882331 -0.0395501 0)
(-0.882331 -0.0395501 0)
(-0.882331 -0.0395501 0)
(-0.882331 -0.0395501 0)
(-0.882331 -0.0395501 0)
(-0.882331 -0.0395501 0)
(-0.882331 -0.0395501 0)
(-0.882331 -0.0395501 0)
(-0.882331 -0.0395501 0)
(-0.882331 -0.0395501 0)
(-0.882331 -0.0395501 0)
(-0.882331 -0.0395501 0)
(-0.882331 -0.0395501 0)
(-0.882331 -0.0395501 0)
(-0.882331 -0.0395501 0)
(-0.882331 -0.0395501 0)
(-0.882331 -0.0395501 0)
(-0.882331 -0.0395501 0)
(-0.882331 -0.0395501 0)
(-0.882331 -0.0395501 0)
(-0.882331 -0.0395501 0)
(-0.882331 -0.0395501 0)
(-0.882331 -0.0395501 0)
(-0.882331 -0.0395501 0)
(-0.882331 -0.0395501 0)
(-0.882331 -0.0395501 0)
(-0.882331 -0.0395501 0)
(-0.882331 -0.0395501 0)
(-0.882331 -0.0395501 0)
(-0.882331 -0.0395501 0)
(-0.882331 -0.0395501 0)
(-0.882331 -0.0395501 0)
(-0.882331 -0.0395501 0)
(-0.882331 -0.0395501 0)
(-0.882331 -0.0395501 0)
(-0.882331 -0.0395501 0)
(-0.882331 -0.0395501 0)
(-0.882331 -0.0395501 0)
(-0.882331 -0.0395501 0)
(-0.882331 -0.0395501 0)
(-0.882331 -0.0395501 0)
(-0.882331 -0.0395501 0)
(-0.882331 -0.0395501 0)
(-0.882331 -0.0395501 0)
(-0.882331 -0.0395501 0)
(-0.882331 -0.0395501 0)
(-0.882331 -0.0395501 0)
(-0.882331 -0.0395501 0)
(-0.882331 -0.0395501 0)
(-0.882331 -0.0395501 0)
(-0.882331 -0.0395499 0)
(-0.882331 -0.0395414 0)
(-0.882331 -0.0391968 0)
(-0.882326 -0.0225003 0)
)
;

boundaryField
{
    inandouthalf11
    {
        type            cyclic;
    }
    inandouthalf12
    {
        type            cyclic;
    }
    inandouthalf21
    {
        type            cyclic;
    }
    inandouthalf22
    {
        type            cyclic;
    }
    inandouthalf31
    {
        type            cyclic;
    }
    inandouthalf32
    {
        type            cyclic;
    }
    inandouthalf41
    {
        type            cyclic;
    }
    inandouthalf42
    {
        type            cyclic;
    }
    top
    {
        type            symmetryPlane;
    }
    walls
    {
        type            fixedValue;
        value           uniform (0 0 0);
    }
    frontAndBackPlanes
    {
        type            empty;
    }
}


// ************************************************************************* //
