/*--------------------------------*- C++ -*----------------------------------*\
| =========                 |                                                 |
| \\      /  F ield         | OpenFOAM: The Open Source CFD Toolbox           |
|  \\    /   O peration     | Version:  2.4.x                                 |
|   \\  /    A nd           | Web:      www.OpenFOAM.org                      |
|    \\/     M anipulation  |                                                 |
\*---------------------------------------------------------------------------*/
FoamFile
{
    version     2.0;
    format      ascii;
    class       volVectorField;
    location    "4.6";
    object      ddt0(Ub);
}
// * * * * * * * * * * * * * * * * * * * * * * * * * * * * * * * * * * * * * //

dimensions      [0 1 -2 0 0 0 0];

internalField   nonuniform List<vector> 
360
(
(8.56611e-05 -2.38077e-08 0)
(8.54137e-05 -1.1674e-07 0)
(8.53355e-05 -2.53039e-07 0)
(8.53944e-05 -3.79937e-07 0)
(8.54553e-05 -4.95384e-07 0)
(8.55014e-05 -6.08433e-07 0)
(8.55454e-05 -7.25863e-07 0)
(8.55903e-05 -8.48963e-07 0)
(8.56349e-05 -9.75748e-07 0)
(8.56805e-05 -1.10423e-06 0)
(8.57273e-05 -1.23404e-06 0)
(8.57747e-05 -1.36605e-06 0)
(8.58229e-05 -1.50165e-06 0)
(8.58717e-05 -1.64219e-06 0)
(8.59215e-05 -1.78888e-06 0)
(8.59727e-05 -1.943e-06 0)
(8.60257e-05 -2.1058e-06 0)
(8.60804e-05 -2.2781e-06 0)
(8.61369e-05 -2.45966e-06 0)
(8.61952e-05 -2.64858e-06 0)
(8.62539e-05 -2.84045e-06 0)
(8.63124e-05 -3.02838e-06 0)
(8.63687e-05 -3.20328e-06 0)
(8.6421e-05 -3.35533e-06 0)
(8.64676e-05 -3.47665e-06 0)
(8.65078e-05 -3.56503e-06 0)
(8.65427e-05 -3.62773e-06 0)
(8.6576e-05 -3.68442e-06 0)
(8.66134e-05 -3.76805e-06 0)
(8.66635e-05 -3.92468e-06 0)
(8.67377e-05 -4.21344e-06 0)
(8.68503e-05 -4.70808e-06 0)
(8.70177e-05 -5.49506e-06 0)
(8.7259e-05 -6.65694e-06 0)
(8.75797e-05 -8.19871e-06 0)
(8.79435e-05 -9.87776e-06 0)
(8.82181e-05 -1.10089e-05 0)
(8.81832e-05 -1.06296e-05 0)
(8.77205e-05 -8.34276e-06 0)
(8.7041e-05 -5.0595e-06 0)
(8.65114e-05 -2.29821e-06 0)
(8.62588e-05 -7.72846e-07 0)
(8.61801e-05 -1.8978e-07 0)
(8.61657e-05 -2.50779e-08 0)
(8.61674e-05 1.32929e-08 0)
(8.61733e-05 2.17797e-08 0)
(8.61807e-05 2.37448e-08 0)
(8.61881e-05 2.41707e-08 0)
(8.61969e-05 2.41393e-08 0)
(8.62069e-05 2.38938e-08 0)
(8.62167e-05 2.34892e-08 0)
(8.62277e-05 2.29509e-08 0)
(8.62393e-05 2.23047e-08 0)
(8.62519e-05 2.15871e-08 0)
(8.62649e-05 2.08491e-08 0)
(8.62794e-05 2.0131e-08 0)
(8.62941e-05 1.94556e-08 0)
(8.63103e-05 1.88341e-08 0)
(8.6327e-05 1.82477e-08 0)
(8.63442e-05 1.76869e-08 0)
(8.6363e-05 1.7135e-08 0)
(8.63819e-05 1.65798e-08 0)
(8.64018e-05 1.60176e-08 0)
(8.6422e-05 1.54399e-08 0)
(8.64428e-05 1.48405e-08 0)
(8.64639e-05 1.42194e-08 0)
(8.6486e-05 1.35768e-08 0)
(8.65087e-05 1.29118e-08 0)
(8.65322e-05 1.22264e-08 0)
(8.65564e-05 1.15195e-08 0)
(8.6582e-05 1.07868e-08 0)
(8.66086e-05 1.00225e-08 0)
(8.66355e-05 9.23157e-09 0)
(8.66637e-05 8.41304e-09 0)
(8.66925e-05 7.56382e-09 0)
(8.67221e-05 6.68313e-09 0)
(8.67521e-05 5.77465e-09 0)
(8.67828e-05 4.84191e-09 0)
(8.68143e-05 3.88647e-09 0)
(8.68465e-05 2.91565e-09 0)
(8.68794e-05 1.93006e-09 0)
(8.69133e-05 9.23864e-10 0)
(8.69482e-05 -1.03346e-10 0)
(8.69839e-05 -1.1504e-09 0)
(8.70206e-05 -2.22018e-09 0)
(8.70582e-05 -3.31386e-09 0)
(8.70966e-05 -4.43269e-09 0)
(8.71359e-05 -5.57568e-09 0)
(8.7176e-05 -6.74284e-09 0)
(8.72169e-05 -7.93062e-09 0)
(8.72587e-05 -9.14105e-09 0)
(8.73015e-05 -1.03737e-08 0)
(8.73453e-05 -1.16227e-08 0)
(8.73902e-05 -1.28863e-08 0)
(8.74361e-05 -1.41633e-08 0)
(8.74831e-05 -1.5454e-08 0)
(8.75312e-05 -1.67614e-08 0)
(8.75805e-05 -1.80814e-08 0)
(8.7631e-05 -1.94148e-08 0)
(8.76826e-05 -2.07578e-08 0)
(8.77355e-05 -2.21123e-08 0)
(8.77896e-05 -2.34755e-08 0)
(8.78451e-05 -2.4846e-08 0)
(8.7902e-05 -2.62281e-08 0)
(8.79603e-05 -2.76073e-08 0)
(8.80201e-05 -2.89835e-08 0)
(8.80815e-05 -3.03663e-08 0)
(8.81444e-05 -3.17525e-08 0)
(8.8209e-05 -3.31348e-08 0)
(8.82754e-05 -3.45147e-08 0)
(8.83436e-05 -3.58908e-08 0)
(8.84137e-05 -3.72567e-08 0)
(8.84859e-05 -3.86168e-08 0)
(8.856e-05 -3.99721e-08 0)
(8.86364e-05 -4.13168e-08 0)
(8.8715e-05 -4.26468e-08 0)
(8.8796e-05 -4.39695e-08 0)
(8.88795e-05 -4.52853e-08 0)
(8.89657e-05 -4.65912e-08 0)
(8.90545e-05 -4.78914e-08 0)
(8.91462e-05 -4.91839e-08 0)
(8.9241e-05 -5.04719e-08 0)
(8.93389e-05 -5.17525e-08 0)
(8.94401e-05 -5.30255e-08 0)
(8.95448e-05 -5.42892e-08 0)
(8.96532e-05 -5.55362e-08 0)
(8.97655e-05 -5.67693e-08 0)
(8.98821e-05 -5.79754e-08 0)
(9.00034e-05 -5.91401e-08 0)
(9.01296e-05 -6.02537e-08 0)
(9.02611e-05 -6.13043e-08 0)
(9.0398e-05 -6.22844e-08 0)
(9.05411e-05 -6.31839e-08 0)
(9.06919e-05 -6.39932e-08 0)
(9.08522e-05 -6.47174e-08 0)
(9.10221e-05 -6.53629e-08 0)
(9.12005e-05 -6.59337e-08 0)
(9.139e-05 -6.64368e-08 0)
(9.16e-05 -6.68584e-08 0)
(9.18414e-05 -6.71843e-08 0)
(9.21037e-05 -6.74722e-08 0)
(9.23537e-05 -6.76636e-08 0)
(9.26512e-05 -6.7746e-08 0)
(9.30383e-05 -6.79297e-08 0)
(9.35156e-05 -7.30328e-08 0)
(9.43621e-05 2.68759e-07 0)
(0.000130034 -5.69003e-06 0)
(0.0118656 0.000124766 0)
(0.0219368 0.000694561 0)
(0.0294729 0.000552774 0)
(0.0381737 0.000512558 0)
(0.047021 0.000456264 0)
(0.0558395 0.000389077 0)
(0.0645172 0.000338001 0)
(0.0729535 0.000301562 0)
(0.0810705 0.000262582 0)
(0.0888077 0.00022792 0)
(0.0961222 0.000197962 0)
(0.102987 0.000171837 0)
(0.109387 0.000148805 0)
(0.115314 0.000128352 0)
(0.120762 0.000110116 0)
(0.125728 9.38219e-05 0)
(0.130206 7.92574e-05 0)
(0.134188 6.6254e-05 0)
(0.137662 5.46754e-05 0)
(0.140613 4.44075e-05 0)
(0.14302 3.53504e-05 0)
(0.144855 2.74149e-05 0)
(0.146085 2.05218e-05 0)
(0.146673 1.45964e-05 0)
(0.146572 9.54972e-06 0)
(0.14573 5.24985e-06 0)
(0.144089 1.52818e-06 0)
(0.141588 -1.72934e-06 0)
(0.138161 -4.44682e-06 0)
(0.133747 -6.34666e-06 0)
(0.128296 -7.16643e-06 0)
(0.121784 -6.92885e-06 0)
(0.114216 -5.98081e-06 0)
(0.105645 -4.77639e-06 0)
(0.0961716 -3.64569e-06 0)
(0.0859474 -2.72959e-06 0)
(0.0751762 -2.03973e-06 0)
(0.064101 -1.53609e-06 0)
(0.0529862 -1.17253e-06 0)
(0.0420913 -9.12016e-07 0)
(0.0316453 -7.28293e-07 0)
(0.0218258 -6.02348e-07 0)
(0.012748 -5.16563e-07 0)
(0.00446535 -4.51157e-07 0)
(-0.00302121 -3.88744e-07 0)
(-0.00974963 -3.23399e-07 0)
(-0.0157824 -2.61668e-07 0)
(-0.0211944 -2.11909e-07 0)
(-0.0260638 -1.74998e-07 0)
(-0.0304655 -1.46399e-07 0)
(-0.034468 -1.22753e-07 0)
(-0.0381312 -1.03454e-07 0)
(-0.0415067 -8.80881e-08 0)
(-0.0446377 -7.51563e-08 0)
(-0.04759 -6.35334e-08 0)
(-0.0504149 -5.38776e-08 0)
(-0.0531294 -4.67222e-08 0)
(-0.0557482 -4.05316e-08 0)
(-0.0582838 -3.41881e-08 0)
(-0.0607464 -2.89641e-08 0)
(-0.0631446 -2.54927e-08 0)
(-0.0654854 -2.23123e-08 0)
(-0.0677746 -1.89611e-08 0)
(-0.070017 -1.63559e-08 0)
(-0.0722165 -1.43859e-08 0)
(-0.0743764 -1.25104e-08 0)
(-0.0764992 -1.09016e-08 0)
(-0.0785873 -9.54886e-09 0)
(-0.0806423 -8.29531e-09 0)
(-0.0826657 -7.34227e-09 0)
(-0.0846587 -6.60848e-09 0)
(-0.0866219 -5.81713e-09 0)
(-0.088556 -5.12916e-09 0)
(-0.0904611 -4.66651e-09 0)
(-0.0923371 -4.24815e-09 0)
(-0.0941834 -3.83911e-09 0)
(-0.0959989 -3.49798e-09 0)
(-0.0977822 -3.21901e-09 0)
(-0.099531 -2.99542e-09 0)
(-0.101242 -2.79333e-09 0)
(-0.102913 -2.61482e-09 0)
(-0.104537 -2.48572e-09 0)
(-0.10611 -2.37612e-09 0)
(-0.107623 -2.26608e-09 0)
(-0.109066 -2.16216e-09 0)
(-0.110428 -2.07507e-09 0)
(-0.111692 -2.02583e-09 0)
(-0.11284 -2.02456e-09 0)
(-0.113845 -1.89656e-09 0)
(-0.114673 -2.20928e-09 0)
(-0.115278 -1.51167e-09 0)
(-0.115594 -2.4509e-09 0)
(-0.115523 -8.60355e-10 0)
(-0.114912 -3.12937e-09 0)
(-0.113529 -9.31193e-11 0)
(-0.110989 -3.74859e-09 0)
(-0.103088 4.96491e-10 0)
(-0.0926243 -4.08128e-09 0)
(-0.0911518 8.0508e-10 0)
(-0.0911201 -4.20989e-09 0)
(-0.0911196 1.04771e-09 0)
(-0.0911196 -4.31911e-09 0)
(-0.0911196 1.31651e-09 0)
(-0.0911195 -4.43318e-09 0)
(-0.0911195 1.60872e-09 0)
(-0.0911195 -4.55544e-09 0)
(-0.0911195 1.92636e-09 0)
(-0.0911195 -4.68328e-09 0)
(-0.0911194 2.27058e-09 0)
(-0.0911194 -4.8169e-09 0)
(-0.0911194 2.6357e-09 0)
(-0.0911194 -4.96243e-09 0)
(-0.0911194 3.01939e-09 0)
(-0.0911194 -5.12233e-09 0)
(-0.0911194 3.41718e-09 0)
(-0.0911194 -5.30073e-09 0)
(-0.0911194 3.82382e-09 0)
(-0.0911194 -5.50441e-09 0)
(-0.0911194 4.22796e-09 0)
(-0.0911194 -5.74321e-09 0)
(-0.0911194 4.63216e-09 0)
(-0.0911194 -6.01064e-09 0)
(-0.0911194 5.04062e-09 0)
(-0.0911194 -6.30154e-09 0)
(-0.0911194 5.45654e-09 0)
(-0.0911194 -6.61603e-09 0)
(-0.0911194 5.87917e-09 0)
(-0.0911194 -6.95335e-09 0)
(-0.0911194 6.31574e-09 0)
(-0.0911194 -7.30591e-09 0)
(-0.0911194 6.76805e-09 0)
(-0.0911194 -7.67428e-09 0)
(-0.0911194 7.23716e-09 0)
(-0.0911194 -8.05861e-09 0)
(-0.0911194 7.71839e-09 0)
(-0.0911194 -8.46628e-09 0)
(-0.0911194 8.21137e-09 0)
(-0.0911194 -8.89181e-09 0)
(-0.0911194 8.71924e-09 0)
(-0.0911194 -9.33578e-09 0)
(-0.0911194 9.24592e-09 0)
(-0.0911194 -9.79737e-09 0)
(-0.0911194 9.78592e-09 0)
(-0.0911194 -1.0279e-08 0)
(-0.0911194 1.03416e-08 0)
(-0.0911194 -1.07808e-08 0)
(-0.0911194 1.09107e-08 0)
(-0.0911194 -1.13028e-08 0)
(-0.0911194 1.15002e-08 0)
(-0.0911194 -1.18447e-08 0)
(-0.0911194 1.20933e-08 0)
(-0.0911194 -1.24186e-08 0)
(-0.0911194 1.27026e-08 0)
(-0.0911194 -1.30112e-08 0)
(-0.0911194 1.33241e-08 0)
(-0.0911194 -1.36304e-08 0)
(-0.0911194 1.39598e-08 0)
(-0.0911194 -1.42696e-08 0)
(-0.0911194 1.46133e-08 0)
(-0.0911194 -1.49315e-08 0)
(-0.0911194 1.5276e-08 0)
(-0.0911194 -1.56241e-08 0)
(-0.0911194 1.5948e-08 0)
(-0.0911194 -1.43424e-08 0)
(-0.0911194 1.43001e-08 0)
(-0.0911194 -1.44152e-08 0)
(-0.0911194 1.43161e-08 0)
(-0.0911194 -1.44852e-08 0)
(-0.0911194 1.43189e-08 0)
(-0.0911194 -1.45504e-08 0)
(-0.0911194 1.43116e-08 0)
(-0.0911194 -1.46095e-08 0)
(-0.0911194 1.42926e-08 0)
(-0.0911194 -1.46713e-08 0)
(-0.0911194 1.42426e-08 0)
(-0.0911194 -1.47345e-08 0)
(-0.0911194 1.41838e-08 0)
(-0.0911194 -1.4801e-08 0)
(-0.0911194 1.40999e-08 0)
(-0.0911194 -1.48885e-08 0)
(-0.0911194 1.39308e-08 0)
(-0.0911194 -1.51755e-08 0)
(-0.0911194 1.33698e-08 0)
(-0.0911194 -1.58098e-08 0)
(-0.0911194 1.2668e-08 0)
(-0.0911194 -1.64244e-08 0)
(-0.0911194 1.19924e-08 0)
(-0.0911194 -1.69335e-08 0)
(-0.0911194 1.15108e-08 0)
(-0.0911194 -1.73081e-08 0)
(-0.0911194 1.09273e-08 0)
(-0.0911194 -1.77023e-08 0)
(-0.0911194 1.06485e-08 0)
(-0.0911194 -1.76764e-08 0)
(-0.0911194 1.06296e-08 0)
(-0.0911194 -1.73003e-08 0)
(-0.0911194 1.11804e-08 0)
(-0.0911194 -1.66087e-08 0)
(-0.0911194 1.13928e-08 0)
(-0.0911194 -1.60838e-08 0)
(-0.0911194 1.23287e-08 0)
(-0.0911194 -1.44598e-08 0)
(-0.0911194 1.41112e-08 0)
(-0.0911194 -1.1902e-08 0)
(-0.0911194 1.68556e-08 0)
(-0.0911194 -7.94371e-09 0)
(-0.0911194 2.24957e-08 0)
(-0.0911194 -1.48162e-09 0)
(-0.0911194 2.68756e-08 0)
(-0.0911194 3.80349e-09 0)
(-0.0911194 3.06242e-08 0)
(-0.0911194 -7.99402e-09 0)
(-0.0911194 1.18981e-08 0)
)
;

boundaryField
{
    inandouthalf11
    {
        type            cyclic;
    }
    inandouthalf12
    {
        type            cyclic;
    }
    inandouthalf21
    {
        type            cyclic;
    }
    inandouthalf22
    {
        type            cyclic;
    }
    inandouthalf31
    {
        type            cyclic;
    }
    inandouthalf32
    {
        type            cyclic;
    }
    inandouthalf41
    {
        type            cyclic;
    }
    inandouthalf42
    {
        type            cyclic;
    }
    top
    {
        type            symmetryPlane;
    }
    walls
    {
        type            calculated;
        value           uniform (0 0 0);
    }
    frontAndBackPlanes
    {
        type            empty;
    }
}


// ************************************************************************* //
