/*--------------------------------*- C++ -*----------------------------------*\
| =========                 |                                                 |
| \\      /  F ield         | OpenFOAM: The Open Source CFD Toolbox           |
|  \\    /   O peration     | Version:  2.4.x                                 |
|   \\  /    A nd           | Web:      www.OpenFOAM.org                      |
|    \\/     M anipulation  |                                                 |
\*---------------------------------------------------------------------------*/
FoamFile
{
    version     2.0;
    format      ascii;
    class       volVectorField;
    location    "4.6";
    object      ddt0(Ua);
}
// * * * * * * * * * * * * * * * * * * * * * * * * * * * * * * * * * * * * * //

dimensions      [0 1 -2 0 0 0 0];

internalField   nonuniform List<vector> 
360
(
(1.05015e-33 -8.60677e-33 0)
(2.00024e-08 6.8994e-08 0)
(4.93859e-08 1.65258e-07 0)
(7.59876e-08 2.45031e-07 0)
(1.00354e-07 3.16057e-07 0)
(1.24603e-07 3.87012e-07 0)
(1.4973e-07 4.61913e-07 0)
(1.7579e-07 5.40931e-07 0)
(2.02398e-07 6.22269e-07 0)
(2.29213e-07 7.04403e-07 0)
(2.56175e-07 7.87168e-07 0)
(2.83442e-07 8.71299e-07 0)
(3.1124e-07 9.57772e-07 0)
(3.3978e-07 1.04745e-06 0)
(3.69253e-07 1.14108e-06 0)
(3.99863e-07 1.23948e-06 0)
(4.31823e-07 1.3435e-06 0)
(4.65288e-07 1.45379e-06 0)
(5.00247e-07 1.57031e-06 0)
(5.36413e-07 1.69195e-06 0)
(5.73088e-07 1.81599e-06 0)
(6.09123e-07 1.93792e-06 0)
(6.42977e-07 2.05174e-06 0)
(6.72924e-07 2.15074e-06 0)
(6.97512e-07 2.22922e-06 0)
(7.16218e-07 2.28508e-06 0)
(7.30161e-07 2.32249e-06 0)
(7.42638e-07 2.35387e-06 0)
(7.5932e-07 2.40042e-06 0)
(7.88203e-07 2.49168e-06 0)
(8.39597e-07 2.66534e-06 0)
(9.26384e-07 2.96831e-06 0)
(1.06412e-06 3.45778e-06 0)
(1.26881e-06 4.19556e-06 0)
(1.54598e-06 5.21249e-06 0)
(1.85998e-06 6.39945e-06 0)
(2.08618e-06 7.32024e-06 0)
(2.01667e-06 7.19065e-06 0)
(1.54238e-06 5.54056e-06 0)
(8.70285e-07 3.1102e-06 0)
(3.50315e-07 1.22958e-06 0)
(1.01725e-07 3.45895e-07 0)
(2.1493e-08 6.79946e-08 0)
(1.60626e-09 1.02677e-09 0)
(-2.84857e-09 -1.35681e-08 0)
(-3.88425e-09 -1.68771e-08 0)
(-4.14232e-09 -1.76866e-08 0)
(-4.19427e-09 -1.78514e-08 0)
(-4.17301e-09 -1.77956e-08 0)
(-4.11011e-09 -1.76208e-08 0)
(-4.01131e-09 -1.73486e-08 0)
(-3.87761e-09 -1.69868e-08 0)
(-3.71299e-09 -1.65507e-08 0)
(-3.52629e-09 -1.60679e-08 0)
(-3.32912e-09 -1.55712e-08 0)
(-3.13197e-09 -1.5088e-08 0)
(-2.94153e-09 -1.46341e-08 0)
(-2.7599e-09 -1.42125e-08 0)
(-2.58565e-09 -1.38173e-08 0)
(-2.41546e-09 -1.34389e-08 0)
(-2.24543e-09 -1.30666e-08 0)
(-2.07211e-09 -1.26916e-08 0)
(-1.89293e-09 -1.23077e-08 0)
(-1.70627e-09 -1.19115e-08 0)
(-1.51135e-09 -1.15016e-08 0)
(-1.30787e-09 -1.10777e-08 0)
(-1.09566e-09 -1.06401e-08 0)
(-8.74516e-10 -1.01888e-08 0)
(-6.4405e-10 -9.72341e-09 0)
(-4.03633e-10 -9.24322e-09 0)
(-1.52315e-10 -8.74667e-09 0)
(1.10948e-10 -8.23192e-09 0)
(3.86927e-10 -7.69801e-09 0)
(6.76119e-10 -7.14441e-09 0)
(9.78706e-10 -6.57111e-09 0)
(1.29439e-09 -5.97908e-09 0)
(1.6224e-09 -5.37018e-09 0)
(1.96169e-09 -4.74679e-09 0)
(2.31135e-09 -4.11084e-09 0)
(2.67073e-09 -3.46364e-09 0)
(3.03959e-09 -2.80586e-09 0)
(3.41809e-09 -2.13728e-09 0)
(3.80687e-09 -1.45683e-09 0)
(4.20678e-09 -7.63168e-10 0)
(4.61868e-09 -5.49234e-11 0)
(5.04332e-09 6.6893e-10 0)
(5.48112e-09 1.40887e-09 0)
(5.93218e-09 2.16469e-09 0)
(6.39623e-09 2.93558e-09 0)
(6.8728e-09 3.72041e-09 0)
(7.36135e-09 4.51793e-09 0)
(7.86136e-09 5.32698e-09 0)
(8.37245e-09 6.14665e-09 0)
(8.89439e-09 6.97634e-09 0)
(9.42709e-09 7.81562e-09 0)
(9.97049e-09 8.66415e-09 0)
(1.05246e-08 9.52161e-09 0)
(1.10892e-08 1.03876e-08 0)
(1.16644e-08 1.12614e-08 0)
(1.22497e-08 1.21426e-08 0)
(1.28449e-08 1.30302e-08 0)
(1.34498e-08 1.39235e-08 0)
(1.40639e-08 1.48215e-08 0)
(1.46868e-08 1.57234e-08 0)
(1.53181e-08 1.66282e-08 0)
(1.59575e-08 1.75349e-08 0)
(1.66044e-08 1.84426e-08 0)
(1.72584e-08 1.93502e-08 0)
(1.79191e-08 2.02568e-08 0)
(1.8586e-08 2.11614e-08 0)
(1.92587e-08 2.20631e-08 0)
(1.99371e-08 2.29611e-08 0)
(2.06209e-08 2.38548e-08 0)
(2.13101e-08 2.47436e-08 0)
(2.20047e-08 2.56272e-08 0)
(2.27053e-08 2.65055e-08 0)
(2.34122e-08 2.73786e-08 0)
(2.41264e-08 2.82468e-08 0)
(2.4849e-08 2.91105e-08 0)
(2.55811e-08 2.99704e-08 0)
(2.63243e-08 3.08271e-08 0)
(2.708e-08 3.1681e-08 0)
(2.78494e-08 3.25321e-08 0)
(2.86335e-08 3.33798e-08 0)
(2.94322e-08 3.42225e-08 0)
(3.02449e-08 3.50573e-08 0)
(3.10693e-08 3.58803e-08 0)
(3.19021e-08 3.66863e-08 0)
(3.27384e-08 3.74687e-08 0)
(3.35714e-08 3.82201e-08 0)
(3.43932e-08 3.89322e-08 0)
(3.51949e-08 3.95968e-08 0)
(3.59692e-08 4.02078e-08 0)
(3.67119e-08 4.07627e-08 0)
(3.74224e-08 4.12627e-08 0)
(3.81024e-08 4.17105e-08 0)
(3.8754e-08 4.2108e-08 0)
(3.93802e-08 4.2457e-08 0)
(3.99834e-08 4.27607e-08 0)
(4.05567e-08 4.30205e-08 0)
(4.10663e-08 4.32262e-08 0)
(4.14568e-08 4.33571e-08 0)
(4.1703e-08 4.34176e-08 0)
(4.18325e-08 4.3436e-08 0)
(4.1896e-08 4.34343e-08 0)
(4.19379e-08 4.34202e-08 0)
(4.20055e-08 4.33967e-08 0)
(0.0110247 -0.000132066 0)
(0.0200818 -0.00137593 0)
(0.027302 -0.00182875 0)
(0.0357503 -0.00213462 0)
(0.0445724 -0.0022927 0)
(0.0534066 -0.00251629 0)
(0.0620955 -0.00274767 0)
(0.0705292 -0.00294104 0)
(0.0786042 -0.00318067 0)
(0.0862326 -0.00345265 0)
(0.0933427 -0.00375549 0)
(0.0998785 -0.00408698 0)
(0.105795 -0.00444351 0)
(0.111052 -0.00482082 0)
(0.115613 -0.00521436 0)
(0.119439 -0.00561879 0)
(0.122491 -0.00602788 0)
(0.124726 -0.00643438 0)
(0.126106 -0.00682987 0)
(0.126594 -0.00720461 0)
(0.126162 -0.00754726 0)
(0.124793 -0.00784473 0)
(0.122488 -0.00808262 0)
(0.119267 -0.00824574 0)
(0.115178 -0.00831542 0)
(0.110296 -0.00825746 0)
(0.104736 -0.00800256 0)
(0.0986521 -0.00744318 0)
(0.0922516 -0.00648179 0)
(0.0857801 -0.00512265 0)
(0.0794843 -0.00352613 0)
(0.0735566 -0.00195098 0)
(0.0680972 -0.000625499 0)
(0.0631183 0.000338419 0)
(0.0585773 0.000941717 0)
(0.0544132 0.00124731 0)
(0.0505687 0.00133388 0)
(0.047 0.00127219 0)
(0.0436771 0.00111848 0)
(0.0405815 0.000915772 0)
(0.037704 0.000697687 0)
(0.0350421 0.000492644 0)
(0.0325985 0.000325426 0)
(0.0303769 0.000211934 0)
(0.0283729 0.000149914 0)
(0.0265673 0.000119198 0)
(0.0249304 9.79715e-05 0)
(0.0234359 7.86035e-05 0)
(0.0220663 6.50937e-05 0)
(0.0208081 6.01928e-05 0)
(0.0196469 6.15742e-05 0)
(0.0185703 6.70729e-05 0)
(0.0175696 7.76019e-05 0)
(0.0166372 9.41711e-05 0)
(0.0157547 0.000113827 0)
(0.0149058 0.000132919 0)
(0.0140903 0.000155015 0)
(0.013308 0.000185887 0)
(0.0125485 0.000219559 0)
(0.0118049 0.000248371 0)
(0.0110837 0.000281359 0)
(0.0103839 0.000325446 0)
(0.00969325 0.000369425 0)
(0.00901235 0.000411429 0)
(0.00834532 0.000461795 0)
(0.00768516 0.00051659 0)
(0.00703077 0.000571886 0)
(0.00638382 0.000634975 0)
(0.00573776 0.00070062 0)
(0.00509551 0.000764422 0)
(0.00446216 0.000840505 0)
(0.00382739 0.000925362 0)
(0.00319195 0.00100418 0)
(0.00256449 0.00109041 0)
(0.0019387 0.00119029 0)
(0.00131347 0.00129227 0)
(0.000690178 0.00140056 0)
(6.77796e-05 0.00151316 0)
(-0.000548687 0.0016302 0)
(-0.00116615 0.00175962 0)
(-0.0017835 0.0018855 0)
(-0.00239324 0.00201023 0)
(-0.00300776 0.00214639 0)
(-0.00363155 0.00227699 0)
(-0.00426874 0.00238865 0)
(-0.00491461 0.00245508 0)
(-0.00553148 0.00245607 0)
(-0.00607365 0.00242194 0)
(-0.00651507 0.00237618 0)
(-0.00706141 0.00257056 0)
(-0.121199 0.0657401 0)
(-0.11739 0.000144348 0)
(-0.117161 3.35285e-05 0)
(-0.116316 8.61435e-06 0)
(-0.11455 -4.91409e-05 0)
(-0.111293 -0.000222619 0)
(-0.10108 -0.0003106 0)
(-0.0936985 -0.00018751 0)
(-0.0927877 -2.67248e-05 0)
(-0.0927683 -2.71002e-06 0)
(-0.0927694 -3.8651e-06 0)
(-0.0927693 -3.7821e-06 0)
(-0.0927692 -3.78563e-06 0)
(-0.0927692 -3.78625e-06 0)
(-0.0927692 -3.78453e-06 0)
(-0.0927692 -3.78571e-06 0)
(-0.0927692 -3.78398e-06 0)
(-0.0927691 -3.78536e-06 0)
(-0.0927691 -3.78359e-06 0)
(-0.0927691 -3.78513e-06 0)
(-0.0927691 -3.7833e-06 0)
(-0.0927691 -3.785e-06 0)
(-0.0927691 -3.78308e-06 0)
(-0.0927691 -3.78493e-06 0)
(-0.0927691 -3.7829e-06 0)
(-0.0927691 -3.7849e-06 0)
(-0.0927691 -3.78274e-06 0)
(-0.0927691 -3.7849e-06 0)
(-0.0927691 -3.78261e-06 0)
(-0.0927691 -3.78492e-06 0)
(-0.0927691 -3.78249e-06 0)
(-0.0927691 -3.78484e-06 0)
(-0.0927691 -3.7827e-06 0)
(-0.0927691 -3.78471e-06 0)
(-0.0927691 -3.78249e-06 0)
(-0.0927691 -3.78484e-06 0)
(-0.0927691 -3.78239e-06 0)
(-0.0927691 -3.78491e-06 0)
(-0.0927691 -3.78229e-06 0)
(-0.0927691 -3.78498e-06 0)
(-0.0927691 -3.78218e-06 0)
(-0.0927691 -3.78505e-06 0)
(-0.0927691 -3.78207e-06 0)
(-0.0927691 -3.78512e-06 0)
(-0.0927691 -3.78196e-06 0)
(-0.0927691 -3.78521e-06 0)
(-0.0927691 -3.78185e-06 0)
(-0.0927691 -3.78529e-06 0)
(-0.0927691 -3.78173e-06 0)
(-0.0927691 -3.78539e-06 0)
(-0.0927691 -3.78161e-06 0)
(-0.0927691 -3.78548e-06 0)
(-0.0927691 -3.78148e-06 0)
(-0.0927691 -3.78558e-06 0)
(-0.0927691 -3.78135e-06 0)
(-0.0927691 -3.78569e-06 0)
(-0.0927691 -3.78122e-06 0)
(-0.0927691 -3.7858e-06 0)
(-0.0927691 -3.78108e-06 0)
(-0.0927691 -3.78592e-06 0)
(-0.0927691 -3.78095e-06 0)
(-0.0927691 -3.78605e-06 0)
(-0.0927691 -3.78081e-06 0)
(-0.0927691 -3.78618e-06 0)
(-0.0927691 -3.78067e-06 0)
(-0.0927691 -3.78632e-06 0)
(-0.0927691 -3.78052e-06 0)
(-0.0927691 -3.78646e-06 0)
(-0.0927691 -3.78038e-06 0)
(-0.0927691 -3.78661e-06 0)
(-0.0927691 -3.78023e-06 0)
(-0.0927691 -3.78677e-06 0)
(-0.0927691 -3.78006e-06 0)
(-0.0927691 -3.78649e-06 0)
(-0.0927691 -3.78045e-06 0)
(-0.0927691 -3.78651e-06 0)
(-0.0927691 -3.78046e-06 0)
(-0.0927691 -3.78653e-06 0)
(-0.0927691 -3.78046e-06 0)
(-0.0927691 -3.78655e-06 0)
(-0.0927691 -3.78047e-06 0)
(-0.0927691 -3.78656e-06 0)
(-0.0927691 -3.78048e-06 0)
(-0.0927691 -3.78659e-06 0)
(-0.0927691 -3.7805e-06 0)
(-0.0927691 -3.78661e-06 0)
(-0.0927691 -3.78052e-06 0)
(-0.0927691 -3.78664e-06 0)
(-0.0927691 -3.78056e-06 0)
(-0.0927691 -3.78667e-06 0)
(-0.0927691 -3.78062e-06 0)
(-0.0927691 -3.78679e-06 0)
(-0.0927691 -3.78083e-06 0)
(-0.0927691 -3.78704e-06 0)
(-0.0927691 -3.7811e-06 0)
(-0.0927691 -3.78728e-06 0)
(-0.0927691 -3.78135e-06 0)
(-0.0927691 -3.78749e-06 0)
(-0.0927691 -3.78153e-06 0)
(-0.0927691 -3.78765e-06 0)
(-0.0927691 -3.78175e-06 0)
(-0.0927691 -3.78782e-06 0)
(-0.0927691 -3.78185e-06 0)
(-0.0927691 -3.78783e-06 0)
(-0.0927691 -3.78186e-06 0)
(-0.0927691 -3.78771e-06 0)
(-0.0927691 -3.78164e-06 0)
(-0.0927691 -3.78748e-06 0)
(-0.0927691 -3.78156e-06 0)
(-0.0927691 -3.78731e-06 0)
(-0.0927691 -3.78121e-06 0)
(-0.0927691 -3.78672e-06 0)
(-0.0927691 -3.78053e-06 0)
(-0.0927691 -3.78578e-06 0)
(-0.0927691 -3.77948e-06 0)
(-0.0927691 -3.78431e-06 0)
(-0.0927691 -3.77735e-06 0)
(-0.0927691 -3.7819e-06 0)
(-0.0927691 -3.77556e-06 0)
(-0.0927691 -3.78033e-06 0)
(-0.0927696 -3.7779e-06 0)
(-0.0927814 -3.88086e-06 0)
(-0.0930533 -7.66791e-06 0)
)
;

boundaryField
{
    inandouthalf11
    {
        type            cyclic;
    }
    inandouthalf12
    {
        type            cyclic;
    }
    inandouthalf21
    {
        type            cyclic;
    }
    inandouthalf22
    {
        type            cyclic;
    }
    inandouthalf31
    {
        type            cyclic;
    }
    inandouthalf32
    {
        type            cyclic;
    }
    inandouthalf41
    {
        type            cyclic;
    }
    inandouthalf42
    {
        type            cyclic;
    }
    top
    {
        type            symmetryPlane;
    }
    walls
    {
        type            calculated;
        value           uniform (0 0 0);
    }
    frontAndBackPlanes
    {
        type            empty;
    }
}


// ************************************************************************* //
