/*--------------------------------*- C++ -*----------------------------------*\
| =========                 |                                                 |
| \\      /  F ield         | OpenFOAM: The Open Source CFD Toolbox           |
|  \\    /   O peration     | Version:  2.4.x                                 |
|   \\  /    A nd           | Web:      www.OpenFOAM.org                      |
|    \\/     M anipulation  |                                                 |
\*---------------------------------------------------------------------------*/
FoamFile
{
    version     2.0;
    format      ascii;
    class       surfaceScalarField;
    location    "4.6";
    object      ddt0(phib);
}
// * * * * * * * * * * * * * * * * * * * * * * * * * * * * * * * * * * * * * //

dimensions      [0 3 -2 0 0 0 0];

internalField   nonuniform List<scalar> 
359
(
-2.15988e-13
-7.42977e-13
-1.28164e-12
-1.75804e-12
-2.20518e-12
-2.66238e-12
-3.1446e-12
-3.64715e-12
-4.15896e-12
-4.67509e-12
-5.19744e-12
-5.73116e-12
-6.2822e-12
-6.85546e-12
-7.45578e-12
-8.08845e-12
-8.75819e-12
-9.46686e-12
-1.02107e-11
-1.09781e-11
-1.17457e-11
-1.24813e-11
-1.31448e-11
-1.36975e-11
-1.41153e-11
-1.44046e-11
-1.46172e-11
-1.48585e-11
-1.5287e-11
-1.61127e-11
-1.7599e-11
-2.00724e-11
-2.38987e-11
-2.93692e-11
-3.6228e-11
-4.27839e-11
-4.52541e-11
-3.97233e-11
-2.69745e-11
-1.35177e-11
-4.90924e-12
-1.29962e-12
-2.28495e-13
2.49693e-14
8.06444e-14
9.34196e-14
9.65006e-14
9.68594e-14
9.62448e-14
9.49026e-14
9.30123e-14
9.0593e-14
8.78443e-14
8.48555e-14
8.1938e-14
7.91103e-14
7.65383e-14
7.41311e-14
7.18555e-14
6.96386e-14
6.74394e-14
6.52e-14
6.29378e-14
6.05817e-14
5.81425e-14
5.56137e-14
5.29997e-14
5.02939e-14
4.75195e-14
4.4637e-14
4.16513e-14
3.85293e-14
3.53236e-14
3.19782e-14
2.85306e-14
2.49326e-14
2.12659e-14
1.74689e-14
1.36216e-14
9.70338e-15
5.73708e-15
1.65215e-15
-2.48042e-15
-6.72452e-15
-1.10387e-14
-1.54742e-14
-1.99893e-14
-2.46174e-14
-2.93268e-14
-3.41198e-14
-3.901e-14
-4.39814e-14
-4.90024e-14
-5.40904e-14
-5.9218e-14
-6.44166e-14
-6.96769e-14
-7.49766e-14
-8.03442e-14
-8.57206e-14
-9.11806e-14
-9.66258e-14
-1.02145e-13
-1.07683e-13
-1.13179e-13
-1.18693e-13
-1.24241e-13
-1.29782e-13
-1.353e-13
-1.40822e-13
-1.46308e-13
-1.51749e-13
-1.5719e-13
-1.62591e-13
-1.67948e-13
-1.73231e-13
-1.7853e-13
-1.83758e-13
-1.88977e-13
-1.9416e-13
-1.99317e-13
-2.04465e-13
-2.09561e-13
-2.1465e-13
-2.1967e-13
-2.24626e-13
-2.29534e-13
-2.34276e-13
-2.38853e-13
-2.43185e-13
-2.47256e-13
-2.51021e-13
-2.5445e-13
-2.57505e-13
-2.60255e-13
-2.62656e-13
-2.64781e-13
-2.6666e-13
-2.68252e-13
-2.69432e-13
-2.70217e-13
-2.70745e-13
-2.71138e-13
-2.71802e-13
-2.80849e-13
-2.82479e-13
5.3455e-11
2.32156e-09
2.27135e-09
2.12162e-09
1.91604e-09
1.68417e-09
1.46307e-09
1.29366e-09
1.12537e-09
9.7811e-10
8.50275e-10
7.3883e-10
6.40847e-10
5.54045e-10
4.76763e-10
4.07767e-10
3.46087e-10
2.90974e-10
2.41823e-10
1.98141e-10
1.59499e-10
1.2552e-10
9.58611e-11
7.02105e-11
4.82543e-11
2.95907e-11
1.36363e-11
-2.49844e-13
-1.22664e-11
-2.16912e-11
-2.72473e-11
-2.83293e-11
-2.57891e-11
-2.13957e-11
-1.67433e-11
-1.27041e-11
-9.53054e-12
-7.15837e-12
-5.42645e-12
-4.17665e-12
-3.28457e-12
-2.66075e-12
-2.23625e-12
-1.93899e-12
-1.68879e-12
-1.4304e-12
-1.16794e-12
-9.41958e-13
-7.72602e-13
-6.44725e-13
-5.393e-13
-4.51666e-13
-3.82558e-13
-3.27458e-13
-2.78432e-13
-2.33774e-13
-2.00349e-13
-1.7621e-13
-1.50492e-13
-1.2466e-13
-1.08563e-13
-9.72502e-14
-8.24646e-14
-6.97661e-14
-6.20187e-14
-5.40367e-14
-4.64724e-14
-4.11881e-14
-3.5781e-14
-3.09295e-14
-2.81226e-14
-2.50758e-14
-2.16223e-14
-1.96023e-14
-1.79871e-14
-1.61244e-14
-1.46833e-14
-1.3432e-14
-1.24239e-14
-1.16336e-14
-1.0788e-14
-1.01912e-14
-9.75767e-15
-9.28875e-15
-8.8685e-15
-8.47559e-15
-8.18236e-15
-8.03742e-15
-7.97071e-15
-8.00409e-15
-7.8122e-15
-7.37328e-15
-7.30924e-15
-7.24775e-15
-7.16312e-15
-7.06732e-15
-6.97104e-15
-6.87078e-15
-6.76131e-15
-6.64187e-15
-6.50165e-15
-6.36773e-15
-6.19844e-15
-6.03566e-15
-5.86134e-15
-5.68009e-15
-5.48624e-15
-5.28673e-15
-5.06877e-15
-4.84244e-15
-4.62176e-15
-4.39057e-15
-4.15282e-15
-3.92676e-15
-3.69224e-15
-3.46913e-15
-3.24846e-15
-3.03845e-15
-2.8606e-15
-2.70022e-15
-2.54221e-15
-2.41198e-15
-2.28508e-15
-2.15967e-15
-2.0508e-15
-1.94248e-15
-1.84771e-15
-1.76413e-15
-1.66933e-15
-1.57845e-15
-1.48333e-15
-1.39455e-15
-1.30073e-15
-1.20283e-15
-1.11606e-15
-1.04253e-15
-9.69798e-16
-8.88166e-16
-8.23496e-16
-7.49033e-16
-6.70999e-16
-6.01168e-16
-5.34469e-16
-4.62688e-16
-4.02299e-16
-3.36463e-16
-2.87653e-16
-2.28705e-16
-1.6853e-16
-1.04346e-16
-7.81601e-17
-5.59616e-17
-4.06621e-17
-4.9115e-18
1.33213e-17
1.48328e-17
2.16737e-17
2.77056e-17
3.45257e-17
3.55837e-17
2.40953e-17
-1.78591e-17
-3.55049e-17
-8.64878e-17
-1.33176e-16
-1.81111e-16
-2.37513e-16
-2.97704e-16
-3.64341e-16
-4.34643e-16
-5.01147e-16
-5.71298e-16
-6.48475e-16
-7.2301e-16
-8.59117e-16
-9.73919e-16
-1.10467e-15
-1.20272e-15
-1.39867e-15
-1.55124e-15
-1.80121e-15
-2.255e-15
-3.52902e-15
-4.88449e-15
-6.33899e-15
-7.4607e-15
-8.9837e-15
-9.94734e-15
-1.09598e-14
-1.13298e-14
-1.29452e-14
-1.36604e-14
-1.43861e-14
-1.38811e-14
-1.44668e-14
-1.34508e-14
-1.25487e-14
-1.00933e-14
-1.09146e-14
-9.54579e-15
-8.21795e-15
-3.97739e-15
-1.45825e-15
4.20993e-15
1.01327e-14
1.51961e-14
2.97278e-14
4.1951e-14
5.45961e-14
5.24252e-14
8.57199e-14
5.44641e-14
-1.20297e-14
)
;

boundaryField
{
    inandouthalf11
    {
        type            cyclic;
        value           nonuniform List<scalar> 
100
(
-8.56611e-11
-8.54137e-11
-8.53355e-11
-8.53944e-11
-8.54553e-11
-8.55014e-11
-8.55454e-11
-8.55903e-11
-8.56349e-11
-8.56805e-11
-8.57273e-11
-8.57747e-11
-8.58229e-11
-8.58717e-11
-8.59215e-11
-8.59727e-11
-8.60257e-11
-8.60804e-11
-8.61369e-11
-8.61952e-11
-8.62539e-11
-8.63124e-11
-8.63687e-11
-8.6421e-11
-8.64676e-11
-8.65078e-11
-8.65427e-11
-8.6576e-11
-8.66134e-11
-8.66635e-11
-8.67377e-11
-8.68503e-11
-8.70177e-11
-8.7259e-11
-8.75797e-11
-8.79435e-11
-8.82181e-11
-8.81832e-11
-8.77205e-11
-8.7041e-11
-8.65114e-11
-8.62588e-11
-8.61801e-11
-8.61657e-11
-8.61674e-11
-8.61733e-11
-8.61807e-11
-8.61881e-11
-8.61969e-11
-8.62069e-11
-8.62167e-11
-8.62277e-11
-8.62393e-11
-8.62519e-11
-8.62649e-11
-8.62794e-11
-8.62941e-11
-8.63103e-11
-8.6327e-11
-8.63442e-11
-8.6363e-11
-8.63819e-11
-8.64018e-11
-8.6422e-11
-8.64428e-11
-8.64639e-11
-8.6486e-11
-8.65087e-11
-8.65322e-11
-8.65564e-11
-8.6582e-11
-8.66086e-11
-8.66355e-11
-8.66637e-11
-8.66925e-11
-8.67221e-11
-8.67521e-11
-8.67828e-11
-8.68143e-11
-8.68465e-11
-8.68794e-11
-8.69133e-11
-8.69482e-11
-8.69839e-11
-8.70206e-11
-8.70582e-11
-8.70966e-11
-8.71359e-11
-8.7176e-11
-8.72169e-11
-8.72587e-11
-8.73015e-11
-8.73453e-11
-8.73902e-11
-8.74361e-11
-8.74831e-11
-8.75312e-11
-8.75805e-11
-8.7631e-11
-8.76826e-11
)
;
    }
    inandouthalf12
    {
        type            cyclic;
        value           nonuniform List<scalar> 
100
(
8.56611e-11
8.54137e-11
8.53355e-11
8.53944e-11
8.54553e-11
8.55014e-11
8.55454e-11
8.55903e-11
8.56349e-11
8.56805e-11
8.57273e-11
8.57747e-11
8.58229e-11
8.58717e-11
8.59215e-11
8.59727e-11
8.60257e-11
8.60804e-11
8.61369e-11
8.61952e-11
8.62539e-11
8.63124e-11
8.63687e-11
8.6421e-11
8.64676e-11
8.65078e-11
8.65427e-11
8.6576e-11
8.66134e-11
8.66635e-11
8.67377e-11
8.68503e-11
8.70177e-11
8.7259e-11
8.75797e-11
8.79435e-11
8.82181e-11
8.81832e-11
8.77205e-11
8.7041e-11
8.65114e-11
8.62588e-11
8.61801e-11
8.61657e-11
8.61674e-11
8.61733e-11
8.61807e-11
8.61881e-11
8.61969e-11
8.62069e-11
8.62167e-11
8.62277e-11
8.62393e-11
8.62519e-11
8.62649e-11
8.62794e-11
8.62941e-11
8.63103e-11
8.6327e-11
8.63442e-11
8.6363e-11
8.63819e-11
8.64018e-11
8.6422e-11
8.64428e-11
8.64639e-11
8.6486e-11
8.65087e-11
8.65322e-11
8.65564e-11
8.6582e-11
8.66086e-11
8.66355e-11
8.66637e-11
8.66925e-11
8.67221e-11
8.67521e-11
8.67828e-11
8.68143e-11
8.68465e-11
8.68794e-11
8.69133e-11
8.69482e-11
8.69839e-11
8.70206e-11
8.70582e-11
8.70966e-11
8.71359e-11
8.7176e-11
8.72169e-11
8.72587e-11
8.73015e-11
8.73453e-11
8.73902e-11
8.74361e-11
8.74831e-11
8.75312e-11
8.75805e-11
8.7631e-11
8.76826e-11
)
;
    }
    inandouthalf21
    {
        type            cyclic;
        value           nonuniform List<scalar> 
100
(
-8.77355e-11
-8.77896e-11
-8.78451e-11
-8.7902e-11
-8.79603e-11
-8.80201e-11
-8.80815e-11
-8.81444e-11
-8.8209e-11
-8.82754e-11
-8.83436e-11
-8.84137e-11
-8.84859e-11
-8.856e-11
-8.86364e-11
-8.8715e-11
-8.8796e-11
-8.88795e-11
-8.89657e-11
-8.90545e-11
-8.91462e-11
-8.9241e-11
-8.93389e-11
-8.94401e-11
-8.95448e-11
-8.96532e-11
-8.97655e-11
-8.98821e-11
-9.00034e-11
-9.01296e-11
-9.02611e-11
-9.0398e-11
-9.05411e-11
-9.06919e-11
-9.08522e-11
-9.10221e-11
-9.12005e-11
-9.139e-11
-9.16e-11
-9.18414e-11
-9.21037e-11
-9.23537e-11
-9.26512e-11
-9.30383e-11
-9.35156e-11
-9.43621e-11
-1.30034e-10
-1.18656e-08
-2.19368e-08
-2.94729e-08
-3.81737e-08
-4.7021e-08
-5.58395e-08
-6.45172e-08
-7.29535e-08
-8.10705e-08
-8.88077e-08
-9.61222e-08
-1.02987e-07
-1.09387e-07
-1.15314e-07
-1.20762e-07
-1.25728e-07
-1.30206e-07
-1.34188e-07
-1.37662e-07
-1.40613e-07
-1.4302e-07
-1.44855e-07
-1.46085e-07
-1.46673e-07
-1.46572e-07
-1.4573e-07
-1.44089e-07
-1.41588e-07
-1.38161e-07
-1.33747e-07
-1.28296e-07
-1.21784e-07
-1.14216e-07
-1.05645e-07
-9.61716e-08
-8.59474e-08
-7.51762e-08
-6.4101e-08
-5.29862e-08
-4.20913e-08
-3.16453e-08
-2.18258e-08
-1.2748e-08
-4.46535e-09
3.02121e-09
9.74963e-09
1.57824e-08
2.11944e-08
2.60638e-08
3.04655e-08
3.4468e-08
3.81312e-08
4.15067e-08
)
;
    }
    inandouthalf22
    {
        type            cyclic;
        value           nonuniform List<scalar> 
100
(
8.77355e-11
8.77896e-11
8.78451e-11
8.7902e-11
8.79603e-11
8.80201e-11
8.80815e-11
8.81444e-11
8.8209e-11
8.82754e-11
8.83436e-11
8.84137e-11
8.84859e-11
8.856e-11
8.86364e-11
8.8715e-11
8.8796e-11
8.88795e-11
8.89657e-11
8.90545e-11
8.91462e-11
8.9241e-11
8.93389e-11
8.94401e-11
8.95448e-11
8.96532e-11
8.97655e-11
8.98821e-11
9.00034e-11
9.01296e-11
9.02611e-11
9.0398e-11
9.05411e-11
9.06919e-11
9.08522e-11
9.10221e-11
9.12005e-11
9.139e-11
9.16e-11
9.18414e-11
9.21037e-11
9.23537e-11
9.26512e-11
9.30383e-11
9.35156e-11
9.43621e-11
1.30034e-10
1.18656e-08
2.19368e-08
2.94729e-08
3.81737e-08
4.7021e-08
5.58395e-08
6.45172e-08
7.29535e-08
8.10705e-08
8.88077e-08
9.61222e-08
1.02987e-07
1.09387e-07
1.15314e-07
1.20762e-07
1.25728e-07
1.30206e-07
1.34188e-07
1.37662e-07
1.40613e-07
1.4302e-07
1.44855e-07
1.46085e-07
1.46673e-07
1.46572e-07
1.4573e-07
1.44089e-07
1.41588e-07
1.38161e-07
1.33747e-07
1.28296e-07
1.21784e-07
1.14216e-07
1.05645e-07
9.61716e-08
8.59474e-08
7.51762e-08
6.4101e-08
5.29862e-08
4.20913e-08
3.16453e-08
2.18258e-08
1.2748e-08
4.46535e-09
-3.02121e-09
-9.74963e-09
-1.57824e-08
-2.11944e-08
-2.60638e-08
-3.04655e-08
-3.4468e-08
-3.81312e-08
-4.15067e-08
)
;
    }
    inandouthalf31
    {
        type            cyclic;
        value           nonuniform List<scalar> 
110
(
4.46379e-08
4.85562e-08
5.24824e-08
5.64308e-08
6.04143e-08
6.44441e-08
6.85303e-08
7.26817e-08
7.69059e-08
8.12099e-08
8.55997e-08
9.00808e-08
9.4658e-08
9.93359e-08
1.04119e-07
1.0901e-07
1.14013e-07
1.19132e-07
1.24369e-07
1.29726e-07
1.35207e-07
1.40812e-07
1.46543e-07
1.52399e-07
1.58381e-07
1.64486e-07
1.7071e-07
1.77049e-07
1.83494e-07
1.90035e-07
1.96656e-07
2.03339e-07
2.10056e-07
2.16774e-07
2.23447e-07
2.30013e-07
2.36389e-07
2.42459e-07
2.48059e-07
2.52938e-07
2.56706e-07
2.58765e-07
2.5811e-07
2.44601e-07
2.24235e-07
2.25149e-07
2.29639e-07
2.34299e-07
2.39055e-07
2.43907e-07
2.48857e-07
2.53908e-07
2.59062e-07
2.6432e-07
2.69685e-07
2.75159e-07
2.80744e-07
2.86442e-07
2.92256e-07
2.98188e-07
3.04241e-07
3.10416e-07
3.16717e-07
3.23145e-07
3.29704e-07
3.36396e-07
3.43224e-07
3.50191e-07
3.57299e-07
3.64551e-07
3.7195e-07
3.795e-07
3.87203e-07
3.95062e-07
4.03081e-07
4.11262e-07
4.1961e-07
4.28127e-07
4.36817e-07
4.45683e-07
4.54729e-07
4.63959e-07
4.73376e-07
4.82984e-07
4.92787e-07
5.0279e-07
5.12995e-07
5.23407e-07
5.34031e-07
5.44871e-07
5.5593e-07
5.67214e-07
5.78727e-07
5.90473e-07
6.02458e-07
6.14687e-07
6.27163e-07
6.39893e-07
6.52881e-07
6.66133e-07
6.79654e-07
6.93449e-07
7.07524e-07
7.21885e-07
7.36537e-07
7.51487e-07
7.6674e-07
7.82303e-07
7.98181e-07
8.14382e-07
)
;
    }
    inandouthalf32
    {
        type            cyclic;
        value           nonuniform List<scalar> 
110
(
-4.46379e-08
-4.85562e-08
-5.24824e-08
-5.64308e-08
-6.04143e-08
-6.44441e-08
-6.85303e-08
-7.26817e-08
-7.69059e-08
-8.12099e-08
-8.55997e-08
-9.00808e-08
-9.4658e-08
-9.93359e-08
-1.04119e-07
-1.0901e-07
-1.14013e-07
-1.19132e-07
-1.24369e-07
-1.29726e-07
-1.35207e-07
-1.40812e-07
-1.46543e-07
-1.52399e-07
-1.58381e-07
-1.64486e-07
-1.7071e-07
-1.77049e-07
-1.83494e-07
-1.90035e-07
-1.96656e-07
-2.03339e-07
-2.10056e-07
-2.16774e-07
-2.23447e-07
-2.30013e-07
-2.36389e-07
-2.42459e-07
-2.48059e-07
-2.52938e-07
-2.56706e-07
-2.58765e-07
-2.5811e-07
-2.44601e-07
-2.24235e-07
-2.25149e-07
-2.29639e-07
-2.34299e-07
-2.39055e-07
-2.43907e-07
-2.48857e-07
-2.53908e-07
-2.59062e-07
-2.6432e-07
-2.69685e-07
-2.75159e-07
-2.80744e-07
-2.86442e-07
-2.92256e-07
-2.98188e-07
-3.04241e-07
-3.10416e-07
-3.16717e-07
-3.23145e-07
-3.29704e-07
-3.36396e-07
-3.43224e-07
-3.50191e-07
-3.57299e-07
-3.64551e-07
-3.7195e-07
-3.795e-07
-3.87203e-07
-3.95062e-07
-4.03081e-07
-4.11262e-07
-4.1961e-07
-4.28127e-07
-4.36817e-07
-4.45683e-07
-4.54729e-07
-4.63959e-07
-4.73376e-07
-4.82984e-07
-4.92787e-07
-5.0279e-07
-5.12995e-07
-5.23407e-07
-5.34031e-07
-5.44871e-07
-5.5593e-07
-5.67214e-07
-5.78727e-07
-5.90473e-07
-6.02458e-07
-6.14687e-07
-6.27163e-07
-6.39893e-07
-6.52881e-07
-6.66133e-07
-6.79654e-07
-6.93449e-07
-7.07524e-07
-7.21885e-07
-7.36537e-07
-7.51487e-07
-7.6674e-07
-7.82303e-07
-7.98181e-07
-8.14382e-07
)
;
    }
    inandouthalf41
    {
        type            cyclic;
        value           nonuniform List<scalar> 
50
(
7.28955e-07
7.28955e-07
7.28955e-07
7.28955e-07
7.28955e-07
7.28955e-07
7.28955e-07
7.28955e-07
7.28955e-07
7.28955e-07
7.28955e-07
7.28955e-07
7.28955e-07
7.28955e-07
7.28955e-07
7.28955e-07
7.28955e-07
7.28955e-07
7.28955e-07
7.28955e-07
7.28955e-07
7.28955e-07
7.28955e-07
7.28955e-07
7.28955e-07
7.28955e-07
7.28955e-07
7.28955e-07
7.28955e-07
7.28955e-07
7.28955e-07
7.28955e-07
7.28955e-07
7.28955e-07
7.28955e-07
7.28955e-07
7.28955e-07
7.28955e-07
7.28955e-07
7.28955e-07
7.28955e-07
7.28955e-07
7.28955e-07
7.28955e-07
7.28955e-07
7.28955e-07
7.28955e-07
7.28955e-07
7.28955e-07
7.28955e-07
)
;
    }
    inandouthalf42
    {
        type            cyclic;
        value           nonuniform List<scalar> 
50
(
-7.28955e-07
-7.28955e-07
-7.28955e-07
-7.28955e-07
-7.28955e-07
-7.28955e-07
-7.28955e-07
-7.28955e-07
-7.28955e-07
-7.28955e-07
-7.28955e-07
-7.28955e-07
-7.28955e-07
-7.28955e-07
-7.28955e-07
-7.28955e-07
-7.28955e-07
-7.28955e-07
-7.28955e-07
-7.28955e-07
-7.28955e-07
-7.28955e-07
-7.28955e-07
-7.28955e-07
-7.28955e-07
-7.28955e-07
-7.28955e-07
-7.28955e-07
-7.28955e-07
-7.28955e-07
-7.28955e-07
-7.28955e-07
-7.28955e-07
-7.28955e-07
-7.28955e-07
-7.28955e-07
-7.28955e-07
-7.28955e-07
-7.28955e-07
-7.28955e-07
-7.28955e-07
-7.28955e-07
-7.28955e-07
-7.28955e-07
-7.28955e-07
-7.28955e-07
-7.28955e-07
-7.28955e-07
-7.28955e-07
-7.28955e-07
)
;
    }
    top
    {
        type            symmetryPlane;
        value           uniform 0;
    }
    walls
    {
        type            calculated;
        value           uniform 0;
    }
    frontAndBackPlanes
    {
        type            empty;
        value           nonuniform 0();
    }
}


// ************************************************************************* //
