/*--------------------------------*- C++ -*----------------------------------*\
| =========                 |                                                 |
| \\      /  F ield         | OpenFOAM: The Open Source CFD Toolbox           |
|  \\    /   O peration     | Version:  2.4.x                                 |
|   \\  /    A nd           | Web:      www.OpenFOAM.org                      |
|    \\/     M anipulation  |                                                 |
\*---------------------------------------------------------------------------*/
FoamFile
{
    version     2.0;
    format      ascii;
    class       volScalarField;
    location    "4.6";
    object      nutb;
}
// * * * * * * * * * * * * * * * * * * * * * * * * * * * * * * * * * * * * * //

dimensions      [0 2 -1 0 0 0 0];

internalField   nonuniform List<scalar> 
360
(
9e-22
9e-22
9e-22
9e-22
9e-22
9e-22
9e-22
9e-22
9e-22
9e-22
9e-22
9e-22
9e-22
9e-22
9e-22
9e-22
9e-22
9e-22
9e-22
9e-22
9e-22
9e-22
9e-22
9e-22
9e-22
9e-22
9e-22
9e-22
9e-22
9e-22
9e-22
9e-22
9e-22
9e-22
9e-22
9e-22
9e-22
9e-22
9e-22
9e-22
9e-22
9e-22
9e-22
9e-22
9e-22
9e-22
9e-22
9e-22
9e-22
9e-22
9e-22
9e-22
9e-22
9e-22
9e-22
9e-22
9e-22
9e-22
9e-22
9e-22
9e-22
9e-22
9e-22
9e-22
9e-22
9e-22
9e-22
9e-22
9e-22
9e-22
9e-22
9e-22
9e-22
9e-22
9e-22
9e-22
9e-22
9e-22
9e-22
9e-22
9e-22
9e-22
9e-22
9e-22
9e-22
9e-22
9e-22
9e-22
9e-22
9e-22
9e-22
9e-22
9e-22
9e-22
9e-22
9e-22
9e-22
9e-22
9e-22
9e-22
9e-22
9e-22
9e-22
9e-22
9e-22
9e-22
9e-22
9e-22
9e-22
9e-22
9e-22
9e-22
9e-22
9e-22
9e-22
9e-22
9e-22
9e-22
9e-22
9e-22
9e-22
9e-22
9e-22
9e-22
9e-22
9e-22
9e-22
9e-22
9e-22
9e-22
9e-22
9e-22
6.90266e-22
1.70258e-21
1.07234e-20
7.34456e-20
5.22753e-19
3.91486e-18
3.14862e-17
2.78478e-16
2.771e-15
3.16836e-14
4.25771e-13
6.8552e-12
1.34014e-10
3.2132e-09
9.10273e-08
1.86845e-06
9.56452e-06
1.77164e-05
2.44465e-05
3.03788e-05
3.583e-05
4.0951e-05
4.58243e-05
5.04862e-05
5.49412e-05
5.91728e-05
6.31545e-05
6.68571e-05
7.02534e-05
7.33215e-05
7.60456e-05
7.84164e-05
8.04304e-05
8.20898e-05
8.34015e-05
8.43769e-05
8.50313e-05
8.53838e-05
8.54573e-05
8.52781e-05
8.48766e-05
8.4287e-05
8.35484e-05
8.27047e-05
8.18047e-05
8.09016e-05
8.00525e-05
7.93175e-05
7.87588e-05
7.84393e-05
7.84193e-05
7.87529e-05
7.94829e-05
8.0636e-05
8.22192e-05
8.42173e-05
8.65941e-05
8.92954e-05
9.22538e-05
9.5395e-05
9.86432e-05
0.000101927
0.000105181
0.000108353
0.000111399
0.000114288
0.000116997
0.000119512
0.000121827
0.000123961
0.000125928
0.000127722
0.000129338
0.000130774
0.00013203
0.000133105
0.000134
0.000134714
0.000135248
0.0001356
0.000135769
0.000135752
0.000135547
0.000135149
0.000134553
0.000133754
0.000132743
0.000131513
0.000130056
0.000128361
0.000126419
0.000124219
0.000121748
0.000118995
0.000115946
0.000112589
0.000108909
0.000104892
0.000100524
9.57895e-05
9.06739e-05
8.51619e-05
7.92385e-05
7.28889e-05
6.6099e-05
5.88554e-05
5.11461e-05
4.29608e-05
3.42909e-05
2.51307e-05
1.55058e-05
5.36779e-06
4.33974e-07
7.88546e-09
1.06747e-10
1.36096e-12
1.64337e-14
1.88055e-16
2.03721e-18
1.89872e-20
9.44857e-22
9e-22
9e-22
9e-22
9e-22
9e-22
9e-22
9e-22
9e-22
9e-22
9e-22
9e-22
9e-22
9e-22
9e-22
9e-22
9e-22
9e-22
9e-22
9e-22
9e-22
9e-22
9e-22
9e-22
9e-22
9e-22
9e-22
9e-22
9e-22
9e-22
9e-22
9e-22
9e-22
9e-22
9e-22
9e-22
9e-22
9e-22
9e-22
9e-22
9e-22
9e-22
9e-22
9e-22
9e-22
9e-22
9e-22
9e-22
9e-22
9e-22
9e-22
9e-22
9e-22
9e-22
9e-22
9e-22
9e-22
9e-22
9e-22
9e-22
9e-22
9e-22
9e-22
9e-22
9e-22
9e-22
9e-22
9e-22
9e-22
9e-22
9e-22
9e-22
9e-22
9e-22
9e-22
9e-22
9e-22
9e-22
9e-22
9e-22
9e-22
9e-22
9e-22
9e-22
9e-22
9e-22
9e-22
9e-22
9e-22
9e-22
9e-22
9e-22
9e-22
9e-22
9e-22
9e-22
9e-22
9e-22
9e-22
9e-22
9e-22
9e-22
9e-22
9e-22
9e-22
9e-22
9e-22
9e-22
)
;

boundaryField
{
    inandouthalf11
    {
        type            cyclic;
    }
    inandouthalf12
    {
        type            cyclic;
    }
    inandouthalf21
    {
        type            cyclic;
    }
    inandouthalf22
    {
        type            cyclic;
    }
    inandouthalf31
    {
        type            cyclic;
    }
    inandouthalf32
    {
        type            cyclic;
    }
    inandouthalf41
    {
        type            cyclic;
    }
    inandouthalf42
    {
        type            cyclic;
    }
    top
    {
        type            symmetryPlane;
    }
    walls
    {
        type            calculated;
        value           uniform 0;
    }
    frontAndBackPlanes
    {
        type            empty;
    }
}


// ************************************************************************* //
