/*--------------------------------*- C++ -*----------------------------------*\
| =========                 |                                                 |
| \\      /  F ield         | OpenFOAM: The Open Source CFD Toolbox           |
|  \\    /   O peration     | Version:  2.4.x                                 |
|   \\  /    A nd           | Web:      www.OpenFOAM.org                      |
|    \\/     M anipulation  |                                                 |
\*---------------------------------------------------------------------------*/
FoamFile
{
    version     2.0;
    format      ascii;
    class       volScalarField;
    location    "4.6";
    object      p;
}
// * * * * * * * * * * * * * * * * * * * * * * * * * * * * * * * * * * * * * //

dimensions      [1 -1 -2 0 0 0 0];

internalField   nonuniform List<scalar> 
360
(
4900.32
4895.42
4890.51
4885.6
4880.69
4875.78
4870.87
4865.95
4861.04
4856.12
4851.2
4846.28
4841.36
4836.44
4831.52
4826.59
4821.67
4816.74
4811.81
4806.88
4801.95
4797.01
4792.08
4787.14
4782.2
4777.26
4772.32
4767.38
4762.43
4757.49
4752.54
4747.59
4742.64
4737.68
4732.73
4727.77
4722.81
4717.85
4712.88
4707.91
4702.94
4697.97
4692.99
4688.02
4683.05
4678.08
4673.11
4668.13
4663.16
4658.19
4653.22
4648.25
4643.27
4638.3
4633.33
4628.36
4623.39
4618.41
4613.44
4608.47
4603.5
4598.53
4593.55
4588.58
4583.61
4578.64
4573.67
4568.7
4563.72
4558.75
4553.78
4548.81
4543.84
4538.87
4533.89
4528.92
4523.95
4518.98
4514.01
4509.04
4504.07
4499.09
4494.12
4489.15
4484.18
4479.21
4474.24
4469.27
4464.3
4459.32
4454.35
4449.38
4444.41
4439.44
4434.47
4429.5
4424.53
4419.56
4414.59
4409.62
4404.65
4399.67
4394.7
4389.73
4384.76
4379.79
4374.82
4369.85
4364.88
4359.91
4354.94
4349.97
4345
4340.03
4335.06
4330.09
4325.12
4320.15
4315.18
4310.22
4305.25
4300.28
4295.31
4290.34
4285.37
4280.4
4275.43
4270.46
4265.49
4260.53
4255.56
4250.59
4245.62
4240.65
4235.69
4230.72
4225.75
4220.78
4215.82
4210.85
4205.88
4200.92
4195.95
4190.98
4186.02
4181.05
4176.07
4170.26
4161.15
4153.38
4146.83
4140.77
4134.96
4129.35
4123.89
4118.54
4113.3
4108.16
4103.08
4098.08
4093.13
4088.22
4083.35
4078.52
4073.71
4068.92
4064.16
4059.4
4054.66
4049.93
4045.21
4040.49
4035.78
4031.06
4026.35
4021.64
4016.92
4012.19
4007.46
4002.72
3997.98
3993.22
3988.44
3983.66
3978.86
3974.05
3969.23
3964.4
3959.55
3954.7
3949.84
3944.97
3940.09
3935.21
3930.32
3925.43
3920.53
3915.64
3910.74
3905.84
3900.94
3895.99
3890.93
3885.77
3880.51
3875.14
3869.66
3864.07
3858.37
3852.55
3846.62
3840.56
3834.38
3828.08
3821.65
3815.09
3808.4
3801.57
3794.61
3787.51
3780.26
3772.87
3765.33
3757.64
3749.79
3741.79
3733.63
3725.3
3716.81
3708.15
3699.31
3690.3
3681.1
3671.73
3662.16
3652.4
3642.44
3632.28
3621.92
3611.34
3600.55
3589.54
3578.29
3566.81
3555.07
3543.08
3530.84
3518.35
3505.61
3492.61
3479.35
3465.82
3452.01
3437.92
3423.55
3408.88
3393.92
3378.66
3363.08
3347.19
3330.97
3314.43
3297.55
3280.33
3262.76
3244.83
3226.54
3207.87
3188.83
3169.4
3149.58
3129.35
3108.72
3087.66
3066.18
3044.26
3021.9
2999.08
2975.8
2952.05
2927.81
2903.09
2877.86
2852.12
2825.86
2799.06
2771.72
2743.82
2715.36
2686.32
2656.7
2626.47
2595.62
2564.15
2532.05
2499.29
2465.86
2431.76
2396.96
2361.46
2325.24
2288.28
2250.57
2212.1
2172.85
2132.8
2091.93
2050.24
2007.7
1964.3
1922.76
1883.52
1844.28
1805.04
1765.8
1726.56
1687.32
1648.08
1608.84
1569.6
1530.36
1491.12
1451.88
1412.64
1373.4
1334.16
1294.92
1255.68
1216.44
1177.2
1137.96
1098.72
1059.48
1020.24
981
941.76
902.52
863.28
824.04
784.8
745.56
706.32
667.08
627.84
588.6
549.36
510.12
470.88
431.64
392.4
353.16
313.92
274.68
235.44
196.2
156.96
117.72
78.48
39.24
1.53653e-07
)
;

boundaryField
{
    inandouthalf11
    {
        type            cyclic;
    }
    inandouthalf12
    {
        type            cyclic;
    }
    inandouthalf21
    {
        type            cyclic;
    }
    inandouthalf22
    {
        type            cyclic;
    }
    inandouthalf31
    {
        type            cyclic;
    }
    inandouthalf32
    {
        type            cyclic;
    }
    inandouthalf41
    {
        type            cyclic;
    }
    inandouthalf42
    {
        type            cyclic;
    }
    top
    {
        type            symmetryPlane;
    }
    walls
    {
        type            slip;
    }
    frontAndBackPlanes
    {
        type            empty;
    }
}


// ************************************************************************* //
