/*--------------------------------*- C++ -*----------------------------------*\
| =========                 |                                                 |
| \\      /  F ield         | OpenFOAM: The Open Source CFD Toolbox           |
|  \\    /   O peration     | Version:  2.4.x                                 |
|   \\  /    A nd           | Web:      www.OpenFOAM.org                      |
|    \\/     M anipulation  |                                                 |
\*---------------------------------------------------------------------------*/
FoamFile
{
    version     2.0;
    format      ascii;
    class       surfaceScalarField;
    location    "4.6";
    object      phib;
}
// * * * * * * * * * * * * * * * * * * * * * * * * * * * * * * * * * * * * * //

dimensions      [0 3 -1 0 0 0 0];

internalField   nonuniform List<scalar> 
359
(
8.48995e-13
2.36184e-12
3.77691e-12
5.07737e-12
6.3751e-12
7.71014e-12
9.07752e-12
1.0464e-11
1.18602e-11
1.32656e-11
1.46836e-11
1.61171e-11
1.75679e-11
1.9036e-11
2.05213e-11
2.20251e-11
2.35496e-11
2.50972e-11
2.66698e-11
2.82694e-11
2.98948e-11
3.15444e-11
3.32128e-11
3.48915e-11
3.65695e-11
3.82349e-11
3.98784e-11
4.14978e-11
4.31004e-11
4.47076e-11
4.63583e-11
4.81146e-11
5.00611e-11
5.23122e-11
5.49816e-11
5.8121e-11
6.15772e-11
6.48924e-11
6.74675e-11
6.8993e-11
6.96638e-11
6.98835e-11
6.99394e-11
6.99507e-11
6.99515e-11
6.99497e-11
6.99471e-11
6.99441e-11
6.99406e-11
6.99369e-11
6.9933e-11
6.99288e-11
6.99244e-11
6.99198e-11
6.99149e-11
6.99097e-11
6.99042e-11
6.98983e-11
6.98922e-11
6.98857e-11
6.98789e-11
6.98718e-11
6.98644e-11
6.98569e-11
6.98492e-11
6.98413e-11
6.9833e-11
6.98245e-11
6.98157e-11
6.98065e-11
6.97968e-11
6.97869e-11
6.97768e-11
6.97663e-11
6.97556e-11
6.97446e-11
6.97335e-11
6.97222e-11
6.97105e-11
6.96986e-11
6.96864e-11
6.96739e-11
6.9661e-11
6.96477e-11
6.96342e-11
6.96203e-11
6.96061e-11
6.95917e-11
6.95769e-11
6.95618e-11
6.95464e-11
6.95307e-11
6.95145e-11
6.9498e-11
6.9481e-11
6.94637e-11
6.94459e-11
6.94277e-11
6.94091e-11
6.939e-11
6.93705e-11
6.93505e-11
6.93299e-11
6.93089e-11
6.92872e-11
6.92651e-11
6.92423e-11
6.92189e-11
6.91948e-11
6.91701e-11
6.91447e-11
6.91185e-11
6.90916e-11
6.90639e-11
6.90353e-11
6.90059e-11
6.89756e-11
6.89443e-11
6.8912e-11
6.88786e-11
6.88442e-11
6.88087e-11
6.8772e-11
6.8734e-11
6.86947e-11
6.8654e-11
6.86118e-11
6.8568e-11
6.85224e-11
6.84748e-11
6.84253e-11
6.83736e-11
6.83194e-11
6.82619e-11
6.82008e-11
6.81365e-11
6.80687e-11
6.7995e-11
6.79119e-11
6.78194e-11
6.77256e-11
6.76256e-11
6.75008e-11
6.73441e-11
6.71106e-11
6.64282e-11
6.51057e-11
9.51979e-11
7.40526e-11
5.80075e-11
4.0044e-11
1.93983e-11
-2.99164e-12
-2.51244e-11
-4.56286e-11
-6.32365e-11
-7.72205e-11
-8.73651e-11
-9.3841e-11
-9.70565e-11
-9.75308e-11
-9.58036e-11
-9.23854e-11
-8.77273e-11
-8.22127e-11
-7.61577e-11
-6.98167e-11
-6.33896e-11
-5.70301e-11
-5.0854e-11
-4.49457e-11
-3.93611e-11
-3.41235e-11
-2.92215e-11
-2.46264e-11
-2.0336e-11
-1.64149e-11
-1.29783e-11
-1.01233e-11
-7.86811e-12
-6.15065e-12
-4.86721e-12
-3.91138e-12
-3.19401e-12
-2.64746e-12
-2.22261e-12
-1.88425e-12
-1.6068e-12
-1.37115e-12
-1.16398e-12
-9.79411e-13
-8.18831e-13
-6.85546e-13
-5.78275e-13
-4.9109e-13
-4.1845e-13
-3.57571e-13
-3.06769e-13
-2.64115e-13
-2.2773e-13
-1.96619e-13
-1.70093e-13
-1.47502e-13
-1.27336e-13
-1.09335e-13
-9.44085e-14
-8.18576e-14
-7.02001e-14
-5.99452e-14
-5.16088e-14
-4.42217e-14
-3.75771e-14
-3.20521e-14
-2.72188e-14
-2.29391e-14
-1.94749e-14
-1.6441e-14
-1.36316e-14
-1.13981e-14
-9.5588e-15
-7.84688e-15
-6.43103e-15
-5.25485e-15
-4.24893e-15
-3.44082e-15
-2.72986e-15
-2.14843e-15
-1.7031e-15
-1.3065e-15
-9.84886e-16
-7.36793e-16
-5.51161e-16
-4.40215e-16
-3.71939e-16
-3.05886e-16
-2.24395e-16
2.66986e-16
-9.16796e-18
-8.91928e-18
-8.69196e-18
-8.44142e-18
-8.20955e-18
-7.95567e-18
-7.72454e-18
-7.47087e-18
-7.23149e-18
-6.97395e-18
-6.73482e-18
-6.47687e-18
-6.23424e-18
-5.97727e-18
-5.73087e-18
-5.46866e-18
-5.21824e-18
-4.9546e-18
-4.70241e-18
-4.44158e-18
-4.19207e-18
-3.93493e-18
-3.68936e-18
-3.44259e-18
-3.21044e-18
-2.98496e-18
-2.78196e-18
-2.59924e-18
-2.44065e-18
-2.23651e-18
-2.10429e-18
-1.98266e-18
-1.86962e-18
-1.76144e-18
-1.65896e-18
-1.56817e-18
-1.48229e-18
-1.39911e-18
-1.3156e-18
-1.23592e-18
-1.15485e-18
-1.0747e-18
-9.96105e-19
-9.24216e-19
-8.54844e-19
-7.87444e-19
-7.22177e-19
-6.56246e-19
-5.93499e-19
-5.27521e-19
-4.67383e-19
-4.03562e-19
-3.44766e-19
-2.85428e-19
-2.33405e-19
-1.77687e-19
-1.2884e-19
-8.16634e-20
-4.02986e-20
-4.06559e-20
-1.23084e-20
1.52499e-20
6.47368e-20
9.05506e-20
1.07041e-19
1.24363e-19
1.31551e-19
1.54049e-19
1.65561e-19
1.77741e-19
1.7455e-19
1.83026e-19
1.76379e-19
1.7068e-19
1.56932e-19
1.60936e-19
1.57369e-19
1.55124e-19
1.43418e-19
1.38253e-19
1.25493e-19
1.12302e-19
9.25805e-20
8.0177e-20
6.20857e-20
4.4135e-20
2.03453e-20
-2.95469e-21
-3.11417e-20
-6.41048e-20
-1.07944e-19
-1.90355e-19
-2.85903e-19
-3.85995e-19
-4.95178e-19
-6.01899e-19
-7.16486e-19
-8.32855e-19
-9.53446e-19
-1.07838e-18
-1.20105e-18
-1.32478e-18
-1.43863e-18
-1.56921e-18
-1.67828e-18
-1.79477e-18
-1.89227e-18
-2.1046e-18
-2.27179e-18
-2.44553e-18
-2.53518e-18
-2.71204e-18
-2.7822e-18
-2.8634e-18
-2.72647e-18
-3.17267e-18
-3.36095e-18
-3.56421e-18
-3.07742e-18
-3.88752e-18
-2.38365e-18
3.14492e-19
)
;

boundaryField
{
    inandouthalf11
    {
        type            cyclic;
        value           nonuniform List<scalar> 
100
(
1.9359e-11
1.9338e-11
1.93688e-11
1.94255e-11
1.94809e-11
1.95342e-11
1.95885e-11
1.96442e-11
1.97006e-11
1.97578e-11
1.98161e-11
1.98752e-11
1.99354e-11
1.99966e-11
2.00589e-11
2.01223e-11
2.01869e-11
2.02529e-11
2.03202e-11
2.03892e-11
2.04596e-11
2.05317e-11
2.06051e-11
2.06796e-11
2.07549e-11
2.08303e-11
2.09054e-11
2.09799e-11
2.1054e-11
2.11282e-11
2.1204e-11
2.12837e-11
2.13705e-11
2.14695e-11
2.1586e-11
2.17248e-11
2.18847e-11
2.20511e-11
2.21956e-11
2.22923e-11
2.23406e-11
2.23588e-11
2.23647e-11
2.23673e-11
2.2369e-11
2.23707e-11
2.23725e-11
2.23742e-11
2.23762e-11
2.23784e-11
2.23807e-11
2.23831e-11
2.23857e-11
2.23886e-11
2.23915e-11
2.23948e-11
2.23981e-11
2.24018e-11
2.24056e-11
2.24095e-11
2.24137e-11
2.2418e-11
2.24225e-11
2.24271e-11
2.24318e-11
2.24366e-11
2.24415e-11
2.24467e-11
2.2452e-11
2.24575e-11
2.24633e-11
2.24693e-11
2.24754e-11
2.24818e-11
2.24883e-11
2.2495e-11
2.25017e-11
2.25087e-11
2.25158e-11
2.25231e-11
2.25305e-11
2.25382e-11
2.25461e-11
2.25542e-11
2.25625e-11
2.2571e-11
2.25797e-11
2.25886e-11
2.25976e-11
2.26069e-11
2.26164e-11
2.2626e-11
2.26359e-11
2.26461e-11
2.26565e-11
2.26671e-11
2.2678e-11
2.26891e-11
2.27006e-11
2.27122e-11
)
;
    }
    inandouthalf12
    {
        type            cyclic;
        value           nonuniform List<scalar> 
100
(
-1.9359e-11
-1.9338e-11
-1.93688e-11
-1.94255e-11
-1.94809e-11
-1.95342e-11
-1.95885e-11
-1.96442e-11
-1.97006e-11
-1.97578e-11
-1.98161e-11
-1.98752e-11
-1.99354e-11
-1.99966e-11
-2.00589e-11
-2.01223e-11
-2.01869e-11
-2.02529e-11
-2.03202e-11
-2.03892e-11
-2.04596e-11
-2.05317e-11
-2.06051e-11
-2.06796e-11
-2.07549e-11
-2.08303e-11
-2.09054e-11
-2.09799e-11
-2.1054e-11
-2.11282e-11
-2.1204e-11
-2.12837e-11
-2.13705e-11
-2.14695e-11
-2.1586e-11
-2.17248e-11
-2.18847e-11
-2.20511e-11
-2.21956e-11
-2.22923e-11
-2.23406e-11
-2.23588e-11
-2.23647e-11
-2.23673e-11
-2.2369e-11
-2.23707e-11
-2.23725e-11
-2.23742e-11
-2.23762e-11
-2.23784e-11
-2.23807e-11
-2.23831e-11
-2.23857e-11
-2.23886e-11
-2.23915e-11
-2.23948e-11
-2.23981e-11
-2.24018e-11
-2.24056e-11
-2.24095e-11
-2.24137e-11
-2.2418e-11
-2.24225e-11
-2.24271e-11
-2.24318e-11
-2.24366e-11
-2.24415e-11
-2.24467e-11
-2.2452e-11
-2.24575e-11
-2.24633e-11
-2.24693e-11
-2.24754e-11
-2.24818e-11
-2.24883e-11
-2.2495e-11
-2.25017e-11
-2.25087e-11
-2.25158e-11
-2.25231e-11
-2.25305e-11
-2.25382e-11
-2.25461e-11
-2.25542e-11
-2.25625e-11
-2.2571e-11
-2.25797e-11
-2.25886e-11
-2.25976e-11
-2.26069e-11
-2.26164e-11
-2.2626e-11
-2.26359e-11
-2.26461e-11
-2.26565e-11
-2.26671e-11
-2.2678e-11
-2.26891e-11
-2.27006e-11
-2.27122e-11
)
;
    }
    inandouthalf21
    {
        type            cyclic;
        value           nonuniform List<scalar> 
100
(
2.27242e-11
2.27364e-11
2.2749e-11
2.27619e-11
2.27751e-11
2.27886e-11
2.28025e-11
2.28167e-11
2.28313e-11
2.28463e-11
2.28618e-11
2.28776e-11
2.28939e-11
2.29107e-11
2.2928e-11
2.29458e-11
2.29641e-11
2.2983e-11
2.30025e-11
2.30226e-11
2.30433e-11
2.30648e-11
2.30869e-11
2.31098e-11
2.31335e-11
2.3158e-11
2.31834e-11
2.32098e-11
2.32373e-11
2.32658e-11
2.32956e-11
2.33266e-11
2.33589e-11
2.33931e-11
2.34293e-11
2.34678e-11
2.35081e-11
2.3551e-11
2.35986e-11
2.36532e-11
2.37126e-11
2.37691e-11
2.38365e-11
2.39242e-11
2.40324e-11
2.42581e-11
6.45822e-11
1.84094e-08
1.22322e-07
2.20445e-07
2.9873e-07
3.63604e-07
4.18663e-07
4.66135e-07
5.07586e-07
5.44171e-07
5.76776e-07
6.0609e-07
6.32657e-07
6.56908e-07
6.79189e-07
6.99777e-07
7.18897e-07
7.36731e-07
7.53427e-07
7.69107e-07
7.8387e-07
7.97799e-07
8.10961e-07
8.2341e-07
8.3519e-07
8.46337e-07
8.56877e-07
8.66832e-07
8.76215e-07
8.85036e-07
8.93298e-07
9.01002e-07
9.08147e-07
9.14729e-07
9.20747e-07
9.26201e-07
9.31094e-07
9.35438e-07
9.39247e-07
9.42546e-07
9.45362e-07
9.47733e-07
9.49695e-07
9.5129e-07
9.52559e-07
9.53539e-07
9.54266e-07
9.54772e-07
9.55084e-07
9.55227e-07
9.5522e-07
9.55082e-07
9.54827e-07
9.54467e-07
)
;
    }
    inandouthalf22
    {
        type            cyclic;
        value           nonuniform List<scalar> 
100
(
-2.27242e-11
-2.27364e-11
-2.2749e-11
-2.27619e-11
-2.27751e-11
-2.27886e-11
-2.28025e-11
-2.28167e-11
-2.28313e-11
-2.28463e-11
-2.28618e-11
-2.28776e-11
-2.28939e-11
-2.29107e-11
-2.2928e-11
-2.29458e-11
-2.29641e-11
-2.2983e-11
-2.30025e-11
-2.30226e-11
-2.30433e-11
-2.30648e-11
-2.30869e-11
-2.31098e-11
-2.31335e-11
-2.3158e-11
-2.31834e-11
-2.32098e-11
-2.32373e-11
-2.32658e-11
-2.32956e-11
-2.33266e-11
-2.33589e-11
-2.33931e-11
-2.34293e-11
-2.34678e-11
-2.35081e-11
-2.3551e-11
-2.35986e-11
-2.36532e-11
-2.37126e-11
-2.37691e-11
-2.38365e-11
-2.39242e-11
-2.40324e-11
-2.42581e-11
-6.45822e-11
-1.84094e-08
-1.22322e-07
-2.20445e-07
-2.9873e-07
-3.63604e-07
-4.18663e-07
-4.66135e-07
-5.07586e-07
-5.44171e-07
-5.76776e-07
-6.0609e-07
-6.32657e-07
-6.56908e-07
-6.79189e-07
-6.99777e-07
-7.18897e-07
-7.36731e-07
-7.53427e-07
-7.69107e-07
-7.8387e-07
-7.97799e-07
-8.10961e-07
-8.2341e-07
-8.3519e-07
-8.46337e-07
-8.56877e-07
-8.66832e-07
-8.76215e-07
-8.85036e-07
-8.93298e-07
-9.01002e-07
-9.08147e-07
-9.14729e-07
-9.20747e-07
-9.26201e-07
-9.31094e-07
-9.35438e-07
-9.39247e-07
-9.42546e-07
-9.45362e-07
-9.47733e-07
-9.49695e-07
-9.5129e-07
-9.52559e-07
-9.53539e-07
-9.54266e-07
-9.54772e-07
-9.55084e-07
-9.55227e-07
-9.5522e-07
-9.55082e-07
-9.54827e-07
-9.54467e-07
)
;
    }
    inandouthalf31
    {
        type            cyclic;
        value           nonuniform List<scalar> 
110
(
9.54017e-07
9.72825e-07
9.91909e-07
1.01127e-06
1.03091e-06
1.05084e-06
1.07106e-06
1.09157e-06
1.11237e-06
1.13346e-06
1.15486e-06
1.17656e-06
1.19856e-06
1.22087e-06
1.24348e-06
1.26641e-06
1.28964e-06
1.3132e-06
1.33707e-06
1.36126e-06
1.38577e-06
1.41061e-06
1.43578e-06
1.46128e-06
1.48712e-06
1.5133e-06
1.53983e-06
1.56672e-06
1.59396e-06
1.62158e-06
1.64958e-06
1.67797e-06
1.70677e-06
1.73599e-06
1.76567e-06
1.79582e-06
1.82649e-06
1.85771e-06
1.88955e-06
1.92208e-06
1.9554e-06
1.98968e-06
2.02515e-06
2.06235e-06
2.10282e-06
2.1454e-06
2.18894e-06
2.23336e-06
2.27869e-06
2.32494e-06
2.37212e-06
2.42027e-06
2.46939e-06
2.51951e-06
2.57065e-06
2.62283e-06
2.67606e-06
2.73038e-06
2.7858e-06
2.84234e-06
2.90003e-06
2.9589e-06
3.01895e-06
3.08023e-06
3.14275e-06
3.20654e-06
3.27162e-06
3.33803e-06
3.40578e-06
3.47491e-06
3.54544e-06
3.6174e-06
3.69083e-06
3.76574e-06
3.84218e-06
3.92016e-06
3.99973e-06
4.08092e-06
4.16375e-06
4.24826e-06
4.33449e-06
4.42247e-06
4.51223e-06
4.60382e-06
4.69726e-06
4.7926e-06
4.88988e-06
4.98913e-06
5.0904e-06
5.19372e-06
5.29914e-06
5.4067e-06
5.51644e-06
5.62841e-06
5.74265e-06
5.85921e-06
5.97814e-06
6.09948e-06
6.22328e-06
6.3496e-06
6.47848e-06
6.60997e-06
6.74414e-06
6.88102e-06
7.02069e-06
7.16319e-06
7.30859e-06
7.45693e-06
7.60829e-06
7.76272e-06
)
;
    }
    inandouthalf32
    {
        type            cyclic;
        value           nonuniform List<scalar> 
110
(
-9.54017e-07
-9.72825e-07
-9.91909e-07
-1.01127e-06
-1.03091e-06
-1.05084e-06
-1.07106e-06
-1.09157e-06
-1.11237e-06
-1.13346e-06
-1.15486e-06
-1.17656e-06
-1.19856e-06
-1.22087e-06
-1.24348e-06
-1.26641e-06
-1.28964e-06
-1.3132e-06
-1.33707e-06
-1.36126e-06
-1.38577e-06
-1.41061e-06
-1.43578e-06
-1.46128e-06
-1.48712e-06
-1.5133e-06
-1.53983e-06
-1.56672e-06
-1.59396e-06
-1.62158e-06
-1.64958e-06
-1.67797e-06
-1.70677e-06
-1.73599e-06
-1.76567e-06
-1.79582e-06
-1.82649e-06
-1.85771e-06
-1.88955e-06
-1.92208e-06
-1.9554e-06
-1.98968e-06
-2.02515e-06
-2.06235e-06
-2.10282e-06
-2.1454e-06
-2.18894e-06
-2.23336e-06
-2.27869e-06
-2.32494e-06
-2.37212e-06
-2.42027e-06
-2.46939e-06
-2.51951e-06
-2.57065e-06
-2.62283e-06
-2.67606e-06
-2.73038e-06
-2.7858e-06
-2.84234e-06
-2.90003e-06
-2.9589e-06
-3.01895e-06
-3.08023e-06
-3.14275e-06
-3.20654e-06
-3.27162e-06
-3.33803e-06
-3.40578e-06
-3.47491e-06
-3.54544e-06
-3.6174e-06
-3.69083e-06
-3.76574e-06
-3.84218e-06
-3.92016e-06
-3.99973e-06
-4.08092e-06
-4.16375e-06
-4.24826e-06
-4.33449e-06
-4.42247e-06
-4.51223e-06
-4.60382e-06
-4.69726e-06
-4.7926e-06
-4.88988e-06
-4.98913e-06
-5.0904e-06
-5.19372e-06
-5.29914e-06
-5.4067e-06
-5.51644e-06
-5.62841e-06
-5.74265e-06
-5.85921e-06
-5.97814e-06
-6.09948e-06
-6.22328e-06
-6.3496e-06
-6.47848e-06
-6.60997e-06
-6.74414e-06
-6.88102e-06
-7.02069e-06
-7.16319e-06
-7.30859e-06
-7.45693e-06
-7.60829e-06
-7.76272e-06
)
;
    }
    inandouthalf41
    {
        type            cyclic;
        value           nonuniform List<scalar> 
50
(
6.94842e-06
6.94842e-06
6.94842e-06
6.94842e-06
6.94842e-06
6.94842e-06
6.94842e-06
6.94842e-06
6.94842e-06
6.94842e-06
6.94842e-06
6.94842e-06
6.94842e-06
6.94842e-06
6.94842e-06
6.94842e-06
6.94842e-06
6.94842e-06
6.94842e-06
6.94842e-06
6.94842e-06
6.94842e-06
6.94842e-06
6.94842e-06
6.94842e-06
6.94842e-06
6.94842e-06
6.94842e-06
6.94842e-06
6.94842e-06
6.94842e-06
6.94842e-06
6.94842e-06
6.94842e-06
6.94842e-06
6.94842e-06
6.94842e-06
6.94842e-06
6.94842e-06
6.94842e-06
6.94842e-06
6.94842e-06
6.94842e-06
6.94842e-06
6.94842e-06
6.94842e-06
6.94842e-06
6.94842e-06
6.94842e-06
6.94842e-06
)
;
    }
    inandouthalf42
    {
        type            cyclic;
        value           nonuniform List<scalar> 
50
(
-6.94842e-06
-6.94842e-06
-6.94842e-06
-6.94842e-06
-6.94842e-06
-6.94842e-06
-6.94842e-06
-6.94842e-06
-6.94842e-06
-6.94842e-06
-6.94842e-06
-6.94842e-06
-6.94842e-06
-6.94842e-06
-6.94842e-06
-6.94842e-06
-6.94842e-06
-6.94842e-06
-6.94842e-06
-6.94842e-06
-6.94842e-06
-6.94842e-06
-6.94842e-06
-6.94842e-06
-6.94842e-06
-6.94842e-06
-6.94842e-06
-6.94842e-06
-6.94842e-06
-6.94842e-06
-6.94842e-06
-6.94842e-06
-6.94842e-06
-6.94842e-06
-6.94842e-06
-6.94842e-06
-6.94842e-06
-6.94842e-06
-6.94842e-06
-6.94842e-06
-6.94842e-06
-6.94842e-06
-6.94842e-06
-6.94842e-06
-6.94842e-06
-6.94842e-06
-6.94842e-06
-6.94842e-06
-6.94842e-06
-6.94842e-06
)
;
    }
    top
    {
        type            symmetryPlane;
        value           uniform 0;
    }
    walls
    {
        type            fixedValue;
        value           uniform 0;
    }
    frontAndBackPlanes
    {
        type            empty;
        value           nonuniform 0();
    }
}


// ************************************************************************* //
