/*--------------------------------*- C++ -*----------------------------------*\
| =========                 |                                                 |
| \\      /  F ield         | OpenFOAM: The Open Source CFD Toolbox           |
|  \\    /   O peration     | Version:  2.4.x                                 |
|   \\  /    A nd           | Web:      www.OpenFOAM.org                      |
|    \\/     M anipulation  |                                                 |
\*---------------------------------------------------------------------------*/
FoamFile
{
    version     2.0;
    format      ascii;
    class       volTensorField;
    location    "4.6";
    object      Taus;
}
// * * * * * * * * * * * * * * * * * * * * * * * * * * * * * * * * * * * * * //

dimensions      [0 2 -2 0 0 0 0];

internalField   nonuniform List<tensor> 
360
(
(0 -0.0159456 0 -0.0159456 -0.185129 0 0 0 0)
(0 -0.021455 0 -0.021455 -0.218258 0 0 0 0)
(0 -0.0258661 0 -0.0258661 -0.226237 0 0 0 0)
(0 -0.0261629 0 -0.0261629 -0.222841 0 0 0 0)
(1.34723e-17 -0.0255386 0 -0.0255386 -0.219767 0 0 0 0)
(1.29311e-17 -0.0253341 0 -0.0253341 -0.218005 0 0 0 0)
(1.25415e-17 -0.0253036 0 -0.0253036 -0.216438 0 0 0 0)
(0 -0.0252923 0 -0.0252923 -0.214851 0 0 0 0)
(2.42082e-17 -0.0252903 0 -0.0252903 -0.213315 0 0 0 0)
(0 -0.0252722 0 -0.0252722 -0.211729 0 0 0 0)
(2.34685e-17 -0.0252311 0 -0.0252311 -0.210084 0 0 0 0)
(0 -0.0251827 0 -0.0251827 -0.208436 0 0 0 0)
(2.25662e-17 -0.0251344 0 -0.0251344 -0.206785 0 0 0 0)
(0 -0.0250927 0 -0.0250927 -0.205155 0 0 0 0)
(0 -0.0250545 0 -0.0250545 -0.203533 0 0 0 0)
(0 -0.0250138 0 -0.0250138 -0.201904 0 0 0 0)
(0 -0.024969 0 -0.024969 -0.200266 0 0 0 0)
(4.05954e-17 -0.0249219 0 -0.0249219 -0.198625 0 0 0 0)
(0 -0.0248713 0 -0.0248713 -0.196983 0 0 0 0)
(0 -0.0248149 0 -0.0248149 -0.195318 0 0 0 0)
(0 -0.0247602 0 -0.0247602 -0.193675 0 0 0 0)
(3.67796e-17 -0.0246997 0 -0.0246997 -0.192009 0 0 0 0)
(0 -0.0246372 0 -0.0246372 -0.190345 0 0 0 0)
(0 -0.0245768 0 -0.0245768 -0.188686 0 0 0 0)
(0 -0.0245217 0 -0.0245217 -0.187035 0 0 0 0)
(7.02868e-17 -0.024478 0 -0.024478 -0.185406 0 0 0 0)
(0 -0.024449 0 -0.024449 -0.183808 0 0 0 0)
(0 -0.0244315 0 -0.0244315 -0.182219 0 0 0 0)
(0 -0.0244298 0 -0.0244298 -0.18066 0 0 0 0)
(0 -0.0244399 0 -0.0244399 -0.179116 0 0 0 0)
(0 -0.0244474 0 -0.0244474 -0.177568 0 0 0 0)
(0 -0.0244309 0 -0.0244309 -0.175962 0 0 0 0)
(0 -0.0243715 0 -0.0243715 -0.174318 0 0 0 0)
(0 -0.0242186 0 -0.0242186 -0.172495 0 0 0 0)
(0 -0.0239542 0 -0.0239542 -0.170531 0 0 0 0)
(-3.37571e-17 -0.0235554 0 -0.0235554 -0.168323 0 0 0 0)
(0 -0.0230632 0 -0.0230632 -0.165942 0 0 0 0)
(0 -0.0225742 0 -0.0225742 -0.163536 0 0 0 0)
(0 -0.0222272 0 -0.0222272 -0.161422 0 0 0 0)
(0 -0.0221372 0 -0.0221372 -0.159933 0 0 0 0)
(0 -0.0223041 0 -0.0223041 -0.158939 0 0 0 0)
(0 -0.0226875 0 -0.0226875 -0.158284 0 0 0 0)
(-3.39624e-15 -0.0232158 0 -0.0232158 -0.157715 0 0 0 0)
(0 -0.0238015 0 -0.0238015 -0.157018 0 0 0 0)
(0 -0.0244207 0 -0.0244207 -0.156236 0 0 0 0)
(0 -0.0250387 0 -0.0250387 -0.155349 0 0 0 0)
(0 -0.0255978 0 -0.0255978 -0.154421 0 0 0 0)
(0 -0.0260523 0 -0.0260523 -0.153555 0 0 0 0)
(0 -0.0263695 0 -0.0263695 -0.152713 0 0 0 0)
(0 -0.0266035 0 -0.0266035 -0.151888 0 0 0 0)
(-3.19067e-13 -0.0268374 0 -0.0268374 -0.151117 0 0 0 0)
(0 -0.0270822 0 -0.0270822 -0.1503 0 0 0 0)
(0 -0.0273466 0 -0.0273466 -0.149464 0 0 0 0)
(0 -0.0276202 0 -0.0276202 -0.148566 0 0 0 0)
(0 -0.0278988 0 -0.0278988 -0.147647 0 0 0 0)
(0 -0.0281598 0 -0.0281598 -0.146641 0 0 0 0)
(0 -0.0284136 0 -0.0284136 -0.145625 0 0 0 0)
(0 -0.0286401 0 -0.0286401 -0.144536 0 0 0 0)
(0 -0.0288473 0 -0.0288473 -0.14342 0 0 0 0)
(0 -0.0290339 0 -0.0290339 -0.142285 0 0 0 0)
(0 -0.0291833 0 -0.0291833 -0.141082 0 0 0 0)
(0 -0.0293179 0 -0.0293179 -0.139887 0 0 0 0)
(0 -0.0294289 0 -0.0294289 -0.138649 0 0 0 0)
(0 -0.0295286 0 -0.0295286 -0.137412 0 0 0 0)
(0 -0.029616 0 -0.029616 -0.136155 0 0 0 0)
(0 -0.0296915 0 -0.0296915 -0.134892 0 0 0 0)
(0 -0.0297476 0 -0.0297476 -0.133603 0 0 0 0)
(0 -0.0297851 0 -0.0297851 -0.132295 0 0 0 0)
(0 -0.0298068 0 -0.0298068 -0.130966 0 0 0 0)
(0 -0.0298111 0 -0.0298111 -0.129624 0 0 0 0)
(0 -0.0297847 0 -0.0297847 -0.128236 0 0 0 0)
(0 -0.0297396 0 -0.0297396 -0.126822 0 0 0 0)
(0 -0.0296897 0 -0.0296897 -0.125409 0 0 0 0)
(0 -0.0296208 0 -0.0296208 -0.123954 0 0 0 0)
(0 -0.029543 0 -0.029543 -0.122493 0 0 0 0)
(0 -0.0294562 0 -0.0294562 -0.121007 0 0 0 0)
(0 -0.02937 0 -0.02937 -0.119522 0 0 0 0)
(0 -0.0292785 0 -0.0292785 -0.118022 0 0 0 0)
(0 -0.0291776 0 -0.0291776 -0.116508 0 0 0 0)
(0 -0.0290671 0 -0.0290671 -0.114981 0 0 0 0)
(0 -0.0289477 0 -0.0289477 -0.113446 0 0 0 0)
(0 -0.0288141 0 -0.0288141 -0.111894 0 0 0 0)
(0 -0.0286663 0 -0.0286663 -0.110328 0 0 0 0)
(0 -0.0285064 0 -0.0285064 -0.10875 0 0 0 0)
(0 -0.0283354 0 -0.0283354 -0.10716 0 0 0 0)
(0 -0.0281555 0 -0.0281555 -0.105561 0 0 0 0)
(0 -0.027968 0 -0.027968 -0.103952 0 0 0 0)
(0 -0.0277757 0 -0.0277757 -0.102337 0 0 0 0)
(0 -0.0275788 0 -0.0275788 -0.100716 0 0 0 0)
(0 -0.0273765 0 -0.0273765 -0.0990867 0 0 0 0)
(0 -0.0271685 0 -0.0271685 -0.0974514 0 0 0 0)
(0 -0.0269545 0 -0.0269545 -0.0958099 0 0 0 0)
(0 -0.0267329 0 -0.0267329 -0.0941609 0 0 0 0)
(0 -0.0265037 0 -0.0265037 -0.0925053 0 0 0 0)
(0 -0.0262673 0 -0.0262673 -0.0908433 0 0 0 0)
(0 -0.026024 0 -0.026024 -0.0891753 0 0 0 0)
(0 -0.0257744 0 -0.0257744 -0.0875018 0 0 0 0)
(0 -0.0255191 0 -0.0255191 -0.0858232 0 0 0 0)
(0 -0.0252586 0 -0.0252586 -0.0841399 0 0 0 0)
(0 -0.0249931 0 -0.0249931 -0.0824521 0 0 0 0)
(0 -0.0247228 0 -0.0247228 -0.08076 0 0 0 0)
(0 -0.0244478 0 -0.0244478 -0.0790637 0 0 0 0)
(0 -0.0241681 0 -0.0241681 -0.0773634 0 0 0 0)
(0 -0.0238837 0 -0.0238837 -0.0756593 0 0 0 0)
(0 -0.023595 0 -0.023595 -0.0739514 0 0 0 0)
(0 -0.023302 0 -0.023302 -0.0722401 0 0 0 0)
(0 -0.0230049 0 -0.0230049 -0.0705254 0 0 0 0)
(0 -0.0227038 0 -0.0227038 -0.0688075 0 0 0 0)
(0 -0.022399 0 -0.022399 -0.0670864 0 0 0 0)
(0 -0.0220906 0 -0.0220906 -0.0653623 0 0 0 0)
(0 -0.0217787 0 -0.0217787 -0.0636353 0 0 0 0)
(0 -0.0214636 0 -0.0214636 -0.0619054 0 0 0 0)
(0 -0.0211455 0 -0.0211455 -0.0601726 0 0 0 0)
(0 -0.0208247 0 -0.0208247 -0.058437 0 0 0 0)
(0 -0.0205017 0 -0.0205017 -0.0566986 0 0 0 0)
(0 -0.0201766 0 -0.0201766 -0.0549574 0 0 0 0)
(0 -0.0198501 0 -0.0198501 -0.0532133 0 0 0 0)
(0 -0.0195224 0 -0.0195224 -0.0514661 0 0 0 0)
(0 -0.0191942 0 -0.0191942 -0.0497159 0 0 0 0)
(0 -0.0188658 0 -0.0188658 -0.0479623 0 0 0 0)
(0 -0.0185378 0 -0.0185378 -0.0462053 0 0 0 0)
(0 -0.0182106 0 -0.0182106 -0.0444445 0 0 0 0)
(0 -0.0178849 0 -0.0178849 -0.0426797 0 0 0 0)
(0 -0.017561 0 -0.017561 -0.0409105 0 0 0 0)
(0 -0.0172396 0 -0.0172396 -0.0391364 0 0 0 0)
(0 -0.0169207 0 -0.0169207 -0.0373569 0 0 0 0)
(0 -0.0166037 0 -0.0166037 -0.0355712 0 0 0 0)
(0 -0.0162873 0 -0.0162873 -0.0337786 0 0 0 0)
(0 -0.0159704 0 -0.0159704 -0.0319778 0 0 0 0)
(0 -0.0156526 0 -0.0156526 -0.0301674 0 0 0 0)
(0 -0.0153356 0 -0.0153356 -0.028345 0 0 0 0)
(0 -0.015021 0 -0.015021 -0.0265078 0 0 0 0)
(0 -0.014705 0 -0.014705 -0.0246539 0 0 0 0)
(0 -0.0143755 0 -0.0143755 -0.0227826 0 0 0 0)
(0 -0.014023 0 -0.014023 -0.0208928 0 0 0 0)
(0 -0.0136552 0 -0.0136552 -0.0189804 0 0 0 0)
(0 -0.0132839 0 -0.0132839 -0.0170403 0 0 0 0)
(0 -0.012887 0 -0.012887 -0.0150867 0 0 0 0)
(0 -0.012397 0 -0.012397 -0.0131718 0 0 0 0)
(0 -0.0117745 0 -0.0117745 -0.011321 0 0 0 0)
(0 -0.0111314 0 -0.0111314 -0.00943183 0 0 0 0)
(0 -0.0106198 0 -0.0106198 -0.00742167 0 0 0 0)
(0 -0.00999161 0 -0.00999161 -0.00516983 0 0 0 0)
(0 -0.00912646 0 -0.00912646 -0.00247345 0 0 0 0)
(0 -0.00790401 0 -0.00790401 0.0016601 0 0 0 0)
(0 -0.0057712 0 -0.0057712 0.00381866 0 0 0 0)
(0 -0.00263268 0 -0.00263268 -2.53182e-06 0 0 0 0)
(0 -0.00200376 0 -0.00200376 -1.35018e-06 0 0 0 0)
(0 -0.00292004 0 -0.00292004 -1.08209e-06 0 0 0 0)
(0 -0.00278093 0 -0.00278093 -1.11249e-07 0 0 0 0)
(0 -0.00235529 0 -0.00235529 5.11263e-07 0 0 0 0)
(0 -0.00210103 0 -0.00210103 1.30923e-06 0 0 0 0)
(0 -0.00196731 0 -0.00196731 2.47554e-06 0 0 0 0)
(0 -0.00192752 0 -0.00192752 4.28232e-06 0 0 0 0)
(0 -0.00196448 0 -0.00196448 6.95982e-06 0 0 0 0)
(0 -0.00206772 0 -0.00206772 1.08815e-05 0 0 0 0)
(0 -0.00223123 0 -0.00223123 1.65161e-05 0 0 0 0)
(0 -0.00245201 0 -0.00245201 2.44106e-05 0 0 0 0)
(0 -0.00272919 0 -0.00272919 3.52187e-05 0 0 0 0)
(0 -0.00306342 0 -0.00306342 4.97044e-05 0 0 0 0)
(0 -0.00345642 0 -0.00345642 6.87516e-05 0 0 0 0)
(0 -0.00391061 0 -0.00391061 9.33783e-05 0 0 0 0)
(0 -0.0044287 0 -0.0044287 0.000124748 0 0 0 0)
(0 -0.00501349 0 -0.00501349 0.000164176 0 0 0 0)
(0 -0.00566747 0 -0.00566747 0.000213125 0 0 0 0)
(0 -0.00639259 0 -0.00639259 0.000273194 0 0 0 0)
(0 -0.00718998 0 -0.00718998 0.000346066 0 0 0 0)
(0 -0.00805977 0 -0.00805977 0.000433418 0 0 0 0)
(0 -0.0090009 0 -0.0090009 0.000536776 0 0 0 0)
(0 -0.0100112 0 -0.0100112 0.00065733 0 0 0 0)
(0 -0.0110872 0 -0.0110872 0.000795594 0 0 0 0)
(0 -0.0122253 0 -0.0122253 0.000950115 0 0 0 0)
(0 -0.0134237 0 -0.0134237 0.00111335 0 0 0 0)
(0 -0.0146899 0 -0.0146899 0.00126304 0 0 0 0)
(0 -0.0160519 0 -0.0160519 0.00135223 0 0 0 0)
(0 -0.0175672 0 -0.0175672 0.00130836 0 0 0 0)
(0 -0.0193116 0 -0.0193116 0.00105246 0 0 0 0)
(0 -0.0213424 0 -0.0213424 0.000536133 0 0 0 0)
(0 -0.0236491 0 -0.0236491 -0.00022215 0 0 0 0)
(0 -0.0261292 0 -0.0261292 -0.00112634 0 0 0 0)
(0 -0.0286102 0 -0.0286102 -0.0020301 0 0 0 0)
(0 -0.0309056 0 -0.0309056 -0.00278694 0 0 0 0)
(0 -0.0328648 0 -0.0328648 -0.00329106 0 0 0 0)
(0 -0.0343966 0 -0.0343966 -0.00349101 0 0 0 0)
(0 -0.0354684 0 -0.0354684 -0.00338314 0 0 0 0)
(0 -0.036097 0 -0.036097 -0.00299927 0 0 0 0)
(0 -0.0363394 0 -0.0363394 -0.00239767 0 0 0 0)
(0 -0.0362891 0 -0.0362891 -0.00166226 0 0 0 0)
(0 -0.0360885 0 -0.0360885 -0.000913227 0 0 0 0)
(0 -0.0359422 0 -0.0359422 -0.000312748 0 0 0 0)
(0 -0.0360619 0 -0.0360619 -2.20199e-05 0 0 0 0)
(0 -0.0365092 0 -0.0365092 -9.8791e-05 0 0 0 0)
(0 -0.0370818 0 -0.0370818 -0.000422718 0 0 0 0)
(0 -0.0374733 0 -0.0374733 -0.000782747 0 0 0 0)
(0 -0.0375933 0 -0.0375933 -0.00108302 0 0 0 0)
(0 -0.0375697 0 -0.0375697 -0.00138636 0 0 0 0)
(0 -0.0374709 0 -0.0374709 -0.00175032 0 0 0 0)
(0 -0.0372495 0 -0.0372495 -0.00214672 0 0 0 0)
(0 -0.0368834 0 -0.0368834 -0.00254676 0 0 0 0)
(0 -0.0364306 0 -0.0364306 -0.00299178 0 0 0 0)
(0 -0.0359545 0 -0.0359545 -0.0035259 0 0 0 0)
(0 -0.0353733 0 -0.0353733 -0.00406654 0 0 0 0)
(1.5417e-14 -0.0345569 0 -0.0345569 -0.00450057 0 0 0 0)
(0 -0.0336602 0 -0.0336602 -0.00497343 0 0 0 0)
(0 -0.0328821 0 -0.0328821 -0.00568825 0 0 0 0)
(-1.69346e-14 -0.0319818 0 -0.0319818 -0.00637693 0 0 0 0)
(0 -0.0307243 0 -0.0307243 -0.00676024 0 0 0 0)
(1.74971e-14 -0.0295048 0 -0.0295048 -0.00728346 0 0 0 0)
(0 -0.0284611 0 -0.0284611 -0.00815314 0 0 0 0)
(-1.78831e-14 -0.0271815 0 -0.0271815 -0.00881738 0 0 0 0)
(0 -0.0257426 0 -0.0257426 -0.00931842 0 0 0 0)
(0 -0.0244235 0 -0.0244235 -0.0100983 0 0 0 0)
(0 -0.0230312 0 -0.0230312 -0.0108553 0 0 0 0)
(0 -0.0215406 0 -0.0215406 -0.0115066 0 0 0 0)
(0 -0.020125 0 -0.020125 -0.0123887 0 0 0 0)
(0 -0.0186144 0 -0.0186144 -0.0130931 0 0 0 0)
(0 -0.0169981 0 -0.0169981 -0.013558 0 0 0 0)
(0 -0.0155398 0 -0.0155398 -0.0145245 0 0 0 0)
(0 -0.0140928 0 -0.0140928 -0.0155126 0 0 0 0)
(1.59024e-14 -0.0125008 0 -0.0125008 -0.0159346 0 0 0 0)
(0 -0.0109958 0 -0.0109958 -0.0166488 0 0 0 0)
(1.50298e-14 -0.00958458 0 -0.00958458 -0.0176492 0 0 0 0)
(0 -0.00817077 0 -0.00817077 -0.0184592 0 0 0 0)
(1.40497e-14 -0.00680879 0 -0.00680879 -0.019331 0 0 0 0)
(0 -0.00548332 0 -0.00548332 -0.0200081 0 0 0 0)
(0 -0.004223 0 -0.004223 -0.0207874 0 0 0 0)
(0 -0.00306106 0 -0.00306106 -0.0218169 0 0 0 0)
(0 -0.00195421 0 -0.00195421 -0.0222734 0 0 0 0)
(-1.12468e-14 -0.000929777 0 -0.000929777 -0.0227782 0 0 0 0)
(-1.06222e-14 -1.91742e-05 0 -1.91742e-05 -0.023702 0 0 0 0)
(0 0.000786804 0 0.000786804 -0.0243826 0 0 0 0)
(0 0.00145943 0 0.00145943 -0.0244193 0 0 0 0)
(0 0.00190477 0 0.00190477 -0.0223137 0 0 0 0)
(0 0.00204289 0 0.00204289 -0.0173014 0 0 0 0)
(0 0.00188888 0 0.00188888 -0.0109353 0 0 0 0)
(0 0.00191163 0 0.00191163 -0.00495807 0 0 0 0)
(0 0 0 0 -0 0 0 0 0)
(0 0 0 0 -0 0 0 0 0)
(0 0 0 0 -0 0 0 0 0)
(0 0 0 0 0 0 0 0 0)
(0 0 0 0 0 0 0 0 0)
(0 0 0 0 0 0 0 0 0)
(0 0 0 0 0 0 0 0 0)
(0 0 0 0 0 0 0 0 0)
(-0 0 0 0 0 0 0 0 0)
(0 0 0 0 0 0 0 0 0)
(0 0 0 0 0 0 0 0 0)
(0 0 0 0 -0 0 0 0 0)
(0 0 0 0 0 0 0 0 0)
(0 0 0 0 -0 0 0 0 0)
(0 0 0 0 -0 0 0 0 0)
(0 0 0 0 -0 0 0 0 0)
(0 0 0 0 -0 0 0 0 0)
(0 0 0 0 0 0 0 0 0)
(0 0 0 0 -0 0 0 0 0)
(0 0 0 0 0 0 0 0 0)
(0 0 0 0 -0 0 0 0 0)
(0 0 0 0 0 0 0 0 0)
(0 0 0 0 -0 0 0 0 0)
(0 0 0 0 0 0 0 0 0)
(0 0 0 0 -0 0 0 0 0)
(0 0 0 0 0 0 0 0 0)
(0 0 0 0 -0 0 0 0 0)
(0 0 0 0 0 0 0 0 0)
(0 0 0 0 -0 0 0 0 0)
(0 0 0 0 0 0 0 0 0)
(-0 0 0 0 -0 0 0 0 0)
(0 0 0 0 0 0 0 0 0)
(0 0 0 0 0 0 0 0 0)
(0 0 0 0 -0 0 0 0 0)
(0 0 0 0 0 0 0 0 0)
(0 0 0 0 0 0 0 0 0)
(0 0 0 0 -0 0 0 0 0)
(0 0 0 0 0 0 0 0 0)
(0 0 0 0 -0 0 0 0 0)
(0 0 0 0 0 0 0 0 0)
(0 0 0 0 -0 0 0 0 0)
(0 0 0 0 0 0 0 0 0)
(0 0 0 0 -0 0 0 0 0)
(0 0 0 0 0 0 0 0 0)
(0 0 0 0 -0 0 0 0 0)
(0 0 0 0 0 0 0 0 0)
(0 0 0 0 -0 0 0 0 0)
(0 0 0 0 0 0 0 0 0)
(0 0 0 0 -0 0 0 0 0)
(0 0 0 0 0 0 0 0 0)
(-0 0 0 0 -0 0 0 0 0)
(0 0 0 0 0 0 0 0 0)
(0 0 0 0 -0 0 0 0 0)
(0 0 0 0 0 0 0 0 0)
(0 0 0 0 -0 0 0 0 0)
(0 0 0 0 0 0 0 0 0)
(0 0 0 0 -0 0 0 0 0)
(0 -0 0 -0 0 0 0 0 0)
(0 0 0 0 -0 0 0 0 0)
(0 -0 0 -0 0 0 0 0 0)
(-0 0 0 0 -0 0 0 0 0)
(0 -0 0 -0 0 0 0 0 0)
(0 0 0 0 -0 0 0 0 0)
(0 -0 0 -0 0 0 0 0 0)
(0 0 0 0 -0 0 0 0 0)
(0 -0 0 -0 0 0 0 0 0)
(0 0 0 0 -0 0 0 0 0)
(0 -0 0 -0 0 0 0 0 0)
(0 0 0 0 -0 0 0 0 0)
(0 -0 0 -0 0 0 0 0 0)
(0 0 0 0 -0 0 0 0 0)
(0 0 0 0 0 0 0 0 0)
(0 0 0 0 -0 0 0 0 0)
(0 -0 0 -0 0 0 0 0 0)
(0 -0 0 -0 0 0 0 0 0)
(0 -0 0 -0 0 0 0 0 0)
(0 0 0 0 -0 0 0 0 0)
(0 -0 0 -0 0 0 0 0 0)
(0 0 0 0 -0 0 0 0 0)
(0 -0 0 -0 0 0 0 0 0)
(0 0 0 0 -0 0 0 0 0)
(0 -0 0 -0 0 0 0 0 0)
(0 0 0 0 -0 0 0 0 0)
(0 -0 0 -0 0 0 0 0 0)
(0 0 0 0 -0 0 0 0 0)
(0 -0 0 -0 0 0 0 0 0)
(0 0 0 0 -0 0 0 0 0)
(0 -0 0 -0 0 0 0 0 0)
(0 0 0 0 -0 0 0 0 0)
(0 -0 0 -0 0 0 0 0 0)
(0 0 0 0 -0 0 0 0 0)
(0 -0 0 -0 0 0 0 0 0)
(0 0 0 0 -0 0 0 0 0)
(0 -0 0 -0 0 0 0 0 0)
(0 0 0 0 -0 0 0 0 0)
(0 -0 0 -0 0 0 0 0 0)
(0 0 0 0 -0 0 0 0 0)
(0 -0 0 -0 0 0 0 0 0)
(0 0 0 0 -0 0 0 0 0)
(0 -0 0 -0 0 0 0 0 0)
(0 0 0 0 -0 0 0 0 0)
(0 -0 0 -0 0 0 0 0 0)
(0 0 0 0 -0 0 0 0 0)
(0 -0 0 -0 0 0 0 0 0)
(0 -0 0 -0 -0 0 0 0 0)
(0 -0 0 -0 0 0 0 0 0)
(0 0 0 0 -0 0 0 0 0)
(0 -0 0 -0 0 0 0 0 0)
(0 0 0 0 -0 0 0 0 0)
(0 -0 0 -0 0 0 0 0 0)
(0 0 0 0 -0 0 0 0 0)
(0 -0 0 -0 0 0 0 0 0)
(0 0 0 0 -0 0 0 0 0)
(0 -0 0 -0 0 0 0 0 0)
(0 0 0 0 -0 0 0 0 0)
(0 0 0 0 0 0 0 0 0)
(0 0 0 0 -0 0 0 0 0)
(0 0 0 0 0 0 0 0 0)
(0 0 0 0 0 0 0 0 0)
(0 0 0 0 0 0 0 0 0)
(0 0 0 0 0 0 0 0 0)
(0 0 0 0 0 0 0 0 0)
(0 0 0 0 0 0 0 0 0)
(0 0 0 0 0 0 0 0 0)
)
;

boundaryField
{
    inandouthalf11
    {
        type            cyclic;
    }
    inandouthalf12
    {
        type            cyclic;
    }
    inandouthalf21
    {
        type            cyclic;
    }
    inandouthalf22
    {
        type            cyclic;
    }
    inandouthalf31
    {
        type            cyclic;
    }
    inandouthalf32
    {
        type            cyclic;
    }
    inandouthalf41
    {
        type            cyclic;
    }
    inandouthalf42
    {
        type            cyclic;
    }
    top
    {
        type            symmetryPlane;
    }
    walls
    {
        type            zeroGradient;
    }
    frontAndBackPlanes
    {
        type            empty;
    }
}


// ************************************************************************* //
