/*--------------------------------*- C++ -*----------------------------------*\
| =========                 |                                                 |
| \\      /  F ield         | OpenFOAM: The Open Source CFD Toolbox           |
|  \\    /   O peration     | Version:  2.4.x                                 |
|   \\  /    A nd           | Web:      www.OpenFOAM.org                      |
|    \\/     M anipulation  |                                                 |
\*---------------------------------------------------------------------------*/
FoamFile
{
    version     2.0;
    format      ascii;
    class       volVectorField;
    location    "4.6";
    object      Ub;
}
// * * * * * * * * * * * * * * * * * * * * * * * * * * * * * * * * * * * * * //

dimensions      [0 1 -1 0 0 0 0];

internalField   nonuniform List<vector> 
360
(
(-1.9359e-05 1.01456e-07 0)
(-1.9338e-05 3.96459e-07 0)
(-1.93688e-05 7.67216e-07 0)
(-1.94255e-05 1.10678e-06 0)
(-1.94809e-05 1.43158e-06 0)
(-1.95342e-05 1.76063e-06 0)
(-1.95885e-05 2.09842e-06 0)
(-1.96442e-05 2.44266e-06 0)
(-1.97006e-05 2.79049e-06 0)
(-1.97578e-05 3.14068e-06 0)
(-1.98161e-05 3.4936e-06 0)
(-1.98752e-05 3.85004e-06 0)
(-1.99354e-05 4.21059e-06 0)
(-1.99966e-05 4.57545e-06 0)
(-2.00589e-05 4.94461e-06 0)
(-2.01223e-05 5.31826e-06 0)
(-2.01869e-05 5.6968e-06 0)
(-2.02529e-05 6.08081e-06 0)
(-2.03202e-05 6.47082e-06 0)
(-2.03892e-05 6.86735e-06 0)
(-2.04596e-05 7.27047e-06 0)
(-2.05317e-05 7.67986e-06 0)
(-2.06051e-05 8.09461e-06 0)
(-2.06796e-05 8.513e-06 0)
(-2.07549e-05 8.93259e-06 0)
(-2.08303e-05 9.35052e-06 0)
(-2.09054e-05 9.76412e-06 0)
(-2.09799e-05 1.0172e-05 0)
(-2.1054e-05 1.05747e-05 0)
(-2.11282e-05 1.09759e-05 0)
(-2.1204e-05 1.13831e-05 0)
(-2.12837e-05 1.1809e-05 0)
(-2.13705e-05 1.22717e-05 0)
(-2.14695e-05 1.27964e-05 0)
(-2.1586e-05 1.34113e-05 0)
(-2.17248e-05 1.41374e-05 0)
(-2.18847e-05 1.4962e-05 0)
(-2.20511e-05 1.58089e-05 0)
(-2.21956e-05 1.65458e-05 0)
(-2.22923e-05 1.70584e-05 0)
(-2.23406e-05 1.73327e-05 0)
(-2.23588e-05 1.74436e-05 0)
(-2.23647e-05 1.74779e-05 0)
(-2.23673e-05 1.74863e-05 0)
(-2.2369e-05 1.74877e-05 0)
(-2.23707e-05 1.74876e-05 0)
(-2.23725e-05 1.74871e-05 0)
(-2.23742e-05 1.74863e-05 0)
(-2.23762e-05 1.74855e-05 0)
(-2.23784e-05 1.74847e-05 0)
(-2.23807e-05 1.74837e-05 0)
(-2.23831e-05 1.74827e-05 0)
(-2.23857e-05 1.74816e-05 0)
(-2.23886e-05 1.74805e-05 0)
(-2.23915e-05 1.74793e-05 0)
(-2.23948e-05 1.74781e-05 0)
(-2.23981e-05 1.74767e-05 0)
(-2.24018e-05 1.74753e-05 0)
(-2.24056e-05 1.74738e-05 0)
(-2.24095e-05 1.74722e-05 0)
(-2.24137e-05 1.74706e-05 0)
(-2.2418e-05 1.74688e-05 0)
(-2.24225e-05 1.7467e-05 0)
(-2.24271e-05 1.74651e-05 0)
(-2.24318e-05 1.74632e-05 0)
(-2.24366e-05 1.74613e-05 0)
(-2.24415e-05 1.74592e-05 0)
(-2.24467e-05 1.74571e-05 0)
(-2.2452e-05 1.7455e-05 0)
(-2.24575e-05 1.74527e-05 0)
(-2.24633e-05 1.74504e-05 0)
(-2.24693e-05 1.7448e-05 0)
(-2.24754e-05 1.74454e-05 0)
(-2.24818e-05 1.74429e-05 0)
(-2.24883e-05 1.74402e-05 0)
(-2.2495e-05 1.74375e-05 0)
(-2.25017e-05 1.74347e-05 0)
(-2.25087e-05 1.74319e-05 0)
(-2.25158e-05 1.74291e-05 0)
(-2.25231e-05 1.74261e-05 0)
(-2.25305e-05 1.74231e-05 0)
(-2.25382e-05 1.742e-05 0)
(-2.25461e-05 1.74168e-05 0)
(-2.25542e-05 1.74135e-05 0)
(-2.25625e-05 1.74102e-05 0)
(-2.2571e-05 1.74068e-05 0)
(-2.25797e-05 1.74033e-05 0)
(-2.25886e-05 1.73997e-05 0)
(-2.25976e-05 1.7396e-05 0)
(-2.26069e-05 1.73923e-05 0)
(-2.26164e-05 1.73885e-05 0)
(-2.2626e-05 1.73846e-05 0)
(-2.26359e-05 1.73806e-05 0)
(-2.26461e-05 1.73765e-05 0)
(-2.26565e-05 1.73723e-05 0)
(-2.26671e-05 1.7368e-05 0)
(-2.2678e-05 1.73637e-05 0)
(-2.26891e-05 1.73592e-05 0)
(-2.27006e-05 1.73546e-05 0)
(-2.27122e-05 1.73498e-05 0)
(-2.27242e-05 1.7345e-05 0)
(-2.27364e-05 1.73401e-05 0)
(-2.2749e-05 1.7335e-05 0)
(-2.27619e-05 1.73298e-05 0)
(-2.27751e-05 1.73244e-05 0)
(-2.27886e-05 1.7319e-05 0)
(-2.28025e-05 1.73133e-05 0)
(-2.28167e-05 1.73076e-05 0)
(-2.28313e-05 1.73016e-05 0)
(-2.28463e-05 1.72955e-05 0)
(-2.28618e-05 1.72893e-05 0)
(-2.28776e-05 1.72828e-05 0)
(-2.28939e-05 1.72762e-05 0)
(-2.29107e-05 1.72693e-05 0)
(-2.2928e-05 1.72623e-05 0)
(-2.29458e-05 1.7255e-05 0)
(-2.29641e-05 1.72476e-05 0)
(-2.2983e-05 1.72399e-05 0)
(-2.30025e-05 1.72319e-05 0)
(-2.30226e-05 1.72237e-05 0)
(-2.30433e-05 1.72152e-05 0)
(-2.30648e-05 1.72065e-05 0)
(-2.30869e-05 1.71974e-05 0)
(-2.31098e-05 1.71881e-05 0)
(-2.31335e-05 1.71784e-05 0)
(-2.3158e-05 1.71684e-05 0)
(-2.31834e-05 1.7158e-05 0)
(-2.32098e-05 1.71473e-05 0)
(-2.32373e-05 1.71361e-05 0)
(-2.32658e-05 1.71244e-05 0)
(-2.32956e-05 1.71123e-05 0)
(-2.33266e-05 1.70996e-05 0)
(-2.33589e-05 1.70863e-05 0)
(-2.33931e-05 1.70722e-05 0)
(-2.34293e-05 1.70574e-05 0)
(-2.34678e-05 1.70418e-05 0)
(-2.35081e-05 1.70252e-05 0)
(-2.3551e-05 1.70071e-05 0)
(-2.35986e-05 1.6987e-05 0)
(-2.36532e-05 1.69655e-05 0)
(-2.37126e-05 1.69438e-05 0)
(-2.37691e-05 1.69168e-05 0)
(-2.38365e-05 1.68869e-05 0)
(-2.39242e-05 1.68518e-05 0)
(-2.40324e-05 1.67925e-05 0)
(-2.42581e-05 1.67219e-05 0)
(-6.45822e-05 1.34791e-05 0)
(-0.0184094 1.98797e-05 0)
(-0.122322 2.75571e-05 0)
(-0.220445 1.51503e-05 0)
(-0.29873 1.27677e-05 0)
(-0.363604 7.72715e-06 0)
(-0.418663 2.16243e-06 0)
(-0.466135 -3.52778e-06 0)
(-0.507586 -8.94093e-06 0)
(-0.544171 -1.37753e-05 0)
(-0.576776 -1.77646e-05 0)
(-0.60609 -2.07911e-05 0)
(-0.632657 -2.28573e-05 0)
(-0.656908 -2.40444e-05 0)
(-0.679189 -2.44756e-05 0)
(-0.699777 -2.42881e-05 0)
(-0.718897 -2.3616e-05 0)
(-0.736731 -2.25809e-05 0)
(-0.753427 -2.12876e-05 0)
(-0.769107 -1.98236e-05 0)
(-0.78387 -1.82599e-05 0)
(-0.797799 -1.66526e-05 0)
(-0.810961 -1.50457e-05 0)
(-0.82341 -1.34724e-05 0)
(-0.83519 -1.19575e-05 0)
(-0.846337 -1.05186e-05 0)
(-0.856877 -9.16528e-06 0)
(-0.866832 -7.89809e-06 0)
(-0.876215 -6.71048e-06 0)
(-0.885036 -5.59736e-06 0)
(-0.893298 -4.56658e-06 0)
(-0.901002 -3.64218e-06 0)
(-0.908147 -2.85296e-06 0)
(-0.914729 -2.21485e-06 0)
(-0.920747 -1.72227e-06 0)
(-0.926201 -1.35297e-06 0)
(-0.931094 -1.079e-06 0)
(-0.935438 -8.74869e-07 0)
(-0.939247 -7.20693e-07 0)
(-0.942546 -6.02038e-07 0)
(-0.945362 -5.08637e-07 0)
(-0.947733 -4.33096e-07 0)
(-0.949695 -3.69922e-07 0)
(-0.95129 -3.15101e-07 0)
(-0.952559 -2.66327e-07 0)
(-0.953539 -2.23218e-07 0)
(-0.954266 -1.86538e-07 0)
(-0.954772 -1.56623e-07 0)
(-0.955084 -1.32552e-07 0)
(-0.955227 -1.12819e-07 0)
(-0.95522 -9.63205e-08 0)
(-0.955082 -8.24917e-08 0)
(-0.954827 -7.09043e-08 0)
(-0.954467 -6.10975e-08 0)
(-0.954014 -5.27242e-08 0)
(-0.953469 -4.55668e-08 0)
(-0.952833 -3.94635e-08 0)
(-0.952106 -3.41471e-08 0)
(-0.951292 -2.94076e-08 0)
(-0.950391 -2.53164e-08 0)
(-0.949404 -2.18946e-08 0)
(-0.948334 -1.88902e-08 0)
(-0.94718 -1.61748e-08 0)
(-0.945945 -1.38552e-08 0)
(-0.944628 -1.18959e-08 0)
(-0.943231 -1.01607e-08 0)
(-0.941753 -8.64745e-09 0)
(-0.940197 -7.35423e-09 0)
(-0.938562 -6.22511e-09 0)
(-0.93685 -5.26425e-09 0)
(-0.935061 -4.45432e-09 0)
(-0.933196 -3.73058e-09 0)
(-0.931257 -3.10424e-09 0)
(-0.929244 -2.59587e-09 0)
(-0.927159 -2.15718e-09 0)
(-0.925003 -1.76955e-09 0)
(-0.922778 -1.44558e-09 0)
(-0.920485 -1.17531e-09 0)
(-0.918126 -9.50594e-10 0)
(-0.915705 -7.6207e-10 0)
(-0.913222 -6.02305e-10 0)
(-0.910682 -4.7471e-10 0)
(-0.908088 -3.70692e-10 0)
(-0.905443 -2.81864e-10 0)
(-0.902753 -2.10565e-10 0)
(-0.900022 -1.5674e-10 0)
(-0.897257 -1.20249e-10 0)
(-0.894467 -9.82257e-11 0)
(-0.891659 -8.40049e-11 0)
(-0.888845 -9.61242e-11 0)
(-0.886038 4.13178e-11 0)
(-0.883257 1.38925e-11 0)
(-0.880521 6.415e-11 0)
(-0.877861 -1.70797e-10 0)
(-0.875315 2.97874e-10 0)
(-0.87294 -4.65978e-10 0)
(-0.870827 6.55822e-10 0)
(-0.86918 -8.77517e-10 0)
(-0.868608 1.10712e-09 0)
(-0.868565 -1.35365e-09 0)
(-0.868562 1.59925e-09 0)
(-0.86856 -1.85794e-09 0)
(-0.868559 2.11605e-09 0)
(-0.868558 -2.38736e-09 0)
(-0.868557 2.65923e-09 0)
(-0.868556 -2.94441e-09 0)
(-0.868555 3.23123e-09 0)
(-0.868555 -3.53141e-09 0)
(-0.868554 3.83426e-09 0)
(-0.868554 -4.15046e-09 0)
(-0.868554 4.47034e-09 0)
(-0.868553 -4.80352e-09 0)
(-0.868553 5.14133e-09 0)
(-0.868553 -5.49237e-09 0)
(-0.868553 5.84895e-09 0)
(-0.868553 -6.21867e-09 0)
(-0.868553 6.59481e-09 0)
(-0.868553 -6.98398e-09 0)
(-0.868553 7.38039e-09 0)
(-0.868553 -7.7898e-09 0)
(-0.868553 8.20715e-09 0)
(-0.868553 -8.63747e-09 0)
(-0.868553 9.07644e-09 0)
(-0.868553 -9.52841e-09 0)
(-0.868553 9.9896e-09 0)
(-0.868553 -1.04639e-08 0)
(-0.868553 1.09479e-08 0)
(-0.868553 -1.14451e-08 0)
(-0.868553 1.19526e-08 0)
(-0.868553 -1.24734e-08 0)
(-0.868553 1.30048e-08 0)
(-0.868553 -1.35498e-08 0)
(-0.868553 1.41058e-08 0)
(-0.868553 -1.46755e-08 0)
(-0.868553 1.52568e-08 0)
(-0.868553 -1.58518e-08 0)
(-0.868553 1.64588e-08 0)
(-0.868553 -1.70797e-08 0)
(-0.868553 1.7713e-08 0)
(-0.868553 -1.83604e-08 0)
(-0.868553 1.90206e-08 0)
(-0.868553 -1.96949e-08 0)
(-0.868553 2.03825e-08 0)
(-0.868553 -2.10845e-08 0)
(-0.868553 2.18e-08 0)
(-0.868553 -2.253e-08 0)
(-0.868553 2.32741e-08 0)
(-0.868553 -2.40327e-08 0)
(-0.868553 2.48057e-08 0)
(-0.868553 -2.55935e-08 0)
(-0.868553 2.63959e-08 0)
(-0.868553 -2.72134e-08 0)
(-0.868553 2.80457e-08 0)
(-0.868553 -2.88932e-08 0)
(-0.868553 2.9756e-08 0)
(-0.868553 -3.0634e-08 0)
(-0.868553 3.15276e-08 0)
(-0.868553 -3.24365e-08 0)
(-0.868553 3.33611e-08 0)
(-0.868553 -3.43012e-08 0)
(-0.868553 3.52572e-08 0)
(-0.868553 -3.62287e-08 0)
(-0.868553 3.72162e-08 0)
(-0.868553 -3.82193e-08 0)
(-0.868553 3.44386e-08 0)
(-0.868553 -3.46762e-08 0)
(-0.868553 3.49107e-08 0)
(-0.868553 -3.51419e-08 0)
(-0.868553 3.53699e-08 0)
(-0.868553 -3.55946e-08 0)
(-0.868553 3.58161e-08 0)
(-0.868553 -3.60342e-08 0)
(-0.868553 3.6249e-08 0)
(-0.868553 -3.64604e-08 0)
(-0.868553 3.66685e-08 0)
(-0.868553 -3.68731e-08 0)
(-0.868553 3.70743e-08 0)
(-0.868553 -3.72721e-08 0)
(-0.868553 3.74663e-08 0)
(-0.868553 -3.7657e-08 0)
(-0.868553 3.78442e-08 0)
(-0.868553 -3.80278e-08 0)
(-0.868553 3.82077e-08 0)
(-0.868553 -3.83842e-08 0)
(-0.868553 3.85567e-08 0)
(-0.868553 -3.87259e-08 0)
(-0.868553 3.88909e-08 0)
(-0.868553 -3.90526e-08 0)
(-0.868553 3.92099e-08 0)
(-0.868553 -3.93642e-08 0)
(-0.868553 3.95136e-08 0)
(-0.868553 -3.96601e-08 0)
(-0.868553 3.98015e-08 0)
(-0.868553 -3.99401e-08 0)
(-0.868553 4.00733e-08 0)
(-0.868553 -4.02038e-08 0)
(-0.868553 4.03284e-08 0)
(-0.868553 -4.04505e-08 0)
(-0.868553 4.05665e-08 0)
(-0.868553 -4.06799e-08 0)
(-0.868553 4.07867e-08 0)
(-0.868553 -4.08911e-08 0)
(-0.868553 4.09883e-08 0)
(-0.868553 -4.10832e-08 0)
(-0.868553 4.11703e-08 0)
(-0.868553 -4.12549e-08 0)
(-0.868553 4.13312e-08 0)
(-0.868553 -4.14047e-08 0)
(-0.868553 4.14687e-08 0)
(-0.868553 -4.15294e-08 0)
(-0.868553 4.15794e-08 0)
(-0.868553 -4.16243e-08 0)
(-0.868553 4.16561e-08 0)
(-0.868553 -4.16767e-08 0)
)
;

boundaryField
{
    inandouthalf11
    {
        type            cyclic;
    }
    inandouthalf12
    {
        type            cyclic;
    }
    inandouthalf21
    {
        type            cyclic;
    }
    inandouthalf22
    {
        type            cyclic;
    }
    inandouthalf31
    {
        type            cyclic;
    }
    inandouthalf32
    {
        type            cyclic;
    }
    inandouthalf41
    {
        type            cyclic;
    }
    inandouthalf42
    {
        type            cyclic;
    }
    top
    {
        type            symmetryPlane;
    }
    walls
    {
        type            fixedValue;
        value           uniform (0 0 0);
    }
    frontAndBackPlanes
    {
        type            empty;
    }
}


// ************************************************************************* //
