/*--------------------------------*- C++ -*----------------------------------*\
| =========                 |                                                 |
| \\      /  F ield         | OpenFOAM: The Open Source CFD Toolbox           |
|  \\    /   O peration     | Version:  2.4.x                                 |
|   \\  /    A nd           | Web:      www.OpenFOAM.org                      |
|    \\/     M anipulation  |                                                 |
\*---------------------------------------------------------------------------*/
FoamFile
{
    version     2.0;
    format      ascii;
    class       volVectorField;
    location    "1.65";
    object      gradPs;
}
// * * * * * * * * * * * * * * * * * * * * * * * * * * * * * * * * * * * * * //

dimensions      [0 1 -2 0 0 0 0];

internalField   nonuniform List<vector> 
360
(
(0 9.89293e-27 0)
(0 -1.76842e-21 0)
(0 -1.76843e-21 0)
(0 7.85353e-29 0)
(-1.45436e-32 -1.76841e-21 0)
(-2.90872e-32 -1.76841e-21 0)
(-1.45436e-32 -1.76839e-21 0)
(0 -1.76839e-21 0)
(-1.45436e-32 -1.76837e-21 0)
(0 -3.53673e-21 0)
(-2.90873e-32 -1.76836e-21 0)
(0 -1.76834e-21 0)
(-1.45437e-32 -3.53666e-21 0)
(0 -3.53663e-21 0)
(0 -3.53659e-21 0)
(0 -3.53656e-21 0)
(0 -3.53652e-21 0)
(-2.90876e-32 -3.53649e-21 0)
(0 -5.30465e-21 0)
(0 -5.30461e-21 0)
(0 -5.30449e-21 0)
(-1.4544e-32 -7.07256e-21 0)
(0 -7.07242e-21 0)
(0 -7.07228e-21 0)
(0 -7.07214e-21 0)
(-1.45442e-32 -7.072e-21 0)
(0 -8.83977e-21 0)
(0 -1.06075e-20 0)
(0 -1.06072e-20 0)
(0 -1.06068e-20 0)
(0 -1.23742e-20 0)
(0 -1.23739e-20 0)
(0 -1.41409e-20 0)
(0 -1.5908e-20 0)
(0 -1.59072e-20 0)
(1.4545e-32 -1.76739e-20 0)
(0 -1.94402e-20 0)
(0 -2.29734e-20 0)
(0 -2.29721e-20 0)
(0 -2.47373e-20 0)
(0 -2.82692e-20 0)
(0 -2.8267e-20 0)
(2.90923e-32 -3.17975e-20 0)
(0 -3.53275e-20 0)
(0 -3.709e-20 0)
(0 -4.06179e-20 0)
(0 -4.23791e-20 0)
(0 -4.59048e-20 0)
(0 -5.29597e-20 0)
(0 -5.64821e-20 0)
(1.45485e-32 -6.0002e-20 0)
(0 -6.52851e-20 0)
(0 -7.05648e-20 0)
(0 -7.58418e-20 0)
(0 -8.28779e-20 0)
(0 -8.99102e-20 0)
(0 -9.69359e-20 0)
(0 -1.05719e-19 0)
(0 -1.12732e-19 0)
(0 -1.23259e-19 0)
(0 -1.33777e-19 0)
(0 -1.44281e-19 0)
(0 -1.56532e-19 0)
(0 -1.68766e-19 0)
(0 -1.82739e-19 0)
(0 -1.98446e-19 0)
(0 -2.15882e-19 0)
(0 -2.33286e-19 0)
(0 -2.50656e-19 0)
(0 -2.71488e-19 0)
(0 -2.95773e-19 0)
(0 -3.18251e-19 0)
(0 -3.43218e-19 0)
(0 -1.08157e-19 0)
(0 4.4183e-18 0)
(0 1.88191e-17 0)
(0 2.1939e-17 0)
(0 -4.86464e-19 0)
(0 -1.61531e-17 0)
(0 -1.22307e-17 0)
(0 -5.58982e-18 0)
(0 -1.8994e-18 0)
(0 -1.49679e-20 0)
(0 9.89853e-19 0)
(0 1.35663e-18 0)
(0 1.16251e-18 0)
(0 6.4265e-19 0)
(0 1.51172e-19 0)
(0 -7.05769e-20 0)
(0 -3.05626e-25 0)
(0 2.5121e-19 0)
(0 5.54881e-19 0)
(0 8.19602e-19 0)
(0 1.00127e-18 0)
(0 1.1005e-18 0)
(0 1.1486e-18 0)
(0 1.18504e-18 0)
(0 1.23866e-18 0)
(0 1.31593e-18 0)
(0 -1.87051e-16 0)
(0 -1.87754e-16 0)
(0 0 0)
(0 0 0)
(0 0 0)
(0 0 0)
(0 0 0)
(0 0 0)
(0 0 0)
(0 0 0)
(0 0 0)
(0 0 0)
(0 0 0)
(0 0 0)
(0 0 0)
(0 2.03625e-16 0)
(0 2.04541e-16 0)
(0 1.74134e-18 0)
(0 1.72498e-18 0)
(0 1.74634e-18 0)
(0 1.80619e-18 0)
(0 1.89122e-18 0)
(0 1.97033e-18 0)
(0 2.00285e-18 0)
(0 1.97109e-18 0)
(0 1.94408e-18 0)
(0 2.15829e-18 0)
(0 3.07281e-18 0)
(0 5.3466e-18 0)
(0 9.65942e-18 0)
(0 1.60191e-17 0)
(0 2.13957e-17 0)
(0 1.56825e-17 0)
(0 -1.20238e-17 0)
(0 -4.6332e-17 0)
(0 -5.32727e-17 0)
(0 -3.31553e-17 0)
(0 -1.31828e-17 0)
(0 -3.21655e-18 0)
(0 6.84524e-16 0)
(0 1.89317e-11 0)
(0 3.46437e-07 0)
(0 0.00046828 0)
(0 0.0564037 0)
(0 1.00569 0)
(0 3.49519 0)
(0 3.72308 0)
(0 0.879718 0)
(0 -0.405249 0)
(0 -0.984289 0)
(0 -3.26506 0)
(0 -5.69269 0)
(0 -6.97529 0)
(0 -7.29253 0)
(0 -7.76346 0)
(0 -8.79644 0)
(0 -9.78946 0)
(0 -6.63734 0)
(0 -3.12501 0)
(0 -2.05882 0)
(0 -1.72487 0)
(0 -1.4642 0)
(0 -1.37377 0)
(0 -1.25107 0)
(0 -1.19219 0)
(0 -0.994235 0)
(0 -1.1469 0)
(0 -0.903719 0)
(0 -0.903167 0)
(0 -0.898135 0)
(0 -0.797151 0)
(0 -0.791955 0)
(0 -0.717103 0)
(0 -0.747425 0)
(0 -0.656388 0)
(0 -0.628503 0)
(0 -0.57622 0)
(0 -0.647548 0)
(0 -0.498569 0)
(0 -0.534843 0)
(0 -0.485445 0)
(0 -0.466016 0)
(0 -0.459792 0)
(0 -0.40051 0)
(0 -0.399348 0)
(0 -0.374775 0)
(0 -0.362277 0)
(0 -0.298359 0)
(0 -0.351107 0)
(0 -0.272568 0)
(0 -0.267433 0)
(0 -0.254543 0)
(0 -0.239641 0)
(0 -0.238623 0)
(0 -0.203575 0)
(0 -0.186379 0)
(0 -0.162781 0)
(0 -0.172285 0)
(0 -0.177074 0)
(0 -0.160299 0)
(0 -0.107811 0)
(0 -0.111594 0)
(0 -0.100083 0)
(-9.66401e-17 -0.123622 0)
(0 -0.123368 0)
(0 -0.0830886 0)
(4.78074e-17 -0.0588349 0)
(0 -0.060659 0)
(-4.68405e-17 -0.0833482 0)
(0 -0.0756803 0)
(2.31075e-17 -0.0470363 0)
(0 -0.0357314 0)
(0 -0.0493083 0)
(0 -0.0483969 0)
(1.10062e-17 -0.029322 0)
(0 -0.0241629 0)
(0 -0.0339804 0)
(0 -0.0312273 0)
(0 -0.0173182 0)
(0 -0.0144195 0)
(-5.02709e-18 -0.0194222 0)
(0 -0.0176923 0)
(-4.87255e-18 -0.0108562 0)
(0 -0.0107394 0)
(-4.70747e-18 -0.0111239 0)
(0 -0.00709148 0)
(0 -0.00657285 0)
(0 -0.00745285 0)
(0 -0.00506519 0)
(0 -0.00372549 0)
(1.05479e-18 -0.00407749 0)
(0 -0.00310852 0)
(0 -0.00250495 0)
(0 -0.00214038 0)
(0 -0.00175095 0)
(0 -0.00157365 0)
(0 -0.0012112 0)
(0 -0.000990601 0)
(0 -0.000729563 0)
(0 -0.000662018 0)
(0 -0.000503738 0)
(0 -0.000365948 0)
(0 -0.000215056 0)
(0 -0.000175914 0)
(-5.01306e-20 -0.000174844 0)
(4.91338e-20 -0.00028759 0)
(0 -0.000195672 0)
(0 0 0)
(0 0 0)
(0 0 0)
(0 0 0)
(0 0 0)
(0 0 0)
(0 0 0)
(0 0 0)
(0 0 0)
(0 0 0)
(0 0 0)
(0 0 0)
(0 0 0)
(0 0 0)
(0 0 0)
(0 0 0)
(0 0 0)
(0 0 0)
(0 0 0)
(0 0 0)
(0 0 0)
(0 0 0)
(0 0 0)
(0 0 0)
(0 0 0)
(0 0 0)
(0 0 0)
(0 0 0)
(0 0 0)
(0 0 0)
(0 0 0)
(0 0 0)
(0 0 0)
(0 0 0)
(0 0 0)
(0 0 0)
(0 0 0)
(0 0 0)
(0 0 0)
(0 0 0)
(0 0 0)
(0 0 0)
(0 0 0)
(0 0 0)
(0 0 0)
(0 0 0)
(0 0 0)
(0 0 0)
(0 0 0)
(0 0 0)
(0 0 0)
(0 0 0)
(0 0 0)
(0 0 0)
(0 0 0)
(0 0 0)
(0 0 0)
(0 0 0)
(0 0 0)
(0 0 0)
(0 0 0)
(0 0 0)
(0 0 0)
(0 0 0)
(0 0 0)
(0 0 0)
(0 0 0)
(0 0 0)
(0 0 0)
(0 0 0)
(0 0 0)
(0 0 0)
(0 0 0)
(0 0 0)
(0 0 0)
(0 0 0)
(0 0 0)
(0 0 0)
(0 0 0)
(0 0 0)
(0 0 0)
(0 0 0)
(0 0 0)
(0 0 0)
(0 0 0)
(0 0 0)
(0 0 0)
(0 0 0)
(0 0 0)
(0 0 0)
(0 0 0)
(0 0 0)
(0 0 0)
(0 0 0)
(0 0 0)
(0 0 0)
(0 0 0)
(0 0 0)
(0 0 0)
(0 0 0)
(0 0 0)
(0 0 0)
(0 0 0)
(0 0 0)
(0 0 0)
(0 0 0)
(0 0 0)
(0 0 0)
(0 0 0)
(0 0 0)
(0 0 0)
(0 0 0)
(0 0 0)
(0 0 0)
)
;

boundaryField
{
    inandouthalf11
    {
        type            cyclic;
    }
    inandouthalf12
    {
        type            cyclic;
    }
    inandouthalf21
    {
        type            cyclic;
    }
    inandouthalf22
    {
        type            cyclic;
    }
    inandouthalf31
    {
        type            cyclic;
    }
    inandouthalf32
    {
        type            cyclic;
    }
    inandouthalf41
    {
        type            cyclic;
    }
    inandouthalf42
    {
        type            cyclic;
    }
    top
    {
        type            symmetryPlane;
    }
    walls
    {
        type            calculated;
        value           uniform (0 0 0);
    }
    frontAndBackPlanes
    {
        type            empty;
    }
}


// ************************************************************************* //
