/*--------------------------------*- C++ -*----------------------------------*\
| =========                 |                                                 |
| \\      /  F ield         | OpenFOAM: The Open Source CFD Toolbox           |
|  \\    /   O peration     | Version:  2.4.x                                 |
|   \\  /    A nd           | Web:      www.OpenFOAM.org                      |
|    \\/     M anipulation  |                                                 |
\*---------------------------------------------------------------------------*/
FoamFile
{
    version     2.0;
    format      ascii;
    class       volScalarField;
    location    "1.65";
    object      p;
}
// * * * * * * * * * * * * * * * * * * * * * * * * * * * * * * * * * * * * * //

dimensions      [1 -1 -2 0 0 0 0];

internalField   nonuniform List<scalar> 
360
(
4901.06
4896.15
4891.25
4886.34
4881.44
4876.53
4871.63
4866.72
4861.82
4856.91
4852.01
4847.1
4842.2
4837.29
4832.39
4827.48
4822.58
4817.67
4812.77
4807.86
4802.96
4798.05
4793.15
4788.24
4783.34
4778.43
4773.53
4768.62
4763.72
4758.81
4753.91
4749
4744.1
4739.19
4734.29
4729.38
4724.48
4719.57
4714.67
4709.76
4704.86
4699.95
4695.05
4690.14
4685.24
4680.33
4675.43
4670.52
4665.62
4660.71
4655.81
4650.9
4646
4641.09
4636.19
4631.28
4626.38
4621.47
4616.57
4611.66
4606.76
4601.85
4596.95
4592.04
4587.14
4582.23
4577.33
4572.42
4567.52
4562.61
4557.71
4552.8
4547.9
4542.99
4538.09
4533.18
4528.27
4523.36
4518.43
4513.5
4508.57
4503.63
4498.69
4493.74
4488.79
4483.84
4478.88
4473.92
4468.95
4463.98
4459.01
4454.03
4449.05
4444.06
4439.07
4434.07
4429.07
4424.06
4419.05
4414.04
4409.01
4403.99
4398.95
4393.91
4388.87
4383.81
4378.75
4373.69
4368.62
4363.54
4358.45
4353.36
4348.26
4343.15
4338.03
4332.91
4327.78
4322.64
4317.49
4312.34
4307.18
4302
4296.83
4291.64
4286.44
4281.24
4276.03
4270.81
4265.58
4260.34
4255.09
4249.84
4244.57
4239.3
4234.01
4228.72
4223.43
4218.13
4212.83
4207.54
4202.24
4196.94
4191.62
4186.27
4180.87
4175.35
4169.65
4163.74
4157.61
4151.59
4146.81
4142.11
4137.29
4132.43
4127.55
4122.65
4117.75
4112.84
4107.94
4103.04
4098.13
4093.23
4088.32
4083.42
4078.51
4073.61
4068.7
4063.8
4058.89
4053.99
4049.08
4044.18
4039.27
4034.37
4029.46
4024.56
4019.65
4014.75
4009.84
4004.93
4000.03
3995.12
3990.22
3985.31
3980.41
3975.5
3970.6
3965.69
3960.79
3955.88
3950.98
3946.07
3941.17
3936.26
3931.36
3926.45
3921.55
3916.64
3911.74
3906.83
3901.93
3896.97
3891.92
3886.76
3881.5
3876.13
3870.65
3865.06
3859.36
3853.54
3847.6
3841.54
3835.36
3829.06
3822.62
3816.06
3809.36
3802.53
3795.55
3788.44
3781.18
3773.78
3766.22
3758.51
3750.65
3742.62
3734.43
3726.08
3717.55
3708.86
3699.98
3690.93
3681.69
3672.27
3662.65
3652.84
3642.83
3632.61
3622.19
3611.56
3600.71
3589.64
3578.35
3566.83
3555.07
3543.08
3530.84
3518.35
3505.61
3492.61
3479.35
3465.82
3452.01
3437.92
3423.55
3408.88
3393.92
3378.66
3363.08
3347.19
3330.97
3314.43
3297.55
3280.33
3262.76
3244.83
3226.54
3207.87
3188.83
3169.4
3149.58
3129.35
3108.72
3087.66
3066.18
3044.26
3021.9
2999.08
2975.8
2952.05
2927.81
2903.09
2877.86
2852.12
2825.86
2799.06
2771.72
2743.82
2715.36
2686.32
2656.7
2626.47
2595.62
2564.15
2532.05
2499.29
2465.86
2431.76
2396.96
2361.46
2325.24
2288.28
2250.57
2212.1
2172.85
2132.8
2091.93
2050.24
2007.7
1964.3
1922.76
1883.52
1844.28
1805.04
1765.8
1726.56
1687.32
1648.08
1608.84
1569.6
1530.36
1491.12
1451.88
1412.64
1373.4
1334.16
1294.92
1255.68
1216.44
1177.2
1137.96
1098.72
1059.48
1020.24
981
941.76
902.52
863.28
824.04
784.8
745.56
706.32
667.08
627.84
588.6
549.36
510.12
470.88
431.64
392.4
353.16
313.92
274.68
235.44
196.2
156.96
117.72
78.48
39.24
-2.43639e-07
)
;

boundaryField
{
    inandouthalf11
    {
        type            cyclic;
    }
    inandouthalf12
    {
        type            cyclic;
    }
    inandouthalf21
    {
        type            cyclic;
    }
    inandouthalf22
    {
        type            cyclic;
    }
    inandouthalf31
    {
        type            cyclic;
    }
    inandouthalf32
    {
        type            cyclic;
    }
    inandouthalf41
    {
        type            cyclic;
    }
    inandouthalf42
    {
        type            cyclic;
    }
    top
    {
        type            symmetryPlane;
    }
    walls
    {
        type            slip;
    }
    frontAndBackPlanes
    {
        type            empty;
    }
}


// ************************************************************************* //
