/*--------------------------------*- C++ -*----------------------------------*\
| =========                 |                                                 |
| \\      /  F ield         | OpenFOAM: The Open Source CFD Toolbox           |
|  \\    /   O peration     | Version:  2.4.x                                 |
|   \\  /    A nd           | Web:      www.OpenFOAM.org                      |
|    \\/     M anipulation  |                                                 |
\*---------------------------------------------------------------------------*/
FoamFile
{
    version     2.0;
    format      ascii;
    class       volVectorField;
    location    "1.65";
    object      susb;
}
// * * * * * * * * * * * * * * * * * * * * * * * * * * * * * * * * * * * * * //

dimensions      [0 1 -2 0 0 0 0];

internalField   nonuniform List<vector> 
360
(
(0 -1.38928e-28 0)
(0 -6.90597e-21 0)
(0 -6.90592e-21 0)
(0 3.05639e-28 0)
(-3.65596e-31 -6.90592e-21 0)
(-3.65594e-31 -6.90588e-21 0)
(-3.65594e-31 -6.90588e-21 0)
(0 -6.90583e-21 0)
(-3.65592e-31 -6.90583e-21 0)
(0 -1.38116e-20 0)
(-3.65587e-31 -6.90574e-21 0)
(0 -6.90574e-21 0)
(-3.65584e-31 -1.38114e-20 0)
(0 -1.38113e-20 0)
(0 -1.38112e-20 0)
(0 -1.38111e-20 0)
(0 -1.3811e-20 0)
(-3.65572e-31 -1.38109e-20 0)
(0 -2.07162e-20 0)
(0 -2.07159e-20 0)
(0 -2.07158e-20 0)
(-3.65557e-31 -2.76207e-20 0)
(0 -2.76203e-20 0)
(0 -2.762e-20 0)
(0 -2.76196e-20 0)
(-7.31074e-31 -2.76192e-20 0)
(0 -3.45235e-20 0)
(0 -4.14274e-20 0)
(0 -4.14266e-20 0)
(0 -4.14257e-20 0)
(0 -4.8329e-20 0)
(0 -4.83277e-20 0)
(0 -5.52306e-20 0)
(0 -6.21323e-20 0)
(0 -6.21306e-20 0)
(3.65451e-31 -6.90317e-20 0)
(0 -7.59323e-20 0)
(0 -8.97345e-20 0)
(0 -8.97302e-20 0)
(0 -9.66286e-20 0)
(0 -1.10427e-19 0)
(0 -1.10421e-19 0)
(7.30664e-31 -1.24217e-19 0)
(0 -1.38009e-19 0)
(0 -1.449e-19 0)
(0 -1.58688e-19 0)
(0 -1.65574e-19 0)
(0 -1.79357e-19 0)
(0 -2.06931e-19 0)
(0 -2.20703e-19 0)
(3.65082e-31 -2.34471e-19 0)
(0 -2.55129e-19 0)
(0 -2.75779e-19 0)
(0 -2.96421e-19 0)
(0 -3.23947e-19 0)
(0 -3.51457e-19 0)
(0 -3.78956e-19 0)
(0 -4.13325e-19 0)
(0 -4.40788e-19 0)
(0 -4.82004e-19 0)
(0 -5.23188e-19 0)
(0 -5.64343e-19 0)
(0 -6.12341e-19 0)
(0 -6.60297e-19 0)
(0 -7.1508e-19 0)
(0 -7.76678e-19 0)
(0 -8.45074e-19 0)
(0 -9.13384e-19 0)
(0 -9.81601e-19 0)
(0 -1.06344e-18 0)
(0 -1.15886e-18 0)
(0 -1.24726e-18 0)
(0 -1.34904e-18 0)
(0 -1.41808e-18 0)
(0 -1.23819e-18 0)
(0 -6.21383e-19 0)
(0 9.191e-20 0)
(0 3.05216e-19 0)
(0 4.90495e-21 0)
(0 -4.12872e-19 0)
(0 -7.16139e-19 0)
(0 -8.83374e-19 0)
(0 -9.45087e-19 0)
(0 -9.37011e-19 0)
(0 -8.90303e-19 0)
(0 -8.36634e-19 0)
(0 -8.00531e-19 0)
(0 -7.92511e-19 0)
(0 -8.11078e-19 0)
(0 -8.43089e-19 0)
(0 -8.75547e-19 0)
(0 -9.02424e-19 0)
(0 -9.22091e-19 0)
(0 -9.35989e-19 0)
(0 -9.48124e-19 0)
(0 -9.61559e-19 0)
(0 -9.77521e-19 0)
(0 -9.95799e-19 0)
(0 -1.01552e-18 0)
(0 -1.03566e-18 0)
(0 -1.05569e-18 0)
(0 -1.0759e-18 0)
(0 -1.09668e-18 0)
(0 -1.11835e-18 0)
(0 -1.14118e-18 0)
(0 -1.16524e-18 0)
(0 -1.19052e-18 0)
(0 -1.21708e-18 0)
(0 -1.24502e-18 0)
(0 -1.27444e-18 0)
(0 -1.30547e-18 0)
(0 -1.3382e-18 0)
(0 -1.37272e-18 0)
(0 -1.40907e-18 0)
(0 -1.44732e-18 0)
(0 -1.48756e-18 0)
(0 -1.52988e-18 0)
(0 -1.57447e-18 0)
(0 -1.62155e-18 0)
(0 -1.67141e-18 0)
(0 -1.72424e-18 0)
(0 -1.77998e-18 0)
(0 -1.83809e-18 0)
(0 -1.89743e-18 0)
(0 -1.95657e-18 0)
(0 -2.01488e-18 0)
(0 -2.0744e-18 0)
(0 -2.14221e-18 0)
(0 -2.23199e-18 0)
(0 -2.36206e-18 0)
(0 -2.5444e-18 0)
(0 -2.7569e-18 0)
(0 -2.90533e-18 0)
(0 -2.83303e-18 0)
(0 -2.46439e-18 0)
(0 -1.99019e-18 0)
(0 -1.76823e-18 0)
(0 -1.98117e-18 0)
(0 -2.49926e-18 0)
(0 -2.97602e-18 0)
(0 -3.16385e-18 0)
(0 -3.82619e-18 0)
(0 -3.30635e-18 0)
(0 -2.0066e-18 0)
(0 -1.53346e-18 0)
(0 -1.41846e-18 0)
(0 -1.30498e-18 0)
(0 -1.28975e-18 0)
(0 -2.70624e-16 0)
(0 -4.92937e-14 0)
(0 -1.49509e-12 0)
(0 -1.08523e-11 0)
(0 -1.24699e-11 0)
(0 -4.96446e-12 0)
(0 -1.42387e-12 0)
(0 -3.25779e-13 0)
(0 -5.38013e-14 0)
(0 -8.27121e-15 0)
(0 -1.79838e-15 0)
(0 -4.39448e-16 0)
(0 -1.03951e-16 0)
(0 -2.45858e-17 0)
(0 -5.75555e-18 0)
(0 -1.36395e-18 0)
(0 -3.38671e-19 0)
(0 -1.4213e-19 0)
(0 -5.82907e-20 0)
(0 -4.17575e-20 0)
(0 -3.18824e-20 0)
(0 -2.40029e-20 0)
(0 -1.95753e-20 0)
(0 -1.55638e-20 0)
(0 -1.3637e-20 0)
(0 -1.05719e-20 0)
(0 -8.58323e-21 0)
(0 -6.97685e-21 0)
(0 -6.60053e-21 0)
(0 -4.25204e-21 0)
(0 -3.84078e-21 0)
(0 -2.80523e-21 0)
(0 -2.2372e-21 0)
(0 -1.96559e-21 0)
(0 -1.65059e-21 0)
(0 -1.54769e-21 0)
(0 -1.41023e-21 0)
(0 -1.28264e-21 0)
(0 -1.02254e-21 0)
(0 -1.16503e-21 0)
(0 -8.57413e-22 0)
(0 -8.25518e-22 0)
(0 -7.52842e-22 0)
(0 -6.97319e-22 0)
(0 -6.68709e-22 0)
(0 -5.58149e-22 0)
(0 -4.93458e-22 0)
(0 -4.2433e-22 0)
(0 -4.41165e-22 0)
(0 -4.50645e-22 0)
(0 -3.95293e-22 0)
(0 -2.56891e-22 0)
(0 -2.64689e-22 0)
(0 -2.33807e-22 0)
(-1.31536e-37 -2.93225e-22 0)
(0 -2.88142e-22 0)
(0 -1.87928e-22 0)
(6.14528e-38 -1.28174e-22 0)
(0 -1.33771e-22 0)
(-5.87253e-38 -1.88989e-22 0)
(0 -1.69914e-22 0)
(5.60944e-38 -1.01365e-22 0)
(0 -7.53065e-23 0)
(0 -1.08816e-22 0)
(0 -1.06971e-22 0)
(5.11406e-38 -6.2057e-23 0)
(0 -5.06652e-23 0)
(0 -7.53317e-23 0)
(0 -6.93211e-23 0)
(0 -3.6446e-23 0)
(0 -3.01674e-23 0)
(-2.22052e-38 -4.33242e-23 0)
(0 -3.9761e-23 0)
(-1.05835e-38 -2.34019e-23 0)
(0 -2.38852e-23 0)
(0 -2.54771e-23 0)
(0 -1.55987e-23 0)
(0 -1.48687e-23 0)
(0 -1.77877e-23 0)
(0 -1.17872e-23 0)
(4.45738e-39 -8.56322e-24 0)
(0 -1.00044e-23 0)
(0 -7.57139e-24 0)
(0 -6.20957e-24 0)
(0 -5.37356e-24 0)
(0 -4.52898e-24 0)
(0 -4.21025e-24 0)
(0 -3.32008e-24 0)
(0 -2.75228e-24 0)
(0 -2.04978e-24 0)
(0 -1.98741e-24 0)
(0 -1.56173e-24 0)
(0 -1.07682e-24 0)
(0 -4.0116e-25 0)
(0 -1.63735e-25 0)
(-7.51681e-40 -5.77408e-26 0)
(3.66761e-40 -3.93402e-25 0)
(0 -2.10811e-24 0)
(0 -1.23036e-24 0)
(-1.41255e-41 -9.66458e-26 0)
(0 -2.20012e-26 0)
(0 -2.43497e-26 0)
(-6.64957e-42 -1.81915e-26 0)
(0 -1.4646e-26 0)
(0 -1.18848e-26 0)
(0 -6.03958e-27 0)
(0 -7.50759e-27 0)
(0 -7.17871e-27 0)
(0 -3.56455e-27 0)
(0 -2.57546e-27 0)
(0 -3.07053e-27 0)
(0 -2.25915e-27 0)
(0 -1.11171e-27 0)
(0 -1.19025e-27 0)
(0 -1.06891e-27 0)
(0 -5.27283e-28 0)
(0 -4.39285e-28 0)
(0 -4.2446e-28 0)
(0 -2.47583e-28 0)
(0 -1.79814e-28 0)
(0 -1.42109e-28 0)
(0 -1.01218e-28 0)
(0 -8.03598e-29 0)
(0 -4.93223e-29 0)
(0 -3.74076e-29 0)
(0 -2.686e-29 0)
(0 -2.08975e-29 0)
(0 -1.07691e-29 0)
(0 -9.2586e-30 0)
(0 -6.18103e-30 0)
(0 -3.77254e-30 0)
(0 -2.77222e-30 0)
(0 -1.7594e-30 0)
(0 -1.27091e-30 0)
(0 -7.08332e-31 0)
(0 -5.01444e-31 0)
(0 -3.34548e-31 0)
(0 -2.40335e-31 0)
(4.9221e-47 -1.13411e-31 0)
(0 -8.41865e-32 0)
(0 -5.27064e-32 0)
(0 -3.09861e-32 0)
(0 -2.04402e-32 0)
(0 -1.01813e-32 0)
(0 -6.38078e-33 0)
(0 -3.9591e-33 0)
(0 -2.66587e-33 0)
(0 -1.27836e-33 0)
(0 -8.90726e-34 0)
(0 -4.79882e-34 0)
(0 -1.63867e-34 0)
(-1.85085e-50 -6.31633e-35 0)
(0 -2.26666e-35 0)
(0 -7.54049e-36 0)
(0 -2.33622e-36 0)
(0 -6.58894e-37 0)
(0 -1.66887e-37 0)
(0 -3.71831e-38 0)
(0 -7.10522e-39 0)
(0 -1.12383e-39 0)
(0 -1.39627e-40 0)
(0 -1.24322e-41 0)
(0 -6.62047e-43 0)
(0 -1.89613e-44 0)
(0 -7.26924e-46 0)
(0 -1.37202e-47 0)
(0 -1.31135e-58 0)
(0 -6.24927e-70 0)
(0 -2.09946e-81 0)
(0 -5.29137e-93 0)
(0 -1.12194e-104 0)
(0 -6.35433e-116 0)
(0 -5.21733e-127 0)
(0 -1.53532e-134 0)
(0 -2.119e-145 0)
(0 -5.27858e-153 0)
(0 -7.27424e-164 0)
(0 -1.81566e-171 0)
(0 -3.04252e-182 0)
(0 -6.24302e-190 0)
(0 -1.36553e-200 0)
(0 -2.14751e-208 0)
(0 -9.66217e-219 0)
(0 -7.41556e-227 0)
(0 -6.57524e-237 0)
(0 -2.57561e-245 0)
(0 -3.39743e-255 0)
(0 -9.00125e-264 0)
(0 -1.61439e-273 0)
(0 -3.16955e-282 0)
(0 -7.14453e-292 0)
(0 -1.12412e-300 0)
(0 -3.04461e-310 0)
(0 -4.01819e-319 0)
(0 -0 0)
(0 0 0)
(0 0 0)
(0 0 0)
(0 0 0)
(0 0 0)
(0 0 0)
(0 0 0)
(0 0 0)
(0 0 0)
(0 0 0)
(0 0 0)
(0 0 0)
(0 0 0)
(0 0 0)
(0 0 0)
(0 0 0)
(0 0 0)
)
;

boundaryField
{
    inandouthalf11
    {
        type            cyclic;
    }
    inandouthalf12
    {
        type            cyclic;
    }
    inandouthalf21
    {
        type            cyclic;
    }
    inandouthalf22
    {
        type            cyclic;
    }
    inandouthalf31
    {
        type            cyclic;
    }
    inandouthalf32
    {
        type            cyclic;
    }
    inandouthalf41
    {
        type            cyclic;
    }
    inandouthalf42
    {
        type            cyclic;
    }
    top
    {
        type            symmetryPlane;
    }
    walls
    {
        type            zeroGradient;
    }
    frontAndBackPlanes
    {
        type            empty;
    }
}


// ************************************************************************* //
