/*--------------------------------*- C++ -*----------------------------------*\
| =========                 |                                                 |
| \\      /  F ield         | OpenFOAM: The Open Source CFD Toolbox           |
|  \\    /   O peration     | Version:  2.4.x                                 |
|   \\  /    A nd           | Web:      www.OpenFOAM.org                      |
|    \\/     M anipulation  |                                                 |
\*---------------------------------------------------------------------------*/
FoamFile
{
    version     2.0;
    format      ascii;
    class       volTensorField;
    location    "1.65";
    object      Tauf;
}
// * * * * * * * * * * * * * * * * * * * * * * * * * * * * * * * * * * * * * //

dimensions      [0 2 -2 0 0 0 0];

internalField   nonuniform List<tensor> 
360
(
(0 -3.97804e-08 0 -3.97804e-08 7.37574e-16 0 0 0 0)
(0 -3.39706e-11 0 -3.39706e-11 7.40268e-16 0 0 0 0)
(0 -1.95278e-13 0 -1.95278e-13 7.42284e-16 0 0 0 0)
(0 -3.07463e-16 0 -3.07463e-16 7.42865e-16 0 0 0 0)
(6.46235e-24 -1.66554e-13 0 -1.66554e-13 7.43212e-16 0 0 0 0)
(3.23117e-24 -1.66696e-13 0 -1.66696e-13 7.42846e-16 0 0 0 0)
(6.46235e-24 -1.66697e-13 0 -1.66697e-13 7.43001e-16 0 0 0 0)
(0 -1.66697e-13 0 -1.66697e-13 7.43348e-16 0 0 0 0)
(6.46235e-24 -1.6684e-13 0 -1.6684e-13 7.4236e-16 0 0 0 0)
(0 -3.33115e-13 0 -3.33115e-13 7.41281e-16 0 0 0 0)
(3.23117e-24 -1.66841e-13 0 -1.66841e-13 7.40958e-16 0 0 0 0)
(0 -1.66842e-13 0 -1.66842e-13 7.40844e-16 0 0 0 0)
(3.23117e-24 -3.33261e-13 0 -3.33261e-13 7.39463e-16 0 0 0 0)
(0 -3.33405e-13 0 -3.33405e-13 7.37898e-16 0 0 0 0)
(0 -3.33408e-13 0 -3.33408e-13 7.36678e-16 0 0 0 0)
(0 -3.3341e-13 0 -3.3341e-13 7.34492e-16 0 0 0 0)
(0 -3.33413e-13 0 -3.33413e-13 7.32407e-16 0 0 0 0)
(3.23117e-24 -3.33557e-13 0 -3.33557e-13 7.30862e-16 0 0 0 0)
(0 -4.99987e-13 0 -4.99987e-13 7.28951e-16 0 0 0 0)
(0 -5.00132e-13 0 -5.00132e-13 7.26328e-16 0 0 0 0)
(0 -5.00281e-13 0 -5.00281e-13 7.23954e-16 0 0 0 0)
(6.46235e-24 -6.66718e-13 0 -6.66718e-13 7.21469e-16 0 0 0 0)
(0 -6.6687e-13 0 -6.6687e-13 7.18746e-16 0 0 0 0)
(0 -6.6688e-13 0 -6.6688e-13 7.16872e-16 0 0 0 0)
(0 -6.6689e-13 0 -6.6689e-13 7.1442e-16 0 0 0 0)
(3.23117e-24 -6.67041e-13 0 -6.67041e-13 7.11252e-16 0 0 0 0)
(0 -8.3364e-13 0 -8.3364e-13 7.088e-16 0 0 0 0)
(0 -1.00024e-12 0 -1.00024e-12 7.06471e-16 0 0 0 0)
(0 -1.00041e-12 0 -1.00041e-12 7.03138e-16 0 0 0 0)
(0 -1.00057e-12 0 -1.00057e-12 6.99295e-16 0 0 0 0)
(0 -1.16706e-12 0 -1.16706e-12 6.95632e-16 0 0 0 0)
(0 -1.16737e-12 0 -1.16737e-12 6.92262e-16 0 0 0 0)
(0 -1.33402e-12 0 -1.33402e-12 6.89509e-16 0 0 0 0)
(0 -1.50067e-12 0 -1.50067e-12 6.85971e-16 0 0 0 0)
(0 -1.501e-12 0 -1.501e-12 6.81791e-16 0 0 0 0)
(-3.23117e-24 -1.66768e-12 0 -1.66768e-12 6.78608e-16 0 0 0 0)
(0 -1.83467e-12 0 -1.83467e-12 6.75395e-16 0 0 0 0)
(0 -2.16789e-12 0 -2.16789e-12 6.71307e-16 0 0 0 0)
(0 -2.16841e-12 0 -2.16841e-12 6.6682e-16 0 0 0 0)
(0 -2.33533e-12 0 -2.33533e-12 6.62566e-16 0 0 0 0)
(0 -2.66864e-12 0 -2.66864e-12 6.58854e-16 0 0 0 0)
(0 -2.66937e-12 0 -2.66937e-12 6.55146e-16 0 0 0 0)
(-3.23117e-24 -3.00292e-12 0 -3.00292e-12 6.50823e-16 0 0 0 0)
(0 -3.33666e-12 0 -3.33666e-12 6.46228e-16 0 0 0 0)
(0 -3.50405e-12 0 -3.50405e-12 6.41668e-16 0 0 0 0)
(0 -3.83779e-12 0 -3.83779e-12 6.37588e-16 0 0 0 0)
(0 -4.00528e-12 0 -4.00528e-12 6.33224e-16 0 0 0 0)
(0 -4.3396e-12 0 -4.3396e-12 6.27896e-16 0 0 0 0)
(0 -5.00714e-12 0 -5.00714e-12 6.23258e-16 0 0 0 0)
(0 -5.34185e-12 0 -5.34185e-12 6.19371e-16 0 0 0 0)
(-3.23117e-24 -5.67657e-12 0 -5.67657e-12 6.15344e-16 0 0 0 0)
(0 -6.17809e-12 0 -6.17809e-12 6.10289e-16 0 0 0 0)
(0 -6.67998e-12 0 -6.67998e-12 6.04534e-16 0 0 0 0)
(0 -7.18221e-12 0 -7.18221e-12 5.99229e-16 0 0 0 0)
(0 -7.85151e-12 0 -7.85151e-12 5.94188e-16 0 0 0 0)
(0 -8.52124e-12 0 -8.52124e-12 5.88836e-16 0 0 0 0)
(0 -9.19156e-12 0 -9.19156e-12 5.83516e-16 0 0 0 0)
(0 -1.0029e-11 0 -1.0029e-11 5.79223e-16 0 0 0 0)
(0 -1.07005e-11 0 -1.07005e-11 5.74245e-16 0 0 0 0)
(0 -1.17063e-11 0 -1.17063e-11 5.67495e-16 0 0 0 0)
(0 -1.27131e-11 0 -1.27131e-11 5.6081e-16 0 0 0 0)
(0 -1.37209e-11 0 -1.37209e-11 5.55787e-16 0 0 0 0)
(0 -1.48968e-11 0 -1.48968e-11 5.51302e-16 0 0 0 0)
(0 -1.60741e-11 0 -1.60741e-11 5.45745e-16 0 0 0 0)
(0 -1.74201e-11 0 -1.74201e-11 5.3913e-16 0 0 0 0)
(0 -1.89352e-11 0 -1.89352e-11 5.32145e-16 0 0 0 0)
(0 -2.06198e-11 0 -2.06198e-11 5.25207e-16 0 0 0 0)
(0 -2.23068e-11 0 -2.23068e-11 5.17644e-16 0 0 0 0)
(0 -2.39965e-11 0 -2.39965e-11 -1.17055e-15 0 0 0 0)
(0 -2.60247e-11 0 -2.60247e-11 6.96016e-14 0 0 0 0)
(0 -2.83919e-11 0 -2.83919e-11 -4.9657e-13 0 0 0 0)
(0 -3.05962e-11 0 -3.05962e-11 1.84111e-12 0 0 0 0)
(0 -3.3134e-11 0 -3.3134e-11 -7.67008e-12 0 0 0 0)
(0 -3.15193e-11 0 -3.15193e-11 1.25244e-10 0 0 0 0)
(0 2.29053e-11 0 2.29053e-11 1.23222e-09 0 0 0 0)
(0 2.14381e-10 0 2.14381e-10 3.85816e-09 0 0 0 0)
(0 4.7079e-10 0 4.7079e-10 6.61314e-09 0 0 0 0)
(0 5.82569e-10 0 5.82569e-10 7.6041e-09 0 0 0 0)
(0 5.1505e-10 0 5.1505e-10 6.76386e-09 0 0 0 0)
(0 3.98515e-10 0 3.98515e-10 5.34269e-09 0 0 0 0)
(0 3.15955e-10 0 3.15955e-10 4.27727e-09 0 0 0 0)
(0 2.77416e-10 0 2.77416e-10 3.755e-09 0 0 0 0)
(0 2.71839e-10 0 2.71839e-10 3.63906e-09 0 0 0 0)
(0 2.87357e-10 0 2.87357e-10 3.7666e-09 0 0 0 0)
(0 3.13319e-10 0 3.13319e-10 4.00061e-09 0 0 0 0)
(0 3.40196e-10 0 3.40196e-10 4.23259e-09 0 0 0 0)
(0 3.61485e-10 0 3.61485e-10 4.39674e-09 0 0 0 0)
(0 3.75418e-10 0 3.75418e-10 4.47981e-09 0 0 0 0)
(0 3.84325e-10 0 3.84325e-10 4.51011e-09 0 0 0 0)
(0 3.92307e-10 0 3.92307e-10 4.53042e-09 0 0 0 0)
(0 4.0278e-10 0 4.0278e-10 4.57422e-09 0 0 0 0)
(0 4.174e-10 0 4.174e-10 4.65647e-09 0 0 0 0)
(0 4.36244e-10 0 4.36244e-10 4.77567e-09 0 0 0 0)
(0 4.58398e-10 0 4.58398e-10 4.92076e-09 0 0 0 0)
(0 4.82637e-10 0 4.82637e-10 5.07881e-09 0 0 0 0)
(0 5.08035e-10 0 5.08035e-10 5.24033e-09 0 0 0 0)
(0 5.34217e-10 0 5.34217e-10 5.40115e-09 0 0 0 0)
(0 5.61288e-10 0 5.61288e-10 5.56148e-09 0 0 0 0)
(0 5.89599e-10 0 5.89599e-10 5.72361e-09 0 0 0 0)
(0 6.19518e-10 0 6.19518e-10 5.88972e-09 0 0 0 0)
(0 6.51284e-10 0 6.51284e-10 6.06076e-09 0 0 0 0)
(0 6.84993e-10 0 6.84993e-10 6.23651e-09 0 0 0 0)
(0 7.20666e-10 0 7.20666e-10 6.41606e-09 0 0 0 0)
(0 7.583e-10 0 7.583e-10 6.59828e-09 0 0 0 0)
(0 7.97887e-10 0 7.97887e-10 6.78201e-09 0 0 0 0)
(0 8.3941e-10 0 8.3941e-10 6.96601e-09 0 0 0 0)
(0 8.8282e-10 0 8.8282e-10 7.14884e-09 0 0 0 0)
(0 9.28027e-10 0 9.28027e-10 7.32881e-09 0 0 0 0)
(0 9.7491e-10 0 9.7491e-10 7.50409e-09 0 0 0 0)
(0 1.02334e-09 0 1.02334e-09 7.67294e-09 0 0 0 0)
(0 1.07323e-09 0 1.07323e-09 7.83385e-09 0 0 0 0)
(0 1.12451e-09 0 1.12451e-09 7.9857e-09 0 0 0 0)
(0 1.17718e-09 0 1.17718e-09 8.12776e-09 0 0 0 0)
(0 1.23133e-09 0 1.23133e-09 8.25972e-09 0 0 0 0)
(0 1.2871e-09 0 1.2871e-09 8.38171e-09 0 0 0 0)
(0 1.34475e-09 0 1.34475e-09 8.49427e-09 0 0 0 0)
(0 1.40465e-09 0 1.40465e-09 8.59841e-09 0 0 0 0)
(0 1.4673e-09 0 1.4673e-09 8.69558e-09 0 0 0 0)
(0 1.53335e-09 0 1.53335e-09 8.78759e-09 0 0 0 0)
(0 1.60357e-09 0 1.60357e-09 8.87626e-09 0 0 0 0)
(0 1.67874e-09 0 1.67874e-09 8.9628e-09 0 0 0 0)
(0 1.75948e-09 0 1.75948e-09 9.04701e-09 0 0 0 0)
(0 1.84613e-09 0 1.84613e-09 9.12664e-09 0 0 0 0)
(0 1.93876e-09 0 1.93876e-09 9.19782e-09 0 0 0 0)
(0 2.03775e-09 0 2.03775e-09 9.25787e-09 0 0 0 0)
(0 2.14519e-09 0 2.14519e-09 9.31103e-09 0 0 0 0)
(0 2.26735e-09 0 2.26735e-09 9.37657e-09 0 0 0 0)
(0 2.41738e-09 0 2.41738e-09 9.49513e-09 0 0 0 0)
(0 2.61644e-09 0 2.61644e-09 9.7259e-09 0 0 0 0)
(0 2.88908e-09 0 2.88908e-09 1.01212e-08 0 0 0 0)
(0 3.24415e-09 0 3.24415e-09 1.06584e-08 0 0 0 0)
(0 3.62935e-09 0 3.62935e-09 1.11231e-08 0 0 0 0)
(0 3.87183e-09 0 3.87183e-09 1.10337e-08 0 0 0 0)
(0 3.71238e-09 0 3.71238e-09 9.85267e-09 0 0 0 0)
(0 3.05141e-09 0 3.05141e-09 7.54718e-09 0 0 0 0)
(0 2.16028e-09 0 2.16028e-09 4.86888e-09 0 0 0 0)
(0 1.44795e-09 0 1.44795e-09 2.75239e-09 0 0 0 0)
(0 1.11359e-09 0 1.11359e-09 1.56374e-09 0 0 0 0)
(0 1.24444e-09 0 1.24444e-09 1.20687e-09 0 0 0 0)
(0 2.48027e-09 0 2.48027e-09 2.03879e-09 0 0 0 0)
(0 1.02006e-08 0 1.02006e-08 6.76046e-09 0 0 0 0)
(0 1.08539e-07 0 1.08539e-07 1.95767e-08 0 0 0 0)
(0 3.04833e-06 0 3.04833e-06 3.72298e-08 0 0 0 0)
(0 3.1307e-05 0 3.1307e-05 6.74088e-08 0 0 0 0)
(0 9.87961e-05 0 9.87961e-05 1.34767e-07 0 0 0 0)
(0 0.000157624 0 0.000157624 2.10713e-07 0 0 0 0)
(0 0.000174368 0 0.000174368 2.43502e-07 0 0 0 0)
(0 0.000169547 0 0.000169547 1.97942e-07 0 0 0 0)
(0 0.000168178 0 0.000168178 -5.63919e-08 0 0 0 0)
(0 0.000218109 0 0.000218109 -1.2839e-06 0 0 0 0)
(0 0.000344372 0 0.000344372 -1.71765e-06 0 0 0 0)
(0 0.000375675 0 0.000375675 2.57119e-07 0 0 0 0)
(0 0.000276294 0 0.000276294 7.34691e-07 0 0 0 0)
(0 0.000191237 0 0.000191237 4.03413e-07 0 0 0 0)
(0 0.000133873 0 0.000133873 2.27655e-07 0 0 0 0)
(0 9.77137e-05 0 9.77137e-05 5.39184e-08 0 0 0 0)
(0 7.81456e-05 0 7.81456e-05 2.49732e-08 0 0 0 0)
(0 6.6702e-05 0 6.6702e-05 -2.70467e-09 0 0 0 0)
(0 5.76392e-05 0 5.76392e-05 7.85232e-09 0 0 0 0)
(0 4.92718e-05 0 4.92718e-05 -5.18009e-09 0 0 0 0)
(0 4.15308e-05 0 4.15308e-05 7.77051e-09 0 0 0 0)
(0 3.4563e-05 0 3.4563e-05 -7.5235e-09 0 0 0 0)
(0 2.85103e-05 0 2.85103e-05 8.83324e-09 0 0 0 0)
(0 2.34204e-05 0 2.34204e-05 -8.99025e-09 0 0 0 0)
(0 1.92523e-05 0 1.92523e-05 9.68919e-09 0 0 0 0)
(0 1.60605e-05 0 1.60605e-05 -9.89211e-09 0 0 0 0)
(0 1.352e-05 0 1.352e-05 1.02086e-08 0 0 0 0)
(0 1.15972e-05 0 1.15972e-05 -1.03259e-08 0 0 0 0)
(0 1.01074e-05 0 1.01074e-05 1.03889e-08 0 0 0 0)
(0 8.91895e-06 0 8.91895e-06 -1.04044e-08 0 0 0 0)
(0 7.95877e-06 0 7.95877e-06 1.029e-08 0 0 0 0)
(0 7.15002e-06 0 7.15002e-06 -1.01974e-08 0 0 0 0)
(0 6.46974e-06 0 6.46974e-06 9.95117e-09 0 0 0 0)
(0 5.87341e-06 0 5.87341e-06 -9.77126e-09 0 0 0 0)
(0 5.35086e-06 0 5.35086e-06 9.4395e-09 0 0 0 0)
(0 4.87931e-06 0 4.87931e-06 -9.18347e-09 0 0 0 0)
(0 4.47343e-06 0 4.47343e-06 8.78803e-09 0 0 0 0)
(0 4.09201e-06 0 4.09201e-06 -8.48678e-09 0 0 0 0)
(0 3.75711e-06 0 3.75711e-06 8.06462e-09 0 0 0 0)
(0 3.44969e-06 0 3.44969e-06 -7.73162e-09 0 0 0 0)
(0 3.1711e-06 0 3.1711e-06 7.29478e-09 0 0 0 0)
(0 2.91849e-06 0 2.91849e-06 -6.94801e-09 0 0 0 0)
(0 2.68475e-06 0 2.68475e-06 6.51351e-09 0 0 0 0)
(0 2.47279e-06 0 2.47279e-06 -6.16372e-09 0 0 0 0)
(0 2.27787e-06 0 2.27787e-06 5.7433e-09 0 0 0 0)
(0 2.10078e-06 0 2.10078e-06 -5.40494e-09 0 0 0 0)
(0 1.93348e-06 0 1.93348e-06 5.00955e-09 0 0 0 0)
(0 1.78572e-06 0 1.78572e-06 -4.68848e-09 0 0 0 0)
(0 1.64549e-06 0 1.64549e-06 4.31939e-09 0 0 0 0)
(0 1.51771e-06 0 1.51771e-06 -4.01925e-09 0 0 0 0)
(0 1.40028e-06 0 1.40028e-06 3.6844e-09 0 0 0 0)
(0 1.29174e-06 0 1.29174e-06 -3.41228e-09 0 0 0 0)
(0 1.1924e-06 0 1.1924e-06 3.11036e-09 0 0 0 0)
(0 1.10019e-06 0 1.10019e-06 -2.86722e-09 0 0 0 0)
(0 1.01536e-06 0 1.01536e-06 2.60158e-09 0 0 0 0)
(0 9.36167e-07 0 9.36167e-07 -2.38528e-09 0 0 0 0)
(0 8.64133e-07 0 8.64133e-07 2.15347e-09 0 0 0 0)
(0 7.98148e-07 0 7.98148e-07 -1.96854e-09 0 0 0 0)
(0 7.37584e-07 0 7.37584e-07 1.7662e-09 0 0 0 0)
(0 6.79548e-07 0 6.79548e-07 -1.60633e-09 0 0 0 0)
(0 6.27044e-07 0 6.27044e-07 1.43874e-09 0 0 0 0)
(0 5.77789e-07 0 5.77789e-07 -1.27751e-09 0 0 0 0)
(-4.06832e-19 5.32524e-07 0 5.32524e-07 1.11351e-09 0 0 0 0)
(0 4.90333e-07 0 4.90333e-07 -9.877e-10 0 0 0 0)
(0 4.49891e-07 0 4.49891e-07 8.54108e-10 0 0 0 0)
(1.91516e-19 4.11566e-07 0 4.11566e-07 -7.49375e-10 0 0 0 0)
(0 3.7562e-07 0 3.7562e-07 6.44272e-10 0 0 0 0)
(-1.83972e-19 3.43231e-07 0 3.43231e-07 -5.61662e-10 0 0 0 0)
(0 3.13271e-07 0 3.13271e-07 4.73348e-10 0 0 0 0)
(3.5345e-19 2.84731e-07 0 2.84731e-07 -4.07409e-10 0 0 0 0)
(0 2.57744e-07 0 2.57744e-07 3.39184e-10 0 0 0 0)
(0 2.33463e-07 0 2.33463e-07 -2.85819e-10 0 0 0 0)
(0 2.11402e-07 0 2.11402e-07 2.29488e-10 0 0 0 0)
(3.26153e-19 1.90556e-07 0 1.90556e-07 -1.87871e-10 0 0 0 0)
(0 1.71133e-07 0 1.71133e-07 1.44871e-10 0 0 0 0)
(0 1.53808e-07 0 1.53808e-07 -1.12286e-10 0 0 0 0)
(0 1.38147e-07 0 1.38147e-07 7.74664e-11 0 0 0 0)
(0 1.23444e-07 0 1.23444e-07 -5.29959e-11 0 0 0 0)
(0 1.09868e-07 0 1.09868e-07 2.84921e-11 0 0 0 0)
(0 9.78189e-08 0 9.78189e-08 -7.84348e-12 0 0 0 0)
(0 8.69975e-08 0 8.69975e-08 -1.28088e-11 0 0 0 0)
(-2.7772e-19 7.69873e-08 0 7.69873e-08 2.43878e-11 0 0 0 0)
(0 6.79425e-08 0 6.79425e-08 -3.82602e-11 0 0 0 0)
(-2.6678e-19 5.99647e-08 0 5.99647e-08 4.72918e-11 0 0 0 0)
(0 5.26948e-08 0 5.26948e-08 -5.67888e-11 0 0 0 0)
(0 4.61333e-08 0 4.61333e-08 6.251e-11 0 0 0 0)
(0 4.03908e-08 0 4.03908e-08 -6.84205e-11 0 0 0 0)
(0 3.52462e-08 0 3.52462e-08 7.11169e-11 0 0 0 0)
(0 3.05884e-08 0 3.05884e-08 -7.40228e-11 0 0 0 0)
(2.36479e-19 2.65456e-08 0 2.65456e-08 7.46793e-11 0 0 0 0)
(0 2.29532e-08 0 2.29532e-08 -7.54655e-11 0 0 0 0)
(0 1.97752e-08 0 1.97752e-08 7.44489e-11 0 0 0 0)
(0 1.7003e-08 0 1.7003e-08 -7.35044e-11 0 0 0 0)
(0 1.45552e-08 0 1.45552e-08 7.12638e-11 0 0 0 0)
(0 1.24394e-08 0 1.24394e-08 -6.91162e-11 0 0 0 0)
(0 1.05851e-08 0 1.05851e-08 6.60042e-11 0 0 0 0)
(0 8.98994e-09 0 8.98994e-09 -6.30131e-11 0 0 0 0)
(0 7.59313e-09 0 7.59313e-09 5.93803e-11 0 0 0 0)
(0 6.40343e-09 0 6.40343e-09 -5.58604e-11 0 0 0 0)
(0 5.37583e-09 0 5.37583e-09 5.19272e-11 0 0 0 0)
(0 4.50245e-09 0 4.50245e-09 -4.81387e-11 0 0 0 0)
(0 3.74546e-09 0 3.74546e-09 4.4161e-11 0 0 0 0)
(0 3.10385e-09 0 3.10385e-09 -4.02613e-11 0 0 0 0)
(-1.78492e-19 2.56309e-09 0 2.56309e-09 3.6381e-11 0 0 0 0)
(3.49882e-19 2.11007e-09 0 2.11007e-09 -3.25961e-11 0 0 0 0)
(0 1.75715e-09 0 1.75715e-09 2.88969e-11 0 0 0 0)
(0 1.46092e-09 0 1.46092e-09 -2.54613e-11 0 0 0 0)
(-3.29414e-19 1.18717e-09 0 1.18717e-09 2.18532e-11 0 0 0 0)
(0 9.56868e-10 0 9.56868e-10 -1.86058e-11 0 0 0 0)
(0 7.69742e-10 0 7.69742e-10 1.54934e-11 0 0 0 0)
(0 6.17551e-10 0 6.17551e-10 -1.25809e-11 0 0 0 0)
(0 4.90775e-10 0 4.90775e-10 9.83878e-12 0 0 0 0)
(0 3.87896e-10 0 3.87896e-10 -7.30183e-12 0 0 0 0)
(0 3.06367e-10 0 3.06367e-10 4.94855e-12 0 0 0 0)
(0 2.41317e-10 0 2.41317e-10 -2.79448e-12 0 0 0 0)
(0 1.89177e-10 0 1.89177e-10 7.3916e-13 0 0 0 0)
(0 1.47646e-10 0 1.47646e-10 1.04991e-12 0 0 0 0)
(0 1.1482e-10 0 1.1482e-10 -2.59248e-12 0 0 0 0)
(0 8.89689e-11 0 8.89689e-11 4.03861e-12 0 0 0 0)
(0 6.86268e-11 0 6.86268e-11 -5.31872e-12 0 0 0 0)
(0 5.2683e-11 0 5.2683e-11 6.43348e-12 0 0 0 0)
(0 4.022e-11 0 4.022e-11 -7.39598e-12 0 0 0 0)
(0 3.05432e-11 0 3.05432e-11 8.21237e-12 0 0 0 0)
(0 2.30627e-11 0 2.30627e-11 -8.89511e-12 0 0 0 0)
(0 1.73161e-11 0 1.73161e-11 9.45115e-12 0 0 0 0)
(0 1.29264e-11 0 1.29264e-11 -9.89151e-12 0 0 0 0)
(2.24871e-19 9.59169e-12 0 9.59169e-12 1.02238e-11 0 0 0 0)
(0 7.07477e-12 0 7.07477e-12 -1.0458e-11 0 0 0 0)
(0 5.18566e-12 0 5.18566e-12 1.06021e-11 0 0 0 0)
(0 3.7777e-12 0 3.7777e-12 -1.06652e-11 0 0 0 0)
(0 2.73352e-12 0 2.73352e-12 1.0655e-11 0 0 0 0)
(0 1.96611e-12 0 1.96611e-12 -1.05799e-11 0 0 0 0)
(0 1.4042e-12 0 1.4042e-12 1.04469e-11 0 0 0 0)
(0 9.96147e-13 0 9.96147e-13 -1.02638e-11 0 0 0 0)
(0 7.01278e-13 0 7.01278e-13 1.00368e-11 0 0 0 0)
(0 4.90621e-13 0 4.90621e-13 -9.77284e-12 0 0 0 0)
(0 3.41123e-13 0 3.41123e-13 9.47739e-12 0 0 0 0)
(0 2.35254e-13 0 2.35254e-13 -9.15636e-12 0 0 0 0)
(0 1.60524e-13 0 1.60524e-13 8.81452e-12 0 0 0 0)
(0 1.08709e-13 0 1.08709e-13 -8.45691e-12 0 0 0 0)
(0 7.33476e-14 0 7.33476e-14 8.08747e-12 0 0 0 0)
(0 4.92415e-14 0 4.92415e-14 -7.71039e-12 0 0 0 0)
(0 3.24852e-14 0 3.24852e-14 7.3289e-12 0 0 0 0)
(0 2.14648e-14 0 2.14648e-14 -6.9464e-12 0 0 0 0)
(0 1.41076e-14 0 1.41076e-14 6.56538e-12 0 0 0 0)
(0 8.97833e-15 0 8.97833e-15 -6.18858e-12 0 0 0 0)
(0 5.76344e-15 0 5.76344e-15 5.8178e-12 0 0 0 0)
(0 3.62786e-15 0 3.62786e-15 -5.45523e-12 0 0 0 0)
(0 2.30533e-15 0 2.30533e-15 5.10205e-12 0 0 0 0)
(0 1.38499e-15 0 1.38499e-15 -4.7599e-12 0 0 0 0)
(0 7.72325e-16 0 7.72325e-16 4.4295e-12 0 0 0 0)
(0 6.05106e-16 0 6.05106e-16 -4.11201e-12 0 0 0 0)
(0 4.30365e-16 0 4.30365e-16 3.80776e-12 0 0 0 0)
(0 1.88419e-16 0 1.88419e-16 -3.51751e-12 0 0 0 0)
(0 -1.83198e-17 0 -1.83198e-17 3.24124e-12 0 0 0 0)
(0 -1.07669e-16 0 -1.07669e-16 -2.97941e-12 0 0 0 0)
(0 1.15126e-16 0 1.15126e-16 2.73177e-12 0 0 0 0)
(0 1.62409e-16 0 1.62409e-16 -2.4984e-12 0 0 0 0)
(0 3.40463e-17 0 3.40463e-17 2.27901e-12 0 0 0 0)
(-2.31729e-19 -7.66444e-17 0 -7.66444e-17 -2.07339e-12 0 0 0 0)
(0 -4.03136e-18 0 -4.03136e-18 1.88112e-12 0 0 0 0)
(0 3.95117e-18 0 3.95117e-18 -1.70183e-12 0 0 0 0)
(0 -2.17627e-17 0 -2.17627e-17 1.53502e-12 0 0 0 0)
(0 8.43568e-17 0 8.43568e-17 -1.38022e-12 0 0 0 0)
(0 -3.93483e-17 0 -3.93483e-17 1.23684e-12 0 0 0 0)
(0 -1.57652e-16 0 -1.57652e-16 -1.10437e-12 0 0 0 0)
(0 1.25021e-16 0 1.25021e-16 9.82179e-13 0 0 0 0)
(0 1.67967e-16 0 1.67967e-16 -8.69715e-13 0 0 0 0)
(0 -1.2527e-16 0 -1.2527e-16 7.66353e-13 0 0 0 0)
(0 -1.34056e-16 0 -1.34056e-16 -6.71479e-13 0 0 0 0)
(0 1.21232e-17 0 1.21232e-17 6.71336e-13 0 0 0 0)
(0 -1.42407e-17 0 -1.42407e-17 -6.03206e-13 0 0 0 0)
(0 -1.95347e-17 0 -1.95347e-17 5.4116e-13 0 0 0 0)
(0 3.98105e-17 0 3.98105e-17 -4.84937e-13 0 0 0 0)
(0 2.69992e-18 0 2.69992e-18 4.34179e-13 0 0 0 0)
(0 -2.64698e-17 0 -2.64698e-17 -3.88567e-13 0 0 0 0)
(0 1.99582e-17 0 1.99582e-17 3.47731e-13 0 0 0 0)
(0 -1.48231e-18 0 -1.48231e-18 -3.11365e-13 0 0 0 0)
(0 -2.63639e-17 0 -2.63639e-17 2.79137e-13 0 0 0 0)
(0 1.20173e-17 0 1.20173e-17 -2.53938e-13 0 0 0 0)
(0 2.56757e-17 0 2.56757e-17 2.3735e-13 0 0 0 0)
(0 1.5776e-17 0 1.5776e-17 -2.2454e-13 0 0 0 0)
(0 -2.65757e-17 0 -2.65757e-17 2.12036e-13 0 0 0 0)
(0 -3.54695e-18 0 -3.54695e-18 -1.99945e-13 0 0 0 0)
(0 1.4029e-17 0 1.4029e-17 1.88302e-13 0 0 0 0)
(0 -1.58819e-19 0 -1.58819e-19 -1.77256e-13 0 0 0 0)
(0 1.74171e-17 0 1.74171e-17 1.66835e-13 0 0 0 0)
(0 -2.09641e-17 0 -2.09641e-17 -1.57236e-13 0 0 0 0)
(0 -3.07049e-18 0 -3.07049e-18 1.48385e-13 0 0 0 0)
(0 8.84091e-18 0 8.84091e-18 -1.40623e-13 0 0 0 0)
(0 -9.15854e-18 0 -9.15854e-18 1.33621e-13 0 0 0 0)
(0 1.12232e-17 0 1.12232e-17 -1.2783e-13 0 0 0 0)
(0 7.0939e-18 0 7.0939e-18 1.22755e-13 0 0 0 0)
(0 -1.36055e-17 0 -1.36055e-17 -1.18811e-13 0 0 0 0)
(0 1.00585e-18 0 1.00585e-18 1.15415e-13 0 0 0 0)
(0 1.25467e-17 0 1.25467e-17 -1.12943e-13 0 0 0 0)
(0 -6.67038e-18 0 -6.67038e-18 1.10761e-13 0 0 0 0)
(0 -1.14349e-17 0 -1.14349e-17 -1.09241e-13 0 0 0 0)
(0 -2.15464e-17 0 -2.15464e-17 1.07756e-13 0 0 0 0)
(0 -1.05879e-18 0 -1.05879e-18 -1.06696e-13 0 0 0 0)
(0 -2.57816e-17 0 -2.57816e-17 1.05464e-13 0 0 0 0)
(0 -1.85288e-18 0 -1.85288e-18 -1.04472e-13 0 0 0 0)
(0 1.71524e-17 0 1.71524e-17 1.03174e-13 0 0 0 0)
(0 -3.97047e-18 0 -3.97047e-18 -1.01994e-13 0 0 0 0)
(0 1.7523e-17 0 1.7523e-17 1.00353e-13 0 0 0 0)
(0 4.23516e-18 0 4.23516e-18 -9.88655e-14 0 0 0 0)
(0 -1.58819e-18 0 -1.58819e-18 9.67494e-14 0 0 0 0)
(0 -2.43522e-18 0 -2.43522e-18 -9.47053e-14 0 0 0 0)
(0 3.38813e-18 0 3.38813e-18 9.2045e-14 0 0 0 0)
(0 -1.45054e-17 0 -1.45054e-17 -8.93023e-14 0 0 0 0)
(0 -8.47033e-19 0 -8.47033e-19 8.60076e-14 0 0 0 0)
(0 4.91809e-17 0 4.91809e-17 -8.24163e-14 0 0 0 0)
(0 1.06938e-17 0 1.06938e-17 7.82553e-14 0 0 0 0)
(0 -3.83812e-17 0 -3.83812e-17 -7.37059e-14 0 0 0 0)
(0 -1.30231e-17 0 -1.30231e-17 6.84704e-14 0 0 0 0)
(0 1.83171e-17 0 1.83171e-17 -6.23768e-14 0 0 0 0)
(0 1.96406e-17 0 1.96406e-17 5.55629e-14 0 0 0 0)
(0 -7.6233e-18 0 -7.6233e-18 -4.702e-14 0 0 0 0)
(0 -8.09975e-18 0 -8.09975e-18 3.67547e-14 0 0 0 0)
(0 3.81165e-18 0 3.81165e-18 -1.41221e-14 0 0 0 0)
)
;

boundaryField
{
    inandouthalf11
    {
        type            cyclic;
    }
    inandouthalf12
    {
        type            cyclic;
    }
    inandouthalf21
    {
        type            cyclic;
    }
    inandouthalf22
    {
        type            cyclic;
    }
    inandouthalf31
    {
        type            cyclic;
    }
    inandouthalf32
    {
        type            cyclic;
    }
    inandouthalf41
    {
        type            cyclic;
    }
    inandouthalf42
    {
        type            cyclic;
    }
    top
    {
        type            symmetryPlane;
    }
    walls
    {
        type            zeroGradient;
    }
    frontAndBackPlanes
    {
        type            empty;
    }
}


// ************************************************************************* //
