/*--------------------------------*- C++ -*----------------------------------*\
| =========                 |                                                 |
| \\      /  F ield         | OpenFOAM: The Open Source CFD Toolbox           |
|  \\    /   O peration     | Version:  2.4.x                                 |
|   \\  /    A nd           | Web:      www.OpenFOAM.org                      |
|    \\/     M anipulation  |                                                 |
\*---------------------------------------------------------------------------*/
FoamFile
{
    version     2.0;
    format      ascii;
    class       volTensorField;
    location    "1.65";
    object      Taus;
}
// * * * * * * * * * * * * * * * * * * * * * * * * * * * * * * * * * * * * * //

dimensions      [0 2 -2 0 0 0 0];

internalField   nonuniform List<tensor> 
360
(
(0 0.016743 0 0.016743 -0.161882 0 0 0 0)
(0 0.000277463 0 0.000277463 0.02085 0 0 0 0)
(0 0.000553845 0 0.000553845 -0.0068301 0 0 0 0)
(0 0.000894756 0 0.000894756 -0.0103603 0 0 0 0)
(-1.36975e-15 0.0012357 0 0.0012357 -0.0155447 0 0 0 0)
(-6.62508e-16 0.00156867 0 0.00156867 -0.0203322 0 0 0 0)
(-6.41658e-16 0.00189182 0 0.00189182 -0.024834 0 0 0 0)
(0 0.00220493 0 0.00220493 -0.0290534 0 0 0 0)
(-1.20699e-15 0.00250971 0 0.00250971 -0.0330224 0 0 0 0)
(0 0.00280517 0 0.00280517 -0.0367648 0 0 0 0)
(-1.13883e-15 0.00309235 0 0.00309235 -0.040278 0 0 0 0)
(0 0.00337292 0 0.00337292 -0.0435673 0 0 0 0)
(-1.079e-15 0.00364518 0 0.00364518 -0.0466708 0 0 0 0)
(0 0.00391044 0 0.00391044 -0.0496099 0 0 0 0)
(0 0.00416915 0 0.00416915 -0.052373 0 0 0 0)
(0 0.0044215 0 0.0044215 -0.054971 0 0 0 0)
(0 0.00466778 0 0.00466778 -0.0574146 0 0 0 0)
(-9.5541e-16 0.00490854 0 0.00490854 -0.0597146 0 0 0 0)
(0 0.00514387 0 0.00514387 -0.0619027 0 0 0 0)
(0 0.00537251 0 0.00537251 -0.063968 0 0 0 0)
(0 0.00559807 0 0.00559807 -0.065931 0 0 0 0)
(-8.77441e-16 0.00581729 0 0.00581729 -0.067785 0 0 0 0)
(0 0.00603177 0 0.00603177 -0.0695527 0 0 0 0)
(0 0.00624199 0 0.00624199 -0.071218 0 0 0 0)
(0 0.00644787 0 0.00644787 -0.0727863 0 0 0 0)
(-4.06632e-16 0.00664995 0 0.00664995 -0.0742654 0 0 0 0)
(0 0.00684842 0 0.00684842 -0.0756839 0 0 0 0)
(0 0.00704111 0 0.00704111 -0.0770455 0 0 0 0)
(0 0.00723033 0 0.00723033 -0.0783514 0 0 0 0)
(0 0.0074166 0 0.0074166 -0.0795844 0 0 0 0)
(0 0.00759932 0 0.00759932 -0.0807681 0 0 0 0)
(0 0.00777686 0 0.00777686 -0.0818846 0 0 0 0)
(0 0.00795391 0 0.00795391 -0.0829834 0 0 0 0)
(0 0.00812326 0 0.00812326 -0.0840171 0 0 0 0)
(0 0.00829236 0 0.00829236 -0.0850363 0 0 0 0)
(6.87862e-16 0.00845696 0 0.00845696 -0.0859976 0 0 0 0)
(0 0.00861926 0 0.00861926 -0.0869477 0 0 0 0)
(0 0.0087764 0 0.0087764 -0.0878827 0 0 0 0)
(0 0.00892891 0 0.00892891 -0.0887808 0 0 0 0)
(0 0.00908268 0 0.00908268 -0.0896735 0 0 0 0)
(0 0.00922836 0 0.00922836 -0.0905228 0 0 0 0)
(0 0.00937242 0 0.00937242 -0.0913615 0 0 0 0)
(6.09451e-16 0.00951547 0 0.00951547 -0.0921927 0 0 0 0)
(0 0.00965066 0 0.00965066 -0.0930007 0 0 0 0)
(0 0.00978471 0 0.00978471 -0.0938183 0 0 0 0)
(0 0.00991461 0 0.00991461 -0.0946162 0 0 0 0)
(0 0.0100405 0 0.0100405 -0.0953931 0 0 0 0)
(0 0.0101668 0 0.0101668 -0.0961813 0 0 0 0)
(0 0.0102859 0 0.0102859 -0.0969806 0 0 0 0)
(0 0.0103981 0 0.0103981 -0.0977858 0 0 0 0)
(5.08606e-16 0.0105114 0 0.0105114 -0.0986124 0 0 0 0)
(0 0.0106188 0 0.0106188 -0.0994176 0 0 0 0)
(0 0.0107231 0 0.0107231 -0.100244 0 0 0 0)
(0 0.0108225 0 0.0108225 -0.101064 0 0 0 0)
(0 0.0109202 0 0.0109202 -0.10192 0 0 0 0)
(0 0.0110098 0 0.0110098 -0.102767 0 0 0 0)
(0 0.0110991 0 0.0110991 -0.103662 0 0 0 0)
(0 0.0111809 0 0.0111809 -0.10455 0 0 0 0)
(0 0.011261 0 0.011261 -0.105467 0 0 0 0)
(0 0.0113389 0 0.0113389 -0.106413 0 0 0 0)
(0 0.0114098 0 0.0114098 -0.107375 0 0 0 0)
(0 0.0114818 0 0.0114818 -0.108389 0 0 0 0)
(0 0.0115571 0 0.0115571 -0.109476 0 0 0 0)
(0 0.0116454 0 0.0116454 -0.110676 0 0 0 0)
(0 0.0117736 0 0.0117736 -0.112177 0 0 0 0)
(0 0.0119962 0 0.0119962 -0.114313 0 0 0 0)
(0 0.0123679 0 0.0123679 -0.117522 0 0 0 0)
(0 0.0128483 0 0.0128483 -0.121428 0 0 0 0)
(0 0.0132477 0 0.0132477 -0.124619 0 0 0 0)
(0 0.0133957 0 0.0133957 -0.126326 0 0 0 0)
(0 0.0126847 0 0.0126847 -0.121355 0 0 0 0)
(0 0.0124775 0 0.0124775 -0.121358 0 0 0 0)
(0 0.0125632 0 0.0125632 -0.124503 0 0 0 0)
(0 0.011908 0 0.011908 -0.120355 0 0 0 0)
(0 0.011019 0 0.011019 -0.112327 0 0 0 0)
(0 0.010828 0 0.010828 -0.108706 0 0 0 0)
(0 0.0111295 0 0.0111295 -0.10756 0 0 0 0)
(0 0.0117881 0 0.0117881 -0.10782 0 0 0 0)
(0 0.0125254 0 0.0125254 -0.107945 0 0 0 0)
(0 0.0130411 0 0.0130411 -0.107301 0 0 0 0)
(0 0.0132442 0 0.0132442 -0.106034 0 0 0 0)
(0 0.0132182 0 0.0132182 -0.104388 0 0 0 0)
(0 0.0130835 0 0.0130835 -0.102561 0 0 0 0)
(0 0.0129319 0 0.0129319 -0.100699 0 0 0 0)
(0 0.0128167 0 0.0128167 -0.098897 0 0 0 0)
(0 0.0127586 0 0.0127586 -0.0972019 0 0 0 0)
(0 0.0127511 0 0.0127511 -0.0955998 0 0 0 0)
(0 0.012774 0 0.012774 -0.0940541 0 0 0 0)
(0 0.0128022 0 0.0128022 -0.0925162 0 0 0 0)
(0 0.0128178 0 0.0128178 -0.0909556 0 0 0 0)
(0 0.0128148 0 0.0128148 -0.0893672 0 0 0 0)
(0 0.0127967 0 0.0127967 -0.08776 0 0 0 0)
(0 0.0127701 0 0.0127701 -0.0861445 0 0 0 0)
(0 0.012742 0 0.012742 -0.0845324 0 0 0 0)
(0 0.0127164 0 0.0127164 -0.0829284 0 0 0 0)
(0 0.0126939 0 0.0126939 -0.0813321 0 0 0 0)
(0 0.0126732 0 0.0126732 -0.07974 0 0 0 0)
(0 0.0126526 0 0.0126526 -0.0781488 0 0 0 0)
(0 0.0126309 0 0.0126309 -0.0765566 0 0 0 0)
(0 0.012608 0 0.012608 -0.0749626 0 0 0 0)
(0 0.0125842 0 0.0125842 -0.0733677 0 0 0 0)
(0 0.0125603 0 0.0125603 -0.0717727 0 0 0 0)
(0 0.0125366 0 0.0125366 -0.0701777 0 0 0 0)
(0 0.0125131 0 0.0125131 -0.0685829 0 0 0 0)
(0 0.0124896 0 0.0124896 -0.066988 0 0 0 0)
(0 0.012466 0 0.012466 -0.0653927 0 0 0 0)
(0 0.012442 0 0.012442 -0.0637969 0 0 0 0)
(0 0.0124174 0 0.0124174 -0.0622004 0 0 0 0)
(0 0.0123919 0 0.0123919 -0.0606031 0 0 0 0)
(0 0.0123655 0 0.0123655 -0.0590049 0 0 0 0)
(0 0.0123377 0 0.0123377 -0.0574055 0 0 0 0)
(0 0.0123084 0 0.0123084 -0.0558046 0 0 0 0)
(0 0.0122772 0 0.0122772 -0.0542021 0 0 0 0)
(0 0.012244 0 0.012244 -0.0525976 0 0 0 0)
(0 0.0122085 0 0.0122085 -0.0509909 0 0 0 0)
(0 0.0121706 0 0.0121706 -0.0493819 0 0 0 0)
(0 0.0121303 0 0.0121303 -0.0477702 0 0 0 0)
(0 0.0120874 0 0.0120874 -0.0461556 0 0 0 0)
(0 0.0120418 0 0.0120418 -0.0445378 0 0 0 0)
(0 0.0119934 0 0.0119934 -0.0429163 0 0 0 0)
(0 0.011942 0 0.011942 -0.0412907 0 0 0 0)
(0 0.0118874 0 0.0118874 -0.0396606 0 0 0 0)
(0 0.0118298 0 0.0118298 -0.0380255 0 0 0 0)
(0 0.0117702 0 0.0117702 -0.0363852 0 0 0 0)
(0 0.0117104 0 0.0117104 -0.0347393 0 0 0 0)
(0 0.0116534 0 0.0116534 -0.0330872 0 0 0 0)
(0 0.0116018 0 0.0116018 -0.0314274 0 0 0 0)
(0 0.0115552 0 0.0115552 -0.0297575 0 0 0 0)
(0 0.0115068 0 0.0115068 -0.0280749 0 0 0 0)
(0 0.0114395 0 0.0114395 -0.0263802 0 0 0 0)
(0 0.0113269 0 0.0113269 -0.024679 0 0 0 0)
(0 0.0111465 0 0.0111465 -0.0229806 0 0 0 0)
(0 0.0109108 0 0.0109108 -0.0212867 0 0 0 0)
(0 0.0106966 0 0.0106966 -0.0195853 0 0 0 0)
(0 0.0106321 0 0.0106321 -0.0178446 0 0 0 0)
(0 0.0108217 0 0.0108217 -0.0159608 0 0 0 0)
(0 0.0112364 0 0.0112364 -0.013728 0 0 0 0)
(0 0.0116594 0 0.0116594 -0.0110632 0 0 0 0)
(0 0.0118266 0 0.0118266 -0.00820634 0 0 0 0)
(0 0.0116372 0 0.0116372 -0.00549948 0 0 0 0)
(0 0.0112108 0 0.0112108 -0.00286971 0 0 0 0)
(0 0.010612 0 0.010612 -0.000821616 0 0 0 0)
(0 0.0096203 0 0.0096203 -9.27721e-05 0 0 0 0)
(0 0.00850067 0 0.00850067 -1.56144e-05 0 0 0 0)
(0 0.00796983 0 0.00796983 -7.39466e-06 0 0 0 0)
(0 0.0080139 0 0.0080139 -7.19645e-06 0 0 0 0)
(0 0.00727217 0 0.00727217 -7.4376e-06 0 0 0 0)
(0 0.0059818 0 0.0059818 -8.60598e-06 0 0 0 0)
(0 0.00481256 0 0.00481256 -2.41582e-06 0 0 0 0)
(0 0.00389994 0 0.00389994 2.58895e-05 0 0 0 0)
(0 0.00307888 0 0.00307888 6.10097e-05 0 0 0 0)
(0 0.00503652 0 0.00503652 0.000147315 0 0 0 0)
(0 0.00851667 0 0.00851667 0.000276109 0 0 0 0)
(0 0.0132938 0 0.0132938 0.000269885 0 0 0 0)
(0 0.0240845 0 0.0240845 -0.000492749 0 0 0 0)
(0 0.0555049 0 0.0555049 -0.00435151 0 0 0 0)
(0 0.114105 0 0.114105 -0.0128163 0 0 0 0)
(0 0.162068 0 0.162068 -0.0195572 0 0 0 0)
(0 0.191846 0 0.191846 -0.0226302 0 0 0 0)
(0 0.220753 0 0.220753 -0.0253437 0 0 0 0)
(0 0.235811 0 0.235811 -0.0265184 0 0 0 0)
(0 0.257269 0 0.257269 -0.0285094 0 0 0 0)
(0 0.263954 0 0.263954 -0.0290076 0 0 0 0)
(0 0.284327 0 0.284327 -0.0311312 0 0 0 0)
(0 0.282685 0 0.282685 -0.0308977 0 0 0 0)
(0 0.296351 0 0.296351 -0.0324338 0 0 0 0)
(0 0.304916 0 0.304916 -0.0335275 0 0 0 0)
(0 0.302709 0 0.302709 -0.0333811 0 0 0 0)
(0 0.316219 0 0.316219 -0.0350681 0 0 0 0)
(0 0.312226 0 0.312226 -0.0348371 0 0 0 0)
(0 0.323845 0 0.323845 -0.0363558 0 0 0 0)
(0 0.318127 0 0.318127 -0.0359478 0 0 0 0)
(0 0.32952 0 0.32952 -0.0375035 0 0 0 0)
(0 0.325687 0 0.325687 -0.037358 0 0 0 0)
(0 0.33425 0 0.33425 -0.0386075 0 0 0 0)
(0 0.327264 0 0.327264 -0.0380488 0 0 0 0)
(0 0.336393 0 0.336393 -0.0394323 0 0 0 0)
(0 0.336224 0 0.336224 -0.0397279 0 0 0 0)
(0 0.334567 0 0.334567 -0.0397886 0 0 0 0)
(0 0.340098 0 0.340098 -0.0407526 0 0 0 0)
(0 0.335004 0 0.335004 -0.040414 0 0 0 0)
(0 0.342426 0 0.342426 -0.0416144 0 0 0 0)
(0 0.33717 0 0.33717 -0.0412534 0 0 0 0)
(0 0.341888 0 0.341888 -0.042086 0 0 0 0)
(0 0.337406 0 0.337406 -0.0417997 0 0 0 0)
(0 0.343298 0 0.343298 -0.0428085 0 0 0 0)
(0 0.337454 0 0.337454 -0.042281 0 0 0 0)
(0 0.339873 0 0.339873 -0.042826 0 0 0 0)
(0 0.341519 0 0.341519 -0.0432881 0 0 0 0)
(0 0.336784 0 0.336784 -0.0428417 0 0 0 0)
(0 0.338962 0 0.338962 -0.0432984 0 0 0 0)
(0 0.33454 0 0.33454 -0.0428878 0 0 0 0)
(0 0.338217 0 0.338217 -0.0435355 0 0 0 0)
(0 0.335131 0 0.335131 -0.0432912 0 0 0 0)
(0 0.335711 0 0.335711 -0.0434593 0 0 0 0)
(0 0.329575 0 0.329575 -0.0427007 0 0 0 0)
(0 0.328615 0 0.328615 -0.0425906 0 0 0 0)
(0 0.327761 0 0.327761 -0.0425632 0 0 0 0)
(0 0.332785 0 0.332785 -0.0433502 0 0 0 0)
(0 0.328246 0 0.328246 -0.0427241 0 0 0 0)
(0 0.322425 0 0.322425 -0.041827 0 0 0 0)
(0 0.316592 0 0.316592 -0.0409261 0 0 0 0)
(-2.74497e-14 0.314087 0 0.314087 -0.0405177 0 0 0 0)
(0 0.320637 0 0.320637 -0.0415149 0 0 0 0)
(0 0.321869 0 0.321869 -0.0417691 0 0 0 0)
(5.36748e-14 0.31512 0 0.31512 -0.0407539 0 0 0 0)
(0 0.304522 0 0.304522 -0.0391588 0 0 0 0)
(-5.21297e-14 0.303233 0 0.303233 -0.0389843 0 0 0 0)
(0 0.309636 0 0.309636 -0.0400668 0 0 0 0)
(5.09447e-14 0.309854 0 0.309854 -0.0402056 0 0 0 0)
(0 0.300134 0 0.300134 -0.0387623 0 0 0 0)
(0 0.294866 0 0.294866 -0.0380188 0 0 0 0)
(0 0.298906 0 0.298906 -0.0388173 0 0 0 0)
(2.37398e-14 0.297533 0 0.297533 -0.0387874 0 0 0 0)
(0 0.287391 0 0.287391 -0.0373037 0 0 0 0)
(0 0.284275 0 0.284275 -0.0369333 0 0 0 0)
(0 0.291071 0 0.291071 -0.0382394 0 0 0 0)
(0 0.290053 0 0.290053 -0.0383272 0 0 0 0)
(0 0.279117 0 0.279117 -0.0367624 0 0 0 0)
(-4.1587e-14 0.274555 0 0.274555 -0.0362484 0 0 0 0)
(0 0.278828 0 0.278828 -0.0372489 0 0 0 0)
(0 0.277331 0 0.277331 -0.0372886 0 0 0 0)
(0 0.271615 0 0.271615 -0.036582 0 0 0 0)
(-3.75375e-14 0.272288 0 0.272288 -0.0370535 0 0 0 0)
(0 0.270283 0 0.270283 -0.0371074 0 0 0 0)
(0 0.263486 0 0.263486 -0.0362609 0 0 0 0)
(0 0.264529 0 0.264529 -0.0368159 0 0 0 0)
(0 0.26672 0 0.26672 -0.0376425 0 0 0 0)
(0 0.261193 0 0.261193 -0.037077 0 0 0 0)
(3.11711e-14 0.258297 0 0.258297 -0.0370186 0 0 0 0)
(0 0.257935 0 0.257935 -0.0374611 0 0 0 0)
(0 0.254641 0 0.254641 -0.0373662 0 0 0 0)
(0 0.250559 0 0.250559 -0.0371785 0 0 0 0)
(0 0.245876 0 0.245876 -0.0368853 0 0 0 0)
(0 0.242105 0 0.242105 -0.0367744 0 0 0 0)
(0 0.238019 0 0.238019 -0.0366304 0 0 0 0)
(0 0.231849 0 0.231849 -0.0361346 0 0 0 0)
(0 0.222173 0 0.222173 -0.035009 0 0 0 0)
(0 0.211182 0 0.211182 -0.03365 0 0 0 0)
(0 0.1992 0 0.1992 -0.0321561 0 0 0 0)
(0 0.182411 0 0.182411 -0.029804 0 0 0 0)
(0 0.157118 0 0.157118 -0.0258795 0 0 0 0)
(0 0.124793 0 0.124793 -0.0206636 0 0 0 0)
(-1.31656e-14 0.0899199 0 0.0899199 -0.0147492 0 0 0 0)
(1.07237e-14 0.0697057 0 0.0697057 -0.0119929 0 0 0 0)
(0 0 0 0 -0 0 0 0 0)
(0 0 0 0 -0 0 0 0 0)
(-0 0 0 0 0 0 0 0 0)
(0 0 0 0 -0 0 0 0 0)
(0 0 0 0 0 0 0 0 0)
(-0 0 0 0 -0 0 0 0 0)
(0 0 0 0 0 0 0 0 0)
(0 0 0 0 -0 0 0 0 0)
(0 0 0 0 0 0 0 0 0)
(0 0 0 0 -0 0 0 0 0)
(0 0 0 0 -0 0 0 0 0)
(0 0 0 0 0 0 0 0 0)
(0 0 0 0 -0 0 0 0 0)
(0 0 0 0 0 0 0 0 0)
(0 0 0 0 -0 0 0 0 0)
(0 0 0 0 0 0 0 0 0)
(0 0 0 0 -0 0 0 0 0)
(0 0 0 0 0 0 0 0 0)
(0 0 0 0 -0 0 0 0 0)
(0 0 0 0 0 0 0 0 0)
(0 0 0 0 -0 0 0 0 0)
(0 0 0 0 0 0 0 0 0)
(0 0 0 0 -0 0 0 0 0)
(0 0 0 0 0 0 0 0 0)
(0 0 0 0 -0 0 0 0 0)
(0 0 0 0 0 0 0 0 0)
(0 0 0 0 -0 0 0 0 0)
(0 0 0 0 0 0 0 0 0)
(0 0 0 0 -0 0 0 0 0)
(0 0 0 0 0 0 0 0 0)
(0 0 0 0 -0 0 0 0 0)
(0 0 0 0 0 0 0 0 0)
(0 0 0 0 -0 0 0 0 0)
(0 0 0 0 0 0 0 0 0)
(0 0 0 0 -0 0 0 0 0)
(0 0 0 0 0 0 0 0 0)
(0 0 0 0 -0 0 0 0 0)
(0 0 0 0 0 0 0 0 0)
(0 0 0 0 -0 0 0 0 0)
(0 0 0 0 0 0 0 0 0)
(0 0 0 0 -0 0 0 0 0)
(0 0 0 0 0 0 0 0 0)
(0 0 0 0 -0 0 0 0 0)
(0 -0 0 -0 0 0 0 0 0)
(0 0 0 0 -0 0 0 0 0)
(0 -0 0 -0 0 0 0 0 0)
(0 0 0 0 -0 0 0 0 0)
(0 -0 0 -0 0 0 0 0 0)
(0 0 0 0 -0 0 0 0 0)
(0 -0 0 -0 0 0 0 0 0)
(0 0 0 0 -0 0 0 0 0)
(0 -0 0 -0 0 0 0 0 0)
(0 0 0 0 -0 0 0 0 0)
(0 -0 0 -0 0 0 0 0 0)
(-0 0 0 0 -0 0 0 0 0)
(0 -0 0 -0 0 0 0 0 0)
(0 0 0 0 -0 0 0 0 0)
(0 -0 0 -0 0 0 0 0 0)
(0 0 0 0 -0 0 0 0 0)
(0 -0 0 -0 0 0 0 0 0)
(0 0 0 0 -0 0 0 0 0)
(0 -0 0 -0 0 0 0 0 0)
(0 0 0 0 -0 0 0 0 0)
(0 -0 0 -0 0 0 0 0 0)
(0 0 0 0 -0 0 0 0 0)
(0 -0 0 -0 0 0 0 0 0)
(0 0 0 0 -0 0 0 0 0)
(0 -0 0 -0 0 0 0 0 0)
(0 0 0 0 -0 0 0 0 0)
(0 -0 0 -0 0 0 0 0 0)
(0 0 0 0 -0 0 0 0 0)
(0 -0 0 -0 0 0 0 0 0)
(0 0 0 0 -0 0 0 0 0)
(0 -0 0 -0 0 0 0 0 0)
(0 0 0 0 -0 0 0 0 0)
(0 -0 0 -0 0 0 0 0 0)
(0 0 0 0 -0 0 0 0 0)
(0 -0 0 -0 0 0 0 0 0)
(0 0 0 0 -0 0 0 0 0)
(0 -0 0 -0 0 0 0 0 0)
(0 0 0 0 -0 0 0 0 0)
(0 -0 0 -0 0 0 0 0 0)
(0 0 0 0 -0 0 0 0 0)
(0 -0 0 -0 0 0 0 0 0)
(0 0 0 0 -0 0 0 0 0)
(0 -0 0 -0 0 0 0 0 0)
(0 0 0 0 -0 0 0 0 0)
(0 -0 0 -0 0 0 0 0 0)
(0 0 0 0 -0 0 0 0 0)
(0 -0 0 -0 0 0 0 0 0)
(0 0 0 0 -0 0 0 0 0)
(0 -0 0 -0 0 0 0 0 0)
(0 0 0 0 -0 0 0 0 0)
(0 -0 0 -0 0 0 0 0 0)
(0 0 0 0 -0 0 0 0 0)
(0 -0 0 -0 0 0 0 0 0)
(0 0 0 0 -0 0 0 0 0)
(0 -0 0 -0 0 0 0 0 0)
(0 0 0 0 -0 0 0 0 0)
(0 -0 0 -0 0 0 0 0 0)
(0 0 0 0 -0 0 0 0 0)
(0 -0 0 -0 0 0 0 0 0)
(0 0 0 0 -0 0 0 0 0)
(0 -0 0 -0 0 0 0 0 0)
(0 0 0 0 -0 0 0 0 0)
(0 -0 0 -0 0 0 0 0 0)
(0 0 0 0 -0 0 0 0 0)
(0 0 0 0 -0 0 0 0 0)
(0 0 0 0 0 0 0 0 0)
(0 0 0 0 0 0 0 0 0)
(0 0 0 0 0 0 0 0 0)
(0 0 0 0 0 0 0 0 0)
(0 0 0 0 0 0 0 0 0)
(0 0 0 0 0 0 0 0 0)
(0 0 0 0 0 0 0 0 0)
)
;

boundaryField
{
    inandouthalf11
    {
        type            cyclic;
    }
    inandouthalf12
    {
        type            cyclic;
    }
    inandouthalf21
    {
        type            cyclic;
    }
    inandouthalf22
    {
        type            cyclic;
    }
    inandouthalf31
    {
        type            cyclic;
    }
    inandouthalf32
    {
        type            cyclic;
    }
    inandouthalf41
    {
        type            cyclic;
    }
    inandouthalf42
    {
        type            cyclic;
    }
    top
    {
        type            symmetryPlane;
    }
    walls
    {
        type            zeroGradient;
    }
    frontAndBackPlanes
    {
        type            empty;
    }
}


// ************************************************************************* //
