/*--------------------------------*- C++ -*----------------------------------*\
| =========                 |                                                 |
| \\      /  F ield         | OpenFOAM: The Open Source CFD Toolbox           |
|  \\    /   O peration     | Version:  2.4.x                                 |
|   \\  /    A nd           | Web:      www.OpenFOAM.org                      |
|    \\/     M anipulation  |                                                 |
\*---------------------------------------------------------------------------*/
FoamFile
{
    version     2.0;
    format      ascii;
    class       volScalarField;
    location    "1.65";
    object      Theta;
}
// * * * * * * * * * * * * * * * * * * * * * * * * * * * * * * * * * * * * * //

dimensions      [0 2 -2 0 0 0 0];

internalField   nonuniform List<scalar> 
360
(
6.66136e-21
6.66136e-21
6.66136e-21
6.66136e-21
6.66136e-21
6.66136e-21
6.66136e-21
6.66136e-21
6.66136e-21
6.66136e-21
6.66136e-21
6.66136e-21
6.66136e-21
6.66136e-21
6.66136e-21
6.66136e-21
6.66136e-21
6.66136e-21
6.66136e-21
6.66136e-21
6.66136e-21
6.66136e-21
6.66136e-21
6.66136e-21
6.66136e-21
6.66136e-21
6.66136e-21
6.66136e-21
6.66135e-21
6.66135e-21
6.66135e-21
6.66135e-21
6.66135e-21
6.66135e-21
6.66135e-21
6.66135e-21
6.66135e-21
6.66135e-21
6.66135e-21
6.66135e-21
6.66135e-21
6.66135e-21
6.66135e-21
6.66135e-21
6.66135e-21
6.66135e-21
6.66135e-21
6.66135e-21
6.66135e-21
6.66135e-21
6.66135e-21
6.66135e-21
6.66135e-21
6.66135e-21
6.66135e-21
6.66135e-21
6.66135e-21
6.66135e-21
6.66135e-21
6.66135e-21
6.66135e-21
6.66134e-21
6.66134e-21
6.66134e-21
6.66134e-21
6.66134e-21
6.66134e-21
6.66134e-21
6.66134e-21
6.66133e-21
6.66133e-21
6.66133e-21
6.66133e-21
6.66136e-21
6.67092e-21
6.84073e-21
7.39002e-21
7.67088e-21
7.36833e-21
7.0589e-21
6.90921e-21
6.85427e-21
6.846e-21
6.86311e-21
6.89291e-21
6.92354e-21
6.94549e-21
6.95604e-21
6.95924e-21
6.96155e-21
6.96778e-21
6.98e-21
6.99809e-21
7.02064e-21
7.04586e-21
7.07239e-21
7.09964e-21
7.12779e-21
7.15736e-21
7.18875e-21
0
0
0
0
0
0
0
0
0
0
0
0
0
0
0
7.8931e-21
7.93596e-21
7.97851e-21
8.02143e-21
8.06553e-21
8.11156e-21
8.15981e-21
8.20981e-21
8.26026e-21
8.30998e-21
8.36035e-21
8.41946e-21
8.50677e-21
8.65653e-21
8.91546e-21
9.31889e-21
9.7947e-21
9.978e-21
9.36029e-21
8.17965e-21
7.27572e-21
6.88378e-21
6.76946e-21
6.77581e-21
3.41704e-20
7.58649e-16
1.39102e-11
1.88696e-08
2.28432e-06
4.10843e-05
0.000147445
0.00020001
0.000191192
0.000193857
0.000313403
0.00083454
0.0021999
0.00288726
0.00308649
0.00329268
0.00353026
0.00372632
0.00386698
0.00396296
0.00402607
0.00406438
0.00408494
0.00409209
0.0040899
0.00408044
0.00406624
0.00404847
0.00402813
0.00400627
0.00398322
0.00395961
0.00393558
0.00391152
0.00388744
0.00386354
0.0038398
0.00381638
0.00379321
0.0037703
0.00374768
0.00372529
0.00370316
0.00368121
0.00365945
0.00363782
0.00361632
0.0035949
0.00357354
0.00355221
0.00353087
0.00350951
0.0034881
0.00346663
0.00344506
0.00342337
0.00340154
0.00337958
0.00335745
0.00333515
0.00331264
0.00328992
0.00326674
0.00324287
0.00321828
0.00319288
0.00316665
0.00313954
0.00311155
0.00308263
0.00305269
0.00302169
0.0029896
0.00295637
0.00292193
0.0028862
0.00284916
0.00281075
0.00277084
0.00272937
0.00268629
0.00264151
0.00259492
0.00254641
0.00249589
0.00244321
0.00238826
0.00233089
0.00227095
0.00220821
0.00214251
0.00207361
0.00200125
0.00192512
0.00184491
0.00176022
0.00167059
0.00157544
0.0014741
0.00136574
0.00124929
0.00112329
0.000985684
0.000833384
0.000660973
0.0004565
0
0
0
0
0
0
0
0
0
0
0
0
0
0
0
0
0
0
0
0
0
0
0
0
0
0
0
0
0
0
0
0
0
0
0
0
0
0
0
0
0
0
0
0
0
0
0
0
0
0
0
0
0
0
0
0
0
0
0
0
0
0
0
0
0
0
0
0
0
0
0
0
0
0
0
0
0
0
0
0
0
0
0
0
0
0
0
0
0
0
0
0
0
0
0
0
0
0
0
0
0
0
0
0
0
0
0
0
0
0
0
0
0
0
0
)
;

boundaryField
{
    inandouthalf11
    {
        type            cyclic;
    }
    inandouthalf12
    {
        type            cyclic;
    }
    inandouthalf21
    {
        type            cyclic;
    }
    inandouthalf22
    {
        type            cyclic;
    }
    inandouthalf31
    {
        type            cyclic;
    }
    inandouthalf32
    {
        type            cyclic;
    }
    inandouthalf41
    {
        type            cyclic;
    }
    inandouthalf42
    {
        type            cyclic;
    }
    top
    {
        type            symmetryPlane;
    }
    walls
    {
        type            zeroGradient;
    }
    frontAndBackPlanes
    {
        type            empty;
    }
}


// ************************************************************************* //
