/*--------------------------------*- C++ -*----------------------------------*\
| =========                 |                                                 |
| \\      /  F ield         | OpenFOAM: The Open Source CFD Toolbox           |
|  \\    /   O peration     | Version:  2.4.x                                 |
|   \\  /    A nd           | Web:      www.OpenFOAM.org                      |
|    \\/     M anipulation  |                                                 |
\*---------------------------------------------------------------------------*/
FoamFile
{
    version     2.0;
    format      ascii;
    class       volVectorField;
    location    "1.65";
    object      U;
}
// * * * * * * * * * * * * * * * * * * * * * * * * * * * * * * * * * * * * * //

dimensions      [0 1 -1 0 0 0 0];

internalField   nonuniform List<vector> 
360
(
(-7.75068e-06 3.59039e-14 0)
(-7.76385e-06 1.07925e-13 0)
(-7.76395e-06 1.80258e-13 0)
(-7.76395e-06 2.52672e-13 0)
(-7.76395e-06 3.25119e-13 0)
(-7.76403e-06 3.97601e-13 0)
(-7.76403e-06 4.69977e-13 0)
(-7.76412e-06 5.4249e-13 0)
(-7.76412e-06 6.14933e-13 0)
(-7.7642e-06 6.87255e-13 0)
(-7.76429e-06 7.5949e-13 0)
(-7.76429e-06 8.31747e-13 0)
(-7.76437e-06 9.0396e-13 0)
(-7.76446e-06 9.7595e-13 0)
(-7.76454e-06 1.04786e-12 0)
(-7.76463e-06 1.11961e-12 0)
(-7.76471e-06 1.1911e-12 0)
(-7.76479e-06 1.26244e-12 0)
(-7.76488e-06 1.33363e-12 0)
(-7.76505e-06 1.4046e-12 0)
(-7.76513e-06 1.47528e-12 0)
(-7.7653e-06 1.54579e-12 0)
(-7.76547e-06 1.61599e-12 0)
(-7.76564e-06 1.68597e-12 0)
(-7.76581e-06 1.7558e-12 0)
(-7.76598e-06 1.82531e-12 0)
(-7.76615e-06 1.89453e-12 0)
(-7.76641e-06 1.96357e-12 0)
(-7.76666e-06 2.03233e-12 0)
(-7.76692e-06 2.10072e-12 0)
(-7.76717e-06 2.16874e-12 0)
(-7.76751e-06 2.23642e-12 0)
(-7.76777e-06 2.30379e-12 0)
(-7.76819e-06 2.37094e-12 0)
(-7.76853e-06 2.43762e-12 0)
(-7.76896e-06 2.50397e-12 0)
(-7.76938e-06 2.57004e-12 0)
(-7.76989e-06 2.63577e-12 0)
(-7.77049e-06 2.70106e-12 0)
(-7.771e-06 2.76591e-12 0)
(-7.77168e-06 2.83039e-12 0)
(-7.77236e-06 2.89454e-12 0)
(-7.77304e-06 2.95829e-12 0)
(-7.77389e-06 3.02162e-12 0)
(-7.77474e-06 3.0845e-12 0)
(-7.77567e-06 3.14696e-12 0)
(-7.77669e-06 3.20906e-12 0)
(-7.77771e-06 3.27068e-12 0)
(-7.7789e-06 3.33177e-12 0)
(-7.78027e-06 3.39253e-12 0)
(-7.78163e-06 3.45289e-12 0)
(-7.78316e-06 3.51289e-12 0)
(-7.78478e-06 3.5723e-12 0)
(-7.78656e-06 3.63121e-12 0)
(-7.78844e-06 3.68963e-12 0)
(-7.79057e-06 3.74761e-12 0)
(-7.79278e-06 3.80504e-12 0)
(-7.79525e-06 3.86203e-12 0)
(-7.79789e-06 3.91869e-12 0)
(-7.80071e-06 3.97477e-12 0)
(-7.80386e-06 4.03019e-12 0)
(-7.80719e-06 4.08505e-12 0)
(-7.81086e-06 4.13957e-12 0)
(-7.81479e-06 4.19365e-12 0)
(-7.81906e-06 4.24718e-12 0)
(-7.82368e-06 4.30008e-12 0)
(-7.82872e-06 4.35238e-12 0)
(-7.8342e-06 4.40407e-12 0)
(-7.8401e-06 4.45504e-12 0)
(-7.84645e-06 4.17686e-12 0)
(-7.85339e-06 1.80658e-11 0)
(-7.86094e-06 -9.29358e-11 0)
(-7.86902e-06 3.78227e-10 0)
(-7.87787e-06 -1.59378e-09 0)
(-7.88336e-06 1.39595e-08 0)
(-7.83941e-06 7.07282e-08 0)
(-7.66041e-06 6.22952e-08 0)
(-7.36933e-06 -1.42944e-08 0)
(-7.08235e-06 -4.58832e-08 0)
(-6.85564e-06 -3.47832e-08 0)
(-6.67991e-06 -1.80439e-08 0)
(-6.5317e-06 -5.93562e-09 0)
(-6.39217e-06 1.72615e-09 0)
(-6.2486e-06 5.84623e-09 0)
(-6.09354e-06 6.82881e-09 0)
(-5.92452e-06 5.36055e-09 0)
(-5.74325e-06 2.85891e-09 0)
(-5.55342e-06 8.14168e-10 0)
(-5.35836e-06 1.55295e-11 0)
(-5.15945e-06 3.78967e-10 0)
(-4.95606e-06 1.3725e-09 0)
(-4.74631e-06 2.46192e-09 0)
(-4.52799e-06 3.30704e-09 0)
(-4.29917e-06 3.77056e-09 0)
(-4.05853e-06 3.90558e-09 0)
(-3.80532e-06 3.86484e-09 0)
(-3.53911e-06 3.79858e-09 0)
(-3.25951e-06 3.79461e-09 0)
(-2.966e-06 3.86884e-09 0)
(-2.65783e-06 3.99037e-09 0)
(-2.33414e-06 4.11583e-09 0)
(-1.99395e-06 4.21844e-09 0)
(-1.6363e-06 4.29087e-09 0)
(-1.26019e-06 4.33334e-09 0)
(-8.64655e-07 4.34684e-09 0)
(-4.48705e-07 4.32828e-09 0)
(-1.13787e-08 4.27011e-09 0)
(4.48253e-07 4.16588e-09 0)
(9.31066e-07 4.0143e-09 0)
(1.43787e-06 3.81965e-09 0)
(1.96943e-06 3.59041e-09 0)
(2.52644e-06 3.33702e-09 0)
(3.10961e-06 3.07002e-09 0)
(3.71967e-06 2.79959e-09 0)
(4.35737e-06 2.53588e-09 0)
(5.02361e-06 2.28967e-09 0)
(5.7194e-06 2.07261e-09 0)
(6.44599e-06 1.89618e-09 0)
(7.20493e-06 1.76779e-09 0)
(7.9981e-06 1.68357e-09 0)
(8.8278e-06 1.61975e-09 0)
(9.69672e-06 1.52799e-09 0)
(1.06078e-05 1.34574e-09 0)
(1.1564e-05 1.03588e-09 0)
(1.25683e-05 6.62498e-10 0)
(1.36242e-05 4.81995e-10 0)
(1.47365e-05 9.87378e-10 0)
(1.59151e-05 2.81453e-09 0)
(1.71782e-05 6.41939e-09 0)
(1.85568e-05 1.13819e-08 0)
(2.00939e-05 1.50145e-08 0)
(2.18299e-05 1.04209e-08 0)
(2.37555e-05 -1.18356e-08 0)
(2.57372e-05 -4.93482e-08 0)
(2.75042e-05 -7.38286e-08 0)
(2.88215e-05 -6.33425e-08 0)
(2.96913e-05 -3.76438e-08 0)
(3.02929e-05 -1.91235e-08 0)
(3.08301e-05 -6.04492e-09 0)
(3.15675e-05 1.60476e-08 0)
(3.33313e-05 1.21605e-07 0)
(4.16862e-05 6.7418e-07 0)
(0.000139265 1.71891e-06 0)
(0.00304549 -3.1694e-07 0)
(0.0312598 -1.55347e-06 0)
(0.101601 1.20112e-07 0)
(0.188759 -9.13036e-09 0)
(0.275921 -1.94068e-06 0)
(0.358256 -2.86795e-05 0)
(0.443791 6.33037e-06 0)
(0.574683 -7.83701e-05 0)
(0.785914 -0.000186473 0)
(0.950363 8.02551e-05 0)
(1.06388 -8.76155e-05 0)
(1.14307 8.15274e-05 0)
(1.19875 -7.69764e-05 0)
(1.24125 7.48359e-05 0)
(1.27704 -7.27367e-05 0)
(1.30799 7.12731e-05 0)
(1.3347 -6.98065e-05 0)
(1.35728 6.81444e-05 0)
(1.37624 -6.6247e-05 0)
(1.39185 6.41841e-05 0)
(1.40476 -6.19568e-05 0)
(1.41528 5.96116e-05 0)
(1.42402 -5.71626e-05 0)
(1.43135 5.46453e-05 0)
(1.43754 -5.20755e-05 0)
(1.44295 4.94814e-05 0)
(1.44765 -4.68781e-05 0)
(1.45187 4.42877e-05 0)
(1.45561 -4.17233e-05 0)
(1.45902 3.92018e-05 0)
(1.46209 -3.67334e-05 0)
(1.46489 3.43305e-05 0)
(1.46744 -3.20007e-05 0)
(1.46977 2.97524e-05 0)
(1.47191 -2.75905e-05 0)
(1.47387 2.55205e-05 0)
(1.47567 -2.35449e-05 0)
(1.47732 2.16665e-05 0)
(1.47884 -1.98859e-05 0)
(1.48024 1.82039e-05 0)
(1.48153 -1.66194e-05 0)
(1.48271 1.51317e-05 0)
(1.48381 -1.37386e-05 0)
(1.48481 1.2438e-05 0)
(1.48574 -1.12269e-05 0)
(1.4866 1.01024e-05 0)
(1.48739 -9.06099e-06 0)
(1.48812 8.09913e-06 0)
(1.48879 -7.21293e-06 0)
(1.48941 6.39865e-06 0)
(1.48998 -5.6522e-06 0)
(1.49051 4.96975e-06 0)
(1.49099 -4.34721e-06 0)
(1.49144 3.78079e-06 0)
(1.49186 -3.26652e-06 0)
(1.49224 2.80074e-06 0)
(1.4926 -2.37969e-06 0)
(1.49292 1.99993e-06 0)
(1.49323 -1.69494e-06 0)
(1.49351 1.41891e-06 0)
(1.49378 -1.16952e-06 0)
(1.49403 9.44811e-07 0)
(1.49427 -7.42844e-07 0)
(1.49449 5.61994e-07 0)
(1.49469 -4.00646e-07 0)
(1.49488 2.57438e-07 0)
(1.49506 -1.30974e-07 0)
(1.49522 2.0094e-08 0)
(1.49537 7.64041e-08 0)
(1.49551 -1.59527e-07 0)
(1.49564 2.30338e-07 0)
(1.49576 -2.89719e-07 0)
(1.49587 3.38622e-07 0)
(1.49597 -3.77859e-07 0)
(1.49606 4.08342e-07 0)
(1.49614 -4.30854e-07 0)
(1.49622 4.46574e-07 0)
(1.49629 -4.53628e-07 0)
(1.49635 4.55975e-07 0)
(1.4964 -4.52837e-07 0)
(1.49645 4.4486e-07 0)
(1.4965 -4.32572e-07 0)
(1.49654 4.1656e-07 0)
(1.49657 -3.97281e-07 0)
(1.49661 3.75253e-07 0)
(1.49664 -3.50869e-07 0)
(1.49666 3.24588e-07 0)
(1.49668 -2.96752e-07 0)
(1.4967 2.67766e-07 0)
(1.49672 -2.37923e-07 0)
(1.49673 2.07574e-07 0)
(1.49675 -1.76964e-07 0)
(1.49676 1.46393e-07 0)
(1.49677 -1.16058e-07 0)
(1.49678 8.62118e-08 0)
(1.49679 -5.70076e-08 0)
(1.49679 2.86522e-08 0)
(1.4968 -1.25792e-09 0)
(1.4968 -2.50106e-08 0)
(1.49681 5.00783e-08 0)
(1.49681 -7.38195e-08 0)
(1.49681 9.6193e-08 0)
(1.49681 -1.17108e-07 0)
(1.49682 1.36659e-07 0)
(1.49682 -1.54576e-07 0)
(1.49682 1.70978e-07 0)
(1.49682 -1.85832e-07 0)
(1.49682 1.99174e-07 0)
(1.49682 -2.10995e-07 0)
(1.49682 2.21351e-07 0)
(1.49682 -2.30252e-07 0)
(1.49682 2.3777e-07 0)
(1.49682 -2.43927e-07 0)
(1.49682 2.48677e-07 0)
(1.49682 -2.5229e-07 0)
(1.49682 2.5473e-07 0)
(1.49682 -2.56038e-07 0)
(1.49682 2.56306e-07 0)
(1.49682 -2.55587e-07 0)
(1.49682 2.53971e-07 0)
(1.49682 -2.51512e-07 0)
(1.49682 2.48299e-07 0)
(1.49682 -2.44385e-07 0)
(1.49682 2.39855e-07 0)
(1.49682 -2.34763e-07 0)
(1.49682 2.29188e-07 0)
(1.49682 -2.23182e-07 0)
(1.49682 2.16819e-07 0)
(1.49682 -2.10145e-07 0)
(1.49682 2.0323e-07 0)
(1.49682 -1.96114e-07 0)
(1.49682 1.88859e-07 0)
(1.49682 -1.81503e-07 0)
(1.49682 1.74098e-07 0)
(1.49682 -1.66677e-07 0)
(1.49682 1.59286e-07 0)
(1.49682 -1.51951e-07 0)
(1.49682 1.44711e-07 0)
(1.49682 -1.37587e-07 0)
(1.49682 1.30612e-07 0)
(1.49682 -1.23801e-07 0)
(1.49682 1.17179e-07 0)
(1.49682 -1.10758e-07 0)
(1.49682 1.04559e-07 0)
(1.49682 -9.85856e-08 0)
(1.49682 9.28549e-08 0)
(1.49682 -8.73686e-08 0)
(1.49682 8.2137e-08 0)
(1.49682 -7.71596e-08 0)
(1.49682 7.24419e-08 0)
(1.49682 -6.79813e-08 0)
(1.49682 6.37793e-08 0)
(1.49682 -5.98318e-08 0)
(1.49682 5.61369e-08 0)
(1.49682 -5.2689e-08 0)
(1.49682 4.94841e-08 0)
(1.49682 -4.65153e-08 0)
(1.49682 4.37769e-08 0)
(1.49682 -4.12612e-08 0)
(1.49682 3.89615e-08 0)
(1.49682 -3.68695e-08 0)
(1.49682 3.49778e-08 0)
(1.49682 -3.32782e-08 0)
(1.49682 3.1763e-08 0)
(1.49682 -3.04241e-08 0)
(1.49682 2.92539e-08 0)
(1.49682 -2.82448e-08 0)
(1.49682 2.39422e-08 0)
(1.49682 -2.26708e-08 0)
(1.49682 2.15294e-08 0)
(1.49682 -2.05061e-08 0)
(1.49682 1.95896e-08 0)
(1.49682 -1.87694e-08 0)
(1.49682 1.80354e-08 0)
(1.49682 -1.73785e-08 0)
(1.49682 1.67899e-08 0)
(1.49682 -1.6262e-08 0)
(1.49682 1.57742e-08 0)
(1.49682 -1.53126e-08 0)
(1.49682 1.4876e-08 0)
(1.49682 -1.44644e-08 0)
(1.49682 1.40762e-08 0)
(1.49682 -1.37112e-08 0)
(1.49682 1.33672e-08 0)
(1.49682 -1.30439e-08 0)
(1.49682 1.27382e-08 0)
(1.49682 -1.24503e-08 0)
(1.49682 1.21758e-08 0)
(1.49682 -1.19158e-08 0)
(1.49682 1.16644e-08 0)
(1.49682 -1.14248e-08 0)
(1.49682 1.11892e-08 0)
(1.49682 -1.09632e-08 0)
(1.49682 1.07374e-08 0)
(1.49682 -1.05201e-08 0)
(1.49682 1.03005e-08 0)
(1.49682 -1.00891e-08 0)
(1.49682 9.87366e-09 0)
(1.49682 -9.66723e-09 0)
(1.49682 9.45578e-09 0)
(1.49682 -9.25454e-09 0)
(1.49682 9.0478e-09 0)
(1.49682 -8.85312e-09 0)
(1.49682 8.65234e-09 0)
(1.49682 -8.46613e-09 0)
(1.49682 8.27352e-09 0)
(1.49682 -8.09795e-09 0)
(1.49682 7.91631e-09 0)
(1.49682 -7.75392e-09 0)
(1.49682 7.58664e-09 0)
(1.49682 -7.4409e-09 0)
(1.49682 7.29182e-09 0)
(1.49682 -7.16701e-09 0)
(1.49682 7.04231e-09 0)
(1.49682 -6.94476e-09 0)
(1.49682 6.85423e-09 0)
(1.49682 -6.79774e-09 0)
)
;

boundaryField
{
    inandouthalf11
    {
        type            cyclic;
    }
    inandouthalf12
    {
        type            cyclic;
    }
    inandouthalf21
    {
        type            cyclic;
    }
    inandouthalf22
    {
        type            cyclic;
    }
    inandouthalf31
    {
        type            cyclic;
    }
    inandouthalf32
    {
        type            cyclic;
    }
    inandouthalf41
    {
        type            cyclic;
    }
    inandouthalf42
    {
        type            cyclic;
    }
    top
    {
        type            symmetryPlane;
    }
    walls
    {
        type            calculated;
        value           uniform (0 0 0);
    }
    frontAndBackPlanes
    {
        type            empty;
    }
}


// ************************************************************************* //
