/*--------------------------------*- C++ -*----------------------------------*\
| =========                 |                                                 |
| \\      /  F ield         | OpenFOAM: The Open Source CFD Toolbox           |
|  \\    /   O peration     | Version:  2.4.x                                 |
|   \\  /    A nd           | Web:      www.OpenFOAM.org                      |
|    \\/     M anipulation  |                                                 |
\*---------------------------------------------------------------------------*/
FoamFile
{
    version     2.0;
    format      ascii;
    class       volVectorField;
    location    "1.65";
    object      Ub;
}
// * * * * * * * * * * * * * * * * * * * * * * * * * * * * * * * * * * * * * //

dimensions      [0 1 -1 0 0 0 0];

internalField   nonuniform List<vector> 
360
(
(-1.98733e-05 9.20602e-14 0)
(-1.99071e-05 2.76727e-13 0)
(-1.99073e-05 4.62194e-13 0)
(-1.99073e-05 6.47869e-13 0)
(-1.99073e-05 8.33627e-13 0)
(-1.99075e-05 1.01947e-12 0)
(-1.99075e-05 1.20505e-12 0)
(-1.99076e-05 1.39098e-12 0)
(-1.99076e-05 1.57672e-12 0)
(-1.99078e-05 1.76216e-12 0)
(-1.9908e-05 1.94736e-12 0)
(-1.9908e-05 2.13263e-12 0)
(-1.99081e-05 2.31779e-12 0)
(-1.99083e-05 2.50237e-12 0)
(-1.99085e-05 2.68674e-12 0)
(-1.99086e-05 2.8707e-12 0)
(-1.99088e-05 3.05398e-12 0)
(-1.9909e-05 3.23691e-12 0)
(-1.99091e-05 3.41941e-12 0)
(-1.99095e-05 3.60138e-12 0)
(-1.99096e-05 3.78258e-12 0)
(-1.991e-05 3.96336e-12 0)
(-1.99103e-05 4.14331e-12 0)
(-1.99106e-05 4.32273e-12 0)
(-1.9911e-05 4.50175e-12 0)
(-1.99113e-05 4.67994e-12 0)
(-1.99116e-05 4.85737e-12 0)
(-1.99121e-05 5.03434e-12 0)
(-1.99126e-05 5.21061e-12 0)
(-1.99131e-05 5.38591e-12 0)
(-1.99136e-05 5.56026e-12 0)
(-1.99143e-05 5.73373e-12 0)
(-1.99148e-05 5.90639e-12 0)
(-1.99156e-05 6.07848e-12 0)
(-1.99163e-05 6.24937e-12 0)
(-1.99171e-05 6.41938e-12 0)
(-1.9918e-05 6.58868e-12 0)
(-1.9919e-05 6.75708e-12 0)
(-1.99201e-05 6.92433e-12 0)
(-1.99211e-05 7.09049e-12 0)
(-1.99225e-05 7.25561e-12 0)
(-1.99238e-05 7.41991e-12 0)
(-1.99251e-05 7.58319e-12 0)
(-1.99268e-05 7.74532e-12 0)
(-1.99285e-05 7.9063e-12 0)
(-1.99303e-05 8.06616e-12 0)
(-1.99323e-05 8.2251e-12 0)
(-1.99343e-05 8.38277e-12 0)
(-1.99367e-05 8.53904e-12 0)
(-1.99393e-05 8.6944e-12 0)
(-1.9942e-05 8.84873e-12 0)
(-1.9945e-05 9.00207e-12 0)
(-1.99482e-05 9.15387e-12 0)
(-1.99517e-05 9.30434e-12 0)
(-1.99554e-05 9.45349e-12 0)
(-1.99595e-05 9.60143e-12 0)
(-1.99639e-05 9.74791e-12 0)
(-1.99687e-05 9.89319e-12 0)
(-1.99739e-05 1.00375e-11 0)
(-1.99794e-05 1.01803e-11 0)
(-1.99856e-05 1.03213e-11 0)
(-1.99921e-05 1.04607e-11 0)
(-1.99993e-05 1.05992e-11 0)
(-2.0007e-05 1.07364e-11 0)
(-2.00154e-05 1.0872e-11 0)
(-2.00245e-05 1.10059e-11 0)
(-2.00343e-05 1.11381e-11 0)
(-2.00451e-05 1.12685e-11 0)
(-2.00567e-05 1.13969e-11 0)
(-2.00691e-05 1.06833e-11 0)
(-2.00827e-05 4.61977e-11 0)
(-2.00975e-05 -2.37602e-10 0)
(-2.01133e-05 9.66752e-10 0)
(-2.01306e-05 -4.07264e-09 0)
(-2.01448e-05 6.35887e-08 0)
(-2.01077e-05 6.12038e-07 0)
(-1.99304e-05 1.99267e-06 0)
(-1.96369e-05 3.91861e-06 0)
(-1.93478e-05 5.79472e-06 0)
(-1.91219e-05 7.30054e-06 0)
(-1.89493e-05 8.46606e-06 0)
(-1.88059e-05 9.43917e-06 0)
(-1.86719e-05 1.03436e-05 0)
(-1.85341e-05 1.12587e-05 0)
(-1.83846e-05 1.22269e-05 0)
(-1.82207e-05 1.3259e-05 0)
(-1.80444e-05 1.43432e-05 0)
(-1.78593e-05 1.54574e-05 0)
(-1.76689e-05 1.65831e-05 0)
(-1.74749e-05 1.77124e-05 0)
(-1.72766e-05 1.88483e-05 0)
(-1.70722e-05 1.99995e-05 0)
(-1.68592e-05 2.11765e-05 0)
(-1.66359e-05 2.23874e-05 0)
(-1.64008e-05 2.36369e-05 0)
(-1.61533e-05 2.49268e-05 0)
(-1.58928e-05 2.62571e-05 0)
(-1.56191e-05 2.76274e-05 0)
(-1.53315e-05 2.90378e-05 0)
(-1.50295e-05 3.04892e-05 0)
(-1.4712e-05 3.19827e-05 0)
(-1.43782e-05 3.35195e-05 0)
(-1.4027e-05 3.51009e-05 0)
(-1.36575e-05 3.67276e-05 0)
(-1.32687e-05 3.84001e-05 0)
(-1.28596e-05 4.01186e-05 0)
(-1.24293e-05 4.18831e-05 0)
(-1.19768e-05 4.3693e-05 0)
(-1.15013e-05 4.55475e-05 0)
(-1.10019e-05 4.7445e-05 0)
(-1.04779e-05 4.93839e-05 0)
(-9.92866e-06 5.1362e-05 0)
(-9.35341e-06 5.33768e-05 0)
(-8.75147e-06 5.54259e-05 0)
(-8.12208e-06 5.75066e-05 0)
(-7.46437e-06 5.96167e-05 0)
(-6.77733e-06 6.17538e-05 0)
(-6.05973e-06 6.39159e-05 0)
(-5.31003e-06 6.61016e-05 0)
(-4.52637e-06 6.83097e-05 0)
(-3.70646e-06 7.05397e-05 0)
(-2.84764e-06 7.27911e-05 0)
(-1.94698e-06 7.50632e-05 0)
(-1.00151e-06 7.73544e-05 0)
(-8.21693e-09 7.96621e-05 0)
(1.03624e-06 8.19834e-05 0)
(2.13697e-06 8.43176e-05 0)
(3.30359e-06 8.66716e-05 0)
(4.55435e-06 8.90652e-05 0)
(5.92003e-06 9.15346e-05 0)
(7.44343e-06 9.41258e-05 0)
(9.16418e-06 9.68638e-05 0)
(1.10728e-05 9.96874e-05 0)
(1.3036e-05 0.000102381 0)
(1.47852e-05 0.000104614 0)
(1.60874e-05 0.000106154 0)
(1.69454e-05 0.000107048 0)
(1.75354e-05 0.00010753 0)
(1.8059e-05 0.00010783 0)
(1.87798e-05 0.000108134 0)
(2.05393e-05 0.000108849 0)
(2.89805e-05 0.000111514 0)
(0.000129079 0.000118638 0)
(0.00307731 0.000130129 0)
(0.0314361 0.000152342 0)
(0.101873 0.000197513 0)
(0.18906 0.000257699 0)
(0.276241 0.000319264 0)
(0.358607 0.00035667 0)
(0.444419 0.000291068 0)
(0.576716 -0.000285279 0)
(0.788791 -0.000567756 0)
(0.952391 -0.000156719 0)
(1.06509 -0.00020041 0)
(1.14363 4.4987e-05 0)
(1.19896 -8.65828e-05 0)
(1.24134 7.19462e-05 0)
(1.2771 -7.40962e-05 0)
(1.30804 7.05938e-05 0)
(1.33474 -7.017e-05 0)
(1.35732 6.80038e-05 0)
(1.37627 -6.62848e-05 0)
(1.39188 6.4242e-05 0)
(1.40478 -6.18681e-05 0)
(1.4153 5.97469e-05 0)
(1.42404 -5.70235e-05 0)
(1.43136 5.48009e-05 0)
(1.43756 -5.19193e-05 0)
(1.44296 4.96379e-05 0)
(1.44766 -4.67248e-05 0)
(1.45188 4.44357e-05 0)
(1.45562 -4.15798e-05 0)
(1.45903 3.9337e-05 0)
(1.46209 -3.66042e-05 0)
(1.4649 3.44514e-05 0)
(1.46744 -3.18845e-05 0)
(1.46978 2.98596e-05 0)
(1.47192 -2.74905e-05 0)
(1.47387 2.56163e-05 0)
(1.47567 -2.34582e-05 0)
(1.47732 2.17504e-05 0)
(1.47884 -1.98108e-05 0)
(1.48024 1.82764e-05 0)
(1.48153 -1.6554e-05 0)
(1.48271 1.51946e-05 0)
(1.48381 -1.36824e-05 0)
(1.48481 1.24921e-05 0)
(1.48574 -1.11776e-05 0)
(1.4866 1.01479e-05 0)
(1.48739 -9.01789e-06 0)
(1.48812 8.13824e-06 0)
(1.48879 -7.17569e-06 0)
(1.48941 6.4321e-06 0)
(1.48998 -5.62051e-06 0)
(1.49051 4.99849e-06 0)
(1.49099 -4.31972e-06 0)
(1.49144 3.80585e-06 0)
(1.49186 -3.24299e-06 0)
(1.49224 2.82158e-06 0)
(1.4926 -2.35989e-06 0)
(1.49292 2.01842e-06 0)
(1.49323 -1.67765e-06 0)
(1.49351 1.43511e-06 0)
(1.49378 -1.15537e-06 0)
(1.49403 9.57826e-07 0)
(1.49427 -7.30763e-07 0)
(1.49449 5.73605e-07 0)
(1.49469 -3.90137e-07 0)
(1.49488 2.66639e-07 0)
(1.49506 -1.22697e-07 0)
(1.49522 2.79786e-08 0)
(1.49537 8.36849e-08 0)
(1.49551 -1.53223e-07 0)
(1.49564 2.36009e-07 0)
(1.49576 -2.84338e-07 0)
(1.49587 3.43513e-07 0)
(1.49597 -3.73744e-07 0)
(1.49606 4.12034e-07 0)
(1.49614 -4.2736e-07 0)
(1.49622 4.49733e-07 0)
(1.49629 -4.50966e-07 0)
(1.49635 4.58346e-07 0)
(1.4964 -4.50638e-07 0)
(1.49645 4.46729e-07 0)
(1.4965 -4.30933e-07 0)
(1.49654 4.18085e-07 0)
(1.49657 -3.9599e-07 0)
(1.49661 3.76339e-07 0)
(1.49664 -3.49871e-07 0)
(1.49666 3.25454e-07 0)
(1.49668 -2.96027e-07 0)
(1.4967 2.68421e-07 0)
(1.49672 -2.3738e-07 0)
(1.49673 2.08067e-07 0)
(1.49675 -1.76564e-07 0)
(1.49676 1.46748e-07 0)
(1.49677 -1.15773e-07 0)
(1.49678 8.64689e-08 0)
(1.49679 -5.67981e-08 0)
(1.49679 2.8832e-08 0)
(1.4968 -1.11194e-09 0)
(1.4968 -2.48754e-08 0)
(1.49681 5.02089e-08 0)
(1.49681 -7.36893e-08 0)
(1.49681 9.63232e-08 0)
(1.49681 -1.16997e-07 0)
(1.49682 1.36704e-07 0)
(1.49682 -1.54555e-07 0)
(1.49682 1.70996e-07 0)
(1.49682 -1.85817e-07 0)
(1.49682 1.99185e-07 0)
(1.49682 -2.10986e-07 0)
(1.49682 2.21358e-07 0)
(1.49682 -2.30247e-07 0)
(1.49682 2.37775e-07 0)
(1.49682 -2.43923e-07 0)
(1.49682 2.48679e-07 0)
(1.49682 -2.52288e-07 0)
(1.49682 2.54731e-07 0)
(1.49682 -2.56037e-07 0)
(1.49682 2.56307e-07 0)
(1.49682 -2.55587e-07 0)
(1.49682 2.53972e-07 0)
(1.49682 -2.51512e-07 0)
(1.49682 2.48299e-07 0)
(1.49682 -2.44384e-07 0)
(1.49682 2.39855e-07 0)
(1.49682 -2.34763e-07 0)
(1.49682 2.29188e-07 0)
(1.49682 -2.23182e-07 0)
(1.49682 2.16819e-07 0)
(1.49682 -2.10145e-07 0)
(1.49682 2.0323e-07 0)
(1.49682 -1.96114e-07 0)
(1.49682 1.88859e-07 0)
(1.49682 -1.81503e-07 0)
(1.49682 1.74098e-07 0)
(1.49682 -1.66677e-07 0)
(1.49682 1.59286e-07 0)
(1.49682 -1.51951e-07 0)
(1.49682 1.44711e-07 0)
(1.49682 -1.37587e-07 0)
(1.49682 1.30612e-07 0)
(1.49682 -1.23801e-07 0)
(1.49682 1.17179e-07 0)
(1.49682 -1.10758e-07 0)
(1.49682 1.04559e-07 0)
(1.49682 -9.85856e-08 0)
(1.49682 9.28549e-08 0)
(1.49682 -8.73686e-08 0)
(1.49682 8.2137e-08 0)
(1.49682 -7.71596e-08 0)
(1.49682 7.24419e-08 0)
(1.49682 -6.79813e-08 0)
(1.49682 6.37793e-08 0)
(1.49682 -5.98318e-08 0)
(1.49682 5.61369e-08 0)
(1.49682 -5.2689e-08 0)
(1.49682 4.94841e-08 0)
(1.49682 -4.65153e-08 0)
(1.49682 4.37769e-08 0)
(1.49682 -4.12612e-08 0)
(1.49682 3.89615e-08 0)
(1.49682 -3.68695e-08 0)
(1.49682 3.49778e-08 0)
(1.49682 -3.32782e-08 0)
(1.49682 3.1763e-08 0)
(1.49682 -3.04241e-08 0)
(1.49682 2.92539e-08 0)
(1.49682 -2.82448e-08 0)
(1.49682 2.39422e-08 0)
(1.49682 -2.26708e-08 0)
(1.49682 2.15294e-08 0)
(1.49682 -2.05061e-08 0)
(1.49682 1.95896e-08 0)
(1.49682 -1.87694e-08 0)
(1.49682 1.80354e-08 0)
(1.49682 -1.73785e-08 0)
(1.49682 1.67899e-08 0)
(1.49682 -1.6262e-08 0)
(1.49682 1.57742e-08 0)
(1.49682 -1.53126e-08 0)
(1.49682 1.4876e-08 0)
(1.49682 -1.44644e-08 0)
(1.49682 1.40762e-08 0)
(1.49682 -1.37112e-08 0)
(1.49682 1.33672e-08 0)
(1.49682 -1.30439e-08 0)
(1.49682 1.27382e-08 0)
(1.49682 -1.24503e-08 0)
(1.49682 1.21758e-08 0)
(1.49682 -1.19158e-08 0)
(1.49682 1.16644e-08 0)
(1.49682 -1.14248e-08 0)
(1.49682 1.11892e-08 0)
(1.49682 -1.09632e-08 0)
(1.49682 1.07374e-08 0)
(1.49682 -1.05201e-08 0)
(1.49682 1.03005e-08 0)
(1.49682 -1.00891e-08 0)
(1.49682 9.87366e-09 0)
(1.49682 -9.66723e-09 0)
(1.49682 9.45578e-09 0)
(1.49682 -9.25454e-09 0)
(1.49682 9.0478e-09 0)
(1.49682 -8.85312e-09 0)
(1.49682 8.65234e-09 0)
(1.49682 -8.46613e-09 0)
(1.49682 8.27352e-09 0)
(1.49682 -8.09795e-09 0)
(1.49682 7.91631e-09 0)
(1.49682 -7.75392e-09 0)
(1.49682 7.58664e-09 0)
(1.49682 -7.4409e-09 0)
(1.49682 7.29182e-09 0)
(1.49682 -7.16701e-09 0)
(1.49682 7.04231e-09 0)
(1.49682 -6.94476e-09 0)
(1.49682 6.85423e-09 0)
(1.49682 -6.79774e-09 0)
)
;

boundaryField
{
    inandouthalf11
    {
        type            cyclic;
    }
    inandouthalf12
    {
        type            cyclic;
    }
    inandouthalf21
    {
        type            cyclic;
    }
    inandouthalf22
    {
        type            cyclic;
    }
    inandouthalf31
    {
        type            cyclic;
    }
    inandouthalf32
    {
        type            cyclic;
    }
    inandouthalf41
    {
        type            cyclic;
    }
    inandouthalf42
    {
        type            cyclic;
    }
    top
    {
        type            symmetryPlane;
    }
    walls
    {
        type            fixedValue;
        value           uniform (0 0 0);
    }
    frontAndBackPlanes
    {
        type            empty;
    }
}


// ************************************************************************* //
