/*--------------------------------*- C++ -*----------------------------------*\
| =========                 |                                                 |
| \\      /  F ield         | OpenFOAM: The Open Source CFD Toolbox           |
|  \\    /   O peration     | Version:  2.4.x                                 |
|   \\  /    A nd           | Web:      www.OpenFOAM.org                      |
|    \\/     M anipulation  |                                                 |
\*---------------------------------------------------------------------------*/
FoamFile
{
    version     2.0;
    format      ascii;
    class       volVectorField;
    location    "1.65";
    object      Ub_0;
}
// * * * * * * * * * * * * * * * * * * * * * * * * * * * * * * * * * * * * * //

dimensions      [0 1 -1 0 0 0 0];

internalField   nonuniform List<vector> 
360
(
(-1.98011e-05 8.93445e-14 0)
(-1.98348e-05 2.68612e-13 0)
(-1.9835e-05 4.48527e-13 0)
(-1.9835e-05 6.28874e-13 0)
(-1.9835e-05 8.09181e-13 0)
(-1.98351e-05 9.89771e-13 0)
(-1.98351e-05 1.17066e-12 0)
(-1.98353e-05 1.35122e-12 0)
(-1.98353e-05 1.53145e-12 0)
(-1.98355e-05 1.71161e-12 0)
(-1.98356e-05 1.89178e-12 0)
(-1.98356e-05 2.07193e-12 0)
(-1.98358e-05 2.25158e-12 0)
(-1.9836e-05 2.43078e-12 0)
(-1.98361e-05 2.60975e-12 0)
(-1.98363e-05 2.78878e-12 0)
(-1.98364e-05 2.96716e-12 0)
(-1.98366e-05 3.14491e-12 0)
(-1.98368e-05 3.32224e-12 0)
(-1.98371e-05 3.49892e-12 0)
(-1.98373e-05 3.67513e-12 0)
(-1.98376e-05 3.85088e-12 0)
(-1.98379e-05 4.02576e-12 0)
(-1.98383e-05 4.20017e-12 0)
(-1.98386e-05 4.37392e-12 0)
(-1.98389e-05 4.54699e-12 0)
(-1.98393e-05 4.71917e-12 0)
(-1.98398e-05 4.8906e-12 0)
(-1.98403e-05 5.06148e-12 0)
(-1.98408e-05 5.23171e-12 0)
(-1.98413e-05 5.40084e-12 0)
(-1.98419e-05 5.56931e-12 0)
(-1.98424e-05 5.73728e-12 0)
(-1.98433e-05 5.90435e-12 0)
(-1.98439e-05 6.07023e-12 0)
(-1.98448e-05 6.23529e-12 0)
(-1.98456e-05 6.39934e-12 0)
(-1.98466e-05 6.56268e-12 0)
(-1.98477e-05 6.7251e-12 0)
(-1.98487e-05 6.88665e-12 0)
(-1.98501e-05 7.04723e-12 0)
(-1.98514e-05 7.20661e-12 0)
(-1.98527e-05 7.36494e-12 0)
(-1.98544e-05 7.52245e-12 0)
(-1.98561e-05 7.6787e-12 0)
(-1.98579e-05 7.83391e-12 0)
(-1.98599e-05 7.98823e-12 0)
(-1.98619e-05 8.14124e-12 0)
(-1.98642e-05 8.29314e-12 0)
(-1.98669e-05 8.44398e-12 0)
(-1.98695e-05 8.59333e-12 0)
(-1.98725e-05 8.74151e-12 0)
(-1.98757e-05 8.88866e-12 0)
(-1.98792e-05 9.03472e-12 0)
(-1.98828e-05 9.17923e-12 0)
(-1.9887e-05 9.32272e-12 0)
(-1.98913e-05 9.46506e-12 0)
(-1.98962e-05 9.60593e-12 0)
(-1.99013e-05 9.74538e-12 0)
(-1.99068e-05 9.88364e-12 0)
(-1.9913e-05 1.00205e-11 0)
(-1.99195e-05 1.01557e-11 0)
(-1.99267e-05 1.02896e-11 0)
(-1.99343e-05 1.04221e-11 0)
(-1.99427e-05 1.05532e-11 0)
(-1.99517e-05 1.06828e-11 0)
(-1.99615e-05 1.08111e-11 0)
(-1.99722e-05 1.09376e-11 0)
(-1.99838e-05 1.10615e-11 0)
(-1.99961e-05 1.03373e-11 0)
(-2.00097e-05 4.58345e-11 0)
(-2.00244e-05 -2.37707e-10 0)
(-2.00402e-05 9.64761e-10 0)
(-2.00574e-05 -4.06211e-09 0)
(-2.00718e-05 6.08844e-08 0)
(-2.00354e-05 6.03378e-07 0)
(-1.98588e-05 1.97997e-06 0)
(-1.9565e-05 3.907e-06 0)
(-1.92751e-05 5.78758e-06 0)
(-1.90483e-05 7.29777e-06 0)
(-1.88753e-05 8.46599e-06 0)
(-1.87316e-05 9.44036e-06 0)
(-1.85975e-05 1.0345e-05 0)
(-1.84596e-05 1.12599e-05 0)
(-1.83101e-05 1.22275e-05 0)
(-1.81462e-05 1.3259e-05 0)
(-1.79698e-05 1.43426e-05 0)
(-1.77847e-05 1.54565e-05 0)
(-1.75943e-05 1.6582e-05 0)
(-1.74001e-05 1.77113e-05 0)
(-1.72017e-05 1.88472e-05 0)
(-1.6997e-05 1.99985e-05 0)
(-1.67839e-05 2.11757e-05 0)
(-1.65604e-05 2.23867e-05 0)
(-1.63251e-05 2.36364e-05 0)
(-1.60774e-05 2.49264e-05 0)
(-1.58167e-05 2.62568e-05 0)
(-1.55428e-05 2.76272e-05 0)
(-1.52551e-05 2.90376e-05 0)
(-1.49528e-05 3.0489e-05 0)
(-1.46352e-05 3.19824e-05 0)
(-1.43012e-05 3.35192e-05 0)
(-1.39498e-05 3.51004e-05 0)
(-1.35801e-05 3.6727e-05 0)
(-1.31911e-05 3.83995e-05 0)
(-1.27818e-05 4.0118e-05 0)
(-1.23512e-05 4.18826e-05 0)
(-1.18984e-05 4.36927e-05 0)
(-1.14225e-05 4.55475e-05 0)
(-1.09227e-05 4.74455e-05 0)
(-1.03983e-05 4.93848e-05 0)
(-9.8486e-06 5.13635e-05 0)
(-9.27283e-06 5.3379e-05 0)
(-8.67031e-06 5.54289e-05 0)
(-8.04029e-06 5.75106e-05 0)
(-7.3819e-06 5.96216e-05 0)
(-6.69412e-06 6.17597e-05 0)
(-5.97572e-06 6.3923e-05 0)
(-5.22518e-06 6.61098e-05 0)
(-4.44061e-06 6.83192e-05 0)
(-3.61972e-06 7.05505e-05 0)
(-2.75986e-06 7.28032e-05 0)
(-1.85809e-06 7.50767e-05 0)
(-9.11422e-07 7.73694e-05 0)
(8.31466e-08 7.96786e-05 0)
(1.12898e-06 8.20013e-05 0)
(2.23119e-06 8.43372e-05 0)
(3.39942e-06 8.66929e-05 0)
(4.65195e-06 8.90881e-05 0)
(6.01956e-06 9.15593e-05 0)
(7.54506e-06 9.41521e-05 0)
(9.26791e-06 9.68914e-05 0)
(1.11782e-05 9.97153e-05 0)
(1.31422e-05 0.000102408 0)
(1.48909e-05 0.000104638 0)
(1.61922e-05 0.000106177 0)
(1.70495e-05 0.000107069 0)
(1.76393e-05 0.00010755 0)
(1.81634e-05 0.000107849 0)
(1.88863e-05 0.000108153 0)
(2.06548e-05 0.000108871 0)
(2.91692e-05 0.000111552 0)
(0.000130662 0.000118704 0)
(0.00312103 0.000130234 0)
(0.0316744 0.000152553 0)
(0.102267 0.000197854 0)
(0.189504 0.00025816 0)
(0.276712 0.000319955 0)
(0.359098 0.000357736 0)
(0.444902 0.000292288 0)
(0.57711 -0.000283491 0)
(0.789107 -0.000567705 0)
(0.952632 -0.000155872 0)
(1.06525 -0.000200478 0)
(1.14373 4.55411e-05 0)
(1.19901 -8.68827e-05 0)
(1.24138 7.23005e-05 0)
(1.27714 -7.44254e-05 0)
(1.30807 7.09258e-05 0)
(1.33477 -7.04821e-05 0)
(1.35734 6.83034e-05 0)
(1.3763 -6.65646e-05 0)
(1.3919 6.45065e-05 0)
(1.40481 -6.2113e-05 0)
(1.41532 5.99755e-05 0)
(1.42406 -5.72332e-05 0)
(1.43138 5.49945e-05 0)
(1.43758 -5.20953e-05 0)
(1.44298 4.97989e-05 0)
(1.44768 -4.68698e-05 0)
(1.4519 4.45671e-05 0)
(1.45564 -4.1697e-05 0)
(1.45905 3.9442e-05 0)
(1.46211 -3.66968e-05 0)
(1.46492 3.45334e-05 0)
(1.46746 -3.19559e-05 0)
(1.4698 2.9922e-05 0)
(1.47194 -2.75439e-05 0)
(1.47389 2.56621e-05 0)
(1.47569 -2.34967e-05 0)
(1.47734 2.17828e-05 0)
(1.47886 -1.98371e-05 0)
(1.48026 1.82978e-05 0)
(1.48155 -1.65706e-05 0)
(1.48273 1.52073e-05 0)
(1.48383 -1.36914e-05 0)
(1.48483 1.24982e-05 0)
(1.48576 -1.11808e-05 0)
(1.48662 1.01489e-05 0)
(1.48741 -9.01686e-06 0)
(1.48814 8.13567e-06 0)
(1.48881 -7.17166e-06 0)
(1.48943 6.42705e-06 0)
(1.49 -5.61449e-06 0)
(1.49053 4.99186e-06 0)
(1.49101 -4.31251e-06 0)
(1.49146 3.79835e-06 0)
(1.49188 -3.2352e-06 0)
(1.49226 2.81373e-06 0)
(1.49261 -2.35198e-06 0)
(1.49294 2.01063e-06 0)
(1.49324 -1.6698e-06 0)
(1.49353 1.42733e-06 0)
(1.4938 -1.14764e-06 0)
(1.49405 9.50263e-07 0)
(1.49429 -7.23345e-07 0)
(1.49451 5.66417e-07 0)
(1.49471 -3.83158e-07 0)
(1.4949 2.59942e-07 0)
(1.49508 -1.16258e-07 0)
(1.49524 2.18499e-08 0)
(1.49539 8.95239e-08 0)
(1.49553 -1.58733e-07 0)
(1.49566 2.41212e-07 0)
(1.49578 -2.89203e-07 0)
(1.49589 3.48053e-07 0)
(1.49599 -3.77928e-07 0)
(1.49608 4.1587e-07 0)
(1.49616 -4.30833e-07 0)
(1.49624 4.53079e-07 0)
(1.4963 -4.53925e-07 0)
(1.49637 4.61016e-07 0)
(1.49642 -4.53008e-07 0)
(1.49647 4.48816e-07 0)
(1.49652 -4.32748e-07 0)
(1.49656 4.19648e-07 0)
(1.49659 -3.97312e-07 0)
(1.49663 3.77438e-07 0)
(1.49665 -3.50756e-07 0)
(1.49668 3.26142e-07 0)
(1.4967 -2.96529e-07 0)
(1.49672 2.68753e-07 0)
(1.49674 -2.37554e-07 0)
(1.49675 2.08099e-07 0)
(1.49677 -1.76465e-07 0)
(1.49678 1.46532e-07 0)
(1.49679 -1.15452e-07 0)
(1.4968 8.60562e-08 0)
(1.4968 -5.63048e-08 0)
(1.49681 2.82697e-08 0)
(1.49682 -4.91144e-10 0)
(1.49682 -2.55445e-08 0)
(1.49682 5.09167e-08 0)
(1.49683 -7.4427e-08 0)
(1.49683 9.70823e-08 0)
(1.49683 -1.17769e-07 0)
(1.49683 1.37483e-07 0)
(1.49684 -1.55335e-07 0)
(1.49684 1.7177e-07 0)
(1.49684 -1.8658e-07 0)
(1.49684 1.99932e-07 0)
(1.49684 -2.11712e-07 0)
(1.49684 2.22059e-07 0)
(1.49684 -2.3092e-07 0)
(1.49684 2.38418e-07 0)
(1.49684 -2.44537e-07 0)
(1.49684 2.49262e-07 0)
(1.49684 -2.52838e-07 0)
(1.49684 2.55244e-07 0)
(1.49684 -2.56513e-07 0)
(1.49684 2.56745e-07 0)
(1.49684 -2.55987e-07 0)
(1.49684 2.54336e-07 0)
(1.49684 -2.5184e-07 0)
(1.49684 2.48592e-07 0)
(1.49684 -2.44643e-07 0)
(1.49684 2.4008e-07 0)
(1.49684 -2.34956e-07 0)
(1.49684 2.29351e-07 0)
(1.49684 -2.23315e-07 0)
(1.49684 2.16924e-07 0)
(1.49684 -2.10225e-07 0)
(1.49684 2.03285e-07 0)
(1.49684 -1.96146e-07 0)
(1.49684 1.88871e-07 0)
(1.49684 -1.81494e-07 0)
(1.49684 1.74072e-07 0)
(1.49684 -1.66635e-07 0)
(1.49684 1.59229e-07 0)
(1.49684 -1.51881e-07 0)
(1.49684 1.4463e-07 0)
(1.49684 -1.37496e-07 0)
(1.49684 1.30512e-07 0)
(1.49684 -1.23693e-07 0)
(1.49684 1.17066e-07 0)
(1.49684 -1.1064e-07 0)
(1.49684 1.04437e-07 0)
(1.49684 -9.84609e-08 0)
(1.49684 9.27283e-08 0)
(1.49684 -8.72411e-08 0)
(1.49684 8.20093e-08 0)
(1.49684 -7.70324e-08 0)
(1.49684 7.23159e-08 0)
(1.49684 -6.7857e-08 0)
(1.49684 6.36574e-08 0)
(1.49684 -5.97126e-08 0)
(1.49684 5.60208e-08 0)
(1.49684 -5.25764e-08 0)
(1.49684 4.93752e-08 0)
(1.49684 -4.64103e-08 0)
(1.49684 4.3676e-08 0)
(1.49684 -4.11644e-08 0)
(1.49684 3.8869e-08 0)
(1.49684 -3.67813e-08 0)
(1.49684 3.4894e-08 0)
(1.49684 -3.31986e-08 0)
(1.49684 3.16876e-08 0)
(1.49684 -3.03527e-08 0)
(1.49684 2.91866e-08 0)
(1.49684 -2.81812e-08 0)
(1.49684 2.389e-08 0)
(1.49684 -2.26232e-08 0)
(1.49684 2.14863e-08 0)
(1.49684 -2.04671e-08 0)
(1.49684 1.95547e-08 0)
(1.49684 -1.8738e-08 0)
(1.49684 1.80075e-08 0)
(1.49684 -1.73537e-08 0)
(1.49684 1.67682e-08 0)
(1.49684 -1.62429e-08 0)
(1.49684 1.57566e-08 0)
(1.49684 -1.52962e-08 0)
(1.49684 1.48612e-08 0)
(1.49684 -1.44508e-08 0)
(1.49684 1.40643e-08 0)
(1.49684 -1.37004e-08 0)
(1.49684 1.3358e-08 0)
(1.49684 -1.30357e-08 0)
(1.49684 1.27318e-08 0)
(1.49684 -1.24444e-08 0)
(1.49684 1.21718e-08 0)
(1.49684 -1.19118e-08 0)
(1.49684 1.16625e-08 0)
(1.49684 -1.1422e-08 0)
(1.49684 1.11887e-08 0)
(1.49684 -1.09612e-08 0)
(1.49684 1.07379e-08 0)
(1.49684 -1.05185e-08 0)
(1.49684 1.03015e-08 0)
(1.49684 -1.00875e-08 0)
(1.49684 9.87493e-09 0)
(1.49684 -9.6655e-09 0)
(1.49684 9.45702e-09 0)
(1.49684 -9.2526e-09 0)
(1.49684 9.0489e-09 0)
(1.49684 -8.85079e-09 0)
(1.49684 8.65334e-09 0)
(1.49684 -8.46341e-09 0)
(1.49684 8.27427e-09 0)
(1.49684 -8.09488e-09 0)
(1.49684 7.91671e-09 0)
(1.49684 -7.75073e-09 0)
(1.49684 7.5866e-09 0)
(1.49684 -7.43751e-09 0)
(1.49684 7.29138e-09 0)
(1.49684 -7.16371e-09 0)
(1.49684 7.04114e-09 0)
(1.49684 -6.94184e-09 0)
(1.49684 6.85233e-09 0)
(1.49684 -6.79524e-09 0)
)
;

boundaryField
{
    inandouthalf11
    {
        type            cyclic;
    }
    inandouthalf12
    {
        type            cyclic;
    }
    inandouthalf21
    {
        type            cyclic;
    }
    inandouthalf22
    {
        type            cyclic;
    }
    inandouthalf31
    {
        type            cyclic;
    }
    inandouthalf32
    {
        type            cyclic;
    }
    inandouthalf41
    {
        type            cyclic;
    }
    inandouthalf42
    {
        type            cyclic;
    }
    top
    {
        type            symmetryPlane;
    }
    walls
    {
        type            fixedValue;
        value           uniform (0 0 0);
    }
    frontAndBackPlanes
    {
        type            empty;
    }
}


// ************************************************************************* //
