/*--------------------------------*- C++ -*----------------------------------*\
| =========                 |                                                 |
| \\      /  F ield         | OpenFOAM: The Open Source CFD Toolbox           |
|  \\    /   O peration     | Version:  2.4.x                                 |
|   \\  /    A nd           | Web:      www.OpenFOAM.org                      |
|    \\/     M anipulation  |                                                 |
\*---------------------------------------------------------------------------*/
FoamFile
{
    version     2.0;
    format      ascii;
    class       volVectorField;
    location    "1";
    object      gradPs;
}
// * * * * * * * * * * * * * * * * * * * * * * * * * * * * * * * * * * * * * //

dimensions      [0 1 -2 0 0 0 0];

internalField   nonuniform List<vector> 
360
(
(0 9.82915e-26 0)
(0 -1.76833e-21 0)
(0 -1.76843e-21 0)
(0 3.83369e-29 0)
(-1.45436e-32 -1.76841e-21 0)
(-2.90872e-32 -1.76841e-21 0)
(-1.45436e-32 -1.76839e-21 0)
(0 -1.76839e-21 0)
(-1.45436e-32 -1.76837e-21 0)
(0 -3.53673e-21 0)
(-1.45437e-32 -1.76836e-21 0)
(0 -1.76834e-21 0)
(-2.90874e-32 -3.53666e-21 0)
(0 -3.53663e-21 0)
(0 -3.53659e-21 0)
(0 -3.53656e-21 0)
(0 -3.53652e-21 0)
(-1.45438e-32 -3.53649e-21 0)
(0 -5.30465e-21 0)
(0 -5.3046e-21 0)
(0 -5.30449e-21 0)
(-1.4544e-32 -7.07256e-21 0)
(0 -7.07242e-21 0)
(0 -7.07228e-21 0)
(0 -7.07214e-21 0)
(-2.90883e-32 -7.072e-21 0)
(0 -8.83977e-21 0)
(0 -1.06075e-20 0)
(0 -1.06072e-20 0)
(0 -1.06068e-20 0)
(0 -1.23742e-20 0)
(0 -1.23739e-20 0)
(0 -1.41409e-20 0)
(0 -1.5908e-20 0)
(0 -1.59072e-20 0)
(1.4545e-32 -1.76739e-20 0)
(0 -1.94402e-20 0)
(0 -2.29734e-20 0)
(0 -2.29721e-20 0)
(0 -2.47373e-20 0)
(0 -2.82692e-20 0)
(0 -2.8267e-20 0)
(1.45461e-32 -3.17975e-20 0)
(0 -3.53275e-20 0)
(0 -3.709e-20 0)
(0 -4.06179e-20 0)
(0 -4.23791e-20 0)
(0 -4.59048e-20 0)
(0 -5.29597e-20 0)
(0 -5.64821e-20 0)
(2.90971e-32 -6.0002e-20 0)
(0 -6.52851e-20 0)
(0 -7.05648e-20 0)
(0 -7.58418e-20 0)
(0 -8.28779e-20 0)
(0 -8.99102e-20 0)
(0 -9.69359e-20 0)
(0 -1.05719e-19 0)
(0 -1.12732e-19 0)
(0 -1.23259e-19 0)
(0 -1.33777e-19 0)
(0 -1.44281e-19 0)
(0 -1.56532e-19 0)
(0 -1.68766e-19 0)
(0 -1.82739e-19 0)
(0 -1.98446e-19 0)
(0 -2.15882e-19 0)
(0 -2.33286e-19 0)
(0 -2.50655e-19 0)
(0 -2.71488e-19 0)
(0 -2.95773e-19 0)
(0 -3.18251e-19 0)
(0 -3.44155e-19 0)
(0 -3.73476e-19 0)
(0 -4.04443e-19 0)
(0 -4.37047e-19 0)
(0 -4.71262e-19 0)
(0 -5.10547e-19 0)
(0 -5.53124e-19 0)
(0 -5.9723e-19 0)
(0 9.8287e-19 0)
(0 3.12562e-17 0)
(0 1.05517e-16 0)
(0 6.90553e-17 0)
(0 -5.54215e-17 0)
(0 -7.23435e-17 0)
(0 -3.08827e-17 0)
(0 -8.20273e-18 0)
(0 1.77082e-18 0)
(0 6.2025e-18 0)
(0 6.85381e-18 0)
(0 4.98035e-18 0)
(0 2.7582e-18 0)
(0 1.91788e-18 0)
(0 2.70881e-18 0)
(0 4.42287e-18 0)
(0 6.25245e-18 0)
(0 7.68629e-18 0)
(0 8.56542e-18 0)
(0 -2.20077e-16 0)
(0 -2.24549e-16 0)
(0 0 0)
(0 0 0)
(0 0 0)
(0 0 0)
(0 0 0)
(0 0 0)
(0 0 0)
(0 0 0)
(0 0 0)
(0 0 0)
(0 0 0)
(0 0 0)
(0 0 0)
(0 4.14492e-16 0)
(0 4.55442e-16 0)
(0 9.54852e-17 0)
(0 1.3238e-16 0)
(0 1.92436e-16 0)
(0 2.79195e-16 0)
(0 3.69591e-16 0)
(0 3.91346e-16 0)
(0 2.80756e-16 0)
(0 1.55566e-16 0)
(0 4.51211e-16 0)
(0 3.15075e-15 0)
(0 4.91379e-14 0)
(0 2.45428e-11 0)
(0 2.18599e-07 0)
(0 0.000309117 0)
(0 0.0377158 0)
(0 0.64002 0)
(0 2.29828 0)
(0 2.86117 0)
(0 1.43334 0)
(0 0.163793 0)
(0 -0.453075 0)
(0 -1.51245 0)
(0 -2.21875 0)
(0 -1.86902 0)
(0 -1.29855 0)
(0 -0.527254 0)
(0 -0.0626375 0)
(0 -0.00160625 0)
(0 -6.22228e-06 0)
(0 1.53337e-05 0)
(0 2.28974e-05 0)
(0 3.61732e-05 0)
(0 0.000122957 0)
(0 0.00100489 0)
(0 0.00854199 0)
(0 0.0700984 0)
(0 0.0735496 0)
(0 -0.106023 0)
(0 -4.30777 0)
(0 -1.86588 0)
(0 -0.449696 0)
(0 -0.445824 0)
(0 -0.534683 0)
(0 -0.493795 0)
(0 -0.494323 0)
(0 -0.532731 0)
(0 -0.475229 0)
(0 -0.465437 0)
(0 -0.420267 0)
(0 -0.457916 0)
(0 -0.363627 0)
(0 -0.371323 0)
(0 -0.346939 0)
(0 -0.30979 0)
(0 -0.306021 0)
(0 -0.271926 0)
(0 -0.26929 0)
(0 -0.233703 0)
(0 -0.230011 0)
(0 -0.211471 0)
(0 -0.211116 0)
(0 -0.168909 0)
(0 -0.187299 0)
(0 -0.161813 0)
(0 -0.151584 0)
(0 -0.146212 0)
(0 -0.133194 0)
(0 -0.134337 0)
(0 -0.118347 0)
(0 -0.114253 0)
(0 -0.102843 0)
(0 -0.108999 0)
(0 -0.0961143 0)
(0 -0.0861119 0)
(0 -0.0821547 0)
(0 -0.0937426 0)
(0 -0.0682171 0)
(0 -0.0695184 0)
(0 -0.0805723 0)
(0 -0.0593417 0)
(0 -0.0587913 0)
(0 -0.0662116 0)
(0 -0.0498233 0)
(0 -0.0537699 0)
(0 -0.0547553 0)
(0 -0.0462056 0)
(-2.14166e-17 -0.0416658 0)
(0 -0.0402661 0)
(0 -0.0486619 0)
(1.18646e-17 -0.0345502 0)
(0 -0.0302193 0)
(-1.24083e-17 -0.0393796 0)
(0 -0.0321658 0)
(1.3141e-17 -0.0231312 0)
(0 -0.0301429 0)
(0 -0.027626 0)
(0 -0.0199119 0)
(1.44431e-17 -0.0228011 0)
(0 -0.0193383 0)
(0 -0.0176071 0)
(0 -0.0169906 0)
(0 -0.0148548 0)
(0 -0.0139713 0)
(-3.93544e-18 -0.0116371 0)
(0 -0.0108369 0)
(-3.98094e-18 -0.00975189 0)
(0 -0.00936557 0)
(-4.01385e-18 -0.00762793 0)
(0 -0.00672945 0)
(0 -0.00558787 0)
(0 -0.005548 0)
(0 -0.00492532 0)
(0 -0.00405968 0)
(1.95823e-18 -0.0026029 0)
(0 -0.00330628 0)
(0 -0.00292272 0)
(0 -0.00173749 0)
(0 -0.00179761 0)
(0 -0.00171786 0)
(0 -0.00112889 0)
(0 -0.00112126 0)
(0 -0.000938075 0)
(0 -0.000688353 0)
(0 -0.000594581 0)
(0 -0.000512348 0)
(0 -0.00044728 0)
(0 -0.000285618 0)
(-9.95419e-20 -0.000277179 0)
(0 -0.000202012 0)
(0 -0.000158823 0)
(0 -0.000138472 0)
(-4.61335e-20 -0.000103464 0)
(0 -8.11073e-05 0)
(0 -5.38692e-05 0)
(-1.08783e-20 -4.8962e-05 0)
(0 -3.65952e-05 0)
(0 -2.56582e-05 0)
(0 -2.45621e-05 0)
(0 -1.42792e-05 0)
(0 0 0)
(0 0 0)
(0 0 0)
(0 0 0)
(0 0 0)
(0 0 0)
(0 0 0)
(0 0 0)
(0 0 0)
(0 0 0)
(0 0 0)
(0 0 0)
(0 0 0)
(0 0 0)
(0 0 0)
(0 0 0)
(0 0 0)
(0 0 0)
(0 0 0)
(0 0 0)
(0 0 0)
(0 0 0)
(0 0 0)
(0 0 0)
(0 0 0)
(0 0 0)
(0 0 0)
(0 0 0)
(0 0 0)
(0 0 0)
(0 0 0)
(0 0 0)
(0 0 0)
(0 0 0)
(0 0 0)
(0 0 0)
(0 0 0)
(0 0 0)
(0 0 0)
(0 0 0)
(0 0 0)
(0 0 0)
(0 0 0)
(0 0 0)
(0 0 0)
(0 0 0)
(0 0 0)
(0 0 0)
(0 0 0)
(0 0 0)
(0 0 0)
(0 0 0)
(0 0 0)
(0 0 0)
(0 0 0)
(0 0 0)
(0 0 0)
(0 0 0)
(0 0 0)
(0 0 0)
(0 0 0)
(0 0 0)
(0 0 0)
(0 0 0)
(0 0 0)
(0 0 0)
(0 0 0)
(0 0 0)
(0 0 0)
(0 0 0)
(0 0 0)
(0 0 0)
(0 0 0)
(0 0 0)
(0 0 0)
(0 0 0)
(0 0 0)
(0 0 0)
(0 0 0)
(0 0 0)
(0 0 0)
(0 0 0)
(0 0 0)
(0 0 0)
(0 0 0)
(0 0 0)
(0 0 0)
(0 0 0)
(0 0 0)
(0 0 0)
(0 0 0)
(0 0 0)
(0 0 0)
(0 0 0)
(0 0 0)
(0 0 0)
(0 0 0)
(0 0 0)
(0 0 0)
(0 0 0)
(0 0 0)
(0 0 0)
(0 0 0)
(0 0 0)
(0 0 0)
)
;

boundaryField
{
    inandouthalf11
    {
        type            cyclic;
    }
    inandouthalf12
    {
        type            cyclic;
    }
    inandouthalf21
    {
        type            cyclic;
    }
    inandouthalf22
    {
        type            cyclic;
    }
    inandouthalf31
    {
        type            cyclic;
    }
    inandouthalf32
    {
        type            cyclic;
    }
    inandouthalf41
    {
        type            cyclic;
    }
    inandouthalf42
    {
        type            cyclic;
    }
    top
    {
        type            symmetryPlane;
    }
    walls
    {
        type            calculated;
        value           uniform (0 0 0);
    }
    frontAndBackPlanes
    {
        type            empty;
    }
}


// ************************************************************************* //
