/*--------------------------------*- C++ -*----------------------------------*\
| =========                 |                                                 |
| \\      /  F ield         | OpenFOAM: The Open Source CFD Toolbox           |
|  \\    /   O peration     | Version:  2.4.x                                 |
|   \\  /    A nd           | Web:      www.OpenFOAM.org                      |
|    \\/     M anipulation  |                                                 |
\*---------------------------------------------------------------------------*/
FoamFile
{
    version     2.0;
    format      ascii;
    class       volScalarField;
    location    "1";
    object      mua;
}
// * * * * * * * * * * * * * * * * * * * * * * * * * * * * * * * * * * * * * //

dimensions      [1 -1 -1 0 0 0 0];

internalField   nonuniform List<scalar> 
360
(
2.19636e+34
6.58746e+36
7.6418e+36
7.58857e+36
7.55128e+36
7.49799e+36
7.44342e+36
7.38628e+36
7.33167e+36
7.27539e+36
7.22018e+36
7.16867e+36
7.11577e+36
7.0635e+36
7.01241e+36
6.96247e+36
6.91365e+36
6.86592e+36
6.81866e+36
6.77002e+36
6.7243e+36
6.67716e+36
6.63046e+36
6.58474e+36
6.53997e+36
6.49611e+36
6.45258e+36
6.40705e+36
6.36189e+36
6.31763e+36
6.27369e+36
6.22836e+36
6.18506e+36
6.13815e+36
6.09329e+36
6.0471e+36
6.00072e+36
5.952e+36
5.90156e+36
5.85318e+36
5.80097e+36
5.74873e+36
5.69645e+36
5.63998e+36
5.58304e+36
5.52413e+36
5.46332e+36
5.40213e+36
5.33598e+36
5.26503e+36
5.19337e+36
5.11766e+36
5.03885e+36
4.95566e+36
4.86898e+36
4.7757e+36
4.67863e+36
4.57476e+36
4.46564e+36
4.35074e+36
4.22692e+36
4.09662e+36
3.95767e+36
3.81045e+36
3.65461e+36
3.48806e+36
3.3115e+36
3.12182e+36
2.92516e+36
2.7127e+36
2.49389e+36
2.25183e+36
2.01216e+36
1.71899e+36
1.41278e+36
1.00895e+36
5.59986e+35
1.15903e+35
6.89934e+33
2.75713e+30
7.26984e+13
95687.9
21714.6
12796.3
13250.4
17512.5
22590.3
25360.6
25017.2
22998.9
20878.6
19339.8
18370.6
17685.7
17003.9
16183.6
15232.4
14233.7
13267.8
12376.5
11567.2
10829
10147.7
9512.25
8914.76
8348.85
7808.56
7288.59
6784.98
6295.55
5819.86
5358.99
4915.16
4491.03
4088.58
3707.69
3345.17
2995.53
2654.51
2324.55
2018.68
1757.84
1559.93
1423.87
1311.32
1137.24
820.729
420.862
130.131
21.7955
2.48657
0.40864
0.140911
0.0874837
0.0696073
0.0576826
0.0467007
0.0360076
0.0249103
0.01771
0.0103491
0.00319009
0.000486112
0.000100287
8.77943e-05
9.17506e-05
9.32525e-05
0.000100647
0.000107195
0.000143644
0.000314587
0.00084622
0.00261651
0.00137055
0.00211006
0.00267782
0.00294199
0.00307067
0.00312459
0.00313196
0.00310818
0.00306529
0.00300939
0.00294616
0.00287824
0.00280882
0.0027388
0.00266929
0.00260124
0.00253476
0.00247049
0.00240831
0.00234863
0.00229123
0.00223636
0.00218382
0.00213378
0.00208598
0.00204049
0.00199726
0.00195612
0.00191711
0.00188005
0.00184498
0.00181171
0.00178026
0.00175045
0.00172231
0.00169569
0.00167055
0.00164676
0.00162433
0.00160314
0.00158309
0.00156418
0.0015463
0.00152938
0.00151339
0.00149824
0.00148388
0.00147027
0.00145721
0.00144456
0.00143228
0.00142039
0.00140886
0.00139764
0.00138673
0.00137613
0.00136577
0.00135566
0.00134577
0.00133607
0.00132652
0.00131712
0.00130782
0.0012986
0.00128944
0.00128031
0.00127116
0.001262
0.00125276
0.00124345
0.00123401
0.00122443
0.00121466
0.00120468
0.00119445
0.00118393
0.00117307
0.00116184
0.0011502
0.00113809
0.00112546
0.00111225
0.0010984
0.00108383
0.00106847
0.00105223
0.001035
0.00101666
0.000997085
0.000976083
0.000953454
0.000928945
0.000902233
0.000872912
0.00084044
0.000804067
0.000762722
0.000714791
0.000657584
0.000585933
0.000487207
0
0
0
0
0
0
0
0
0
0
0
0
0
0
0
0
0
0
0
0
0
0
0
0
0
0
0
0
0
0
0
0
0
0
0
0
0
0
0
0
0
0
0
0
0
0
0
0
0
0
0
0
0
0
0
0
0
0
0
0
0
0
0
0
0
0
0
0
0
0
0
0
0
0
0
0
0
0
0
0
0
0
0
0
0
0
0
0
0
0
0
0
0
0
0
0
0
0
0
0
0
0
0
0
0
0
)
;

boundaryField
{
    inandouthalf11
    {
        type            cyclic;
    }
    inandouthalf12
    {
        type            cyclic;
    }
    inandouthalf21
    {
        type            cyclic;
    }
    inandouthalf22
    {
        type            cyclic;
    }
    inandouthalf31
    {
        type            cyclic;
    }
    inandouthalf32
    {
        type            cyclic;
    }
    inandouthalf41
    {
        type            cyclic;
    }
    inandouthalf42
    {
        type            cyclic;
    }
    top
    {
        type            symmetryPlane;
    }
    walls
    {
        type            calculated;
        value           uniform 1e+30;
    }
    frontAndBackPlanes
    {
        type            empty;
    }
}


// ************************************************************************* //
