/*--------------------------------*- C++ -*----------------------------------*\
| =========                 |                                                 |
| \\      /  F ield         | OpenFOAM: The Open Source CFD Toolbox           |
|  \\    /   O peration     | Version:  2.4.x                                 |
|   \\  /    A nd           | Web:      www.OpenFOAM.org                      |
|    \\/     M anipulation  |                                                 |
\*---------------------------------------------------------------------------*/
FoamFile
{
    version     2.0;
    format      ascii;
    class       volScalarField;
    location    "1";
    object      p;
}
// * * * * * * * * * * * * * * * * * * * * * * * * * * * * * * * * * * * * * //

dimensions      [1 -1 -2 0 0 0 0];

internalField   nonuniform List<scalar> 
360
(
4960.8
4955.89
4950.99
4946.08
4941.18
4936.27
4931.37
4926.46
4921.56
4916.65
4911.75
4906.84
4901.94
4897.03
4892.13
4887.22
4882.32
4877.41
4872.51
4867.6
4862.7
4857.79
4852.89
4847.98
4843.08
4838.17
4833.27
4828.36
4823.46
4818.55
4813.65
4808.74
4803.84
4798.93
4794.03
4789.12
4784.22
4779.31
4774.41
4769.5
4764.6
4759.69
4754.79
4749.88
4744.98
4740.07
4735.17
4730.26
4725.36
4720.45
4715.55
4710.64
4705.74
4700.83
4695.93
4691.02
4686.12
4681.21
4676.31
4671.4
4666.5
4661.59
4656.69
4651.78
4646.88
4641.97
4637.07
4632.16
4627.26
4622.35
4617.45
4612.54
4607.64
4602.73
4597.83
4592.92
4588.02
4583.11
4578.21
4573.3
4568.4
4563.49
4558.58
4553.67
4548.74
4543.8
4538.85
4533.89
4528.93
4523.95
4518.98
4513.99
4509
4504
4498.99
4493.98
4488.95
4483.92
4478.88
4473.83
4468.77
4463.71
4458.63
4453.54
4448.44
4443.33
4438.21
4433.08
4427.94
4422.78
4417.61
4412.43
4407.24
4402.04
4396.81
4391.58
4386.33
4381.06
4375.78
4370.48
4365.16
4359.83
4354.47
4349.1
4343.7
4338.29
4332.86
4327.41
4321.95
4316.46
4310.94
4305.36
4299.73
4294.02
4288.18
4282.22
4276.11
4269.71
4262.65
4254.75
4246.63
4238.06
4229.1
4220.13
4211.21
4202.33
4193.51
4184.72
4175.99
4167.31
4158.68
4150.13
4141.25
4132.75
4127.85
4122.56
4117.96
4112.8
4108.09
4103.02
4098.24
4093.23
4088.39
4083.43
4078.56
4073.63
4068.73
4063.83
4058.91
4054.02
4049.09
4044.21
4039.27
4034.4
4029.46
4024.58
4019.65
4014.77
4009.83
4004.96
4000.02
3995.14
3990.21
3985.33
3980.4
3975.52
3970.59
3965.71
3960.79
3955.89
3950.98
3946.08
3941.17
3936.27
3931.36
3926.46
3921.55
3916.65
3911.74
3906.84
3901.93
3896.98
3891.92
3886.76
3881.5
3876.13
3870.65
3865.06
3859.36
3853.54
3847.6
3841.54
3835.36
3829.06
3822.62
3816.06
3809.36
3802.53
3795.55
3788.44
3781.18
3773.78
3766.22
3758.51
3750.65
3742.62
3734.43
3726.08
3717.55
3708.86
3699.98
3690.93
3681.69
3672.27
3662.65
3652.84
3642.83
3632.61
3622.19
3611.56
3600.71
3589.64
3578.35
3566.83
3555.07
3543.08
3530.84
3518.35
3505.61
3492.61
3479.35
3465.82
3452.01
3437.92
3423.55
3408.88
3393.92
3378.66
3363.08
3347.19
3330.97
3314.43
3297.55
3280.33
3262.76
3244.83
3226.54
3207.87
3188.83
3169.4
3149.58
3129.35
3108.72
3087.66
3066.18
3044.26
3021.9
2999.08
2975.8
2952.05
2927.81
2903.09
2877.86
2852.12
2825.86
2799.06
2771.72
2743.82
2715.36
2686.32
2656.7
2626.47
2595.62
2564.15
2532.05
2499.29
2465.86
2431.76
2396.96
2361.46
2325.24
2288.28
2250.57
2212.1
2172.85
2132.8
2091.93
2050.24
2007.7
1964.3
1922.76
1883.52
1844.28
1805.04
1765.8
1726.56
1687.32
1648.08
1608.84
1569.6
1530.36
1491.12
1451.88
1412.64
1373.4
1334.16
1294.92
1255.68
1216.44
1177.2
1137.96
1098.72
1059.48
1020.24
981
941.76
902.52
863.28
824.04
784.8
745.56
706.32
667.08
627.84
588.6
549.36
510.12
470.88
431.64
392.4
353.16
313.92
274.68
235.44
196.2
156.96
117.72
78.48
39.24
-1.15945e-07
)
;

boundaryField
{
    inandouthalf11
    {
        type            cyclic;
    }
    inandouthalf12
    {
        type            cyclic;
    }
    inandouthalf21
    {
        type            cyclic;
    }
    inandouthalf22
    {
        type            cyclic;
    }
    inandouthalf31
    {
        type            cyclic;
    }
    inandouthalf32
    {
        type            cyclic;
    }
    inandouthalf41
    {
        type            cyclic;
    }
    inandouthalf42
    {
        type            cyclic;
    }
    top
    {
        type            symmetryPlane;
    }
    walls
    {
        type            slip;
    }
    frontAndBackPlanes
    {
        type            empty;
    }
}


// ************************************************************************* //
