/*--------------------------------*- C++ -*----------------------------------*\
| =========                 |                                                 |
| \\      /  F ield         | OpenFOAM: The Open Source CFD Toolbox           |
|  \\    /   O peration     | Version:  2.4.x                                 |
|   \\  /    A nd           | Web:      www.OpenFOAM.org                      |
|    \\/     M anipulation  |                                                 |
\*---------------------------------------------------------------------------*/
FoamFile
{
    version     2.0;
    format      ascii;
    class       volScalarField;
    location    "1";
    object      pa;
}
// * * * * * * * * * * * * * * * * * * * * * * * * * * * * * * * * * * * * * //

dimensions      [1 -1 -2 0 0 0 0];

internalField   nonuniform List<scalar> 
360
(
2.87809e-16
2.87809e-16
2.87806e-16
2.87806e-16
2.87806e-16
2.87803e-16
2.87803e-16
2.878e-16
2.878e-16
2.87798e-16
2.87795e-16
2.87795e-16
2.87792e-16
2.87789e-16
2.87786e-16
2.87783e-16
2.8778e-16
2.87778e-16
2.87775e-16
2.87769e-16
2.87766e-16
2.8776e-16
2.87755e-16
2.87749e-16
2.87743e-16
2.87738e-16
2.87732e-16
2.87723e-16
2.87715e-16
2.87706e-16
2.87698e-16
2.87686e-16
2.87678e-16
2.87663e-16
2.87652e-16
2.87638e-16
2.87623e-16
2.87606e-16
2.87586e-16
2.87569e-16
2.87546e-16
2.87523e-16
2.875e-16
2.87472e-16
2.87443e-16
2.87412e-16
2.87378e-16
2.87343e-16
2.87303e-16
2.87258e-16
2.87212e-16
2.87161e-16
2.87107e-16
2.87047e-16
2.86984e-16
2.86913e-16
2.86839e-16
2.86756e-16
2.86668e-16
2.86574e-16
2.86469e-16
2.86358e-16
2.86236e-16
2.86105e-16
2.85963e-16
2.8581e-16
2.85643e-16
2.85462e-16
2.85266e-16
2.85057e-16
2.84828e-16
2.8458e-16
2.84315e-16
2.84025e-16
2.83712e-16
2.83372e-16
2.83008e-16
2.82613e-16
2.82185e-16
2.81721e-16
2.81223e-16
2.83304e-16
3.31541e-16
4.53144e-16
4.42696e-16
3.63926e-16
3.26235e-16
3.14214e-16
3.13033e-16
3.17063e-16
3.23012e-16
3.28089e-16
3.31023e-16
3.32525e-16
3.34107e-16
3.3688e-16
3.41217e-16
3.4693e-16
3.5357e-16
3.60694e-16
0
0
0
0
0
0
0
0
0
0
0
0
0
0
0
6.63831e-16
7.2922e-16
8.16673e-16
9.41058e-16
1.12452e-15
1.38756e-15
1.7154e-15
2.01301e-15
2.16394e-15
2.26146e-15
2.88433e-15
7.29049e-15
8.12964e-14
3.91615e-11
3.48619e-07
0.000492703
0.0600699
1.0189
3.71222
5.55498
5.97809
5.81307
5.26751
3.46477
1.95005
0.728909
0.0840545
0.00220529
9.9111e-05
7.99056e-05
9.09778e-05
9.97444e-05
0.000120163
0.000145457
0.000272931
0.0013794
0.0106132
0.084789
0.102522
0.0173361
0.00737941
0.00623312
0.00549981
0.00472036
0.00399263
0.00354594
0.00293091
0.00257109
0.00213817
0.00189563
0.00157077
0.00135604
0.00118078
0.000990114
0.00087778
0.000736951
0.000655791
0.00055177
0.000492718
0.000418595
0.000375166
0.000316675
0.000284552
0.000248242
0.000214926
0.00019347
0.000166526
0.000151232
0.000129994
0.000117961
0.000102226
9.3591e-05
8.13085e-05
7.33991e-05
6.45517e-05
5.9581e-05
5.19204e-05
4.64126e-05
4.29774e-05
3.76655e-05
3.36579e-05
3.12547e-05
2.75497e-05
2.4887e-05
2.30299e-05
2.02047e-05
1.85984e-05
1.65593e-05
1.54648e-05
1.35503e-05
1.20196e-05
1.12051e-05
9.97931e-06
8.64034e-06
7.98681e-06
7.21728e-06
6.16917e-06
5.62928e-06
5.03416e-06
4.35317e-06
3.98595e-06
3.39895e-06
3.09421e-06
2.61794e-06
2.37945e-06
2.01956e-06
1.83299e-06
1.52362e-06
1.36516e-06
1.13916e-06
1.02951e-06
8.56484e-07
7.50301e-07
6.0574e-07
5.44462e-07
4.71406e-07
3.71876e-07
3.18599e-07
2.79727e-07
2.21488e-07
1.86285e-07
1.59087e-07
1.23132e-07
1.05757e-07
8.31173e-08
7.07763e-08
5.22707e-08
4.3548e-08
3.44897e-08
2.59805e-08
2.14849e-08
1.55097e-08
1.22229e-08
8.42789e-09
6.58763e-09
4.59572e-09
3.04147e-09
1.89333e-09
1.10965e-09
0
0
0
0
0
0
0
0
0
0
0
0
0
0
0
0
0
0
0
0
0
0
0
0
0
0
0
0
0
0
0
0
0
0
0
0
0
0
0
0
0
0
0
0
0
0
0
0
0
0
0
0
0
0
0
0
0
0
0
0
0
0
0
0
0
0
0
0
0
0
0
0
0
0
0
0
0
0
0
0
0
0
0
0
0
0
0
0
0
0
0
0
0
0
0
0
0
0
0
0
0
0
0
0
0
0
)
;

boundaryField
{
    inandouthalf11
    {
        type            cyclic;
    }
    inandouthalf12
    {
        type            cyclic;
    }
    inandouthalf21
    {
        type            cyclic;
    }
    inandouthalf22
    {
        type            cyclic;
    }
    inandouthalf31
    {
        type            cyclic;
    }
    inandouthalf32
    {
        type            cyclic;
    }
    inandouthalf41
    {
        type            cyclic;
    }
    inandouthalf42
    {
        type            cyclic;
    }
    top
    {
        type            symmetryPlane;
    }
    walls
    {
        type            calculated;
        value           uniform 2.87809e-16;
    }
    frontAndBackPlanes
    {
        type            empty;
    }
}


// ************************************************************************* //
