/*--------------------------------*- C++ -*----------------------------------*\
| =========                 |                                                 |
| \\      /  F ield         | OpenFOAM: The Open Source CFD Toolbox           |
|  \\    /   O peration     | Version:  2.4.x                                 |
|   \\  /    A nd           | Web:      www.OpenFOAM.org                      |
|    \\/     M anipulation  |                                                 |
\*---------------------------------------------------------------------------*/
FoamFile
{
    version     2.0;
    format      ascii;
    class       surfaceScalarField;
    location    "1";
    object      phia_0;
}
// * * * * * * * * * * * * * * * * * * * * * * * * * * * * * * * * * * * * * //

dimensions      [0 3 -1 0 0 0 0];

internalField   nonuniform List<scalar> 
359
(
-1.17305e-41
-1.1724e-41
-1.1724e-41
-1.17239e-41
-1.17239e-41
-1.17241e-41
-1.17245e-41
-1.17251e-41
-1.17258e-41
-1.17267e-41
-1.17278e-41
-1.1729e-41
-1.17303e-41
-1.17318e-41
-1.17335e-41
-1.17353e-41
-1.17372e-41
-1.17392e-41
-1.17414e-41
-1.17437e-41
-1.17461e-41
-1.17486e-41
-1.17513e-41
-1.1754e-41
-1.17569e-41
-1.17599e-41
-1.17629e-41
-1.17661e-41
-1.17694e-41
-1.17728e-41
-1.17763e-41
-1.17799e-41
-1.17836e-41
-1.17874e-41
-1.17914e-41
-1.17954e-41
-1.17996e-41
-1.18038e-41
-1.18083e-41
-1.18128e-41
-1.18175e-41
-1.18224e-41
-1.18274e-41
-1.18326e-41
-1.1838e-41
-1.18436e-41
-1.18494e-41
-1.18554e-41
-1.18617e-41
-1.18683e-41
-1.18752e-41
-1.18824e-41
-1.18901e-41
-1.18981e-41
-1.19066e-41
-1.19156e-41
-1.19252e-41
-1.19354e-41
-1.19464e-41
-1.19581e-41
-1.19707e-41
-1.19843e-41
-1.19991e-41
-1.20153e-41
-1.20329e-41
-1.20523e-41
-1.20738e-41
-1.20978e-41
-1.21247e-41
-1.21552e-41
-1.21901e-41
-1.22308e-41
-1.22784e-41
-1.23376e-41
-1.24136e-41
-1.25285e-41
-1.27513e-41
-1.3919e-41
-3.3551e-41
-4.76872e-38
-1.71283e-21
-1.24886e-12
-6.77189e-12
-1.60853e-11
-2.4952e-11
-3.15922e-11
-3.66439e-11
-4.10333e-11
-4.53715e-11
-4.99737e-11
-5.49191e-11
-6.01269e-11
-6.5474e-11
-7.08881e-11
-7.63729e-11
-8.19814e-11
-8.77758e-11
-9.3801e-11
-1.00077e-10
-1.06603e-10
-1.13371e-10
-1.20372e-10
-1.27598e-10
-1.35046e-10
-1.42716e-10
-1.5061e-10
-1.58734e-10
-1.671e-10
-1.75723e-10
-1.84624e-10
-1.9383e-10
-2.03368e-10
-2.13266e-10
-2.23549e-10
-2.3424e-10
-2.45362e-10
-2.56945e-10
-2.69048e-10
-2.81761e-10
-2.95199e-10
-3.09431e-10
-3.24349e-10
-3.39523e-10
-3.54242e-10
-3.67889e-10
-3.80478e-10
-3.92963e-10
-4.07504e-10
-4.27472e-10
-4.55736e-10
-4.91145e-10
-5.3425e-10
-6.0444e-10
-7.08819e-10
-8.21639e-10
-9.61722e-10
-1.21917e-09
-2.07639e-09
-3.52583e-09
-4.07782e-09
-5.55137e-09
-7.48349e-09
-8.1768e-09
-8.59749e-09
-8.97816e-09
-9.41488e-09
-9.83754e-09
-1.03057e-08
-1.08478e-08
-1.13653e-08
-1.19884e-08
-1.17349e-08
-2.32264e-08
-3.20243e-08
-4.42062e-08
-5.99644e-08
-7.08374e-08
-7.90913e-08
-8.51599e-08
-9.0289e-08
-9.43508e-08
-9.80621e-08
-1.0121e-07
-1.04166e-07
-1.06761e-07
-1.0921e-07
-1.11455e-07
-1.13511e-07
-1.15458e-07
-1.17222e-07
-1.18906e-07
-1.20433e-07
-1.21894e-07
-1.23224e-07
-1.24494e-07
-1.25651e-07
-1.26761e-07
-1.27778e-07
-1.28741e-07
-1.29641e-07
-1.30482e-07
-1.31275e-07
-1.32015e-07
-1.32714e-07
-1.33369e-07
-1.33988e-07
-1.34567e-07
-1.35115e-07
-1.35631e-07
-1.36119e-07
-1.36576e-07
-1.3701e-07
-1.37422e-07
-1.37807e-07
-1.38174e-07
-1.38521e-07
-1.38847e-07
-1.39157e-07
-1.3945e-07
-1.39724e-07
-1.39985e-07
-1.40235e-07
-1.40477e-07
-1.40707e-07
-1.4093e-07
-1.41147e-07
-1.41353e-07
-1.41551e-07
-1.41746e-07
-1.41931e-07
-1.4211e-07
-1.42285e-07
-1.42454e-07
-1.42617e-07
-1.42776e-07
-1.42929e-07
-1.4308e-07
-1.43226e-07
-1.4337e-07
-1.4351e-07
-1.43648e-07
-1.43782e-07
-1.43915e-07
-1.44047e-07
-1.44178e-07
-1.44306e-07
-1.44434e-07
-1.44561e-07
-1.44692e-07
-1.4482e-07
-1.44946e-07
-1.45079e-07
-1.45212e-07
-1.45343e-07
-1.4548e-07
-1.45618e-07
-1.45759e-07
-1.45905e-07
-1.46055e-07
-1.46208e-07
-1.46365e-07
-1.46532e-07
-1.46704e-07
-1.46881e-07
-1.47066e-07
-1.47253e-07
-1.47447e-07
-1.47645e-07
-1.47848e-07
-1.48046e-07
-1.48237e-07
-1.48419e-07
-1.4858e-07
-1.4875e-07
-1.53406e-07
-1.58037e-07
-1.58038e-07
-1.58038e-07
-1.58038e-07
-1.58038e-07
-1.58038e-07
-1.58038e-07
-1.58038e-07
-1.58038e-07
-1.58038e-07
-1.58038e-07
-1.58038e-07
-1.58038e-07
-1.58038e-07
-1.58038e-07
-1.58038e-07
-1.58038e-07
-1.58038e-07
-1.58038e-07
-1.58038e-07
-1.58038e-07
-1.58038e-07
-1.58038e-07
-1.58038e-07
-1.58038e-07
-1.58038e-07
-1.58038e-07
-1.58038e-07
-1.58038e-07
-1.58038e-07
-1.58038e-07
-1.58038e-07
-1.58038e-07
-1.58038e-07
-1.58038e-07
-1.58038e-07
-1.58038e-07
-1.58038e-07
-1.58038e-07
-1.58038e-07
-1.58038e-07
-1.58038e-07
-1.58038e-07
-1.58038e-07
-1.58038e-07
-1.58038e-07
-1.58038e-07
-1.58038e-07
-1.58038e-07
-1.58038e-07
-1.58038e-07
-1.58038e-07
-1.58038e-07
-1.58038e-07
-1.58038e-07
-1.58038e-07
-1.58038e-07
-1.58038e-07
-1.58038e-07
-1.58038e-07
-1.58038e-07
-1.58038e-07
-1.58038e-07
-1.58038e-07
-1.58038e-07
-1.58038e-07
-1.58038e-07
-1.58038e-07
-1.58038e-07
-1.58038e-07
-1.58038e-07
-1.58038e-07
-1.58038e-07
-1.58038e-07
-1.58038e-07
-1.58038e-07
-1.58038e-07
-1.58038e-07
-1.58038e-07
-1.58038e-07
-1.58038e-07
-1.58038e-07
-1.58038e-07
-1.58038e-07
-1.58038e-07
-1.58038e-07
-1.58038e-07
-1.58038e-07
-1.58038e-07
-1.58038e-07
-1.58038e-07
-1.58038e-07
-1.58038e-07
-1.58038e-07
-1.58038e-07
-1.58038e-07
-1.58038e-07
-1.58038e-07
-1.58038e-07
-1.58038e-07
-1.58037e-07
-1.5802e-07
-1.57312e-07
-1.32352e-07
)
;

boundaryField
{
    inandouthalf11
    {
        type            cyclic;
        value           nonuniform List<scalar> 
100
(
-8.37902e-43
-8.37876e-43
-8.379e-43
-8.37979e-43
-8.38121e-43
-8.38323e-43
-8.38588e-43
-8.38915e-43
-8.39304e-43
-8.39757e-43
-8.40272e-43
-8.40851e-43
-8.41493e-43
-8.42199e-43
-8.42969e-43
-8.43803e-43
-8.44702e-43
-8.45665e-43
-8.46693e-43
-8.47786e-43
-8.48944e-43
-8.50167e-43
-8.51457e-43
-8.52812e-43
-8.54234e-43
-8.55722e-43
-8.57277e-43
-8.58898e-43
-8.60588e-43
-8.62345e-43
-8.64171e-43
-8.66065e-43
-8.68028e-43
-8.70061e-43
-8.72164e-43
-8.74338e-43
-8.76583e-43
-8.78901e-43
-8.81292e-43
-8.83758e-43
-8.86298e-43
-8.88916e-43
-8.9161e-43
-8.94384e-43
-8.97238e-43
-9.00175e-43
-9.03196e-43
-9.06303e-43
-9.09499e-43
-9.12787e-43
-9.16171e-43
-9.19654e-43
-9.2324e-43
-9.26933e-43
-9.30739e-43
-9.34664e-43
-9.38715e-43
-9.42902e-43
-9.47233e-43
-9.51718e-43
-9.56373e-43
-9.61211e-43
-9.66253e-43
-9.71519e-43
-9.77038e-43
-9.82838e-43
-9.8897e-43
-9.95469e-43
-1.00243e-42
-1.00988e-42
-1.01802e-42
-1.02687e-42
-1.03686e-42
-1.04799e-42
-1.06175e-42
-1.07866e-42
-1.10599e-42
-1.16269e-42
-1.51501e-42
-7.58112e-42
-1.45346e-38
-4.98587e-22
-3.51161e-13
-1.53339e-12
-3.08228e-12
-4.37765e-12
-5.35818e-12
-6.16684e-12
-6.92572e-12
-7.71089e-12
-8.55856e-12
-9.47121e-12
-1.04319e-11
-1.14236e-11
-1.24407e-11
-1.34895e-11
-1.45818e-11
-1.57297e-11
-1.69412e-11
-1.82203e-11
)
;
    }
    inandouthalf12
    {
        type            cyclic;
        value           nonuniform List<scalar> 
100
(
8.37902e-43
8.37876e-43
8.379e-43
8.37979e-43
8.38121e-43
8.38323e-43
8.38588e-43
8.38915e-43
8.39304e-43
8.39757e-43
8.40272e-43
8.40851e-43
8.41493e-43
8.42199e-43
8.42969e-43
8.43803e-43
8.44702e-43
8.45665e-43
8.46693e-43
8.47786e-43
8.48944e-43
8.50167e-43
8.51457e-43
8.52812e-43
8.54234e-43
8.55722e-43
8.57277e-43
8.58898e-43
8.60588e-43
8.62345e-43
8.64171e-43
8.66065e-43
8.68028e-43
8.70061e-43
8.72164e-43
8.74338e-43
8.76583e-43
8.78901e-43
8.81292e-43
8.83758e-43
8.86298e-43
8.88916e-43
8.9161e-43
8.94384e-43
8.97238e-43
9.00175e-43
9.03196e-43
9.06303e-43
9.09499e-43
9.12787e-43
9.16171e-43
9.19654e-43
9.2324e-43
9.26933e-43
9.30739e-43
9.34664e-43
9.38715e-43
9.42902e-43
9.47233e-43
9.51718e-43
9.56373e-43
9.61211e-43
9.66253e-43
9.71519e-43
9.77038e-43
9.82838e-43
9.8897e-43
9.95469e-43
1.00243e-42
1.00988e-42
1.01802e-42
1.02687e-42
1.03686e-42
1.04799e-42
1.06175e-42
1.07866e-42
1.10599e-42
1.16269e-42
1.51501e-42
7.58112e-42
1.45346e-38
4.98587e-22
3.51161e-13
1.53339e-12
3.08228e-12
4.37765e-12
5.35818e-12
6.16684e-12
6.92572e-12
7.71089e-12
8.55856e-12
9.47121e-12
1.04319e-11
1.14236e-11
1.24407e-11
1.34895e-11
1.45818e-11
1.57297e-11
1.69412e-11
1.82203e-11
)
;
    }
    inandouthalf21
    {
        type            cyclic;
        value           nonuniform List<scalar> 
100
(
-1.95683e-11
-2.09858e-11
-2.24736e-11
-2.40335e-11
-2.56683e-11
-2.73818e-11
-2.9179e-11
-3.10665e-11
-3.3053e-11
-3.51491e-11
-3.73679e-11
-3.97248e-11
-4.22372e-11
-4.49247e-11
-4.7809e-11
-5.09149e-11
-5.42727e-11
-5.79239e-11
-6.19276e-11
-6.6365e-11
-7.1331e-11
-7.69037e-11
-8.30897e-11
-8.97939e-11
-9.69169e-11
-1.04663e-10
-1.14088e-10
-1.28544e-10
-1.60188e-10
-2.71791e-10
-9.50811e-10
-6.4693e-09
-3.41703e-08
-9.49944e-08
-1.72237e-07
-2.53083e-07
-3.34277e-07
-4.15349e-07
-4.96571e-07
-5.72287e-07
-6.35528e-07
-6.80845e-07
-6.9862e-07
-7.05626e-07
-7.12061e-07
-7.18766e-07
-7.25869e-07
-7.33247e-07
-7.41251e-07
-7.49807e-07
-7.60883e-07
-7.79524e-07
-8.10814e-07
-8.55626e-07
-8.965e-07
-9.28019e-07
-9.54954e-07
-9.78436e-07
-9.99158e-07
-1.01751e-06
-1.03378e-06
-1.0481e-06
-1.06075e-06
-1.07191e-06
-1.08179e-06
-1.09054e-06
-1.09835e-06
-1.10533e-06
-1.1116e-06
-1.11724e-06
-1.12233e-06
-1.12694e-06
-1.13111e-06
-1.1349e-06
-1.13834e-06
-1.14147e-06
-1.14432e-06
-1.14691e-06
-1.14927e-06
-1.15142e-06
-1.15337e-06
-1.15515e-06
-1.15677e-06
-1.15824e-06
-1.15958e-06
-1.16079e-06
-1.16189e-06
-1.16289e-06
-1.16379e-06
-1.16462e-06
-1.16536e-06
-1.16603e-06
-1.16664e-06
-1.1672e-06
-1.1677e-06
-1.16816e-06
-1.16858e-06
-1.16896e-06
-1.16931e-06
-1.16964e-06
)
;
    }
    inandouthalf22
    {
        type            cyclic;
        value           nonuniform List<scalar> 
100
(
1.95683e-11
2.09858e-11
2.24736e-11
2.40335e-11
2.56683e-11
2.73818e-11
2.9179e-11
3.10665e-11
3.3053e-11
3.51491e-11
3.73679e-11
3.97248e-11
4.22372e-11
4.49247e-11
4.7809e-11
5.09149e-11
5.42727e-11
5.79239e-11
6.19276e-11
6.6365e-11
7.1331e-11
7.69037e-11
8.30897e-11
8.97939e-11
9.69169e-11
1.04663e-10
1.14088e-10
1.28544e-10
1.60188e-10
2.71791e-10
9.50811e-10
6.4693e-09
3.41703e-08
9.49944e-08
1.72237e-07
2.53083e-07
3.34277e-07
4.15349e-07
4.96571e-07
5.72287e-07
6.35528e-07
6.80845e-07
6.9862e-07
7.05626e-07
7.12061e-07
7.18766e-07
7.25869e-07
7.33247e-07
7.41251e-07
7.49807e-07
7.60883e-07
7.79524e-07
8.10814e-07
8.55626e-07
8.965e-07
9.28019e-07
9.54954e-07
9.78436e-07
9.99158e-07
1.01751e-06
1.03378e-06
1.0481e-06
1.06075e-06
1.07191e-06
1.08179e-06
1.09054e-06
1.09835e-06
1.10533e-06
1.1116e-06
1.11724e-06
1.12233e-06
1.12694e-06
1.13111e-06
1.1349e-06
1.13834e-06
1.14147e-06
1.14432e-06
1.14691e-06
1.14927e-06
1.15142e-06
1.15337e-06
1.15515e-06
1.15677e-06
1.15824e-06
1.15958e-06
1.16079e-06
1.16189e-06
1.16289e-06
1.16379e-06
1.16462e-06
1.16536e-06
1.16603e-06
1.16664e-06
1.1672e-06
1.1677e-06
1.16816e-06
1.16858e-06
1.16896e-06
1.16931e-06
1.16964e-06
)
;
    }
    inandouthalf31
    {
        type            cyclic;
        value           nonuniform List<scalar> 
110
(
-1.16995e-06
-1.194e-06
-1.21853e-06
-1.24355e-06
-1.26907e-06
-1.29512e-06
-1.32169e-06
-1.34879e-06
-1.37645e-06
-1.40466e-06
-1.43345e-06
-1.46283e-06
-1.49281e-06
-1.5234e-06
-1.55462e-06
-1.58647e-06
-1.61898e-06
-1.65217e-06
-1.68603e-06
-1.7206e-06
-1.75588e-06
-1.79189e-06
-1.82865e-06
-1.86618e-06
-1.90449e-06
-1.9436e-06
-1.98353e-06
-2.02429e-06
-2.06592e-06
-2.10843e-06
-2.15181e-06
-2.19612e-06
-2.24139e-06
-2.2876e-06
-2.33478e-06
-2.38299e-06
-2.43222e-06
-2.4825e-06
-2.53387e-06
-2.58634e-06
-2.63993e-06
-2.69469e-06
-2.75066e-06
-2.80782e-06
-2.86625e-06
-2.92594e-06
-2.98692e-06
-3.04923e-06
-3.1129e-06
-3.17795e-06
-3.24431e-06
-3.31205e-06
-3.38113e-06
-3.45147e-06
-3.52383e-06
-3.6513e-06
-3.72541e-06
-3.80103e-06
-3.87818e-06
-3.9569e-06
-4.03721e-06
-4.11916e-06
-4.20276e-06
-4.28807e-06
-4.37511e-06
-4.46391e-06
-4.55451e-06
-4.64696e-06
-4.74128e-06
-4.83752e-06
-4.9357e-06
-5.03589e-06
-5.1381e-06
-5.24239e-06
-5.3488e-06
-5.45736e-06
-5.56813e-06
-5.68115e-06
-5.79646e-06
-5.91412e-06
-6.03416e-06
-6.15663e-06
-6.2816e-06
-6.4091e-06
-6.53918e-06
-6.67191e-06
-6.80733e-06
-6.94551e-06
-7.08648e-06
-7.23032e-06
-7.37707e-06
-7.52681e-06
-7.67958e-06
-7.83546e-06
-7.9945e-06
-8.15676e-06
-8.32232e-06
-8.49125e-06
-8.6636e-06
-8.83944e-06
-9.01886e-06
-9.20192e-06
-9.38869e-06
-9.57926e-06
-9.77369e-06
-9.97207e-06
-1.01745e-05
-1.0381e-05
-1.05917e-05
-1.08067e-05
)
;
    }
    inandouthalf32
    {
        type            cyclic;
        value           nonuniform List<scalar> 
110
(
1.16995e-06
1.194e-06
1.21853e-06
1.24355e-06
1.26907e-06
1.29512e-06
1.32169e-06
1.34879e-06
1.37645e-06
1.40466e-06
1.43345e-06
1.46283e-06
1.49281e-06
1.5234e-06
1.55462e-06
1.58647e-06
1.61898e-06
1.65217e-06
1.68603e-06
1.7206e-06
1.75588e-06
1.79189e-06
1.82865e-06
1.86618e-06
1.90449e-06
1.9436e-06
1.98353e-06
2.02429e-06
2.06592e-06
2.10843e-06
2.15181e-06
2.19612e-06
2.24139e-06
2.2876e-06
2.33478e-06
2.38299e-06
2.43222e-06
2.4825e-06
2.53387e-06
2.58634e-06
2.63993e-06
2.69469e-06
2.75066e-06
2.80782e-06
2.86625e-06
2.92594e-06
2.98692e-06
3.04923e-06
3.1129e-06
3.17795e-06
3.24431e-06
3.31205e-06
3.38113e-06
3.45147e-06
3.52383e-06
3.6513e-06
3.72541e-06
3.80103e-06
3.87818e-06
3.9569e-06
4.03721e-06
4.11916e-06
4.20276e-06
4.28807e-06
4.37511e-06
4.46391e-06
4.55451e-06
4.64696e-06
4.74128e-06
4.83752e-06
4.9357e-06
5.03589e-06
5.1381e-06
5.24239e-06
5.3488e-06
5.45736e-06
5.56813e-06
5.68115e-06
5.79646e-06
5.91412e-06
6.03416e-06
6.15663e-06
6.2816e-06
6.4091e-06
6.53918e-06
6.67191e-06
6.80733e-06
6.94551e-06
7.08648e-06
7.23032e-06
7.37707e-06
7.52681e-06
7.67958e-06
7.83546e-06
7.9945e-06
8.15676e-06
8.32232e-06
8.49125e-06
8.6636e-06
8.83944e-06
9.01886e-06
9.20192e-06
9.38869e-06
9.57926e-06
9.77369e-06
9.97207e-06
1.01745e-05
1.0381e-05
1.05917e-05
1.08067e-05
)
;
    }
    inandouthalf41
    {
        type            cyclic;
        value           nonuniform List<scalar> 
50
(
-9.67308e-06
-9.67308e-06
-9.67308e-06
-9.67308e-06
-9.67308e-06
-9.67308e-06
-9.67308e-06
-9.67308e-06
-9.67308e-06
-9.67308e-06
-9.67308e-06
-9.67308e-06
-9.67308e-06
-9.67308e-06
-9.67308e-06
-9.67308e-06
-9.67308e-06
-9.67308e-06
-9.67308e-06
-9.67308e-06
-9.67308e-06
-9.67308e-06
-9.67308e-06
-9.67308e-06
-9.67308e-06
-9.67308e-06
-9.67308e-06
-9.67308e-06
-9.67308e-06
-9.67308e-06
-9.67308e-06
-9.67308e-06
-9.67308e-06
-9.67308e-06
-9.67308e-06
-9.67308e-06
-9.67308e-06
-9.67308e-06
-9.67308e-06
-9.67308e-06
-9.67308e-06
-9.67308e-06
-9.67308e-06
-9.67308e-06
-9.67308e-06
-9.67308e-06
-9.67308e-06
-9.67307e-06
-9.67287e-06
-9.66811e-06
)
;
    }
    inandouthalf42
    {
        type            cyclic;
        value           nonuniform List<scalar> 
50
(
9.67308e-06
9.67308e-06
9.67308e-06
9.67308e-06
9.67308e-06
9.67308e-06
9.67308e-06
9.67308e-06
9.67308e-06
9.67308e-06
9.67308e-06
9.67308e-06
9.67308e-06
9.67308e-06
9.67308e-06
9.67308e-06
9.67308e-06
9.67308e-06
9.67308e-06
9.67308e-06
9.67308e-06
9.67308e-06
9.67308e-06
9.67308e-06
9.67308e-06
9.67308e-06
9.67308e-06
9.67308e-06
9.67308e-06
9.67308e-06
9.67308e-06
9.67308e-06
9.67308e-06
9.67308e-06
9.67308e-06
9.67308e-06
9.67308e-06
9.67308e-06
9.67308e-06
9.67308e-06
9.67308e-06
9.67308e-06
9.67308e-06
9.67308e-06
9.67308e-06
9.67308e-06
9.67308e-06
9.67307e-06
9.67287e-06
9.66811e-06
)
;
    }
    top
    {
        type            symmetryPlane;
        value           uniform 0;
    }
    walls
    {
        type            fixedValue;
        value           uniform 0;
    }
    frontAndBackPlanes
    {
        type            empty;
        value           nonuniform 0();
    }
}


// ************************************************************************* //
