/*--------------------------------*- C++ -*----------------------------------*\
| =========                 |                                                 |
| \\      /  F ield         | OpenFOAM: The Open Source CFD Toolbox           |
|  \\    /   O peration     | Version:  2.4.x                                 |
|   \\  /    A nd           | Web:      www.OpenFOAM.org                      |
|    \\/     M anipulation  |                                                 |
\*---------------------------------------------------------------------------*/
FoamFile
{
    version     2.0;
    format      ascii;
    class       surfaceScalarField;
    location    "1";
    object      phia;
}
// * * * * * * * * * * * * * * * * * * * * * * * * * * * * * * * * * * * * * //

dimensions      [0 3 -1 0 0 0 0];

internalField   nonuniform List<scalar> 
359
(
-1.17334e-41
-1.17269e-41
-1.17269e-41
-1.17268e-41
-1.17268e-41
-1.1727e-41
-1.17274e-41
-1.1728e-41
-1.17287e-41
-1.17296e-41
-1.17307e-41
-1.17319e-41
-1.17332e-41
-1.17347e-41
-1.17364e-41
-1.17382e-41
-1.17401e-41
-1.17421e-41
-1.17443e-41
-1.17466e-41
-1.1749e-41
-1.17516e-41
-1.17542e-41
-1.1757e-41
-1.17598e-41
-1.17628e-41
-1.17659e-41
-1.17691e-41
-1.17724e-41
-1.17758e-41
-1.17793e-41
-1.17829e-41
-1.17866e-41
-1.17904e-41
-1.17944e-41
-1.17984e-41
-1.18026e-41
-1.18069e-41
-1.18113e-41
-1.18158e-41
-1.18206e-41
-1.18254e-41
-1.18304e-41
-1.18356e-41
-1.1841e-41
-1.18466e-41
-1.18524e-41
-1.18585e-41
-1.18648e-41
-1.18714e-41
-1.18783e-41
-1.18856e-41
-1.18932e-41
-1.19012e-41
-1.19097e-41
-1.19188e-41
-1.19284e-41
-1.19386e-41
-1.19495e-41
-1.19613e-41
-1.19739e-41
-1.19875e-41
-1.20024e-41
-1.20185e-41
-1.20362e-41
-1.20556e-41
-1.20771e-41
-1.21011e-41
-1.2128e-41
-1.21586e-41
-1.21934e-41
-1.22341e-41
-1.22818e-41
-1.2341e-41
-1.24171e-41
-1.25322e-41
-1.27554e-41
-1.39292e-41
-3.37785e-41
-5.02132e-38
-1.97117e-21
-1.24949e-12
-6.771e-12
-1.60766e-11
-2.49354e-11
-3.15724e-11
-3.66248e-11
-4.1017e-11
-4.53592e-11
-4.99656e-11
-5.49147e-11
-6.01251e-11
-6.54736e-11
-7.08876e-11
-7.63715e-11
-8.1978e-11
-8.77697e-11
-9.37917e-11
-1.00064e-10
-1.06587e-10
-1.13352e-10
-1.20349e-10
-1.27572e-10
-1.35019e-10
-1.42688e-10
-1.5058e-10
-1.58704e-10
-1.67068e-10
-1.7569e-10
-1.8459e-10
-1.93795e-10
-2.0333e-10
-2.13225e-10
-2.23505e-10
-2.34193e-10
-2.45311e-10
-2.56891e-10
-2.68989e-10
-2.81697e-10
-2.9513e-10
-3.09358e-10
-3.24272e-10
-3.39442e-10
-3.54159e-10
-3.67806e-10
-3.80391e-10
-3.92867e-10
-4.07387e-10
-4.2732e-10
-4.55557e-10
-4.90958e-10
-5.34036e-10
-6.04115e-10
-7.08475e-10
-8.21346e-10
-9.61484e-10
-1.2185e-09
-2.06865e-09
-3.52219e-09
-4.07502e-09
-5.54105e-09
-7.47848e-09
-8.1755e-09
-8.59647e-09
-8.97714e-09
-9.41378e-09
-9.83636e-09
-1.03043e-08
-1.08463e-08
-1.13639e-08
-1.19865e-08
-1.17301e-08
-2.32516e-08
-3.20078e-08
-4.4185e-08
-5.99348e-08
-7.08e-08
-7.90504e-08
-8.51162e-08
-9.0244e-08
-9.43041e-08
-9.8015e-08
-1.01161e-07
-1.04118e-07
-1.06711e-07
-1.0916e-07
-1.11405e-07
-1.1346e-07
-1.15407e-07
-1.17171e-07
-1.18854e-07
-1.20382e-07
-1.21842e-07
-1.23172e-07
-1.24442e-07
-1.25599e-07
-1.26709e-07
-1.27727e-07
-1.28689e-07
-1.29589e-07
-1.30431e-07
-1.31224e-07
-1.31964e-07
-1.32664e-07
-1.33318e-07
-1.33938e-07
-1.34517e-07
-1.35065e-07
-1.35581e-07
-1.3607e-07
-1.36528e-07
-1.36962e-07
-1.37374e-07
-1.37759e-07
-1.38127e-07
-1.38474e-07
-1.388e-07
-1.3911e-07
-1.39403e-07
-1.39678e-07
-1.3994e-07
-1.4019e-07
-1.40432e-07
-1.40662e-07
-1.40886e-07
-1.41102e-07
-1.41308e-07
-1.41507e-07
-1.41702e-07
-1.41888e-07
-1.42067e-07
-1.42242e-07
-1.42411e-07
-1.42574e-07
-1.42734e-07
-1.42887e-07
-1.43039e-07
-1.43185e-07
-1.43329e-07
-1.43469e-07
-1.43607e-07
-1.43741e-07
-1.43875e-07
-1.44007e-07
-1.44138e-07
-1.44266e-07
-1.44395e-07
-1.44523e-07
-1.44654e-07
-1.44781e-07
-1.44908e-07
-1.45041e-07
-1.45174e-07
-1.45306e-07
-1.45443e-07
-1.45582e-07
-1.45722e-07
-1.45869e-07
-1.46019e-07
-1.46173e-07
-1.4633e-07
-1.46497e-07
-1.46669e-07
-1.46847e-07
-1.47032e-07
-1.47219e-07
-1.47413e-07
-1.47612e-07
-1.47815e-07
-1.48014e-07
-1.48205e-07
-1.48388e-07
-1.48548e-07
-1.48719e-07
-1.5339e-07
-1.58038e-07
-1.58038e-07
-1.58038e-07
-1.58038e-07
-1.58038e-07
-1.58038e-07
-1.58038e-07
-1.58038e-07
-1.58038e-07
-1.58038e-07
-1.58038e-07
-1.58038e-07
-1.58038e-07
-1.58038e-07
-1.58038e-07
-1.58038e-07
-1.58038e-07
-1.58038e-07
-1.58038e-07
-1.58038e-07
-1.58038e-07
-1.58038e-07
-1.58038e-07
-1.58038e-07
-1.58038e-07
-1.58038e-07
-1.58038e-07
-1.58038e-07
-1.58038e-07
-1.58038e-07
-1.58038e-07
-1.58038e-07
-1.58038e-07
-1.58038e-07
-1.58038e-07
-1.58038e-07
-1.58038e-07
-1.58038e-07
-1.58038e-07
-1.58038e-07
-1.58038e-07
-1.58038e-07
-1.58038e-07
-1.58038e-07
-1.58038e-07
-1.58038e-07
-1.58038e-07
-1.58038e-07
-1.58038e-07
-1.58038e-07
-1.58038e-07
-1.58038e-07
-1.58038e-07
-1.58038e-07
-1.58038e-07
-1.58038e-07
-1.58038e-07
-1.58038e-07
-1.58038e-07
-1.58038e-07
-1.58038e-07
-1.58038e-07
-1.58038e-07
-1.58038e-07
-1.58038e-07
-1.58038e-07
-1.58038e-07
-1.58038e-07
-1.58038e-07
-1.58038e-07
-1.58038e-07
-1.58038e-07
-1.58038e-07
-1.58038e-07
-1.58038e-07
-1.58038e-07
-1.58038e-07
-1.58038e-07
-1.58038e-07
-1.58038e-07
-1.58038e-07
-1.58038e-07
-1.58038e-07
-1.58038e-07
-1.58038e-07
-1.58038e-07
-1.58038e-07
-1.58038e-07
-1.58038e-07
-1.58038e-07
-1.58038e-07
-1.58038e-07
-1.58038e-07
-1.58038e-07
-1.58038e-07
-1.58038e-07
-1.58038e-07
-1.58038e-07
-1.58038e-07
-1.58038e-07
-1.58037e-07
-1.5802e-07
-1.57312e-07
-1.32352e-07
)
;

boundaryField
{
    inandouthalf11
    {
        type            cyclic;
        value           nonuniform List<scalar> 
100
(
-8.38073e-43
-8.38047e-43
-8.3807e-43
-8.3815e-43
-8.38291e-43
-8.38494e-43
-8.38759e-43
-8.39086e-43
-8.39475e-43
-8.39928e-43
-8.40443e-43
-8.41022e-43
-8.41664e-43
-8.4237e-43
-8.4314e-43
-8.43975e-43
-8.44873e-43
-8.45836e-43
-8.46864e-43
-8.47957e-43
-8.49115e-43
-8.50339e-43
-8.51628e-43
-8.52984e-43
-8.54406e-43
-8.55894e-43
-8.57449e-43
-8.59071e-43
-8.6076e-43
-8.62518e-43
-8.64344e-43
-8.66238e-43
-8.68201e-43
-8.70234e-43
-8.72337e-43
-8.74511e-43
-8.76757e-43
-8.79075e-43
-8.81466e-43
-8.83932e-43
-8.86473e-43
-8.8909e-43
-8.91785e-43
-8.94559e-43
-8.97414e-43
-9.00351e-43
-9.03372e-43
-9.0648e-43
-9.09676e-43
-9.12964e-43
-9.16348e-43
-9.19831e-43
-9.23417e-43
-9.27111e-43
-9.30917e-43
-9.34842e-43
-9.38894e-43
-9.43081e-43
-9.47412e-43
-9.51898e-43
-9.56553e-43
-9.61392e-43
-9.66435e-43
-9.71701e-43
-9.77221e-43
-9.83021e-43
-9.89153e-43
-9.95653e-43
-1.00261e-42
-1.01007e-42
-1.01821e-42
-1.02706e-42
-1.03705e-42
-1.04818e-42
-1.06195e-42
-1.07887e-42
-1.10622e-42
-1.16304e-42
-1.51722e-42
-7.64996e-42
-1.52997e-38
-5.73629e-22
-3.51259e-13
-1.53277e-12
-3.08012e-12
-4.37445e-12
-5.35472e-12
-6.16361e-12
-6.92296e-12
-7.70873e-12
-8.55697e-12
-9.47003e-12
-1.04309e-11
-1.14225e-11
-1.24394e-11
-1.34876e-11
-1.45793e-11
-1.57264e-11
-1.6937e-11
-1.82152e-11
)
;
    }
    inandouthalf12
    {
        type            cyclic;
        value           nonuniform List<scalar> 
100
(
8.38073e-43
8.38047e-43
8.3807e-43
8.3815e-43
8.38291e-43
8.38494e-43
8.38759e-43
8.39086e-43
8.39475e-43
8.39928e-43
8.40443e-43
8.41022e-43
8.41664e-43
8.4237e-43
8.4314e-43
8.43975e-43
8.44873e-43
8.45836e-43
8.46864e-43
8.47957e-43
8.49115e-43
8.50339e-43
8.51628e-43
8.52984e-43
8.54406e-43
8.55894e-43
8.57449e-43
8.59071e-43
8.6076e-43
8.62518e-43
8.64344e-43
8.66238e-43
8.68201e-43
8.70234e-43
8.72337e-43
8.74511e-43
8.76757e-43
8.79075e-43
8.81466e-43
8.83932e-43
8.86473e-43
8.8909e-43
8.91785e-43
8.94559e-43
8.97414e-43
9.00351e-43
9.03372e-43
9.0648e-43
9.09676e-43
9.12964e-43
9.16348e-43
9.19831e-43
9.23417e-43
9.27111e-43
9.30917e-43
9.34842e-43
9.38894e-43
9.43081e-43
9.47412e-43
9.51898e-43
9.56553e-43
9.61392e-43
9.66435e-43
9.71701e-43
9.77221e-43
9.83021e-43
9.89153e-43
9.95653e-43
1.00261e-42
1.01007e-42
1.01821e-42
1.02706e-42
1.03705e-42
1.04818e-42
1.06195e-42
1.07887e-42
1.10622e-42
1.16304e-42
1.51722e-42
7.64996e-42
1.52997e-38
5.73629e-22
3.51259e-13
1.53277e-12
3.08012e-12
4.37445e-12
5.35472e-12
6.16361e-12
6.92296e-12
7.70873e-12
8.55697e-12
9.47003e-12
1.04309e-11
1.14225e-11
1.24394e-11
1.34876e-11
1.45793e-11
1.57264e-11
1.6937e-11
1.82152e-11
)
;
    }
    inandouthalf21
    {
        type            cyclic;
        value           nonuniform List<scalar> 
100
(
-1.95623e-11
-2.09789e-11
-2.24658e-11
-2.4025e-11
-2.56592e-11
-2.73721e-11
-2.91687e-11
-3.10557e-11
-3.30416e-11
-3.51371e-11
-3.73551e-11
-3.97111e-11
-4.22224e-11
-4.49086e-11
-4.77915e-11
-5.08957e-11
-5.42517e-11
-5.79009e-11
-6.19023e-11
-6.63371e-11
-7.13001e-11
-7.68694e-11
-8.30519e-11
-8.97525e-11
-9.68713e-11
-1.04611e-10
-1.14021e-10
-1.2844e-10
-1.59956e-10
-2.70912e-10
-9.44877e-10
-6.42459e-09
-3.40102e-08
-9.4743e-08
-1.71964e-07
-2.52814e-07
-3.34017e-07
-4.15091e-07
-4.96323e-07
-5.7209e-07
-6.35391e-07
-6.80828e-07
-6.98707e-07
-7.05727e-07
-7.12164e-07
-7.1887e-07
-7.25973e-07
-7.33353e-07
-7.41357e-07
-7.49916e-07
-7.61e-07
-7.79664e-07
-8.10969e-07
-8.55799e-07
-8.96647e-07
-9.28161e-07
-9.55092e-07
-9.7857e-07
-9.9929e-07
-1.01764e-06
-1.03391e-06
-1.04823e-06
-1.06088e-06
-1.07203e-06
-1.08192e-06
-1.09067e-06
-1.09847e-06
-1.10546e-06
-1.11172e-06
-1.11737e-06
-1.12246e-06
-1.12707e-06
-1.13124e-06
-1.13503e-06
-1.13847e-06
-1.1416e-06
-1.14444e-06
-1.14704e-06
-1.14939e-06
-1.15154e-06
-1.1535e-06
-1.15527e-06
-1.15689e-06
-1.15836e-06
-1.1597e-06
-1.16091e-06
-1.16202e-06
-1.16301e-06
-1.16392e-06
-1.16474e-06
-1.16548e-06
-1.16615e-06
-1.16677e-06
-1.16732e-06
-1.16782e-06
-1.16828e-06
-1.1687e-06
-1.16908e-06
-1.16944e-06
-1.16976e-06
)
;
    }
    inandouthalf22
    {
        type            cyclic;
        value           nonuniform List<scalar> 
100
(
1.95623e-11
2.09789e-11
2.24658e-11
2.4025e-11
2.56592e-11
2.73721e-11
2.91687e-11
3.10557e-11
3.30416e-11
3.51371e-11
3.73551e-11
3.97111e-11
4.22224e-11
4.49086e-11
4.77915e-11
5.08957e-11
5.42517e-11
5.79009e-11
6.19023e-11
6.63371e-11
7.13001e-11
7.68694e-11
8.30519e-11
8.97525e-11
9.68713e-11
1.04611e-10
1.14021e-10
1.2844e-10
1.59956e-10
2.70912e-10
9.44877e-10
6.42459e-09
3.40102e-08
9.4743e-08
1.71964e-07
2.52814e-07
3.34017e-07
4.15091e-07
4.96323e-07
5.7209e-07
6.35391e-07
6.80828e-07
6.98707e-07
7.05727e-07
7.12164e-07
7.1887e-07
7.25973e-07
7.33353e-07
7.41357e-07
7.49916e-07
7.61e-07
7.79664e-07
8.10969e-07
8.55799e-07
8.96647e-07
9.28161e-07
9.55092e-07
9.7857e-07
9.9929e-07
1.01764e-06
1.03391e-06
1.04823e-06
1.06088e-06
1.07203e-06
1.08192e-06
1.09067e-06
1.09847e-06
1.10546e-06
1.11172e-06
1.11737e-06
1.12246e-06
1.12707e-06
1.13124e-06
1.13503e-06
1.13847e-06
1.1416e-06
1.14444e-06
1.14704e-06
1.14939e-06
1.15154e-06
1.1535e-06
1.15527e-06
1.15689e-06
1.15836e-06
1.1597e-06
1.16091e-06
1.16202e-06
1.16301e-06
1.16392e-06
1.16474e-06
1.16548e-06
1.16615e-06
1.16677e-06
1.16732e-06
1.16782e-06
1.16828e-06
1.1687e-06
1.16908e-06
1.16944e-06
1.16976e-06
)
;
    }
    inandouthalf31
    {
        type            cyclic;
        value           nonuniform List<scalar> 
110
(
-1.17007e-06
-1.19412e-06
-1.21865e-06
-1.24368e-06
-1.26921e-06
-1.29525e-06
-1.32183e-06
-1.34893e-06
-1.37659e-06
-1.40481e-06
-1.43361e-06
-1.46299e-06
-1.49297e-06
-1.52356e-06
-1.55478e-06
-1.58664e-06
-1.61916e-06
-1.65234e-06
-1.68621e-06
-1.72078e-06
-1.75607e-06
-1.79209e-06
-1.82885e-06
-1.86638e-06
-1.9047e-06
-1.94381e-06
-1.98374e-06
-2.02451e-06
-2.06615e-06
-2.10866e-06
-2.15205e-06
-2.19637e-06
-2.24164e-06
-2.28785e-06
-2.33504e-06
-2.38326e-06
-2.43249e-06
-2.48278e-06
-2.53416e-06
-2.58663e-06
-2.64023e-06
-2.69499e-06
-2.75098e-06
-2.80815e-06
-2.86658e-06
-2.92628e-06
-2.98726e-06
-3.04959e-06
-3.11327e-06
-3.17832e-06
-3.2447e-06
-3.31244e-06
-3.38154e-06
-3.45189e-06
-3.52425e-06
-3.65185e-06
-3.72597e-06
-3.8016e-06
-3.87876e-06
-3.95749e-06
-4.03782e-06
-4.11978e-06
-4.2034e-06
-4.28872e-06
-4.37577e-06
-4.46458e-06
-4.5552e-06
-4.64766e-06
-4.742e-06
-4.83825e-06
-4.93645e-06
-5.03665e-06
-5.13888e-06
-5.24318e-06
-5.3496e-06
-5.45819e-06
-5.56897e-06
-5.68201e-06
-5.79734e-06
-5.91501e-06
-6.03507e-06
-6.15756e-06
-6.28255e-06
-6.41007e-06
-6.54017e-06
-6.67292e-06
-6.80836e-06
-6.94656e-06
-7.08755e-06
-7.23141e-06
-7.37819e-06
-7.52795e-06
-7.68074e-06
-7.83664e-06
-7.9957e-06
-8.158e-06
-8.32358e-06
-8.49253e-06
-8.6649e-06
-8.84078e-06
-9.02022e-06
-9.20331e-06
-9.39011e-06
-9.58071e-06
-9.77517e-06
-9.97358e-06
-1.0176e-05
-1.03826e-05
-1.05933e-05
-1.08083e-05
)
;
    }
    inandouthalf32
    {
        type            cyclic;
        value           nonuniform List<scalar> 
110
(
1.17007e-06
1.19412e-06
1.21865e-06
1.24368e-06
1.26921e-06
1.29525e-06
1.32183e-06
1.34893e-06
1.37659e-06
1.40481e-06
1.43361e-06
1.46299e-06
1.49297e-06
1.52356e-06
1.55478e-06
1.58664e-06
1.61916e-06
1.65234e-06
1.68621e-06
1.72078e-06
1.75607e-06
1.79209e-06
1.82885e-06
1.86638e-06
1.9047e-06
1.94381e-06
1.98374e-06
2.02451e-06
2.06615e-06
2.10866e-06
2.15205e-06
2.19637e-06
2.24164e-06
2.28785e-06
2.33504e-06
2.38326e-06
2.43249e-06
2.48278e-06
2.53416e-06
2.58663e-06
2.64023e-06
2.69499e-06
2.75098e-06
2.80815e-06
2.86658e-06
2.92628e-06
2.98726e-06
3.04959e-06
3.11327e-06
3.17832e-06
3.2447e-06
3.31244e-06
3.38154e-06
3.45189e-06
3.52425e-06
3.65185e-06
3.72597e-06
3.8016e-06
3.87876e-06
3.95749e-06
4.03782e-06
4.11978e-06
4.2034e-06
4.28872e-06
4.37577e-06
4.46458e-06
4.5552e-06
4.64766e-06
4.742e-06
4.83825e-06
4.93645e-06
5.03665e-06
5.13888e-06
5.24318e-06
5.3496e-06
5.45819e-06
5.56897e-06
5.68201e-06
5.79734e-06
5.91501e-06
6.03507e-06
6.15756e-06
6.28255e-06
6.41007e-06
6.54017e-06
6.67292e-06
6.80836e-06
6.94656e-06
7.08755e-06
7.23141e-06
7.37819e-06
7.52795e-06
7.68074e-06
7.83664e-06
7.9957e-06
8.158e-06
8.32358e-06
8.49253e-06
8.6649e-06
8.84078e-06
9.02022e-06
9.20331e-06
9.39011e-06
9.58071e-06
9.77517e-06
9.97358e-06
1.0176e-05
1.03826e-05
1.05933e-05
1.08083e-05
)
;
    }
    inandouthalf41
    {
        type            cyclic;
        value           nonuniform List<scalar> 
50
(
-9.67454e-06
-9.67454e-06
-9.67454e-06
-9.67454e-06
-9.67454e-06
-9.67454e-06
-9.67454e-06
-9.67454e-06
-9.67454e-06
-9.67454e-06
-9.67454e-06
-9.67454e-06
-9.67454e-06
-9.67454e-06
-9.67454e-06
-9.67454e-06
-9.67454e-06
-9.67454e-06
-9.67454e-06
-9.67454e-06
-9.67454e-06
-9.67454e-06
-9.67454e-06
-9.67454e-06
-9.67454e-06
-9.67454e-06
-9.67454e-06
-9.67454e-06
-9.67454e-06
-9.67454e-06
-9.67454e-06
-9.67454e-06
-9.67454e-06
-9.67454e-06
-9.67454e-06
-9.67454e-06
-9.67454e-06
-9.67454e-06
-9.67454e-06
-9.67454e-06
-9.67454e-06
-9.67454e-06
-9.67454e-06
-9.67454e-06
-9.67454e-06
-9.67454e-06
-9.67454e-06
-9.67454e-06
-9.67433e-06
-9.66957e-06
)
;
    }
    inandouthalf42
    {
        type            cyclic;
        value           nonuniform List<scalar> 
50
(
9.67454e-06
9.67454e-06
9.67454e-06
9.67454e-06
9.67454e-06
9.67454e-06
9.67454e-06
9.67454e-06
9.67454e-06
9.67454e-06
9.67454e-06
9.67454e-06
9.67454e-06
9.67454e-06
9.67454e-06
9.67454e-06
9.67454e-06
9.67454e-06
9.67454e-06
9.67454e-06
9.67454e-06
9.67454e-06
9.67454e-06
9.67454e-06
9.67454e-06
9.67454e-06
9.67454e-06
9.67454e-06
9.67454e-06
9.67454e-06
9.67454e-06
9.67454e-06
9.67454e-06
9.67454e-06
9.67454e-06
9.67454e-06
9.67454e-06
9.67454e-06
9.67454e-06
9.67454e-06
9.67454e-06
9.67454e-06
9.67454e-06
9.67454e-06
9.67454e-06
9.67454e-06
9.67454e-06
9.67454e-06
9.67433e-06
9.66957e-06
)
;
    }
    top
    {
        type            symmetryPlane;
        value           uniform 0;
    }
    walls
    {
        type            fixedValue;
        value           uniform 0;
    }
    frontAndBackPlanes
    {
        type            empty;
        value           nonuniform 0();
    }
}


// ************************************************************************* //
