/*--------------------------------*- C++ -*----------------------------------*\
| =========                 |                                                 |
| \\      /  F ield         | OpenFOAM: The Open Source CFD Toolbox           |
|  \\    /   O peration     | Version:  2.4.x                                 |
|   \\  /    A nd           | Web:      www.OpenFOAM.org                      |
|    \\/     M anipulation  |                                                 |
\*---------------------------------------------------------------------------*/
FoamFile
{
    version     2.0;
    format      ascii;
    class       surfaceScalarField;
    location    "1";
    object      phib_0;
}
// * * * * * * * * * * * * * * * * * * * * * * * * * * * * * * * * * * * * * //

dimensions      [0 3 -1 0 0 0 0];

internalField   nonuniform List<scalar> 
359
(
5.07427e-19
1.01514e-18
1.52639e-18
2.03929e-18
2.55044e-18
3.06231e-18
3.57339e-18
4.08614e-18
4.59571e-18
5.1061e-18
5.61746e-18
6.12648e-18
6.63504e-18
7.14483e-18
7.65222e-18
8.15862e-18
8.66259e-18
9.16866e-18
9.67016e-18
1.01717e-17
1.06713e-17
1.11714e-17
1.16679e-17
1.21651e-17
1.26569e-17
1.31512e-17
1.36431e-17
1.41322e-17
1.46167e-17
1.51023e-17
1.55828e-17
1.60643e-17
1.65415e-17
1.70185e-17
1.74934e-17
1.79671e-17
1.84377e-17
1.89098e-17
1.93732e-17
1.98391e-17
2.02985e-17
2.07579e-17
2.12123e-17
2.1667e-17
2.21163e-17
2.25657e-17
2.30084e-17
2.34548e-17
2.3895e-17
2.43331e-17
2.47656e-17
2.51988e-17
2.56267e-17
2.60523e-17
2.64722e-17
2.68946e-17
2.73087e-17
2.7725e-17
2.81333e-17
2.85432e-17
2.89445e-17
2.93496e-17
2.97436e-17
3.01415e-17
3.0528e-17
3.0918e-17
3.12971e-17
3.16791e-17
3.20525e-17
3.24262e-17
3.27899e-17
3.31561e-17
3.35108e-17
3.38661e-17
3.42121e-17
3.45607e-17
3.4895e-17
3.52337e-17
3.55585e-17
3.58867e-17
3.62061e-17
1.93246e-12
1.04768e-11
2.48897e-11
3.86154e-11
4.88876e-11
5.66888e-11
6.34547e-11
7.01341e-11
7.72172e-11
8.48275e-11
9.28396e-11
1.01062e-10
1.09381e-10
1.17801e-10
1.26403e-10
1.35283e-10
1.44511e-10
1.54115e-10
1.64096e-10
1.74438e-10
1.85126e-10
1.96149e-10
2.07501e-10
2.1918e-10
2.31188e-10
2.43533e-10
2.56232e-10
2.69307e-10
2.82791e-10
2.9672e-10
3.11134e-10
3.26074e-10
3.41578e-10
3.57677e-10
3.74403e-10
3.91801e-10
4.09954e-10
4.28997e-10
4.49095e-10
4.70348e-10
4.9259e-10
5.15183e-10
5.37073e-10
5.57356e-10
5.76057e-10
5.94588e-10
6.16117e-10
6.45574e-10
6.87124e-10
7.3894e-10
8.01508e-10
9.02675e-10
1.05172e-09
1.20986e-09
1.40232e-09
1.7459e-09
2.80914e-09
4.45547e-09
4.92915e-09
6.28757e-09
7.87919e-09
8.25971e-09
8.46979e-09
8.65073e-09
8.85165e-09
9.04102e-09
9.24345e-09
9.46959e-09
9.68389e-09
9.92335e-09
1.00047e-08
1.28431e-08
4.55519e-09
2.35428e-10
1.14315e-10
1.0072e-10
9.20877e-11
8.28034e-11
7.63254e-11
6.99787e-11
6.3839e-11
5.86388e-11
5.40877e-11
4.99343e-11
4.53494e-11
4.22158e-11
3.8725e-11
3.57175e-11
3.29868e-11
3.04007e-11
2.80644e-11
2.58444e-11
2.39264e-11
2.21072e-11
2.03699e-11
1.87083e-11
1.74719e-11
1.59836e-11
1.48101e-11
1.36835e-11
1.26502e-11
1.1694e-11
1.07623e-11
9.94915e-12
9.20443e-12
8.53184e-12
7.8254e-12
7.21959e-12
6.7158e-12
6.22363e-12
5.65686e-12
5.29273e-12
4.90691e-12
4.45551e-12
4.15803e-12
3.85736e-12
3.51943e-12
3.28711e-12
3.02799e-12
2.77408e-12
2.56254e-12
2.3787e-12
2.19608e-12
1.97062e-12
1.82125e-12
1.6907e-12
1.51159e-12
1.37192e-12
1.27528e-12
1.14127e-12
1.02163e-12
9.37869e-13
8.38597e-13
7.5636e-13
6.80179e-13
6.0717e-13
5.42378e-13
4.81749e-13
4.30672e-13
3.83053e-13
3.39092e-13
2.9652e-13
2.61289e-13
2.30042e-13
2.03547e-13
1.76528e-13
1.5172e-13
1.31104e-13
1.18109e-13
1.00109e-13
8.37419e-14
7.42156e-14
6.36789e-14
5.31337e-14
4.62239e-14
3.8862e-14
3.25005e-14
2.77054e-14
2.33967e-14
1.94272e-14
1.57815e-14
1.34518e-14
1.09615e-14
9.10921e-15
7.55371e-15
6.09302e-15
4.91996e-15
3.95388e-15
3.30568e-15
2.61369e-15
2.0505e-15
1.66759e-15
1.33913e-15
1.0789e-15
8.65832e-16
6.62074e-16
5.17598e-16
3.95117e-16
3.08734e-16
2.37932e-16
1.82026e-16
1.33267e-16
1.05568e-16
7.93251e-17
5.97579e-17
4.5806e-17
3.45182e-17
2.68154e-17
2.06127e-17
1.63345e-17
1.29142e-17
1.06365e-17
8.84248e-18
7.59765e-18
6.5808e-18
5.94786e-18
5.36877e-18
4.94777e-18
4.59756e-18
4.34486e-18
4.13294e-18
3.94039e-18
3.72925e-18
3.54533e-18
3.32279e-18
3.20406e-18
2.93868e-18
2.71556e-18
2.46169e-18
2.20308e-18
1.90585e-18
1.62586e-18
1.32738e-18
1.04266e-18
8.14601e-19
7.01416e-19
6.16882e-19
5.57775e-19
2.90899e-19
2.48607e-19
2.08416e-19
1.71293e-19
1.37724e-19
1.04016e-19
7.87732e-20
5.49537e-20
4.42186e-20
2.21784e-20
1.8059e-20
1.34905e-20
1.94751e-20
4.09785e-21
2.2458e-21
-3.44934e-22
1.77761e-20
2.19095e-20
5.00271e-20
7.90396e-20
1.3235e-19
1.61774e-19
2.14811e-19
2.70664e-19
3.59171e-19
4.38411e-19
5.59339e-19
7.05121e-19
9.88731e-19
1.31886e-18
1.83454e-18
2.38355e-18
3.07605e-18
3.68528e-18
4.47981e-18
5.28503e-18
6.23745e-18
7.04121e-18
7.97391e-18
8.91673e-18
9.97883e-18
1.10745e-17
1.21296e-17
1.32589e-17
1.43509e-17
1.6348e-17
1.79351e-17
1.95391e-17
2.02296e-17
2.17315e-17
2.18133e-17
2.19101e-17
2.07766e-17
2.18889e-17
2.10469e-17
2.00647e-17
1.65178e-17
1.38501e-17
9.32388e-18
5.44741e-18
)
;

boundaryField
{
    inandouthalf11
    {
        type            cyclic;
        value           nonuniform List<scalar> 
100
(
-1.94631e-10
-1.94963e-10
-1.94965e-10
-1.94965e-10
-1.94965e-10
-1.94966e-10
-1.94966e-10
-1.94968e-10
-1.94968e-10
-1.9497e-10
-1.94971e-10
-1.94971e-10
-1.94973e-10
-1.94975e-10
-1.94976e-10
-1.94978e-10
-1.9498e-10
-1.94981e-10
-1.94983e-10
-1.94986e-10
-1.94988e-10
-1.94991e-10
-1.94994e-10
-1.94998e-10
-1.95001e-10
-1.95004e-10
-1.95007e-10
-1.95012e-10
-1.95017e-10
-1.95022e-10
-1.95027e-10
-1.95034e-10
-1.95039e-10
-1.95047e-10
-1.95053e-10
-1.95062e-10
-1.9507e-10
-1.9508e-10
-1.95091e-10
-1.95101e-10
-1.95114e-10
-1.95127e-10
-1.9514e-10
-1.95157e-10
-1.95173e-10
-1.95191e-10
-1.95211e-10
-1.9523e-10
-1.95253e-10
-1.9528e-10
-1.95306e-10
-1.95335e-10
-1.95367e-10
-1.95401e-10
-1.95437e-10
-1.95478e-10
-1.95521e-10
-1.95569e-10
-1.9562e-10
-1.95674e-10
-1.95735e-10
-1.95799e-10
-1.9587e-10
-1.95945e-10
-1.96028e-10
-1.96116e-10
-1.96214e-10
-1.96319e-10
-1.96433e-10
-1.96555e-10
-1.96689e-10
-1.96834e-10
-1.96989e-10
-1.9716e-10
-1.97344e-10
-1.97544e-10
-1.9776e-10
-1.97994e-10
-1.98248e-10
-1.98524e-10
-1.98823e-10
-1.99116e-10
-1.99636e-10
-2.00783e-10
-2.02233e-10
-2.03513e-10
-2.04577e-10
-2.05528e-10
-2.06452e-10
-2.07402e-10
-2.08403e-10
-2.09454e-10
-2.10548e-10
-2.11674e-10
-2.12834e-10
-2.14034e-10
-2.15284e-10
-2.16594e-10
-2.17972e-10
-2.19421e-10
)
;
    }
    inandouthalf12
    {
        type            cyclic;
        value           nonuniform List<scalar> 
100
(
1.94631e-10
1.94963e-10
1.94965e-10
1.94965e-10
1.94965e-10
1.94966e-10
1.94966e-10
1.94968e-10
1.94968e-10
1.9497e-10
1.94971e-10
1.94971e-10
1.94973e-10
1.94975e-10
1.94976e-10
1.94978e-10
1.9498e-10
1.94981e-10
1.94983e-10
1.94986e-10
1.94988e-10
1.94991e-10
1.94994e-10
1.94998e-10
1.95001e-10
1.95004e-10
1.95007e-10
1.95012e-10
1.95017e-10
1.95022e-10
1.95027e-10
1.95034e-10
1.95039e-10
1.95047e-10
1.95053e-10
1.95062e-10
1.9507e-10
1.9508e-10
1.95091e-10
1.95101e-10
1.95114e-10
1.95127e-10
1.9514e-10
1.95157e-10
1.95173e-10
1.95191e-10
1.95211e-10
1.9523e-10
1.95253e-10
1.9528e-10
1.95306e-10
1.95335e-10
1.95367e-10
1.95401e-10
1.95437e-10
1.95478e-10
1.95521e-10
1.95569e-10
1.9562e-10
1.95674e-10
1.95735e-10
1.95799e-10
1.9587e-10
1.95945e-10
1.96028e-10
1.96116e-10
1.96214e-10
1.96319e-10
1.96433e-10
1.96555e-10
1.96689e-10
1.96834e-10
1.96989e-10
1.9716e-10
1.97344e-10
1.97544e-10
1.9776e-10
1.97994e-10
1.98248e-10
1.98524e-10
1.98823e-10
1.99116e-10
1.99636e-10
2.00783e-10
2.02233e-10
2.03513e-10
2.04577e-10
2.05528e-10
2.06452e-10
2.07402e-10
2.08403e-10
2.09454e-10
2.10548e-10
2.11674e-10
2.12834e-10
2.14034e-10
2.15284e-10
2.16594e-10
2.17972e-10
2.19421e-10
)
;
    }
    inandouthalf21
    {
        type            cyclic;
        value           nonuniform List<scalar> 
100
(
-2.20942e-10
-2.22538e-10
-2.24209e-10
-2.25958e-10
-2.27786e-10
-2.29699e-10
-2.31701e-10
-2.338e-10
-2.36004e-10
-2.38325e-10
-2.40776e-10
-2.43372e-10
-2.46133e-10
-2.49078e-10
-2.52229e-10
-2.5561e-10
-2.59253e-10
-2.632e-10
-2.67512e-10
-2.72274e-10
-2.77583e-10
-2.83516e-10
-2.90072e-10
-2.97136e-10
-3.04588e-10
-3.12624e-10
-3.22323e-10
-3.37112e-10
-3.69398e-10
-4.82881e-10
-1.1729e-09
-6.75366e-09
-3.45979e-08
-9.55158e-08
-1.72777e-07
-2.53621e-07
-3.34814e-07
-4.15905e-07
-4.97194e-07
-5.72865e-07
-6.36042e-07
-6.81186e-07
-6.9881e-07
-7.0582e-07
-7.12262e-07
-7.18972e-07
-7.26082e-07
-7.33465e-07
-7.41476e-07
-7.50033e-07
-7.61089e-07
-7.79632e-07
-8.1081e-07
-8.55259e-07
-9.01604e-07
-9.47374e-07
-9.87842e-07
-1.02301e-06
-1.05305e-06
-1.07826e-06
-1.09874e-06
-1.11506e-06
-1.12773e-06
-1.13764e-06
-1.14548e-06
-1.1519e-06
-1.15736e-06
-1.1621e-06
-1.16632e-06
-1.17009e-06
-1.17352e-06
-1.17663e-06
-1.17947e-06
-1.18207e-06
-1.18446e-06
-1.18664e-06
-1.18866e-06
-1.19052e-06
-1.19222e-06
-1.1938e-06
-1.19526e-06
-1.1966e-06
-1.19784e-06
-1.19898e-06
-1.20004e-06
-1.20102e-06
-1.20192e-06
-1.20275e-06
-1.20352e-06
-1.20423e-06
-1.20489e-06
-1.2055e-06
-1.20606e-06
-1.20658e-06
-1.20706e-06
-1.2075e-06
-1.20791e-06
-1.20828e-06
-1.20863e-06
-1.20896e-06
)
;
    }
    inandouthalf22
    {
        type            cyclic;
        value           nonuniform List<scalar> 
100
(
2.20942e-10
2.22538e-10
2.24209e-10
2.25958e-10
2.27786e-10
2.29699e-10
2.31701e-10
2.338e-10
2.36004e-10
2.38325e-10
2.40776e-10
2.43372e-10
2.46133e-10
2.49078e-10
2.52229e-10
2.5561e-10
2.59253e-10
2.632e-10
2.67512e-10
2.72274e-10
2.77583e-10
2.83516e-10
2.90072e-10
2.97136e-10
3.04588e-10
3.12624e-10
3.22323e-10
3.37112e-10
3.69398e-10
4.82881e-10
1.1729e-09
6.75366e-09
3.45979e-08
9.55158e-08
1.72777e-07
2.53621e-07
3.34814e-07
4.15905e-07
4.97194e-07
5.72865e-07
6.36042e-07
6.81186e-07
6.9881e-07
7.0582e-07
7.12262e-07
7.18972e-07
7.26082e-07
7.33465e-07
7.41476e-07
7.50033e-07
7.61089e-07
7.79632e-07
8.1081e-07
8.55259e-07
9.01604e-07
9.47374e-07
9.87842e-07
1.02301e-06
1.05305e-06
1.07826e-06
1.09874e-06
1.11506e-06
1.12773e-06
1.13764e-06
1.14548e-06
1.1519e-06
1.15736e-06
1.1621e-06
1.16632e-06
1.17009e-06
1.17352e-06
1.17663e-06
1.17947e-06
1.18207e-06
1.18446e-06
1.18664e-06
1.18866e-06
1.19052e-06
1.19222e-06
1.1938e-06
1.19526e-06
1.1966e-06
1.19784e-06
1.19898e-06
1.20004e-06
1.20102e-06
1.20192e-06
1.20275e-06
1.20352e-06
1.20423e-06
1.20489e-06
1.2055e-06
1.20606e-06
1.20658e-06
1.20706e-06
1.2075e-06
1.20791e-06
1.20828e-06
1.20863e-06
1.20896e-06
)
;
    }
    inandouthalf31
    {
        type            cyclic;
        value           nonuniform List<scalar> 
110
(
-1.20926e-06
-1.23408e-06
-1.25941e-06
-1.28523e-06
-1.31157e-06
-1.33842e-06
-1.36582e-06
-1.39376e-06
-1.42225e-06
-1.45131e-06
-1.48096e-06
-1.51119e-06
-1.54203e-06
-1.57348e-06
-1.60556e-06
-1.63829e-06
-1.67166e-06
-1.70571e-06
-1.74044e-06
-1.77587e-06
-1.81201e-06
-1.84888e-06
-1.88649e-06
-1.92485e-06
-1.96399e-06
-2.00391e-06
-2.04464e-06
-2.0862e-06
-2.12859e-06
-2.17183e-06
-2.21595e-06
-2.26097e-06
-2.30689e-06
-2.35374e-06
-2.40154e-06
-2.4503e-06
-2.50006e-06
-2.55082e-06
-2.60261e-06
-2.65545e-06
-2.70936e-06
-2.76436e-06
-2.82048e-06
-2.87773e-06
-2.93615e-06
-2.99575e-06
-3.05656e-06
-3.11861e-06
-3.18191e-06
-3.2465e-06
-3.31239e-06
-3.37963e-06
-3.44823e-06
-3.51822e-06
-3.58963e-06
-3.66249e-06
-3.73683e-06
-3.81268e-06
-3.89007e-06
-3.96903e-06
-4.04959e-06
-4.13178e-06
-4.21565e-06
-4.30121e-06
-4.38852e-06
-4.47759e-06
-4.56848e-06
-4.6612e-06
-4.75581e-06
-4.85234e-06
-4.95083e-06
-5.05132e-06
-5.15385e-06
-5.25846e-06
-5.36519e-06
-5.47409e-06
-5.5852e-06
-5.69857e-06
-5.81423e-06
-5.93225e-06
-6.05265e-06
-6.17551e-06
-6.30085e-06
-6.42874e-06
-6.55923e-06
-6.69237e-06
-6.8282e-06
-6.9668e-06
-7.1082e-06
-7.25248e-06
-7.39969e-06
-7.54988e-06
-7.70313e-06
-7.85948e-06
-8.019e-06
-8.18177e-06
-8.34784e-06
-8.51728e-06
-8.69015e-06
-8.86654e-06
-9.04651e-06
-9.23013e-06
-9.41747e-06
-9.60862e-06
-9.80365e-06
-1.00026e-05
-1.02057e-05
-1.04128e-05
-1.06242e-05
-1.08398e-05
)
;
    }
    inandouthalf32
    {
        type            cyclic;
        value           nonuniform List<scalar> 
110
(
1.20926e-06
1.23408e-06
1.25941e-06
1.28523e-06
1.31157e-06
1.33842e-06
1.36582e-06
1.39376e-06
1.42225e-06
1.45131e-06
1.48096e-06
1.51119e-06
1.54203e-06
1.57348e-06
1.60556e-06
1.63829e-06
1.67166e-06
1.70571e-06
1.74044e-06
1.77587e-06
1.81201e-06
1.84888e-06
1.88649e-06
1.92485e-06
1.96399e-06
2.00391e-06
2.04464e-06
2.0862e-06
2.12859e-06
2.17183e-06
2.21595e-06
2.26097e-06
2.30689e-06
2.35374e-06
2.40154e-06
2.4503e-06
2.50006e-06
2.55082e-06
2.60261e-06
2.65545e-06
2.70936e-06
2.76436e-06
2.82048e-06
2.87773e-06
2.93615e-06
2.99575e-06
3.05656e-06
3.11861e-06
3.18191e-06
3.2465e-06
3.31239e-06
3.37963e-06
3.44823e-06
3.51822e-06
3.58963e-06
3.66249e-06
3.73683e-06
3.81268e-06
3.89007e-06
3.96903e-06
4.04959e-06
4.13178e-06
4.21565e-06
4.30121e-06
4.38852e-06
4.47759e-06
4.56848e-06
4.6612e-06
4.75581e-06
4.85234e-06
4.95083e-06
5.05132e-06
5.15385e-06
5.25846e-06
5.36519e-06
5.47409e-06
5.5852e-06
5.69857e-06
5.81423e-06
5.93225e-06
6.05265e-06
6.17551e-06
6.30085e-06
6.42874e-06
6.55923e-06
6.69237e-06
6.8282e-06
6.9668e-06
7.1082e-06
7.25248e-06
7.39969e-06
7.54988e-06
7.70313e-06
7.85948e-06
8.019e-06
8.18177e-06
8.34784e-06
8.51728e-06
8.69015e-06
8.86654e-06
9.04651e-06
9.23013e-06
9.41747e-06
9.60862e-06
9.80365e-06
1.00026e-05
1.02057e-05
1.04128e-05
1.06242e-05
1.08398e-05
)
;
    }
    inandouthalf41
    {
        type            cyclic;
        value           nonuniform List<scalar> 
50
(
-9.70274e-06
-9.70274e-06
-9.70274e-06
-9.70274e-06
-9.70274e-06
-9.70274e-06
-9.70274e-06
-9.70274e-06
-9.70274e-06
-9.70274e-06
-9.70274e-06
-9.70274e-06
-9.70274e-06
-9.70274e-06
-9.70274e-06
-9.70274e-06
-9.70274e-06
-9.70274e-06
-9.70274e-06
-9.70274e-06
-9.70274e-06
-9.70274e-06
-9.70274e-06
-9.70274e-06
-9.70274e-06
-9.70274e-06
-9.70274e-06
-9.70274e-06
-9.70274e-06
-9.70274e-06
-9.70274e-06
-9.70274e-06
-9.70274e-06
-9.70274e-06
-9.70274e-06
-9.70274e-06
-9.70274e-06
-9.70274e-06
-9.70274e-06
-9.70274e-06
-9.70274e-06
-9.70274e-06
-9.70274e-06
-9.70274e-06
-9.70274e-06
-9.70274e-06
-9.70274e-06
-9.70274e-06
-9.70274e-06
-9.70274e-06
)
;
    }
    inandouthalf42
    {
        type            cyclic;
        value           nonuniform List<scalar> 
50
(
9.70274e-06
9.70274e-06
9.70274e-06
9.70274e-06
9.70274e-06
9.70274e-06
9.70274e-06
9.70274e-06
9.70274e-06
9.70274e-06
9.70274e-06
9.70274e-06
9.70274e-06
9.70274e-06
9.70274e-06
9.70274e-06
9.70274e-06
9.70274e-06
9.70274e-06
9.70274e-06
9.70274e-06
9.70274e-06
9.70274e-06
9.70274e-06
9.70274e-06
9.70274e-06
9.70274e-06
9.70274e-06
9.70274e-06
9.70274e-06
9.70274e-06
9.70274e-06
9.70274e-06
9.70274e-06
9.70274e-06
9.70274e-06
9.70274e-06
9.70274e-06
9.70274e-06
9.70274e-06
9.70274e-06
9.70274e-06
9.70274e-06
9.70274e-06
9.70274e-06
9.70274e-06
9.70274e-06
9.70274e-06
9.70274e-06
9.70274e-06
)
;
    }
    top
    {
        type            symmetryPlane;
        value           uniform 0;
    }
    walls
    {
        type            fixedValue;
        value           uniform 0;
    }
    frontAndBackPlanes
    {
        type            empty;
        value           nonuniform 0();
    }
}


// ************************************************************************* //
