/*--------------------------------*- C++ -*----------------------------------*\
| =========                 |                                                 |
| \\      /  F ield         | OpenFOAM: The Open Source CFD Toolbox           |
|  \\    /   O peration     | Version:  2.4.x                                 |
|   \\  /    A nd           | Web:      www.OpenFOAM.org                      |
|    \\/     M anipulation  |                                                 |
\*---------------------------------------------------------------------------*/
FoamFile
{
    version     2.0;
    format      ascii;
    class       surfaceScalarField;
    location    "1";
    object      phib;
}
// * * * * * * * * * * * * * * * * * * * * * * * * * * * * * * * * * * * * * //

dimensions      [0 3 -1 0 0 0 0];

internalField   nonuniform List<scalar> 
359
(
5.04964e-19
1.01187e-18
1.52172e-18
2.0307e-18
2.54179e-18
3.05298e-18
3.56255e-18
4.07582e-18
4.58515e-18
5.09595e-18
5.60531e-18
6.11471e-18
6.61984e-18
7.1268e-18
7.63215e-18
8.13668e-18
8.64082e-18
9.1447e-18
9.64628e-18
1.01488e-17
1.06477e-17
1.11444e-17
1.16404e-17
1.2137e-17
1.26285e-17
1.31205e-17
1.36106e-17
1.41007e-17
1.45868e-17
1.50724e-17
1.55524e-17
1.60327e-17
1.65089e-17
1.69852e-17
1.7456e-17
1.79308e-17
1.83956e-17
1.88661e-17
1.93283e-17
1.97948e-17
2.0253e-17
2.07129e-17
2.11635e-17
2.16205e-17
2.20683e-17
2.25173e-17
2.29588e-17
2.34046e-17
2.38396e-17
2.4279e-17
2.471e-17
2.51451e-17
2.55698e-17
2.59984e-17
2.64153e-17
2.68366e-17
2.72511e-17
2.76663e-17
2.8074e-17
2.84825e-17
2.88822e-17
2.92867e-17
2.96796e-17
3.0075e-17
3.04609e-17
3.08497e-17
3.1227e-17
3.1607e-17
3.19762e-17
3.23492e-17
3.27114e-17
3.30742e-17
3.34305e-17
3.37864e-17
3.41298e-17
3.44764e-17
3.48124e-17
3.5149e-17
3.54757e-17
3.58034e-17
3.61198e-17
1.93344e-12
1.04754e-11
2.48764e-11
3.85897e-11
4.8857e-11
5.66592e-11
6.34296e-11
7.01151e-11
7.72047e-11
8.48208e-11
9.2837e-11
1.01061e-10
1.0938e-10
1.17799e-10
1.26398e-10
1.35274e-10
1.44497e-10
1.54096e-10
1.64071e-10
1.74408e-10
1.85092e-10
1.96111e-10
2.0746e-10
2.19136e-10
2.31143e-10
2.43487e-10
2.56184e-10
2.69258e-10
2.82739e-10
2.96665e-10
3.11076e-10
3.26013e-10
3.41512e-10
3.57605e-10
3.74326e-10
3.91719e-10
4.09866e-10
4.28902e-10
4.48992e-10
4.70238e-10
4.92474e-10
5.15062e-10
5.3695e-10
5.57231e-10
5.75927e-10
5.94444e-10
6.15943e-10
6.45349e-10
6.8686e-10
7.38665e-10
8.01199e-10
9.02208e-10
1.05124e-09
1.20946e-09
1.40204e-09
1.74516e-09
2.79938e-09
4.45181e-09
4.92673e-09
6.2779e-09
7.87574e-09
8.2591e-09
8.46929e-09
8.65025e-09
8.85115e-09
9.04051e-09
9.24288e-09
9.46899e-09
9.68339e-09
9.92259e-09
1.00034e-08
1.28426e-08
4.53901e-09
2.34534e-10
1.14175e-10
1.00597e-10
9.19697e-11
8.26942e-11
7.62298e-11
6.98854e-11
6.37517e-11
5.85618e-11
5.40188e-11
4.98646e-11
4.52868e-11
4.21599e-11
3.8671e-11
3.56684e-11
3.29413e-11
3.03583e-11
2.80251e-11
2.58088e-11
2.38934e-11
2.20754e-11
2.03403e-11
1.8683e-11
1.74475e-11
1.59601e-11
1.47892e-11
1.36641e-11
1.26324e-11
1.16771e-11
1.07465e-11
9.93505e-12
9.19179e-12
8.51943e-12
7.81362e-12
7.20948e-12
6.70672e-12
6.21421e-12
5.64852e-12
5.28575e-12
4.89947e-12
4.44883e-12
4.15249e-12
3.85164e-12
3.51431e-12
3.2826e-12
3.02342e-12
2.76991e-12
2.55902e-12
2.37555e-12
2.19268e-12
1.96759e-12
1.81895e-12
1.68819e-12
1.50918e-12
1.37016e-12
1.27352e-12
1.13947e-12
1.0202e-12
9.3658e-13
8.37364e-13
7.55286e-13
6.79202e-13
6.06282e-13
5.41592e-13
4.8107e-13
4.30072e-13
3.82511e-13
3.38595e-13
2.96078e-13
2.60918e-13
2.29736e-13
2.03261e-13
1.76247e-13
1.51491e-13
1.30946e-13
1.17955e-13
9.99481e-14
8.36202e-14
7.4121e-14
6.35847e-14
5.30567e-14
4.61596e-14
3.88043e-14
3.2456e-14
2.7668e-14
2.33625e-14
1.93978e-14
1.576e-14
1.34333e-14
1.09456e-14
9.09711e-15
7.54308e-15
6.08361e-15
4.91276e-15
3.94891e-15
3.30128e-15
2.60974e-15
2.04755e-15
1.66537e-15
1.33733e-15
1.07751e-15
8.6473e-16
6.61204e-16
5.16913e-16
3.94598e-16
3.08339e-16
2.37619e-16
1.81769e-16
1.3309e-16
1.05432e-16
7.92114e-17
5.96731e-17
4.57397e-17
3.44672e-17
2.67753e-17
2.05806e-17
1.63078e-17
1.28929e-17
1.06184e-17
8.82618e-18
7.58479e-18
6.56975e-18
5.93851e-18
5.36015e-18
4.94071e-18
4.59152e-18
4.34048e-18
4.12934e-18
3.93762e-18
3.72796e-18
3.54487e-18
3.32298e-18
3.20457e-18
2.93971e-18
2.71768e-18
2.46594e-18
2.20971e-18
1.91515e-18
1.63969e-18
1.34373e-18
1.06324e-18
8.41172e-19
7.43461e-19
6.76654e-19
6.34907e-19
3.80846e-19
3.58772e-19
3.33494e-19
3.09093e-19
2.80542e-19
2.71381e-19
2.57246e-19
2.43963e-19
2.18171e-19
2.0439e-19
1.7404e-19
1.46709e-19
1.11528e-19
1.03355e-19
8.37041e-20
6.40536e-20
2.4956e-20
-9.81036e-22
-4.81345e-20
-9.70663e-20
-1.68343e-19
-2.16238e-19
-2.88174e-19
-3.6293e-19
-4.69675e-19
-5.6745e-19
-7.04836e-19
-8.66506e-19
-1.16034e-18
-1.4996e-18
-2.02049e-18
-2.57406e-18
-3.27152e-18
-3.88452e-18
-4.68152e-18
-5.4902e-18
-6.44575e-18
-7.25257e-18
-8.18844e-18
-9.13427e-18
-1.01991e-17
-1.1297e-17
-1.23538e-17
-1.34851e-17
-1.45783e-17
-1.65799e-17
-1.81709e-17
-1.97777e-17
-2.04683e-17
-2.19721e-17
-2.20519e-17
-2.21469e-17
-2.1008e-17
-2.212e-17
-2.12756e-17
-2.02907e-17
-1.67333e-17
-1.40593e-17
-9.52118e-18
-5.63051e-18
)
;

boundaryField
{
    inandouthalf11
    {
        type            cyclic;
        value           nonuniform List<scalar> 
100
(
-1.9458e-10
-1.94912e-10
-1.94914e-10
-1.94914e-10
-1.94914e-10
-1.94915e-10
-1.94915e-10
-1.94917e-10
-1.94917e-10
-1.94918e-10
-1.9492e-10
-1.9492e-10
-1.94922e-10
-1.94923e-10
-1.94925e-10
-1.94927e-10
-1.94928e-10
-1.9493e-10
-1.94932e-10
-1.94935e-10
-1.94937e-10
-1.9494e-10
-1.94943e-10
-1.94946e-10
-1.9495e-10
-1.94953e-10
-1.94956e-10
-1.94961e-10
-1.94966e-10
-1.94971e-10
-1.94976e-10
-1.94982e-10
-1.94987e-10
-1.94996e-10
-1.95002e-10
-1.9501e-10
-1.95018e-10
-1.95028e-10
-1.9504e-10
-1.9505e-10
-1.95063e-10
-1.95076e-10
-1.95089e-10
-1.95105e-10
-1.95122e-10
-1.9514e-10
-1.95159e-10
-1.95179e-10
-1.95202e-10
-1.95228e-10
-1.95255e-10
-1.95284e-10
-1.95315e-10
-1.9535e-10
-1.95386e-10
-1.95427e-10
-1.9547e-10
-1.95517e-10
-1.95568e-10
-1.95622e-10
-1.95683e-10
-1.95747e-10
-1.95818e-10
-1.95894e-10
-1.95976e-10
-1.96065e-10
-1.96162e-10
-1.96268e-10
-1.96381e-10
-1.96503e-10
-1.96637e-10
-1.96782e-10
-1.96938e-10
-1.97108e-10
-1.97292e-10
-1.97492e-10
-1.97708e-10
-1.97942e-10
-1.98196e-10
-1.98472e-10
-1.9877e-10
-1.99064e-10
-1.99583e-10
-2.00729e-10
-2.02178e-10
-2.03457e-10
-2.04521e-10
-2.05472e-10
-2.06396e-10
-2.07347e-10
-2.08348e-10
-2.094e-10
-2.10494e-10
-2.1162e-10
-2.1278e-10
-2.13979e-10
-2.15228e-10
-2.16538e-10
-2.17914e-10
-2.19362e-10
)
;
    }
    inandouthalf12
    {
        type            cyclic;
        value           nonuniform List<scalar> 
100
(
1.9458e-10
1.94912e-10
1.94914e-10
1.94914e-10
1.94914e-10
1.94915e-10
1.94915e-10
1.94917e-10
1.94917e-10
1.94918e-10
1.9492e-10
1.9492e-10
1.94922e-10
1.94923e-10
1.94925e-10
1.94927e-10
1.94928e-10
1.9493e-10
1.94932e-10
1.94935e-10
1.94937e-10
1.9494e-10
1.94943e-10
1.94946e-10
1.9495e-10
1.94953e-10
1.94956e-10
1.94961e-10
1.94966e-10
1.94971e-10
1.94976e-10
1.94982e-10
1.94987e-10
1.94996e-10
1.95002e-10
1.9501e-10
1.95018e-10
1.95028e-10
1.9504e-10
1.9505e-10
1.95063e-10
1.95076e-10
1.95089e-10
1.95105e-10
1.95122e-10
1.9514e-10
1.95159e-10
1.95179e-10
1.95202e-10
1.95228e-10
1.95255e-10
1.95284e-10
1.95315e-10
1.9535e-10
1.95386e-10
1.95427e-10
1.9547e-10
1.95517e-10
1.95568e-10
1.95622e-10
1.95683e-10
1.95747e-10
1.95818e-10
1.95894e-10
1.95976e-10
1.96065e-10
1.96162e-10
1.96268e-10
1.96381e-10
1.96503e-10
1.96637e-10
1.96782e-10
1.96938e-10
1.97108e-10
1.97292e-10
1.97492e-10
1.97708e-10
1.97942e-10
1.98196e-10
1.98472e-10
1.9877e-10
1.99064e-10
1.99583e-10
2.00729e-10
2.02178e-10
2.03457e-10
2.04521e-10
2.05472e-10
2.06396e-10
2.07347e-10
2.08348e-10
2.094e-10
2.10494e-10
2.1162e-10
2.1278e-10
2.13979e-10
2.15228e-10
2.16538e-10
2.17914e-10
2.19362e-10
)
;
    }
    inandouthalf21
    {
        type            cyclic;
        value           nonuniform List<scalar> 
100
(
-2.20883e-10
-2.22477e-10
-2.24148e-10
-2.25895e-10
-2.27723e-10
-2.29636e-10
-2.31637e-10
-2.33735e-10
-2.35939e-10
-2.38258e-10
-2.40708e-10
-2.43304e-10
-2.46064e-10
-2.49007e-10
-2.52156e-10
-2.55536e-10
-2.59177e-10
-2.63122e-10
-2.67432e-10
-2.7219e-10
-2.77496e-10
-2.83426e-10
-2.89978e-10
-2.97038e-10
-3.04487e-10
-3.12515e-10
-3.222e-10
-3.36951e-10
-3.69107e-10
-4.81932e-10
-1.16683e-09
-6.70849e-09
-3.44373e-08
-9.52642e-08
-1.72504e-07
-2.53352e-07
-3.34554e-07
-4.15646e-07
-4.96946e-07
-5.72669e-07
-6.35904e-07
-6.81171e-07
-6.98897e-07
-7.05921e-07
-7.12365e-07
-7.19076e-07
-7.26187e-07
-7.3357e-07
-7.41582e-07
-7.50142e-07
-7.61206e-07
-7.79771e-07
-8.10965e-07
-8.5543e-07
-9.01776e-07
-9.47547e-07
-9.88015e-07
-1.02319e-06
-1.05322e-06
-1.07843e-06
-1.09891e-06
-1.11523e-06
-1.12791e-06
-1.13781e-06
-1.14565e-06
-1.15208e-06
-1.15754e-06
-1.16228e-06
-1.1665e-06
-1.17027e-06
-1.1737e-06
-1.17681e-06
-1.17965e-06
-1.18225e-06
-1.18464e-06
-1.18683e-06
-1.18884e-06
-1.1907e-06
-1.19241e-06
-1.19399e-06
-1.19544e-06
-1.19678e-06
-1.19802e-06
-1.19917e-06
-1.20022e-06
-1.2012e-06
-1.2021e-06
-1.20293e-06
-1.2037e-06
-1.20442e-06
-1.20507e-06
-1.20568e-06
-1.20624e-06
-1.20676e-06
-1.20724e-06
-1.20768e-06
-1.20809e-06
-1.20847e-06
-1.20881e-06
-1.20914e-06
)
;
    }
    inandouthalf22
    {
        type            cyclic;
        value           nonuniform List<scalar> 
100
(
2.20883e-10
2.22477e-10
2.24148e-10
2.25895e-10
2.27723e-10
2.29636e-10
2.31637e-10
2.33735e-10
2.35939e-10
2.38258e-10
2.40708e-10
2.43304e-10
2.46064e-10
2.49007e-10
2.52156e-10
2.55536e-10
2.59177e-10
2.63122e-10
2.67432e-10
2.7219e-10
2.77496e-10
2.83426e-10
2.89978e-10
2.97038e-10
3.04487e-10
3.12515e-10
3.222e-10
3.36951e-10
3.69107e-10
4.81932e-10
1.16683e-09
6.70849e-09
3.44373e-08
9.52642e-08
1.72504e-07
2.53352e-07
3.34554e-07
4.15646e-07
4.96946e-07
5.72669e-07
6.35904e-07
6.81171e-07
6.98897e-07
7.05921e-07
7.12365e-07
7.19076e-07
7.26187e-07
7.3357e-07
7.41582e-07
7.50142e-07
7.61206e-07
7.79771e-07
8.10965e-07
8.5543e-07
9.01776e-07
9.47547e-07
9.88015e-07
1.02319e-06
1.05322e-06
1.07843e-06
1.09891e-06
1.11523e-06
1.12791e-06
1.13781e-06
1.14565e-06
1.15208e-06
1.15754e-06
1.16228e-06
1.1665e-06
1.17027e-06
1.1737e-06
1.17681e-06
1.17965e-06
1.18225e-06
1.18464e-06
1.18683e-06
1.18884e-06
1.1907e-06
1.19241e-06
1.19399e-06
1.19544e-06
1.19678e-06
1.19802e-06
1.19917e-06
1.20022e-06
1.2012e-06
1.2021e-06
1.20293e-06
1.2037e-06
1.20442e-06
1.20507e-06
1.20568e-06
1.20624e-06
1.20676e-06
1.20724e-06
1.20768e-06
1.20809e-06
1.20847e-06
1.20881e-06
1.20914e-06
)
;
    }
    inandouthalf31
    {
        type            cyclic;
        value           nonuniform List<scalar> 
110
(
-1.20944e-06
-1.23427e-06
-1.2596e-06
-1.28542e-06
-1.31176e-06
-1.33863e-06
-1.36602e-06
-1.39397e-06
-1.42246e-06
-1.45153e-06
-1.48118e-06
-1.51142e-06
-1.54226e-06
-1.57372e-06
-1.6058e-06
-1.63853e-06
-1.67192e-06
-1.70597e-06
-1.74071e-06
-1.77614e-06
-1.81228e-06
-1.84916e-06
-1.88677e-06
-1.92514e-06
-1.96428e-06
-2.00421e-06
-2.04495e-06
-2.08651e-06
-2.12891e-06
-2.17216e-06
-2.21629e-06
-2.2613e-06
-2.30723e-06
-2.35409e-06
-2.4019e-06
-2.45067e-06
-2.50043e-06
-2.5512e-06
-2.603e-06
-2.65585e-06
-2.70976e-06
-2.76478e-06
-2.8209e-06
-2.87817e-06
-2.93659e-06
-2.9962e-06
-3.05702e-06
-3.11907e-06
-3.18239e-06
-3.24698e-06
-3.31289e-06
-3.38014e-06
-3.44875e-06
-3.51875e-06
-3.59017e-06
-3.66304e-06
-3.73739e-06
-3.81325e-06
-3.89065e-06
-3.96962e-06
-4.05019e-06
-4.1324e-06
-4.21628e-06
-4.30186e-06
-4.38918e-06
-4.47826e-06
-4.56916e-06
-4.6619e-06
-4.75653e-06
-4.85307e-06
-4.95158e-06
-5.05208e-06
-5.15462e-06
-5.25925e-06
-5.366e-06
-5.47491e-06
-5.58604e-06
-5.69942e-06
-5.8151e-06
-5.93313e-06
-6.05356e-06
-6.17643e-06
-6.3018e-06
-6.42971e-06
-6.56021e-06
-6.69337e-06
-6.82923e-06
-6.96784e-06
-7.10927e-06
-7.25357e-06
-7.4008e-06
-7.55101e-06
-7.70428e-06
-7.86066e-06
-8.02021e-06
-8.18299e-06
-8.34909e-06
-8.51855e-06
-8.69146e-06
-8.86787e-06
-9.04786e-06
-9.23151e-06
-9.41889e-06
-9.61006e-06
-9.80512e-06
-1.00041e-05
-1.02072e-05
-1.04144e-05
-1.06258e-05
-1.08414e-05
)
;
    }
    inandouthalf32
    {
        type            cyclic;
        value           nonuniform List<scalar> 
110
(
1.20944e-06
1.23427e-06
1.2596e-06
1.28542e-06
1.31176e-06
1.33863e-06
1.36602e-06
1.39397e-06
1.42246e-06
1.45153e-06
1.48118e-06
1.51142e-06
1.54226e-06
1.57372e-06
1.6058e-06
1.63853e-06
1.67192e-06
1.70597e-06
1.74071e-06
1.77614e-06
1.81228e-06
1.84916e-06
1.88677e-06
1.92514e-06
1.96428e-06
2.00421e-06
2.04495e-06
2.08651e-06
2.12891e-06
2.17216e-06
2.21629e-06
2.2613e-06
2.30723e-06
2.35409e-06
2.4019e-06
2.45067e-06
2.50043e-06
2.5512e-06
2.603e-06
2.65585e-06
2.70976e-06
2.76478e-06
2.8209e-06
2.87817e-06
2.93659e-06
2.9962e-06
3.05702e-06
3.11907e-06
3.18239e-06
3.24698e-06
3.31289e-06
3.38014e-06
3.44875e-06
3.51875e-06
3.59017e-06
3.66304e-06
3.73739e-06
3.81325e-06
3.89065e-06
3.96962e-06
4.05019e-06
4.1324e-06
4.21628e-06
4.30186e-06
4.38918e-06
4.47826e-06
4.56916e-06
4.6619e-06
4.75653e-06
4.85307e-06
4.95158e-06
5.05208e-06
5.15462e-06
5.25925e-06
5.366e-06
5.47491e-06
5.58604e-06
5.69942e-06
5.8151e-06
5.93313e-06
6.05356e-06
6.17643e-06
6.3018e-06
6.42971e-06
6.56021e-06
6.69337e-06
6.82923e-06
6.96784e-06
7.10927e-06
7.25357e-06
7.4008e-06
7.55101e-06
7.70428e-06
7.86066e-06
8.02021e-06
8.18299e-06
8.34909e-06
8.51855e-06
8.69146e-06
8.86787e-06
9.04786e-06
9.23151e-06
9.41889e-06
9.61006e-06
9.80512e-06
1.00041e-05
1.02072e-05
1.04144e-05
1.06258e-05
1.08414e-05
)
;
    }
    inandouthalf41
    {
        type            cyclic;
        value           nonuniform List<scalar> 
50
(
-9.70419e-06
-9.70419e-06
-9.70419e-06
-9.70419e-06
-9.70419e-06
-9.70419e-06
-9.70419e-06
-9.70419e-06
-9.70419e-06
-9.70419e-06
-9.70419e-06
-9.70419e-06
-9.70419e-06
-9.70419e-06
-9.70419e-06
-9.70419e-06
-9.70419e-06
-9.70419e-06
-9.70419e-06
-9.70419e-06
-9.70419e-06
-9.70419e-06
-9.70419e-06
-9.70419e-06
-9.70419e-06
-9.70419e-06
-9.70419e-06
-9.70419e-06
-9.70419e-06
-9.70419e-06
-9.70419e-06
-9.70419e-06
-9.70419e-06
-9.70419e-06
-9.70419e-06
-9.70419e-06
-9.70419e-06
-9.70419e-06
-9.70419e-06
-9.70419e-06
-9.70419e-06
-9.70419e-06
-9.70419e-06
-9.70419e-06
-9.70419e-06
-9.70419e-06
-9.70419e-06
-9.70419e-06
-9.70419e-06
-9.70419e-06
)
;
    }
    inandouthalf42
    {
        type            cyclic;
        value           nonuniform List<scalar> 
50
(
9.70419e-06
9.70419e-06
9.70419e-06
9.70419e-06
9.70419e-06
9.70419e-06
9.70419e-06
9.70419e-06
9.70419e-06
9.70419e-06
9.70419e-06
9.70419e-06
9.70419e-06
9.70419e-06
9.70419e-06
9.70419e-06
9.70419e-06
9.70419e-06
9.70419e-06
9.70419e-06
9.70419e-06
9.70419e-06
9.70419e-06
9.70419e-06
9.70419e-06
9.70419e-06
9.70419e-06
9.70419e-06
9.70419e-06
9.70419e-06
9.70419e-06
9.70419e-06
9.70419e-06
9.70419e-06
9.70419e-06
9.70419e-06
9.70419e-06
9.70419e-06
9.70419e-06
9.70419e-06
9.70419e-06
9.70419e-06
9.70419e-06
9.70419e-06
9.70419e-06
9.70419e-06
9.70419e-06
9.70419e-06
9.70419e-06
9.70419e-06
)
;
    }
    top
    {
        type            symmetryPlane;
        value           uniform 0;
    }
    walls
    {
        type            fixedValue;
        value           uniform 0;
    }
    frontAndBackPlanes
    {
        type            empty;
        value           nonuniform 0();
    }
}


// ************************************************************************* //
