/*--------------------------------*- C++ -*----------------------------------*\
| =========                 |                                                 |
| \\      /  F ield         | OpenFOAM: The Open Source CFD Toolbox           |
|  \\    /   O peration     | Version:  2.4.x                                 |
|   \\  /    A nd           | Web:      www.OpenFOAM.org                      |
|    \\/     M anipulation  |                                                 |
\*---------------------------------------------------------------------------*/
FoamFile
{
    version     2.0;
    format      ascii;
    class       volVectorField;
    location    "1";
    object      susb;
}
// * * * * * * * * * * * * * * * * * * * * * * * * * * * * * * * * * * * * * //

dimensions      [0 1 -2 0 0 0 0];

internalField   nonuniform List<vector> 
360
(
(0 -1.22886e-28 0)
(0 -6.90849e-21 0)
(0 -6.90845e-21 0)
(0 1.44829e-28 0)
(-3.6573e-31 -6.90845e-21 0)
(-3.65728e-31 -6.9084e-21 0)
(-3.65728e-31 -6.9084e-21 0)
(0 -6.90835e-21 0)
(-3.65725e-31 -6.90835e-21 0)
(0 -1.38166e-20 0)
(-3.6572e-31 -6.90826e-21 0)
(0 -6.90826e-21 0)
(-3.65718e-31 -1.38164e-20 0)
(0 -1.38163e-20 0)
(0 -1.38162e-20 0)
(0 -1.38161e-20 0)
(0 -1.38161e-20 0)
(-7.31411e-31 -1.3816e-20 0)
(0 -2.07238e-20 0)
(0 -2.07235e-20 0)
(0 -2.07234e-20 0)
(-3.65691e-31 -2.76308e-20 0)
(0 -2.76304e-20 0)
(0 -2.763e-20 0)
(0 -2.76297e-20 0)
(-3.65671e-31 -2.76293e-20 0)
(0 -3.45362e-20 0)
(0 -4.14426e-20 0)
(0 -4.14417e-20 0)
(0 -4.14409e-20 0)
(0 -4.83467e-20 0)
(0 -4.83454e-20 0)
(0 -5.52508e-20 0)
(0 -6.2155e-20 0)
(0 -6.21533e-20 0)
(3.65584e-31 -6.90569e-20 0)
(0 -7.596e-20 0)
(0 -8.97673e-20 0)
(0 -8.97631e-20 0)
(0 -9.6664e-20 0)
(0 -1.10467e-19 0)
(0 -1.10461e-19 0)
(7.30931e-31 -1.24262e-19 0)
(0 -1.3806e-19 0)
(0 -1.44953e-19 0)
(0 -1.58746e-19 0)
(0 -1.65635e-19 0)
(0 -1.79423e-19 0)
(0 -2.07007e-19 0)
(0 -2.20783e-19 0)
(3.65216e-31 -2.34557e-19 0)
(0 -2.55222e-19 0)
(0 -2.7588e-19 0)
(0 -2.96529e-19 0)
(0 -3.24065e-19 0)
(0 -3.51586e-19 0)
(0 -3.79095e-19 0)
(0 -4.13477e-19 0)
(0 -4.4095e-19 0)
(0 -4.82181e-19 0)
(0 -5.2338e-19 0)
(0 -5.64551e-19 0)
(0 -6.12566e-19 0)
(0 -6.6054e-19 0)
(0 -7.15343e-19 0)
(0 -7.76965e-19 0)
(0 -8.45386e-19 0)
(0 -9.13721e-19 0)
(0 -9.81964e-19 0)
(0 -1.06384e-18 0)
(0 -1.15929e-18 0)
(0 -1.24772e-18 0)
(0 -1.3497e-18 0)
(0 -1.46515e-18 0)
(0 -1.5872e-18 0)
(0 -1.71579e-18 0)
(0 -1.85088e-18 0)
(0 -2.00606e-18 0)
(0 -2.1744e-18 0)
(0 -2.34899e-18 0)
(0 -2.41215e-18 0)
(0 -1.87532e-18 0)
(0 -5.32939e-19 0)
(0 5.57127e-19 0)
(0 4.73994e-19 0)
(0 -2.74506e-19 0)
(0 -9.18722e-19 0)
(0 -1.25278e-18 0)
(0 -1.34649e-18 0)
(0 -1.29387e-18 0)
(0 -1.18575e-18 0)
(0 -1.10257e-18 0)
(0 -1.0831e-18 0)
(0 -1.11863e-18 0)
(0 -1.17926e-18 0)
(0 -1.23741e-18 0)
(0 -1.2808e-18 0)
(0 -1.31133e-18 0)
(0 -1.33742e-18 0)
(0 -1.36591e-18 0)
(0 -1.39933e-18 0)
(0 -1.43716e-18 0)
(0 -1.47727e-18 0)
(0 -1.51797e-18 0)
(0 -1.55922e-18 0)
(0 -1.60174e-18 0)
(0 -1.6463e-18 0)
(0 -1.69341e-18 0)
(0 -1.74331e-18 0)
(0 -1.7962e-18 0)
(0 -1.85231e-18 0)
(0 -1.91178e-18 0)
(0 -1.97428e-18 0)
(0 -2.03902e-18 0)
(0 -2.10509e-18 0)
(0 -2.17261e-18 0)
(0 -2.24431e-18 0)
(0 -2.32647e-18 0)
(0 -2.42728e-18 0)
(0 -2.55023e-18 0)
(0 -2.68158e-18 0)
(0 -2.77728e-18 0)
(0 -2.76732e-18 0)
(0 -2.59922e-18 0)
(0 -2.30465e-18 0)
(0 -2.02383e-18 0)
(0 -1.96818e-18 0)
(0 -2.40003e-18 0)
(0 -3.55071e-18 0)
(0 -4.94111e-18 0)
(0 -3.48987e-18 0)
(0 -1.88633e-18 0)
(0 -1.36582e-18 0)
(0 -1.27818e-18 0)
(0 -1.30874e-18 0)
(0 -1.61768e-18 0)
(0 -2.9078e-18 0)
(0 -8.79875e-18 0)
(0 -9.34451e-18 0)
(0 -6.3554e-18 0)
(0 -1.1349e-17 0)
(0 -2.07673e-17 0)
(0 -2.94884e-17 0)
(0 -2.59489e-17 0)
(0 -2.22214e-17 0)
(0 -2.2562e-17 0)
(0 -1.88596e-17 0)
(0 -1.84375e-17 0)
(0 -1.8086e-17 0)
(0 -1.33544e-17 0)
(0 -1.04335e-17 0)
(0 7.61878e-18 0)
(0 -6.14935e-17 0)
(0 -2.21124e-17 0)
(0 -4.74621e-18 0)
(0 -1.81451e-18 0)
(0 -9.82623e-19 0)
(0 -9.14313e-19 0)
(0 -7.63613e-19 0)
(0 -4.23596e-19 0)
(0 -2.37809e-19 0)
(0 -1.35207e-19 0)
(0 -7.37082e-20 0)
(0 -5.01752e-20 0)
(0 -3.96793e-20 0)
(0 -4.00056e-20 0)
(0 -2.80126e-20 0)
(0 -2.94282e-20 0)
(0 -2.52793e-20 0)
(0 -2.27436e-20 0)
(0 -2.14185e-20 0)
(0 -1.93465e-20 0)
(0 -1.83763e-20 0)
(0 -1.5986e-20 0)
(0 -1.50931e-20 0)
(0 -1.4113e-20 0)
(0 -1.30093e-20 0)
(0 -9.325e-21 0)
(0 -1.02275e-20 0)
(0 -8.01738e-21 0)
(0 -7.58003e-21 0)
(0 -6.86072e-21 0)
(0 -6.282e-21 0)
(0 -6.03054e-21 0)
(0 -5.22708e-21 0)
(0 -4.74507e-21 0)
(0 -4.26346e-21 0)
(0 -4.4118e-21 0)
(0 -3.76446e-21 0)
(0 -3.12644e-21 0)
(0 -3.03702e-21 0)
(0 -3.44029e-21 0)
(0 -2.22609e-21 0)
(0 -2.34441e-21 0)
(0 -2.70459e-21 0)
(0 -1.78934e-21 0)
(0 -1.80404e-21 0)
(0 -2.00481e-21 0)
(0 -1.38344e-21 0)
(0 -1.53415e-21 0)
(0 -1.49453e-21 0)
(0 -1.21782e-21 0)
(-6.26402e-37 -1.03747e-21 0)
(0 -1.00913e-21 0)
(0 -1.20875e-21 0)
(0 -7.84816e-22 0)
(0 -6.75736e-22 0)
(-5.66599e-37 -8.99057e-22 0)
(0 -6.84502e-22 0)
(2.7208e-37 -4.67308e-22 0)
(0 -6.30345e-22 0)
(0 -5.48772e-22 0)
(0 -3.77535e-22 0)
(2.50823e-37 -4.36822e-22 0)
(0 -3.53865e-22 0)
(0 -3.20788e-22 0)
(0 -3.00625e-22 0)
(0 -2.60922e-22 0)
(0 -2.38749e-22 0)
(-1.10843e-37 -1.96896e-22 0)
(0 -1.79591e-22 0)
(0 -1.62168e-22 0)
(0 -1.53509e-22 0)
(-5.09879e-38 -1.24233e-22 0)
(0 -1.07789e-22 0)
(0 -8.95374e-23 0)
(0 -8.92829e-23 0)
(0 -8.00072e-23 0)
(2.29408e-38 -6.49651e-23 0)
(2.24572e-38 -4.02683e-23 0)
(0 -5.44169e-23 0)
(0 -4.82478e-23 0)
(0 -2.75148e-23 0)
(0 -2.97909e-23 0)
(0 -2.90837e-23 0)
(0 -1.86571e-23 0)
(0 -1.9425e-23 0)
(0 -1.63889e-23 0)
(0 -1.20897e-23 0)
(0 -1.06222e-23 0)
(0 -9.55373e-24 0)
(0 -8.56239e-24 0)
(0 -5.3592e-24 0)
(-4.13769e-39 -5.58947e-24 0)
(2.02308e-39 -4.05974e-24 0)
(0 -3.3331e-24 0)
(0 -3.05464e-24 0)
(-9.45584e-40 -2.39307e-24 0)
(0 -1.92326e-24 0)
(0 -1.26301e-24 0)
(-4.41835e-40 -1.31427e-24 0)
(0 -1.04282e-24 0)
(0 -6.92333e-25 0)
(0 -5.8053e-25 0)
(0 -5.02763e-25 0)
(0 -3.78303e-25 0)
(0 -3.077e-25 0)
(0 -2.13674e-25 0)
(0 -1.77418e-25 0)
(0 -1.22501e-25 0)
(0 -9.83385e-26 0)
(0 -7.60483e-26 0)
(0 -6.49273e-26 0)
(0 -3.60433e-26 0)
(0 -3.35291e-26 0)
(0 -2.4481e-26 0)
(0 -1.70545e-26 0)
(0 -1.35448e-26 0)
(0 -9.03447e-27 0)
(0 -7.11779e-27 0)
(0 -4.77927e-27 0)
(0 -3.73022e-27 0)
(0 -2.42779e-27 0)
(0 -1.85512e-27 0)
(0 -1.22717e-27 0)
(0 -9.40012e-28 0)
(0 -5.35375e-28 0)
(0 -4.39488e-28 0)
(0 -2.67219e-28 0)
(0 -1.81776e-28 0)
(0 -1.33259e-28 0)
(0 -8.11934e-29 0)
(0 -5.89594e-29 0)
(0 -3.48119e-29 0)
(0 -2.41954e-29 0)
(0 -1.46609e-29 0)
(3.1533e-45 -1.06765e-29 0)
(0 -5.21728e-30 0)
(0 -3.79901e-30 0)
(0 -2.4488e-30 0)
(0 -1.23259e-30 0)
(0 -8.88815e-31 0)
(0 -5.17835e-31 0)
(0 -2.92164e-31 0)
(0 -1.87045e-31 0)
(0 -1.00478e-31 0)
(2.01506e-47 -6.30196e-32 0)
(0 -3.21378e-32 0)
(0 -1.89114e-32 0)
(-4.74294e-48 -9.67096e-33 0)
(0 -5.74309e-33 0)
(0 -3.02766e-33 0)
(0 -1.83894e-33 0)
(0 -9.90115e-34 0)
(0 -5.18631e-34 0)
(0 -1.62114e-34 0)
(0 -4.83389e-35 0)
(0 -1.25427e-35 0)
(0 -2.62893e-36 0)
(0 -4.12376e-37 0)
(0 -4.35092e-38 0)
(0 -2.87573e-39 0)
(0 -1.74964e-40 0)
(0 -5.18681e-42 0)
(0 -3.00295e-53 0)
(0 -8.88614e-65 0)
(0 -1.91714e-76 0)
(0 -3.15724e-88 0)
(0 -4.50684e-100 0)
(0 -1.71759e-110 0)
(0 -1.20437e-121 0)
(0 -5.80388e-129 0)
(0 -5.18325e-140 0)
(0 -1.9951e-147 0)
(0 -1.79375e-158 0)
(0 -6.86221e-166 0)
(0 -7.31881e-177 0)
(0 -2.35942e-184 0)
(0 -3.22726e-195 0)
(0 -8.11471e-203 0)
(0 -2.50615e-213 0)
(0 -2.79696e-221 0)
(0 -1.78028e-231 0)
(0 -9.66865e-240 0)
(0 -9.28744e-250 0)
(0 -3.35307e-258 0)
(0 -4.35346e-268 0)
(0 -1.16659e-276 0)
(0 -1.90937e-286 0)
(0 -4.07588e-295 0)
(0 -8.01562e-305 0)
(0 -1.4273e-313 0)
(0 -3.45846e-323 0)
(0 -0 0)
(0 0 0)
(0 0 0)
(0 0 0)
(0 0 0)
(0 0 0)
(0 0 0)
(0 0 0)
(0 0 0)
(0 0 0)
(0 0 0)
(0 0 0)
(0 0 0)
(0 0 0)
(0 0 0)
(0 0 0)
(0 0 0)
)
;

boundaryField
{
    inandouthalf11
    {
        type            cyclic;
    }
    inandouthalf12
    {
        type            cyclic;
    }
    inandouthalf21
    {
        type            cyclic;
    }
    inandouthalf22
    {
        type            cyclic;
    }
    inandouthalf31
    {
        type            cyclic;
    }
    inandouthalf32
    {
        type            cyclic;
    }
    inandouthalf41
    {
        type            cyclic;
    }
    inandouthalf42
    {
        type            cyclic;
    }
    top
    {
        type            symmetryPlane;
    }
    walls
    {
        type            zeroGradient;
    }
    frontAndBackPlanes
    {
        type            empty;
    }
}


// ************************************************************************* //
