/*--------------------------------*- C++ -*----------------------------------*\
| =========                 |                                                 |
| \\      /  F ield         | OpenFOAM: The Open Source CFD Toolbox           |
|  \\    /   O peration     | Version:  2.4.x                                 |
|   \\  /    A nd           | Web:      www.OpenFOAM.org                      |
|    \\/     M anipulation  |                                                 |
\*---------------------------------------------------------------------------*/
FoamFile
{
    version     2.0;
    format      ascii;
    class       volScalarField;
    location    "1";
    object      tmf;
}
// * * * * * * * * * * * * * * * * * * * * * * * * * * * * * * * * * * * * * //

dimensions      [0 0 0 0 0 0 0];

internalField   nonuniform List<scalar> 
360
(
0.999204
0.999204
0.999204
0.999204
0.999204
0.999204
0.999204
0.999204
0.999204
0.999204
0.999204
0.999204
0.999204
0.999204
0.999204
0.999204
0.999204
0.999204
0.999204
0.999204
0.999204
0.999204
0.999204
0.999204
0.999204
0.999204
0.999204
0.999204
0.999204
0.999204
0.999204
0.999204
0.999203
0.999203
0.999203
0.999203
0.999203
0.999203
0.999203
0.999203
0.999203
0.999203
0.999203
0.999203
0.999203
0.999203
0.999203
0.999203
0.999203
0.999203
0.999203
0.999203
0.999203
0.999203
0.999203
0.999203
0.999203
0.999202
0.999202
0.999202
0.999202
0.999202
0.999202
0.999202
0.999201
0.999201
0.999201
0.999201
0.999201
0.9992
0.9992
0.9992
0.9992
0.999199
0.999199
0.999198
0.999198
0.999197
0.999197
0.999196
0.999196
0.999195
0.999195
0.999195
0.999195
0.999195
0.999195
0.999195
0.999194
0.999194
0.999194
0.999193
0.999193
0.999193
0.999193
0.999192
0.999192
0.999192
0.999191
0.999191
0.999191
0.99919
0.99919
0.99919
0.999189
0.999189
0.999188
0.999188
0.999188
0.999187
0.999187
0.999186
0.999186
0.999185
0.999185
0.999184
0.999184
0.999183
0.999182
0.999182
0.999181
0.99918
0.99918
0.999179
0.999178
0.999178
0.999177
0.999177
0.999176
0.999138
0.998427
0.996113
0.991416
0.987066
0.985194
0.984681
0.984408
0.983873
0.982488
0.983576
0.986778
0.992209
0.996956
0.997932
0.997888
0.997724
0.997513
0.997302
0.996989
0.9964
0.994583
0.990682
0.9863
0.942607
0.828625
0.888502
0.912101
0.928978
0.942027
0.952652
0.961609
0.969177
0.975789
0.981119
0.98513
0.987703
0.989449
0.99057
0.991475
0.992148
0.992776
0.993276
0.993759
0.994141
0.994495
0.994738
0.994898
0.994878
0.994732
0.994714
0.994711
0.994698
0.994697
0.994687
0.994688
0.994681
0.994683
0.994678
0.99468
0.994678
0.99468
0.994679
0.994682
0.994682
0.994684
0.994685
0.994687
0.994688
0.99469
0.994691
0.994693
0.994694
0.994695
0.994695
0.994696
0.994696
0.994696
0.994696
0.994695
0.994694
0.994694
0.994692
0.994691
0.994689
0.994687
0.994685
0.994683
0.99468
0.994677
0.994674
0.99467
0.994666
0.994662
0.994658
0.994653
0.994648
0.994643
0.994637
0.994631
0.994624
0.994618
0.994611
0.994603
0.994595
0.994587
0.994579
0.99457
0.99456
0.994551
0.99454
0.99453
0.994519
0.994507
0.994495
0.994483
0.99447
0.994457
0.994443
0.99443
0.994416
0.994402
0.994389
0.994376
0.994365
0.99435
0.994195
0.994195
0.994195
0.994195
0.994195
0.994195
0.994195
0.994195
0.994195
0.994195
0.994195
0.994195
0.994195
0.994195
0.994195
0.994195
0.994195
0.994195
0.994195
0.994195
0.994195
0.994195
0.994195
0.994195
0.994195
0.994195
0.994195
0.994195
0.994195
0.994195
0.994195
0.994195
0.994195
0.994195
0.994195
0.994195
0.994195
0.994195
0.994195
0.994195
0.994195
0.994195
0.994195
0.994195
0.994195
0.994195
0.994195
0.994195
0.994195
0.994195
0.994195
0.994195
0.994195
0.994195
0.994195
0.994195
0.994195
0.994195
0.994195
0.994195
0.994195
0.994195
0.994195
0.994195
0.994195
0.994195
0.994195
0.994195
0.994195
0.994195
0.994195
0.994195
0.994195
0.994195
0.994195
0.994195
0.994195
0.994195
0.994195
0.994195
0.994195
0.994195
0.994195
0.994195
0.994195
0.994195
0.994195
0.994195
0.994195
0.994195
0.994195
0.994195
0.994195
0.994195
0.994195
0.994195
0.994195
0.994195
0.994195
0.994195
0.994195
0.994195
0.994195
0.99418
0.993262
)
;

boundaryField
{
    inandouthalf11
    {
        type            cyclic;
    }
    inandouthalf12
    {
        type            cyclic;
    }
    inandouthalf21
    {
        type            cyclic;
    }
    inandouthalf22
    {
        type            cyclic;
    }
    inandouthalf31
    {
        type            cyclic;
    }
    inandouthalf32
    {
        type            cyclic;
    }
    inandouthalf41
    {
        type            cyclic;
    }
    inandouthalf42
    {
        type            cyclic;
    }
    top
    {
        type            symmetryPlane;
    }
    walls
    {
        type            calculated;
        value           uniform 0;
    }
    frontAndBackPlanes
    {
        type            empty;
    }
}


// ************************************************************************* //
