/*--------------------------------*- C++ -*----------------------------------*\
| =========                 |                                                 |
| \\      /  F ield         | OpenFOAM: The Open Source CFD Toolbox           |
|  \\    /   O peration     | Version:  2.4.x                                 |
|   \\  /    A nd           | Web:      www.OpenFOAM.org                      |
|    \\/     M anipulation  |                                                 |
\*---------------------------------------------------------------------------*/
FoamFile
{
    version     2.0;
    format      ascii;
    class       volVectorField;
    location    "1";
    object      U;
}
// * * * * * * * * * * * * * * * * * * * * * * * * * * * * * * * * * * * * * //

dimensions      [0 1 -1 0 0 0 0];

internalField   nonuniform List<vector> 
360
(
(7.58869e-05 2.4617e-14 0)
(7.60163e-05 7.39489e-14 0)
(7.60173e-05 1.23514e-13 0)
(7.60173e-05 1.73183e-13 0)
(7.60173e-05 2.22911e-13 0)
(7.60181e-05 2.7275e-13 0)
(7.60181e-05 3.22512e-13 0)
(7.60189e-05 3.72378e-13 0)
(7.60189e-05 4.22229e-13 0)
(7.60198e-05 4.71963e-13 0)
(7.60206e-05 5.217e-13 0)
(7.60206e-05 5.71363e-13 0)
(7.60214e-05 6.20825e-13 0)
(7.60223e-05 6.70168e-13 0)
(7.60231e-05 7.19521e-13 0)
(7.60239e-05 7.68756e-13 0)
(7.60248e-05 8.17933e-13 0)
(7.60256e-05 8.67078e-13 0)
(7.60264e-05 9.16096e-13 0)
(7.60281e-05 9.65058e-13 0)
(7.60289e-05 1.01388e-12 0)
(7.60306e-05 1.06242e-12 0)
(7.60323e-05 1.11082e-12 0)
(7.60339e-05 1.15923e-12 0)
(7.60356e-05 1.2074e-12 0)
(7.60373e-05 1.25536e-12 0)
(7.6039e-05 1.30324e-12 0)
(7.60415e-05 1.35104e-12 0)
(7.6044e-05 1.39865e-12 0)
(7.60465e-05 1.44604e-12 0)
(7.6049e-05 1.49312e-12 0)
(7.60523e-05 1.53996e-12 0)
(7.60548e-05 1.5866e-12 0)
(7.6059e-05 1.63307e-12 0)
(7.60623e-05 1.67926e-12 0)
(7.60665e-05 1.72539e-12 0)
(7.60707e-05 1.77122e-12 0)
(7.60757e-05 1.81685e-12 0)
(7.60815e-05 1.86237e-12 0)
(7.60865e-05 1.90767e-12 0)
(7.60932e-05 1.95281e-12 0)
(7.60999e-05 1.99762e-12 0)
(7.61065e-05 2.04205e-12 0)
(7.61149e-05 2.08637e-12 0)
(7.61232e-05 2.13054e-12 0)
(7.61324e-05 2.17434e-12 0)
(7.61424e-05 2.21784e-12 0)
(7.61525e-05 2.26118e-12 0)
(7.61641e-05 2.30422e-12 0)
(7.61775e-05 2.34697e-12 0)
(7.61909e-05 2.38951e-12 0)
(7.62059e-05 2.43187e-12 0)
(7.62218e-05 2.47392e-12 0)
(7.62393e-05 2.51569e-12 0)
(7.62577e-05 2.55707e-12 0)
(7.62786e-05 2.59814e-12 0)
(7.63004e-05 2.63908e-12 0)
(7.63246e-05 2.67977e-12 0)
(7.63506e-05 2.72014e-12 0)
(7.63782e-05 2.76019e-12 0)
(7.64092e-05 2.79991e-12 0)
(7.64419e-05 2.83944e-12 0)
(7.64779e-05 2.87868e-12 0)
(7.65165e-05 2.91751e-12 0)
(7.65584e-05 2.95603e-12 0)
(7.66037e-05 2.99427e-12 0)
(7.66533e-05 3.03214e-12 0)
(7.6707e-05 3.06963e-12 0)
(7.67651e-05 3.10678e-12 0)
(7.68273e-05 3.14362e-12 0)
(7.68955e-05 3.18021e-12 0)
(7.69697e-05 3.21638e-12 0)
(7.70489e-05 3.25229e-12 0)
(7.71359e-05 3.28823e-12 0)
(7.72297e-05 3.32374e-12 0)
(7.7332e-05 4.11387e-12 0)
(7.74421e-05 -1.7174e-11 0)
(7.75617e-05 1.27664e-10 0)
(7.76917e-05 -4.80888e-10 0)
(7.78329e-05 2.04444e-09 0)
(7.79854e-05 -8.65992e-09 0)
(7.81355e-05 3.62678e-08 0)
(7.85728e-05 1.62364e-07 0)
(7.9736e-05 6.09414e-08 0)
(8.12325e-05 -8.38714e-08 0)
(8.2519e-05 -8.27504e-08 0)
(8.3542e-05 -4.19974e-08 0)
(8.44237e-05 -1.18499e-08 0)
(8.52677e-05 5.60533e-09 0)
(8.61382e-05 1.30937e-08 0)
(8.70647e-05 1.25061e-08 0)
(8.8049e-05 7.57903e-09 0)
(8.9078e-05 3.07221e-09 0)
(9.01388e-05 1.57783e-09 0)
(9.12286e-05 2.84322e-09 0)
(9.23542e-05 5.30658e-09 0)
(9.35267e-05 7.53711e-09 0)
(9.4757e-05 8.81377e-09 0)
(9.60527e-05 9.11506e-09 0)
(9.74178e-05 8.8229e-09 0)
(9.88539e-05 8.35722e-09 0)
(0.000100362 7.9744e-09 0)
(0.000101943 7.74225e-09 0)
(0.000103599 7.62539e-09 0)
(0.000105333 7.59946e-09 0)
(0.000107148 7.68921e-09 0)
(0.00010905 7.93917e-09 0)
(0.000111045 8.38096e-09 0)
(0.000113143 9.01675e-09 0)
(0.000115354 9.81859e-09 0)
(0.000117691 1.07354e-08 0)
(0.000120171 1.16941e-08 0)
(0.00012281 1.2602e-08 0)
(0.000125629 1.33809e-08 0)
(0.000128649 1.40502e-08 0)
(0.000131895 1.48395e-08 0)
(0.000135398 1.62392e-08 0)
(0.000139199 1.88291e-08 0)
(0.00014336 2.27169e-08 0)
(0.000147961 2.65399e-08 0)
(0.000153101 2.6373e-08 0)
(0.000158856 1.61774e-08 0)
(0.00016523 -7.06975e-09 0)
(0.000172116 -3.44145e-08 0)
(0.000179405 -4.55674e-08 0)
(0.000187293 -2.51748e-08 0)
(0.000196843 3.55861e-08 0)
(0.000211426 1.7955e-07 0)
(0.000243241 5.10134e-07 0)
(0.000355011 9.82392e-07 0)
(0.00103343 6.69586e-07 0)
(0.00653802 -1.59755e-06 0)
(0.0341812 -1.424e-06 0)
(0.0949524 -1.03125e-07 0)
(0.172182 4.28668e-07 0)
(0.253032 1.10472e-06 0)
(0.334236 1.55736e-06 0)
(0.415321 -6.8226e-06 0)
(0.496594 3.27978e-06 0)
(0.572349 -4.88969e-07 0)
(0.635626 -1.56872e-05 0)
(0.680993 6.45653e-06 0)
(0.698801 1.03119e-05 0)
(0.705824 4.48788e-07 0)
(0.712265 2.3914e-06 0)
(0.718975 -4.7809e-06 0)
(0.726084 7.3882e-06 0)
(0.733466 -9.04964e-06 0)
(0.741477 6.50978e-06 0)
(0.750038 -2.51918e-06 0)
(0.761112 -4.49786e-06 0)
(0.779723 0.00011281 0)
(0.810967 -0.000401558 0)
(0.855519 0.000818093 0)
(0.901734 -0.000567119 0)
(0.947504 0.000383303 0)
(0.987964 -0.000216183 0)
(1.02313 7.96159e-05 0)
(1.05316 3.21597e-05 0)
(1.07838 -0.000121582 0)
(1.09886 0.000192064 0)
(1.11519 -0.000246061 0)
(1.12786 0.000286235 0)
(1.13778 -0.000315197 0)
(1.14562 0.000337372 0)
(1.15205 -0.000352095 0)
(1.15752 0.000353792 0)
(1.16226 -0.000345142 0)
(1.16648 0.000333851 0)
(1.17025 -0.00032105 0)
(1.17369 0.000307407 0)
(1.17679 -0.00029329 0)
(1.17964 0.000278601 0)
(1.18224 -0.000262867 0)
(1.18463 0.000246539 0)
(1.18682 -0.00022996 0)
(1.18883 0.000213438 0)
(1.19069 -0.000197189 0)
(1.1924 0.000181403 0)
(1.19398 -0.000166209 0)
(1.19543 0.000151709 0)
(1.19678 -0.000137971 0)
(1.19802 0.000125039 0)
(1.19916 -0.000112935 0)
(1.20022 0.000101666 0)
(1.2012 -9.12229e-05 0)
(1.2021 8.15881e-05 0)
(1.20293 -7.27352e-05 0)
(1.2037 6.46331e-05 0)
(1.20441 -5.72437e-05 0)
(1.20507 5.05281e-05 0)
(1.20568 -4.44451e-05 0)
(1.20624 3.89534e-05 0)
(1.20676 -3.40101e-05 0)
(1.20724 2.95735e-05 0)
(1.20768 -2.56021e-05 0)
(1.20809 2.20574e-05 0)
(1.20846 -1.8902e-05 0)
(1.20881 1.61005e-05 0)
(1.20914 -1.36188e-05 0)
(1.20943 1.1425e-05 0)
(1.20971 -9.70026e-06 0)
(1.20997 8.17494e-06 0)
(1.21022 -6.82907e-06 0)
(1.21045 5.64464e-06 0)
(1.21066 -4.605e-06 0)
(1.21087 3.696e-06 0)
(1.21105 -2.90509e-06 0)
(1.21123 2.2107e-06 0)
(1.21139 -1.59577e-06 0)
(1.21154 1.04924e-06 0)
(1.21168 -5.78693e-07 0)
(1.21181 1.79816e-07 0)
(1.21193 1.55354e-07 0)
(1.21204 -4.24483e-07 0)
(1.21214 6.30198e-07 0)
(1.21223 -7.69364e-07 0)
(1.21231 8.01099e-07 0)
(1.21239 -7.64927e-07 0)
(1.21246 7.16405e-07 0)
(1.21252 -6.63111e-07 0)
(1.21258 6.0876e-07 0)
(1.21263 -5.55259e-07 0)
(1.21268 5.04027e-07 0)
(1.21272 -4.55296e-07 0)
(1.21276 4.09409e-07 0)
(1.21279 -3.66328e-07 0)
(1.21282 3.26597e-07 0)
(1.21285 -2.90261e-07 0)
(1.21287 2.57091e-07 0)
(1.21289 -2.26153e-07 0)
(1.21291 1.98399e-07 0)
(1.21293 -1.73715e-07 0)
(1.21294 1.51116e-07 0)
(1.21295 -1.30828e-07 0)
(1.21296 1.12971e-07 0)
(1.21297 -9.68968e-08 0)
(1.21298 8.27586e-08 0)
(1.21299 -7.0362e-08 0)
(1.21299 5.94306e-08 0)
(1.213 -4.98407e-08 0)
(1.213 4.15499e-08 0)
(1.21301 -3.44605e-08 0)
(1.21301 2.82867e-08 0)
(1.21301 -2.30283e-08 0)
(1.21301 1.85434e-08 0)
(1.21302 -1.47181e-08 0)
(1.21302 1.15338e-08 0)
(1.21302 -8.87673e-09 0)
(1.21302 6.69854e-09 0)
(1.21302 -4.882e-09 0)
(1.21302 3.43713e-09 0)
(1.21302 -2.29345e-09 0)
(1.21302 1.41663e-09 0)
(1.21302 -7.61041e-10 0)
(1.21302 3.22224e-10 0)
(1.21302 -6.1193e-11 0)
(1.21302 -4.34988e-12 0)
(1.21302 7.38918e-12 0)
(1.21302 -2.58213e-12 0)
(1.21302 4.46012e-12 0)
(1.21302 -1.62494e-12 0)
(1.21302 3.8414e-12 0)
(1.21302 5.12235e-13 0)
(1.21302 8.54373e-13 0)
(1.21302 1.86459e-12 0)
(1.21302 5.39963e-13 0)
(1.21302 1.549e-12 0)
(1.21302 8.32499e-13 0)
(1.21302 1.33264e-12 0)
(1.21302 9.60687e-13 0)
(1.21302 1.24076e-12 0)
(1.21302 1.03221e-12 0)
(1.21302 1.17641e-12 0)
(1.21302 1.06836e-12 0)
(1.21302 1.13154e-12 0)
(1.21302 1.07059e-12 0)
(1.21302 1.06617e-12 0)
(1.21302 1.04171e-12 0)
(1.21302 9.97902e-13 0)
(1.21302 9.80247e-13 0)
(1.21302 9.5259e-13 0)
(1.21302 9.31495e-13 0)
(1.21302 8.95742e-13 0)
(1.21302 8.61407e-13 0)
(1.21302 8.2166e-13 0)
(1.21302 7.89994e-13 0)
(1.21302 7.50812e-13 0)
(1.21302 6.93644e-13 0)
(1.21302 6.40247e-13 0)
(1.21302 5.79208e-13 0)
(1.21302 5.11776e-13 0)
(1.21302 4.41333e-13 0)
(1.21302 3.70778e-13 0)
(1.21302 2.98507e-13 0)
(1.21302 2.34668e-13 0)
(1.21302 1.94799e-13 0)
(1.21302 1.75812e-13 0)
(1.21302 1.64161e-13 0)
(1.21302 1.26051e-13 0)
(1.21302 9.03101e-14 0)
(1.21302 8.5617e-14 0)
(1.21302 7.94635e-14 0)
(1.21302 7.25832e-14 0)
(1.21302 6.78193e-14 0)
(1.21302 6.51175e-14 0)
(1.21302 6.1724e-14 0)
(1.21302 5.67189e-14 0)
(1.21302 5.17633e-14 0)
(1.21302 4.63419e-14 0)
(1.21302 3.91597e-14 0)
(1.21302 3.11935e-14 0)
(1.21302 2.57869e-14 0)
(1.21302 2.24991e-14 0)
(1.21302 1.76403e-14 0)
(1.21302 1.02863e-14 0)
(1.21302 2.1847e-15 0)
(1.21302 -6.86952e-15 0)
(1.21302 -1.88548e-14 0)
(1.21302 -3.38396e-14 0)
(1.21302 -4.86939e-14 0)
(1.21302 -6.36169e-14 0)
(1.21302 -8.18998e-14 0)
(1.21302 -1.045e-13 0)
(1.21302 -1.30038e-13 0)
(1.21302 -1.59455e-13 0)
(1.21302 -1.95301e-13 0)
(1.21302 -2.52584e-13 0)
(1.21302 -3.31783e-13 0)
(1.21302 -4.39052e-13 0)
(1.21302 -5.74973e-13 0)
(1.21302 -7.31162e-13 0)
(1.21302 -8.95032e-13 0)
(1.21302 -1.07174e-12 0)
(1.21302 -1.27269e-12 0)
(1.21302 -1.49155e-12 0)
(1.21302 -1.71197e-12 0)
(1.21302 -1.93172e-12 0)
(1.21302 -2.16731e-12 0)
(1.21302 -2.4164e-12 0)
(1.21302 -2.68736e-12 0)
(1.21302 -2.95835e-12 0)
(1.21302 -3.23168e-12 0)
(1.21302 -3.50509e-12 0)
(1.21302 -3.89307e-12 0)
(1.21302 -4.3467e-12 0)
(1.21302 -4.74961e-12 0)
(1.21302 -5.02851e-12 0)
(1.21302 -5.30306e-12 0)
(1.21302 -5.50896e-12 0)
(1.21302 -5.53145e-12 0)
(1.21302 -5.39185e-12 0)
(1.21302 -5.3885e-12 0)
(1.21302 -5.43099e-12 0)
(1.21302 -5.19889e-12 0)
(1.21302 -4.62766e-12 0)
(1.21302 -3.84695e-12 0)
(1.21302 -2.94851e-12 0)
(1.21302 -1.89006e-12 0)
(1.21302 -6.99255e-13 0)
)
;

boundaryField
{
    inandouthalf11
    {
        type            cyclic;
    }
    inandouthalf12
    {
        type            cyclic;
    }
    inandouthalf21
    {
        type            cyclic;
    }
    inandouthalf22
    {
        type            cyclic;
    }
    inandouthalf31
    {
        type            cyclic;
    }
    inandouthalf32
    {
        type            cyclic;
    }
    inandouthalf41
    {
        type            cyclic;
    }
    inandouthalf42
    {
        type            cyclic;
    }
    top
    {
        type            symmetryPlane;
    }
    walls
    {
        type            calculated;
        value           uniform (0 0 0);
    }
    frontAndBackPlanes
    {
        type            empty;
    }
}


// ************************************************************************* //
