/*--------------------------------*- C++ -*----------------------------------*\
| =========                 |                                                 |
| \\      /  F ield         | OpenFOAM: The Open Source CFD Toolbox           |
|  \\    /   O peration     | Version:  2.4.x                                 |
|   \\  /    A nd           | Web:      www.OpenFOAM.org                      |
|    \\/     M anipulation  |                                                 |
\*---------------------------------------------------------------------------*/
FoamFile
{
    version     2.0;
    format      ascii;
    class       volVectorField;
    location    "1";
    object      Ua;
}
// * * * * * * * * * * * * * * * * * * * * * * * * * * * * * * * * * * * * * //

dimensions      [0 1 -1 0 0 0 0];

internalField   nonuniform List<vector> 
360
(
(8.38073e-37 -2.93465e-36 0)
(8.38047e-37 -2.9317e-36 0)
(8.3807e-37 -2.93177e-36 0)
(8.3815e-37 -2.9317e-36 0)
(8.38291e-37 -2.93168e-36 0)
(8.38494e-37 -2.93171e-36 0)
(8.38759e-37 -2.93179e-36 0)
(8.39086e-37 -2.93191e-36 0)
(8.39475e-37 -2.93207e-36 0)
(8.39928e-37 -2.93228e-36 0)
(8.40443e-37 -2.93252e-36 0)
(8.41022e-37 -2.93281e-36 0)
(8.41664e-37 -2.93313e-36 0)
(8.4237e-37 -2.93349e-36 0)
(8.4314e-37 -2.93388e-36 0)
(8.43975e-37 -2.93431e-36 0)
(8.44873e-37 -2.93478e-36 0)
(8.45836e-37 -2.93527e-36 0)
(8.46864e-37 -2.9358e-36 0)
(8.47957e-37 -2.93636e-36 0)
(8.49115e-37 -2.93695e-36 0)
(8.50339e-37 -2.93757e-36 0)
(8.51628e-37 -2.93821e-36 0)
(8.52984e-37 -2.93889e-36 0)
(8.54406e-37 -2.9396e-36 0)
(8.55894e-37 -2.94033e-36 0)
(8.57449e-37 -2.94108e-36 0)
(8.59071e-37 -2.94187e-36 0)
(8.6076e-37 -2.94268e-36 0)
(8.62518e-37 -2.94352e-36 0)
(8.64344e-37 -2.94438e-36 0)
(8.66238e-37 -2.94527e-36 0)
(8.68201e-37 -2.94618e-36 0)
(8.70234e-37 -2.94712e-36 0)
(8.72337e-37 -2.94809e-36 0)
(8.74511e-37 -2.94909e-36 0)
(8.76757e-37 -2.95011e-36 0)
(8.79075e-37 -2.95117e-36 0)
(8.81466e-37 -2.95226e-36 0)
(8.83932e-37 -2.95338e-36 0)
(8.86473e-37 -2.95454e-36 0)
(8.8909e-37 -2.95574e-36 0)
(8.91785e-37 -2.95697e-36 0)
(8.94559e-37 -2.95825e-36 0)
(8.97414e-37 -2.95957e-36 0)
(9.00351e-37 -2.96094e-36 0)
(9.03372e-37 -2.96237e-36 0)
(9.0648e-37 -2.96385e-36 0)
(9.09676e-37 -2.96539e-36 0)
(9.12964e-37 -2.967e-36 0)
(9.16348e-37 -2.96869e-36 0)
(9.19831e-37 -2.97046e-36 0)
(9.23417e-37 -2.97232e-36 0)
(9.27111e-37 -2.97428e-36 0)
(9.30917e-37 -2.97634e-36 0)
(9.34842e-37 -2.97853e-36 0)
(9.38894e-37 -2.98085e-36 0)
(9.43081e-37 -2.98333e-36 0)
(9.47412e-37 -2.98597e-36 0)
(9.51898e-37 -2.9888e-36 0)
(9.56553e-37 -2.99183e-36 0)
(9.61392e-37 -2.99511e-36 0)
(9.66435e-37 -2.99866e-36 0)
(9.71701e-37 -3.00252e-36 0)
(9.77221e-37 -3.00673e-36 0)
(9.83021e-37 -3.01135e-36 0)
(9.89153e-37 -3.01645e-36 0)
(9.95653e-37 -3.02211e-36 0)
(1.00261e-36 -3.02846e-36 0)
(1.01007e-36 -3.03556e-36 0)
(1.01821e-36 -3.04373e-36 0)
(1.02706e-36 -3.05299e-36 0)
(1.03705e-36 -3.06408e-36 0)
(1.04818e-36 -3.07682e-36 0)
(1.06195e-36 -3.09368e-36 0)
(1.07887e-36 -3.11486e-36 0)
(1.10622e-36 -3.15118e-36 0)
(1.16304e-36 -3.22639e-36 0)
(1.51722e-36 -3.73728e-36 0)
(7.64996e-36 -1.31367e-35 0)
(1.52997e-32 -2.51939e-32 0)
(5.73629e-16 -1.00994e-15 0)
(3.51259e-07 -6.41437e-07 0)
(1.53277e-06 -2.74033e-06 0)
(3.08012e-06 -5.26683e-06 0)
(4.37445e-06 -7.20185e-06 0)
(5.35472e-06 -8.59376e-06 0)
(6.16361e-06 -9.72409e-06 0)
(6.92296e-06 -1.07873e-05 0)
(7.70873e-06 -1.18938e-05 0)
(8.55697e-06 -1.30892e-05 0)
(9.47003e-06 -1.43672e-05 0)
(1.04309e-05 -1.56942e-05 0)
(1.14225e-05 -1.70418e-05 0)
(1.24394e-05 -1.84019e-05 0)
(1.34876e-05 -1.97841e-05 0)
(1.45793e-05 -2.12052e-05 0)
(1.57264e-05 -2.26798e-05 0)
(1.6937e-05 -2.4216e-05 0)
(1.82152e-05 -2.58158e-05 0)
(1.95623e-05 -2.74775e-05 0)
(2.09789e-05 -2.91983e-05 0)
(2.24658e-05 -3.09762e-05 0)
(2.4025e-05 -3.28101e-05 0)
(2.56592e-05 -3.46994e-05 0)
(2.73721e-05 -3.66444e-05 0)
(2.91687e-05 -3.86459e-05 0)
(3.10557e-05 -4.0706e-05 0)
(3.30416e-05 -4.28281e-05 0)
(3.51371e-05 -4.50169e-05 0)
(3.73551e-05 -4.72783e-05 0)
(3.97111e-05 -4.9619e-05 0)
(4.22224e-05 -5.20462e-05 0)
(4.49086e-05 -5.45666e-05 0)
(4.77915e-05 -5.71862e-05 0)
(5.08957e-05 -5.99104e-05 0)
(5.42517e-05 -6.2745e-05 0)
(5.79009e-05 -6.57e-05 0)
(6.19023e-05 -6.87937e-05 0)
(6.63371e-05 -7.20543e-05 0)
(7.13001e-05 -7.55118e-05 0)
(7.68694e-05 -7.91722e-05 0)
(8.30519e-05 -8.29742e-05 0)
(8.97525e-05 -8.67595e-05 0)
(9.68713e-05 -9.03259e-05 0)
(0.000104611 -9.35693e-05 0)
(0.000114021 -9.65931e-05 0)
(0.00012844 -9.97114e-05 0)
(0.000159956 -0.000103443 0)
(0.000270912 -0.000108667 0)
(0.000944877 -0.000117143 0)
(0.00642459 -0.000130644 0)
(0.0340102 -0.000144269 0)
(0.094743 -0.000163886 0)
(0.171964 -0.000190155 0)
(0.252814 -0.000219998 0)
(0.334017 -0.000264863 0)
(0.415091 -0.000390755 0)
(0.496323 -0.000697014 0)
(0.57209 -0.000953798 0)
(0.635391 -0.00117102 0)
(0.680828 -0.00163212 0)
(0.698707 -0.00198052 0)
(0.705727 -0.00209753 0)
(0.712164 -0.0021982 0)
(0.71887 -0.0022931 0)
(0.725973 -0.00241259 0)
(0.733353 -0.00250712 0)
(0.741357 -0.00264911 0)
(0.749916 -0.00277226 0)
(0.761 -0.00291057 0)
(0.779664 -0.00301141 0)
(0.810969 -0.00309416 0)
(0.855799 -0.00807984 0)
(0.896647 -0.00888863 0)
(0.928161 -0.0131459 0)
(0.955092 -0.0165575 0)
(0.97857 -0.0188823 0)
(0.99929 -0.0206122 0)
(1.01764 -0.0219797 0)
(1.03391 -0.0231098 0)
(1.04823 -0.0240695 0)
(1.06088 -0.0249188 0)
(1.07203 -0.0256774 0)
(1.08192 -0.0263679 0)
(1.09067 -0.0269968 0)
(1.09847 -0.0275809 0)
(1.10546 -0.0281185 0)
(1.11172 -0.0286169 0)
(1.11737 -0.0290806 0)
(1.12246 -0.0295104 0)
(1.12707 -0.0299115 0)
(1.13124 -0.0302841 0)
(1.13503 -0.0306327 0)
(1.13847 -0.0309569 0)
(1.1416 -0.0312602 0)
(1.14444 -0.031543 0)
(1.14704 -0.0318087 0)
(1.14939 -0.0320559 0)
(1.15154 -0.0322883 0)
(1.1535 -0.0325059 0)
(1.15527 -0.0327099 0)
(1.15689 -0.0329015 0)
(1.15836 -0.0330811 0)
(1.1597 -0.0332503 0)
(1.16091 -0.0334093 0)
(1.16202 -0.033559 0)
(1.16301 -0.0336997 0)
(1.16392 -0.0338327 0)
(1.16474 -0.0339582 0)
(1.16548 -0.0340763 0)
(1.16615 -0.0341877 0)
(1.16677 -0.0342935 0)
(1.16732 -0.034393 0)
(1.16782 -0.0344869 0)
(1.16828 -0.0345763 0)
(1.1687 -0.0346605 0)
(1.16908 -0.0347398 0)
(1.16944 -0.0348153 0)
(1.16976 -0.0348861 0)
(1.17007 -0.0349531 0)
(1.17036 -0.0350171 0)
(1.17065 -0.0350787 0)
(1.17092 -0.0351376 0)
(1.17118 -0.0351941 0)
(1.17144 -0.0352493 0)
(1.17169 -0.0353021 0)
(1.17193 -0.0353525 0)
(1.17217 -0.0354019 0)
(1.1724 -0.0354495 0)
(1.17263 -0.0354948 0)
(1.17286 -0.0355391 0)
(1.17308 -0.0355823 0)
(1.1733 -0.0356236 0)
(1.17353 -0.035664 0)
(1.17375 -0.0357031 0)
(1.17398 -0.0357412 0)
(1.17421 -0.0357783 0)
(1.17444 -0.0358146 0)
(1.17467 -0.0358502 0)
(1.17491 -0.0358849 0)
(1.17516 -0.0359189 0)
(1.17541 -0.0359523 0)
(1.17567 -0.0359855 0)
(1.17593 -0.0360184 0)
(1.17621 -0.0360508 0)
(1.17649 -0.0360828 0)
(1.17678 -0.0361147 0)
(1.17709 -0.0361471 0)
(1.17741 -0.0361798 0)
(1.17774 -0.0362111 0)
(1.17808 -0.0362434 0)
(1.17844 -0.0362772 0)
(1.17881 -0.03631 0)
(1.17919 -0.0363434 0)
(1.1796 -0.0363782 0)
(1.18001 -0.0364128 0)
(1.18045 -0.0364488 0)
(1.18091 -0.036486 0)
(1.18138 -0.0365239 0)
(1.18187 -0.0365626 0)
(1.18239 -0.036603 0)
(1.18294 -0.036646 0)
(1.1835 -0.0366891 0)
(1.18409 -0.0367347 0)
(1.1847 -0.0367813 0)
(1.18534 -0.0368289 0)
(1.18599 -0.0368781 0)
(1.18667 -0.0369285 0)
(1.18737 -0.0369794 0)
(1.18805 -0.037028 0)
(1.18873 -0.0370751 0)
(1.18938 -0.0371192 0)
(1.18997 -0.0371553 0)
(1.19075 -0.037206 0)
(1.20932 -0.0395094 0)
(1.20932 -0.0395094 0)
(1.20932 -0.0395094 0)
(1.20932 -0.0395094 0)
(1.20932 -0.0395094 0)
(1.20932 -0.0395094 0)
(1.20932 -0.0395094 0)
(1.20932 -0.0395094 0)
(1.20932 -0.0395094 0)
(1.20932 -0.0395094 0)
(1.20932 -0.0395094 0)
(1.20932 -0.0395094 0)
(1.20932 -0.0395094 0)
(1.20932 -0.0395094 0)
(1.20932 -0.0395094 0)
(1.20932 -0.0395094 0)
(1.20932 -0.0395094 0)
(1.20932 -0.0395094 0)
(1.20932 -0.0395094 0)
(1.20932 -0.0395094 0)
(1.20932 -0.0395094 0)
(1.20932 -0.0395094 0)
(1.20932 -0.0395094 0)
(1.20932 -0.0395094 0)
(1.20932 -0.0395094 0)
(1.20932 -0.0395094 0)
(1.20932 -0.0395094 0)
(1.20932 -0.0395094 0)
(1.20932 -0.0395094 0)
(1.20932 -0.0395094 0)
(1.20932 -0.0395094 0)
(1.20932 -0.0395094 0)
(1.20932 -0.0395094 0)
(1.20932 -0.0395094 0)
(1.20932 -0.0395094 0)
(1.20932 -0.0395094 0)
(1.20932 -0.0395094 0)
(1.20932 -0.0395094 0)
(1.20932 -0.0395094 0)
(1.20932 -0.0395094 0)
(1.20932 -0.0395094 0)
(1.20932 -0.0395094 0)
(1.20932 -0.0395094 0)
(1.20932 -0.0395094 0)
(1.20932 -0.0395094 0)
(1.20932 -0.0395094 0)
(1.20932 -0.0395094 0)
(1.20932 -0.0395094 0)
(1.20932 -0.0395094 0)
(1.20932 -0.0395094 0)
(1.20932 -0.0395094 0)
(1.20932 -0.0395094 0)
(1.20932 -0.0395094 0)
(1.20932 -0.0395094 0)
(1.20932 -0.0395094 0)
(1.20932 -0.0395094 0)
(1.20932 -0.0395094 0)
(1.20932 -0.0395094 0)
(1.20932 -0.0395094 0)
(1.20932 -0.0395094 0)
(1.20932 -0.0395094 0)
(1.20932 -0.0395094 0)
(1.20932 -0.0395094 0)
(1.20932 -0.0395094 0)
(1.20932 -0.0395094 0)
(1.20932 -0.0395094 0)
(1.20932 -0.0395094 0)
(1.20932 -0.0395094 0)
(1.20932 -0.0395094 0)
(1.20932 -0.0395094 0)
(1.20932 -0.0395094 0)
(1.20932 -0.0395094 0)
(1.20932 -0.0395094 0)
(1.20932 -0.0395094 0)
(1.20932 -0.0395094 0)
(1.20932 -0.0395094 0)
(1.20932 -0.0395094 0)
(1.20932 -0.0395094 0)
(1.20932 -0.0395094 0)
(1.20932 -0.0395094 0)
(1.20932 -0.0395094 0)
(1.20932 -0.0395094 0)
(1.20932 -0.0395094 0)
(1.20932 -0.0395094 0)
(1.20932 -0.0395094 0)
(1.20932 -0.0395094 0)
(1.20932 -0.0395094 0)
(1.20932 -0.0395094 0)
(1.20932 -0.0395094 0)
(1.20932 -0.0395094 0)
(1.20932 -0.0395094 0)
(1.20932 -0.0395094 0)
(1.20932 -0.0395094 0)
(1.20932 -0.0395094 0)
(1.20932 -0.0395094 0)
(1.20932 -0.0395094 0)
(1.20932 -0.0395094 0)
(1.20932 -0.0395094 0)
(1.20932 -0.0395094 0)
(1.20932 -0.0395094 0)
(1.20932 -0.0395094 0)
(1.20932 -0.0395092 0)
(1.20932 -0.0395007 0)
(1.20929 -0.0391552 0)
(1.2087 -0.0224196 0)
)
;

boundaryField
{
    inandouthalf11
    {
        type            cyclic;
    }
    inandouthalf12
    {
        type            cyclic;
    }
    inandouthalf21
    {
        type            cyclic;
    }
    inandouthalf22
    {
        type            cyclic;
    }
    inandouthalf31
    {
        type            cyclic;
    }
    inandouthalf32
    {
        type            cyclic;
    }
    inandouthalf41
    {
        type            cyclic;
    }
    inandouthalf42
    {
        type            cyclic;
    }
    top
    {
        type            symmetryPlane;
    }
    walls
    {
        type            fixedValue;
        value           uniform (0 0 0);
    }
    frontAndBackPlanes
    {
        type            empty;
    }
}


// ************************************************************************* //
