/*--------------------------------*- C++ -*----------------------------------*\
| =========                 |                                                 |
| \\      /  F ield         | OpenFOAM: The Open Source CFD Toolbox           |
|  \\    /   O peration     | Version:  2.4.x                                 |
|   \\  /    A nd           | Web:      www.OpenFOAM.org                      |
|    \\/     M anipulation  |                                                 |
\*---------------------------------------------------------------------------*/
FoamFile
{
    version     2.0;
    format      ascii;
    class       volVectorField;
    location    "1";
    object      Ub;
}
// * * * * * * * * * * * * * * * * * * * * * * * * * * * * * * * * * * * * * //

dimensions      [0 1 -1 0 0 0 0];

internalField   nonuniform List<vector> 
360
(
(0.00019458 6.312e-14 0)
(0.000194912 1.89611e-13 0)
(0.000194914 3.16699e-13 0)
(0.000194914 4.44053e-13 0)
(0.000194914 5.7156e-13 0)
(0.000194915 6.99348e-13 0)
(0.000194915 8.2694e-13 0)
(0.000194917 9.54799e-13 0)
(0.000194917 1.08262e-12 0)
(0.000194918 1.21014e-12 0)
(0.00019492 1.33766e-12 0)
(0.00019492 1.465e-12 0)
(0.000194922 1.59182e-12 0)
(0.000194923 1.71833e-12 0)
(0.000194925 1.84487e-12 0)
(0.000194927 1.9711e-12 0)
(0.000194928 2.09719e-12 0)
(0.00019493 2.22319e-12 0)
(0.000194932 2.34887e-12 0)
(0.000194935 2.47439e-12 0)
(0.000194937 2.59955e-12 0)
(0.00019494 2.724e-12 0)
(0.000194943 2.8481e-12 0)
(0.000194946 2.97218e-12 0)
(0.00019495 3.09569e-12 0)
(0.000194953 3.21863e-12 0)
(0.000194956 3.34138e-12 0)
(0.000194961 3.46391e-12 0)
(0.000194966 3.58594e-12 0)
(0.000194971 3.70741e-12 0)
(0.000194976 3.82809e-12 0)
(0.000194982 3.94814e-12 0)
(0.000194987 4.06768e-12 0)
(0.000194996 4.18677e-12 0)
(0.000195002 4.30514e-12 0)
(0.00019501 4.42334e-12 0)
(0.000195018 4.54079e-12 0)
(0.000195028 4.6577e-12 0)
(0.00019504 4.77431e-12 0)
(0.00019505 4.89036e-12 0)
(0.000195063 5.00597e-12 0)
(0.000195076 5.12073e-12 0)
(0.000195089 5.23453e-12 0)
(0.000195105 5.348e-12 0)
(0.000195122 5.46108e-12 0)
(0.00019514 5.57319e-12 0)
(0.000195159 5.68452e-12 0)
(0.000195179 5.79541e-12 0)
(0.000195202 5.90551e-12 0)
(0.000195228 6.01482e-12 0)
(0.000195255 6.1236e-12 0)
(0.000195284 6.23187e-12 0)
(0.000195315 6.33933e-12 0)
(0.00019535 6.44601e-12 0)
(0.000195386 6.55167e-12 0)
(0.000195427 6.65647e-12 0)
(0.00019547 6.76091e-12 0)
(0.000195517 6.86463e-12 0)
(0.000195568 6.9675e-12 0)
(0.000195622 7.06949e-12 0)
(0.000195683 7.17055e-12 0)
(0.000195747 7.27105e-12 0)
(0.000195818 7.37073e-12 0)
(0.000195894 7.46925e-12 0)
(0.000195976 7.56691e-12 0)
(0.000196065 7.66373e-12 0)
(0.000196162 7.75949e-12 0)
(0.000196268 7.85414e-12 0)
(0.000196381 7.94779e-12 0)
(0.000196503 8.04053e-12 0)
(0.000196637 8.13243e-12 0)
(0.000196782 8.22307e-12 0)
(0.000196938 8.31287e-12 0)
(0.000197108 8.40254e-12 0)
(0.000197292 8.49087e-12 0)
(0.000197492 1.05061e-11 0)
(0.000197708 -4.38447e-11 0)
(0.000197942 3.25805e-10 0)
(0.000198196 -1.22677e-09 0)
(0.000198472 5.21328e-09 0)
(0.00019877 -2.20726e-08 0)
(0.000199064 9.23986e-08 0)
(0.000199583 1.40586e-06 0)
(0.000200729 4.39497e-06 0)
(0.000202178 7.93705e-06 0)
(0.000203457 1.09349e-05 0)
(0.000204521 1.31901e-05 0)
(0.000205472 1.50105e-05 0)
(0.000206396 1.66925e-05 0)
(0.000207347 1.84146e-05 0)
(0.000208348 2.02529e-05 0)
(0.0002094 2.22068e-05 0)
(0.000210494 2.42367e-05 0)
(0.00021162 2.63044e-05 0)
(0.00021278 2.83965e-05 0)
(0.000213979 3.05237e-05 0)
(0.000215228 3.27081e-05 0)
(0.000216538 3.49704e-05 0)
(0.000217914 3.7323e-05 0)
(0.000219362 3.97697e-05 0)
(0.000220883 4.23087e-05 0)
(0.000222477 4.49362e-05 0)
(0.000224148 4.7649e-05 0)
(0.000225895 5.04449e-05 0)
(0.000227723 5.3323e-05 0)
(0.000229636 5.62833e-05 0)
(0.000231637 5.93269e-05 0)
(0.000233735 6.24569e-05 0)
(0.000235939 6.56782e-05 0)
(0.000238258 6.89974e-05 0)
(0.000240708 7.24232e-05 0)
(0.000243304 7.59651e-05 0)
(0.000246064 7.96333e-05 0)
(0.000249007 8.34376e-05 0)
(0.000252156 8.73865e-05 0)
(0.000255536 9.1488e-05 0)
(0.000259177 9.57519e-05 0)
(0.000263122 0.000100194 0)
(0.000267432 0.000104841 0)
(0.00027219 0.000109731 0)
(0.000277496 0.000114898 0)
(0.000283426 0.000120334 0)
(0.000289978 0.00012594 0)
(0.000297038 0.000131503 0)
(0.000304487 0.000136777 0)
(0.000312515 0.000141647 0)
(0.0003222 0.000146291 0)
(0.000336951 0.000151275 0)
(0.000369107 0.000157611 0)
(0.000481932 0.000166464 0)
(0.00116683 0.00017813 0)
(0.00670849 0.000192332 0)
(0.0344373 0.000212524 0)
(0.0952642 0.000243792 0)
(0.172504 0.000282206 0)
(0.253352 0.000325375 0)
(0.334554 0.000387828 0)
(0.415646 0.000536381 0)
(0.496946 0.000909955 0)
(0.572669 0.00117587 0)
(0.635904 0.00135291 0)
(0.681171 0.00178226 0)
(0.698897 0.0020477 0)
(0.705921 0.00209264 0)
(0.712365 0.00214425 0)
(0.719076 0.00217817 0)
(0.726187 0.00224999 0)
(0.73357 0.00226803 0)
(0.741582 0.00235053 0)
(0.750142 0.00238904 0)
(0.761206 0.00243926 0)
(0.779771 0.00265874 0)
(0.810965 0.00200108 0)
(0.85543 0.00362904 0)
(0.901776 -0.000497265 0)
(0.947547 0.000413615 0)
(0.988015 -0.000190532 0)
(1.02319 0.000103737 0)
(1.05322 5.39358e-05 0)
(1.07843 -0.000102165 0)
(1.09891 0.000210732 0)
(1.11523 -0.000229838 0)
(1.12791 0.000301859 0)
(1.13781 -0.000301554 0)
(1.14565 0.000350718 0)
(1.15208 -0.000340508 0)
(1.15754 0.000364823 0)
(1.16228 -0.000335088 0)
(1.1665 0.000343105 0)
(1.17027 -0.000312466 0)
(1.1737 0.000315273 0)
(1.17681 -0.000285973 0)
(1.17965 0.00028528 0)
(1.18225 -0.000256639 0)
(1.18464 0.000252246 0)
(1.18683 -0.000224626 0)
(1.18884 0.000218264 0)
(1.1907 -0.000192672 0)
(1.19241 0.000185604 0)
(1.19399 -0.000162426 0)
(1.19544 0.000155318 0)
(1.19678 -0.000134746 0)
(1.19802 0.000128128 0)
(1.19917 -0.000110184 0)
(1.20022 0.000104286 0)
(1.2012 -8.88741e-05 0)
(1.2021 8.38339e-05 0)
(1.20293 -7.07207e-05 0)
(1.2037 6.65243e-05 0)
(1.20442 -5.55298e-05 0)
(1.20507 5.2167e-05 0)
(1.20568 -4.29765e-05 0)
(1.20624 4.03086e-05 0)
(1.20676 -3.27223e-05 0)
(1.20724 3.0735e-05 0)
(1.20768 -2.45391e-05 0)
(1.20809 2.30704e-05 0)
(1.20847 -1.79891e-05 0)
(1.20881 1.69446e-05 0)
(1.20914 -1.28215e-05 0)
(1.20943 1.21393e-05 0)
(1.20971 -9.03007e-06 0)
(1.20997 8.78354e-06 0)
(1.21022 -6.25019e-06 0)
(1.21045 6.16139e-06 0)
(1.21066 -4.13848e-06 0)
(1.21087 4.13868e-06 0)
(1.21105 -2.50412e-06 0)
(1.21123 2.56378e-06 0)
(1.21139 -1.26401e-06 0)
(1.21154 1.35394e-06 0)
(1.21168 -3.14086e-07 0)
(1.21181 4.2509e-07 0)
(1.21193 3.78124e-07 0)
(1.21204 -2.28868e-07 0)
(1.21214 8.12073e-07 0)
(1.21223 -6.11904e-07 0)
(1.21231 9.46644e-07 0)
(1.21239 -6.399e-07 0)
(1.21246 8.31802e-07 0)
(1.21252 -5.63647e-07 0)
(1.21258 7.00461e-07 0)
(1.21263 -4.77819e-07 0)
(1.21268 5.74545e-07 0)
(1.21272 -3.95474e-07 0)
(1.21276 4.64397e-07 0)
(1.21279 -3.19781e-07 0)
(1.21282 3.68113e-07 0)
(1.21285 -2.56116e-07 0)
(1.21287 2.88382e-07 0)
(1.21289 -1.98512e-07 0)
(1.21291 2.20668e-07 0)
(1.21293 -1.5421e-07 0)
(1.21294 1.68644e-07 0)
(1.21295 -1.16605e-07 0)
(1.21296 1.25249e-07 0)
(1.21297 -8.61175e-08 0)
(1.21298 9.13518e-08 0)
(1.21299 -6.2744e-08 0)
(1.21299 6.56252e-08 0)
(1.213 -4.43681e-08 0)
(1.213 4.57565e-08 0)
(1.21301 -3.07991e-08 0)
(1.21301 3.13294e-08 0)
(1.21301 -2.06108e-08 0)
(1.21301 2.06654e-08 0)
(1.21302 -1.30794e-08 0)
(1.21302 1.29287e-08 0)
(1.21302 -7.82448e-09 0)
(1.21302 7.61388e-09 0)
(1.21302 -4.15397e-09 0)
(1.21302 4.00714e-09 0)
(1.21302 -1.84599e-09 0)
(1.21302 1.79629e-09 0)
(1.21302 -4.77759e-10 0)
(1.21302 5.71296e-10 0)
(1.21302 1.17023e-10 0)
(1.21302 1.43542e-10 0)
(1.21302 1.13513e-10 0)
(1.21302 8.4562e-11 0)
(1.21302 6.75765e-11 0)
(1.21302 5.0466e-11 0)
(1.21302 3.91388e-11 0)
(1.21302 2.85162e-11 0)
(1.21302 2.24638e-11 0)
(1.21302 1.68662e-11 0)
(1.21302 1.25006e-11 0)
(1.21302 9.65884e-12 0)
(1.21302 7.23668e-12 0)
(1.21302 5.64249e-12 0)
(1.21302 4.32496e-12 0)
(1.21302 3.45809e-12 0)
(1.21302 2.73812e-12 0)
(1.21302 2.28742e-12 0)
(1.21302 1.91574e-12 0)
(1.21302 1.66029e-12 0)
(1.21302 1.4652e-12 0)
(1.21302 1.33078e-12 0)
(1.21302 1.21544e-12 0)
(1.21302 1.1257e-12 0)
(1.21302 1.05867e-12 0)
(1.21302 1.0094e-12 0)
(1.21302 9.65606e-13 0)
(1.21302 9.19862e-13 0)
(1.21302 8.75748e-13 0)
(1.21302 8.31815e-13 0)
(1.21302 7.95664e-13 0)
(1.21302 7.54552e-13 0)
(1.21302 6.96108e-13 0)
(1.21302 6.41603e-13 0)
(1.21302 5.80111e-13 0)
(1.21302 5.12326e-13 0)
(1.21302 4.41643e-13 0)
(1.21302 3.70977e-13 0)
(1.21302 2.98614e-13 0)
(1.21302 2.34736e-13 0)
(1.21302 1.94834e-13 0)
(1.21302 1.75833e-13 0)
(1.21302 1.64172e-13 0)
(1.21302 1.26058e-13 0)
(1.21302 9.03135e-14 0)
(1.21302 8.56191e-14 0)
(1.21302 7.94645e-14 0)
(1.21302 7.25837e-14 0)
(1.21302 6.78194e-14 0)
(1.21302 6.51175e-14 0)
(1.21302 6.1724e-14 0)
(1.21302 5.67189e-14 0)
(1.21302 5.17633e-14 0)
(1.21302 4.63419e-14 0)
(1.21302 3.91597e-14 0)
(1.21302 3.11935e-14 0)
(1.21302 2.57869e-14 0)
(1.21302 2.24991e-14 0)
(1.21302 1.76403e-14 0)
(1.21302 1.02863e-14 0)
(1.21302 2.1847e-15 0)
(1.21302 -6.86952e-15 0)
(1.21302 -1.88548e-14 0)
(1.21302 -3.38396e-14 0)
(1.21302 -4.86939e-14 0)
(1.21302 -6.36169e-14 0)
(1.21302 -8.18998e-14 0)
(1.21302 -1.045e-13 0)
(1.21302 -1.30038e-13 0)
(1.21302 -1.59455e-13 0)
(1.21302 -1.95301e-13 0)
(1.21302 -2.52584e-13 0)
(1.21302 -3.31783e-13 0)
(1.21302 -4.39052e-13 0)
(1.21302 -5.74973e-13 0)
(1.21302 -7.31162e-13 0)
(1.21302 -8.95032e-13 0)
(1.21302 -1.07174e-12 0)
(1.21302 -1.27269e-12 0)
(1.21302 -1.49155e-12 0)
(1.21302 -1.71197e-12 0)
(1.21302 -1.93172e-12 0)
(1.21302 -2.16731e-12 0)
(1.21302 -2.4164e-12 0)
(1.21302 -2.68736e-12 0)
(1.21302 -2.95835e-12 0)
(1.21302 -3.23168e-12 0)
(1.21302 -3.50509e-12 0)
(1.21302 -3.89307e-12 0)
(1.21302 -4.3467e-12 0)
(1.21302 -4.74961e-12 0)
(1.21302 -5.02851e-12 0)
(1.21302 -5.30306e-12 0)
(1.21302 -5.50896e-12 0)
(1.21302 -5.53145e-12 0)
(1.21302 -5.39185e-12 0)
(1.21302 -5.3885e-12 0)
(1.21302 -5.43099e-12 0)
(1.21302 -5.19889e-12 0)
(1.21302 -4.62766e-12 0)
(1.21302 -3.84695e-12 0)
(1.21302 -2.94851e-12 0)
(1.21302 -1.89006e-12 0)
(1.21302 -6.99255e-13 0)
)
;

boundaryField
{
    inandouthalf11
    {
        type            cyclic;
    }
    inandouthalf12
    {
        type            cyclic;
    }
    inandouthalf21
    {
        type            cyclic;
    }
    inandouthalf22
    {
        type            cyclic;
    }
    inandouthalf31
    {
        type            cyclic;
    }
    inandouthalf32
    {
        type            cyclic;
    }
    inandouthalf41
    {
        type            cyclic;
    }
    inandouthalf42
    {
        type            cyclic;
    }
    top
    {
        type            symmetryPlane;
    }
    walls
    {
        type            fixedValue;
        value           uniform (0 0 0);
    }
    frontAndBackPlanes
    {
        type            empty;
    }
}


// ************************************************************************* //
