/*--------------------------------*- C++ -*----------------------------------*\
| =========                 |                                                 |
| \\      /  F ield         | OpenFOAM: The Open Source CFD Toolbox           |
|  \\    /   O peration     | Version:  2.4.x                                 |
|   \\  /    A nd           | Web:      www.OpenFOAM.org                      |
|    \\/     M anipulation  |                                                 |
\*---------------------------------------------------------------------------*/
FoamFile
{
    version     2.0;
    format      ascii;
    class       volVectorField;
    location    "1";
    object      Ur;
}
// * * * * * * * * * * * * * * * * * * * * * * * * * * * * * * * * * * * * * //

dimensions      [0 1 -1 0 0 0 0];

internalField   nonuniform List<vector> 
360
(
(0.00019458 6.312e-14 0)
(0.000194912 1.89611e-13 0)
(0.000194914 3.16699e-13 0)
(0.000194914 4.44053e-13 0)
(0.000194914 5.7156e-13 0)
(0.000194915 6.99348e-13 0)
(0.000194915 8.2694e-13 0)
(0.000194917 9.54799e-13 0)
(0.000194917 1.08262e-12 0)
(0.000194918 1.21014e-12 0)
(0.00019492 1.33766e-12 0)
(0.00019492 1.465e-12 0)
(0.000194922 1.59182e-12 0)
(0.000194923 1.71833e-12 0)
(0.000194925 1.84487e-12 0)
(0.000194927 1.9711e-12 0)
(0.000194928 2.09719e-12 0)
(0.00019493 2.22319e-12 0)
(0.000194932 2.34887e-12 0)
(0.000194935 2.47439e-12 0)
(0.000194937 2.59955e-12 0)
(0.00019494 2.724e-12 0)
(0.000194943 2.8481e-12 0)
(0.000194946 2.97218e-12 0)
(0.00019495 3.09569e-12 0)
(0.000194953 3.21863e-12 0)
(0.000194956 3.34138e-12 0)
(0.000194961 3.46391e-12 0)
(0.000194966 3.58594e-12 0)
(0.000194971 3.70741e-12 0)
(0.000194976 3.82809e-12 0)
(0.000194982 3.94814e-12 0)
(0.000194987 4.06768e-12 0)
(0.000194996 4.18677e-12 0)
(0.000195002 4.30514e-12 0)
(0.00019501 4.42334e-12 0)
(0.000195018 4.54079e-12 0)
(0.000195028 4.6577e-12 0)
(0.00019504 4.77431e-12 0)
(0.00019505 4.89036e-12 0)
(0.000195063 5.00597e-12 0)
(0.000195076 5.12073e-12 0)
(0.000195089 5.23453e-12 0)
(0.000195105 5.348e-12 0)
(0.000195122 5.46108e-12 0)
(0.00019514 5.57319e-12 0)
(0.000195159 5.68452e-12 0)
(0.000195179 5.79541e-12 0)
(0.000195202 5.90551e-12 0)
(0.000195228 6.01482e-12 0)
(0.000195255 6.1236e-12 0)
(0.000195284 6.23187e-12 0)
(0.000195315 6.33933e-12 0)
(0.00019535 6.44601e-12 0)
(0.000195386 6.55167e-12 0)
(0.000195427 6.65647e-12 0)
(0.00019547 6.76091e-12 0)
(0.000195517 6.86463e-12 0)
(0.000195568 6.9675e-12 0)
(0.000195622 7.06949e-12 0)
(0.000195683 7.17055e-12 0)
(0.000195747 7.27105e-12 0)
(0.000195818 7.37073e-12 0)
(0.000195894 7.46925e-12 0)
(0.000195976 7.56691e-12 0)
(0.000196065 7.66373e-12 0)
(0.000196162 7.75949e-12 0)
(0.000196268 7.85414e-12 0)
(0.000196381 7.94779e-12 0)
(0.000196503 8.04053e-12 0)
(0.000196637 8.13243e-12 0)
(0.000196782 8.22307e-12 0)
(0.000196938 8.31287e-12 0)
(0.000197108 8.40254e-12 0)
(0.000197292 8.49087e-12 0)
(0.000197492 1.05061e-11 0)
(0.000197708 -4.38447e-11 0)
(0.000197942 3.25805e-10 0)
(0.000198196 -1.22677e-09 0)
(0.000198472 5.21328e-09 0)
(0.00019877 -2.20726e-08 0)
(0.000199064 9.23986e-08 0)
(0.000199232 2.0473e-06 0)
(0.000199197 7.13529e-06 0)
(0.000199098 1.32039e-05 0)
(0.000199082 1.81367e-05 0)
(0.000199166 2.17839e-05 0)
(0.000199308 2.47346e-05 0)
(0.000199473 2.74798e-05 0)
(0.000199639 3.03084e-05 0)
(0.000199791 3.33421e-05 0)
(0.00019993 3.6574e-05 0)
(0.000200063 3.99309e-05 0)
(0.000200198 4.33462e-05 0)
(0.00020034 4.67984e-05 0)
(0.000200491 5.03078e-05 0)
(0.000200649 5.39133e-05 0)
(0.000200811 5.76502e-05 0)
(0.000200977 6.15391e-05 0)
(0.000201147 6.55856e-05 0)
(0.00020132 6.97862e-05 0)
(0.000201499 7.41345e-05 0)
(0.000201682 7.86252e-05 0)
(0.00020187 8.3255e-05 0)
(0.000202064 8.80224e-05 0)
(0.000202263 9.29276e-05 0)
(0.000202468 9.79728e-05 0)
(0.000202679 0.000103163 0)
(0.000202897 0.000108506 0)
(0.000203121 0.000114014 0)
(0.000203353 0.000119701 0)
(0.000203593 0.000125584 0)
(0.000203841 0.00013168 0)
(0.000204099 0.000138004 0)
(0.000204365 0.000144573 0)
(0.00020464 0.000151398 0)
(0.000204926 0.000158497 0)
(0.000205221 0.000165894 0)
(0.000205529 0.000173635 0)
(0.000205853 0.000181785 0)
(0.000206196 0.000190409 0)
(0.000206556 0.000199506 0)
(0.000206926 0.000208914 0)
(0.000207286 0.000218263 0)
(0.000207615 0.000227103 0)
(0.000207905 0.000235217 0)
(0.000208179 0.000242884 0)
(0.000208511 0.000250986 0)
(0.000209151 0.000261054 0)
(0.00021102 0.000275131 0)
(0.000221948 0.000295273 0)
(0.000283908 0.000322976 0)
(0.000427096 0.000356794 0)
(0.000521145 0.000407678 0)
(0.000539845 0.000472361 0)
(0.000538187 0.000545373 0)
(0.000536763 0.000652691 0)
(0.000555439 0.000927135 0)
(0.000623467 0.00160697 0)
(0.000578467 0.00212967 0)
(0.00051378 0.00252393 0)
(0.000342844 0.00341438 0)
(0.000189539 0.00402822 0)
(0.000193555 0.00419016 0)
(0.00020095 0.00434245 0)
(0.000206009 0.00447127 0)
(0.000213793 0.00466257 0)
(0.00021741 0.00477516 0)
(0.000225077 0.00499964 0)
(0.000226126 0.0051613 0)
(0.00020593 0.00534983 0)
(0.00010692 0.00567015 0)
(-3.52251e-06 0.00509524 0)
(-0.000368511 0.0117089 0)
(0.00512891 0.00839136 0)
(0.0193861 0.0135595 0)
(0.0329232 0.016367 0)
(0.044617 0.018986 0)
(0.0539298 0.0206661 0)
(0.0607887 0.0218775 0)
(0.0650048 0.0233206 0)
(0.0670064 0.0238396 0)
(0.0670248 0.0252207 0)
(0.0657804 0.0253759 0)
(0.063737 0.0267186 0)
(0.0614161 0.0266563 0)
(0.0590675 0.0279457 0)
(0.056817 0.0277835 0)
(0.0547755 0.02896 0)
(0.0529014 0.0287682 0)
(0.0512415 0.0298257 0)
(0.0497384 0.0296255 0)
(0.0484133 0.0305694 0)
(0.0472197 0.0303761 0)
(0.0461678 0.0312091 0)
(0.0452274 0.0310356 0)
(0.0443995 0.0317612 0)
(0.0436631 0.031616 0)
(0.043013 0.0322415 0)
(0.042446 0.0321259 0)
(0.0419419 0.0326613 0)
(0.0415091 0.0325752 0)
(0.0411272 0.0330296 0)
(0.0408041 0.0329709 0)
(0.040522 0.0333546 0)
(0.0402866 0.0333204 0)
(0.040085 0.0336428 0)
(0.0399215 0.033629 0)
(0.0397849 0.0338992 0)
(0.0396758 0.0339027 0)
(0.0395887 0.0341285 0)
(0.039524 0.0341447 0)
(0.0394741 0.0343338 0)
(0.039438 0.0343603 0)
(0.0394154 0.0345176 0)
(0.0393995 0.0345518 0)
(0.0393893 0.0346835 0)
(0.0393842 0.0347219 0)
(0.0393792 0.0348322 0)
(0.0393728 0.0348733 0)
(0.0393645 0.0349652 0)
(0.0393486 0.0350081 0)
(0.0393273 0.0350874 0)
(0.0392995 0.0351313 0)
(0.0392671 0.0352003 0)
(0.0392256 0.0352452 0)
(0.0391768 0.0353063 0)
(0.0391233 0.03535 0)
(0.0390607 0.0354044 0)
(0.0389886 0.0354483 0)
(0.0389114 0.0354962 0)
(0.038825 0.0355388 0)
(0.0387278 0.0355827 0)
(0.0386235 0.035624 0)
(0.0385094 0.0356638 0)
(0.0383851 0.0357039 0)
(0.0382522 0.0357406 0)
(0.0381078 0.0357792 0)
(0.0379535 0.035814 0)
(0.0377869 0.035851 0)
(0.0376107 0.0358844 0)
(0.0374229 0.0359196 0)
(0.0372242 0.0359518 0)
(0.0370109 0.0359861 0)
(0.0367855 0.036018 0)
(0.0365472 0.0360513 0)
(0.0362987 0.0360824 0)
(0.0360349 0.036115 0)
(0.0357534 0.0361469 0)
(0.0354551 0.0361801 0)
(0.0351535 0.0362109 0)
(0.0348316 0.0362437 0)
(0.0344841 0.036277 0)
(0.0341303 0.0363101 0)
(0.0337605 0.0363432 0)
(0.0333652 0.0363784 0)
(0.0329599 0.0364127 0)
(0.032532 0.0364489 0)
(0.0320804 0.0364859 0)
(0.0316126 0.036524 0)
(0.031127 0.0365625 0)
(0.0306151 0.036603 0)
(0.0300686 0.0366459 0)
(0.0295103 0.0366891 0)
(0.0289194 0.0367347 0)
(0.0283088 0.0367813 0)
(0.0276799 0.0368289 0)
(0.0270243 0.0368781 0)
(0.0263454 0.0369285 0)
(0.0256501 0.0369794 0)
(0.0249693 0.037028 0)
(0.0242929 0.0370751 0)
(0.0236385 0.0371191 0)
(0.0230484 0.0371553 0)
(0.0222709 0.037206 0)
(0.00370631 0.0395094 0)
(0.00370574 0.0395094 0)
(0.00370575 0.0395094 0)
(0.00370576 0.0395094 0)
(0.00370577 0.0395094 0)
(0.00370577 0.0395094 0)
(0.00370577 0.0395094 0)
(0.00370578 0.0395094 0)
(0.00370578 0.0395094 0)
(0.00370578 0.0395094 0)
(0.00370578 0.0395094 0)
(0.00370578 0.0395094 0)
(0.00370578 0.0395094 0)
(0.00370578 0.0395094 0)
(0.00370578 0.0395094 0)
(0.00370578 0.0395094 0)
(0.00370578 0.0395094 0)
(0.00370578 0.0395094 0)
(0.00370578 0.0395094 0)
(0.00370578 0.0395094 0)
(0.00370578 0.0395094 0)
(0.00370578 0.0395094 0)
(0.00370578 0.0395094 0)
(0.00370578 0.0395094 0)
(0.00370578 0.0395094 0)
(0.00370578 0.0395094 0)
(0.00370578 0.0395094 0)
(0.00370578 0.0395094 0)
(0.00370578 0.0395094 0)
(0.00370578 0.0395094 0)
(0.00370578 0.0395094 0)
(0.00370578 0.0395094 0)
(0.00370578 0.0395094 0)
(0.00370578 0.0395094 0)
(0.00370578 0.0395094 0)
(0.00370578 0.0395094 0)
(0.00370578 0.0395094 0)
(0.00370578 0.0395094 0)
(0.00370578 0.0395094 0)
(0.00370578 0.0395094 0)
(0.00370578 0.0395094 0)
(0.00370578 0.0395094 0)
(0.00370578 0.0395094 0)
(0.00370578 0.0395094 0)
(0.00370578 0.0395094 0)
(0.00370578 0.0395094 0)
(0.00370578 0.0395094 0)
(0.00370578 0.0395094 0)
(0.00370578 0.0395094 0)
(0.00370578 0.0395094 0)
(0.00370578 0.0395094 0)
(0.00370578 0.0395094 0)
(0.00370578 0.0395094 0)
(0.00370578 0.0395094 0)
(0.00370578 0.0395094 0)
(0.00370578 0.0395094 0)
(0.00370578 0.0395094 0)
(0.00370578 0.0395094 0)
(0.00370578 0.0395094 0)
(0.00370578 0.0395094 0)
(0.00370578 0.0395094 0)
(0.00370578 0.0395094 0)
(0.00370578 0.0395094 0)
(0.00370578 0.0395094 0)
(0.00370578 0.0395094 0)
(0.00370578 0.0395094 0)
(0.00370578 0.0395094 0)
(0.00370578 0.0395094 0)
(0.00370578 0.0395094 0)
(0.00370578 0.0395094 0)
(0.00370578 0.0395094 0)
(0.00370578 0.0395094 0)
(0.00370578 0.0395094 0)
(0.00370578 0.0395094 0)
(0.00370578 0.0395094 0)
(0.00370578 0.0395094 0)
(0.00370578 0.0395094 0)
(0.00370578 0.0395094 0)
(0.00370578 0.0395094 0)
(0.00370578 0.0395094 0)
(0.00370578 0.0395094 0)
(0.00370578 0.0395094 0)
(0.00370578 0.0395094 0)
(0.00370578 0.0395094 0)
(0.00370578 0.0395094 0)
(0.00370578 0.0395094 0)
(0.00370578 0.0395094 0)
(0.00370578 0.0395094 0)
(0.00370578 0.0395094 0)
(0.00370578 0.0395094 0)
(0.00370578 0.0395094 0)
(0.00370578 0.0395094 0)
(0.00370578 0.0395094 0)
(0.00370578 0.0395094 0)
(0.00370578 0.0395094 0)
(0.00370578 0.0395094 0)
(0.00370578 0.0395094 0)
(0.00370578 0.0395094 0)
(0.00370578 0.0395094 0)
(0.00370578 0.0395094 0)
(0.00370578 0.0395094 0)
(0.00370582 0.0395092 0)
(0.00370689 0.0395007 0)
(0.00373269 0.0391552 0)
(0.00432763 0.0224196 0)
)
;

boundaryField
{
    inandouthalf11
    {
        type            cyclic;
    }
    inandouthalf12
    {
        type            cyclic;
    }
    inandouthalf21
    {
        type            cyclic;
    }
    inandouthalf22
    {
        type            cyclic;
    }
    inandouthalf31
    {
        type            cyclic;
    }
    inandouthalf32
    {
        type            cyclic;
    }
    inandouthalf41
    {
        type            cyclic;
    }
    inandouthalf42
    {
        type            cyclic;
    }
    top
    {
        type            symmetryPlane;
    }
    walls
    {
        type            calculated;
        value           uniform (0 0 0);
    }
    frontAndBackPlanes
    {
        type            empty;
    }
}


// ************************************************************************* //
