/*--------------------------------*- C++ -*----------------------------------*\
| =========                 |                                                 |
| \\      /  F ield         | OpenFOAM: The Open Source CFD Toolbox           |
|  \\    /   O peration     | Version:  2.4.x                                 |
|   \\  /    A nd           | Web:      www.OpenFOAM.org                      |
|    \\/     M anipulation  |                                                 |
\*---------------------------------------------------------------------------*/
FoamFile
{
    version     2.0;
    format      ascii;
    class       volScalarField;
    location    "12.4";
    object      alpha_0;
}
// * * * * * * * * * * * * * * * * * * * * * * * * * * * * * * * * * * * * * //

dimensions      [0 0 0 0 0 0 0];

internalField   nonuniform List<scalar> 
360
(
0.610896
0.611765
0.611854
0.611764
0.611722
0.611708
0.611692
0.61167
0.611647
0.611624
0.611601
0.611578
0.611555
0.611532
0.611508
0.611485
0.61146
0.611436
0.611412
0.611387
0.611362
0.611336
0.611311
0.611285
0.611259
0.611232
0.611206
0.611179
0.611151
0.611124
0.611096
0.611068
0.61104
0.611011
0.610982
0.610953
0.610923
0.610893
0.610862
0.610832
0.610801
0.61077
0.610738
0.610706
0.610674
0.610641
0.610607
0.610574
0.61054
0.610506
0.610471
0.610436
0.6104
0.610364
0.610328
0.610291
0.610254
0.610216
0.610177
0.610139
0.610099
0.61006
0.610019
0.609978
0.609937
0.609895
0.609853
0.609809
0.609766
0.609722
0.609677
0.609631
0.609585
0.609538
0.60949
0.609442
0.609393
0.609343
0.609293
0.609241
0.609189
0.609136
0.609082
0.609028
0.608972
0.608915
0.608858
0.608799
0.60874
0.608679
0.608617
0.608555
0.608491
0.608425
0.608359
0.608291
0.608222
0.608152
0.60808
0.608006
0.607931
0.607855
0.607777
0.607697
0.607615
0.607531
0.607446
0.607358
0.607269
0.607177
0.607083
0.606986
0.606887
0.606786
0.606681
0.606574
0.606464
0.606351
0.606235
0.606115
0.605991
0.605864
0.605732
0.605596
0.605456
0.60531
0.60516
0.605004
0.604842
0.604674
0.604499
0.604317
0.604127
0.603927
0.603713
0.603485
0.603245
0.602987
0.602702
0.602378
0.602028
0.601615
0.598783
0.599203
0.598689
0.597837
0.594931
0.453159
0.289722
0.227289
0.189504
0.158409
0.131721
0.108666
0.0889773
0.0724446
0.0587853
0.0476447
0.0386387
0.031395
0.0255804
0.0209114
0.0171551
0.014124
0.0116694
0.00967377
0.00804477
0.00670968
0.00561115
0.00470385
0.00395179
0.00332628
0.00280433
0.00236747
0.00200068
0.00169169
0.00143024
0.00120777
0.00101736
0.000853903
0.000714065
0.000595769
0.000497305
0.000416657
0.00035137
0.000298798
0.000256436
0.000222124
0.000194107
0.000171008
0.000151768
0.000135576
0.000121814
0.000110005
9.97831e-05
9.08614e-05
8.30156e-05
7.60676e-05
6.98754e-05
6.43249e-05
5.93234e-05
5.47499e-05
5.0515e-05
4.65855e-05
4.29327e-05
3.95325e-05
3.63641e-05
3.34097e-05
3.0654e-05
2.80839e-05
2.56875e-05
2.34545e-05
2.13751e-05
1.94406e-05
1.76426e-05
1.59734e-05
1.44255e-05
1.29921e-05
1.16669e-05
1.0444e-05
9.31787e-06
8.28365e-06
7.3366e-06
6.47214e-06
5.68547e-06
4.97104e-06
4.32172e-06
3.72811e-06
3.1788e-06
2.66341e-06
2.18025e-06
1.74788e-06
1.40526e-06
1.17604e-06
1.02333e-06
8.88699e-07
7.82449e-07
6.26147e-07
4.86928e-07
3.77662e-07
2.91782e-07
2.2421e-07
1.71047e-07
1.29261e-07
9.64798e-08
7.08419e-08
5.08721e-08
3.54165e-08
2.35355e-08
1.43547e-08
7.75287e-09
2.17053e-09
4.37055e-12
3.73282e-23
2.53158e-34
1.49752e-45
7.4627e-57
3.12515e-68
1.75784e-76
9.19121e-77
4.50351e-77
2.26214e-77
1.11917e-77
5.45102e-78
2.61216e-78
1.23097e-78
5.70167e-79
2.59435e-79
1.15901e-79
5.08067e-80
2.18408e-80
9.20134e-81
3.79643e-81
1.53298e-81
6.05348e-82
2.33583e-82
8.7999e-83
3.23389e-83
1.15816e-83
4.03798e-84
1.36901e-84
4.50764e-85
1.43987e-85
4.45612e-86
1.3342e-86
3.85862e-87
1.07611e-87
2.8886e-88
7.44812e-89
1.84065e-89
4.34909e-90
9.7983e-91
2.09853e-91
4.25819e-92
8.1549e-93
1.46761e-93
2.46963e-94
3.86344e-95
5.58074e-96
7.38378e-97
8.86129e-98
9.53045e-99
9.04704e-100
7.43063e-101
5.1391e-102
2.87795e-103
1.2271e-104
3.56433e-106
5.40817e-108
4.48762e-111
1.31112e-118
7.14747e-121
1.92557e-123
9.42118e-134
2.34859e-144
4.33691e-155
5.91348e-166
6.90153e-177
6.39209e-188
4.99914e-199
5.43975e-210
1.68769e-220
7.45807e-229
4.31353e-239
2.56424e-247
1.7385e-257
8.83175e-266
7.27002e-276
3.04781e-284
4.6292e-294
1.08803e-302
3.07205e-312
1.17588e-321
6.79834e-321
7.96928e-321
7.83094e-321
2.51973e-321
8.86848e-321
4.57737e-319
2.8055e-319
6.80328e-321
7.09478e-321
6.08689e-321
8.5424e-321
0
0
0
0
0
0
0
0
0
0
0
0
0
0
0
0
)
;

boundaryField
{
    inandouthalf11
    {
        type            cyclic;
    }
    inandouthalf12
    {
        type            cyclic;
    }
    inandouthalf21
    {
        type            cyclic;
    }
    inandouthalf22
    {
        type            cyclic;
    }
    inandouthalf31
    {
        type            cyclic;
    }
    inandouthalf32
    {
        type            cyclic;
    }
    inandouthalf41
    {
        type            cyclic;
    }
    inandouthalf42
    {
        type            cyclic;
    }
    top
    {
        type            symmetryPlane;
    }
    walls
    {
        type            zeroGradient;
    }
    frontAndBackPlanes
    {
        type            empty;
    }
}


// ************************************************************************* //
