/*--------------------------------*- C++ -*----------------------------------*\
| =========                 |                                                 |
| \\      /  F ield         | OpenFOAM: The Open Source CFD Toolbox           |
|  \\    /   O peration     | Version:  2.4.x                                 |
|   \\  /    A nd           | Web:      www.OpenFOAM.org                      |
|    \\/     M anipulation  |                                                 |
\*---------------------------------------------------------------------------*/
FoamFile
{
    version     2.0;
    format      ascii;
    class       volScalarField;
    location    "12.4";
    object      alpha;
}
// * * * * * * * * * * * * * * * * * * * * * * * * * * * * * * * * * * * * * //

dimensions      [0 0 0 0 0 0 0];

internalField   nonuniform List<scalar> 
360
(
0.610896
0.611765
0.611854
0.611764
0.611722
0.611708
0.611692
0.61167
0.611647
0.611624
0.611601
0.611578
0.611555
0.611532
0.611508
0.611485
0.61146
0.611436
0.611412
0.611387
0.611362
0.611336
0.611311
0.611285
0.611259
0.611232
0.611206
0.611179
0.611151
0.611124
0.611096
0.611068
0.61104
0.611011
0.610982
0.610953
0.610923
0.610893
0.610862
0.610832
0.610801
0.61077
0.610738
0.610706
0.610674
0.610641
0.610607
0.610574
0.61054
0.610506
0.610471
0.610436
0.6104
0.610364
0.610328
0.610291
0.610254
0.610216
0.610177
0.610139
0.610099
0.61006
0.610019
0.609978
0.609937
0.609895
0.609853
0.609809
0.609766
0.609722
0.609677
0.609631
0.609585
0.609538
0.60949
0.609442
0.609393
0.609343
0.609293
0.609241
0.609189
0.609136
0.609082
0.609028
0.608972
0.608915
0.608858
0.608799
0.60874
0.608679
0.608617
0.608555
0.608491
0.608425
0.608359
0.608291
0.608222
0.608152
0.60808
0.608006
0.607931
0.607855
0.607777
0.607697
0.607615
0.607531
0.607446
0.607358
0.607269
0.607177
0.607083
0.606986
0.606887
0.606786
0.606681
0.606574
0.606464
0.606351
0.606235
0.606115
0.605991
0.605864
0.605732
0.605596
0.605456
0.60531
0.60516
0.605004
0.604842
0.604674
0.604499
0.604317
0.604127
0.603927
0.603713
0.603485
0.603245
0.602987
0.602702
0.602378
0.602028
0.601615
0.598783
0.599203
0.598689
0.597837
0.594932
0.453181
0.289727
0.227289
0.189502
0.158406
0.131718
0.108663
0.0889739
0.0724415
0.0587827
0.0476426
0.0386369
0.0313936
0.0255794
0.0209107
0.0171545
0.0141236
0.0116692
0.00967367
0.00804476
0.00670972
0.00561124
0.00470398
0.00395194
0.00332644
0.00280451
0.00236764
0.00200086
0.00169187
0.00143042
0.00120795
0.00101754
0.000854075
0.000714229
0.000595919
0.000497435
0.000416767
0.000351459
0.000298869
0.000256492
0.000222168
0.000194141
0.000171034
0.000151788
0.000135592
0.000121826
0.000110014
9.97902e-05
9.08668e-05
8.30195e-05
7.60704e-05
6.98774e-05
6.43262e-05
5.93242e-05
5.47502e-05
5.0515e-05
4.65852e-05
4.29323e-05
3.9532e-05
3.63634e-05
3.3409e-05
3.06533e-05
2.80831e-05
2.56868e-05
2.34538e-05
2.13745e-05
1.944e-05
1.7642e-05
1.59728e-05
1.4425e-05
1.29917e-05
1.16665e-05
1.04436e-05
9.31753e-06
8.28335e-06
7.33634e-06
6.47191e-06
5.68527e-06
4.97086e-06
4.32157e-06
3.72798e-06
3.17869e-06
2.66332e-06
2.18017e-06
1.74783e-06
1.40523e-06
1.17603e-06
1.02332e-06
8.8869e-07
7.82459e-07
6.26161e-07
4.86926e-07
3.77652e-07
2.91767e-07
2.24194e-07
1.71031e-07
1.29246e-07
9.64671e-08
7.08313e-08
5.08635e-08
3.54098e-08
2.35305e-08
1.43506e-08
7.75056e-09
2.16823e-09
4.34821e-12
3.71171e-23
2.51747e-34
1.48974e-45
7.42804e-57
3.1128e-68
1.75173e-76
9.15896e-77
4.48782e-77
2.25426e-77
1.11527e-77
5.43202e-78
2.60305e-78
1.22668e-78
5.68177e-79
2.5853e-79
1.15496e-79
5.06292e-80
2.17645e-80
9.16919e-81
3.78316e-81
1.52762e-81
6.03231e-82
2.32766e-82
8.76909e-83
3.22256e-83
1.1541e-83
4.02383e-84
1.36421e-84
4.49183e-85
1.43482e-85
4.44048e-86
1.32951e-86
3.84507e-87
1.07233e-87
2.87844e-88
7.42193e-89
1.83417e-89
4.33378e-90
9.76379e-91
2.09114e-91
4.24318e-92
8.12613e-93
1.46243e-93
2.46091e-94
3.84979e-95
5.56101e-96
7.35767e-97
8.82993e-98
9.49669e-99
9.01497e-100
7.40427e-101
5.12086e-102
2.86772e-103
1.22274e-104
3.55164e-106
5.38888e-108
4.4714e-111
1.30601e-118
7.11951e-121
1.918e-123
9.38504e-134
2.33977e-144
4.32089e-155
5.89203e-166
6.87679e-177
6.36955e-188
4.98172e-199
5.41996e-210
1.68123e-220
7.42877e-229
4.29675e-239
2.55417e-247
1.73171e-257
8.79706e-266
7.24154e-276
3.03584e-284
4.61102e-294
1.08375e-302
3.05998e-312
1.17588e-321
6.79834e-321
7.96928e-321
7.83094e-321
2.51973e-321
8.86848e-321
4.57737e-319
2.8055e-319
6.80328e-321
7.09478e-321
6.08689e-321
8.5424e-321
0
0
0
0
0
0
0
0
0
0
0
0
0
0
0
0
)
;

boundaryField
{
    inandouthalf11
    {
        type            cyclic;
    }
    inandouthalf12
    {
        type            cyclic;
    }
    inandouthalf21
    {
        type            cyclic;
    }
    inandouthalf22
    {
        type            cyclic;
    }
    inandouthalf31
    {
        type            cyclic;
    }
    inandouthalf32
    {
        type            cyclic;
    }
    inandouthalf41
    {
        type            cyclic;
    }
    inandouthalf42
    {
        type            cyclic;
    }
    top
    {
        type            symmetryPlane;
    }
    walls
    {
        type            zeroGradient;
    }
    frontAndBackPlanes
    {
        type            empty;
    }
}


// ************************************************************************* //
