/*--------------------------------*- C++ -*----------------------------------*\
| =========                 |                                                 |
| \\      /  F ield         | OpenFOAM: The Open Source CFD Toolbox           |
|  \\    /   O peration     | Version:  2.4.x                                 |
|   \\  /    A nd           | Web:      www.OpenFOAM.org                      |
|    \\/     M anipulation  |                                                 |
\*---------------------------------------------------------------------------*/
FoamFile
{
    version     2.0;
    format      ascii;
    class       volScalarField;
    location    "12.4";
    object      ddt0(((1.5*(alpha+1e-08))*rho),Theta);
}
// * * * * * * * * * * * * * * * * * * * * * * * * * * * * * * * * * * * * * //

dimensions      [1 -1 -3 0 0 0 0];

internalField   nonuniform List<scalar> 
360
(
-3.52471e-24
-9.5144e-24
-7.0744e-24
-6.92073e-24
-7.8905e-24
-8.6765e-24
-9.21868e-24
-9.77187e-24
-1.04081e-23
-1.11098e-23
-1.185e-23
-1.26026e-23
-1.33491e-23
-1.40771e-23
-1.47766e-23
-1.5438e-23
-1.60472e-23
-1.65899e-23
-1.70562e-23
-1.74371e-23
-1.77236e-23
-1.79132e-23
-1.80035e-23
-1.79921e-23
-1.78795e-23
-1.76677e-23
-1.73625e-23
-1.69725e-23
-1.65029e-23
-1.59608e-23
-1.53589e-23
-1.47059e-23
-1.40125e-23
-1.32913e-23
-1.25497e-23
-1.17966e-23
-1.10434e-23
-1.03004e-23
-9.5719e-24
-8.86365e-24
-8.18486e-24
-7.53708e-24
-6.92377e-24
-6.3503e-24
-5.81717e-24
-5.32491e-24
-4.87313e-24
-4.46124e-24
-4.09138e-24
-3.76147e-24
-3.46793e-24
-3.20985e-24
-2.98596e-24
-2.79324e-24
-2.62988e-24
-2.49346e-24
-2.38163e-24
-2.29208e-24
-2.22238e-24
-2.1707e-24
-2.13565e-24
-2.11505e-24
-2.10699e-24
-2.10985e-24
-2.12169e-24
-2.14161e-24
-2.16834e-24
-2.20064e-24
-2.23676e-24
-2.27633e-24
-2.31943e-24
-2.36456e-24
-2.41031e-24
-2.45704e-24
-2.5045e-24
-2.5514e-24
-2.59683e-24
-2.64053e-24
-2.68283e-24
-2.72312e-24
-2.7611e-24
-2.79693e-24
-2.83083e-24
-2.86238e-24
-2.89131e-24
-2.91752e-24
-2.94052e-24
-2.95998e-24
-2.97592e-24
-2.98834e-24
-2.99752e-24
-3.00355e-24
-3.00687e-24
-3.00763e-24
-3.00573e-24
-3.00126e-24
-2.99407e-24
-2.98421e-24
-2.97167e-24
-2.95673e-24
-2.93953e-24
-2.92041e-24
-2.89979e-24
-2.87791e-24
-2.85486e-24
-2.83108e-24
-2.80688e-24
-2.78223e-24
-2.75759e-24
-2.73297e-24
-2.70851e-24
-2.68442e-24
-2.66047e-24
-2.63658e-24
-2.61238e-24
-2.58742e-24
-2.5612e-24
-2.53276e-24
-2.50151e-24
-2.46666e-24
-2.42757e-24
-2.38391e-24
-2.33588e-24
-2.28446e-24
-2.23177e-24
-2.18084e-24
-2.13619e-24
-2.10235e-24
-2.08375e-24
-2.08292e-24
-2.1006e-24
-8.17829e-21
5.04922e-17
1.342e-16
-5.80962e-18
-3.49905e-15
-3.8537e-14
-3.58512e-13
-3.45991e-12
-3.74619e-11
-4.72067e-10
-7.06438e-09
-1.28924e-07
-3.0175e-06
-0.000185226
-0.0104564
-0.163391
-1.12602
-1.13698
-0.625558
-0.414425
-0.295
-0.209833
-0.145177
-0.0965004
-0.0607119
-0.0348739
-0.0163708
-0.00315899
0.0062241
0.0128891
0.0173732
0.020276
0.0219549
0.0226979
0.0227214
0.0222063
0.0212958
0.0201069
0.0187327
0.0172492
0.0157159
0.0141801
0.0126785
0.011238
0.00987776
0.00860948
0.00743907
0.0063694
0.00540371
0.00454709
0.00380442
0.00317627
0.00265632
0.00223222
0.00188867
0.00161037
0.00138383
0.00119799
0.00104412
0.000915499
0.000806976
0.000714608
0.000635357
0.000566866
0.00050729
0.000455167
0.000409326
0.000368824
0.000332892
0.000300895
0.000272027
0.000245693
0.000221657
0.000199712
0.000179675
0.000161385
0.000144696
0.00012948
0.00011562
0.00010301
9.15526e-05
8.11566e-05
7.17386e-05
6.32205e-05
5.55299e-05
4.85994e-05
4.23669e-05
3.6775e-05
3.1771e-05
2.73067e-05
2.33377e-05
1.98226e-05
1.67228e-05
1.40012e-05
1.16211e-05
9.54471e-06
7.73293e-06
6.14749e-06
4.75806e-06
3.55482e-06
2.55881e-06
1.80417e-06
1.27654e-06
8.81264e-07
5.29022e-07
0
0
0
0
0
0
0
0
0
0
0
0
0
0
0
0
0
0
0
0
0
0
0
0
0
0
0
0
0
0
0
0
0
0
0
0
0
0
0
0
0
0
0
0
0
0
0
0
0
0
0
0
0
0
0
0
0
0
0
0
0
0
0
0
0
0
0
0
0
0
0
0
0
0
0
0
0
0
0
0
0
0
0
0
0
0
0
0
0
0
0
0
0
0
0
0
0
0
0
0
0
0
0
0
0
0
0
0
0
0
0
0
0
0
0
0
0
0
0
0
0
0
0
0
)
;

boundaryField
{
    inandouthalf11
    {
        type            cyclic;
    }
    inandouthalf12
    {
        type            cyclic;
    }
    inandouthalf21
    {
        type            cyclic;
    }
    inandouthalf22
    {
        type            cyclic;
    }
    inandouthalf31
    {
        type            cyclic;
    }
    inandouthalf32
    {
        type            cyclic;
    }
    inandouthalf41
    {
        type            cyclic;
    }
    inandouthalf42
    {
        type            cyclic;
    }
    top
    {
        type            symmetryPlane;
    }
    walls
    {
        type            calculated;
        value           uniform -3.52471e-24;
    }
    frontAndBackPlanes
    {
        type            empty;
    }
}


// ************************************************************************* //
