/*--------------------------------*- C++ -*----------------------------------*\
| =========                 |                                                 |
| \\      /  F ield         | OpenFOAM: The Open Source CFD Toolbox           |
|  \\    /   O peration     | Version:  2.4.x                                 |
|   \\  /    A nd           | Web:      www.OpenFOAM.org                      |
|    \\/     M anipulation  |                                                 |
\*---------------------------------------------------------------------------*/
FoamFile
{
    version     2.0;
    format      ascii;
    class       surfaceScalarField;
    location    "12.4";
    object      ddt0(phib);
}
// * * * * * * * * * * * * * * * * * * * * * * * * * * * * * * * * * * * * * //

dimensions      [0 3 -2 0 0 0 0];

internalField   nonuniform List<scalar> 
359
(
-6.92053e-15
-1.73442e-14
-2.73341e-14
-3.7324e-14
-4.80083e-14
-5.93125e-14
-7.1125e-14
-8.34071e-14
-9.61784e-14
-1.09471e-13
-1.23229e-13
-1.37469e-13
-1.52133e-13
-1.6721e-13
-1.8259e-13
-1.98257e-13
-2.14174e-13
-2.30212e-13
-2.46382e-13
-2.62573e-13
-2.78726e-13
-2.94764e-13
-3.10641e-13
-3.26285e-13
-3.41596e-13
-3.56603e-13
-3.71148e-13
-3.85257e-13
-3.98876e-13
-4.11984e-13
-4.24478e-13
-4.36449e-13
-4.47765e-13
-4.58485e-13
-4.68608e-13
-4.78122e-13
-4.87014e-13
-4.95283e-13
-5.02979e-13
-5.10103e-13
-5.16654e-13
-5.22691e-13
-5.28201e-13
-5.33267e-13
-5.37853e-13
-5.42029e-13
-5.45841e-13
-5.49301e-13
-5.5242e-13
-5.55277e-13
-5.57836e-13
-5.60198e-13
-5.62348e-13
-5.64342e-13
-5.6618e-13
-5.67894e-13
-5.69532e-13
-5.71075e-13
-5.72572e-13
-5.74021e-13
-5.75483e-13
-5.76909e-13
-5.78418e-13
-5.79898e-13
-5.81421e-13
-5.83022e-13
-5.84659e-13
-5.86375e-13
-5.88144e-13
-5.90017e-13
-5.91973e-13
-5.9402e-13
-5.96166e-13
-5.98406e-13
-6.00747e-13
-6.03185e-13
-6.05747e-13
-6.08404e-13
-6.11171e-13
-6.14033e-13
-6.16966e-13
-6.19981e-13
-6.23106e-13
-6.26323e-13
-6.2963e-13
-6.33011e-13
-6.36503e-13
-6.40031e-13
-6.43646e-13
-6.47325e-13
-6.51038e-13
-6.54851e-13
-6.58688e-13
-6.62582e-13
-6.66511e-13
-6.70469e-13
-6.74487e-13
-6.78533e-13
-6.82594e-13
-6.86706e-13
-6.90802e-13
-6.94924e-13
-6.99062e-13
-7.03193e-13
-7.07304e-13
-7.1142e-13
-7.15515e-13
-7.19624e-13
-7.2369e-13
-7.27723e-13
-7.31776e-13
-7.35794e-13
-7.39776e-13
-7.43748e-13
-7.4771e-13
-7.51611e-13
-7.55472e-13
-7.59299e-13
-7.63059e-13
-7.66782e-13
-7.70429e-13
-7.74015e-13
-7.77496e-13
-7.80907e-13
-7.84188e-13
-7.87391e-13
-7.90467e-13
-7.93417e-13
-7.9631e-13
-7.99099e-13
-8.01837e-13
-8.04561e-13
-8.07194e-13
-8.0973e-13
-8.12021e-13
-8.13937e-13
-8.15237e-13
-8.15822e-13
-8.15635e-13
-8.14903e-13
-8.13834e-13
-8.08308e-13
-8.04766e-13
-8.04704e-13
-8.02537e-13
-7.91633e-13
-1.35306e-11
2.97394e-10
2.69383e-10
2.39875e-10
2.11626e-10
1.84689e-10
1.60534e-10
1.40279e-10
1.2426e-10
1.12026e-10
1.02693e-10
9.53092e-11
8.84077e-11
6.42746e-11
7.74839e-11
7.24202e-11
6.68311e-11
6.11855e-11
5.54939e-11
4.98165e-11
4.42144e-11
3.87439e-11
3.34515e-11
2.83733e-11
2.35352e-11
1.89541e-11
1.46371e-11
1.05724e-11
6.71061e-12
2.95049e-12
-8.27458e-13
-4.64916e-12
-8.31045e-12
-1.13677e-11
-1.33518e-11
-1.40611e-11
-1.36667e-11
-1.25633e-11
-1.11491e-11
-9.70254e-12
-8.37132e-12
-7.21159e-12
-6.22892e-12
-5.40666e-12
-4.72097e-12
-4.14809e-12
-3.66714e-12
-3.2607e-12
-2.91478e-12
-2.61805e-12
-2.36171e-12
-2.13862e-12
-1.94323e-12
-1.77105e-12
-1.61842e-12
-1.47983e-12
-1.35362e-12
-1.23843e-12
-1.13309e-12
-1.03661e-12
-9.48099e-13
-8.66786e-13
-7.92055e-13
-7.23318e-13
-6.60032e-13
-6.01768e-13
-5.48072e-13
-4.98591e-13
-4.5297e-13
-4.10887e-13
-3.72054e-13
-3.36232e-13
-3.03194e-13
-2.72713e-13
-2.44642e-13
-2.18802e-13
-1.95071e-13
-1.73318e-13
-1.53387e-13
-1.35117e-13
-1.18271e-13
-1.02589e-13
-8.77405e-14
-7.35281e-14
-6.02322e-14
-4.87877e-14
-4.02493e-14
-3.45731e-14
-3.02378e-14
-2.63139e-14
-2.06084e-14
-1.65239e-14
-1.32506e-14
-1.05134e-14
-8.22013e-15
-6.31854e-15
-4.76555e-15
-3.53398e-15
-2.59686e-15
-1.89699e-15
-1.39621e-15
-1.08953e-15
-8.15878e-16
-6.89767e-16
-3.95365e-16
-6.09146e-16
-4.1561e-16
-3.87377e-16
-3.6284e-16
-3.41507e-16
-3.20811e-16
-3.02202e-16
-2.82887e-16
-2.66398e-16
-2.44536e-16
-2.27446e-16
-1.97362e-16
-1.82694e-16
-1.57984e-16
-1.40318e-16
-1.21771e-16
-1.067e-16
-9.73366e-17
-7.86692e-17
-6.76345e-17
-5.32216e-17
-4.63548e-17
-3.24632e-17
-2.65304e-17
-1.32182e-17
-4.71956e-18
-7.24181e-18
-7.31786e-19
4.20237e-18
2.08021e-18
-9.80584e-19
6.98531e-19
-1.33215e-18
6.70582e-18
-2.19344e-18
9.88391e-19
-1.67057e-17
-2.10468e-17
-2.63557e-17
-3.2298e-17
-5.24619e-17
-6.67057e-17
-8.09869e-17
-9.14096e-17
-6.62313e-17
-1.0305e-16
-1.05692e-16
-1.10022e-16
-1.04842e-16
-1.04674e-16
-9.36872e-17
-9.80829e-17
-9.96004e-17
-1.00619e-16
-1.09776e-16
-1.04164e-16
-1.02863e-16
-9.4202e-17
-9.87162e-17
-1.01338e-16
-1.0374e-16
-1.05389e-16
-9.95682e-17
-9.25919e-17
-9.83182e-17
-9.50665e-17
-9.06956e-17
-9.68468e-17
-9.76731e-17
-9.75656e-17
-9.92445e-17
-1.00187e-16
-9.93541e-17
-9.77027e-17
-1.11312e-16
-1.16091e-16
-4.54079e-17
-1.2193e-16
-1.1403e-16
-9.98817e-17
-8.14e-17
-6.46759e-17
-6.12281e-17
-5.27897e-17
-4.37631e-17
-3.58959e-17
-3.40169e-17
-2.39048e-17
-2.24247e-17
-7.28695e-18
-1.07794e-17
-1.01794e-17
-2.14194e-17
-1.38806e-17
-1.07214e-17
-2.98318e-18
-1.2714e-17
-1.08729e-17
-2.77938e-17
-5.14005e-17
-7.51995e-17
-9.88105e-17
-1.26765e-16
-1.49642e-16
-1.87123e-16
-2.32426e-16
-2.97166e-16
-3.65422e-16
)
;

boundaryField
{
    inandouthalf11
    {
        type            cyclic;
        value           nonuniform List<scalar> 
100
(
-2.96729e-11
-2.95073e-11
-2.94858e-11
-2.95088e-11
-2.95199e-11
-2.95239e-11
-2.95289e-11
-2.95352e-11
-2.95416e-11
-2.95481e-11
-2.95548e-11
-2.95614e-11
-2.95681e-11
-2.9575e-11
-2.95819e-11
-2.95889e-11
-2.9596e-11
-2.96032e-11
-2.96104e-11
-2.96178e-11
-2.96252e-11
-2.96327e-11
-2.96402e-11
-2.96478e-11
-2.96555e-11
-2.96633e-11
-2.96711e-11
-2.96789e-11
-2.96868e-11
-2.96948e-11
-2.97028e-11
-2.97109e-11
-2.97189e-11
-2.97271e-11
-2.97353e-11
-2.97436e-11
-2.97518e-11
-2.97602e-11
-2.97686e-11
-2.9777e-11
-2.97856e-11
-2.97941e-11
-2.98027e-11
-2.98114e-11
-2.98201e-11
-2.98289e-11
-2.98379e-11
-2.98467e-11
-2.98558e-11
-2.98649e-11
-2.98741e-11
-2.98834e-11
-2.98927e-11
-2.99022e-11
-2.99118e-11
-2.99215e-11
-2.99312e-11
-2.99411e-11
-2.99511e-11
-2.99612e-11
-2.99715e-11
-2.99818e-11
-2.99924e-11
-3.0003e-11
-3.00138e-11
-3.00247e-11
-3.00358e-11
-3.0047e-11
-3.00584e-11
-3.00699e-11
-3.00816e-11
-3.00935e-11
-3.01055e-11
-3.01177e-11
-3.01301e-11
-3.01428e-11
-3.01555e-11
-3.01685e-11
-3.01817e-11
-3.01951e-11
-3.02087e-11
-3.02225e-11
-3.02366e-11
-3.02509e-11
-3.02654e-11
-3.02802e-11
-3.02953e-11
-3.03106e-11
-3.03261e-11
-3.0342e-11
-3.03582e-11
-3.03746e-11
-3.03914e-11
-3.04084e-11
-3.04259e-11
-3.04436e-11
-3.04617e-11
-3.04802e-11
-3.0499e-11
-3.05183e-11
)
;
    }
    inandouthalf12
    {
        type            cyclic;
        value           nonuniform List<scalar> 
100
(
2.96729e-11
2.95073e-11
2.94858e-11
2.95088e-11
2.95199e-11
2.95239e-11
2.95289e-11
2.95352e-11
2.95416e-11
2.95481e-11
2.95548e-11
2.95614e-11
2.95681e-11
2.9575e-11
2.95819e-11
2.95889e-11
2.9596e-11
2.96032e-11
2.96104e-11
2.96178e-11
2.96252e-11
2.96327e-11
2.96402e-11
2.96478e-11
2.96555e-11
2.96633e-11
2.96711e-11
2.96789e-11
2.96868e-11
2.96948e-11
2.97028e-11
2.97109e-11
2.97189e-11
2.97271e-11
2.97353e-11
2.97436e-11
2.97518e-11
2.97602e-11
2.97686e-11
2.9777e-11
2.97856e-11
2.97941e-11
2.98027e-11
2.98114e-11
2.98201e-11
2.98289e-11
2.98379e-11
2.98467e-11
2.98558e-11
2.98649e-11
2.98741e-11
2.98834e-11
2.98927e-11
2.99022e-11
2.99118e-11
2.99215e-11
2.99312e-11
2.99411e-11
2.99511e-11
2.99612e-11
2.99715e-11
2.99818e-11
2.99924e-11
3.0003e-11
3.00138e-11
3.00247e-11
3.00358e-11
3.0047e-11
3.00584e-11
3.00699e-11
3.00816e-11
3.00935e-11
3.01055e-11
3.01177e-11
3.01301e-11
3.01428e-11
3.01555e-11
3.01685e-11
3.01817e-11
3.01951e-11
3.02087e-11
3.02225e-11
3.02366e-11
3.02509e-11
3.02654e-11
3.02802e-11
3.02953e-11
3.03106e-11
3.03261e-11
3.0342e-11
3.03582e-11
3.03746e-11
3.03914e-11
3.04084e-11
3.04259e-11
3.04436e-11
3.04617e-11
3.04802e-11
3.0499e-11
3.05183e-11
)
;
    }
    inandouthalf21
    {
        type            cyclic;
        value           nonuniform List<scalar> 
100
(
-3.05379e-11
-3.0558e-11
-3.05785e-11
-3.05995e-11
-3.06209e-11
-3.06429e-11
-3.06653e-11
-3.06883e-11
-3.07119e-11
-3.0736e-11
-3.07607e-11
-3.07861e-11
-3.08121e-11
-3.08388e-11
-3.08662e-11
-3.08944e-11
-3.09234e-11
-3.09532e-11
-3.09839e-11
-3.10156e-11
-3.10482e-11
-3.10818e-11
-3.11166e-11
-3.11525e-11
-3.11896e-11
-3.1228e-11
-3.12678e-11
-3.13091e-11
-3.1352e-11
-3.13967e-11
-3.14431e-11
-3.14916e-11
-3.15422e-11
-3.15957e-11
-3.16528e-11
-3.17136e-11
-3.1778e-11
-3.18467e-11
-3.19227e-11
-3.20094e-11
-3.2103e-11
-3.22144e-11
-3.29812e-11
-3.28673e-11
-3.30084e-11
-3.33989e-11
-1.83976e-10
-4.62829e-08
-7.15798e-08
-7.14588e-08
-7.55965e-08
-8.11662e-08
-8.7268e-08
-9.34735e-08
-9.955e-08
-1.0537e-07
-1.10872e-07
-1.16034e-07
-1.20857e-07
-1.25359e-07
-1.29559e-07
-1.33479e-07
-1.37138e-07
-1.40554e-07
-1.43738e-07
-1.467e-07
-1.49444e-07
-1.51972e-07
-1.54281e-07
-1.56366e-07
-1.58219e-07
-1.59829e-07
-1.61181e-07
-1.62258e-07
-1.63043e-07
-1.63514e-07
-1.63648e-07
-1.6342e-07
-1.62804e-07
-1.61775e-07
-1.60308e-07
-1.58382e-07
-1.55982e-07
-1.531e-07
-1.49734e-07
-1.45896e-07
-1.41606e-07
-1.36898e-07
-1.31818e-07
-1.26424e-07
-1.20784e-07
-1.14976e-07
-1.09081e-07
-1.03181e-07
-9.73521e-08
-9.16642e-08
-8.61751e-08
-8.09298e-08
-7.59599e-08
-7.12843e-08
)
;
    }
    inandouthalf22
    {
        type            cyclic;
        value           nonuniform List<scalar> 
100
(
3.05379e-11
3.0558e-11
3.05785e-11
3.05995e-11
3.06209e-11
3.06429e-11
3.06653e-11
3.06883e-11
3.07119e-11
3.0736e-11
3.07607e-11
3.07861e-11
3.08121e-11
3.08388e-11
3.08662e-11
3.08944e-11
3.09234e-11
3.09532e-11
3.09839e-11
3.10156e-11
3.10482e-11
3.10818e-11
3.11166e-11
3.11525e-11
3.11896e-11
3.1228e-11
3.12678e-11
3.13091e-11
3.1352e-11
3.13967e-11
3.14431e-11
3.14916e-11
3.15422e-11
3.15957e-11
3.16528e-11
3.17136e-11
3.1778e-11
3.18467e-11
3.19227e-11
3.20094e-11
3.2103e-11
3.22144e-11
3.29812e-11
3.28673e-11
3.30084e-11
3.33989e-11
1.83976e-10
4.62829e-08
7.15798e-08
7.14588e-08
7.55965e-08
8.11662e-08
8.7268e-08
9.34735e-08
9.955e-08
1.0537e-07
1.10872e-07
1.16034e-07
1.20857e-07
1.25359e-07
1.29559e-07
1.33479e-07
1.37138e-07
1.40554e-07
1.43738e-07
1.467e-07
1.49444e-07
1.51972e-07
1.54281e-07
1.56366e-07
1.58219e-07
1.59829e-07
1.61181e-07
1.62258e-07
1.63043e-07
1.63514e-07
1.63648e-07
1.6342e-07
1.62804e-07
1.61775e-07
1.60308e-07
1.58382e-07
1.55982e-07
1.531e-07
1.49734e-07
1.45896e-07
1.41606e-07
1.36898e-07
1.31818e-07
1.26424e-07
1.20784e-07
1.14976e-07
1.09081e-07
1.03181e-07
9.73521e-08
9.16642e-08
8.61751e-08
8.09298e-08
7.59599e-08
7.12843e-08
)
;
    }
    inandouthalf31
    {
        type            cyclic;
        value           nonuniform List<scalar> 
110
(
-6.69106e-08
-6.40696e-08
-6.13169e-08
-5.86622e-08
-5.61106e-08
-5.36622e-08
-5.13134e-08
-4.90579e-08
-4.6887e-08
-4.47906e-08
-4.27578e-08
-4.07771e-08
-3.88369e-08
-3.69261e-08
-3.50336e-08
-3.31491e-08
-3.1263e-08
-2.93662e-08
-2.74502e-08
-2.55075e-08
-2.35309e-08
-2.15141e-08
-1.94512e-08
-1.73371e-08
-1.5167e-08
-1.29367e-08
-1.06424e-08
-8.28078e-09
-5.84883e-09
-3.34405e-09
-7.64291e-10
1.89222e-09
4.62684e-09
7.44052e-09
1.03338e-08
1.33067e-08
1.63587e-08
1.94887e-08
2.26948e-08
2.59742e-08
2.93236e-08
3.27383e-08
3.62125e-08
3.9739e-08
4.3309e-08
4.69117e-08
5.05341e-08
5.4161e-08
5.77742e-08
6.13521e-08
6.48695e-08
6.82973e-08
7.16015e-08
7.47431e-08
7.76777e-08
8.0355e-08
8.27192e-08
8.47088e-08
8.62583e-08
8.72994e-08
8.77649e-08
8.7593e-08
8.67343e-08
8.51604e-08
8.28736e-08
7.99166e-08
7.63787e-08
7.23968e-08
6.81471e-08
6.3829e-08
5.96448e-08
5.57808e-08
5.23968e-08
4.96238e-08
4.75688e-08
4.63213e-08
4.59674e-08
4.66233e-08
4.83437e-08
5.35174e-08
5.71853e-08
5.85097e-08
5.96999e-08
6.09116e-08
6.2148e-08
6.34094e-08
6.46965e-08
6.60096e-08
6.73495e-08
6.87165e-08
7.01112e-08
7.15343e-08
7.29863e-08
7.44677e-08
7.59792e-08
7.75214e-08
7.90948e-08
8.07002e-08
8.23382e-08
8.40095e-08
8.57147e-08
8.74544e-08
8.92295e-08
9.10407e-08
9.28885e-08
9.47739e-08
9.66976e-08
9.86603e-08
1.00663e-07
1.02706e-07
)
;
    }
    inandouthalf32
    {
        type            cyclic;
        value           nonuniform List<scalar> 
110
(
6.69106e-08
6.40696e-08
6.13169e-08
5.86622e-08
5.61106e-08
5.36622e-08
5.13134e-08
4.90579e-08
4.6887e-08
4.47906e-08
4.27578e-08
4.07771e-08
3.88369e-08
3.69261e-08
3.50336e-08
3.31491e-08
3.1263e-08
2.93662e-08
2.74502e-08
2.55075e-08
2.35309e-08
2.15141e-08
1.94512e-08
1.73371e-08
1.5167e-08
1.29367e-08
1.06424e-08
8.28078e-09
5.84883e-09
3.34405e-09
7.64291e-10
-1.89222e-09
-4.62684e-09
-7.44052e-09
-1.03338e-08
-1.33067e-08
-1.63587e-08
-1.94887e-08
-2.26948e-08
-2.59742e-08
-2.93236e-08
-3.27383e-08
-3.62125e-08
-3.9739e-08
-4.3309e-08
-4.69117e-08
-5.05341e-08
-5.4161e-08
-5.77742e-08
-6.13521e-08
-6.48695e-08
-6.82973e-08
-7.16015e-08
-7.47431e-08
-7.76777e-08
-8.0355e-08
-8.27192e-08
-8.47088e-08
-8.62583e-08
-8.72994e-08
-8.77649e-08
-8.7593e-08
-8.67343e-08
-8.51604e-08
-8.28736e-08
-7.99166e-08
-7.63787e-08
-7.23968e-08
-6.81471e-08
-6.3829e-08
-5.96448e-08
-5.57808e-08
-5.23968e-08
-4.96238e-08
-4.75688e-08
-4.63213e-08
-4.59674e-08
-4.66233e-08
-4.83437e-08
-5.35174e-08
-5.71853e-08
-5.85097e-08
-5.96999e-08
-6.09116e-08
-6.2148e-08
-6.34094e-08
-6.46965e-08
-6.60096e-08
-6.73495e-08
-6.87165e-08
-7.01112e-08
-7.15343e-08
-7.29863e-08
-7.44677e-08
-7.59792e-08
-7.75214e-08
-7.90948e-08
-8.07002e-08
-8.23382e-08
-8.40095e-08
-8.57147e-08
-8.74544e-08
-8.92295e-08
-9.10407e-08
-9.28885e-08
-9.47739e-08
-9.66976e-08
-9.86603e-08
-1.00663e-07
-1.02706e-07
)
;
    }
    inandouthalf41
    {
        type            cyclic;
        value           nonuniform List<scalar> 
50
(
9.19324e-08
9.19324e-08
9.19324e-08
9.19324e-08
9.19324e-08
9.19324e-08
9.19324e-08
9.19324e-08
9.19324e-08
9.19324e-08
9.19324e-08
9.19324e-08
9.19324e-08
9.19324e-08
9.19324e-08
9.19324e-08
9.19324e-08
9.19324e-08
9.19324e-08
9.19324e-08
9.19324e-08
9.19324e-08
9.19324e-08
9.19324e-08
9.19324e-08
9.19324e-08
9.19324e-08
9.19324e-08
9.19324e-08
9.19324e-08
9.19324e-08
9.19324e-08
9.19324e-08
9.19324e-08
9.19324e-08
9.19324e-08
9.19324e-08
9.19324e-08
9.19324e-08
9.19324e-08
9.19324e-08
9.19324e-08
9.19324e-08
9.19324e-08
9.19324e-08
9.19324e-08
9.19324e-08
9.19324e-08
9.19324e-08
9.19324e-08
)
;
    }
    inandouthalf42
    {
        type            cyclic;
        value           nonuniform List<scalar> 
50
(
-9.19324e-08
-9.19324e-08
-9.19324e-08
-9.19324e-08
-9.19324e-08
-9.19324e-08
-9.19324e-08
-9.19324e-08
-9.19324e-08
-9.19324e-08
-9.19324e-08
-9.19324e-08
-9.19324e-08
-9.19324e-08
-9.19324e-08
-9.19324e-08
-9.19324e-08
-9.19324e-08
-9.19324e-08
-9.19324e-08
-9.19324e-08
-9.19324e-08
-9.19324e-08
-9.19324e-08
-9.19324e-08
-9.19324e-08
-9.19324e-08
-9.19324e-08
-9.19324e-08
-9.19324e-08
-9.19324e-08
-9.19324e-08
-9.19324e-08
-9.19324e-08
-9.19324e-08
-9.19324e-08
-9.19324e-08
-9.19324e-08
-9.19324e-08
-9.19324e-08
-9.19324e-08
-9.19324e-08
-9.19324e-08
-9.19324e-08
-9.19324e-08
-9.19324e-08
-9.19324e-08
-9.19324e-08
-9.19324e-08
-9.19324e-08
)
;
    }
    top
    {
        type            symmetryPlane;
        value           uniform 0;
    }
    walls
    {
        type            calculated;
        value           uniform 0;
    }
    frontAndBackPlanes
    {
        type            empty;
        value           nonuniform 0();
    }
}


// ************************************************************************* //
