/*--------------------------------*- C++ -*----------------------------------*\
| =========                 |                                                 |
| \\      /  F ield         | OpenFOAM: The Open Source CFD Toolbox           |
|  \\    /   O peration     | Version:  2.4.x                                 |
|   \\  /    A nd           | Web:      www.OpenFOAM.org                      |
|    \\/     M anipulation  |                                                 |
\*---------------------------------------------------------------------------*/
FoamFile
{
    version     2.0;
    format      ascii;
    class       volScalarField;
    location    "12.4";
    object      epsilon;
}
// * * * * * * * * * * * * * * * * * * * * * * * * * * * * * * * * * * * * * //

dimensions      [0 2 -3 0 0 0 0];

internalField   nonuniform List<scalar> 
360
(
1e-20
1e-20
1e-20
1e-20
1e-20
1e-20
1e-20
1e-20
1e-20
1e-20
1e-20
1e-20
1e-20
1e-20
1e-20
1e-20
1e-20
1e-20
1e-20
1e-20
1e-20
1e-20
1e-20
1e-20
1e-20
1e-20
1e-20
1e-20
1e-20
1e-20
1e-20
1e-20
1e-20
1e-20
1e-20
1e-20
1e-20
1e-20
1e-20
1e-20
1e-20
1e-20
1e-20
1e-20
1e-20
1e-20
1e-20
1e-20
1e-20
1e-20
1e-20
1e-20
1e-20
1e-20
1e-20
1e-20
1e-20
1e-20
1e-20
1e-20
1e-20
1e-20
1e-20
1e-20
1e-20
1e-20
1e-20
1e-20
1e-20
1e-20
1e-20
1e-20
1e-20
1e-20
1e-20
1e-20
1e-20
1e-20
1e-20
1e-20
1e-20
1e-20
1e-20
1e-20
1e-20
1e-20
1e-20
1e-20
1e-20
1e-20
1e-20
1e-20
1e-20
1e-20
1e-20
1e-20
1e-20
1e-20
1e-20
1e-20
1e-20
1e-20
1e-20
1e-20
1e-20
1e-20
1e-20
1e-20
1e-20
1e-20
1e-20
1e-20
1e-20
1e-20
1e-20
1e-20
1e-20
1e-20
1e-20
1e-20
1e-20
1e-20
1e-20
1e-20
1e-20
1e-20
1e-20
1e-20
1e-20
1e-20
1e-20
1.10994e-20
4.65952e-20
2.82684e-19
1.85185e-18
1.30889e-17
1.02107e-16
8.98891e-16
9.10439e-15
1.0783e-13
1.51421e-12
2.55354e-11
5.22996e-10
1.28202e-08
3.87061e-07
1.45884e-05
0.000660591
0.0209737
0.137922
0.192237
0.197828
0.189587
0.176945
0.163254
0.149882
0.137383
0.125945
0.115585
0.106244
0.0978261
0.0902318
0.0833623
0.0771277
0.0714481
0.0662536
0.0614844
0.0570889
0.0530231
0.0492498
0.0457371
0.0424581
0.0393899
0.0365131
0.0338114
0.0312711
0.0288808
0.0266308
0.0245132
0.0225215
0.0206504
0.0188955
0.0172533
0.0157207
0.014295
0.0129737
0.0117543
0.0106341
0.00960996
0.00867853
0.00783586
0.00707751
0.0063986
0.0057938
0.0052575
0.00478392
0.00436722
0.00400167
0.00368174
0.00340222
0.00315828
0.00294552
0.0027581
0.00259174
0.00244441
0.00231416
0.00219922
0.00209794
0.00200882
0.00193052
0.00186182
0.00180164
0.00174901
0.00170306
0.00166303
0.00162821
0.00159798
0.0015718
0.00154916
0.00152959
0.00151268
0.00149805
0.00148533
0.0014742
0.00146435
0.00145549
0.00144733
0.00143963
0.00143211
0.00142455
0.00141671
0.00140838
0.00139933
0.00138936
0.00137828
0.0013659
0.00135203
0.00133652
0.0013192
0.00129993
0.00127857
0.00125501
0.00122916
0.00120092
0.00117023
0.00113706
0.00110139
0.00106325
0.00102266
0.000979726
0.000934547
0.000887283
0.000838133
0.00078734
0.000735196
0.000682038
0.000628253
0.000574277
0.000520585
0.000467691
0.000416133
0.000366464
0.000319225
0.000274929
0.000234025
0.000196877
0.000163727
0.000134673
0.00010966
8.84831e-05
7.08042e-05
5.61936e-05
4.41748e-05
3.42722e-05
2.60546e-05
1.91679e-05
1.33584e-05
8.4883e-06
4.54609e-06
1.64585e-06
2.25957e-07
7.08141e-09
1.01805e-10
1.32325e-12
1.6215e-14
1.87328e-16
2.0466e-18
2.87936e-20
1e-20
1e-20
1e-20
1e-20
1e-20
1e-20
1e-20
1e-20
1e-20
1e-20
1e-20
1e-20
1e-20
1e-20
1e-20
1e-20
1e-20
1e-20
1e-20
1e-20
1e-20
1e-20
1e-20
1e-20
1e-20
1e-20
1e-20
1e-20
1e-20
1e-20
1e-20
1e-20
1e-20
1e-20
1e-20
1e-20
1e-20
1e-20
1e-20
1e-20
1e-20
1e-20
1e-20
1e-20
1e-20
1e-20
1e-20
1e-20
1e-20
1e-20
1e-20
1e-20
1e-20
1e-20
1e-20
1e-20
1e-20
1e-20
1e-20
1e-20
1e-20
1e-20
1e-20
1e-20
1e-20
1e-20
1e-20
1e-20
1e-20
1e-20
1e-20
1e-20
1e-20
)
;

boundaryField
{
    inandouthalf11
    {
        type            cyclic;
    }
    inandouthalf12
    {
        type            cyclic;
    }
    inandouthalf21
    {
        type            cyclic;
    }
    inandouthalf22
    {
        type            cyclic;
    }
    inandouthalf31
    {
        type            cyclic;
    }
    inandouthalf32
    {
        type            cyclic;
    }
    inandouthalf41
    {
        type            cyclic;
    }
    inandouthalf42
    {
        type            cyclic;
    }
    top
    {
        type            symmetryPlane;
    }
    walls
    {
        type            zeroGradient;
    }
    frontAndBackPlanes
    {
        type            empty;
    }
}


// ************************************************************************* //
