/*--------------------------------*- C++ -*----------------------------------*\
| =========                 |                                                 |
| \\      /  F ield         | OpenFOAM: The Open Source CFD Toolbox           |
|  \\    /   O peration     | Version:  2.4.x                                 |
|   \\  /    A nd           | Web:      www.OpenFOAM.org                      |
|    \\/     M anipulation  |                                                 |
\*---------------------------------------------------------------------------*/
FoamFile
{
    version     2.0;
    format      ascii;
    class       volVectorField;
    location    "12.4";
    object      gradPs;
}
// * * * * * * * * * * * * * * * * * * * * * * * * * * * * * * * * * * * * * //

dimensions      [0 1 -2 0 0 0 0];

internalField   nonuniform List<vector> 
360
(
(0 1.5583e-18 0)
(0 1.71665e-18 0)
(0 -1.85447e-21 0)
(0 -2.37933e-19 0)
(-2.90051e-32 -9.91604e-20 0)
(-1.45028e-32 -5.41126e-20 0)
(-1.45032e-32 -6.99878e-20 0)
(0 -8.00595e-20 0)
(-1.45043e-32 -8.13954e-20 0)
(0 -8.20737e-20 0)
(-2.90108e-32 -8.23704e-20 0)
(0 -8.27112e-20 0)
(-1.45065e-32 -8.3428e-20 0)
(0 -8.41688e-20 0)
(0 -8.51356e-20 0)
(0 -8.61162e-20 0)
(0 -8.68992e-20 0)
(-1.45093e-32 -8.76104e-20 0)
(0 -8.86817e-20 0)
(0 -8.94388e-20 0)
(0 -9.02271e-20 0)
(-1.45117e-32 -9.135e-20 0)
(0 -9.2169e-20 0)
(0 -9.31204e-20 0)
(0 -9.40967e-20 0)
(-1.45141e-32 -9.48873e-20 0)
(0 -9.59667e-20 0)
(0 -9.70881e-20 0)
(0 -9.78939e-20 0)
(0 -9.88362e-20 0)
(0 -1.0015e-19 0)
(0 -1.00841e-19 0)
(0 -1.02061e-19 0)
(0 -1.0331e-19 0)
(0 -1.04106e-19 0)
(2.90416e-32 -1.05239e-19 0)
(0 -1.06321e-19 0)
(0 -1.07923e-19 0)
(0 -1.08452e-19 0)
(0 -1.09758e-19 0)
(0 -1.11523e-19 0)
(0 -1.11898e-19 0)
(1.45259e-32 -1.135e-19 0)
(0 -1.14968e-19 0)
(0 -1.15909e-19 0)
(0 -1.1767e-19 0)
(0 -1.18421e-19 0)
(0 -1.19569e-19 0)
(0 -1.21942e-19 0)
(0 -1.22788e-19 0)
(1.45322e-32 -1.23886e-19 0)
(0 -1.25729e-19 0)
(0 -1.27219e-19 0)
(0 -1.2842e-19 0)
(0 -1.30248e-19 0)
(0 -1.31757e-19 0)
(0 -1.33198e-19 0)
(0 -1.35236e-19 0)
(0 -1.36092e-19 0)
(0 -1.3836e-19 0)
(0 -1.40152e-19 0)
(0 -1.41664e-19 0)
(0 -1.43774e-19 0)
(0 -1.45371e-19 0)
(0 -1.47196e-19 0)
(0 -1.49174e-19 0)
(0 -1.51438e-19 0)
(0 -1.53312e-19 0)
(0 -1.54813e-19 0)
(0 -1.57278e-19 0)
(0 -1.60202e-19 0)
(0 -1.61516e-19 0)
(0 -1.63723e-19 0)
(0 -1.66541e-19 0)
(0 -1.6898e-19 0)
(0 -1.71304e-19 0)
(0 -1.73418e-19 0)
(0 -1.76262e-19 0)
(0 -1.79057e-19 0)
(0 -1.81559e-19 0)
(0 -1.84285e-19 0)
(0 -1.87368e-19 0)
(0 -1.90296e-19 0)
(0 -1.93322e-19 0)
(0 -1.96452e-19 0)
(0 -1.99702e-19 0)
(0 -2.02999e-19 0)
(0 -2.06297e-19 0)
(0 -2.09835e-19 0)
(0 -2.1349e-19 0)
(0 -2.17197e-19 0)
(0 -2.21095e-19 0)
(0 -2.25159e-19 0)
(0 -2.29304e-19 0)
(0 -2.33582e-19 0)
(0 -2.38004e-19 0)
(0 -2.42558e-19 0)
(0 -2.47263e-19 0)
(0 -2.52149e-19 0)
(0 -2.57218e-19 0)
(0 -2.62475e-19 0)
(0 -2.67939e-19 0)
(0 -2.73613e-19 0)
(0 -2.79493e-19 0)
(0 -2.85592e-19 0)
(0 -2.91923e-19 0)
(0 -2.98496e-19 0)
(0 -3.05327e-19 0)
(0 -3.12431e-19 0)
(0 -3.19824e-19 0)
(0 -3.2752e-19 0)
(0 -3.3554e-19 0)
(0 -3.43904e-19 0)
(0 -3.52636e-19 0)
(0 -3.61764e-19 0)
(0 -3.71318e-19 0)
(0 -3.81334e-19 0)
(0 -3.91853e-19 0)
(0 -4.02919e-19 0)
(0 -4.14579e-19 0)
(0 -4.26875e-19 0)
(0 -4.39842e-19 0)
(0 -4.53505e-19 0)
(0 -4.67887e-19 0)
(0 -4.83048e-19 0)
(0 -4.99122e-19 0)
(0 -5.16328e-19 0)
(0 -5.34896e-19 0)
(0 -5.54872e-19 0)
(0 -5.75995e-19 0)
(0 -6.13275e-19 0)
(0 3.41641e-16 0)
(0 2.56592e-15 0)
(0 1.52548e-14 0)
(0 9.36544e-14 0)
(0 6.23811e-13 0)
(0 4.62082e-12 0)
(0 3.88739e-11 0)
(0 3.78044e-10 0)
(0 4.31286e-09 0)
(0 5.85273e-08 0)
(0 9.53704e-07 0)
(0 1.95918e-05 0)
(0 0.000807127 0)
(0 0.0497849 0)
(0 1.06535 0)
(0 3.62789 0)
(0 3.22249 0)
(0 -1.24728 0)
(0 -2.65774 0)
(0 -3.32296 0)
(0 -3.42558 0)
(0 -3.3763 0)
(0 -3.28196 0)
(0 -3.17279 0)
(0 -3.0625 0)
(0 -2.95694 0)
(0 -2.85803 0)
(0 -2.76592 0)
(0 -2.67996 0)
(0 -2.59938 0)
(0 -2.52345 0)
(0 -2.45139 0)
(0 -2.38268 0)
(0 -2.31686 0)
(0 -2.25354 0)
(0 -2.1924 0)
(0 -2.1332 0)
(0 -2.07578 0)
(0 -2.02003 0)
(0 -1.96592 0)
(0 -1.91346 0)
(0 -1.86278 0)
(0 -1.81416 0)
(0 -1.76834 0)
(0 -1.72694 0)
(0 -1.69253 0)
(0 -1.66767 0)
(0 -1.65247 0)
(0 -1.64203 0)
(0 -1.62641 0)
(0 -1.59459 0)
(0 -1.53998 0)
(0 -1.46334 0)
(0 -1.37128 0)
(0 -1.27232 0)
(0 -1.17371 0)
(0 -1.08021 0)
(0 -0.994283 0)
(0 -0.916786 0)
(0 -0.847634 0)
(0 -0.786261 0)
(0 -0.731907 0)
(0 -0.683772 0)
(0 -0.641089 0)
(0 -0.60316 0)
(0 -0.569364 0)
(0 -0.539154 0)
(0 -0.512049 0)
(0 -0.487624 0)
(0 -0.465466 0)
(0 -0.445168 0)
(-1.54841e-16 -0.426325 0)
(0 -0.4087 0)
(0 -0.392114 0)
(1.78108e-16 -0.376393 0)
(0 -0.361374 0)
(-1.95225e-16 -0.346907 0)
(0 -0.332861 0)
(2.13762e-16 -0.319127 0)
(0 -0.305614 0)
(0 -0.292258 0)
(0 -0.27901 0)
(1.27582e-16 -0.265835 0)
(0 -0.252711 0)
(0 -0.23962 0)
(0 -0.226547 0)
(0 -0.213478 0)
(0 -0.200398 0)
(-8.14288e-17 -0.187299 0)
(0 -0.174181 0)
(-4.37316e-17 -0.161066 0)
(0 -0.148002 0)
(-4.66288e-17 -0.135076 0)
(0 -0.122438 0)
(0 -0.110315 0)
(0 -0.0990025 0)
(0 -0.0887619 0)
(0 -0.0796021 0)
(1.34409e-17 -0.070948 0)
(0 -0.0614547 0)
(0 -0.0497863 0)
(0 -0.0368339 0)
(0 -0.0264871 0)
(0 -0.0212751 0)
(0 -0.0247613 0)
(0 -0.0148708 0)
(0 0 0)
(0 0 0)
(0 0 0)
(0 0 0)
(0 0 0)
(0 0 0)
(0 0 0)
(0 0 0)
(0 0 0)
(0 0 0)
(0 0 0)
(0 0 0)
(0 0 0)
(0 0 0)
(0 0 0)
(0 0 0)
(0 0 0)
(0 0 0)
(0 0 0)
(0 0 0)
(0 0 0)
(0 0 0)
(0 0 0)
(0 0 0)
(0 0 0)
(0 0 0)
(0 0 0)
(0 0 0)
(0 0 0)
(0 0 0)
(0 0 0)
(0 0 0)
(0 0 0)
(0 0 0)
(0 0 0)
(0 0 0)
(0 0 0)
(0 0 0)
(0 0 0)
(0 0 0)
(0 0 0)
(0 0 0)
(0 0 0)
(0 0 0)
(0 0 0)
(0 0 0)
(0 0 0)
(0 0 0)
(0 0 0)
(0 0 0)
(0 0 0)
(0 0 0)
(0 0 0)
(0 0 0)
(0 0 0)
(0 0 0)
(0 0 0)
(0 0 0)
(0 0 0)
(0 0 0)
(0 0 0)
(0 0 0)
(0 0 0)
(0 0 0)
(0 0 0)
(0 0 0)
(0 0 0)
(0 0 0)
(0 0 0)
(0 0 0)
(0 0 0)
(0 0 0)
(0 0 0)
(0 0 0)
(0 0 0)
(0 0 0)
(0 0 0)
(0 0 0)
(0 0 0)
(0 0 0)
(0 0 0)
(0 0 0)
(0 0 0)
(0 0 0)
(0 0 0)
(0 0 0)
(0 0 0)
(0 0 0)
(0 0 0)
(0 0 0)
(0 0 0)
(0 0 0)
(0 0 0)
(0 0 0)
(0 0 0)
(0 0 0)
(0 0 0)
(0 0 0)
(0 0 0)
(0 0 0)
(0 0 0)
(0 0 0)
(0 0 0)
(0 0 0)
(0 0 0)
(0 0 0)
(0 0 0)
(0 0 0)
(0 0 0)
(0 0 0)
(0 0 0)
(0 0 0)
(0 0 0)
(0 0 0)
(0 0 0)
(0 0 0)
(0 0 0)
(0 0 0)
(0 0 0)
(0 0 0)
(0 0 0)
(0 0 0)
(0 0 0)
)
;

boundaryField
{
    inandouthalf11
    {
        type            cyclic;
    }
    inandouthalf12
    {
        type            cyclic;
    }
    inandouthalf21
    {
        type            cyclic;
    }
    inandouthalf22
    {
        type            cyclic;
    }
    inandouthalf31
    {
        type            cyclic;
    }
    inandouthalf32
    {
        type            cyclic;
    }
    inandouthalf41
    {
        type            cyclic;
    }
    inandouthalf42
    {
        type            cyclic;
    }
    top
    {
        type            symmetryPlane;
    }
    walls
    {
        type            calculated;
        value           uniform (0 0 0);
    }
    frontAndBackPlanes
    {
        type            empty;
    }
}


// ************************************************************************* //
