/*--------------------------------*- C++ -*----------------------------------*\
| =========                 |                                                 |
| \\      /  F ield         | OpenFOAM: The Open Source CFD Toolbox           |
|  \\    /   O peration     | Version:  2.4.x                                 |
|   \\  /    A nd           | Web:      www.OpenFOAM.org                      |
|    \\/     M anipulation  |                                                 |
\*---------------------------------------------------------------------------*/
FoamFile
{
    version     2.0;
    format      ascii;
    class       volVectorField;
    location    "12.4";
    object      gradPf;
}
// * * * * * * * * * * * * * * * * * * * * * * * * * * * * * * * * * * * * * //

dimensions      [0 1 -2 0 0 0 0];

internalField   nonuniform List<vector> 
360
(
(0 72.6196 0)
(0 81.1275 0)
(0 -0.0972596 0)
(0 -12.6775 0)
(-3.34406e-14 -5.2017 0)
(-3.34413e-14 -2.81356 0)
(-3.34422e-14 -3.61968 0)
(0 -4.11605 0)
(-3.34446e-14 -4.15674 0)
(0 -4.16287 0)
(-3.34471e-14 -4.14941 0)
(0 -4.1379 0)
(-3.34497e-14 -4.14494 0)
(0 -4.15261 0)
(0 -4.17075 0)
(0 -4.18881 0)
(0 -4.19656 0)
(-3.34562e-14 -4.20028 0)
(0 -4.2205 0)
(0 -4.22523 0)
(0 -4.23063 0)
(-3.34616e-14 -4.25114 0)
(0 -4.25668 0)
(0 -4.26765 0)
(0 -4.27904 0)
(-3.34673e-14 -4.28133 0)
(0 -4.29585 0)
(0 -4.3115 0)
(0 -4.31233 0)
(0 -4.31853 0)
(0 -4.34005 0)
(0 -4.33402 0)
(0 -4.34961 0)
(0 -4.36593 0)
(0 -4.36193 0)
(3.34827e-14 -4.37163 0)
(0 -4.37818 0)
(0 -4.40515 0)
(0 -4.38771 0)
(0 -4.40057 0)
(0 -4.43115 0)
(0 -4.40549 0)
(3.34944e-14 -4.42725 0)
(0 -4.44298 0)
(0 -4.43704 0)
(0 -4.4616 0)
(0 -4.44711 0)
(0 -4.44653 0)
(0 -4.49028 0)
(0 -4.47677 0)
(1.67545e-14 -4.47132 0)
(0 -4.49207 0)
(0 -4.49863 0)
(0 -4.49427 0)
(0 -4.51028 0)
(0 -4.51456 0)
(0 -4.51478 0)
(0 -4.5344 0)
(0 -4.51322 0)
(0 -4.53743 0)
(0 -4.54504 0)
(0 -4.5417 0)
(0 -4.55666 0)
(0 -4.55369 0)
(0 -4.5568 0)
(0 -4.56308 0)
(0 -4.57661 0)
(0 -4.57678 0)
(0 -4.56468 0)
(0 -4.57934 0)
(0 -4.60553 0)
(0 -4.58391 0)
(0 -4.586 0)
(0 -4.60387 0)
(0 -4.60883 0)
(0 -4.60923 0)
(0 -4.60215 0)
(0 -4.61277 0)
(0 -4.62 0)
(0 -4.61774 0)
(0 -4.61923 0)
(0 -4.62759 0)
(0 -4.62991 0)
(0 -4.63241 0)
(0 -4.6352 0)
(0 -4.63847 0)
(0 -4.64049 0)
(0 -4.64012 0)
(0 -4.64271 0)
(0 -4.64532 0)
(0 -4.64637 0)
(0 -4.64879 0)
(0 -4.65182 0)
(0 -4.65355 0)
(0 -4.65498 0)
(0 -4.65614 0)
(0 -4.65671 0)
(0 -4.65687 0)
(0 -4.65703 0)
(0 -4.65707 0)
(0 -4.65685 0)
(0 -4.65654 0)
(0 -4.65594 0)
(0 -4.6548 0)
(0 -4.65313 0)
(0 -4.6509 0)
(0 -4.64807 0)
(0 -4.64463 0)
(0 -4.64057 0)
(0 -4.63583 0)
(0 -4.63038 0)
(0 -4.62419 0)
(0 -4.61723 0)
(0 -4.60949 0)
(0 -4.601 0)
(0 -4.59176 0)
(0 -4.58181 0)
(0 -4.57118 0)
(0 -4.55992 0)
(0 -4.54803 0)
(0 -4.53541 0)
(0 -4.52186 0)
(0 -4.507 0)
(0 -4.49049 0)
(0 -4.47227 0)
(0 -4.45287 0)
(0 -4.43335 0)
(0 -4.41458 0)
(0 -4.39568 0)
(0 -4.37348 0)
(0 -4.34587 0)
(0 -4.32028 0)
(0 -4.31636 0)
(0 -4.34478 0)
(0 -4.37979 0)
(0 -4.38523 0)
(0 -4.38325 0)
(0 -4.46367 0)
(0 -4.66343 0)
(0 -4.76434 0)
(0 -4.91506 0)
(0 -14.4369 0)
(0 -10.6544 0)
(0 -0.273284 0)
(0 -3.7643 0)
(0 -7.06858 0)
(0 -9.65021 0)
(0 -6.24734 0)
(0 0 0)
(0 0 0)
(0 0 0)
(0 0 0)
(0 0 0)
(0 0 0)
(0 0 0)
(0 0 0)
(0 0 0)
(0 0 0)
(0 0 0)
(0 0 0)
(0 0 0)
(0 0 0)
(0 0 0)
(0 0 0)
(0 0 0)
(0 0 0)
(0 0 0)
(0 0 0)
(0 0 0)
(0 0 0)
(0 0 0)
(0 0 0)
(0 0 0)
(0 0 0)
(0 0 0)
(0 0 0)
(0 0 0)
(0 0 0)
(0 0 0)
(0 0 0)
(0 0 0)
(0 0 0)
(0 0 0)
(0 0 0)
(0 0 0)
(0 0 0)
(0 0 0)
(0 0 0)
(0 0 0)
(0 0 0)
(0 0 0)
(0 0 0)
(0 0 0)
(0 0 0)
(0 0 0)
(0 0 0)
(0 0 0)
(0 0 0)
(0 0 0)
(0 0 0)
(0 0 0)
(0 0 0)
(0 0 0)
(0 0 0)
(0 0 0)
(0 0 0)
(0 0 0)
(0 0 0)
(0 0 0)
(0 0 0)
(0 0 0)
(0 0 0)
(0 0 0)
(0 0 0)
(0 0 0)
(0 0 0)
(0 0 0)
(0 0 0)
(0 0 0)
(0 0 0)
(0 0 0)
(0 0 0)
(0 0 0)
(0 0 0)
(0 0 0)
(0 0 0)
(0 0 0)
(0 0 0)
(0 0 0)
(0 0 0)
(0 0 0)
(0 0 0)
(0 0 0)
(0 0 0)
(0 0 0)
(0 0 0)
(0 0 0)
(0 0 0)
(0 0 0)
(0 0 0)
(0 0 0)
(0 0 0)
(0 0 0)
(0 0 0)
(0 0 0)
(0 0 0)
(0 0 0)
(0 0 0)
(0 0 0)
(0 0 0)
(0 0 0)
(0 0 0)
(0 0 0)
(0 0 0)
(0 0 0)
(0 0 0)
(0 0 0)
(0 0 0)
(0 0 0)
(0 0 0)
(0 0 0)
(0 0 0)
(0 0 0)
(0 0 0)
(0 0 0)
(0 0 0)
(0 0 0)
(0 0 0)
(0 0 0)
(0 0 0)
(0 0 0)
(0 0 0)
(0 0 0)
(0 0 0)
(0 0 0)
(0 0 0)
(0 0 0)
(0 0 0)
(0 0 0)
(0 0 0)
(0 0 0)
(0 0 0)
(0 0 0)
(0 0 0)
(0 0 0)
(0 0 0)
(0 0 0)
(0 0 0)
(0 0 0)
(0 0 0)
(0 0 0)
(0 0 0)
(0 0 0)
(0 0 0)
(0 0 0)
(0 0 0)
(0 0 0)
(0 0 0)
(0 0 0)
(0 0 0)
(0 0 0)
(0 0 0)
(0 0 0)
(0 0 0)
(0 0 0)
(0 0 0)
(0 0 0)
(0 0 0)
(0 0 0)
(0 0 0)
(0 0 0)
(0 0 0)
(0 0 0)
(0 0 0)
(0 0 0)
(0 0 0)
(0 0 0)
(0 0 0)
(0 0 0)
(0 0 0)
(0 0 0)
(0 0 0)
(0 0 0)
(0 0 0)
(0 0 0)
(0 0 0)
(0 0 0)
(0 0 0)
(0 0 0)
(0 0 0)
(0 0 0)
(0 0 0)
(0 0 0)
(0 0 0)
(0 0 0)
(0 0 0)
(0 0 0)
(0 0 0)
(0 0 0)
(0 0 0)
(0 0 0)
(0 0 0)
(0 0 0)
(0 0 0)
(0 0 0)
(0 0 0)
(0 0 0)
(0 0 0)
(0 0 0)
(0 0 0)
(0 0 0)
(0 0 0)
(0 0 0)
(0 0 0)
(0 0 0)
(0 0 0)
(0 0 0)
(0 0 0)
(0 0 0)
(0 0 0)
)
;

boundaryField
{
    inandouthalf11
    {
        type            cyclic;
    }
    inandouthalf12
    {
        type            cyclic;
    }
    inandouthalf21
    {
        type            cyclic;
    }
    inandouthalf22
    {
        type            cyclic;
    }
    inandouthalf31
    {
        type            cyclic;
    }
    inandouthalf32
    {
        type            cyclic;
    }
    inandouthalf41
    {
        type            cyclic;
    }
    inandouthalf42
    {
        type            cyclic;
    }
    top
    {
        type            symmetryPlane;
    }
    walls
    {
        type            calculated;
        value           uniform (0 0 0);
    }
    frontAndBackPlanes
    {
        type            empty;
    }
}


// ************************************************************************* //
