/*--------------------------------*- C++ -*----------------------------------*\
| =========                 |                                                 |
| \\      /  F ield         | OpenFOAM: The Open Source CFD Toolbox           |
|  \\    /   O peration     | Version:  2.4.x                                 |
|   \\  /    A nd           | Web:      www.OpenFOAM.org                      |
|    \\/     M anipulation  |                                                 |
\*---------------------------------------------------------------------------*/
FoamFile
{
    version     2.0;
    format      ascii;
    class       surfaceScalarField;
    location    "12.4";
    object      phia_0;
}
// * * * * * * * * * * * * * * * * * * * * * * * * * * * * * * * * * * * * * //

dimensions      [0 3 -1 0 0 0 0];

internalField   nonuniform List<scalar> 
359
(
-4.19073e-15
-1.04602e-14
-1.62841e-14
-2.19416e-14
-2.78451e-14
-3.39873e-14
-4.02998e-14
-4.67805e-14
-5.3454e-14
-6.03456e-14
-6.74697e-14
-7.48308e-14
-8.24304e-14
-9.02666e-14
-9.83369e-14
-1.06637e-13
-1.15161e-13
-1.239e-13
-1.32842e-13
-1.41978e-13
-1.51292e-13
-1.60771e-13
-1.704e-13
-1.80165e-13
-1.90049e-13
-2.00035e-13
-2.10107e-13
-2.20249e-13
-2.30446e-13
-2.40679e-13
-2.50934e-13
-2.61197e-13
-2.71449e-13
-2.81682e-13
-2.91879e-13
-3.0203e-13
-3.1212e-13
-3.22142e-13
-3.32086e-13
-3.4194e-13
-3.517e-13
-3.61358e-13
-3.70904e-13
-3.80338e-13
-3.89653e-13
-3.98847e-13
-4.07916e-13
-4.16854e-13
-4.25663e-13
-4.34344e-13
-4.42892e-13
-4.5131e-13
-4.59595e-13
-4.67752e-13
-4.75778e-13
-4.83678e-13
-4.9145e-13
-4.99099e-13
-5.06625e-13
-5.14027e-13
-5.21314e-13
-5.28483e-13
-5.35542e-13
-5.42489e-13
-5.49329e-13
-5.56062e-13
-5.62692e-13
-5.69222e-13
-5.75653e-13
-5.81985e-13
-5.88225e-13
-5.94374e-13
-6.00433e-13
-6.06406e-13
-6.12294e-13
-6.18102e-13
-6.23827e-13
-6.29473e-13
-6.3504e-13
-6.4053e-13
-6.45945e-13
-6.51285e-13
-6.56553e-13
-6.61751e-13
-6.6688e-13
-6.7194e-13
-6.76933e-13
-6.81859e-13
-6.86718e-13
-6.91509e-13
-6.96235e-13
-7.00895e-13
-7.0549e-13
-7.1002e-13
-7.14488e-13
-7.18893e-13
-7.23236e-13
-7.27517e-13
-7.31737e-13
-7.35895e-13
-7.39992e-13
-7.44029e-13
-7.48007e-13
-7.51926e-13
-7.55787e-13
-7.59592e-13
-7.63341e-13
-7.67037e-13
-7.7068e-13
-7.74272e-13
-7.77815e-13
-7.8131e-13
-7.84758e-13
-7.8816e-13
-7.91517e-13
-7.94828e-13
-7.98094e-13
-8.01312e-13
-8.04481e-13
-8.07597e-13
-8.10656e-13
-8.13654e-13
-8.16587e-13
-8.19452e-13
-8.22249e-13
-8.24979e-13
-8.2765e-13
-8.30275e-13
-8.32872e-13
-8.35462e-13
-8.38063e-13
-8.40687e-13
-8.43329e-13
-8.45952e-13
-8.48468e-13
-8.50716e-13
-8.52505e-13
-8.53712e-13
-8.54374e-13
-8.54664e-13
-8.54789e-13
-8.54778e-13
-8.55212e-13
-8.55382e-13
-8.55473e-13
-8.55438e-13
-8.76964e-12
-6.24475e-10
-1.05019e-09
-1.28455e-09
-1.4128e-09
-1.4818e-09
-1.49692e-09
-1.45758e-09
-1.36148e-09
-1.20671e-09
-9.92413e-10
-7.18935e-10
-3.87569e-10
1.2139e-13
4.39256e-10
9.28866e-10
1.46497e-09
2.04386e-09
2.66173e-09
3.31456e-09
3.99805e-09
4.70759e-09
5.4381e-09
6.184e-09
6.93895e-09
7.69574e-09
8.44598e-09
9.17971e-09
9.88438e-09
1.05426e-08
1.11283e-08
1.1604e-08
1.1921e-08
1.20295e-08
1.18941e-08
1.15073e-08
1.08919e-08
1.00927e-08
9.16284e-09
8.15373e-09
7.10909e-09
6.06312e-09
5.04107e-09
4.06058e-09
3.1333e-09
2.26638e-09
1.46361e-09
7.26363e-10
5.42511e-11
-5.54323e-10
-1.10181e-09
-1.59121e-09
-2.0259e-09
-2.40943e-09
-2.74545e-09
-3.04312e-09
-3.30381e-09
-3.52912e-09
-3.72085e-09
-3.8809e-09
-4.01128e-09
-4.11405e-09
-4.19124e-09
-4.24486e-09
-4.27684e-09
-4.28901e-09
-4.28308e-09
-4.26064e-09
-4.22317e-09
-4.17201e-09
-4.1084e-09
-4.03347e-09
-3.94824e-09
-3.8536e-09
-3.75029e-09
-3.63888e-09
-3.51973e-09
-3.39296e-09
-3.25853e-09
-3.11644e-09
-2.96743e-09
-2.81443e-09
-2.66496e-09
-2.53445e-09
-2.44919e-09
-2.4431e-09
-2.53142e-09
-2.66933e-09
-2.78431e-09
-2.95732e-09
-3.81623e-09
-5.37752e-09
-6.85881e-09
-8.19251e-09
-9.3649e-09
-1.03624e-08
-1.11757e-08
-1.18006e-08
-1.22389e-08
-1.25004e-08
-1.25882e-08
-1.25195e-08
-1.25579e-08
-1.15705e-08
-1.50726e-08
-7.34437e-08
-1.4761e-07
-1.58557e-07
-1.58433e-07
-1.58438e-07
-1.58437e-07
-1.58436e-07
-1.58432e-07
-1.58427e-07
-1.58419e-07
-1.5841e-07
-1.58399e-07
-1.58386e-07
-1.58372e-07
-1.58357e-07
-1.58341e-07
-1.58326e-07
-1.58312e-07
-1.58299e-07
-1.58287e-07
-1.58277e-07
-1.58269e-07
-1.58263e-07
-1.58257e-07
-1.58252e-07
-1.58246e-07
-1.58239e-07
-1.58224e-07
-1.58204e-07
-1.582e-07
-1.582e-07
-1.582e-07
-1.582e-07
-1.582e-07
-1.582e-07
-1.582e-07
-1.582e-07
-1.582e-07
-1.582e-07
-1.582e-07
-1.582e-07
-1.582e-07
-1.582e-07
-1.582e-07
-1.582e-07
-1.582e-07
-1.582e-07
-1.582e-07
-1.582e-07
-1.582e-07
-1.582e-07
-1.582e-07
-1.582e-07
-1.582e-07
-1.582e-07
-1.582e-07
-1.582e-07
-1.582e-07
-1.582e-07
-1.582e-07
-1.582e-07
-1.582e-07
-1.582e-07
-1.582e-07
-1.582e-07
-1.582e-07
-1.582e-07
-1.582e-07
-1.582e-07
-1.582e-07
-1.582e-07
-1.582e-07
-1.582e-07
-1.582e-07
-1.582e-07
-1.582e-07
-1.582e-07
-1.582e-07
-1.582e-07
-1.582e-07
-1.582e-07
-1.582e-07
-1.582e-07
-1.582e-07
-1.582e-07
-1.582e-07
-1.582e-07
-1.582e-07
-1.582e-07
-1.582e-07
-1.582e-07
-1.582e-07
-1.582e-07
-1.582e-07
-1.582e-07
-1.582e-07
-1.582e-07
-1.582e-07
-1.582e-07
-1.582e-07
-1.582e-07
-1.582e-07
-1.582e-07
-1.582e-07
-1.582e-07
-1.58183e-07
-1.57476e-07
-1.32607e-07
)
;

boundaryField
{
    inandouthalf11
    {
        type            cyclic;
        value           nonuniform List<scalar> 
100
(
1.58715e-38
4.24886e-16
8.83395e-16
1.29914e-15
1.72973e-15
2.18731e-15
2.66283e-15
3.15304e-15
3.65976e-15
4.1853e-15
4.73126e-15
5.29856e-15
5.88762e-15
6.49858e-15
7.13147e-15
7.78619e-15
8.46253e-15
9.16002e-15
9.87806e-15
1.06159e-14
1.13726e-14
1.21473e-14
1.29388e-14
1.37461e-14
1.4568e-14
1.54032e-14
1.62503e-14
1.71081e-14
1.79752e-14
1.88503e-14
1.97321e-14
2.06192e-14
2.15103e-14
2.24043e-14
2.32999e-14
2.4196e-14
2.50914e-14
2.59851e-14
2.68763e-14
2.77639e-14
2.86473e-14
2.95256e-14
3.03981e-14
3.12642e-14
3.21234e-14
3.29754e-14
3.38196e-14
3.46556e-14
3.5483e-14
3.6302e-14
3.71121e-14
3.79132e-14
3.87052e-14
3.94881e-14
4.02619e-14
4.10266e-14
4.17822e-14
4.25288e-14
4.32665e-14
4.39952e-14
4.47152e-14
4.54266e-14
4.61297e-14
4.68247e-14
4.75116e-14
4.81907e-14
4.8862e-14
4.95258e-14
5.01823e-14
5.08314e-14
5.14735e-14
5.21089e-14
5.27376e-14
5.33599e-14
5.39759e-14
5.45859e-14
5.51901e-14
5.57883e-14
5.63808e-14
5.69677e-14
5.7549e-14
5.8125e-14
5.86957e-14
5.92614e-14
5.98222e-14
6.03782e-14
6.09294e-14
6.14759e-14
6.20178e-14
6.2555e-14
6.30875e-14
6.36155e-14
6.41389e-14
6.4658e-14
6.51727e-14
6.56832e-14
6.61896e-14
6.66918e-14
6.71901e-14
6.76843e-14
)
;
    }
    inandouthalf12
    {
        type            cyclic;
        value           nonuniform List<scalar> 
100
(
-1.58715e-38
-4.24886e-16
-8.83395e-16
-1.29914e-15
-1.72973e-15
-2.18731e-15
-2.66283e-15
-3.15304e-15
-3.65976e-15
-4.1853e-15
-4.73126e-15
-5.29856e-15
-5.88762e-15
-6.49858e-15
-7.13147e-15
-7.78619e-15
-8.46253e-15
-9.16002e-15
-9.87806e-15
-1.06159e-14
-1.13726e-14
-1.21473e-14
-1.29388e-14
-1.37461e-14
-1.4568e-14
-1.54032e-14
-1.62503e-14
-1.71081e-14
-1.79752e-14
-1.88503e-14
-1.97321e-14
-2.06192e-14
-2.15103e-14
-2.24043e-14
-2.32999e-14
-2.4196e-14
-2.50914e-14
-2.59851e-14
-2.68763e-14
-2.77639e-14
-2.86473e-14
-2.95256e-14
-3.03981e-14
-3.12642e-14
-3.21234e-14
-3.29754e-14
-3.38196e-14
-3.46556e-14
-3.5483e-14
-3.6302e-14
-3.71121e-14
-3.79132e-14
-3.87052e-14
-3.94881e-14
-4.02619e-14
-4.10266e-14
-4.17822e-14
-4.25288e-14
-4.32665e-14
-4.39952e-14
-4.47152e-14
-4.54266e-14
-4.61297e-14
-4.68247e-14
-4.75116e-14
-4.81907e-14
-4.8862e-14
-4.95258e-14
-5.01823e-14
-5.08314e-14
-5.14735e-14
-5.21089e-14
-5.27376e-14
-5.33599e-14
-5.39759e-14
-5.45859e-14
-5.51901e-14
-5.57883e-14
-5.63808e-14
-5.69677e-14
-5.7549e-14
-5.8125e-14
-5.86957e-14
-5.92614e-14
-5.98222e-14
-6.03782e-14
-6.09294e-14
-6.14759e-14
-6.20178e-14
-6.2555e-14
-6.30875e-14
-6.36155e-14
-6.41389e-14
-6.4658e-14
-6.51727e-14
-6.56832e-14
-6.61896e-14
-6.66918e-14
-6.71901e-14
-6.76843e-14
)
;
    }
    inandouthalf21
    {
        type            cyclic;
        value           nonuniform List<scalar> 
100
(
6.81747e-14
6.86612e-14
6.9144e-14
6.96232e-14
7.0099e-14
7.05717e-14
7.10413e-14
7.15083e-14
7.19727e-14
7.2435e-14
7.28955e-14
7.33544e-14
7.38122e-14
7.42692e-14
7.47257e-14
7.51819e-14
7.56382e-14
7.60947e-14
7.65513e-14
7.70081e-14
7.74649e-14
7.79214e-14
7.83774e-14
7.88328e-14
7.92876e-14
7.97424e-14
8.01987e-14
8.06589e-14
8.11268e-14
8.16073e-14
8.21061e-14
8.26289e-14
8.318e-14
8.37592e-14
8.43564e-14
8.49433e-14
8.547e-14
8.58804e-14
8.61441e-14
8.62785e-14
8.63357e-14
8.63681e-14
8.64074e-14
8.64952e-14
8.65457e-14
8.65823e-14
8.66553e-14
1.94254e-08
1.16666e-07
2.12025e-07
2.8826e-07
3.51307e-07
4.04461e-07
4.49964e-07
4.89407e-07
5.2397e-07
5.54554e-07
5.81862e-07
6.06448e-07
6.28749e-07
6.49111e-07
6.67811e-07
6.8507e-07
7.01064e-07
7.15937e-07
7.29805e-07
7.42762e-07
7.54887e-07
7.66244e-07
7.76887e-07
7.86862e-07
7.96206e-07
8.04954e-07
8.13135e-07
8.20776e-07
8.27902e-07
8.34537e-07
8.40703e-07
8.46425e-07
8.51728e-07
8.56639e-07
8.61187e-07
8.65402e-07
8.69313e-07
8.72946e-07
8.76326e-07
8.79475e-07
8.82411e-07
8.85151e-07
8.8771e-07
8.90099e-07
8.92332e-07
8.94417e-07
8.96365e-07
8.98185e-07
8.99883e-07
9.01469e-07
9.02949e-07
9.04329e-07
9.05617e-07
)
;
    }
    inandouthalf22
    {
        type            cyclic;
        value           nonuniform List<scalar> 
100
(
-6.81747e-14
-6.86612e-14
-6.9144e-14
-6.96232e-14
-7.0099e-14
-7.05717e-14
-7.10413e-14
-7.15083e-14
-7.19727e-14
-7.2435e-14
-7.28955e-14
-7.33544e-14
-7.38122e-14
-7.42692e-14
-7.47257e-14
-7.51819e-14
-7.56382e-14
-7.60947e-14
-7.65513e-14
-7.70081e-14
-7.74649e-14
-7.79214e-14
-7.83774e-14
-7.88328e-14
-7.92876e-14
-7.97424e-14
-8.01987e-14
-8.06589e-14
-8.11268e-14
-8.16073e-14
-8.21061e-14
-8.26289e-14
-8.318e-14
-8.37592e-14
-8.43564e-14
-8.49433e-14
-8.547e-14
-8.58804e-14
-8.61441e-14
-8.62785e-14
-8.63357e-14
-8.63681e-14
-8.64074e-14
-8.64952e-14
-8.65457e-14
-8.65823e-14
-8.66553e-14
-1.94254e-08
-1.16666e-07
-2.12025e-07
-2.8826e-07
-3.51307e-07
-4.04461e-07
-4.49964e-07
-4.89407e-07
-5.2397e-07
-5.54554e-07
-5.81862e-07
-6.06448e-07
-6.28749e-07
-6.49111e-07
-6.67811e-07
-6.8507e-07
-7.01064e-07
-7.15937e-07
-7.29805e-07
-7.42762e-07
-7.54887e-07
-7.66244e-07
-7.76887e-07
-7.86862e-07
-7.96206e-07
-8.04954e-07
-8.13135e-07
-8.20776e-07
-8.27902e-07
-8.34537e-07
-8.40703e-07
-8.46425e-07
-8.51728e-07
-8.56639e-07
-8.61187e-07
-8.65402e-07
-8.69313e-07
-8.72946e-07
-8.76326e-07
-8.79475e-07
-8.82411e-07
-8.85151e-07
-8.8771e-07
-8.90099e-07
-8.92332e-07
-8.94417e-07
-8.96365e-07
-8.98185e-07
-8.99883e-07
-9.01469e-07
-9.02949e-07
-9.04329e-07
-9.05617e-07
)
;
    }
    inandouthalf31
    {
        type            cyclic;
        value           nonuniform List<scalar> 
110
(
9.0682e-07
9.26378e-07
9.46297e-07
9.66584e-07
9.87245e-07
1.00829e-06
1.02972e-06
1.05155e-06
1.07379e-06
1.09644e-06
1.11951e-06
1.14302e-06
1.16696e-06
1.19136e-06
1.21622e-06
1.24155e-06
1.26736e-06
1.29366e-06
1.32046e-06
1.34778e-06
1.37563e-06
1.404e-06
1.43293e-06
1.46242e-06
1.49248e-06
1.52312e-06
1.55436e-06
1.58621e-06
1.61868e-06
1.65179e-06
1.68555e-06
1.71997e-06
1.75508e-06
1.79088e-06
1.82738e-06
1.86459e-06
1.90255e-06
1.961e-06
1.99673e-06
2.03303e-06
2.06987e-06
2.10727e-06
2.14525e-06
2.18381e-06
2.22297e-06
2.26274e-06
2.30315e-06
2.34422e-06
2.38591e-06
2.42838e-06
2.47157e-06
2.51514e-06
2.55933e-06
2.60552e-06
2.65148e-06
2.69895e-06
2.74737e-06
2.79686e-06
2.8475e-06
2.89937e-06
2.95255e-06
3.00716e-06
3.06328e-06
3.12103e-06
3.18052e-06
3.24186e-06
3.30514e-06
3.37042e-06
3.43788e-06
3.50742e-06
3.57912e-06
3.65299e-06
3.72901e-06
3.80711e-06
3.88724e-06
3.96931e-06
4.05318e-06
4.1387e-06
4.22565e-06
4.31316e-06
4.40104e-06
4.49038e-06
4.58153e-06
4.67452e-06
4.7694e-06
4.86621e-06
4.96498e-06
5.06575e-06
5.16857e-06
5.27348e-06
5.38052e-06
5.48973e-06
5.60116e-06
5.71484e-06
5.83084e-06
5.94919e-06
6.06994e-06
6.19315e-06
6.31885e-06
6.44711e-06
6.57797e-06
6.71148e-06
6.84771e-06
6.9867e-06
7.12851e-06
7.2732e-06
7.42083e-06
7.57145e-06
7.72513e-06
7.88193e-06
)
;
    }
    inandouthalf32
    {
        type            cyclic;
        value           nonuniform List<scalar> 
110
(
-9.0682e-07
-9.26378e-07
-9.46297e-07
-9.66584e-07
-9.87245e-07
-1.00829e-06
-1.02972e-06
-1.05155e-06
-1.07379e-06
-1.09644e-06
-1.11951e-06
-1.14302e-06
-1.16696e-06
-1.19136e-06
-1.21622e-06
-1.24155e-06
-1.26736e-06
-1.29366e-06
-1.32046e-06
-1.34778e-06
-1.37563e-06
-1.404e-06
-1.43293e-06
-1.46242e-06
-1.49248e-06
-1.52312e-06
-1.55436e-06
-1.58621e-06
-1.61868e-06
-1.65179e-06
-1.68555e-06
-1.71997e-06
-1.75508e-06
-1.79088e-06
-1.82738e-06
-1.86459e-06
-1.90255e-06
-1.961e-06
-1.99673e-06
-2.03303e-06
-2.06987e-06
-2.10727e-06
-2.14525e-06
-2.18381e-06
-2.22297e-06
-2.26274e-06
-2.30315e-06
-2.34422e-06
-2.38591e-06
-2.42838e-06
-2.47157e-06
-2.51514e-06
-2.55933e-06
-2.60552e-06
-2.65148e-06
-2.69895e-06
-2.74737e-06
-2.79686e-06
-2.8475e-06
-2.89937e-06
-2.95255e-06
-3.00716e-06
-3.06328e-06
-3.12103e-06
-3.18052e-06
-3.24186e-06
-3.30514e-06
-3.37042e-06
-3.43788e-06
-3.50742e-06
-3.57912e-06
-3.65299e-06
-3.72901e-06
-3.80711e-06
-3.88724e-06
-3.96931e-06
-4.05318e-06
-4.1387e-06
-4.22565e-06
-4.31316e-06
-4.40104e-06
-4.49038e-06
-4.58153e-06
-4.67452e-06
-4.7694e-06
-4.86621e-06
-4.96498e-06
-5.06575e-06
-5.16857e-06
-5.27348e-06
-5.38052e-06
-5.48973e-06
-5.60116e-06
-5.71484e-06
-5.83084e-06
-5.94919e-06
-6.06994e-06
-6.19315e-06
-6.31885e-06
-6.44711e-06
-6.57797e-06
-6.71148e-06
-6.84771e-06
-6.9867e-06
-7.12851e-06
-7.2732e-06
-7.42083e-06
-7.57145e-06
-7.72513e-06
-7.88193e-06
)
;
    }
    inandouthalf41
    {
        type            cyclic;
        value           nonuniform List<scalar> 
50
(
7.05513e-06
7.05513e-06
7.05513e-06
7.05513e-06
7.05513e-06
7.05513e-06
7.05513e-06
7.05513e-06
7.05513e-06
7.05513e-06
7.05513e-06
7.05513e-06
7.05513e-06
7.05513e-06
7.05513e-06
7.05513e-06
7.05513e-06
7.05513e-06
7.05513e-06
7.05513e-06
7.05513e-06
7.05513e-06
7.05513e-06
7.05513e-06
7.05513e-06
7.05513e-06
7.05513e-06
7.05513e-06
7.05513e-06
7.05513e-06
7.05513e-06
7.05513e-06
7.05513e-06
7.05513e-06
7.05513e-06
7.05513e-06
7.05513e-06
7.05513e-06
7.05513e-06
7.05513e-06
7.05513e-06
7.05513e-06
7.05513e-06
7.05513e-06
7.05513e-06
7.05513e-06
7.05513e-06
7.05513e-06
7.05513e-06
7.05505e-06
)
;
    }
    inandouthalf42
    {
        type            cyclic;
        value           nonuniform List<scalar> 
50
(
-7.05513e-06
-7.05513e-06
-7.05513e-06
-7.05513e-06
-7.05513e-06
-7.05513e-06
-7.05513e-06
-7.05513e-06
-7.05513e-06
-7.05513e-06
-7.05513e-06
-7.05513e-06
-7.05513e-06
-7.05513e-06
-7.05513e-06
-7.05513e-06
-7.05513e-06
-7.05513e-06
-7.05513e-06
-7.05513e-06
-7.05513e-06
-7.05513e-06
-7.05513e-06
-7.05513e-06
-7.05513e-06
-7.05513e-06
-7.05513e-06
-7.05513e-06
-7.05513e-06
-7.05513e-06
-7.05513e-06
-7.05513e-06
-7.05513e-06
-7.05513e-06
-7.05513e-06
-7.05513e-06
-7.05513e-06
-7.05513e-06
-7.05513e-06
-7.05513e-06
-7.05513e-06
-7.05513e-06
-7.05513e-06
-7.05513e-06
-7.05513e-06
-7.05513e-06
-7.05513e-06
-7.05513e-06
-7.05513e-06
-7.05505e-06
)
;
    }
    top
    {
        type            symmetryPlane;
        value           uniform 0;
    }
    walls
    {
        type            fixedValue;
        value           uniform 0;
    }
    frontAndBackPlanes
    {
        type            empty;
        value           nonuniform 0();
    }
}


// ************************************************************************* //
