/*--------------------------------*- C++ -*----------------------------------*\
| =========                 |                                                 |
| \\      /  F ield         | OpenFOAM: The Open Source CFD Toolbox           |
|  \\    /   O peration     | Version:  2.4.x                                 |
|   \\  /    A nd           | Web:      www.OpenFOAM.org                      |
|    \\/     M anipulation  |                                                 |
\*---------------------------------------------------------------------------*/
FoamFile
{
    version     2.0;
    format      ascii;
    class       surfaceScalarField;
    location    "12.4";
    object      phib_0;
}
// * * * * * * * * * * * * * * * * * * * * * * * * * * * * * * * * * * * * * //

dimensions      [0 3 -1 0 0 0 0];

internalField   nonuniform List<scalar> 
359
(
6.59207e-15
1.64869e-14
2.56662e-14
3.45737e-14
4.38708e-14
5.35446e-14
6.34841e-14
7.36862e-14
8.41899e-14
9.50349e-14
1.06244e-13
1.17824e-13
1.29777e-13
1.421e-13
1.54789e-13
1.67837e-13
1.81234e-13
1.94966e-13
2.09016e-13
2.23366e-13
2.37994e-13
2.52878e-13
2.67995e-13
2.83321e-13
2.9883e-13
3.14497e-13
3.30295e-13
3.462e-13
3.62185e-13
3.78224e-13
3.94292e-13
4.1037e-13
4.26426e-13
4.42448e-13
4.58408e-13
4.74291e-13
4.90074e-13
5.05745e-13
5.21291e-13
5.36688e-13
5.51934e-13
5.67015e-13
5.81916e-13
5.96637e-13
6.11166e-13
6.25499e-13
6.39632e-13
6.53554e-13
6.67269e-13
6.80779e-13
6.94074e-13
7.0716e-13
7.20035e-13
7.32702e-13
7.45158e-13
7.57414e-13
7.69463e-13
7.81313e-13
7.92966e-13
8.0442e-13
8.15687e-13
8.26765e-13
8.37664e-13
8.48384e-13
8.5893e-13
8.69303e-13
8.7951e-13
8.89554e-13
8.99437e-13
9.09161e-13
9.18733e-13
9.28159e-13
9.37437e-13
9.46574e-13
9.55572e-13
9.64438e-13
9.7317e-13
9.8177e-13
9.9024e-13
9.98585e-13
1.0068e-12
1.0149e-12
1.02287e-12
1.03073e-12
1.03848e-12
1.04611e-12
1.05362e-12
1.06103e-12
1.06832e-12
1.0755e-12
1.08256e-12
1.08952e-12
1.09636e-12
1.1031e-12
1.10973e-12
1.11625e-12
1.12266e-12
1.12897e-12
1.13517e-12
1.14127e-12
1.14726e-12
1.15314e-12
1.15892e-12
1.1646e-12
1.17017e-12
1.17564e-12
1.18102e-12
1.1863e-12
1.19148e-12
1.19656e-12
1.20156e-12
1.20646e-12
1.21128e-12
1.216e-12
1.22064e-12
1.22519e-12
1.22965e-12
1.23401e-12
1.23828e-12
1.24244e-12
1.24649e-12
1.25042e-12
1.25423e-12
1.2579e-12
1.26144e-12
1.26484e-12
1.26813e-12
1.2713e-12
1.2744e-12
1.27744e-12
1.28047e-12
1.28348e-12
1.28646e-12
1.28934e-12
1.29198e-12
1.29414e-12
1.29551e-12
1.29588e-12
1.29523e-12
1.29385e-12
1.29198e-12
1.28325e-12
1.27747e-12
1.27747e-12
1.27398e-12
1.26402e-12
9.65575e-12
3.69027e-10
3.66127e-10
3.38169e-10
2.97522e-10
2.51431e-10
2.045e-10
1.59835e-10
1.19534e-10
8.47381e-11
5.57796e-11
3.24145e-11
1.40639e-11
-3.55223e-15
-1.04539e-11
-1.80223e-11
-2.32754e-11
-2.67033e-11
-2.87112e-11
-2.96271e-11
-2.97137e-11
-2.91804e-11
-2.81924e-11
-2.68795e-11
-2.53433e-11
-2.36623e-11
-2.18971e-11
-2.00931e-11
-1.82821e-11
-1.64823e-11
-1.46977e-11
-1.29246e-11
-1.11641e-11
-9.43835e-12
-7.79477e-12
-6.29258e-12
-4.97967e-12
-3.8772e-12
-2.97964e-12
-2.26422e-12
-1.70145e-12
-1.26207e-12
-9.20432e-13
-6.55412e-13
-4.5021e-13
-2.91687e-13
-1.69644e-13
-7.61763e-14
-5.14875e-15
4.82195e-14
8.76698e-14
1.16145e-13
1.35971e-13
1.48994e-13
1.56687e-13
1.60263e-13
1.60497e-13
1.58055e-13
1.53513e-13
1.47364e-13
1.40028e-13
1.31864e-13
1.23172e-13
1.14202e-13
1.05158e-13
9.62051e-14
8.74723e-14
7.90591e-14
7.10391e-14
6.34645e-14
5.63701e-14
4.97762e-14
4.36916e-14
3.81161e-14
3.30414e-14
2.84533e-14
2.43321e-14
2.06532e-14
1.7388e-14
1.45038e-14
1.19653e-14
9.73952e-15
7.80317e-15
6.15524e-15
4.82619e-15
3.86589e-15
3.27952e-15
2.94637e-15
2.67211e-15
2.48052e-15
2.69815e-15
3.00347e-15
2.97527e-15
2.75179e-15
2.42492e-15
2.05591e-15
1.68529e-15
1.33839e-15
1.02968e-15
7.6585e-16
5.47653e-16
3.73053e-16
2.41518e-16
1.31061e-16
7.77687e-17
8.30111e-17
2.48708e-18
1.98132e-18
1.82883e-18
1.68029e-18
1.55671e-18
1.43761e-18
1.34164e-18
1.25288e-18
1.1842e-18
1.12525e-18
1.0859e-18
1.0566e-18
1.04205e-18
1.03644e-18
1.04377e-18
1.05791e-18
1.07813e-18
1.1026e-18
1.1317e-18
1.16407e-18
1.19948e-18
1.23328e-18
1.26363e-18
1.28665e-18
1.30946e-18
1.32028e-18
1.32915e-18
1.33408e-18
1.35918e-18
1.37484e-18
1.38688e-18
1.37053e-18
1.36496e-18
1.32235e-18
1.35675e-18
1.27675e-18
1.23353e-18
1.1599e-18
1.08243e-18
9.60089e-19
8.62064e-19
7.31734e-19
6.12131e-19
5.15601e-19
5.55381e-19
5.72451e-19
6.07822e-19
7.58511e-19
8.03748e-19
8.18498e-19
8.35699e-19
8.23912e-19
8.67224e-19
8.79177e-19
8.94702e-19
8.64122e-19
8.69773e-19
8.28067e-19
7.94521e-19
7.42812e-19
7.35669e-19
7.15954e-19
6.9963e-19
6.61457e-19
6.38513e-19
5.996e-19
5.60357e-19
5.08835e-19
4.70678e-19
4.24997e-19
3.7916e-19
3.25514e-19
2.72721e-19
2.13996e-19
1.48615e-19
6.32131e-20
-6.53018e-20
-2.09914e-19
-3.60976e-19
-5.08118e-19
-6.6611e-19
-8.12666e-19
-9.60732e-19
-1.0939e-18
-1.26688e-18
-1.41386e-18
-1.56195e-18
-1.66888e-18
-1.82113e-18
-1.9114e-18
-2.01497e-18
-2.07679e-18
-2.32148e-18
-2.48911e-18
-2.66845e-18
-2.70201e-18
-2.87019e-18
-2.83535e-18
-2.82215e-18
-2.7136e-18
-2.82292e-18
-2.69829e-18
-2.58056e-18
-2.16104e-18
-1.64289e-18
-9.30113e-19
-8.79589e-19
)
;

boundaryField
{
    inandouthalf11
    {
        type            cyclic;
        value           nonuniform List<scalar> 
100
(
2.43883e-12
2.42557e-12
2.4242e-12
2.42646e-12
2.42775e-12
2.42848e-12
2.4293e-12
2.43024e-12
2.43121e-12
2.4322e-12
2.43322e-12
2.43425e-12
2.43532e-12
2.43641e-12
2.43752e-12
2.43867e-12
2.43984e-12
2.44104e-12
2.44226e-12
2.44351e-12
2.44478e-12
2.44607e-12
2.44739e-12
2.44873e-12
2.45009e-12
2.45147e-12
2.45286e-12
2.45427e-12
2.4557e-12
2.45714e-12
2.4586e-12
2.46007e-12
2.46154e-12
2.46303e-12
2.46452e-12
2.46602e-12
2.46752e-12
2.46904e-12
2.47056e-12
2.47207e-12
2.4736e-12
2.47512e-12
2.47664e-12
2.47817e-12
2.4797e-12
2.48123e-12
2.48276e-12
2.48428e-12
2.48581e-12
2.48735e-12
2.48887e-12
2.4904e-12
2.49193e-12
2.49346e-12
2.49498e-12
2.49652e-12
2.49804e-12
2.49957e-12
2.50111e-12
2.50263e-12
2.50417e-12
2.50571e-12
2.50725e-12
2.50879e-12
2.51034e-12
2.51189e-12
2.51344e-12
2.515e-12
2.51657e-12
2.51813e-12
2.51971e-12
2.5213e-12
2.52288e-12
2.52448e-12
2.52609e-12
2.52771e-12
2.52933e-12
2.53097e-12
2.53262e-12
2.53428e-12
2.53594e-12
2.53763e-12
2.53932e-12
2.54103e-12
2.54276e-12
2.54449e-12
2.54625e-12
2.54802e-12
2.54981e-12
2.55162e-12
2.55344e-12
2.55529e-12
2.55715e-12
2.55904e-12
2.56095e-12
2.56289e-12
2.56485e-12
2.56683e-12
2.56884e-12
2.57088e-12
)
;
    }
    inandouthalf12
    {
        type            cyclic;
        value           nonuniform List<scalar> 
100
(
-2.43883e-12
-2.42557e-12
-2.4242e-12
-2.42646e-12
-2.42775e-12
-2.42848e-12
-2.4293e-12
-2.43024e-12
-2.43121e-12
-2.4322e-12
-2.43322e-12
-2.43425e-12
-2.43532e-12
-2.43641e-12
-2.43752e-12
-2.43867e-12
-2.43984e-12
-2.44104e-12
-2.44226e-12
-2.44351e-12
-2.44478e-12
-2.44607e-12
-2.44739e-12
-2.44873e-12
-2.45009e-12
-2.45147e-12
-2.45286e-12
-2.45427e-12
-2.4557e-12
-2.45714e-12
-2.4586e-12
-2.46007e-12
-2.46154e-12
-2.46303e-12
-2.46452e-12
-2.46602e-12
-2.46752e-12
-2.46904e-12
-2.47056e-12
-2.47207e-12
-2.4736e-12
-2.47512e-12
-2.47664e-12
-2.47817e-12
-2.4797e-12
-2.48123e-12
-2.48276e-12
-2.48428e-12
-2.48581e-12
-2.48735e-12
-2.48887e-12
-2.4904e-12
-2.49193e-12
-2.49346e-12
-2.49498e-12
-2.49652e-12
-2.49804e-12
-2.49957e-12
-2.50111e-12
-2.50263e-12
-2.50417e-12
-2.50571e-12
-2.50725e-12
-2.50879e-12
-2.51034e-12
-2.51189e-12
-2.51344e-12
-2.515e-12
-2.51657e-12
-2.51813e-12
-2.51971e-12
-2.5213e-12
-2.52288e-12
-2.52448e-12
-2.52609e-12
-2.52771e-12
-2.52933e-12
-2.53097e-12
-2.53262e-12
-2.53428e-12
-2.53594e-12
-2.53763e-12
-2.53932e-12
-2.54103e-12
-2.54276e-12
-2.54449e-12
-2.54625e-12
-2.54802e-12
-2.54981e-12
-2.55162e-12
-2.55344e-12
-2.55529e-12
-2.55715e-12
-2.55904e-12
-2.56095e-12
-2.56289e-12
-2.56485e-12
-2.56683e-12
-2.56884e-12
-2.57088e-12
)
;
    }
    inandouthalf21
    {
        type            cyclic;
        value           nonuniform List<scalar> 
100
(
2.57295e-12
2.57505e-12
2.57718e-12
2.57935e-12
2.58155e-12
2.58379e-12
2.58607e-12
2.58839e-12
2.59075e-12
2.59316e-12
2.59562e-12
2.59812e-12
2.60068e-12
2.6033e-12
2.60597e-12
2.60871e-12
2.61151e-12
2.61438e-12
2.61732e-12
2.62034e-12
2.62343e-12
2.62662e-12
2.62989e-12
2.63326e-12
2.63673e-12
2.6403e-12
2.64399e-12
2.64781e-12
2.65176e-12
2.65588e-12
2.66016e-12
2.66462e-12
2.66929e-12
2.67422e-12
2.67946e-12
2.685e-12
2.69078e-12
2.69681e-12
2.70332e-12
2.71058e-12
2.71833e-12
2.72753e-12
2.7907e-12
2.7814e-12
2.7931e-12
2.86509e-12
5.5281e-11
2.18914e-08
1.2649e-07
2.20432e-07
2.95241e-07
3.57055e-07
4.09317e-07
4.54195e-07
4.93223e-07
5.27541e-07
5.58023e-07
5.8535e-07
6.10056e-07
6.32566e-07
6.53219e-07
6.72286e-07
6.89987e-07
7.065e-07
7.21972e-07
7.36522e-07
7.50252e-07
7.63244e-07
7.75567e-07
7.87281e-07
7.98433e-07
8.09065e-07
8.19212e-07
8.28902e-07
8.3816e-07
8.47006e-07
8.55455e-07
8.63521e-07
8.71215e-07
8.78543e-07
8.85511e-07
8.92125e-07
8.98385e-07
9.04295e-07
9.09856e-07
9.15069e-07
9.19937e-07
9.24463e-07
9.2865e-07
9.32504e-07
9.36034e-07
9.39248e-07
9.42158e-07
9.44777e-07
9.47121e-07
9.49206e-07
9.51048e-07
9.52667e-07
9.54079e-07
9.55302e-07
)
;
    }
    inandouthalf22
    {
        type            cyclic;
        value           nonuniform List<scalar> 
100
(
-2.57295e-12
-2.57505e-12
-2.57718e-12
-2.57935e-12
-2.58155e-12
-2.58379e-12
-2.58607e-12
-2.58839e-12
-2.59075e-12
-2.59316e-12
-2.59562e-12
-2.59812e-12
-2.60068e-12
-2.6033e-12
-2.60597e-12
-2.60871e-12
-2.61151e-12
-2.61438e-12
-2.61732e-12
-2.62034e-12
-2.62343e-12
-2.62662e-12
-2.62989e-12
-2.63326e-12
-2.63673e-12
-2.6403e-12
-2.64399e-12
-2.64781e-12
-2.65176e-12
-2.65588e-12
-2.66016e-12
-2.66462e-12
-2.66929e-12
-2.67422e-12
-2.67946e-12
-2.685e-12
-2.69078e-12
-2.69681e-12
-2.70332e-12
-2.71058e-12
-2.71833e-12
-2.72753e-12
-2.7907e-12
-2.7814e-12
-2.7931e-12
-2.86509e-12
-5.5281e-11
-2.18914e-08
-1.2649e-07
-2.20432e-07
-2.95241e-07
-3.57055e-07
-4.09317e-07
-4.54195e-07
-4.93223e-07
-5.27541e-07
-5.58023e-07
-5.8535e-07
-6.10056e-07
-6.32566e-07
-6.53219e-07
-6.72286e-07
-6.89987e-07
-7.065e-07
-7.21972e-07
-7.36522e-07
-7.50252e-07
-7.63244e-07
-7.75567e-07
-7.87281e-07
-7.98433e-07
-8.09065e-07
-8.19212e-07
-8.28902e-07
-8.3816e-07
-8.47006e-07
-8.55455e-07
-8.63521e-07
-8.71215e-07
-8.78543e-07
-8.85511e-07
-8.92125e-07
-8.98385e-07
-9.04295e-07
-9.09856e-07
-9.15069e-07
-9.19937e-07
-9.24463e-07
-9.2865e-07
-9.32504e-07
-9.36034e-07
-9.39248e-07
-9.42158e-07
-9.44777e-07
-9.47121e-07
-9.49206e-07
-9.51048e-07
-9.52667e-07
-9.54079e-07
-9.55302e-07
)
;
    }
    inandouthalf31
    {
        type            cyclic;
        value           nonuniform List<scalar> 
110
(
9.56355e-07
9.76688e-07
9.97317e-07
1.01825e-06
1.03949e-06
1.06105e-06
1.08294e-06
1.10517e-06
1.12774e-06
1.15066e-06
1.17394e-06
1.19758e-06
1.22161e-06
1.24601e-06
1.2708e-06
1.29599e-06
1.32157e-06
1.34756e-06
1.37397e-06
1.40079e-06
1.42804e-06
1.45572e-06
1.48383e-06
1.51238e-06
1.54137e-06
1.57081e-06
1.60071e-06
1.63107e-06
1.66189e-06
1.69319e-06
1.72495e-06
1.75721e-06
1.78994e-06
1.82317e-06
1.85691e-06
1.89114e-06
1.92589e-06
1.96117e-06
1.99697e-06
2.03331e-06
2.0702e-06
2.10764e-06
2.14566e-06
2.18427e-06
2.22347e-06
2.26328e-06
2.30373e-06
2.34482e-06
2.3866e-06
2.42907e-06
2.47227e-06
2.51623e-06
2.56098e-06
2.60657e-06
2.65305e-06
2.70046e-06
2.74887e-06
2.79834e-06
2.84894e-06
2.90075e-06
2.95388e-06
3.0084e-06
3.06444e-06
3.12209e-06
3.18146e-06
3.24268e-06
3.30583e-06
3.371e-06
3.43828e-06
3.5077e-06
3.57929e-06
3.65306e-06
3.72898e-06
3.80702e-06
3.8871e-06
3.96913e-06
4.053e-06
4.13855e-06
4.22555e-06
4.31332e-06
4.40129e-06
4.49064e-06
4.58179e-06
4.67478e-06
4.76967e-06
4.86648e-06
4.96526e-06
5.06604e-06
5.16887e-06
5.27378e-06
5.38082e-06
5.49004e-06
5.60147e-06
5.71517e-06
5.83117e-06
5.94953e-06
6.07029e-06
6.1935e-06
6.31921e-06
6.44747e-06
6.57834e-06
6.71186e-06
6.8481e-06
6.98709e-06
7.12891e-06
7.27361e-06
7.42125e-06
7.57188e-06
7.72557e-06
7.88238e-06
)
;
    }
    inandouthalf32
    {
        type            cyclic;
        value           nonuniform List<scalar> 
110
(
-9.56355e-07
-9.76688e-07
-9.97317e-07
-1.01825e-06
-1.03949e-06
-1.06105e-06
-1.08294e-06
-1.10517e-06
-1.12774e-06
-1.15066e-06
-1.17394e-06
-1.19758e-06
-1.22161e-06
-1.24601e-06
-1.2708e-06
-1.29599e-06
-1.32157e-06
-1.34756e-06
-1.37397e-06
-1.40079e-06
-1.42804e-06
-1.45572e-06
-1.48383e-06
-1.51238e-06
-1.54137e-06
-1.57081e-06
-1.60071e-06
-1.63107e-06
-1.66189e-06
-1.69319e-06
-1.72495e-06
-1.75721e-06
-1.78994e-06
-1.82317e-06
-1.85691e-06
-1.89114e-06
-1.92589e-06
-1.96117e-06
-1.99697e-06
-2.03331e-06
-2.0702e-06
-2.10764e-06
-2.14566e-06
-2.18427e-06
-2.22347e-06
-2.26328e-06
-2.30373e-06
-2.34482e-06
-2.3866e-06
-2.42907e-06
-2.47227e-06
-2.51623e-06
-2.56098e-06
-2.60657e-06
-2.65305e-06
-2.70046e-06
-2.74887e-06
-2.79834e-06
-2.84894e-06
-2.90075e-06
-2.95388e-06
-3.0084e-06
-3.06444e-06
-3.12209e-06
-3.18146e-06
-3.24268e-06
-3.30583e-06
-3.371e-06
-3.43828e-06
-3.5077e-06
-3.57929e-06
-3.65306e-06
-3.72898e-06
-3.80702e-06
-3.8871e-06
-3.96913e-06
-4.053e-06
-4.13855e-06
-4.22555e-06
-4.31332e-06
-4.40129e-06
-4.49064e-06
-4.58179e-06
-4.67478e-06
-4.76967e-06
-4.86648e-06
-4.96526e-06
-5.06604e-06
-5.16887e-06
-5.27378e-06
-5.38082e-06
-5.49004e-06
-5.60147e-06
-5.71517e-06
-5.83117e-06
-5.94953e-06
-6.07029e-06
-6.1935e-06
-6.31921e-06
-6.44747e-06
-6.57834e-06
-6.71186e-06
-6.8481e-06
-6.98709e-06
-7.12891e-06
-7.27361e-06
-7.42125e-06
-7.57188e-06
-7.72557e-06
-7.88238e-06
)
;
    }
    inandouthalf41
    {
        type            cyclic;
        value           nonuniform List<scalar> 
50
(
7.05553e-06
7.05553e-06
7.05553e-06
7.05553e-06
7.05553e-06
7.05553e-06
7.05553e-06
7.05553e-06
7.05553e-06
7.05553e-06
7.05553e-06
7.05553e-06
7.05553e-06
7.05553e-06
7.05553e-06
7.05553e-06
7.05553e-06
7.05553e-06
7.05553e-06
7.05553e-06
7.05553e-06
7.05553e-06
7.05553e-06
7.05553e-06
7.05553e-06
7.05553e-06
7.05553e-06
7.05553e-06
7.05553e-06
7.05553e-06
7.05553e-06
7.05553e-06
7.05553e-06
7.05553e-06
7.05553e-06
7.05553e-06
7.05553e-06
7.05553e-06
7.05553e-06
7.05553e-06
7.05553e-06
7.05553e-06
7.05553e-06
7.05553e-06
7.05553e-06
7.05553e-06
7.05553e-06
7.05553e-06
7.05553e-06
7.05553e-06
)
;
    }
    inandouthalf42
    {
        type            cyclic;
        value           nonuniform List<scalar> 
50
(
-7.05553e-06
-7.05553e-06
-7.05553e-06
-7.05553e-06
-7.05553e-06
-7.05553e-06
-7.05553e-06
-7.05553e-06
-7.05553e-06
-7.05553e-06
-7.05553e-06
-7.05553e-06
-7.05553e-06
-7.05553e-06
-7.05553e-06
-7.05553e-06
-7.05553e-06
-7.05553e-06
-7.05553e-06
-7.05553e-06
-7.05553e-06
-7.05553e-06
-7.05553e-06
-7.05553e-06
-7.05553e-06
-7.05553e-06
-7.05553e-06
-7.05553e-06
-7.05553e-06
-7.05553e-06
-7.05553e-06
-7.05553e-06
-7.05553e-06
-7.05553e-06
-7.05553e-06
-7.05553e-06
-7.05553e-06
-7.05553e-06
-7.05553e-06
-7.05553e-06
-7.05553e-06
-7.05553e-06
-7.05553e-06
-7.05553e-06
-7.05553e-06
-7.05553e-06
-7.05553e-06
-7.05553e-06
-7.05553e-06
-7.05553e-06
)
;
    }
    top
    {
        type            symmetryPlane;
        value           uniform 0;
    }
    walls
    {
        type            fixedValue;
        value           uniform 0;
    }
    frontAndBackPlanes
    {
        type            empty;
        value           nonuniform 0();
    }
}


// ************************************************************************* //
