/*--------------------------------*- C++ -*----------------------------------*\
| =========                 |                                                 |
| \\      /  F ield         | OpenFOAM: The Open Source CFD Toolbox           |
|  \\    /   O peration     | Version:  2.4.x                                 |
|   \\  /    A nd           | Web:      www.OpenFOAM.org                      |
|    \\/     M anipulation  |                                                 |
\*---------------------------------------------------------------------------*/
FoamFile
{
    version     2.0;
    format      ascii;
    class       volVectorField;
    location    "12.4";
    object      Ub_0;
}
// * * * * * * * * * * * * * * * * * * * * * * * * * * * * * * * * * * * * * //

dimensions      [0 1 -1 0 0 0 0];

internalField   nonuniform List<vector> 
360
(
(-2.43883e-06 8.1269e-10 0)
(-2.42557e-06 2.86893e-09 0)
(-2.4242e-06 5.26763e-09 0)
(-2.42646e-06 7.53024e-09 0)
(-2.42775e-06 9.80583e-09 0)
(-2.42848e-06 1.21766e-08 0)
(-2.4293e-06 1.46282e-08 0)
(-2.43024e-06 1.7146e-08 0)
(-2.43121e-06 1.97342e-08 0)
(-2.4322e-06 2.24028e-08 0)
(-2.43322e-06 2.51596e-08 0)
(-2.43425e-06 2.80081e-08 0)
(-2.43532e-06 3.09497e-08 0)
(-2.43641e-06 3.39842e-08 0)
(-2.43752e-06 3.71107e-08 0)
(-2.43867e-06 4.03278e-08 0)
(-2.43984e-06 4.36335e-08 0)
(-2.44104e-06 4.70247e-08 0)
(-2.44226e-06 5.04974e-08 0)
(-2.44351e-06 5.40474e-08 0)
(-2.44478e-06 5.76696e-08 0)
(-2.44607e-06 6.13585e-08 0)
(-2.44739e-06 6.51086e-08 0)
(-2.44873e-06 6.8914e-08 0)
(-2.45009e-06 7.27684e-08 0)
(-2.45147e-06 7.66655e-08 0)
(-2.45286e-06 8.05986e-08 0)
(-2.45427e-06 8.45614e-08 0)
(-2.4557e-06 8.85476e-08 0)
(-2.45714e-06 9.25507e-08 0)
(-2.4586e-06 9.65641e-08 0)
(-2.46007e-06 1.00582e-07 0)
(-2.46154e-06 1.04599e-07 0)
(-2.46303e-06 1.08609e-07 0)
(-2.46452e-06 1.12606e-07 0)
(-2.46602e-06 1.16587e-07 0)
(-2.46752e-06 1.20545e-07 0)
(-2.46904e-06 1.24477e-07 0)
(-2.47056e-06 1.28379e-07 0)
(-2.47207e-06 1.32247e-07 0)
(-2.4736e-06 1.36077e-07 0)
(-2.47512e-06 1.39868e-07 0)
(-2.47664e-06 1.43616e-07 0)
(-2.47817e-06 1.47319e-07 0)
(-2.4797e-06 1.50975e-07 0)
(-2.48123e-06 1.54583e-07 0)
(-2.48276e-06 1.58141e-07 0)
(-2.48428e-06 1.61648e-07 0)
(-2.48581e-06 1.65102e-07 0)
(-2.48735e-06 1.68506e-07 0)
(-2.48887e-06 1.71856e-07 0)
(-2.4904e-06 1.75154e-07 0)
(-2.49193e-06 1.78399e-07 0)
(-2.49346e-06 1.81592e-07 0)
(-2.49498e-06 1.84732e-07 0)
(-2.49652e-06 1.87821e-07 0)
(-2.49804e-06 1.90859e-07 0)
(-2.49957e-06 1.93846e-07 0)
(-2.50111e-06 1.96784e-07 0)
(-2.50263e-06 1.99672e-07 0)
(-2.50417e-06 2.02513e-07 0)
(-2.50571e-06 2.05306e-07 0)
(-2.50725e-06 2.08053e-07 0)
(-2.50879e-06 2.10755e-07 0)
(-2.51034e-06 2.13414e-07 0)
(-2.51189e-06 2.16028e-07 0)
(-2.51344e-06 2.18601e-07 0)
(-2.515e-06 2.21132e-07 0)
(-2.51657e-06 2.23623e-07 0)
(-2.51813e-06 2.26074e-07 0)
(-2.51971e-06 2.28486e-07 0)
(-2.5213e-06 2.30861e-07 0)
(-2.52288e-06 2.33199e-07 0)
(-2.52448e-06 2.35501e-07 0)
(-2.52609e-06 2.37767e-07 0)
(-2.52771e-06 2.40001e-07 0)
(-2.52933e-06 2.422e-07 0)
(-2.53097e-06 2.44367e-07 0)
(-2.53262e-06 2.46501e-07 0)
(-2.53428e-06 2.48602e-07 0)
(-2.53594e-06 2.50673e-07 0)
(-2.53763e-06 2.52712e-07 0)
(-2.53932e-06 2.54721e-07 0)
(-2.54103e-06 2.567e-07 0)
(-2.54276e-06 2.5865e-07 0)
(-2.54449e-06 2.60572e-07 0)
(-2.54625e-06 2.62465e-07 0)
(-2.54802e-06 2.6433e-07 0)
(-2.54981e-06 2.66167e-07 0)
(-2.55162e-06 2.67976e-07 0)
(-2.55344e-06 2.69756e-07 0)
(-2.55529e-06 2.71509e-07 0)
(-2.55715e-06 2.73234e-07 0)
(-2.55904e-06 2.74931e-07 0)
(-2.56095e-06 2.76602e-07 0)
(-2.56289e-06 2.78246e-07 0)
(-2.56485e-06 2.79862e-07 0)
(-2.56683e-06 2.81453e-07 0)
(-2.56884e-06 2.83016e-07 0)
(-2.57088e-06 2.84553e-07 0)
(-2.57295e-06 2.86064e-07 0)
(-2.57505e-06 2.87548e-07 0)
(-2.57718e-06 2.89006e-07 0)
(-2.57935e-06 2.90438e-07 0)
(-2.58155e-06 2.91844e-07 0)
(-2.58379e-06 2.93225e-07 0)
(-2.58607e-06 2.94581e-07 0)
(-2.58839e-06 2.95913e-07 0)
(-2.59075e-06 2.9722e-07 0)
(-2.59316e-06 2.98503e-07 0)
(-2.59562e-06 2.99763e-07 0)
(-2.59812e-06 3.01001e-07 0)
(-2.60068e-06 3.02215e-07 0)
(-2.6033e-06 3.03408e-07 0)
(-2.60597e-06 3.04578e-07 0)
(-2.60871e-06 3.05727e-07 0)
(-2.61151e-06 3.06853e-07 0)
(-2.61438e-06 3.07955e-07 0)
(-2.61732e-06 3.09034e-07 0)
(-2.62034e-06 3.10087e-07 0)
(-2.62343e-06 3.11114e-07 0)
(-2.62662e-06 3.12111e-07 0)
(-2.62989e-06 3.13078e-07 0)
(-2.63326e-06 3.14013e-07 0)
(-2.63673e-06 3.14914e-07 0)
(-2.6403e-06 3.15782e-07 0)
(-2.64399e-06 3.16617e-07 0)
(-2.64781e-06 3.17424e-07 0)
(-2.65176e-06 3.18208e-07 0)
(-2.65588e-06 3.18976e-07 0)
(-2.66016e-06 3.19734e-07 0)
(-2.66462e-06 3.20487e-07 0)
(-2.66929e-06 3.21234e-07 0)
(-2.67422e-06 3.21966e-07 0)
(-2.67946e-06 3.22656e-07 0)
(-2.685e-06 3.23256e-07 0)
(-2.69078e-06 3.23695e-07 0)
(-2.69681e-06 3.23905e-07 0)
(-2.70332e-06 3.23863e-07 0)
(-2.71058e-06 3.2362e-07 0)
(-2.71833e-06 3.2319e-07 0)
(-2.72753e-06 3.20309e-07 0)
(-2.7907e-06 3.21195e-07 0)
(-2.7814e-06 3.58202e-07 0)
(-2.7931e-06 3.6989e-08 0)
(-2.86509e-06 1.33254e-06 0)
(-5.5281e-05 -3.74947e-06 0)
(-0.0218914 1.83501e-05 0)
(-0.12649 0.000126197 0)
(-0.220432 8.23968e-05 0)
(-0.295241 8.14531e-05 0)
(-0.357055 6.96942e-05 0)
(-0.409317 5.74032e-05 0)
(-0.454195 4.55964e-05 0)
(-0.493223 3.47822e-05 0)
(-0.527541 2.5289e-05 0)
(-0.558023 1.7276e-05 0)
(-0.58535 1.07347e-05 0)
(-0.610056 5.54243e-06 0)
(-0.632566 1.51573e-06 0)
(-0.653219 -1.51089e-06 0)
(-0.672286 -3.71863e-06 0)
(-0.689987 -5.2886e-06 0)
(-0.7065 -6.34744e-06 0)
(-0.721972 -7.00498e-06 0)
(-0.736522 -7.3524e-06 0)
(-0.750252 -7.46316e-06 0)
(-0.763244 -7.39573e-06 0)
(-0.775567 -7.19637e-06 0)
(-0.787281 -6.90152e-06 0)
(-0.798433 -6.53972e-06 0)
(-0.809065 -6.13319e-06 0)
(-0.819212 -5.69908e-06 0)
(-0.828902 -5.25054e-06 0)
(-0.83816 -4.79718e-06 0)
(-0.847006 -4.34511e-06 0)
(-0.855455 -3.89679e-06 0)
(-0.863521 -3.4517e-06 0)
(-0.871215 -3.00891e-06 0)
(-0.878543 -2.57106e-06 0)
(-0.885511 -2.1471e-06 0)
(-0.892125 -1.75111e-06 0)
(-0.898385 -1.39727e-06 0)
(-0.904295 -1.09469e-06 0)
(-0.909856 -8.45269e-07 0)
(-0.915069 -6.45049e-07 0)
(-0.919937 -4.87e-07 0)
(-0.924463 -3.63418e-07 0)
(-0.92865 -2.6726e-07 0)
(-0.932504 -1.92632e-07 0)
(-0.936034 -1.3481e-07 0)
(-0.939248 -9.00903e-08 0)
(-0.942158 -5.55983e-08 0)
(-0.944777 -2.9109e-08 0)
(-0.947121 -8.89827e-09 0)
(-0.949206 6.37977e-09 0)
(-0.951048 1.77721e-08 0)
(-0.952667 2.60961e-08 0)
(-0.954079 3.20013e-08 0)
(-0.955302 3.60023e-08 0)
(-0.956352 3.85082e-08 0)
(-0.957255 3.98588e-08 0)
(-0.958028 4.02854e-08 0)
(-0.958676 3.99668e-08 0)
(-0.959207 3.90576e-08 0)
(-0.959625 3.76904e-08 0)
(-0.959938 3.59788e-08 0)
(-0.96015 3.40196e-08 0)
(-0.960267 3.18946e-08 0)
(-0.960292 2.96722e-08 0)
(-0.960231 2.74088e-08 0)
(-0.960087 2.515e-08 0)
(-0.959862 2.29323e-08 0)
(-0.95956 2.0784e-08 0)
(-0.959183 1.87263e-08 0)
(-0.958733 1.67748e-08 0)
(-0.958211 1.49399e-08 0)
(-0.95762 1.32285e-08 0)
(-0.956961 1.1644e-08 0)
(-0.956234 1.01874e-08 0)
(-0.955441 8.8574e-09 0)
(-0.954582 7.65121e-09 0)
(-0.953658 6.56449e-09 0)
(-0.95267 5.59168e-09 0)
(-0.951619 4.72609e-09 0)
(-0.950504 3.95996e-09 0)
(-0.949327 3.28459e-09 0)
(-0.948087 2.691e-09 0)
(-0.946787 2.17156e-09 0)
(-0.945425 1.72293e-09 0)
(-0.944003 1.34968e-09 0)
(-0.942522 1.06421e-09 0)
(-0.940983 8.75073e-10 0)
(-0.939386 7.65324e-10 0)
(-0.937732 6.90783e-10 0)
(-0.936023 6.32409e-10 0)
(-0.93426 6.3971e-10 0)
(-0.932445 7.14705e-10 0)
(-0.930578 7.58324e-10 0)
(-0.928664 7.26892e-10 0)
(-0.926702 6.52641e-10 0)
(-0.924696 5.61437e-10 0)
(-0.922649 4.66666e-10 0)
(-0.920563 3.75718e-10 0)
(-0.918442 2.93112e-10 0)
(-0.91629 2.21302e-10 0)
(-0.91411 1.6111e-10 0)
(-0.911909 1.12335e-10 0)
(-0.90969 7.41441e-11 0)
(-0.907459 4.37843e-11 0)
(-0.905224 2.40613e-11 0)
(-0.902992 1.98011e-11 0)
(-0.90077 1.0759e-11 0)
(-0.898568 -9.88103e-13 0)
(-0.896395 -4.8162e-13 0)
(-0.894263 4.10185e-13 0)
(-0.892184 4.87591e-13 0)
(-0.890171 3.91416e-13 0)
(-0.888239 3.44208e-13 0)
(-0.886403 3.23717e-13 0)
(-0.884679 3.06115e-13 0)
(-0.883085 2.90122e-13 0)
(-0.881638 2.77396e-13 0)
(-0.880355 2.6858e-13 0)
(-0.879252 2.63103e-13 0)
(-0.878341 2.60722e-13 0)
(-0.877633 2.60813e-13 0)
(-0.877133 2.64348e-13 0)
(-0.87684 2.73656e-13 0)
(-0.876749 2.70311e-13 0)
(-0.876846 1.8846e-13 0)
(-0.877114 1.22681e-13 0)
(-0.877532 3.29456e-12 0)
(-0.878073 -1.05325e-11 0)
(-0.878707 2.57325e-11 0)
(-0.879402 -4.75086e-11 0)
(-0.88012 7.87712e-11 0)
(-0.880819 -1.16594e-10 0)
(-0.881444 1.62446e-10 0)
(-0.881854 -2.11881e-10 0)
(-0.881938 2.65603e-10 0)
(-0.881941 -3.19602e-10 0)
(-0.881941 3.76119e-10 0)
(-0.881941 -4.32367e-10 0)
(-0.881941 4.91147e-10 0)
(-0.881941 -5.49755e-10 0)
(-0.881941 6.10937e-10 0)
(-0.881941 -6.72047e-10 0)
(-0.881941 7.35767e-10 0)
(-0.881941 -7.99551e-10 0)
(-0.881941 8.65871e-10 0)
(-0.881941 -9.32427e-10 0)
(-0.881941 1.00137e-09 0)
(-0.881941 -1.07079e-09 0)
(-0.881941 1.14239e-09 0)
(-0.881941 -1.2147e-09 0)
(-0.881941 1.28897e-09 0)
(-0.881941 -1.36409e-09 0)
(-0.881941 1.44115e-09 0)
(-0.881941 -1.51898e-09 0)
(-0.881941 1.59886e-09 0)
(-0.881941 -1.67928e-09 0)
(-0.881941 1.76181e-09 0)
(-0.881941 -1.8448e-09 0)
(-0.881941 1.92985e-09 0)
(-0.881941 -2.01526e-09 0)
(-0.881941 2.1027e-09 0)
(-0.881941 -2.19035e-09 0)
(-0.881941 2.27993e-09 0)
(-0.881941 -2.36962e-09 0)
(-0.881941 2.1618e-09 0)
(-0.881941 -2.2034e-09 0)
(-0.881941 2.24527e-09 0)
(-0.881941 -2.28589e-09 0)
(-0.881941 2.32673e-09 0)
(-0.881941 -2.36634e-09 0)
(-0.881941 2.40612e-09 0)
(-0.881941 -2.44474e-09 0)
(-0.881941 2.48345e-09 0)
(-0.881941 -2.52105e-09 0)
(-0.881941 2.55866e-09 0)
(-0.881941 -2.59525e-09 0)
(-0.881941 2.63174e-09 0)
(-0.881941 -2.66729e-09 0)
(-0.881941 2.70265e-09 0)
(-0.881941 -2.73716e-09 0)
(-0.881941 2.77135e-09 0)
(-0.881941 -2.8048e-09 0)
(-0.881941 2.83778e-09 0)
(-0.881941 -2.87019e-09 0)
(-0.881941 2.90188e-09 0)
(-0.881941 -2.93327e-09 0)
(-0.881941 2.96363e-09 0)
(-0.881941 -2.99398e-09 0)
(-0.881941 3.02296e-09 0)
(-0.881941 -3.05222e-09 0)
(-0.881941 3.07981e-09 0)
(-0.881941 -3.10793e-09 0)
(-0.881941 3.13405e-09 0)
(-0.881941 -3.16099e-09 0)
(-0.881941 3.18563e-09 0)
(-0.881941 -3.21131e-09 0)
(-0.881941 3.2344e-09 0)
(-0.881941 -3.25871e-09 0)
(-0.881941 3.28021e-09 0)
(-0.881941 -3.30313e-09 0)
(-0.881941 3.32283e-09 0)
(-0.881941 -3.34426e-09 0)
(-0.881941 3.36214e-09 0)
(-0.881941 -3.38188e-09 0)
(-0.881941 3.39781e-09 0)
(-0.881941 -3.41556e-09 0)
(-0.881941 3.42945e-09 0)
(-0.881941 -3.44496e-09 0)
(-0.881941 3.45644e-09 0)
(-0.881941 -3.46915e-09 0)
(-0.881941 3.4779e-09 0)
(-0.881941 -3.48664e-09 0)
(-0.881941 3.49154e-09 0)
(-0.881941 -3.49409e-09 0)
)
;

boundaryField
{
    inandouthalf11
    {
        type            cyclic;
    }
    inandouthalf12
    {
        type            cyclic;
    }
    inandouthalf21
    {
        type            cyclic;
    }
    inandouthalf22
    {
        type            cyclic;
    }
    inandouthalf31
    {
        type            cyclic;
    }
    inandouthalf32
    {
        type            cyclic;
    }
    inandouthalf41
    {
        type            cyclic;
    }
    inandouthalf42
    {
        type            cyclic;
    }
    top
    {
        type            symmetryPlane;
    }
    walls
    {
        type            fixedValue;
        value           uniform (0 0 0);
    }
    frontAndBackPlanes
    {
        type            empty;
    }
}


// ************************************************************************* //
