/*--------------------------------*- C++ -*----------------------------------*\
| =========                 |                                                 |
| \\      /  F ield         | OpenFOAM: The Open Source CFD Toolbox           |
|  \\    /   O peration     | Version:  2.4.x                                 |
|   \\  /    A nd           | Web:      www.OpenFOAM.org                      |
|    \\/     M anipulation  |                                                 |
\*---------------------------------------------------------------------------*/
FoamFile
{
    version     2.0;
    format      ascii;
    class       volScalarField;
    location    "5.9";
    object      alpha;
}
// * * * * * * * * * * * * * * * * * * * * * * * * * * * * * * * * * * * * * //

dimensions      [0 0 0 0 0 0 0];

internalField   nonuniform List<scalar> 
360
(
0.610655
0.611391
0.611512
0.61144
0.611391
0.61137
0.61135
0.611327
0.611304
0.61128
0.611255
0.61123
0.611205
0.61118
0.611155
0.611129
0.611104
0.611078
0.611051
0.611025
0.610998
0.610971
0.610944
0.610917
0.610889
0.610861
0.610833
0.610805
0.610776
0.610747
0.610718
0.610689
0.610659
0.610629
0.610598
0.610567
0.610536
0.610504
0.610472
0.61044
0.610408
0.610376
0.610344
0.610312
0.61028
0.610248
0.610215
0.610183
0.61015
0.610114
0.610078
0.610038
0.609996
0.609949
0.609898
0.609846
0.609796
0.609751
0.609713
0.609682
0.609653
0.609627
0.609599
0.609572
0.609543
0.609514
0.609484
0.609453
0.609421
0.609388
0.609354
0.609317
0.609281
0.609242
0.609203
0.609163
0.609122
0.609081
0.609038
0.608994
0.60895
0.608904
0.608856
0.608808
0.608758
0.608707
0.608655
0.608602
0.608548
0.608493
0.608436
0.608379
0.60832
0.608259
0.608197
0.608134
0.608069
0.608003
0.607935
0.607865
0.607794
0.607722
0.607647
0.607571
0.607492
0.607412
0.60733
0.607246
0.607159
0.60707
0.606979
0.606885
0.606789
0.60669
0.606588
0.606483
0.606375
0.606263
0.606149
0.60603
0.605908
0.605782
0.605652
0.605518
0.605379
0.605236
0.605087
0.604933
0.604773
0.604606
0.604433
0.604252
0.604064
0.603865
0.603655
0.603432
0.603198
0.602949
0.602674
0.602359
0.602018
0.601693
0.601304
0.600801
0.600177
0.59905
0.595415
0.589591
0.348401
0.23166
0.179986
0.142653
0.113013
0.089203
0.0703072
0.0555186
0.0440484
0.0351801
0.028313
0.0229698
0.0187841
0.0154793
0.0128485
0.010737
0.00902863
0.00763591
0.0064923
0.00554692
0.00476047
0.00410241
0.00354877
0.00308062
0.0026829
0.00234351
0.00205272
0.00180261
0.00158672
0.00139973
0.00123725
0.00109566
0.000971918
0.000863484
0.000768224
0.000684338
0.000610298
0.000544807
0.000486756
0.000435189
0.000389279
0.000348301
0.000311621
0.000278682
0.000249004
0.000222179
0.000197863
0.000175783
0.000155751
0.00013765
0.000121385
0.000106825
9.37554e-05
8.18625e-05
7.09789e-05
6.10391e-05
5.20302e-05
4.40455e-05
3.70749e-05
3.10379e-05
2.58995e-05
2.15679e-05
1.7928e-05
1.48949e-05
1.2359e-05
1.02551e-05
8.52073e-06
7.06689e-06
5.86197e-06
4.86776e-06
4.03354e-06
3.3381e-06
2.75808e-06
2.27835e-06
1.87722e-06
1.54007e-06
1.26372e-06
1.03286e-06
8.40066e-07
6.80782e-07
5.48831e-07
4.39216e-07
3.49976e-07
2.74563e-07
2.18349e-07
1.66574e-07
1.31338e-07
8.84201e-08
1.26056e-07
7.34172e-08
3.16133e-08
7.71568e-09
0
1.67803e-25
5.13183e-26
2.46587e-26
1.15108e-26
7.12064e-27
4.99739e-27
3.91154e-27
3.25497e-27
2.66977e-27
1.97459e-27
1.1325e-27
4.58197e-28
2.1159e-28
1.14541e-28
6.95584e-29
4.67528e-29
3.32859e-29
2.18848e-29
1.05512e-29
4.69818e-30
2.41802e-30
1.33536e-30
7.77373e-31
4.38929e-31
2.10548e-31
1.04731e-31
5.33414e-32
2.69018e-32
1.32939e-32
6.46648e-33
3.08716e-33
1.44559e-33
6.63477e-34
2.98256e-34
1.31221e-34
5.64566e-35
2.3733e-35
9.73916e-36
3.89761e-36
1.51961e-36
5.76562e-37
2.12628e-37
7.61211e-38
2.6418e-38
8.87491e-39
2.88136e-39
9.02486e-40
2.72186e-40
7.88798e-41
2.1915e-41
5.82218e-42
1.47493e-42
3.5516e-43
8.1002e-44
1.74272e-44
3.52057e-45
6.64236e-46
1.16316e-46
1.87648e-47
2.76409e-48
3.67705e-49
4.35707e-50
4.51719e-51
3.99982e-52
2.92276e-53
1.67162e-54
6.82184e-56
1.61762e-57
8.41129e-60
1.66729e-63
1.87897e-65
1.05087e-67
3.15635e-78
4.68529e-89
4.84127e-100
3.65631e-111
2.26375e-122
1.1111e-133
4.61451e-145
1.18437e-154
4.38832e-165
4.05148e-173
1.33441e-183
1.39366e-191
5.36405e-202
4.79445e-210
2.28004e-220
1.65076e-228
1.45484e-238
5.75132e-247
9.50655e-257
2.03901e-265
4.71017e-275
7.35053e-284
2.22951e-293
2.68993e-302
9.79428e-312
4.38829e-319
2.8055e-319
6.80328e-321
7.09478e-321
6.08689e-321
8.5424e-321
0
0
0
0
0
0
0
0
0
0
0
0
0
0
0
0
)
;

boundaryField
{
    inandouthalf11
    {
        type            cyclic;
    }
    inandouthalf12
    {
        type            cyclic;
    }
    inandouthalf21
    {
        type            cyclic;
    }
    inandouthalf22
    {
        type            cyclic;
    }
    inandouthalf31
    {
        type            cyclic;
    }
    inandouthalf32
    {
        type            cyclic;
    }
    inandouthalf41
    {
        type            cyclic;
    }
    inandouthalf42
    {
        type            cyclic;
    }
    top
    {
        type            symmetryPlane;
    }
    walls
    {
        type            zeroGradient;
    }
    frontAndBackPlanes
    {
        type            empty;
    }
}


// ************************************************************************* //
