/*--------------------------------*- C++ -*----------------------------------*\
| =========                 |                                                 |
| \\      /  F ield         | OpenFOAM: The Open Source CFD Toolbox           |
|  \\    /   O peration     | Version:  2.4.x                                 |
|   \\  /    A nd           | Web:      www.OpenFOAM.org                      |
|    \\/     M anipulation  |                                                 |
\*---------------------------------------------------------------------------*/
FoamFile
{
    version     2.0;
    format      ascii;
    class       volScalarField;
    location    "5.9";
    object      alpha_0;
}
// * * * * * * * * * * * * * * * * * * * * * * * * * * * * * * * * * * * * * //

dimensions      [0 0 0 0 0 0 0];

internalField   nonuniform List<scalar> 
360
(
0.610655
0.611391
0.611512
0.61144
0.611391
0.61137
0.61135
0.611327
0.611304
0.61128
0.611255
0.61123
0.611205
0.61118
0.611155
0.611129
0.611104
0.611078
0.611051
0.611025
0.610998
0.610971
0.610944
0.610917
0.610889
0.610861
0.610833
0.610805
0.610776
0.610747
0.610718
0.610688
0.610659
0.610628
0.610598
0.610567
0.610536
0.610504
0.610472
0.61044
0.610408
0.610376
0.610344
0.610312
0.61028
0.610248
0.610215
0.610183
0.61015
0.610114
0.610078
0.610038
0.609995
0.609948
0.609898
0.609846
0.609796
0.609751
0.609713
0.609682
0.609653
0.609627
0.609599
0.609572
0.609543
0.609514
0.609484
0.609453
0.609421
0.609388
0.609354
0.609317
0.609281
0.609242
0.609203
0.609163
0.609122
0.609081
0.609038
0.608994
0.60895
0.608904
0.608856
0.608808
0.608758
0.608707
0.608655
0.608602
0.608548
0.608493
0.608436
0.608379
0.60832
0.608259
0.608197
0.608134
0.608069
0.608003
0.607935
0.607865
0.607794
0.607722
0.607647
0.607571
0.607492
0.607412
0.60733
0.607246
0.607159
0.60707
0.606979
0.606885
0.606789
0.60669
0.606588
0.606483
0.606375
0.606263
0.606149
0.60603
0.605908
0.605782
0.605652
0.605518
0.605379
0.605236
0.605087
0.604933
0.604773
0.604606
0.604433
0.604252
0.604064
0.603865
0.603655
0.603432
0.603198
0.602949
0.602674
0.602359
0.602018
0.601693
0.601304
0.600801
0.600177
0.59905
0.595415
0.589589
0.348388
0.231657
0.179986
0.142654
0.113015
0.0892054
0.0703096
0.0555209
0.0440503
0.0351818
0.0283144
0.022971
0.018785
0.0154801
0.0128492
0.0107375
0.00902907
0.00763626
0.00649259
0.00554715
0.00476066
0.00410256
0.00354889
0.00308071
0.00268297
0.00234357
0.00205276
0.00180264
0.00158674
0.00139974
0.00123726
0.00109566
0.000971913
0.000863475
0.000768212
0.000684323
0.000610282
0.00054479
0.000486738
0.00043517
0.000389259
0.000348281
0.000311601
0.000278661
0.000248982
0.000222157
0.000197841
0.000175761
0.000155729
0.000137628
0.000121363
0.000106804
9.37358e-05
8.18439e-05
7.09613e-05
6.10227e-05
5.20152e-05
4.40321e-05
3.70632e-05
3.10278e-05
2.5891e-05
2.15608e-05
1.79221e-05
1.48899e-05
1.23549e-05
1.02518e-05
8.51805e-06
7.0647e-06
5.86019e-06
4.86631e-06
4.03236e-06
3.33713e-06
2.75729e-06
2.27771e-06
1.8767e-06
1.53964e-06
1.26338e-06
1.03258e-06
8.3984e-07
6.80599e-07
5.48684e-07
4.39097e-07
3.49881e-07
2.74489e-07
2.1829e-07
1.66527e-07
1.31298e-07
8.83944e-08
1.26028e-07
7.3384e-08
3.16074e-08
7.70943e-09
0
1.68298e-25
5.15779e-26
2.47976e-26
1.15521e-26
7.13986e-27
5.00701e-27
3.91665e-27
3.25853e-27
2.67337e-27
1.97882e-27
1.13712e-27
4.60291e-28
2.12362e-28
1.14881e-28
6.97271e-29
4.68416e-29
3.33454e-29
2.19381e-29
1.05941e-29
4.7138e-30
2.42512e-30
1.33893e-30
7.79279e-31
4.40153e-31
2.11199e-31
1.05036e-31
5.34942e-32
2.69793e-32
1.33324e-32
6.48528e-33
3.09617e-33
1.44982e-33
6.65425e-34
2.99134e-34
1.31609e-34
5.66241e-35
2.38037e-35
9.76825e-36
3.90929e-36
1.52419e-36
5.78303e-37
2.13273e-37
7.63525e-38
2.64986e-38
8.90208e-39
2.89021e-39
9.0527e-40
2.73029e-40
7.91249e-41
2.19833e-41
5.84041e-42
1.47957e-42
3.56281e-43
8.12585e-44
1.74827e-44
3.53181e-45
6.66365e-46
1.16691e-46
1.88254e-47
2.77306e-48
3.68904e-49
4.37134e-50
4.53205e-51
4.01305e-52
2.93247e-53
1.67721e-54
6.84478e-56
1.6231e-57
8.44039e-60
1.67345e-63
1.88598e-65
1.05482e-67
3.16805e-78
4.70241e-89
4.85872e-100
3.66931e-111
2.27169e-122
1.11496e-133
4.63035e-145
1.18882e-154
4.40466e-165
4.06673e-173
1.33939e-183
1.3989e-191
5.38411e-202
4.81248e-210
2.28858e-220
1.65697e-228
1.4603e-238
5.77296e-247
9.5423e-257
2.04668e-265
4.72789e-275
7.37818e-284
2.23789e-293
2.70005e-302
9.83113e-312
4.38824e-319
2.8055e-319
6.80328e-321
7.09478e-321
6.08689e-321
8.5424e-321
0
0
0
0
0
0
0
0
0
0
0
0
0
0
0
0
)
;

boundaryField
{
    inandouthalf11
    {
        type            cyclic;
    }
    inandouthalf12
    {
        type            cyclic;
    }
    inandouthalf21
    {
        type            cyclic;
    }
    inandouthalf22
    {
        type            cyclic;
    }
    inandouthalf31
    {
        type            cyclic;
    }
    inandouthalf32
    {
        type            cyclic;
    }
    inandouthalf41
    {
        type            cyclic;
    }
    inandouthalf42
    {
        type            cyclic;
    }
    top
    {
        type            symmetryPlane;
    }
    walls
    {
        type            zeroGradient;
    }
    frontAndBackPlanes
    {
        type            empty;
    }
}


// ************************************************************************* //
