/*--------------------------------*- C++ -*----------------------------------*\
| =========                 |                                                 |
| \\      /  F ield         | OpenFOAM: The Open Source CFD Toolbox           |
|  \\    /   O peration     | Version:  2.4.x                                 |
|   \\  /    A nd           | Web:      www.OpenFOAM.org                      |
|    \\/     M anipulation  |                                                 |
\*---------------------------------------------------------------------------*/
FoamFile
{
    version     2.0;
    format      ascii;
    class       surfaceScalarField;
    location    "5.9";
    object      ddt0(phib);
}
// * * * * * * * * * * * * * * * * * * * * * * * * * * * * * * * * * * * * * //

dimensions      [0 3 -2 0 0 0 0];

internalField   nonuniform List<scalar> 
359
(
-2.34391e-13
-6.6952e-13
-1.07642e-12
-1.44858e-12
-1.81906e-12
-2.20051e-12
-2.5904e-12
-2.98334e-12
-3.37606e-12
-3.76866e-12
-4.16247e-12
-4.55838e-12
-4.95688e-12
-5.35758e-12
-5.76025e-12
-6.16493e-12
-6.5716e-12
-6.98023e-12
-7.3905e-12
-7.80211e-12
-8.21424e-12
-8.62648e-12
-9.03827e-12
-9.4494e-12
-9.8601e-12
-1.02712e-11
-1.06843e-11
-1.11027e-11
-1.15296e-11
-1.19696e-11
-1.24265e-11
-1.29039e-11
-1.34024e-11
-1.39198e-11
-1.44476e-11
-1.49712e-11
-1.54691e-11
-1.59145e-11
-1.62789e-11
-1.65372e-11
-1.66774e-11
-1.67073e-11
-1.66608e-11
-1.65997e-11
-1.66119e-11
-1.68081e-11
-1.73227e-11
-1.83178e-11
-1.99972e-11
-2.26155e-11
-2.64518e-11
-3.17071e-11
-3.81787e-11
-4.46899e-11
-4.85983e-11
-4.65792e-11
-3.73766e-11
-2.41021e-11
-1.2197e-11
-4.82671e-12
-1.51773e-12
-3.95163e-13
-9.09926e-14
-2.04904e-14
-5.32078e-15
-1.9878e-15
-1.16246e-15
-9.1791e-16
-8.7686e-16
-8.35792e-16
-8.06637e-16
-7.79925e-16
-7.94495e-16
-7.81364e-16
-7.87547e-16
-7.95936e-16
-8.01939e-16
-8.14182e-16
-8.2995e-16
-8.56985e-16
-8.71117e-16
-8.84102e-16
-9.22198e-16
-9.42275e-16
-9.67967e-16
-9.48217e-16
-9.4317e-16
-9.87518e-16
-9.69114e-16
-9.95985e-16
-9.91691e-16
-9.81083e-16
-9.79272e-16
-9.68992e-16
-9.59244e-16
-9.45658e-16
-9.65467e-16
-9.51823e-16
-9.43652e-16
-9.40743e-16
-9.08203e-16
-9.28767e-16
-9.249e-16
-9.33662e-16
-9.17845e-16
-9.21454e-16
-9.17014e-16
-9.23798e-16
-8.93953e-16
-9.12217e-16
-9.39926e-16
-9.5552e-16
-9.59568e-16
-9.69346e-16
-9.98936e-16
-1.00703e-15
-1.0694e-15
-1.08101e-15
-1.10176e-15
-1.14793e-15
-1.14413e-15
-1.19362e-15
-1.22333e-15
-1.23679e-15
-1.25816e-15
-1.31813e-15
-1.36432e-15
-1.40599e-15
-1.47755e-15
-1.51738e-15
-1.56733e-15
-1.61733e-15
-1.70109e-15
-1.76883e-15
-1.86361e-15
-1.93146e-15
-2.02829e-15
-2.1864e-15
-2.39554e-15
-2.4996e-15
-2.60197e-15
-2.93716e-15
-3.57205e-15
-4.88545e-15
-1.37058e-14
-2.22727e-14
1.74543e-12
-1.30794e-10
5.4913e-10
4.75249e-10
5.0156e-10
4.6108e-10
4.08949e-10
3.54522e-10
3.03421e-10
2.58213e-10
2.19549e-10
1.86977e-10
1.59814e-10
1.37173e-10
1.18258e-10
1.02387e-10
8.89876e-11
7.76073e-11
6.78847e-11
5.95392e-11
5.2347e-11
4.61312e-11
4.07488e-11
3.60792e-11
3.20249e-11
2.84996e-11
2.5429e-11
2.27479e-11
2.03996e-11
1.83346e-11
1.65101e-11
1.48895e-11
1.34417e-11
1.21406e-11
1.09646e-11
9.89565e-12
8.91888e-12
8.02229e-12
7.19575e-12
6.43062e-12
5.71884e-12
5.05222e-12
4.42192e-12
3.81861e-12
3.23357e-12
2.66036e-12
2.09647e-12
1.54395e-12
1.01134e-12
5.15396e-13
7.70678e-14
-2.88648e-13
-5.82592e-13
-8.19661e-13
-1.01049e-12
-1.15658e-12
-1.25533e-12
-1.29977e-12
-1.28011e-12
-1.20815e-12
-1.10482e-12
-9.81296e-13
-8.5086e-13
-7.25984e-13
-6.1171e-13
-5.10875e-13
-4.22719e-13
-3.47377e-13
-2.85664e-13
-2.33957e-13
-1.9059e-13
-1.55817e-13
-1.2743e-13
-1.03674e-13
-8.40379e-14
-6.82738e-14
-5.54678e-14
-4.46963e-14
-3.59971e-14
-2.9079e-14
-2.33367e-14
-1.86833e-14
-1.48951e-14
-1.18472e-14
-9.2962e-15
-7.17405e-15
-5.56813e-15
-4.42595e-15
-3.2548e-15
-2.52433e-15
-1.48446e-15
-6.30841e-16
-4.63732e-17
4.99364e-16
2.28636e-16
2.24255e-16
2.17806e-16
2.18663e-16
2.33043e-16
2.4402e-16
2.45265e-16
2.38516e-16
2.40411e-16
2.49165e-16
2.5756e-16
2.63934e-16
2.72343e-16
2.69906e-16
2.90077e-16
3.01108e-16
3.09924e-16
3.21835e-16
3.39984e-16
3.59581e-16
3.81839e-16
4.07829e-16
4.38922e-16
4.66878e-16
5.01757e-16
5.44445e-16
5.88562e-16
6.43883e-16
6.88993e-16
7.37873e-16
7.89571e-16
8.40446e-16
8.80334e-16
9.22889e-16
9.58246e-16
9.94342e-16
1.02603e-15
1.0465e-15
1.05115e-15
1.06696e-15
1.09752e-15
1.1096e-15
1.13563e-15
1.11417e-15
1.12095e-15
1.08543e-15
1.04245e-15
9.55023e-16
9.34861e-16
8.65597e-16
7.93287e-16
6.79567e-16
6.00821e-16
4.79296e-16
3.6858e-16
2.27712e-16
2.72982e-16
2.92748e-16
3.24669e-16
3.32571e-16
3.77353e-16
3.92477e-16
4.16473e-16
4.23224e-16
4.7181e-16
4.95056e-16
5.13403e-16
5.29342e-16
5.57369e-16
5.75156e-16
5.88797e-16
5.92176e-16
6.36091e-16
6.65901e-16
7.01129e-16
7.24836e-16
7.62446e-16
7.83216e-16
8.06046e-16
8.0733e-16
8.71379e-16
9.10241e-16
9.59176e-16
9.6785e-16
1.06518e-15
1.10134e-15
1.20818e-15
1.26201e-15
2.32408e-15
3.24375e-15
4.2294e-15
4.93711e-15
5.9473e-15
6.57088e-15
7.20419e-15
7.42052e-15
8.40091e-15
8.8409e-15
9.28795e-15
9.07256e-15
9.3572e-15
8.97391e-15
8.61221e-15
7.74691e-15
7.85513e-15
7.56404e-15
7.30924e-15
6.73519e-15
6.19625e-15
5.76873e-15
5.36251e-15
6.49489e-15
4.23286e-15
4.48923e-15
4.97848e-15
1.05652e-14
9.12361e-15
2.00674e-14
3.9744e-14
)
;

boundaryField
{
    inandouthalf11
    {
        type            cyclic;
        value           nonuniform List<scalar> 
100
(
-4.81208e-11
-4.79169e-11
-4.78887e-11
-4.79356e-11
-4.7972e-11
-4.79975e-11
-4.80232e-11
-4.80504e-11
-4.80781e-11
-4.81061e-11
-4.81344e-11
-4.81629e-11
-4.81916e-11
-4.82206e-11
-4.82498e-11
-4.82793e-11
-4.83091e-11
-4.83391e-11
-4.83695e-11
-4.84001e-11
-4.84309e-11
-4.84621e-11
-4.84934e-11
-4.85249e-11
-4.85566e-11
-4.85885e-11
-4.86207e-11
-4.86533e-11
-4.86864e-11
-4.87201e-11
-4.87547e-11
-4.87904e-11
-4.8827e-11
-4.88651e-11
-4.89039e-11
-4.89434e-11
-4.89825e-11
-4.90205e-11
-4.90561e-11
-4.90876e-11
-4.91147e-11
-4.91367e-11
-4.91542e-11
-4.91699e-11
-4.91863e-11
-4.92084e-11
-4.92417e-11
-4.92929e-11
-4.93711e-11
-4.94874e-11
-4.96549e-11
-4.98876e-11
-5.01899e-11
-5.05356e-11
-5.0834e-11
-5.09233e-11
-5.06559e-11
-5.00712e-11
-4.94234e-11
-4.8961e-11
-4.87352e-11
-4.86588e-11
-4.86451e-11
-4.86504e-11
-4.86606e-11
-4.86721e-11
-4.86843e-11
-4.8697e-11
-4.87101e-11
-4.87236e-11
-4.87379e-11
-4.87527e-11
-4.87677e-11
-4.87834e-11
-4.87994e-11
-4.88159e-11
-4.88326e-11
-4.88497e-11
-4.88672e-11
-4.88851e-11
-4.89034e-11
-4.89223e-11
-4.89417e-11
-4.89616e-11
-4.8982e-11
-4.90029e-11
-4.90243e-11
-4.90461e-11
-4.90684e-11
-4.90912e-11
-4.91144e-11
-4.91382e-11
-4.91626e-11
-4.91875e-11
-4.92131e-11
-4.92392e-11
-4.9266e-11
-4.92934e-11
-4.93215e-11
-4.93502e-11
)
;
    }
    inandouthalf12
    {
        type            cyclic;
        value           nonuniform List<scalar> 
100
(
4.81208e-11
4.79169e-11
4.78887e-11
4.79356e-11
4.7972e-11
4.79975e-11
4.80232e-11
4.80504e-11
4.80781e-11
4.81061e-11
4.81344e-11
4.81629e-11
4.81916e-11
4.82206e-11
4.82498e-11
4.82793e-11
4.83091e-11
4.83391e-11
4.83695e-11
4.84001e-11
4.84309e-11
4.84621e-11
4.84934e-11
4.85249e-11
4.85566e-11
4.85885e-11
4.86207e-11
4.86533e-11
4.86864e-11
4.87201e-11
4.87547e-11
4.87904e-11
4.8827e-11
4.88651e-11
4.89039e-11
4.89434e-11
4.89825e-11
4.90205e-11
4.90561e-11
4.90876e-11
4.91147e-11
4.91367e-11
4.91542e-11
4.91699e-11
4.91863e-11
4.92084e-11
4.92417e-11
4.92929e-11
4.93711e-11
4.94874e-11
4.96549e-11
4.98876e-11
5.01899e-11
5.05356e-11
5.0834e-11
5.09233e-11
5.06559e-11
5.00712e-11
4.94234e-11
4.8961e-11
4.87352e-11
4.86588e-11
4.86451e-11
4.86504e-11
4.86606e-11
4.86721e-11
4.86843e-11
4.8697e-11
4.87101e-11
4.87236e-11
4.87379e-11
4.87527e-11
4.87677e-11
4.87834e-11
4.87994e-11
4.88159e-11
4.88326e-11
4.88497e-11
4.88672e-11
4.88851e-11
4.89034e-11
4.89223e-11
4.89417e-11
4.89616e-11
4.8982e-11
4.90029e-11
4.90243e-11
4.90461e-11
4.90684e-11
4.90912e-11
4.91144e-11
4.91382e-11
4.91626e-11
4.91875e-11
4.92131e-11
4.92392e-11
4.9266e-11
4.92934e-11
4.93215e-11
4.93502e-11
)
;
    }
    inandouthalf21
    {
        type            cyclic;
        value           nonuniform List<scalar> 
100
(
-4.93796e-11
-4.94097e-11
-4.94406e-11
-4.94723e-11
-4.95047e-11
-4.9538e-11
-4.95722e-11
-4.96073e-11
-4.96433e-11
-4.96802e-11
-4.97182e-11
-4.97573e-11
-4.97975e-11
-4.98389e-11
-4.98815e-11
-4.99253e-11
-4.99705e-11
-5.00171e-11
-5.00652e-11
-5.01148e-11
-5.0166e-11
-5.02189e-11
-5.02736e-11
-5.03301e-11
-5.03886e-11
-5.04491e-11
-5.05119e-11
-5.05771e-11
-5.06449e-11
-5.07155e-11
-5.07891e-11
-5.08657e-11
-5.09459e-11
-5.10304e-11
-5.11203e-11
-5.12156e-11
-5.13158e-11
-5.14223e-11
-5.15405e-11
-5.16764e-11
-5.18237e-11
-5.19644e-11
-5.2133e-11
-5.23524e-11
-5.26255e-11
-5.31265e-11
-5.5339e-11
-5.09982e-10
-6.1012e-08
-5.78632e-08
-5.67488e-08
-5.8492e-08
-6.14909e-08
-6.5028e-08
-6.87163e-08
-7.23484e-08
-7.58222e-08
-7.90961e-08
-8.21615e-08
-8.5027e-08
-8.77085e-08
-9.02243e-08
-9.25923e-08
-9.48291e-08
-9.69493e-08
-9.89655e-08
-1.00888e-07
-1.02726e-07
-1.04487e-07
-1.06178e-07
-1.07802e-07
-1.09364e-07
-1.10868e-07
-1.12315e-07
-1.13709e-07
-1.1505e-07
-1.1634e-07
-1.1758e-07
-1.18769e-07
-1.19909e-07
-1.20998e-07
-1.22038e-07
-1.23027e-07
-1.23964e-07
-1.2485e-07
-1.25682e-07
-1.26459e-07
-1.27181e-07
-1.27845e-07
-1.2845e-07
-1.28994e-07
-1.29474e-07
-1.29888e-07
-1.30234e-07
-1.30509e-07
-1.30709e-07
-1.30831e-07
-1.30872e-07
-1.30828e-07
-1.30695e-07
)
;
    }
    inandouthalf22
    {
        type            cyclic;
        value           nonuniform List<scalar> 
100
(
4.93796e-11
4.94097e-11
4.94406e-11
4.94723e-11
4.95047e-11
4.9538e-11
4.95722e-11
4.96073e-11
4.96433e-11
4.96802e-11
4.97182e-11
4.97573e-11
4.97975e-11
4.98389e-11
4.98815e-11
4.99253e-11
4.99705e-11
5.00171e-11
5.00652e-11
5.01148e-11
5.0166e-11
5.02189e-11
5.02736e-11
5.03301e-11
5.03886e-11
5.04491e-11
5.05119e-11
5.05771e-11
5.06449e-11
5.07155e-11
5.07891e-11
5.08657e-11
5.09459e-11
5.10304e-11
5.11203e-11
5.12156e-11
5.13158e-11
5.14223e-11
5.15405e-11
5.16764e-11
5.18237e-11
5.19644e-11
5.2133e-11
5.23524e-11
5.26255e-11
5.31265e-11
5.5339e-11
5.09982e-10
6.1012e-08
5.78632e-08
5.67488e-08
5.8492e-08
6.14909e-08
6.5028e-08
6.87163e-08
7.23484e-08
7.58222e-08
7.90961e-08
8.21615e-08
8.5027e-08
8.77085e-08
9.02243e-08
9.25923e-08
9.48291e-08
9.69493e-08
9.89655e-08
1.00888e-07
1.02726e-07
1.04487e-07
1.06178e-07
1.07802e-07
1.09364e-07
1.10868e-07
1.12315e-07
1.13709e-07
1.1505e-07
1.1634e-07
1.1758e-07
1.18769e-07
1.19909e-07
1.20998e-07
1.22038e-07
1.23027e-07
1.23964e-07
1.2485e-07
1.25682e-07
1.26459e-07
1.27181e-07
1.27845e-07
1.2845e-07
1.28994e-07
1.29474e-07
1.29888e-07
1.30234e-07
1.30509e-07
1.30709e-07
1.30831e-07
1.30872e-07
1.30828e-07
1.30695e-07
)
;
    }
    inandouthalf31
    {
        type            cyclic;
        value           nonuniform List<scalar> 
110
(
-1.30469e-07
-1.32783e-07
-1.35019e-07
-1.37158e-07
-1.39179e-07
-1.41057e-07
-1.42766e-07
-1.44275e-07
-1.45553e-07
-1.46563e-07
-1.47268e-07
-1.47629e-07
-1.47603e-07
-1.47151e-07
-1.46236e-07
-1.44827e-07
-1.42903e-07
-1.40457e-07
-1.37501e-07
-1.3407e-07
-1.30222e-07
-1.26039e-07
-1.21622e-07
-1.17083e-07
-1.12531e-07
-1.08065e-07
-1.03767e-07
-9.96894e-08
-9.58635e-08
-9.22985e-08
-8.89883e-08
-8.59179e-08
-8.30687e-08
-8.04223e-08
-7.79627e-08
-7.56769e-08
-7.35557e-08
-7.15922e-08
-6.97821e-08
-6.81225e-08
-6.66124e-08
-6.52525e-08
-6.40462e-08
-6.30004e-08
-6.21273e-08
-6.14467e-08
-6.09889e-08
-6.07999e-08
-6.09495e-08
-6.15458e-08
-6.27578e-08
-6.48527e-08
-6.84014e-08
-7.67329e-08
-9.06128e-08
-9.49436e-08
-9.69478e-08
-9.8917e-08
-1.00925e-07
-1.02973e-07
-1.05063e-07
-1.07196e-07
-1.09372e-07
-1.11592e-07
-1.13857e-07
-1.16168e-07
-1.18526e-07
-1.20931e-07
-1.23386e-07
-1.2589e-07
-1.28446e-07
-1.31053e-07
-1.33713e-07
-1.36427e-07
-1.39196e-07
-1.42021e-07
-1.44904e-07
-1.47845e-07
-1.50846e-07
-1.53908e-07
-1.57031e-07
-1.60219e-07
-1.63471e-07
-1.66789e-07
-1.70174e-07
-1.73628e-07
-1.77152e-07
-1.80748e-07
-1.84417e-07
-1.8816e-07
-1.91979e-07
-1.95876e-07
-1.99852e-07
-2.03908e-07
-2.08047e-07
-2.1227e-07
-2.16578e-07
-2.20974e-07
-2.25459e-07
-2.30036e-07
-2.34705e-07
-2.39469e-07
-2.44329e-07
-2.49288e-07
-2.54348e-07
-2.59511e-07
-2.64778e-07
-2.70153e-07
-2.75636e-07
-2.81231e-07
)
;
    }
    inandouthalf32
    {
        type            cyclic;
        value           nonuniform List<scalar> 
110
(
1.30469e-07
1.32783e-07
1.35019e-07
1.37158e-07
1.39179e-07
1.41057e-07
1.42766e-07
1.44275e-07
1.45553e-07
1.46563e-07
1.47268e-07
1.47629e-07
1.47603e-07
1.47151e-07
1.46236e-07
1.44827e-07
1.42903e-07
1.40457e-07
1.37501e-07
1.3407e-07
1.30222e-07
1.26039e-07
1.21622e-07
1.17083e-07
1.12531e-07
1.08065e-07
1.03767e-07
9.96894e-08
9.58635e-08
9.22985e-08
8.89883e-08
8.59179e-08
8.30687e-08
8.04223e-08
7.79627e-08
7.56769e-08
7.35557e-08
7.15922e-08
6.97821e-08
6.81225e-08
6.66124e-08
6.52525e-08
6.40462e-08
6.30004e-08
6.21273e-08
6.14467e-08
6.09889e-08
6.07999e-08
6.09495e-08
6.15458e-08
6.27578e-08
6.48527e-08
6.84014e-08
7.67329e-08
9.06128e-08
9.49436e-08
9.69478e-08
9.8917e-08
1.00925e-07
1.02973e-07
1.05063e-07
1.07196e-07
1.09372e-07
1.11592e-07
1.13857e-07
1.16168e-07
1.18526e-07
1.20931e-07
1.23386e-07
1.2589e-07
1.28446e-07
1.31053e-07
1.33713e-07
1.36427e-07
1.39196e-07
1.42021e-07
1.44904e-07
1.47845e-07
1.50846e-07
1.53908e-07
1.57031e-07
1.60219e-07
1.63471e-07
1.66789e-07
1.70174e-07
1.73628e-07
1.77152e-07
1.80748e-07
1.84417e-07
1.8816e-07
1.91979e-07
1.95876e-07
1.99852e-07
2.03908e-07
2.08047e-07
2.1227e-07
2.16578e-07
2.20974e-07
2.25459e-07
2.30036e-07
2.34705e-07
2.39469e-07
2.44329e-07
2.49288e-07
2.54348e-07
2.59511e-07
2.64778e-07
2.70153e-07
2.75636e-07
2.81231e-07
)
;
    }
    inandouthalf41
    {
        type            cyclic;
        value           nonuniform List<scalar> 
50
(
-2.5173e-07
-2.5173e-07
-2.5173e-07
-2.5173e-07
-2.5173e-07
-2.5173e-07
-2.5173e-07
-2.5173e-07
-2.5173e-07
-2.5173e-07
-2.5173e-07
-2.5173e-07
-2.5173e-07
-2.5173e-07
-2.5173e-07
-2.5173e-07
-2.5173e-07
-2.5173e-07
-2.5173e-07
-2.5173e-07
-2.5173e-07
-2.5173e-07
-2.5173e-07
-2.5173e-07
-2.5173e-07
-2.5173e-07
-2.5173e-07
-2.5173e-07
-2.5173e-07
-2.5173e-07
-2.5173e-07
-2.5173e-07
-2.5173e-07
-2.5173e-07
-2.5173e-07
-2.5173e-07
-2.5173e-07
-2.5173e-07
-2.5173e-07
-2.5173e-07
-2.5173e-07
-2.5173e-07
-2.5173e-07
-2.5173e-07
-2.5173e-07
-2.5173e-07
-2.5173e-07
-2.5173e-07
-2.5173e-07
-2.5173e-07
)
;
    }
    inandouthalf42
    {
        type            cyclic;
        value           nonuniform List<scalar> 
50
(
2.5173e-07
2.5173e-07
2.5173e-07
2.5173e-07
2.5173e-07
2.5173e-07
2.5173e-07
2.5173e-07
2.5173e-07
2.5173e-07
2.5173e-07
2.5173e-07
2.5173e-07
2.5173e-07
2.5173e-07
2.5173e-07
2.5173e-07
2.5173e-07
2.5173e-07
2.5173e-07
2.5173e-07
2.5173e-07
2.5173e-07
2.5173e-07
2.5173e-07
2.5173e-07
2.5173e-07
2.5173e-07
2.5173e-07
2.5173e-07
2.5173e-07
2.5173e-07
2.5173e-07
2.5173e-07
2.5173e-07
2.5173e-07
2.5173e-07
2.5173e-07
2.5173e-07
2.5173e-07
2.5173e-07
2.5173e-07
2.5173e-07
2.5173e-07
2.5173e-07
2.5173e-07
2.5173e-07
2.5173e-07
2.5173e-07
2.5173e-07
)
;
    }
    top
    {
        type            symmetryPlane;
        value           uniform 0;
    }
    walls
    {
        type            calculated;
        value           uniform 0;
    }
    frontAndBackPlanes
    {
        type            empty;
        value           nonuniform 0();
    }
}


// ************************************************************************* //
