/*--------------------------------*- C++ -*----------------------------------*\
| =========                 |                                                 |
| \\      /  F ield         | OpenFOAM: The Open Source CFD Toolbox           |
|  \\    /   O peration     | Version:  2.4.x                                 |
|   \\  /    A nd           | Web:      www.OpenFOAM.org                      |
|    \\/     M anipulation  |                                                 |
\*---------------------------------------------------------------------------*/
FoamFile
{
    version     2.0;
    format      ascii;
    class       volVectorField;
    location    "5.9";
    object      ddt0(Ua);
}
// * * * * * * * * * * * * * * * * * * * * * * * * * * * * * * * * * * * * * //

dimensions      [0 1 -2 0 0 0 0];

internalField   nonuniform List<vector> 
360
(
(1.15525e-33 -6.42303e-33 0)
(1.59417e-08 7.14559e-08 0)
(3.54832e-08 1.42763e-07 0)
(5.28306e-08 2.01915e-07 0)
(6.96205e-08 2.59555e-07 0)
(8.692e-08 3.19438e-07 0)
(1.04735e-07 3.81182e-07 0)
(1.22827e-07 4.43735e-07 0)
(1.41038e-07 5.06389e-07 0)
(1.59324e-07 5.68943e-07 0)
(1.77722e-07 6.31584e-07 0)
(1.96281e-07 6.94538e-07 0)
(2.15028e-07 7.5791e-07 0)
(2.33964e-07 8.21686e-07 0)
(2.5308e-07 8.85808e-07 0)
(2.72373e-07 9.50253e-07 0)
(2.91847e-07 1.01503e-06 0)
(3.11506e-07 1.08015e-06 0)
(3.31346e-07 1.14558e-06 0)
(3.5136e-07 1.21128e-06 0)
(3.71527e-07 1.27714e-06 0)
(3.91827e-07 1.34307e-06 0)
(4.12243e-07 1.40898e-06 0)
(4.32761e-07 1.47482e-06 0)
(4.5338e-07 1.54056e-06 0)
(4.7412e-07 1.60628e-06 0)
(4.95033e-07 1.67218e-06 0)
(5.16212e-07 1.73863e-06 0)
(5.37794e-07 1.80618e-06 0)
(5.59942e-07 1.87546e-06 0)
(5.82836e-07 1.94716e-06 0)
(6.06649e-07 2.02194e-06 0)
(6.3149e-07 2.10019e-06 0)
(6.57353e-07 2.18184e-06 0)
(6.84043e-07 2.26611e-06 0)
(7.111e-07 2.35117e-06 0)
(7.37769e-07 2.43414e-06 0)
(7.63011e-07 2.51106e-06 0)
(7.85586e-07 2.57732e-06 0)
(8.04241e-07 2.62831e-06 0)
(8.18052e-07 2.66073e-06 0)
(8.26785e-07 2.67393e-06 0)
(8.31238e-07 2.67106e-06 0)
(8.3346e-07 2.65981e-06 0)
(8.36776e-07 2.65226e-06 0)
(8.457e-07 2.66442e-06 0)
(8.6588e-07 2.71584e-06 0)
(9.04235e-07 2.82988e-06 0)
(9.69412e-07 3.0353e-06 0)
(1.07244e-06 3.36873e-06 0)
(1.22674e-06 3.87489e-06 0)
(1.44574e-06 4.59952e-06 0)
(1.7338e-06 5.56106e-06 0)
(2.06421e-06 6.67779e-06 0)
(2.34598e-06 7.65292e-06 0)
(2.41563e-06 7.93446e-06 0)
(2.12593e-06 7.00539e-06 0)
(1.51651e-06 4.98399e-06 0)
(8.45305e-07 2.7521e-06 0)
(3.63459e-07 1.16594e-06 0)
(1.22107e-07 3.84641e-07 0)
(3.33206e-08 1.02863e-07 0)
(7.86513e-09 2.37397e-08 0)
(1.74262e-09 5.09874e-09 0)
(3.96215e-10 1.08239e-09 0)
(1.00635e-10 2.18109e-10 0)
(3.08903e-11 1.8062e-11 0)
(1.23689e-11 -3.4102e-11 0)
(6.78295e-12 -4.95594e-11 0)
(4.95609e-12 -5.45158e-11 0)
(4.42813e-12 -5.58917e-11 0)
(4.47185e-12 -5.57031e-11 0)
(4.86941e-12 -5.45452e-11 0)
(5.57485e-12 -5.25427e-11 0)
(6.60464e-12 -4.96542e-11 0)
(7.98962e-12 -4.58079e-11 0)
(9.74593e-12 -4.09811e-11 0)
(1.18575e-11 -3.52451e-11 0)
(1.42715e-11 -2.87702e-11 0)
(1.69049e-11 -2.18027e-11 0)
(1.96589e-11 -1.46223e-11 0)
(2.24356e-11 -7.49378e-12 0)
(2.51519e-11 -6.31529e-13 0)
(2.77464e-11 5.81453e-12 0)
(3.01809e-11 1.17607e-11 0)
(3.24387e-11 1.71806e-11 0)
(3.45199e-11 2.20914e-11 0)
(3.64372e-11 2.65403e-11 0)
(3.8211e-11 3.05919e-11 0)
(3.98663e-11 3.43186e-11 0)
(4.1429e-11 3.77933e-11 0)
(4.29248e-11 4.10841e-11 0)
(4.4377e-11 4.42514e-11 0)
(4.58066e-11 4.73472e-11 0)
(4.72312e-11 5.04143e-11 0)
(4.86659e-11 5.3487e-11 0)
(5.01227e-11 5.65919e-11 0)
(5.1611e-11 5.97489e-11 0)
(5.31382e-11 6.29723e-11 0)
(5.47099e-11 6.62715e-11 0)
(5.63299e-11 6.96525e-11 0)
(5.80012e-11 7.31182e-11 0)
(5.97254e-11 7.66693e-11 0)
(6.15037e-11 8.03045e-11 0)
(6.33363e-11 8.40213e-11 0)
(6.52231e-11 8.78157e-11 0)
(6.71636e-11 9.16832e-11 0)
(6.91568e-11 9.56182e-11 0)
(7.12015e-11 9.96146e-11 0)
(7.32966e-11 1.03666e-10 0)
(7.54408e-11 1.07767e-10 0)
(7.76332e-11 1.11912e-10 0)
(7.9873e-11 1.16096e-10 0)
(8.21603e-11 1.20313e-10 0)
(8.44956e-11 1.24561e-10 0)
(8.68805e-11 1.28839e-10 0)
(8.93177e-11 1.33146e-10 0)
(9.18113e-11 1.37484e-10 0)
(9.4367e-11 1.41858e-10 0)
(9.69918e-11 1.46271e-10 0)
(9.96942e-11 1.50731e-10 0)
(1.02483e-10 1.55245e-10 0)
(1.05369e-10 1.59817e-10 0)
(1.08359e-10 1.6445e-10 0)
(1.11459e-10 1.6914e-10 0)
(1.14672e-10 1.73876e-10 0)
(1.17993e-10 1.78638e-10 0)
(1.21411e-10 1.83395e-10 0)
(1.24905e-10 1.88104e-10 0)
(1.28444e-10 1.92714e-10 0)
(1.31987e-10 1.97159e-10 0)
(1.35485e-10 2.01374e-10 0)
(1.38897e-10 2.05305e-10 0)
(1.42195e-10 2.08924e-10 0)
(1.45373e-10 2.12233e-10 0)
(1.4844e-10 2.15252e-10 0)
(1.51418e-10 2.18001e-10 0)
(1.54343e-10 2.20513e-10 0)
(1.57267e-10 2.22835e-10 0)
(1.60201e-10 2.24995e-10 0)
(1.6299e-10 2.26897e-10 0)
(1.65277e-10 2.28287e-10 0)
(1.66791e-10 2.29069e-10 0)
(1.67573e-10 2.29399e-10 0)
(1.67889e-10 2.29485e-10 0)
(1.68039e-10 2.29481e-10 0)
(1.68203e-10 2.29464e-10 0)
(1.77307e-10 2.31108e-10 0)
(0.0559799 4.0421e-05 0)
(0.0574693 -0.000467522 0)
(0.0565796 -0.000560718 0)
(0.0580296 -0.000743001 0)
(0.0608404 -0.000896321 0)
(0.0642801 -0.0010407 0)
(0.0679282 -0.00117637 0)
(0.0715504 -0.00130299 0)
(0.0750265 -0.00142043 0)
(0.0783041 -0.00152869 0)
(0.0813692 -0.00162811 0)
(0.0842268 -0.00171954 0)
(0.0868905 -0.00180356 0)
(0.0893765 -0.00188079 0)
(0.0917013 -0.00195169 0)
(0.0938795 -0.00201663 0)
(0.095924 -0.00207596 0)
(0.0978458 -0.00213015 0)
(0.0996533 -0.0021798 0)
(0.101353 -0.00222575 0)
(0.10295 -0.00226906 0)
(0.104446 -0.00231098 0)
(0.105844 -0.0023529 0)
(0.107142 -0.00239625 0)
(0.108342 -0.00244239 0)
(0.10944 -0.00249254 0)
(0.110435 -0.00254767 0)
(0.111325 -0.00260852 0)
(0.112109 -0.00267553 0)
(0.112783 -0.00274886 0)
(0.113346 -0.00282841 0)
(0.113796 -0.00291387 0)
(0.114131 -0.00300472 0)
(0.114351 -0.0031003 0)
(0.114453 -0.00319982 0)
(0.114438 -0.00330244 0)
(0.114306 -0.00340721 0)
(0.114056 -0.00351312 0)
(0.113692 -0.00361894 0)
(0.113213 -0.00372305 0)
(0.112623 -0.00382309 0)
(0.111925 -0.00391567 0)
(0.111125 -0.00399604 0)
(0.110228 -0.00405827 0)
(0.109243 -0.00409574 0)
(0.10818 -0.00410179 0)
(0.10705 -0.00407057 0)
(0.105869 -0.00399856 0)
(0.104651 -0.00388665 0)
(0.10341 -0.00374085 0)
(0.102161 -0.00357012 0)
(0.100917 -0.00338161 0)
(0.0996908 -0.0031773 0)
(0.0984839 -0.00295526 0)
(0.0973 -0.00271471 0)
(0.0961558 -0.00245782 0)
(0.0950677 -0.00219107 0)
(0.0940472 -0.00192678 0)
(0.0931016 -0.00167476 0)
(0.0922351 -0.00144032 0)
(0.0914475 -0.00122828 0)
(0.0907348 -0.0010407 0)
(0.0900921 -0.000876574 0)
(0.0895132 -0.000734097 0)
(0.0889916 -0.000610692 0)
(0.0885188 -0.000504959 0)
(0.088086 -0.000415265 0)
(0.0876884 -0.000338134 0)
(0.0873186 -0.000272437 0)
(0.0869677 -0.000217763 0)
(0.0866333 -0.000171481 0)
(0.0863119 -0.000132017 0)
(0.0859968 -9.9293e-05 0)
(0.0856822 -7.30783e-05 0)
(0.0853674 -5.15914e-05 0)
(0.0850512 -3.33532e-05 0)
(0.0847265 -1.93177e-05 0)
(0.0843928 -8.33056e-06 0)
(0.0840531 1.76841e-06 0)
(0.0837049 1.08719e-05 0)
(0.0833494 1.98117e-05 0)
(0.0829888 2.9545e-05 0)
(0.0826276 4.12997e-05 0)
(0.0822632 5.37385e-05 0)
(0.0818941 6.27286e-05 0)
(0.0815378 7.1879e-05 0)
(0.0812408 9.9952e-05 0)
(0.0809902 0.00013736 0)
(0.0806367 5.1408e-05 0)
(0.0345326 0.00545515 0)
(0.0310095 -0.0130011 0)
(0.028618 0.0233295 0)
(0.028563 0.0424359 0)
(0.0274658 0.000189827 0)
(0.0263367 1.01748e-05 0)
(0.0253864 2.79473e-05 0)
(0.0245264 2.76196e-05 0)
(0.0237703 2.80126e-05 0)
(0.0231253 2.7445e-05 0)
(0.0226051 2.59175e-05 0)
(0.0222324 2.31609e-05 0)
(0.0220437 1.87199e-05 0)
(0.0220974 1.17514e-05 0)
(0.0224843 -5.17921e-07 0)
(0.0233177 -3.43715e-05 0)
(0.0267328 -6.56363e-05 0)
(0.0299781 -4.66224e-05 0)
(0.0305556 -7.04285e-06 0)
(0.0305725 3.96539e-07 0)
(0.0305728 6.05996e-07 0)
(0.0305728 5.98267e-07 0)
(0.0305728 5.99416e-07 0)
(0.0305728 5.98688e-07 0)
(0.0305728 5.99481e-07 0)
(0.0305728 5.98685e-07 0)
(0.0305728 5.99547e-07 0)
(0.0305728 5.9867e-07 0)
(0.0305728 5.99607e-07 0)
(0.0305728 5.98648e-07 0)
(0.0305728 5.99665e-07 0)
(0.0305728 5.9862e-07 0)
(0.0305728 5.99726e-07 0)
(0.0305728 5.98639e-07 0)
(0.0305728 5.9964e-07 0)
(0.0305728 5.98686e-07 0)
(0.0305728 5.99739e-07 0)
(0.0305728 5.98612e-07 0)
(0.0305728 5.99796e-07 0)
(0.0305728 5.98568e-07 0)
(0.0305728 5.99853e-07 0)
(0.0305728 5.98518e-07 0)
(0.0305728 5.9991e-07 0)
(0.0305728 5.98465e-07 0)
(0.0305728 5.99972e-07 0)
(0.0305728 5.98409e-07 0)
(0.0305728 6.00035e-07 0)
(0.0305728 5.98346e-07 0)
(0.0305728 6.00097e-07 0)
(0.0305728 5.98278e-07 0)
(0.0305728 6.00154e-07 0)
(0.0305728 5.98193e-07 0)
(0.0305728 6.00215e-07 0)
(0.0305728 5.9811e-07 0)
(0.0305728 6.00273e-07 0)
(0.0305728 5.98016e-07 0)
(0.0305728 6.0033e-07 0)
(0.0305728 5.97916e-07 0)
(0.0305728 6.00388e-07 0)
(0.0305728 5.97818e-07 0)
(0.0305728 6.00469e-07 0)
(0.0305728 5.97737e-07 0)
(0.0305728 6.0056e-07 0)
(0.0305728 5.97651e-07 0)
(0.0305728 6.00656e-07 0)
(0.0305728 5.97563e-07 0)
(0.0305728 6.00754e-07 0)
(0.0305728 5.97471e-07 0)
(0.0305728 6.00856e-07 0)
(0.0305728 5.97378e-07 0)
(0.0305728 6.00958e-07 0)
(0.0305728 5.97282e-07 0)
(0.0305728 6.01073e-07 0)
(0.0305728 5.97441e-07 0)
(0.0305728 6.00867e-07 0)
(0.0305728 5.97428e-07 0)
(0.0305728 6.00887e-07 0)
(0.0305728 5.97418e-07 0)
(0.0305728 6.00909e-07 0)
(0.0305728 5.97407e-07 0)
(0.0305728 6.0093e-07 0)
(0.0305728 5.97395e-07 0)
(0.0305728 6.00951e-07 0)
(0.0305728 5.97383e-07 0)
(0.0305728 6.00973e-07 0)
(0.0305728 5.97375e-07 0)
(0.0305728 6.00996e-07 0)
(0.0305728 5.97368e-07 0)
(0.0305728 6.01022e-07 0)
(0.0305728 5.97367e-07 0)
(0.0305728 6.01059e-07 0)
(0.0305728 5.97417e-07 0)
(0.0305728 6.01205e-07 0)
(0.0305728 5.97567e-07 0)
(0.0305728 6.01379e-07 0)
(0.0305728 5.97708e-07 0)
(0.0305728 6.01538e-07 0)
(0.0305728 5.97822e-07 0)
(0.0305728 6.01652e-07 0)
(0.0305728 5.97907e-07 0)
(0.0305728 6.01772e-07 0)
(0.0305728 5.9799e-07 0)
(0.0305728 6.01835e-07 0)
(0.0305728 5.97997e-07 0)
(0.0305728 6.01842e-07 0)
(0.0305728 5.97948e-07 0)
(0.0305728 6.01772e-07 0)
(0.0305728 5.97857e-07 0)
(0.0305728 6.01737e-07 0)
(0.0305728 5.97814e-07 0)
(0.0305728 6.01692e-07 0)
(0.0305728 5.97733e-07 0)
(0.0305728 6.01631e-07 0)
(0.0305728 5.97683e-07 0)
(0.0305728 6.01661e-07 0)
(0.0305728 5.97689e-07 0)
(0.0305728 6.01605e-07 0)
(0.0305728 5.97726e-07 0)
(0.0305728 6.02053e-07 0)
(0.0305728 5.92373e-07 0)
(0.0305726 -2.26629e-07 0)
(0.0305667 -6.53317e-05 0)
(0.0304262 -7.02145e-05 0)
)
;

boundaryField
{
    inandouthalf11
    {
        type            cyclic;
    }
    inandouthalf12
    {
        type            cyclic;
    }
    inandouthalf21
    {
        type            cyclic;
    }
    inandouthalf22
    {
        type            cyclic;
    }
    inandouthalf31
    {
        type            cyclic;
    }
    inandouthalf32
    {
        type            cyclic;
    }
    inandouthalf41
    {
        type            cyclic;
    }
    inandouthalf42
    {
        type            cyclic;
    }
    top
    {
        type            symmetryPlane;
    }
    walls
    {
        type            calculated;
        value           uniform (0 0 0);
    }
    frontAndBackPlanes
    {
        type            empty;
    }
}


// ************************************************************************* //
