/*--------------------------------*- C++ -*----------------------------------*\
| =========                 |                                                 |
| \\      /  F ield         | OpenFOAM: The Open Source CFD Toolbox           |
|  \\    /   O peration     | Version:  2.4.x                                 |
|   \\  /    A nd           | Web:      www.OpenFOAM.org                      |
|    \\/     M anipulation  |                                                 |
\*---------------------------------------------------------------------------*/
FoamFile
{
    version     2.0;
    format      ascii;
    class       volVectorField;
    location    "5.9";
    object      gradPf;
}
// * * * * * * * * * * * * * * * * * * * * * * * * * * * * * * * * * * * * * //

dimensions      [0 1 -2 0 0 0 0];

internalField   nonuniform List<vector> 
360
(
(0 55.9582 0)
(0 66.3265 0)
(0 4.17689 0)
(0 -10.4452 0)
(-3.34586e-14 -5.96574 0)
(-3.34598e-14 -3.44313 0)
(-3.34609e-14 -3.57456 0)
(0 -3.84934 0)
(-1.67317e-14 -3.93338 0)
(0 -4.02214 0)
(-3.34661e-14 -4.03894 0)
(0 -4.01763 0)
(-3.34688e-14 -4.00099 0)
(0 -3.98694 0)
(0 -3.99798 0)
(0 -4.01591 0)
(0 -4.02119 0)
(-3.34758e-14 -4.01741 0)
(0 -4.03325 0)
(0 -4.02713 0)
(0 -4.02255 0)
(-3.34816e-14 -4.04005 0)
(0 -4.03722 0)
(0 -4.03975 0)
(0 -4.04121 0)
(-1.67438e-14 -4.03122 0)
(0 -4.0394 0)
(0 -4.04944 0)
(0 -4.03952 0)
(0 -4.03689 0)
(0 -4.0597 0)
(0 -4.0487 0)
(0 -4.07054 0)
(0 -4.09413 0)
(0 -4.08896 0)
(3.35038e-14 -4.10383 0)
(0 -4.11081 0)
(0 -4.1409 0)
(0 -4.097 0)
(0 -4.0803 0)
(0 -4.07721 0)
(0 -3.98562 0)
(3.3516e-14 -3.95583 0)
(0 -3.92092 0)
(0 -3.86162 0)
(0 -3.85837 0)
(0 -3.83086 0)
(0 -3.86585 0)
(0 -4.01503 0)
(0 -4.14007 0)
(3.35306e-14 -4.33889 0)
(0 -4.64538 0)
(0 -4.99472 0)
(0 -5.32555 0)
(0 -5.55509 0)
(0 -5.47347 0)
(0 -5.00186 0)
(0 -4.28837 0)
(0 -3.51153 0)
(0 -3.02719 0)
(0 -2.78747 0)
(0 -2.70738 0)
(0 -2.72906 0)
(0 -2.74875 0)
(0 -2.78997 0)
(0 -2.84665 0)
(0 -2.92453 0)
(0 -2.99411 0)
(0 -3.05709 0)
(0 -3.16052 0)
(0 -3.27842 0)
(0 -3.32299 0)
(0 -3.38555 0)
(0 -3.45927 0)
(0 -3.50586 0)
(0 -3.53671 0)
(0 -3.55279 0)
(0 -3.59384 0)
(0 -3.63665 0)
(0 -3.67322 0)
(0 -3.71807 0)
(0 -3.77404 0)
(0 -3.82203 0)
(0 -3.86613 0)
(0 -3.90462 0)
(0 -3.93748 0)
(0 -3.96351 0)
(0 -3.98297 0)
(0 -4.00451 0)
(0 -4.02665 0)
(0 -4.04839 0)
(0 -4.07318 0)
(0 -4.09974 0)
(0 -4.12487 0)
(0 -4.14875 0)
(0 -4.17085 0)
(0 -4.19066 0)
(0 -4.20851 0)
(0 -4.2252 0)
(0 -4.24099 0)
(0 -4.25602 0)
(0 -4.27065 0)
(0 -4.28475 0)
(0 -4.29805 0)
(0 -4.31057 0)
(0 -4.3223 0)
(0 -4.33324 0)
(0 -4.34344 0)
(0 -4.35294 0)
(0 -4.36168 0)
(0 -4.3696 0)
(0 -4.37662 0)
(0 -4.38262 0)
(0 -4.3875 0)
(0 -4.39113 0)
(0 -4.3934 0)
(0 -4.39419 0)
(0 -4.39341 0)
(0 -4.39096 0)
(0 -4.38672 0)
(0 -4.38053 0)
(0 -4.37214 0)
(0 -4.36132 0)
(0 -4.34804 0)
(0 -4.33273 0)
(0 -4.31654 0)
(0 -4.30104 0)
(0 -4.28719 0)
(0 -4.27372 0)
(0 -4.2567 0)
(0 -4.23322 0)
(0 -4.20979 0)
(0 -4.20445 0)
(0 -4.22488 0)
(0 -4.2418 0)
(0 -4.22047 0)
(0 -4.19453 0)
(0 -4.26873 0)
(0 -4.48603 0)
(0 -4.61576 0)
(0 -4.32056 0)
(0 -4.22301 0)
(0 -4.76793 0)
(0 -5.32364 0)
(0 -6.80085 0)
(0 -11.5846 0)
(0 -11.7028 0)
(0 -5.40499 0)
(0 -2.10934 0)
(0 0 0)
(0 0 0)
(0 0 0)
(0 0 0)
(0 0 0)
(0 0 0)
(0 0 0)
(0 0 0)
(0 0 0)
(0 0 0)
(0 0 0)
(0 0 0)
(0 0 0)
(0 0 0)
(0 0 0)
(0 0 0)
(0 0 0)
(0 0 0)
(0 0 0)
(0 0 0)
(0 0 0)
(0 0 0)
(0 0 0)
(0 0 0)
(0 0 0)
(0 0 0)
(0 0 0)
(0 0 0)
(0 0 0)
(0 0 0)
(0 0 0)
(0 0 0)
(0 0 0)
(0 0 0)
(0 0 0)
(0 0 0)
(0 0 0)
(0 0 0)
(0 0 0)
(0 0 0)
(0 0 0)
(0 0 0)
(0 0 0)
(0 0 0)
(0 0 0)
(0 0 0)
(0 0 0)
(0 0 0)
(0 0 0)
(0 0 0)
(0 0 0)
(0 0 0)
(0 0 0)
(0 0 0)
(0 0 0)
(0 0 0)
(0 0 0)
(0 0 0)
(0 0 0)
(0 0 0)
(0 0 0)
(0 0 0)
(0 0 0)
(0 0 0)
(0 0 0)
(0 0 0)
(0 0 0)
(0 0 0)
(0 0 0)
(0 0 0)
(0 0 0)
(0 0 0)
(0 0 0)
(0 0 0)
(0 0 0)
(0 0 0)
(0 0 0)
(0 0 0)
(0 0 0)
(0 0 0)
(0 0 0)
(0 0 0)
(0 0 0)
(0 0 0)
(0 0 0)
(0 0 0)
(0 0 0)
(0 0 0)
(0 0 0)
(0 0 0)
(0 0 0)
(0 0 0)
(0 0 0)
(0 0 0)
(0 0 0)
(0 0 0)
(0 0 0)
(0 0 0)
(0 0 0)
(0 0 0)
(0 0 0)
(0 0 0)
(0 0 0)
(0 0 0)
(0 0 0)
(0 0 0)
(0 0 0)
(0 0 0)
(0 0 0)
(0 0 0)
(0 0 0)
(0 0 0)
(0 0 0)
(0 0 0)
(0 0 0)
(0 0 0)
(0 0 0)
(0 0 0)
(0 0 0)
(0 0 0)
(0 0 0)
(0 0 0)
(0 0 0)
(0 0 0)
(0 0 0)
(0 0 0)
(0 0 0)
(0 0 0)
(0 0 0)
(0 0 0)
(0 0 0)
(0 0 0)
(0 0 0)
(0 0 0)
(0 0 0)
(0 0 0)
(0 0 0)
(0 0 0)
(0 0 0)
(0 0 0)
(0 0 0)
(0 0 0)
(0 0 0)
(0 0 0)
(0 0 0)
(0 0 0)
(0 0 0)
(0 0 0)
(0 0 0)
(0 0 0)
(0 0 0)
(0 0 0)
(0 0 0)
(0 0 0)
(0 0 0)
(0 0 0)
(0 0 0)
(0 0 0)
(0 0 0)
(0 0 0)
(0 0 0)
(0 0 0)
(0 0 0)
(0 0 0)
(0 0 0)
(0 0 0)
(0 0 0)
(0 0 0)
(0 0 0)
(0 0 0)
(0 0 0)
(0 0 0)
(0 0 0)
(0 0 0)
(0 0 0)
(0 0 0)
(0 0 0)
(0 0 0)
(0 0 0)
(0 0 0)
(0 0 0)
(0 0 0)
(0 0 0)
(0 0 0)
(0 0 0)
(0 0 0)
(0 0 0)
(0 0 0)
(0 0 0)
(0 0 0)
(0 0 0)
(0 0 0)
(0 0 0)
(0 0 0)
(0 0 0)
(0 0 0)
(0 0 0)
(0 0 0)
(0 0 0)
(0 0 0)
(0 0 0)
(0 0 0)
(0 0 0)
(0 0 0)
(0 0 0)
(0 0 0)
(0 0 0)
(0 0 0)
(0 0 0)
(0 0 0)
(0 0 0)
)
;

boundaryField
{
    inandouthalf11
    {
        type            cyclic;
    }
    inandouthalf12
    {
        type            cyclic;
    }
    inandouthalf21
    {
        type            cyclic;
    }
    inandouthalf22
    {
        type            cyclic;
    }
    inandouthalf31
    {
        type            cyclic;
    }
    inandouthalf32
    {
        type            cyclic;
    }
    inandouthalf41
    {
        type            cyclic;
    }
    inandouthalf42
    {
        type            cyclic;
    }
    top
    {
        type            symmetryPlane;
    }
    walls
    {
        type            calculated;
        value           uniform (0 0 0);
    }
    frontAndBackPlanes
    {
        type            empty;
    }
}


// ************************************************************************* //
