/*--------------------------------*- C++ -*----------------------------------*\
| =========                 |                                                 |
| \\      /  F ield         | OpenFOAM: The Open Source CFD Toolbox           |
|  \\    /   O peration     | Version:  2.4.x                                 |
|   \\  /    A nd           | Web:      www.OpenFOAM.org                      |
|    \\/     M anipulation  |                                                 |
\*---------------------------------------------------------------------------*/
FoamFile
{
    version     2.0;
    format      ascii;
    class       volScalarField;
    location    "5.9";
    object      k;
}
// * * * * * * * * * * * * * * * * * * * * * * * * * * * * * * * * * * * * * //

dimensions      [0 2 -2 0 0 0 0];

internalField   nonuniform List<scalar> 
360
(
1e-20
1e-20
1e-20
1e-20
1e-20
1e-20
1e-20
1e-20
1e-20
1e-20
1e-20
1e-20
1e-20
1e-20
1e-20
1e-20
1e-20
1e-20
1e-20
1e-20
1e-20
1e-20
1e-20
1e-20
1e-20
1e-20
1e-20
1e-20
1e-20
1e-20
1e-20
1e-20
1e-20
1e-20
1e-20
1e-20
1e-20
1e-20
1e-20
1e-20
1e-20
1e-20
1e-20
1e-20
1e-20
1e-20
1e-20
1e-20
1e-20
1e-20
1e-20
1e-20
1e-20
1e-20
1e-20
1e-20
1e-20
1e-20
1e-20
1e-20
1e-20
1e-20
1e-20
1e-20
1e-20
1e-20
1e-20
1e-20
1e-20
1e-20
1e-20
1e-20
1e-20
1e-20
1e-20
1e-20
1e-20
1e-20
1e-20
1e-20
1e-20
1e-20
1e-20
1e-20
1e-20
1e-20
1e-20
1e-20
1e-20
1e-20
1e-20
1e-20
1e-20
1e-20
1e-20
1e-20
1e-20
1e-20
1e-20
1e-20
1e-20
1e-20
1e-20
1e-20
1e-20
1e-20
1e-20
1e-20
1e-20
1e-20
1e-20
1e-20
1e-20
1e-20
1e-20
1e-20
1e-20
1e-20
1e-20
1e-20
1e-20
1e-20
1e-20
1e-20
1e-20
1e-20
1e-20
1e-20
1e-20
1e-20
1e-20
1e-20
1.66435e-20
7.07188e-20
3.52582e-19
1.91986e-18
1.15409e-17
7.77209e-17
5.94345e-16
5.22235e-15
5.32867e-14
6.38647e-13
9.12567e-12
1.57597e-10
3.3226e-09
8.63361e-08
2.77311e-06
9.4533e-05
0.00159773
0.00459396
0.00596235
0.00672469
0.00720455
0.00752991
0.00776198
0.00793213
0.0080575
0.00814821
0.00821082
0.00824999
0.00826921
0.00827126
0.00825838
0.00823245
0.008195
0.00814736
0.00809064
0.0080258
0.00795366
0.00787492
0.0077902
0.00770004
0.00760492
0.00750525
0.00740141
0.00729374
0.00718253
0.00706805
0.00695057
0.0068303
0.00670747
0.00658227
0.00645488
0.00632549
0.00619426
0.00606135
0.00592693
0.00579113
0.00565411
0.00551602
0.00537699
0.00523718
0.00509672
0.00495578
0.00481448
0.00467299
0.00453146
0.00439005
0.00424891
0.00410821
0.00396811
0.00382739
0.00368482
0.00354062
0.00339505
0.00324838
0.00310095
0.00295313
0.00280534
0.00265806
0.00251183
0.00236723
0.0022249
0.00208554
0.00194988
0.00181868
0.00169272
0.00157275
0.00145948
0.00135354
0.00125542
0.00116547
0.00108383
0.00101045
0.000945077
0.000887262
0.000836418
0.000791848
0.000752793
0.000718467
0.000688094
0.000660924
0.000636251
0.000613418
0.000591819
0.0005709
0.000550156
0.000529136
0.000507435
0.000484699
0.000460623
0.000434951
0.000407483
0.000378071
0.00034663
0.000313144
0.000277674
0.000240381
0.000201551
0.000161642
0.000121355
8.1786e-05
4.47914e-05
1.39517e-05
1.22637e-06
2.93309e-08
5.12824e-10
8.37662e-12
1.28835e-13
1.86741e-15
2.55304e-17
3.36615e-19
1.27709e-20
1e-20
1e-20
1e-20
1e-20
1e-20
1e-20
1e-20
1e-20
1e-20
1e-20
1e-20
1e-20
1e-20
1e-20
1e-20
1e-20
1e-20
1e-20
1e-20
1e-20
1e-20
1e-20
1e-20
1e-20
1e-20
1e-20
1e-20
1e-20
1e-20
1e-20
1e-20
1e-20
1e-20
1e-20
1e-20
1e-20
1e-20
1e-20
1e-20
1e-20
1e-20
1e-20
1e-20
1e-20
1e-20
1e-20
1e-20
1e-20
1e-20
1e-20
1e-20
1e-20
1e-20
1e-20
1e-20
1e-20
1e-20
1e-20
1e-20
1e-20
1e-20
1e-20
1e-20
1e-20
1e-20
1e-20
1e-20
1e-20
1e-20
1e-20
1e-20
1e-20
1e-20
1e-20
1e-20
1e-20
1e-20
1e-20
1e-20
1e-20
1e-20
1e-20
1e-20
1e-20
1e-20
1e-20
1e-20
1e-20
1e-20
1e-20
1e-20
1e-20
1e-20
1e-20
1e-20
1e-20
1e-20
)
;

boundaryField
{
    inandouthalf11
    {
        type            cyclic;
    }
    inandouthalf12
    {
        type            cyclic;
    }
    inandouthalf21
    {
        type            cyclic;
    }
    inandouthalf22
    {
        type            cyclic;
    }
    inandouthalf31
    {
        type            cyclic;
    }
    inandouthalf32
    {
        type            cyclic;
    }
    inandouthalf41
    {
        type            cyclic;
    }
    inandouthalf42
    {
        type            cyclic;
    }
    top
    {
        type            symmetryPlane;
    }
    walls
    {
        type            zeroGradient;
    }
    frontAndBackPlanes
    {
        type            empty;
    }
}


// ************************************************************************* //
