/*--------------------------------*- C++ -*----------------------------------*\
| =========                 |                                                 |
| \\      /  F ield         | OpenFOAM: The Open Source CFD Toolbox           |
|  \\    /   O peration     | Version:  2.4.x                                 |
|   \\  /    A nd           | Web:      www.OpenFOAM.org                      |
|    \\/     M anipulation  |                                                 |
\*---------------------------------------------------------------------------*/
FoamFile
{
    version     2.0;
    format      ascii;
    class       volScalarField;
    location    "5.9";
    object      k_0;
}
// * * * * * * * * * * * * * * * * * * * * * * * * * * * * * * * * * * * * * //

dimensions      [0 2 -2 0 0 0 0];

internalField   nonuniform List<scalar> 
360
(
1e-20
1e-20
1e-20
1e-20
1e-20
1e-20
1e-20
1e-20
1e-20
1e-20
1e-20
1e-20
1e-20
1e-20
1e-20
1e-20
1e-20
1e-20
1e-20
1e-20
1e-20
1e-20
1e-20
1e-20
1e-20
1e-20
1e-20
1e-20
1e-20
1e-20
1e-20
1e-20
1e-20
1e-20
1e-20
1e-20
1e-20
1e-20
1e-20
1e-20
1e-20
1e-20
1e-20
1e-20
1e-20
1e-20
1e-20
1e-20
1e-20
1e-20
1e-20
1e-20
1e-20
1e-20
1e-20
1e-20
1e-20
1e-20
1e-20
1e-20
1e-20
1e-20
1e-20
1e-20
1e-20
1e-20
1e-20
1e-20
1e-20
1e-20
1e-20
1e-20
1e-20
1e-20
1e-20
1e-20
1e-20
1e-20
1e-20
1e-20
1e-20
1e-20
1e-20
1e-20
1e-20
1e-20
1e-20
1e-20
1e-20
1e-20
1e-20
1e-20
1e-20
1e-20
1e-20
1e-20
1e-20
1e-20
1e-20
1e-20
1e-20
1e-20
1e-20
1e-20
1e-20
1e-20
1e-20
1e-20
1e-20
1e-20
1e-20
1e-20
1e-20
1e-20
1e-20
1e-20
1e-20
1e-20
1e-20
1e-20
1e-20
1e-20
1e-20
1e-20
1e-20
1e-20
1e-20
1e-20
1e-20
1e-20
1e-20
1e-20
1.66458e-20
7.07307e-20
3.52642e-19
1.92016e-18
1.15425e-17
7.77309e-17
5.9442e-16
5.22305e-15
5.32948e-14
6.38759e-13
9.12752e-12
1.57634e-10
3.32346e-09
8.6361e-08
2.77398e-06
9.45619e-05
0.00159804
0.00459427
0.00596263
0.00672495
0.0072048
0.00753015
0.00776221
0.00793235
0.0080577
0.00814839
0.008211
0.00825015
0.00826936
0.0082714
0.00825851
0.00823256
0.0081951
0.00814744
0.00809071
0.00802586
0.0079537
0.00787495
0.00779021
0.00770004
0.0076049
0.00750522
0.00740137
0.00729367
0.00718245
0.00706796
0.00695046
0.00683017
0.00670732
0.0065821
0.0064547
0.0063253
0.00619405
0.00606113
0.00592668
0.00579087
0.00565384
0.00551572
0.00537668
0.00523686
0.00509639
0.00495543
0.00481412
0.00467262
0.00453108
0.00438965
0.0042485
0.00410779
0.00396768
0.00382695
0.00368437
0.00354017
0.00339458
0.00324791
0.00310048
0.00295265
0.00280487
0.00265759
0.00251136
0.00236677
0.00222445
0.0020851
0.00194945
0.00181827
0.00169234
0.00157239
0.00145915
0.00135324
0.00125516
0.00116524
0.00108363
0.00101028
0.000944935
0.000887148
0.000836329
0.000791783
0.000752747
0.000718438
0.000688079
0.000660921
0.000636257
0.000613431
0.000591836
0.00057092
0.000550178
0.000529158
0.000507456
0.000484718
0.000460639
0.000434964
0.000407491
0.000378074
0.000346628
0.000313136
0.000277661
0.000240362
0.000201527
0.000161613
0.000121322
8.17512e-05
4.47572e-05
1.39272e-05
1.22214e-06
2.92041e-08
5.10538e-10
8.33841e-12
1.28234e-13
1.85852e-15
2.54064e-17
3.34985e-19
1.27524e-20
1e-20
1e-20
1e-20
1e-20
1e-20
1e-20
1e-20
1e-20
1e-20
1e-20
1e-20
1e-20
1e-20
1e-20
1e-20
1e-20
1e-20
1e-20
1e-20
1e-20
1e-20
1e-20
1e-20
1e-20
1e-20
1e-20
1e-20
1e-20
1e-20
1e-20
1e-20
1e-20
1e-20
1e-20
1e-20
1e-20
1e-20
1e-20
1e-20
1e-20
1e-20
1e-20
1e-20
1e-20
1e-20
1e-20
1e-20
1e-20
1e-20
1e-20
1e-20
1e-20
1e-20
1e-20
1e-20
1e-20
1e-20
1e-20
1e-20
1e-20
1e-20
1e-20
1e-20
1e-20
1e-20
1e-20
1e-20
1e-20
1e-20
1e-20
1e-20
1e-20
1e-20
1e-20
1e-20
1e-20
1e-20
1e-20
1e-20
1e-20
1e-20
1e-20
1e-20
1e-20
1e-20
1e-20
1e-20
1e-20
1e-20
1e-20
1e-20
1e-20
1e-20
1e-20
1e-20
1e-20
1e-20
)
;

boundaryField
{
    inandouthalf11
    {
        type            cyclic;
    }
    inandouthalf12
    {
        type            cyclic;
    }
    inandouthalf21
    {
        type            cyclic;
    }
    inandouthalf22
    {
        type            cyclic;
    }
    inandouthalf31
    {
        type            cyclic;
    }
    inandouthalf32
    {
        type            cyclic;
    }
    inandouthalf41
    {
        type            cyclic;
    }
    inandouthalf42
    {
        type            cyclic;
    }
    top
    {
        type            symmetryPlane;
    }
    walls
    {
        type            zeroGradient;
    }
    frontAndBackPlanes
    {
        type            empty;
    }
}


// ************************************************************************* //
