/*--------------------------------*- C++ -*----------------------------------*\
| =========                 |                                                 |
| \\      /  F ield         | OpenFOAM: The Open Source CFD Toolbox           |
|  \\    /   O peration     | Version:  2.4.x                                 |
|   \\  /    A nd           | Web:      www.OpenFOAM.org                      |
|    \\/     M anipulation  |                                                 |
\*---------------------------------------------------------------------------*/
FoamFile
{
    version     2.0;
    format      ascii;
    class       volScalarField;
    location    "5.9";
    object      mua;
}
// * * * * * * * * * * * * * * * * * * * * * * * * * * * * * * * * * * * * * //

dimensions      [1 -1 -1 0 0 0 0];

internalField   nonuniform List<scalar> 
360
(
824091
546217
662085
699392
668577
644699
633595
626693
620232
612776
604280
595528
587023
578953
571148
563371
555578
547849
540203
532653
525352
518159
511105
504243
497570
491092
484717
478252
471689
464943
457810
450177
442123
433518
424822
416315
408463
401716
396782
394368
394539
397584
403096
409712
415772
418567
414930
401796
376768
340314
296029
249230
206182
172215
151171
146496
165216
226847
391584
861921
2.40377e+06
8.28361e+06
3.36181e+07
1.50002e+08
6.76151e+08
2.821e+09
1.00959e+10
2.93434e+10
6.7109e+10
1.19608e+11
1.68123e+11
1.92695e+11
1.88719e+11
1.65887e+11
1.36974e+11
1.10131e+11
8.84573e+10
7.20725e+10
6.00526e+10
5.13416e+10
4.50428e+10
4.04665e+10
3.71289e+10
3.46971e+10
3.29397e+10
3.16971e+10
3.08557e+10
3.03325e+10
3.00574e+10
2.99669e+10
3.00049e+10
3.01193e+10
3.02629e+10
3.03984e+10
3.04989e+10
3.05474e+10
3.05354e+10
3.04607e+10
3.03251e+10
3.01321e+10
2.98864e+10
2.95927e+10
2.92564e+10
2.88829e+10
2.84782e+10
2.8048e+10
2.75973e+10
2.71303e+10
2.66503e+10
2.6159e+10
2.56572e+10
2.51441e+10
2.46179e+10
2.40753e+10
2.3512e+10
2.29228e+10
2.23021e+10
2.16446e+10
2.09467e+10
2.02075e+10
1.94303e+10
1.86238e+10
1.78023e+10
1.69852e+10
1.61952e+10
1.5456e+10
1.47911e+10
1.42237e+10
1.3778e+10
1.348e+10
1.33525e+10
1.34014e+10
1.35964e+10
1.38672e+10
1.41335e+10
1.43367e+10
1.44066e+10
1.42142e+10
1.37172e+10
1.33394e+10
1.41839e+10
1.79989e+10
2.78705e+10
5.33678e+10
1.17398e+11
1.47207e+11
3.89385e+09
0.0472482
0.0117351
0.00821534
0.00695965
0.00623677
0.00581909
0.00559422
0.00548849
0.00545193
0.00545248
0.00547079
0.00549579
0.00552147
0.00554475
0.00556416
0.00557915
0.00558964
0.00559577
0.0055978
0.00559601
0.0055907
0.00558216
0.00557065
0.00555639
0.00553962
0.00552053
0.00549931
0.00547612
0.00545112
0.00542446
0.00539629
0.00536672
0.0053359
0.00530394
0.00527096
0.00523709
0.00520242
0.00516707
0.00513114
0.00509473
0.00505795
0.00502088
0.00498362
0.00494624
0.00490882
0.00487144
0.00483416
0.00479703
0.0047601
0.0047234
0.00468696
0.00465078
0.00461488
0.00457924
0.0045435
0.00450729
0.00447057
0.00443328
0.00439539
0.00435679
0.00431743
0.00427719
0.00423597
0.00419367
0.00415014
0.00410528
0.00405892
0.00401091
0.00396108
0.00390925
0.00385521
0.00379872
0.00373953
0.00367733
0.00361179
0.00354252
0.00346903
0.00339079
0.0033071
0.00321716
0.0031199
0.00301399
0.00289764
0.00276837
0.00262263
0.00245495
0.00225615
0.00200857
0.00166883
0
0
0
0
0
0
0
0
0
0
0
0
0
0
0
0
0
0
0
0
0
0
0
0
0
0
0
0
0
0
0
0
0
0
0
0
0
0
0
0
0
0
0
0
0
0
0
0
0
0
0
0
0
0
0
0
0
0
0
0
0
0
0
0
0
0
0
0
0
0
0
0
0
0
0
0
0
0
0
0
0
0
0
0
0
0
0
0
0
0
0
0
0
0
0
0
0
0
0
0
0
0
0
0
0
0
0
0
0
0
0
0
0
0
0
0
0
0
0
0
0
0
0
0
)
;

boundaryField
{
    inandouthalf11
    {
        type            cyclic;
    }
    inandouthalf12
    {
        type            cyclic;
    }
    inandouthalf21
    {
        type            cyclic;
    }
    inandouthalf22
    {
        type            cyclic;
    }
    inandouthalf31
    {
        type            cyclic;
    }
    inandouthalf32
    {
        type            cyclic;
    }
    inandouthalf41
    {
        type            cyclic;
    }
    inandouthalf42
    {
        type            cyclic;
    }
    top
    {
        type            symmetryPlane;
    }
    walls
    {
        type            calculated;
        value           uniform 1e+30;
    }
    frontAndBackPlanes
    {
        type            empty;
    }
}


// ************************************************************************* //
