/*--------------------------------*- C++ -*----------------------------------*\
| =========                 |                                                 |
| \\      /  F ield         | OpenFOAM: The Open Source CFD Toolbox           |
|  \\    /   O peration     | Version:  2.4.x                                 |
|   \\  /    A nd           | Web:      www.OpenFOAM.org                      |
|    \\/     M anipulation  |                                                 |
\*---------------------------------------------------------------------------*/
FoamFile
{
    version     2.0;
    format      ascii;
    class       volScalarField;
    location    "5.9";
    object      nutb;
}
// * * * * * * * * * * * * * * * * * * * * * * * * * * * * * * * * * * * * * //

dimensions      [0 2 -1 0 0 0 0];

internalField   nonuniform List<scalar> 
360
(
9e-22
9e-22
9e-22
9e-22
9e-22
9e-22
9e-22
9e-22
9e-22
9e-22
9e-22
9e-22
9e-22
9e-22
9e-22
9e-22
9e-22
9e-22
9e-22
9e-22
9e-22
9e-22
9e-22
9e-22
9e-22
9e-22
9e-22
9e-22
9e-22
9e-22
9e-22
9e-22
9e-22
9e-22
9e-22
9e-22
9e-22
9e-22
9e-22
9e-22
9e-22
9e-22
9e-22
9e-22
9e-22
9e-22
9e-22
9e-22
9e-22
9e-22
9e-22
9e-22
9e-22
9e-22
9e-22
9e-22
9e-22
9e-22
9e-22
9e-22
9e-22
9e-22
9e-22
9e-22
9e-22
9e-22
9e-22
9e-22
9e-22
9e-22
9e-22
9e-22
9e-22
9e-22
9e-22
9e-22
9e-22
9e-22
9e-22
9e-22
9e-22
9e-22
9e-22
9e-22
9e-22
9e-22
9e-22
9e-22
9e-22
9e-22
9e-22
9e-22
9e-22
9e-22
9e-22
9e-22
9e-22
9e-22
9e-22
9e-22
9e-22
9e-22
9e-22
9e-22
9e-22
9e-22
9e-22
9e-22
9e-22
9e-22
9e-22
9e-22
9e-22
9e-22
9e-22
9e-22
9e-22
9e-22
9e-22
9e-22
9e-22
9e-22
9e-22
9e-22
9e-22
9e-22
9e-22
9e-22
9e-22
9e-22
9e-22
9e-22
1.12325e-21
4.12849e-21
1.80546e-20
8.51781e-20
4.37819e-19
2.49092e-18
1.59237e-17
1.15847e-16
9.69159e-16
9.42564e-15
1.08359e-13
1.49582e-12
2.50659e-11
5.15628e-10
1.30974e-08
3.4157e-07
4.56292e-06
1.30945e-05
2.0451e-05
2.71953e-05
3.37728e-05
4.03755e-05
4.7076e-05
5.38734e-05
6.07282e-05
6.75854e-05
7.43887e-05
8.10872e-05
8.76381e-05
9.4007e-05
0.000100167
0.000106097
0.000111783
0.000117213
0.00012238
0.000127279
0.000131907
0.000136265
0.000140351
0.000144168
0.000147719
0.000151006
0.000154033
0.000156804
0.000159325
0.000161598
0.00016363
0.000165426
0.000166991
0.000168329
0.000169447
0.000170351
0.000171045
0.000171535
0.000171827
0.000171927
0.000171841
0.000171573
0.000171132
0.000170521
0.000169749
0.00016882
0.000167743
0.000166522
0.000165165
0.000163679
0.000162071
0.000160347
0.000158517
0.000156569
0.000154485
0.000152268
0.000149924
0.000147457
0.000144875
0.000142188
0.000139408
0.000136549
0.000133629
0.00013067
0.000127697
0.000124737
0.000121824
0.000118993
0.000116283
0.000113733
0.000111383
0.000109267
0.000107414
0.00010584
0.000104549
0.000103525
0.000102733
0.000102123
0.00010163
0.000101181
0.000100704
0.000100131
9.94076e-05
9.849e-05
9.73494e-05
9.59676e-05
9.43356e-05
9.24491e-05
9.0306e-05
8.79044e-05
8.52405e-05
8.23078e-05
7.90972e-05
7.55965e-05
7.17916e-05
6.76666e-05
6.32047e-05
5.83884e-05
5.32001e-05
4.76233e-05
4.16423e-05
3.52436e-05
2.84163e-05
2.11564e-05
1.34843e-05
5.29213e-06
5.69991e-07
1.42951e-08
2.48781e-10
4.03901e-12
6.17534e-14
8.89961e-16
1.20857e-17
1.4421e-19
1.46457e-21
9e-22
9e-22
9e-22
9e-22
9e-22
9e-22
9e-22
9e-22
9e-22
9e-22
9e-22
9e-22
9e-22
9e-22
9e-22
9e-22
9e-22
9e-22
9e-22
9e-22
9e-22
9e-22
9e-22
9e-22
9e-22
9e-22
9e-22
9e-22
9e-22
9e-22
9e-22
9e-22
9e-22
9e-22
9e-22
9e-22
9e-22
9e-22
9e-22
9e-22
9e-22
9e-22
9e-22
9e-22
9e-22
9e-22
9e-22
9e-22
9e-22
9e-22
9e-22
9e-22
9e-22
9e-22
9e-22
9e-22
9e-22
9e-22
9e-22
9e-22
9e-22
9e-22
9e-22
9e-22
9e-22
9e-22
9e-22
9e-22
9e-22
9e-22
9e-22
9e-22
9e-22
9e-22
9e-22
9e-22
9e-22
9e-22
9e-22
9e-22
9e-22
9e-22
9e-22
9e-22
9e-22
9e-22
9e-22
9e-22
9e-22
9e-22
9e-22
9e-22
9e-22
9e-22
9e-22
9e-22
9e-22
)
;

boundaryField
{
    inandouthalf11
    {
        type            cyclic;
    }
    inandouthalf12
    {
        type            cyclic;
    }
    inandouthalf21
    {
        type            cyclic;
    }
    inandouthalf22
    {
        type            cyclic;
    }
    inandouthalf31
    {
        type            cyclic;
    }
    inandouthalf32
    {
        type            cyclic;
    }
    inandouthalf41
    {
        type            cyclic;
    }
    inandouthalf42
    {
        type            cyclic;
    }
    top
    {
        type            symmetryPlane;
    }
    walls
    {
        type            calculated;
        value           uniform 0;
    }
    frontAndBackPlanes
    {
        type            empty;
    }
}


// ************************************************************************* //
