/*--------------------------------*- C++ -*----------------------------------*\
| =========                 |                                                 |
| \\      /  F ield         | OpenFOAM: The Open Source CFD Toolbox           |
|  \\    /   O peration     | Version:  2.4.x                                 |
|   \\  /    A nd           | Web:      www.OpenFOAM.org                      |
|    \\/     M anipulation  |                                                 |
\*---------------------------------------------------------------------------*/
FoamFile
{
    version     2.0;
    format      ascii;
    class       volScalarField;
    location    "5.9";
    object      p;
}
// * * * * * * * * * * * * * * * * * * * * * * * * * * * * * * * * * * * * * //

dimensions      [1 -1 -2 0 0 0 0];

internalField   nonuniform List<scalar> 
360
(
4898.49
4893.58
4888.67
4883.77
4878.86
4873.95
4869.04
4864.13
4859.21
4854.3
4849.39
4844.47
4839.56
4834.64
4829.72
4824.8
4819.88
4814.96
4810.04
4805.12
4800.2
4795.27
4790.35
4785.42
4780.49
4775.56
4770.63
4765.7
4760.77
4755.84
4750.91
4745.97
4741.04
4736.1
4731.16
4726.22
4721.28
4716.34
4711.4
4706.46
4701.51
4696.57
4691.62
4686.67
4681.72
4676.77
4671.82
4666.87
4661.92
4656.96
4652.01
4647.05
4642.1
4637.14
4632.17
4627.21
4622.24
4617.27
4612.3
4607.33
4602.36
4597.39
4592.42
4587.45
4582.47
4577.5
4572.53
4567.56
4562.59
4557.61
4552.64
4547.67
4542.7
4537.73
4532.76
4527.78
4522.81
4517.84
4512.87
4507.9
4502.93
4497.96
4492.98
4488.01
4483.04
4478.07
4473.1
4468.13
4463.16
4458.19
4453.22
4448.24
4443.27
4438.3
4433.33
4428.36
4423.39
4418.42
4413.45
4408.48
4403.51
4398.54
4393.57
4388.6
4383.63
4378.66
4373.69
4368.72
4363.75
4358.78
4353.81
4348.84
4343.87
4338.9
4333.93
4328.96
4323.99
4319.02
4314.05
4309.08
4304.11
4299.14
4294.17
4289.2
4284.23
4279.26
4274.3
4269.33
4264.36
4259.39
4254.42
4249.45
4244.49
4239.52
4234.55
4229.58
4224.62
4219.65
4214.68
4209.71
4204.75
4199.78
4194.81
4189.85
4184.88
4179.92
4174.95
4169.92
4162.46
4154.09
4147.43
4141.34
4135.54
4129.93
4124.46
4119.1
4113.83
4108.64
4103.5
4098.42
4093.37
4088.36
4083.37
4078.41
4073.47
4068.54
4063.62
4058.72
4053.83
4048.95
4044.08
4039.21
4034.35
4029.49
4024.64
4019.8
4014.95
4010.12
4005.28
4000.45
3995.62
3990.79
3985.96
3981.14
3976.32
3971.5
3966.68
3961.86
3957.04
3952.23
3947.41
3942.6
3937.79
3932.97
3928.16
3923.35
3918.54
3913.72
3908.91
3904.1
3899.29
3894.43
3889.47
3884.4
3879.24
3873.96
3868.58
3863.09
3857.49
3851.77
3845.93
3839.97
3833.88
3827.67
3821.32
3814.85
3808.23
3801.48
3794.58
3787.54
3780.35
3773
3765.5
3757.84
3750.02
3742.03
3733.87
3725.55
3717.05
3708.38
3699.52
3690.49
3681.27
3671.86
3662.26
3652.46
3642.46
3632.26
3621.85
3611.24
3600.4
3589.35
3578.08
3566.57
3554.84
3542.87
3530.65
3518.19
3505.47
3492.5
3479.27
3465.76
3451.98
3437.91
3423.55
3408.88
3393.92
3378.66
3363.08
3347.19
3330.97
3314.43
3297.55
3280.33
3262.76
3244.83
3226.54
3207.87
3188.83
3169.4
3149.58
3129.35
3108.72
3087.66
3066.18
3044.26
3021.9
2999.08
2975.8
2952.05
2927.81
2903.09
2877.86
2852.12
2825.86
2799.06
2771.72
2743.82
2715.36
2686.32
2656.7
2626.47
2595.62
2564.15
2532.05
2499.29
2465.86
2431.76
2396.96
2361.46
2325.24
2288.28
2250.57
2212.1
2172.85
2132.8
2091.93
2050.24
2007.7
1964.3
1922.76
1883.52
1844.28
1805.04
1765.8
1726.56
1687.32
1648.08
1608.84
1569.6
1530.36
1491.12
1451.88
1412.64
1373.4
1334.16
1294.92
1255.68
1216.44
1177.2
1137.96
1098.72
1059.48
1020.24
981
941.76
902.52
863.28
824.04
784.8
745.56
706.32
667.08
627.84
588.6
549.36
510.12
470.88
431.64
392.4
353.16
313.92
274.68
235.44
196.2
156.96
117.72
78.48
39.24
2.24654e-07
)
;

boundaryField
{
    inandouthalf11
    {
        type            cyclic;
    }
    inandouthalf12
    {
        type            cyclic;
    }
    inandouthalf21
    {
        type            cyclic;
    }
    inandouthalf22
    {
        type            cyclic;
    }
    inandouthalf31
    {
        type            cyclic;
    }
    inandouthalf32
    {
        type            cyclic;
    }
    inandouthalf41
    {
        type            cyclic;
    }
    inandouthalf42
    {
        type            cyclic;
    }
    top
    {
        type            symmetryPlane;
    }
    walls
    {
        type            slip;
    }
    frontAndBackPlanes
    {
        type            empty;
    }
}


// ************************************************************************* //
