/*--------------------------------*- C++ -*----------------------------------*\
| =========                 |                                                 |
| \\      /  F ield         | OpenFOAM: The Open Source CFD Toolbox           |
|  \\    /   O peration     | Version:  2.4.x                                 |
|   \\  /    A nd           | Web:      www.OpenFOAM.org                      |
|    \\/     M anipulation  |                                                 |
\*---------------------------------------------------------------------------*/
FoamFile
{
    version     2.0;
    format      ascii;
    class       surfaceScalarField;
    location    "5.9";
    object      phia_0;
}
// * * * * * * * * * * * * * * * * * * * * * * * * * * * * * * * * * * * * * //

dimensions      [0 3 -1 0 0 0 0];

internalField   nonuniform List<scalar> 
359
(
-4.11443e-13
-1.07847e-12
-1.68944e-12
-2.26095e-12
-2.84112e-12
-3.43646e-12
-4.03942e-12
-4.6454e-12
-5.25332e-12
-5.86428e-12
-6.47941e-12
-7.099e-12
-7.72303e-12
-8.35112e-12
-8.98312e-12
-9.61907e-12
-1.02591e-11
-1.09033e-11
-1.15515e-11
-1.2204e-11
-1.28603e-11
-1.35206e-11
-1.41846e-11
-1.48524e-11
-1.55236e-11
-1.61983e-11
-1.68762e-11
-1.75576e-11
-1.82427e-11
-1.8932e-11
-1.96261e-11
-2.0326e-11
-2.10323e-11
-2.17465e-11
-2.24688e-11
-2.31993e-11
-2.39371e-11
-2.46803e-11
-2.54261e-11
-2.61692e-11
-2.69052e-11
-2.76288e-11
-2.83357e-11
-2.90249e-11
-2.96976e-11
-3.03595e-11
-3.10211e-11
-3.16976e-11
-3.24121e-11
-3.31952e-11
-3.40858e-11
-3.51319e-11
-3.6381e-11
-3.78574e-11
-3.95158e-11
-4.12038e-11
-4.26798e-11
-4.37416e-11
-4.43497e-11
-4.46232e-11
-4.47205e-11
-4.47485e-11
-4.47553e-11
-4.47568e-11
-4.47571e-11
-4.47572e-11
-4.47572e-11
-4.47572e-11
-4.47573e-11
-4.47573e-11
-4.47573e-11
-4.47573e-11
-4.47573e-11
-4.47573e-11
-4.47573e-11
-4.47573e-11
-4.47573e-11
-4.47573e-11
-4.47573e-11
-4.47573e-11
-4.47573e-11
-4.47573e-11
-4.47573e-11
-4.47573e-11
-4.47573e-11
-4.47573e-11
-4.47573e-11
-4.47573e-11
-4.47573e-11
-4.47573e-11
-4.47573e-11
-4.47573e-11
-4.47573e-11
-4.47573e-11
-4.47574e-11
-4.47574e-11
-4.47574e-11
-4.47574e-11
-4.47574e-11
-4.47574e-11
-4.47574e-11
-4.47574e-11
-4.47574e-11
-4.47574e-11
-4.47574e-11
-4.47574e-11
-4.47574e-11
-4.47574e-11
-4.47574e-11
-4.47574e-11
-4.47574e-11
-4.47574e-11
-4.47574e-11
-4.47574e-11
-4.47574e-11
-4.47574e-11
-4.47574e-11
-4.47575e-11
-4.47575e-11
-4.47575e-11
-4.47575e-11
-4.47575e-11
-4.47575e-11
-4.47575e-11
-4.47575e-11
-4.47575e-11
-4.47575e-11
-4.47575e-11
-4.47575e-11
-4.47575e-11
-4.47575e-11
-4.47575e-11
-4.47575e-11
-4.47575e-11
-4.47575e-11
-4.47575e-11
-4.47575e-11
-4.47575e-11
-4.47575e-11
-4.47575e-11
-4.47575e-11
-4.47575e-11
-4.47575e-11
-4.47575e-11
-4.47575e-11
-4.47575e-11
-4.47575e-11
-1.44225e-10
-6.81877e-10
-1.08184e-09
-1.37681e-09
-1.62187e-09
-1.83138e-09
-2.00681e-09
-2.14593e-09
-2.24612e-09
-2.30546e-09
-2.32312e-09
-2.2991e-09
-2.23409e-09
-2.12926e-09
-1.98598e-09
-1.80579e-09
-1.59022e-09
-1.34082e-09
-1.05902e-09
-7.46195e-10
-4.03607e-10
-3.24027e-11
3.66387e-10
7.91842e-10
1.24314e-09
1.71956e-09
2.22045e-09
2.74521e-09
3.29327e-09
3.86409e-09
4.45713e-09
5.07182e-09
5.70756e-09
6.36374e-09
7.03967e-09
7.73463e-09
8.44783e-09
9.17843e-09
9.9255e-09
1.06879e-08
1.14643e-08
1.22527e-08
1.30504e-08
1.38535e-08
1.4657e-08
1.54541e-08
1.62375e-08
1.69986e-08
1.77288e-08
1.84208e-08
1.90696e-08
1.96734e-08
2.02321e-08
2.07445e-08
2.12166e-08
2.16439e-08
2.2021e-08
2.23423e-08
2.26085e-08
2.28226e-08
2.2987e-08
2.31075e-08
2.31901e-08
2.32393e-08
2.32611e-08
2.32585e-08
2.32353e-08
2.31963e-08
2.3142e-08
2.30749e-08
2.2998e-08
2.29111e-08
2.28153e-08
2.27108e-08
2.25989e-08
2.24797e-08
2.2351e-08
2.22149e-08
2.20697e-08
2.19134e-08
2.17446e-08
2.15608e-08
2.13557e-08
2.11287e-08
2.08583e-08
2.05637e-08
2.01733e-08
1.98028e-08
1.84834e-08
8.04549e-09
5.27019e-09
7.28691e-09
-5.41523e-08
-1.4404e-07
-1.58376e-07
-1.58321e-07
-1.58333e-07
-1.58338e-07
-1.58343e-07
-1.58347e-07
-1.5835e-07
-1.58351e-07
-1.58349e-07
-1.58342e-07
-1.58328e-07
-1.58302e-07
-1.58235e-07
-1.58201e-07
-1.582e-07
-1.582e-07
-1.582e-07
-1.582e-07
-1.582e-07
-1.582e-07
-1.582e-07
-1.582e-07
-1.582e-07
-1.582e-07
-1.582e-07
-1.582e-07
-1.582e-07
-1.582e-07
-1.582e-07
-1.582e-07
-1.582e-07
-1.582e-07
-1.582e-07
-1.582e-07
-1.582e-07
-1.582e-07
-1.582e-07
-1.582e-07
-1.582e-07
-1.582e-07
-1.582e-07
-1.582e-07
-1.582e-07
-1.582e-07
-1.582e-07
-1.582e-07
-1.582e-07
-1.582e-07
-1.582e-07
-1.582e-07
-1.582e-07
-1.582e-07
-1.582e-07
-1.582e-07
-1.582e-07
-1.582e-07
-1.582e-07
-1.582e-07
-1.582e-07
-1.582e-07
-1.582e-07
-1.582e-07
-1.582e-07
-1.582e-07
-1.582e-07
-1.582e-07
-1.582e-07
-1.582e-07
-1.582e-07
-1.582e-07
-1.582e-07
-1.582e-07
-1.582e-07
-1.582e-07
-1.582e-07
-1.582e-07
-1.582e-07
-1.582e-07
-1.582e-07
-1.582e-07
-1.582e-07
-1.582e-07
-1.582e-07
-1.582e-07
-1.582e-07
-1.582e-07
-1.582e-07
-1.582e-07
-1.582e-07
-1.582e-07
-1.582e-07
-1.582e-07
-1.582e-07
-1.582e-07
-1.582e-07
-1.582e-07
-1.582e-07
-1.582e-07
-1.582e-07
-1.582e-07
-1.582e-07
-1.582e-07
-1.582e-07
-1.582e-07
-1.582e-07
-1.582e-07
-1.582e-07
-1.582e-07
-1.582e-07
-1.582e-07
-1.582e-07
-1.582e-07
-1.582e-07
-1.582e-07
-1.582e-07
-1.58182e-07
-1.57477e-07
-1.32413e-07
)
;

boundaryField
{
    inandouthalf11
    {
        type            cyclic;
        value           nonuniform List<scalar> 
100
(
1.00509e-38
2.93485e-14
6.26478e-14
9.22086e-14
1.21635e-13
1.52292e-13
1.83792e-13
2.15743e-13
2.48037e-13
2.80694e-13
3.13775e-13
3.47327e-13
3.81362e-13
4.15873e-13
4.5085e-13
4.86295e-13
5.2222e-13
5.58635e-13
5.95548e-13
6.32964e-13
6.70884e-13
7.09309e-13
7.48241e-13
7.8768e-13
8.27623e-13
8.68068e-13
9.09013e-13
9.50471e-13
9.92461e-13
1.03501e-12
1.07816e-12
1.12197e-12
1.1665e-12
1.21184e-12
1.25804e-12
1.30513e-12
1.35311e-12
1.40189e-12
1.45133e-12
1.50117e-12
1.55109e-12
1.60074e-12
1.6498e-12
1.69807e-12
1.74552e-12
1.79241e-12
1.83928e-12
1.88705e-12
1.93708e-12
1.99133e-12
2.05237e-12
2.12351e-12
2.20856e-12
2.31076e-12
2.43018e-12
2.55969e-12
2.68316e-12
2.78114e-12
2.84313e-12
2.87365e-12
2.88534e-12
2.88891e-12
2.88982e-12
2.89002e-12
2.89007e-12
2.89008e-12
2.89008e-12
2.89008e-12
2.89008e-12
2.89008e-12
2.89008e-12
2.89008e-12
2.89008e-12
2.89008e-12
2.89008e-12
2.89008e-12
2.89008e-12
2.89008e-12
2.89008e-12
2.89009e-12
2.89009e-12
2.89009e-12
2.89009e-12
2.89009e-12
2.89009e-12
2.89009e-12
2.89009e-12
2.89009e-12
2.89009e-12
2.89009e-12
2.89009e-12
2.89009e-12
2.89009e-12
2.89009e-12
2.89009e-12
2.89009e-12
2.89009e-12
2.89009e-12
2.8901e-12
2.8901e-12
)
;
    }
    inandouthalf12
    {
        type            cyclic;
        value           nonuniform List<scalar> 
100
(
-1.00509e-38
-2.93485e-14
-6.26478e-14
-9.22086e-14
-1.21635e-13
-1.52292e-13
-1.83792e-13
-2.15743e-13
-2.48037e-13
-2.80694e-13
-3.13775e-13
-3.47327e-13
-3.81362e-13
-4.15873e-13
-4.5085e-13
-4.86295e-13
-5.2222e-13
-5.58635e-13
-5.95548e-13
-6.32964e-13
-6.70884e-13
-7.09309e-13
-7.48241e-13
-7.8768e-13
-8.27623e-13
-8.68068e-13
-9.09013e-13
-9.50471e-13
-9.92461e-13
-1.03501e-12
-1.07816e-12
-1.12197e-12
-1.1665e-12
-1.21184e-12
-1.25804e-12
-1.30513e-12
-1.35311e-12
-1.40189e-12
-1.45133e-12
-1.50117e-12
-1.55109e-12
-1.60074e-12
-1.6498e-12
-1.69807e-12
-1.74552e-12
-1.79241e-12
-1.83928e-12
-1.88705e-12
-1.93708e-12
-1.99133e-12
-2.05237e-12
-2.12351e-12
-2.20856e-12
-2.31076e-12
-2.43018e-12
-2.55969e-12
-2.68316e-12
-2.78114e-12
-2.84313e-12
-2.87365e-12
-2.88534e-12
-2.88891e-12
-2.88982e-12
-2.89002e-12
-2.89007e-12
-2.89008e-12
-2.89008e-12
-2.89008e-12
-2.89008e-12
-2.89008e-12
-2.89008e-12
-2.89008e-12
-2.89008e-12
-2.89008e-12
-2.89008e-12
-2.89008e-12
-2.89008e-12
-2.89008e-12
-2.89008e-12
-2.89009e-12
-2.89009e-12
-2.89009e-12
-2.89009e-12
-2.89009e-12
-2.89009e-12
-2.89009e-12
-2.89009e-12
-2.89009e-12
-2.89009e-12
-2.89009e-12
-2.89009e-12
-2.89009e-12
-2.89009e-12
-2.89009e-12
-2.89009e-12
-2.89009e-12
-2.89009e-12
-2.89009e-12
-2.8901e-12
-2.8901e-12
)
;
    }
    inandouthalf21
    {
        type            cyclic;
        value           nonuniform List<scalar> 
100
(
2.8901e-12
2.8901e-12
2.8901e-12
2.8901e-12
2.8901e-12
2.8901e-12
2.8901e-12
2.8901e-12
2.8901e-12
2.8901e-12
2.8901e-12
2.8901e-12
2.8901e-12
2.8901e-12
2.8901e-12
2.8901e-12
2.8901e-12
2.89011e-12
2.89011e-12
2.89011e-12
2.89011e-12
2.89011e-12
2.89011e-12
2.89011e-12
2.89011e-12
2.89011e-12
2.89011e-12
2.89011e-12
2.89011e-12
2.89011e-12
2.89011e-12
2.89011e-12
2.89012e-12
2.89012e-12
2.89012e-12
2.89012e-12
2.89012e-12
2.89012e-12
2.89012e-12
2.89012e-12
2.89012e-12
2.89012e-12
2.89012e-12
2.89012e-12
2.89012e-12
2.89012e-12
2.89012e-12
2.89012e-12
5.21272e-08
1.50416e-07
2.27134e-07
2.87506e-07
3.36389e-07
3.76909e-07
4.11149e-07
4.40572e-07
4.66231e-07
4.88906e-07
5.09178e-07
5.27483e-07
5.44159e-07
5.59464e-07
5.73603e-07
5.86737e-07
5.98996e-07
6.10485e-07
6.2129e-07
6.31483e-07
6.41123e-07
6.5026e-07
6.58936e-07
6.67186e-07
6.75041e-07
6.82527e-07
6.89666e-07
6.96478e-07
7.02981e-07
7.09189e-07
7.15114e-07
7.20769e-07
7.26164e-07
7.31308e-07
7.36209e-07
7.40875e-07
7.45313e-07
7.49529e-07
7.53529e-07
7.57318e-07
7.60902e-07
7.64286e-07
7.67475e-07
7.70475e-07
7.73289e-07
7.75924e-07
7.78386e-07
7.8068e-07
7.82814e-07
7.84793e-07
7.86627e-07
7.88321e-07
)
;
    }
    inandouthalf22
    {
        type            cyclic;
        value           nonuniform List<scalar> 
100
(
-2.8901e-12
-2.8901e-12
-2.8901e-12
-2.8901e-12
-2.8901e-12
-2.8901e-12
-2.8901e-12
-2.8901e-12
-2.8901e-12
-2.8901e-12
-2.8901e-12
-2.8901e-12
-2.8901e-12
-2.8901e-12
-2.8901e-12
-2.8901e-12
-2.8901e-12
-2.89011e-12
-2.89011e-12
-2.89011e-12
-2.89011e-12
-2.89011e-12
-2.89011e-12
-2.89011e-12
-2.89011e-12
-2.89011e-12
-2.89011e-12
-2.89011e-12
-2.89011e-12
-2.89011e-12
-2.89011e-12
-2.89011e-12
-2.89012e-12
-2.89012e-12
-2.89012e-12
-2.89012e-12
-2.89012e-12
-2.89012e-12
-2.89012e-12
-2.89012e-12
-2.89012e-12
-2.89012e-12
-2.89012e-12
-2.89012e-12
-2.89012e-12
-2.89012e-12
-2.89012e-12
-2.89012e-12
-5.21272e-08
-1.50416e-07
-2.27134e-07
-2.87506e-07
-3.36389e-07
-3.76909e-07
-4.11149e-07
-4.40572e-07
-4.66231e-07
-4.88906e-07
-5.09178e-07
-5.27483e-07
-5.44159e-07
-5.59464e-07
-5.73603e-07
-5.86737e-07
-5.98996e-07
-6.10485e-07
-6.2129e-07
-6.31483e-07
-6.41123e-07
-6.5026e-07
-6.58936e-07
-6.67186e-07
-6.75041e-07
-6.82527e-07
-6.89666e-07
-6.96478e-07
-7.02981e-07
-7.09189e-07
-7.15114e-07
-7.20769e-07
-7.26164e-07
-7.31308e-07
-7.36209e-07
-7.40875e-07
-7.45313e-07
-7.49529e-07
-7.53529e-07
-7.57318e-07
-7.60902e-07
-7.64286e-07
-7.67475e-07
-7.70475e-07
-7.73289e-07
-7.75924e-07
-7.78386e-07
-7.8068e-07
-7.82814e-07
-7.84793e-07
-7.86627e-07
-7.88321e-07
)
;
    }
    inandouthalf31
    {
        type            cyclic;
        value           nonuniform List<scalar> 
110
(
7.89886e-07
8.07402e-07
8.25208e-07
8.43312e-07
8.6172e-07
8.80441e-07
8.99488e-07
9.1887e-07
9.386e-07
9.58691e-07
9.79157e-07
1.00001e-06
1.02126e-06
1.04293e-06
1.06503e-06
1.08757e-06
1.11057e-06
1.13403e-06
1.15797e-06
1.18241e-06
1.20736e-06
1.23283e-06
1.25884e-06
1.28539e-06
1.3125e-06
1.34019e-06
1.36846e-06
1.39733e-06
1.42681e-06
1.4569e-06
1.48763e-06
1.519e-06
1.55102e-06
1.58368e-06
1.61698e-06
1.65096e-06
1.686e-06
1.90346e-06
1.94277e-06
1.97872e-06
2.01468e-06
2.05226e-06
2.08957e-06
2.1279e-06
2.16676e-06
2.20626e-06
2.24643e-06
2.28731e-06
2.32897e-06
2.37148e-06
2.41495e-06
2.45952e-06
2.50536e-06
2.55324e-06
2.60402e-06
2.65678e-06
2.71071e-06
2.76573e-06
2.82186e-06
2.87914e-06
2.93758e-06
2.9972e-06
3.05804e-06
3.12011e-06
3.18343e-06
3.24805e-06
3.31398e-06
3.38124e-06
3.44987e-06
3.51989e-06
3.59134e-06
3.66423e-06
3.73861e-06
3.81449e-06
3.89192e-06
3.97091e-06
4.05151e-06
4.13375e-06
4.21765e-06
4.30326e-06
4.3906e-06
4.47972e-06
4.57064e-06
4.66342e-06
4.75807e-06
4.85465e-06
4.95318e-06
5.05372e-06
5.1563e-06
5.26096e-06
5.36774e-06
5.47669e-06
5.58785e-06
5.70127e-06
5.81699e-06
5.93506e-06
6.05553e-06
6.17844e-06
6.30384e-06
6.4318e-06
6.56234e-06
6.69554e-06
6.83144e-06
6.9701e-06
7.11158e-06
7.25592e-06
7.4032e-06
7.55347e-06
7.70678e-06
7.86321e-06
)
;
    }
    inandouthalf32
    {
        type            cyclic;
        value           nonuniform List<scalar> 
110
(
-7.89886e-07
-8.07402e-07
-8.25208e-07
-8.43312e-07
-8.6172e-07
-8.80441e-07
-8.99488e-07
-9.1887e-07
-9.386e-07
-9.58691e-07
-9.79157e-07
-1.00001e-06
-1.02126e-06
-1.04293e-06
-1.06503e-06
-1.08757e-06
-1.11057e-06
-1.13403e-06
-1.15797e-06
-1.18241e-06
-1.20736e-06
-1.23283e-06
-1.25884e-06
-1.28539e-06
-1.3125e-06
-1.34019e-06
-1.36846e-06
-1.39733e-06
-1.42681e-06
-1.4569e-06
-1.48763e-06
-1.519e-06
-1.55102e-06
-1.58368e-06
-1.61698e-06
-1.65096e-06
-1.686e-06
-1.90346e-06
-1.94277e-06
-1.97872e-06
-2.01468e-06
-2.05226e-06
-2.08957e-06
-2.1279e-06
-2.16676e-06
-2.20626e-06
-2.24643e-06
-2.28731e-06
-2.32897e-06
-2.37148e-06
-2.41495e-06
-2.45952e-06
-2.50536e-06
-2.55324e-06
-2.60402e-06
-2.65678e-06
-2.71071e-06
-2.76573e-06
-2.82186e-06
-2.87914e-06
-2.93758e-06
-2.9972e-06
-3.05804e-06
-3.12011e-06
-3.18343e-06
-3.24805e-06
-3.31398e-06
-3.38124e-06
-3.44987e-06
-3.51989e-06
-3.59134e-06
-3.66423e-06
-3.73861e-06
-3.81449e-06
-3.89192e-06
-3.97091e-06
-4.05151e-06
-4.13375e-06
-4.21765e-06
-4.30326e-06
-4.3906e-06
-4.47972e-06
-4.57064e-06
-4.66342e-06
-4.75807e-06
-4.85465e-06
-4.95318e-06
-5.05372e-06
-5.1563e-06
-5.26096e-06
-5.36774e-06
-5.47669e-06
-5.58785e-06
-5.70127e-06
-5.81699e-06
-5.93506e-06
-6.05553e-06
-6.17844e-06
-6.30384e-06
-6.4318e-06
-6.56234e-06
-6.69554e-06
-6.83144e-06
-6.9701e-06
-7.11158e-06
-7.25592e-06
-7.4032e-06
-7.55347e-06
-7.70678e-06
-7.86321e-06
)
;
    }
    inandouthalf41
    {
        type            cyclic;
        value           nonuniform List<scalar> 
50
(
7.03837e-06
7.03837e-06
7.03837e-06
7.03837e-06
7.03837e-06
7.03837e-06
7.03837e-06
7.03837e-06
7.03837e-06
7.03837e-06
7.03837e-06
7.03837e-06
7.03837e-06
7.03837e-06
7.03837e-06
7.03837e-06
7.03837e-06
7.03837e-06
7.03837e-06
7.03837e-06
7.03837e-06
7.03837e-06
7.03837e-06
7.03837e-06
7.03837e-06
7.03837e-06
7.03837e-06
7.03837e-06
7.03837e-06
7.03837e-06
7.03837e-06
7.03837e-06
7.03837e-06
7.03837e-06
7.03837e-06
7.03837e-06
7.03837e-06
7.03837e-06
7.03837e-06
7.03837e-06
7.03837e-06
7.03837e-06
7.03837e-06
7.03837e-06
7.03837e-06
7.03837e-06
7.03837e-06
7.03837e-06
7.03838e-06
7.03853e-06
)
;
    }
    inandouthalf42
    {
        type            cyclic;
        value           nonuniform List<scalar> 
50
(
-7.03837e-06
-7.03837e-06
-7.03837e-06
-7.03837e-06
-7.03837e-06
-7.03837e-06
-7.03837e-06
-7.03837e-06
-7.03837e-06
-7.03837e-06
-7.03837e-06
-7.03837e-06
-7.03837e-06
-7.03837e-06
-7.03837e-06
-7.03837e-06
-7.03837e-06
-7.03837e-06
-7.03837e-06
-7.03837e-06
-7.03837e-06
-7.03837e-06
-7.03837e-06
-7.03837e-06
-7.03837e-06
-7.03837e-06
-7.03837e-06
-7.03837e-06
-7.03837e-06
-7.03837e-06
-7.03837e-06
-7.03837e-06
-7.03837e-06
-7.03837e-06
-7.03837e-06
-7.03837e-06
-7.03837e-06
-7.03837e-06
-7.03837e-06
-7.03837e-06
-7.03837e-06
-7.03837e-06
-7.03837e-06
-7.03837e-06
-7.03837e-06
-7.03837e-06
-7.03837e-06
-7.03837e-06
-7.03838e-06
-7.03853e-06
)
;
    }
    top
    {
        type            symmetryPlane;
        value           uniform 0;
    }
    walls
    {
        type            fixedValue;
        value           uniform 0;
    }
    frontAndBackPlanes
    {
        type            empty;
        value           nonuniform 0();
    }
}


// ************************************************************************* //
