/*--------------------------------*- C++ -*----------------------------------*\
| =========                 |                                                 |
| \\      /  F ield         | OpenFOAM: The Open Source CFD Toolbox           |
|  \\    /   O peration     | Version:  2.4.x                                 |
|   \\  /    A nd           | Web:      www.OpenFOAM.org                      |
|    \\/     M anipulation  |                                                 |
\*---------------------------------------------------------------------------*/
FoamFile
{
    version     2.0;
    format      ascii;
    class       volTensorField;
    location    "5.9";
    object      Taus;
}
// * * * * * * * * * * * * * * * * * * * * * * * * * * * * * * * * * * * * * //

dimensions      [0 2 -2 0 0 0 0];

internalField   nonuniform List<tensor> 
360
(
(0 -0.014944 0 -0.014944 -0.195688 0 0 0 0)
(0 -0.021118 0 -0.021118 -0.239824 0 0 0 0)
(0 -0.0256793 0 -0.0256793 -0.24706 0 0 0 0)
(0 -0.0254581 0 -0.0254581 -0.241989 0 0 0 0)
(2.08334e-17 -0.0247907 0 -0.0247907 -0.238758 0 0 0 0)
(1.0045e-17 -0.0247309 0 -0.0247309 -0.237317 0 0 0 0)
(1.97446e-17 -0.0248118 0 -0.0248118 -0.235923 0 0 0 0)
(0 -0.0248497 0 -0.0248497 -0.234342 0 0 0 0)
(1.93297e-17 -0.0248646 0 -0.0248646 -0.232742 0 0 0 0)
(0 -0.0248646 0 -0.0248646 -0.231103 0 0 0 0)
(1.8834e-17 -0.0248549 0 -0.0248549 -0.229438 0 0 0 0)
(0 -0.0248464 0 -0.0248464 -0.227787 0 0 0 0)
(3.65953e-17 -0.0248399 0 -0.0248399 -0.226138 0 0 0 0)
(0 -0.024836 0 -0.024836 -0.224498 0 0 0 0)
(0 -0.0248319 0 -0.0248319 -0.222859 0 0 0 0)
(0 -0.0248246 0 -0.0248246 -0.221211 0 0 0 0)
(0 -0.0248148 0 -0.0248148 -0.219557 0 0 0 0)
(3.41603e-17 -0.0248046 0 -0.0248046 -0.217905 0 0 0 0)
(0 -0.0247935 0 -0.0247935 -0.216255 0 0 0 0)
(0 -0.0247796 0 -0.0247796 -0.21459 0 0 0 0)
(0 -0.0247682 0 -0.0247682 -0.212944 0 0 0 0)
(6.46293e-17 -0.0247538 0 -0.0247538 -0.211282 0 0 0 0)
(0 -0.0247381 0 -0.0247381 -0.209622 0 0 0 0)
(0 -0.0247222 0 -0.0247222 -0.207963 0 0 0 0)
(0 -0.0247053 0 -0.0247053 -0.2063 0 0 0 0)
(6.12643e-17 -0.0246886 0 -0.0246886 -0.204639 0 0 0 0)
(0 -0.0246725 0 -0.0246725 -0.202983 0 0 0 0)
(0 -0.0246532 0 -0.0246532 -0.201315 0 0 0 0)
(0 -0.024634 0 -0.024634 -0.19965 0 0 0 0)
(0 -0.0246157 0 -0.0246157 -0.197989 0 0 0 0)
(0 -0.0245955 0 -0.0245955 -0.196326 0 0 0 0)
(0 -0.024572 0 -0.024572 -0.194646 0 0 0 0)
(0 -0.0245506 0 -0.0245506 -0.192992 0 0 0 0)
(0 -0.0245203 0 -0.0245203 -0.191296 0 0 0 0)
(0 -0.0244914 0 -0.0244914 -0.189624 0 0 0 0)
(-5.19608e-17 -0.0244587 0 -0.0244587 -0.187933 0 0 0 0)
(0 -0.0244252 0 -0.0244252 -0.186251 0 0 0 0)
(0 -0.0243868 0 -0.0243868 -0.184557 0 0 0 0)
(0 -0.0243475 0 -0.0243475 -0.182853 0 0 0 0)
(0 -0.0243178 0 -0.0243178 -0.181191 0 0 0 0)
(0 -0.0242849 0 -0.0242849 -0.179499 0 0 0 0)
(0 -0.0242626 0 -0.0242626 -0.177836 0 0 0 0)
(-1.00659e-16 -0.0242541 0 -0.0242541 -0.176206 0 0 0 0)
(0 -0.0242478 0 -0.0242478 -0.174558 0 0 0 0)
(0 -0.0242542 0 -0.0242542 -0.172945 0 0 0 0)
(0 -0.0242658 0 -0.0242658 -0.171329 0 0 0 0)
(0 -0.0242796 0 -0.0242796 -0.169706 0 0 0 0)
(0 -0.0242965 0 -0.0242965 -0.1681 0 0 0 0)
(0 -0.0242919 0 -0.0242919 -0.166446 0 0 0 0)
(0 -0.0242561 0 -0.0242561 -0.164731 0 0 0 0)
(-7.39549e-17 -0.0241895 0 -0.0241895 -0.162997 0 0 0 0)
(0 -0.0240638 0 -0.0240638 -0.161162 0 0 0 0)
(0 -0.023869 0 -0.023869 -0.159246 0 0 0 0)
(0 -0.0235994 0 -0.0235994 -0.157215 0 0 0 0)
(0 -0.0232763 0 -0.0232763 -0.155125 0 0 0 0)
(0 -0.0229358 0 -0.0229358 -0.152989 0 0 0 0)
(0 -0.0226578 0 -0.0226578 -0.151003 0 0 0 0)
(0 -0.0224922 0 -0.0224922 -0.149229 0 0 0 0)
(0 -0.0224743 0 -0.0224743 -0.147756 0 0 0 0)
(0 -0.0225927 0 -0.0225927 -0.14652 0 0 0 0)
(0 -0.0227916 0 -0.0227916 -0.145346 0 0 0 0)
(0 -0.0230424 0 -0.0230424 -0.144216 0 0 0 0)
(0 -0.0233082 0 -0.0233082 -0.143016 0 0 0 0)
(0 -0.0235794 0 -0.0235794 -0.141768 0 0 0 0)
(0 -0.0238495 0 -0.0238495 -0.14044 0 0 0 0)
(0 -0.0241136 0 -0.0241136 -0.139047 0 0 0 0)
(0 -0.0243553 0 -0.0243553 -0.137583 0 0 0 0)
(0 -0.0245477 0 -0.0245477 -0.136083 0 0 0 0)
(0 -0.0246457 0 -0.0246457 -0.134588 0 0 0 0)
(0 -0.0245945 0 -0.0245945 -0.133149 0 0 0 0)
(0 -0.0243624 0 -0.0243624 -0.131761 0 0 0 0)
(0 -0.0240023 0 -0.0240023 -0.130432 0 0 0 0)
(0 -0.0236065 0 -0.0236065 -0.129153 0 0 0 0)
(0 -0.0232313 0 -0.0232313 -0.127841 0 0 0 0)
(0 -0.0229184 0 -0.0229184 -0.126512 0 0 0 0)
(0 -0.0226715 0 -0.0226715 -0.125138 0 0 0 0)
(0 -0.0224874 0 -0.0224874 -0.123747 0 0 0 0)
(0 -0.0223466 0 -0.0223466 -0.122324 0 0 0 0)
(0 -0.0222334 0 -0.0222334 -0.120872 0 0 0 0)
(0 -0.0221379 0 -0.0221379 -0.119394 0 0 0 0)
(0 -0.022053 0 -0.022053 -0.117896 0 0 0 0)
(0 -0.0219692 0 -0.0219692 -0.116371 0 0 0 0)
(0 -0.0218824 0 -0.0218824 -0.114822 0 0 0 0)
(0 -0.0217913 0 -0.0217913 -0.113255 0 0 0 0)
(0 -0.0216943 0 -0.0216943 -0.111669 0 0 0 0)
(0 -0.0215917 0 -0.0215917 -0.110069 0 0 0 0)
(0 -0.021483 0 -0.021483 -0.108455 0 0 0 0)
(0 -0.0213697 0 -0.0213697 -0.106832 0 0 0 0)
(0 -0.0212513 0 -0.0212513 -0.105201 0 0 0 0)
(0 -0.0211267 0 -0.0211267 -0.103562 0 0 0 0)
(0 -0.0209955 0 -0.0209955 -0.101915 0 0 0 0)
(0 -0.0208572 0 -0.0208572 -0.10026 0 0 0 0)
(0 -0.0207106 0 -0.0207106 -0.0985974 0 0 0 0)
(0 -0.0205557 0 -0.0205557 -0.0969267 0 0 0 0)
(0 -0.020393 0 -0.020393 -0.0952489 0 0 0 0)
(0 -0.0202228 0 -0.0202228 -0.0935644 0 0 0 0)
(0 -0.0200459 0 -0.0200459 -0.0918738 0 0 0 0)
(0 -0.0198632 0 -0.0198632 -0.090178 0 0 0 0)
(0 -0.0196751 0 -0.0196751 -0.0884771 0 0 0 0)
(0 -0.0194821 0 -0.0194821 -0.0867714 0 0 0 0)
(0 -0.0192845 0 -0.0192845 -0.0850611 0 0 0 0)
(0 -0.0190828 0 -0.0190828 -0.0833463 0 0 0 0)
(0 -0.0188769 0 -0.0188769 -0.081627 0 0 0 0)
(0 -0.0186673 0 -0.0186673 -0.0799034 0 0 0 0)
(0 -0.0184543 0 -0.0184543 -0.0781755 0 0 0 0)
(0 -0.0182379 0 -0.0182379 -0.0764436 0 0 0 0)
(0 -0.0180186 0 -0.0180186 -0.0747077 0 0 0 0)
(0 -0.0177966 0 -0.0177966 -0.0729681 0 0 0 0)
(0 -0.017572 0 -0.017572 -0.0712247 0 0 0 0)
(0 -0.017345 0 -0.017345 -0.0694777 0 0 0 0)
(0 -0.017116 0 -0.017116 -0.0677272 0 0 0 0)
(0 -0.0168849 0 -0.0168849 -0.0659733 0 0 0 0)
(0 -0.0166522 0 -0.0166522 -0.0642162 0 0 0 0)
(0 -0.0164182 0 -0.0164182 -0.0624559 0 0 0 0)
(0 -0.0161831 0 -0.0161831 -0.0606925 0 0 0 0)
(0 -0.0159473 0 -0.0159473 -0.0589263 0 0 0 0)
(0 -0.0157113 0 -0.0157113 -0.0571571 0 0 0 0)
(0 -0.0154755 0 -0.0154755 -0.0553853 0 0 0 0)
(0 -0.0152402 0 -0.0152402 -0.0536107 0 0 0 0)
(0 -0.015006 0 -0.015006 -0.0518336 0 0 0 0)
(0 -0.0147734 0 -0.0147734 -0.0500538 0 0 0 0)
(0 -0.0145428 0 -0.0145428 -0.0482715 0 0 0 0)
(0 -0.0143147 0 -0.0143147 -0.0464867 0 0 0 0)
(0 -0.0140896 0 -0.0140896 -0.0446995 0 0 0 0)
(0 -0.013868 0 -0.013868 -0.0429097 0 0 0 0)
(0 -0.0136499 0 -0.0136499 -0.0411172 0 0 0 0)
(0 -0.0134349 0 -0.0134349 -0.0393213 0 0 0 0)
(0 -0.0132219 0 -0.0132219 -0.0375213 0 0 0 0)
(0 -0.0130098 0 -0.0130098 -0.035716 0 0 0 0)
(0 -0.0127987 0 -0.0127987 -0.0339044 0 0 0 0)
(0 -0.0125905 0 -0.0125905 -0.0320852 0 0 0 0)
(0 -0.0123868 0 -0.0123868 -0.0302571 0 0 0 0)
(0 -0.0121846 0 -0.0121846 -0.0284173 0 0 0 0)
(0 -0.0119735 0 -0.0119735 -0.026561 0 0 0 0)
(0 -0.0117455 0 -0.0117455 -0.0246839 0 0 0 0)
(0 -0.0115091 0 -0.0115091 -0.0227858 0 0 0 0)
(0 -0.0112759 0 -0.0112759 -0.0208669 0 0 0 0)
(0 -0.0110236 0 -0.0110236 -0.0189342 0 0 0 0)
(0 -0.0106826 0 -0.0106826 -0.0170138 0 0 0 0)
(0 -0.0102141 0 -0.0102141 -0.0151162 0 0 0 0)
(0 -0.00973483 0 -0.00973483 -0.0131968 0 0 0 0)
(0 -0.00938725 0 -0.00938725 -0.0112711 0 0 0 0)
(0 -0.00893679 0 -0.00893679 -0.0091954 0 0 0 0)
(0 -0.00830246 0 -0.00830246 -0.00686901 0 0 0 0)
(0 -0.00765978 0 -0.00765978 -0.00344981 0 0 0 0)
(0 -0.00603083 0 -0.00603083 -0.000120319 0 0 0 0)
(0 -0.00243744 0 -0.00243744 -0.00102498 0 0 0 0)
(0 -0.00157591 0 -0.00157591 -3.52068e-06 0 0 0 0)
(0 -0.00191163 0 -0.00191163 -5.69947e-06 0 0 0 0)
(0 -0.00234188 0 -0.00234188 -6.58664e-06 0 0 0 0)
(0 -0.00200024 0 -0.00200024 -4.15542e-06 0 0 0 0)
(0 -0.00180236 0 -0.00180236 -3.89848e-06 0 0 0 0)
(0 -0.00173695 0 -0.00173695 -4.04797e-06 0 0 0 0)
(0 -0.00176902 0 -0.00176902 -4.15756e-06 0 0 0 0)
(0 -0.0018751 0 -0.0018751 -4.09897e-06 0 0 0 0)
(0 -0.00204073 0 -0.00204073 -3.70897e-06 0 0 0 0)
(0 -0.00225719 0 -0.00225719 -2.77181e-06 0 0 0 0)
(0 -0.00251939 0 -0.00251939 -1.04136e-06 0 0 0 0)
(0 -0.00282461 0 -0.00282461 1.74731e-06 0 0 0 0)
(0 -0.00317165 0 -0.00317165 5.8769e-06 0 0 0 0)
(0 -0.00356035 0 -0.00356035 1.16512e-05 0 0 0 0)
(0 -0.00399123 0 -0.00399123 1.93991e-05 0 0 0 0)
(0 -0.00446523 0 -0.00446523 2.9479e-05 0 0 0 0)
(0 -0.00498362 0 -0.00498362 4.22827e-05 0 0 0 0)
(0 -0.00554778 0 -0.00554778 5.82406e-05 0 0 0 0)
(0 -0.0061592 0 -0.0061592 7.78269e-05 0 0 0 0)
(0 -0.00681932 0 -0.00681932 0.000101566 0 0 0 0)
(0 -0.00752951 0 -0.00752951 0.000130036 0 0 0 0)
(0 -0.00829103 0 -0.00829103 0.000163883 0 0 0 0)
(0 -0.0091049 0 -0.0091049 0.00020382 0 0 0 0)
(0 -0.00997195 0 -0.00997195 0.000250639 0 0 0 0)
(0 -0.0108927 0 -0.0108927 0.000305217 0 0 0 0)
(0 -0.0118673 0 -0.0118673 0.000368522 0 0 0 0)
(0 -0.0128955 0 -0.0128955 0.000441617 0 0 0 0)
(0 -0.0139768 0 -0.0139768 0.000525658 0 0 0 0)
(0 -0.0151101 0 -0.0151101 0.000621904 0 0 0 0)
(0 -0.0162937 0 -0.0162937 0.000731714 0 0 0 0)
(0 -0.0175256 0 -0.0175256 0.000856547 0 0 0 0)
(0 -0.0188032 0 -0.0188032 0.000997969 0 0 0 0)
(0 -0.0201231 0 -0.0201231 0.00115765 0 0 0 0)
(0 -0.0214816 0 -0.0214816 0.00133737 0 0 0 0)
(0 -0.0228742 0 -0.0228742 0.00153902 0 0 0 0)
(0 -0.0242958 0 -0.0242958 0.00176462 0 0 0 0)
(0 -0.0257404 0 -0.0257404 0.00201631 0 0 0 0)
(0 -0.0272018 0 -0.0272018 0.00229635 0 0 0 0)
(0 -0.0286727 0 -0.0286727 0.00260705 0 0 0 0)
(0 -0.0301457 0 -0.0301457 0.00295054 0 0 0 0)
(0 -0.0316128 0 -0.0316128 0.00332844 0 0 0 0)
(0 -0.0330669 0 -0.0330669 0.00374112 0 0 0 0)
(0 -0.0345022 0 -0.0345022 0.00418685 0 0 0 0)
(0 -0.0359157 0 -0.0359157 0.00466087 0 0 0 0)
(0 -0.0373077 0 -0.0373077 0.00515502 0 0 0 0)
(0 -0.0386828 0 -0.0386828 0.00565771 0 0 0 0)
(0 -0.0400497 0 -0.0400497 0.00615404 0 0 0 0)
(0 -0.0414218 0 -0.0414218 0.00662646 0 0 0 0)
(0 -0.0428143 0 -0.0428143 0.0070585 0 0 0 0)
(0 -0.0442352 0 -0.0442352 0.00744084 0 0 0 0)
(0 -0.0456775 0 -0.0456775 0.00777561 0 0 0 0)
(0 -0.0471217 0 -0.0471217 0.00807249 0 0 0 0)
(0 -0.0485544 0 -0.0485544 0.00833205 0 0 0 0)
(0 -0.0500037 0 -0.0500037 0.0085326 0 0 0 0)
(0 -0.0515444 0 -0.0515444 0.0086421 0 0 0 0)
(4.27251e-15 -0.0532348 0 -0.0532348 0.00862022 0 0 0 0)
(0 -0.0551602 0 -0.0551602 0.00841848 0 0 0 0)
(0 -0.0573884 0 -0.0573884 0.00800875 0 0 0 0)
(-5.87755e-15 -0.0598611 0 -0.0598611 0.00740359 0 0 0 0)
(0 -0.0625444 0 -0.0625444 0.00662424 0 0 0 0)
(3.65187e-15 -0.0654475 0 -0.0654475 0.00568617 0 0 0 0)
(0 -0.0684624 0 -0.0684624 0.00462723 0 0 0 0)
(-8.94868e-15 -0.0715125 0 -0.0715125 0.00348979 0 0 0 0)
(0 -0.0745624 0 -0.0745624 0.0023022 0 0 0 0)
(0 -0.0775162 0 -0.0775162 0.00108884 0 0 0 0)
(0 -0.0803758 0 -0.0803758 -0.000134154 0 0 0 0)
(-1.23316e-14 -0.0830147 0 -0.0830147 -0.00131953 0 0 0 0)
(0 -0.0853265 0 -0.0853265 -0.00243448 0 0 0 0)
(0 -0.0874239 0 -0.0874239 -0.00350636 0 0 0 0)
(0 -0.0891607 0 -0.0891607 -0.00449691 0 0 0 0)
(0 -0.0904535 0 -0.0904535 -0.00537108 0 0 0 0)
(0 -0.0914233 0 -0.0914233 -0.00617575 0 0 0 0)
(0 -0.0920343 0 -0.0920343 -0.00692319 0 0 0 0)
(0 -0.0922343 0 -0.0922343 -0.00758557 0 0 0 0)
(1.5414e-14 -0.0919519 0 -0.0919519 -0.00814431 0 0 0 0)
(0 -0.0912874 0 -0.0912874 -0.00865907 0 0 0 0)
(1.51313e-14 -0.0902526 0 -0.0902526 -0.00915077 0 0 0 0)
(0 -0.0886875 0 -0.0886875 -0.00956219 0 0 0 0)
(0 -0.0866805 0 -0.0866805 -0.0099485 0 0 0 0)
(0 -0.0842751 0 -0.0842751 -0.0103681 0 0 0 0)
(0 -0.0813999 0 -0.0813999 -0.0108095 0 0 0 0)
(-1.30071e-14 -0.078061 0 -0.078061 -0.0113202 0 0 0 0)
(-1.23849e-14 -0.0742214 0 -0.0742214 -0.011924 0 0 0 0)
(0 -0.0698697 0 -0.0698697 -0.0127276 0 0 0 0)
(0 -0.0647273 0 -0.0647273 -0.0135925 0 0 0 0)
(0 -0.0585862 0 -0.0585862 -0.0146032 0 0 0 0)
(0 -0.0513967 0 -0.0513967 -0.0157263 0 0 0 0)
(0 -0.043694 0 -0.043694 -0.0186379 0 0 0 0)
(0 -0.0406296 0 -0.0406296 -0.0218406 0 0 0 0)
(0 -0 0 -0 -0 0 0 0 0)
(0 -0 0 -0 -0 0 0 0 0)
(0 0 0 0 -0 0 0 0 0)
(0 0 0 0 -0 0 0 0 0)
(0 0 0 0 -0 0 0 0 0)
(0 0 0 0 -0 0 0 0 0)
(0 0 0 0 0 0 0 0 0)
(0 0 0 0 -0 0 0 0 0)
(-0 0 0 0 -0 0 0 0 0)
(0 0 0 0 -0 0 0 0 0)
(0 0 0 0 -0 0 0 0 0)
(0 0 0 0 -0 0 0 0 0)
(0 0 0 0 -0 0 0 0 0)
(0 0 0 0 0 0 0 0 0)
(0 0 0 0 0 0 0 0 0)
(0 0 0 0 0 0 0 0 0)
(0 0 0 0 0 0 0 0 0)
(0 0 0 0 0 0 0 0 0)
(0 0 0 0 0 0 0 0 0)
(0 0 0 0 0 0 0 0 0)
(0 0 0 0 0 0 0 0 0)
(0 0 0 0 0 0 0 0 0)
(0 0 0 0 0 0 0 0 0)
(0 0 0 0 0 0 0 0 0)
(0 0 0 0 -0 0 0 0 0)
(0 0 0 0 0 0 0 0 0)
(0 0 0 0 -0 0 0 0 0)
(0 0 0 0 0 0 0 0 0)
(0 0 0 0 -0 0 0 0 0)
(0 0 0 0 0 0 0 0 0)
(-0 0 0 0 -0 0 0 0 0)
(0 0 0 0 0 0 0 0 0)
(0 0 0 0 -0 0 0 0 0)
(0 0 0 0 0 0 0 0 0)
(0 0 0 0 -0 0 0 0 0)
(0 0 0 0 -0 0 0 0 0)
(0 0 0 0 0 0 0 0 0)
(0 0 0 0 0 0 0 0 0)
(0 0 0 0 -0 0 0 0 0)
(0 0 0 0 0 0 0 0 0)
(0 0 0 0 -0 0 0 0 0)
(0 0 0 0 0 0 0 0 0)
(0 0 0 0 -0 0 0 0 0)
(0 0 0 0 0 0 0 0 0)
(0 0 0 0 -0 0 0 0 0)
(0 0 0 0 0 0 0 0 0)
(0 0 0 0 -0 0 0 0 0)
(0 0 0 0 0 0 0 0 0)
(0 0 0 0 -0 0 0 0 0)
(0 0 0 0 0 0 0 0 0)
(-0 0 0 0 -0 0 0 0 0)
(0 0 0 0 0 0 0 0 0)
(0 0 0 0 -0 0 0 0 0)
(0 0 0 0 0 0 0 0 0)
(0 0 0 0 -0 0 0 0 0)
(0 0 0 0 0 0 0 0 0)
(0 0 0 0 -0 0 0 0 0)
(0 0 0 0 0 0 0 0 0)
(0 0 0 0 -0 0 0 0 0)
(0 0 0 0 0 0 0 0 0)
(-0 -0 0 -0 -0 0 0 0 0)
(0 0 0 0 0 0 0 0 0)
(0 -0 0 -0 -0 0 0 0 0)
(0 0 0 0 0 0 0 0 0)
(0 0 0 0 -0 0 0 0 0)
(0 0 0 0 0 0 0 0 0)
(0 -0 0 -0 -0 0 0 0 0)
(0 0 0 0 0 0 0 0 0)
(0 -0 0 -0 -0 0 0 0 0)
(0 0 0 0 0 0 0 0 0)
(0 -0 0 -0 -0 0 0 0 0)
(0 0 0 0 0 0 0 0 0)
(0 -0 0 -0 -0 0 0 0 0)
(0 -0 0 -0 0 0 0 0 0)
(0 -0 0 -0 -0 0 0 0 0)
(0 0 0 0 0 0 0 0 0)
(0 -0 0 -0 -0 0 0 0 0)
(0 0 0 0 0 0 0 0 0)
(0 -0 0 -0 -0 0 0 0 0)
(0 0 0 0 0 0 0 0 0)
(0 -0 0 -0 -0 0 0 0 0)
(0 0 0 0 0 0 0 0 0)
(0 0 0 0 -0 0 0 0 0)
(0 -0 0 -0 0 0 0 0 0)
(0 -0 0 -0 -0 0 0 0 0)
(0 0 0 0 0 0 0 0 0)
(0 0 0 0 -0 0 0 0 0)
(0 0 0 0 0 0 0 0 0)
(0 -0 0 -0 -0 0 0 0 0)
(0 0 0 0 0 0 0 0 0)
(0 -0 0 -0 -0 0 0 0 0)
(0 0 0 0 0 0 0 0 0)
(0 -0 0 -0 -0 0 0 0 0)
(0 0 0 0 0 0 0 0 0)
(0 -0 0 -0 -0 0 0 0 0)
(0 0 0 0 0 0 0 0 0)
(0 -0 0 -0 -0 0 0 0 0)
(0 0 0 0 0 0 0 0 0)
(0 -0 0 -0 -0 0 0 0 0)
(0 0 0 0 0 0 0 0 0)
(0 -0 0 -0 -0 0 0 0 0)
(0 0 0 0 0 0 0 0 0)
(0 -0 0 -0 -0 0 0 0 0)
(0 -0 0 -0 0 0 0 0 0)
(0 -0 0 -0 -0 0 0 0 0)
(0 0 0 0 0 0 0 0 0)
(0 0 0 0 -0 0 0 0 0)
(0 0 0 0 0 0 0 0 0)
(0 -0 0 -0 -0 0 0 0 0)
(0 0 0 0 0 0 0 0 0)
(0 0 0 0 -0 0 0 0 0)
(0 0 0 0 0 0 0 0 0)
(0 -0 0 -0 -0 0 0 0 0)
(0 -0 0 -0 0 0 0 0 0)
(0 0 0 0 -0 0 0 0 0)
(0 0 0 0 0 0 0 0 0)
(0 0 0 0 -0 0 0 0 0)
(0 -0 0 -0 0 0 0 0 0)
(0 -0 0 -0 0 0 0 0 0)
(0 -0 0 -0 0 0 0 0 0)
(0 -0 0 -0 0 0 0 0 0)
(0 -0 0 -0 0 0 0 0 0)
(0 -0 0 -0 0 0 0 0 0)
(0 -0 0 -0 0 0 0 0 0)
)
;

boundaryField
{
    inandouthalf11
    {
        type            cyclic;
    }
    inandouthalf12
    {
        type            cyclic;
    }
    inandouthalf21
    {
        type            cyclic;
    }
    inandouthalf22
    {
        type            cyclic;
    }
    inandouthalf31
    {
        type            cyclic;
    }
    inandouthalf32
    {
        type            cyclic;
    }
    inandouthalf41
    {
        type            cyclic;
    }
    inandouthalf42
    {
        type            cyclic;
    }
    top
    {
        type            symmetryPlane;
    }
    walls
    {
        type            zeroGradient;
    }
    frontAndBackPlanes
    {
        type            empty;
    }
}


// ************************************************************************* //
