/*--------------------------------*- C++ -*----------------------------------*\
| =========                 |                                                 |
| \\      /  F ield         | OpenFOAM: The Open Source CFD Toolbox           |
|  \\    /   O peration     | Version:  2.4.x                                 |
|   \\  /    A nd           | Web:      www.OpenFOAM.org                      |
|    \\/     M anipulation  |                                                 |
\*---------------------------------------------------------------------------*/
FoamFile
{
    version     2.0;
    format      ascii;
    class       volScalarField;
    location    "5.9";
    object      tmf;
}
// * * * * * * * * * * * * * * * * * * * * * * * * * * * * * * * * * * * * * //

dimensions      [0 0 0 0 0 0 0];

internalField   nonuniform List<scalar> 
360
(
0.999206
0.999208
0.999208
0.999208
0.999208
0.999208
0.999208
0.999208
0.999208
0.999208
0.999208
0.999207
0.999207
0.999207
0.999207
0.999207
0.999207
0.999207
0.999207
0.999207
0.999207
0.999207
0.999207
0.999206
0.999206
0.999206
0.999206
0.999206
0.999206
0.999206
0.999206
0.999206
0.999206
0.999205
0.999205
0.999205
0.999205
0.999205
0.999205
0.999205
0.999205
0.999205
0.999205
0.999204
0.999204
0.999204
0.999204
0.999204
0.999204
0.999204
0.999204
0.999204
0.999203
0.999203
0.999203
0.999203
0.999203
0.999203
0.999202
0.999202
0.999202
0.999202
0.999202
0.999202
0.999202
0.999202
0.999202
0.999202
0.999201
0.999201
0.999201
0.999201
0.999201
0.999201
0.999201
0.999201
0.9992
0.9992
0.9992
0.9992
0.9992
0.9992
0.9992
0.999199
0.999199
0.999199
0.999199
0.999199
0.999199
0.999198
0.999198
0.999198
0.999198
0.999198
0.999197
0.999197
0.999197
0.999197
0.999196
0.999196
0.999196
0.999196
0.999195
0.999195
0.999195
0.999195
0.999194
0.999194
0.999194
0.999194
0.999193
0.999193
0.999193
0.999192
0.999192
0.999192
0.999191
0.999191
0.99919
0.99919
0.99919
0.999189
0.999189
0.999188
0.999188
0.999187
0.999187
0.999186
0.999186
0.999185
0.999185
0.999184
0.998911
0.99874
0.998563
0.99834
0.998057
0.997698
0.997243
0.996667
0.995931
0.994981
0.993755
0.992177
0.990142
0.987506
0.983989
0.978629
0.931782
0.888553
0.876911
0.879844
0.884494
0.890195
0.896502
0.903025
0.909446
0.915555
0.921235
0.926444
0.931182
0.935479
0.939371
0.942902
0.946113
0.949042
0.951723
0.954187
0.956458
0.95856
0.960512
0.962331
0.96403
0.965622
0.967118
0.968527
0.969857
0.971115
0.972306
0.973436
0.974509
0.975531
0.976504
0.977431
0.978316
0.979162
0.97997
0.980743
0.981482
0.982191
0.982869
0.98352
0.984144
0.984743
0.985317
0.985869
0.986399
0.986907
0.987396
0.987866
0.988318
0.988757
0.989188
0.989611
0.990025
0.990431
0.990829
0.99122
0.991602
0.991977
0.992345
0.992706
0.993061
0.993408
0.993749
0.994082
0.994408
0.994724
0.995032
0.995327
0.99561
0.995878
0.996129
0.99636
0.996571
0.996761
0.996928
0.997073
0.997196
0.997299
0.997383
0.997451
0.997504
0.997544
0.997573
0.997594
0.997607
0.994875
0.99524
0.994897
0.996648
0.996988
0.997028
0.997075
0.997128
0.997192
0.997267
0.997357
0.997465
0.997598
0.997763
0.997975
0.99826
0.998619
0.998872
0.998924
0.998919
0.998913
0.998906
0.9989
0.998893
0.998776
0.995431
0.994189
0.994189
0.994189
0.994189
0.994189
0.994189
0.994189
0.994189
0.994189
0.994189
0.994189
0.994189
0.994189
0.994189
0.994189
0.994189
0.994189
0.994189
0.994189
0.994189
0.994189
0.994189
0.994189
0.994189
0.994189
0.994189
0.994189
0.994189
0.994189
0.994189
0.994189
0.994189
0.994189
0.994189
0.994189
0.994189
0.994189
0.994189
0.994189
0.994189
0.994189
0.994189
0.994189
0.994189
0.994189
0.994189
0.994189
0.994189
0.994189
0.994189
0.994189
0.994189
0.994189
0.994189
0.994189
0.994189
0.994189
0.994189
0.994189
0.994189
0.994189
0.994189
0.994189
0.994189
0.994189
0.994189
0.994189
0.994189
0.994189
0.994189
0.994189
0.994189
0.994189
0.994189
0.994189
0.994189
0.994189
0.994189
0.994189
0.994189
0.994189
0.994189
0.994189
0.994189
0.994189
0.994189
0.994189
0.994189
0.994189
0.994189
0.994189
0.994189
0.994189
0.994189
0.994189
0.994174
0.993239
)
;

boundaryField
{
    inandouthalf11
    {
        type            cyclic;
    }
    inandouthalf12
    {
        type            cyclic;
    }
    inandouthalf21
    {
        type            cyclic;
    }
    inandouthalf22
    {
        type            cyclic;
    }
    inandouthalf31
    {
        type            cyclic;
    }
    inandouthalf32
    {
        type            cyclic;
    }
    inandouthalf41
    {
        type            cyclic;
    }
    inandouthalf42
    {
        type            cyclic;
    }
    top
    {
        type            symmetryPlane;
    }
    walls
    {
        type            calculated;
        value           uniform 0;
    }
    frontAndBackPlanes
    {
        type            empty;
    }
}


// ************************************************************************* //
