/*--------------------------------*- C++ -*----------------------------------*\
| =========                 |                                                 |
| \\      /  F ield         | OpenFOAM: The Open Source CFD Toolbox           |
|  \\    /   O peration     | Version:  2.4.x                                 |
|   \\  /    A nd           | Web:      www.OpenFOAM.org                      |
|    \\/     M anipulation  |                                                 |
\*---------------------------------------------------------------------------*/
FoamFile
{
    version     2.0;
    format      ascii;
    class       surfaceScalarField;
    location    "7.05";
    object      ddt0(phib);
}
// * * * * * * * * * * * * * * * * * * * * * * * * * * * * * * * * * * * * * //

dimensions      [0 3 -2 0 0 0 0];

internalField   nonuniform List<scalar> 
359
(
-1.73965e-13
-4.6169e-13
-7.27478e-13
-9.78153e-13
-1.2351e-12
-1.5018e-12
-1.77508e-12
-2.0529e-12
-2.33477e-12
-2.6212e-12
-2.91266e-12
-3.20917e-12
-3.51054e-12
-3.81643e-12
-4.12658e-12
-4.44082e-12
-4.7591e-12
-5.08132e-12
-5.40735e-12
-5.73721e-12
-6.07072e-12
-6.40793e-12
-6.74892e-12
-7.09371e-12
-7.44244e-12
-7.79514e-12
-8.15188e-12
-8.51285e-12
-8.87812e-12
-9.24769e-12
-9.62142e-12
-9.99946e-12
-1.03814e-11
-1.07674e-11
-1.11568e-11
-1.15497e-11
-1.19455e-11
-1.23443e-11
-1.27459e-11
-1.31501e-11
-1.35575e-11
-1.39685e-11
-1.43836e-11
-1.48045e-11
-1.52323e-11
-1.56688e-11
-1.61161e-11
-1.6576e-11
-1.70507e-11
-1.75426e-11
-1.80525e-11
-1.85812e-11
-1.91279e-11
-1.9691e-11
-2.02664e-11
-2.08493e-11
-2.14321e-11
-2.20064e-11
-2.2562e-11
-2.30876e-11
-2.35725e-11
-2.40053e-11
-2.43763e-11
-2.46768e-11
-2.49016e-11
-2.50493e-11
-2.51229e-11
-2.51312e-11
-2.50879e-11
-2.50119e-11
-2.49262e-11
-2.48574e-11
-2.48347e-11
-2.48891e-11
-2.50535e-11
-2.53622e-11
-2.58505e-11
-2.65557e-11
-2.75176e-11
-2.87798e-11
-3.03898e-11
-3.24009e-11
-3.48719e-11
-3.78649e-11
-4.1442e-11
-4.56577e-11
-5.05486e-11
-5.61172e-11
-6.23144e-11
-6.90184e-11
-7.60147e-11
-8.29819e-11
-8.94906e-11
-9.50226e-11
-9.90181e-11
-1.00952e-10
-1.00426e-10
-9.72627e-11
-9.15619e-11
-8.37063e-11
-7.43029e-11
-6.40772e-11
-5.37512e-11
-4.39379e-11
-3.50774e-11
-2.74191e-11
-2.10422e-11
-1.58978e-11
-1.18566e-11
-8.75128e-12
-6.40758e-12
-4.66385e-12
-3.38079e-12
-2.44444e-12
-1.76506e-12
-1.27394e-12
-9.19599e-13
-6.64004e-13
-4.79503e-13
-3.46064e-13
-2.49307e-13
-1.78946e-13
-1.2757e-13
-8.99128e-14
-6.22335e-14
-4.17953e-14
-2.66462e-14
-1.53808e-14
-6.97276e-15
-7.00141e-16
4.0058e-15
7.45954e-15
1.00074e-14
1.18654e-14
1.31964e-14
1.41514e-14
1.4802e-14
1.5155e-14
1.53913e-14
1.56042e-14
1.57889e-14
1.55898e-14
1.49904e-14
1.35059e-14
3.95889e-15
8.14168e-14
-3.7256e-11
-1.67842e-10
-2.46372e-10
5.8295e-09
-4.66904e-09
-4.35657e-09
-3.01616e-09
-2.05571e-09
-1.42317e-09
-1.00392e-09
-7.19404e-10
-5.22826e-10
-3.85014e-10
-2.8711e-10
-2.16664e-10
-1.65334e-10
-1.27464e-10
-9.9174e-11
-7.77771e-11
-6.13942e-11
-4.86994e-11
-3.87483e-11
-3.08612e-11
-2.45445e-11
-1.94357e-11
-1.52665e-11
-1.18361e-11
-8.99304e-12
-6.62222e-12
-4.63532e-12
-2.96409e-12
-1.55528e-12
-3.66945e-13
6.34273e-13
1.47536e-12
2.17831e-12
2.76142e-12
3.24007e-12
3.62745e-12
3.93496e-12
4.17261e-12
4.34922e-12
4.47259e-12
4.54969e-12
4.58668e-12
4.5891e-12
4.56178e-12
4.50902e-12
4.43455e-12
4.34177e-12
4.23371e-12
4.1132e-12
3.98253e-12
3.8435e-12
3.6975e-12
3.54283e-12
3.38031e-12
3.2103e-12
3.03312e-12
2.84966e-12
2.66115e-12
2.46868e-12
2.27356e-12
2.07715e-12
1.88133e-12
1.68845e-12
1.50101e-12
1.32133e-12
1.15179e-12
9.9469e-13
8.51497e-13
7.22971e-13
6.09299e-13
5.10234e-13
4.24834e-13
3.51782e-13
2.89876e-13
2.37782e-13
1.94124e-13
1.57781e-13
1.27642e-13
1.02812e-13
8.23764e-14
6.56347e-14
5.19345e-14
4.08943e-14
3.17453e-14
2.43786e-14
1.92054e-14
1.51913e-14
9.49845e-15
-5.03838e-16
-1.39168e-15
-6.40851e-16
-7.87306e-16
-2.07117e-15
-5.08783e-16
-5.53013e-16
-5.95755e-16
-6.35627e-16
-6.71017e-16
-7.04616e-16
-7.29913e-16
-7.34604e-16
-7.5948e-16
-7.77475e-16
-7.91401e-16
-7.95136e-16
-8.11013e-16
-8.22752e-16
-8.33651e-16
-8.36431e-16
-8.4484e-16
-8.40614e-16
-8.51246e-16
-8.57776e-16
-8.65919e-16
-8.70553e-16
-8.86597e-16
-8.92961e-16
-9.00653e-16
-9.17695e-16
-9.35511e-16
-9.48039e-16
-9.5473e-16
-9.63604e-16
-9.75342e-16
-9.83535e-16
-9.85785e-16
-9.87497e-16
-9.92577e-16
-9.91097e-16
-9.86133e-16
-9.676e-16
-9.7919e-16
-9.73207e-16
-9.73186e-16
-9.5874e-16
-9.41621e-16
-9.15198e-16
-8.72779e-16
-8.27287e-16
-8.01119e-16
-7.55057e-16
-7.09208e-16
-6.36468e-16
-5.92774e-16
-5.17449e-16
-4.41094e-16
-3.19642e-16
-4.03742e-16
-4.41196e-16
-4.82932e-16
-4.94467e-16
-5.44283e-16
-5.57085e-16
-5.70687e-16
-5.52504e-16
-6.09264e-16
-6.33758e-16
-6.4599e-16
-6.17087e-16
-6.38321e-16
-5.95111e-16
-5.48874e-16
-4.51887e-16
-5.10003e-16
-4.97515e-16
-4.89555e-16
-4.05994e-16
-3.90631e-16
-2.74337e-16
-1.65812e-16
7.09309e-17
6.8931e-17
2.34086e-16
3.97518e-16
7.84089e-16
9.69716e-16
1.46153e-15
1.93934e-15
2.85633e-15
2.968e-15
3.84304e-15
4.73636e-15
6.8166e-15
7.7051e-15
1.04442e-14
1.30889e-14
1.79774e-14
1.85972e-14
2.23209e-14
2.6035e-14
3.36386e-14
3.82604e-14
4.72874e-14
5.64345e-14
6.95005e-14
7.92587e-14
9.32038e-14
1.07408e-13
1.25819e-13
1.43437e-13
1.6226e-13
1.8275e-13
2.03067e-13
2.40752e-13
2.67476e-13
2.9595e-13
3.08545e-13
3.35152e-13
3.52631e-13
4.00884e-13
)
;

boundaryField
{
    inandouthalf11
    {
        type            cyclic;
        value           nonuniform List<scalar> 
100
(
-2.016e-10
-2.00546e-10
-2.00412e-10
-2.00583e-10
-2.00681e-10
-2.0073e-10
-2.00783e-10
-2.00845e-10
-2.00907e-10
-2.0097e-10
-2.01034e-10
-2.01098e-10
-2.01163e-10
-2.01228e-10
-2.01294e-10
-2.0136e-10
-2.01427e-10
-2.01495e-10
-2.01564e-10
-2.01633e-10
-2.01703e-10
-2.01774e-10
-2.01845e-10
-2.01917e-10
-2.0199e-10
-2.02064e-10
-2.02139e-10
-2.02214e-10
-2.0229e-10
-2.02367e-10
-2.02445e-10
-2.02525e-10
-2.02604e-10
-2.02685e-10
-2.02767e-10
-2.0285e-10
-2.02933e-10
-2.03018e-10
-2.03104e-10
-2.0319e-10
-2.03278e-10
-2.03367e-10
-2.03456e-10
-2.03547e-10
-2.03639e-10
-2.03733e-10
-2.03827e-10
-2.03923e-10
-2.0402e-10
-2.04119e-10
-2.04219e-10
-2.04322e-10
-2.04425e-10
-2.04531e-10
-2.04639e-10
-2.04749e-10
-2.04859e-10
-2.04972e-10
-2.05086e-10
-2.052e-10
-2.05316e-10
-2.0543e-10
-2.05545e-10
-2.05658e-10
-2.0577e-10
-2.0588e-10
-2.05989e-10
-2.06096e-10
-2.06201e-10
-2.06304e-10
-2.06408e-10
-2.06512e-10
-2.06617e-10
-2.06727e-10
-2.06841e-10
-2.06962e-10
-2.07091e-10
-2.07232e-10
-2.07387e-10
-2.07557e-10
-2.07748e-10
-2.07961e-10
-2.08203e-10
-2.08476e-10
-2.08787e-10
-2.09142e-10
-2.09544e-10
-2.09998e-10
-2.10506e-10
-2.11065e-10
-2.11667e-10
-2.12297e-10
-2.12932e-10
-2.13538e-10
-2.14075e-10
-2.14498e-10
-2.14766e-10
-2.14846e-10
-2.14725e-10
-2.14408e-10
)
;
    }
    inandouthalf12
    {
        type            cyclic;
        value           nonuniform List<scalar> 
100
(
2.016e-10
2.00546e-10
2.00412e-10
2.00583e-10
2.00681e-10
2.0073e-10
2.00783e-10
2.00845e-10
2.00907e-10
2.0097e-10
2.01034e-10
2.01098e-10
2.01163e-10
2.01228e-10
2.01294e-10
2.0136e-10
2.01427e-10
2.01495e-10
2.01564e-10
2.01633e-10
2.01703e-10
2.01774e-10
2.01845e-10
2.01917e-10
2.0199e-10
2.02064e-10
2.02139e-10
2.02214e-10
2.0229e-10
2.02367e-10
2.02445e-10
2.02525e-10
2.02604e-10
2.02685e-10
2.02767e-10
2.0285e-10
2.02933e-10
2.03018e-10
2.03104e-10
2.0319e-10
2.03278e-10
2.03367e-10
2.03456e-10
2.03547e-10
2.03639e-10
2.03733e-10
2.03827e-10
2.03923e-10
2.0402e-10
2.04119e-10
2.04219e-10
2.04322e-10
2.04425e-10
2.04531e-10
2.04639e-10
2.04749e-10
2.04859e-10
2.04972e-10
2.05086e-10
2.052e-10
2.05316e-10
2.0543e-10
2.05545e-10
2.05658e-10
2.0577e-10
2.0588e-10
2.05989e-10
2.06096e-10
2.06201e-10
2.06304e-10
2.06408e-10
2.06512e-10
2.06617e-10
2.06727e-10
2.06841e-10
2.06962e-10
2.07091e-10
2.07232e-10
2.07387e-10
2.07557e-10
2.07748e-10
2.07961e-10
2.08203e-10
2.08476e-10
2.08787e-10
2.09142e-10
2.09544e-10
2.09998e-10
2.10506e-10
2.11065e-10
2.11667e-10
2.12297e-10
2.12932e-10
2.13538e-10
2.14075e-10
2.14498e-10
2.14766e-10
2.14846e-10
2.14725e-10
2.14408e-10
)
;
    }
    inandouthalf21
    {
        type            cyclic;
        value           nonuniform List<scalar> 
100
(
-2.13926e-10
-2.13325e-10
-2.12661e-10
-2.11989e-10
-2.11356e-10
-2.10796e-10
-2.1033e-10
-2.09963e-10
-2.09694e-10
-2.09514e-10
-2.09411e-10
-2.09373e-10
-2.09388e-10
-2.09446e-10
-2.09538e-10
-2.09658e-10
-2.09799e-10
-2.09959e-10
-2.10135e-10
-2.10323e-10
-2.10523e-10
-2.10734e-10
-2.10955e-10
-2.11186e-10
-2.11427e-10
-2.11678e-10
-2.11938e-10
-2.1221e-10
-2.12493e-10
-2.12788e-10
-2.13096e-10
-2.13418e-10
-2.13754e-10
-2.14109e-10
-2.14486e-10
-2.14887e-10
-2.15307e-10
-2.15755e-10
-2.16254e-10
-2.16826e-10
-2.17444e-10
-2.18036e-10
-2.1875e-10
-2.1968e-10
-2.20852e-10
-2.2316e-10
-2.286e-10
-2.28139e-10
-2.36412e-10
-1.45118e-09
-2.51365e-07
-3.86414e-07
-4.70072e-07
-5.2988e-07
-5.75596e-07
-6.121e-07
-6.42091e-07
-6.67232e-07
-6.88624e-07
-7.07043e-07
-7.23057e-07
-7.37099e-07
-7.49502e-07
-7.6053e-07
-7.70396e-07
-7.79272e-07
-7.873e-07
-7.94596e-07
-8.01259e-07
-8.07368e-07
-8.12993e-07
-8.18192e-07
-8.23013e-07
-8.27498e-07
-8.31683e-07
-8.35598e-07
-8.39269e-07
-8.42719e-07
-8.45968e-07
-8.49032e-07
-8.51927e-07
-8.54666e-07
-8.5726e-07
-8.59718e-07
-8.62052e-07
-8.64267e-07
-8.66373e-07
-8.68374e-07
-8.70278e-07
-8.7209e-07
-8.73814e-07
-8.75455e-07
-8.77018e-07
-8.78506e-07
-8.79922e-07
-8.81271e-07
-8.82556e-07
-8.83779e-07
-8.84942e-07
-8.8605e-07
)
;
    }
    inandouthalf22
    {
        type            cyclic;
        value           nonuniform List<scalar> 
100
(
2.13926e-10
2.13325e-10
2.12661e-10
2.11989e-10
2.11356e-10
2.10796e-10
2.1033e-10
2.09963e-10
2.09694e-10
2.09514e-10
2.09411e-10
2.09373e-10
2.09388e-10
2.09446e-10
2.09538e-10
2.09658e-10
2.09799e-10
2.09959e-10
2.10135e-10
2.10323e-10
2.10523e-10
2.10734e-10
2.10955e-10
2.11186e-10
2.11427e-10
2.11678e-10
2.11938e-10
2.1221e-10
2.12493e-10
2.12788e-10
2.13096e-10
2.13418e-10
2.13754e-10
2.14109e-10
2.14486e-10
2.14887e-10
2.15307e-10
2.15755e-10
2.16254e-10
2.16826e-10
2.17444e-10
2.18036e-10
2.1875e-10
2.1968e-10
2.20852e-10
2.2316e-10
2.286e-10
2.28139e-10
2.36412e-10
1.45118e-09
2.51365e-07
3.86414e-07
4.70072e-07
5.2988e-07
5.75596e-07
6.121e-07
6.42091e-07
6.67232e-07
6.88624e-07
7.07043e-07
7.23057e-07
7.37099e-07
7.49502e-07
7.6053e-07
7.70396e-07
7.79272e-07
7.873e-07
7.94596e-07
8.01259e-07
8.07368e-07
8.12993e-07
8.18192e-07
8.23013e-07
8.27498e-07
8.31683e-07
8.35598e-07
8.39269e-07
8.42719e-07
8.45968e-07
8.49032e-07
8.51927e-07
8.54666e-07
8.5726e-07
8.59718e-07
8.62052e-07
8.64267e-07
8.66373e-07
8.68374e-07
8.70278e-07
8.7209e-07
8.73814e-07
8.75455e-07
8.77018e-07
8.78506e-07
8.79922e-07
8.81271e-07
8.82556e-07
8.83779e-07
8.84942e-07
8.8605e-07
)
;
    }
    inandouthalf31
    {
        type            cyclic;
        value           nonuniform List<scalar> 
110
(
-8.87106e-07
-9.06144e-07
-9.25556e-07
-9.45347e-07
-9.65523e-07
-9.86088e-07
-1.00705e-06
-1.02841e-06
-1.05018e-06
-1.07236e-06
-1.09495e-06
-1.11796e-06
-1.14139e-06
-1.16525e-06
-1.18954e-06
-1.21426e-06
-1.23941e-06
-1.26499e-06
-1.29101e-06
-1.31745e-06
-1.34432e-06
-1.37161e-06
-1.39932e-06
-1.42743e-06
-1.45593e-06
-1.48481e-06
-1.51404e-06
-1.54361e-06
-1.57349e-06
-1.60365e-06
-1.63405e-06
-1.66466e-06
-1.69542e-06
-1.7263e-06
-1.75725e-06
-1.78824e-06
-1.81922e-06
-1.85019e-06
-1.88116e-06
-1.91217e-06
-1.94333e-06
-1.97476e-06
-2.00665e-06
-2.03921e-06
-2.07264e-06
-2.10713e-06
-2.14281e-06
-2.17981e-06
-2.21817e-06
-2.25794e-06
-2.29918e-06
-2.3419e-06
-2.38615e-06
-2.43196e-06
-2.47936e-06
-2.52842e-06
-2.57923e-06
-2.63205e-06
-2.68725e-06
-2.74883e-06
-2.80867e-06
-2.86597e-06
-2.92415e-06
-2.9835e-06
-3.04406e-06
-3.10585e-06
-3.16889e-06
-3.23321e-06
-3.29883e-06
-3.36579e-06
-3.43411e-06
-3.50381e-06
-3.57493e-06
-3.64749e-06
-3.72152e-06
-3.79706e-06
-3.87413e-06
-3.95277e-06
-4.033e-06
-4.11486e-06
-4.19838e-06
-4.28359e-06
-4.37054e-06
-4.45925e-06
-4.54976e-06
-4.64211e-06
-4.73633e-06
-4.83246e-06
-4.93055e-06
-5.03063e-06
-5.13274e-06
-5.23692e-06
-5.34321e-06
-5.45167e-06
-5.56232e-06
-5.67522e-06
-5.79041e-06
-5.90794e-06
-6.02786e-06
-6.15021e-06
-6.27504e-06
-6.40241e-06
-6.53236e-06
-6.66495e-06
-6.80023e-06
-6.93825e-06
-7.07908e-06
-7.22277e-06
-7.36937e-06
-7.51895e-06
)
;
    }
    inandouthalf32
    {
        type            cyclic;
        value           nonuniform List<scalar> 
110
(
8.87106e-07
9.06144e-07
9.25556e-07
9.45347e-07
9.65523e-07
9.86088e-07
1.00705e-06
1.02841e-06
1.05018e-06
1.07236e-06
1.09495e-06
1.11796e-06
1.14139e-06
1.16525e-06
1.18954e-06
1.21426e-06
1.23941e-06
1.26499e-06
1.29101e-06
1.31745e-06
1.34432e-06
1.37161e-06
1.39932e-06
1.42743e-06
1.45593e-06
1.48481e-06
1.51404e-06
1.54361e-06
1.57349e-06
1.60365e-06
1.63405e-06
1.66466e-06
1.69542e-06
1.7263e-06
1.75725e-06
1.78824e-06
1.81922e-06
1.85019e-06
1.88116e-06
1.91217e-06
1.94333e-06
1.97476e-06
2.00665e-06
2.03921e-06
2.07264e-06
2.10713e-06
2.14281e-06
2.17981e-06
2.21817e-06
2.25794e-06
2.29918e-06
2.3419e-06
2.38615e-06
2.43196e-06
2.47936e-06
2.52842e-06
2.57923e-06
2.63205e-06
2.68725e-06
2.74883e-06
2.80867e-06
2.86597e-06
2.92415e-06
2.9835e-06
3.04406e-06
3.10585e-06
3.16889e-06
3.23321e-06
3.29883e-06
3.36579e-06
3.43411e-06
3.50381e-06
3.57493e-06
3.64749e-06
3.72152e-06
3.79706e-06
3.87413e-06
3.95277e-06
4.033e-06
4.11486e-06
4.19838e-06
4.28359e-06
4.37054e-06
4.45925e-06
4.54976e-06
4.64211e-06
4.73633e-06
4.83246e-06
4.93055e-06
5.03063e-06
5.13274e-06
5.23692e-06
5.34321e-06
5.45167e-06
5.56232e-06
5.67522e-06
5.79041e-06
5.90794e-06
6.02786e-06
6.15021e-06
6.27504e-06
6.40241e-06
6.53236e-06
6.66495e-06
6.80023e-06
6.93825e-06
7.07908e-06
7.22277e-06
7.36937e-06
7.51895e-06
)
;
    }
    inandouthalf41
    {
        type            cyclic;
        value           nonuniform List<scalar> 
50
(
-6.73023e-06
-6.73023e-06
-6.73023e-06
-6.73023e-06
-6.73023e-06
-6.73023e-06
-6.73023e-06
-6.73023e-06
-6.73023e-06
-6.73023e-06
-6.73023e-06
-6.73023e-06
-6.73023e-06
-6.73023e-06
-6.73023e-06
-6.73023e-06
-6.73023e-06
-6.73023e-06
-6.73023e-06
-6.73023e-06
-6.73023e-06
-6.73023e-06
-6.73023e-06
-6.73023e-06
-6.73023e-06
-6.73023e-06
-6.73023e-06
-6.73023e-06
-6.73023e-06
-6.73023e-06
-6.73023e-06
-6.73023e-06
-6.73023e-06
-6.73023e-06
-6.73023e-06
-6.73023e-06
-6.73023e-06
-6.73023e-06
-6.73023e-06
-6.73023e-06
-6.73023e-06
-6.73023e-06
-6.73023e-06
-6.73023e-06
-6.73023e-06
-6.73023e-06
-6.73023e-06
-6.73023e-06
-6.73023e-06
-6.73023e-06
)
;
    }
    inandouthalf42
    {
        type            cyclic;
        value           nonuniform List<scalar> 
50
(
6.73023e-06
6.73023e-06
6.73023e-06
6.73023e-06
6.73023e-06
6.73023e-06
6.73023e-06
6.73023e-06
6.73023e-06
6.73023e-06
6.73023e-06
6.73023e-06
6.73023e-06
6.73023e-06
6.73023e-06
6.73023e-06
6.73023e-06
6.73023e-06
6.73023e-06
6.73023e-06
6.73023e-06
6.73023e-06
6.73023e-06
6.73023e-06
6.73023e-06
6.73023e-06
6.73023e-06
6.73023e-06
6.73023e-06
6.73023e-06
6.73023e-06
6.73023e-06
6.73023e-06
6.73023e-06
6.73023e-06
6.73023e-06
6.73023e-06
6.73023e-06
6.73023e-06
6.73023e-06
6.73023e-06
6.73023e-06
6.73023e-06
6.73023e-06
6.73023e-06
6.73023e-06
6.73023e-06
6.73023e-06
6.73023e-06
6.73023e-06
)
;
    }
    top
    {
        type            symmetryPlane;
        value           uniform 0;
    }
    walls
    {
        type            calculated;
        value           uniform 0;
    }
    frontAndBackPlanes
    {
        type            empty;
        value           nonuniform 0();
    }
}


// ************************************************************************* //
