/*--------------------------------*- C++ -*----------------------------------*\
| =========                 |                                                 |
| \\      /  F ield         | OpenFOAM: The Open Source CFD Toolbox           |
|  \\    /   O peration     | Version:  2.4.x                                 |
|   \\  /    A nd           | Web:      www.OpenFOAM.org                      |
|    \\/     M anipulation  |                                                 |
\*---------------------------------------------------------------------------*/
FoamFile
{
    version     2.0;
    format      ascii;
    class       volScalarField;
    location    "7.05";
    object      ddt0(((1.5*(alpha+1e-08))*rho),Theta);
}
// * * * * * * * * * * * * * * * * * * * * * * * * * * * * * * * * * * * * * //

dimensions      [1 -1 -3 0 0 0 0];

internalField   nonuniform List<scalar> 
360
(
-3.9318e-21
-1.33797e-20
-9.56503e-21
-8.33882e-21
-9.00006e-21
-9.63417e-21
-9.92364e-21
-1.00983e-20
-1.02825e-20
-1.05054e-20
-1.07603e-20
-1.10235e-20
-1.12781e-20
-1.15201e-20
-1.17545e-20
-1.19889e-20
-1.2225e-20
-1.24606e-20
-1.26967e-20
-1.29328e-20
-1.3168e-20
-1.34067e-20
-1.36514e-20
-1.39013e-20
-1.4157e-20
-1.44175e-20
-1.4685e-20
-1.49623e-20
-1.52447e-20
-1.55277e-20
-1.58126e-20
-1.60953e-20
-1.63725e-20
-1.66446e-20
-1.69033e-20
-1.71442e-20
-1.7372e-20
-1.75936e-20
-1.78053e-20
-1.80092e-20
-1.82249e-20
-1.84556e-20
-1.87144e-20
-1.90301e-20
-1.9413e-20
-1.98749e-20
-2.04222e-20
-2.10631e-20
-2.18264e-20
-2.2703e-20
-2.36502e-20
-2.46394e-20
-2.56267e-20
-2.65378e-20
-2.72945e-20
-2.78083e-20
-2.79768e-20
-2.77118e-20
-2.69318e-20
-2.55965e-20
-2.3702e-20
-2.12494e-20
-1.82873e-20
-1.49168e-20
-1.12989e-20
-7.65536e-21
-4.23793e-21
-1.29914e-21
9.30899e-22
2.26847e-21
2.59123e-21
1.82692e-21
-6.03545e-23
-3.09049e-21
-7.29243e-21
-1.27159e-20
-1.94463e-20
-2.76445e-20
-3.7585e-20
-4.96647e-20
-6.44464e-20
-8.27124e-20
-1.05446e-19
-1.33775e-19
-1.68871e-19
-2.1171e-19
-2.62647e-19
-3.20795e-19
-3.8328e-19
-4.44403e-19
-4.94937e-19
-5.22236e-19
-5.11715e-19
-4.50191e-19
-3.31133e-19
-1.60234e-19
4.16784e-20
2.41486e-19
4.03039e-19
4.99418e-19
5.21975e-19
4.81393e-19
4.00854e-19
3.05911e-19
2.16443e-19
1.43404e-19
8.97835e-20
5.35715e-20
3.0707e-20
1.70354e-20
9.21096e-21
4.88553e-21
2.5575e-21
1.32908e-21
6.89695e-22
3.5964e-22
1.89848e-22
1.0242e-22
5.71795e-23
3.35652e-23
2.10877e-23
1.43918e-23
1.07311e-23
8.68695e-24
7.51885e-24
6.8348e-24
6.42408e-24
6.17127e-24
6.01197e-24
5.90938e-24
5.84253e-24
5.85689e-24
1.15914e-20
-7.10823e-17
-3.76228e-16
-1.86109e-15
-9.11518e-15
-4.68381e-14
-2.76245e-13
-1.96013e-12
-1.60602e-11
-1.42587e-10
-1.33476e-09
-1.33655e-08
-1.50626e-07
-2.07045e-06
-3.83128e-05
-0.00121227
-0.0417449
-0.89566
-1.58871
-0.737238
-0.444576
-0.303652
-0.224567
-0.173275
-0.137308
-0.110874
-0.0907885
-0.0751491
-0.0627457
-0.0527668
-0.0446461
-0.0379745
-0.0324496
-0.0278423
-0.023977
-0.0207166
-0.0179533
-0.0156013
-0.0135915
-0.0118681
-0.0103856
-0.00910654
-0.00800009
-0.00704056
-0.00620655
-0.00548008
-0.00484597
-0.00429151
-0.00380572
-0.00337939
-0.00300461
-0.00267461
-0.00238358
-0.00212654
-0.00189919
-0.0016978
-0.00151917
-0.00136051
-0.00121941
-0.00109376
-0.000981718
-0.000881692
-0.000792274
-0.000712236
-0.000640497
-0.000576112
-0.000518257
-0.000466214
-0.000419349
-0.000376679
-0.000337475
-0.000301492
-0.000268489
-0.000238214
-0.000210437
-0.000184975
-0.000161668
-0.000140393
-0.000121055
-0.00010357
-8.78964e-05
-7.39873e-05
-6.17526e-05
-5.11166e-05
-4.19857e-05
-3.42341e-05
-2.7719e-05
-2.22989e-05
-1.78381e-05
-1.41863e-05
-1.12128e-05
-8.81095e-06
-6.8794e-06
-5.33107e-06
-4.09957e-06
-3.12153e-06
-2.35494e-06
-1.74822e-06
-1.28297e-06
-9.13886e-07
-6.43168e-07
-4.18007e-07
-2.70283e-07
-1.41141e-07
0
0
0
0
0
0
0
0
0
0
0
0
0
0
0
0
0
0
0
0
0
0
0
0
0
0
0
0
0
0
0
0
0
0
0
0
0
0
0
0
0
0
0
0
0
0
0
0
0
0
0
0
0
0
0
0
0
0
0
0
0
0
0
0
0
0
0
0
0
0
0
0
0
0
0
0
0
0
0
0
0
0
0
0
0
0
0
0
0
0
0
0
0
0
0
0
0
0
0
0
0
0
0
0
0
0
0
0
0
0
0
0
0
0
0
0
0
0
0
0
0
0
0
0
)
;

boundaryField
{
    inandouthalf11
    {
        type            cyclic;
    }
    inandouthalf12
    {
        type            cyclic;
    }
    inandouthalf21
    {
        type            cyclic;
    }
    inandouthalf22
    {
        type            cyclic;
    }
    inandouthalf31
    {
        type            cyclic;
    }
    inandouthalf32
    {
        type            cyclic;
    }
    inandouthalf41
    {
        type            cyclic;
    }
    inandouthalf42
    {
        type            cyclic;
    }
    top
    {
        type            symmetryPlane;
    }
    walls
    {
        type            calculated;
        value           uniform -3.9318e-21;
    }
    frontAndBackPlanes
    {
        type            empty;
    }
}


// ************************************************************************* //
