/*--------------------------------*- C++ -*----------------------------------*\
| =========                 |                                                 |
| \\      /  F ield         | OpenFOAM: The Open Source CFD Toolbox           |
|  \\    /   O peration     | Version:  2.4.x                                 |
|   \\  /    A nd           | Web:      www.OpenFOAM.org                      |
|    \\/     M anipulation  |                                                 |
\*---------------------------------------------------------------------------*/
FoamFile
{
    version     2.0;
    format      ascii;
    class       volScalarField;
    location    "7.05";
    object      k;
}
// * * * * * * * * * * * * * * * * * * * * * * * * * * * * * * * * * * * * * //

dimensions      [0 2 -2 0 0 0 0];

internalField   nonuniform List<scalar> 
360
(
1e-20
1e-20
1e-20
1e-20
1e-20
1e-20
1e-20
1e-20
1e-20
1e-20
1e-20
1e-20
1e-20
1e-20
1e-20
1e-20
1e-20
1e-20
1e-20
1e-20
1e-20
1e-20
1e-20
1e-20
1e-20
1e-20
1e-20
1e-20
1e-20
1e-20
1e-20
1e-20
1e-20
1e-20
1e-20
1e-20
1e-20
1e-20
1e-20
1e-20
1e-20
1e-20
1e-20
1e-20
1e-20
1e-20
1e-20
1e-20
1e-20
1e-20
1e-20
1e-20
1e-20
1e-20
1e-20
1e-20
1e-20
1e-20
1e-20
1e-20
1e-20
1e-20
1e-20
1e-20
1e-20
1e-20
1e-20
1e-20
1e-20
1e-20
1e-20
1e-20
1e-20
1e-20
1e-20
1e-20
1e-20
1e-20
1e-20
1e-20
1e-20
1e-20
1e-20
1e-20
1e-20
1e-20
1e-20
1e-20
1e-20
1e-20
1e-20
1e-20
1e-20
1e-20
1e-20
1e-20
1e-20
1e-20
1e-20
1e-20
1e-20
1e-20
1e-20
1e-20
1e-20
1e-20
1e-20
1e-20
1e-20
1e-20
1e-20
1e-20
1e-20
1e-20
1e-20
1e-20
1e-20
1e-20
1e-20
1e-20
1e-20
1e-20
1e-20
1e-20
1e-20
1e-20
1e-20
1e-20
1e-20
1e-20
1e-20
1e-20
1e-20
2.80797e-20
1.15908e-19
5.07104e-19
2.33533e-18
1.15329e-17
6.20816e-17
3.66226e-16
2.35927e-15
1.66097e-14
1.30657e-13
1.19134e-12
1.30345e-11
1.75934e-10
2.96974e-09
5.98873e-08
1.45928e-06
4.49057e-05
0.000690037
0.00183058
0.00262236
0.0032179
0.00369111
0.00408243
0.00441262
0.00469527
0.0049395
0.00515181
0.0053371
0.00549912
0.00564087
0.00576477
0.00587281
0.00596667
0.00604775
0.00611724
0.0061762
0.0062255
0.00626595
0.00629822
0.00632294
0.00634064
0.00635181
0.00635689
0.00635628
0.00635033
0.00633937
0.00632371
0.00630362
0.00627934
0.00625113
0.0062192
0.00618374
0.00614496
0.00610303
0.00605813
0.0060104
0.00595999
0.00590706
0.00585173
0.00579414
0.0057344
0.00567263
0.00560894
0.00554343
0.00547622
0.00540739
0.00533705
0.00526527
0.00519142
0.00511475
0.00503524
0.00495286
0.00486762
0.00477948
0.00468843
0.00459448
0.00449761
0.00439783
0.00429515
0.00418958
0.00408115
0.00396988
0.00385582
0.00373902
0.00361956
0.0034975
0.00337297
0.00324607
0.00311695
0.00298578
0.00285277
0.00271815
0.00258218
0.00244519
0.00230751
0.00216957
0.00203182
0.00189478
0.00175903
0.00162522
0.00149406
0.00136631
0.00124279
0.00112434
0.0010118
0.000906
0.000807654
0.000717352
0.000635475
0.000562146
0.000497199
0.000440177
0.000390366
0.00034686
0.00030864
0.000274658
0.0002439
0.000215447
0.000188508
0.000162451
0.000136824
0.000111383
8.61184e-05
6.13152e-05
3.76678e-05
1.64998e-05
2.92409e-06
1.31062e-07
2.97556e-09
6.09057e-11
1.17116e-12
2.11804e-14
3.60387e-16
5.77686e-18
9.40079e-20
1.02268e-20
1e-20
1e-20
1e-20
1e-20
1e-20
1e-20
1e-20
1e-20
1e-20
1e-20
1e-20
1e-20
1e-20
1e-20
1e-20
1e-20
1e-20
1e-20
1e-20
1e-20
1e-20
1e-20
1e-20
1e-20
1e-20
1e-20
1e-20
1e-20
1e-20
1e-20
1e-20
1e-20
1e-20
1e-20
1e-20
1e-20
1e-20
1e-20
1e-20
1e-20
1e-20
1e-20
1e-20
1e-20
1e-20
1e-20
1e-20
1e-20
1e-20
1e-20
1e-20
1e-20
1e-20
1e-20
1e-20
1e-20
1e-20
1e-20
1e-20
1e-20
1e-20
1e-20
1e-20
1e-20
1e-20
1e-20
1e-20
1e-20
1e-20
1e-20
1e-20
1e-20
1e-20
1e-20
1e-20
1e-20
1e-20
1e-20
1e-20
1e-20
1e-20
1e-20
1e-20
1e-20
1e-20
1e-20
1e-20
1e-20
1e-20
1e-20
1e-20
)
;

boundaryField
{
    inandouthalf11
    {
        type            cyclic;
    }
    inandouthalf12
    {
        type            cyclic;
    }
    inandouthalf21
    {
        type            cyclic;
    }
    inandouthalf22
    {
        type            cyclic;
    }
    inandouthalf31
    {
        type            cyclic;
    }
    inandouthalf32
    {
        type            cyclic;
    }
    inandouthalf41
    {
        type            cyclic;
    }
    inandouthalf42
    {
        type            cyclic;
    }
    top
    {
        type            symmetryPlane;
    }
    walls
    {
        type            zeroGradient;
    }
    frontAndBackPlanes
    {
        type            empty;
    }
}


// ************************************************************************* //
