/*--------------------------------*- C++ -*----------------------------------*\
| =========                 |                                                 |
| \\      /  F ield         | OpenFOAM: The Open Source CFD Toolbox           |
|  \\    /   O peration     | Version:  2.4.x                                 |
|   \\  /    A nd           | Web:      www.OpenFOAM.org                      |
|    \\/     M anipulation  |                                                 |
\*---------------------------------------------------------------------------*/
FoamFile
{
    version     2.0;
    format      ascii;
    class       volScalarField;
    location    "7.05";
    object      mua;
}
// * * * * * * * * * * * * * * * * * * * * * * * * * * * * * * * * * * * * * //

dimensions      [1 -1 -1 0 0 0 0];

internalField   nonuniform List<scalar> 
360
(
1.43186e+06
996703
1.2455e+06
1.30251e+06
1.2396e+06
1.20177e+06
1.18837e+06
1.17902e+06
1.1678e+06
1.15421e+06
1.1392e+06
1.12411e+06
1.10945e+06
1.09527e+06
1.08125e+06
1.0671e+06
1.05287e+06
1.03871e+06
1.02462e+06
1.0106e+06
996852
983132
969478
955958
942567
929371
916334
903314
890483
877921
865524
853300
841430
829610
818221
807181
796489
785964
775768
766131
756550
747372
738577
729698
720976
712277
703633
695104
686049
676494
666932
657069
647003
636864
626867
616958
607598
598723
590671
583473
576894
571407
567057
564229
563099
563740
566017
569879
575183
581365
587509
593311
598464
601957
603324
602163
598297
591151
580204
565210
546107
522910
496057
466351
434795
402521
370640
340163
311866
286307
263883
244853
229387
217644
209815
206166
207104
213251
225541
245351
274699
316496
374928
455981
568192
723693
939668
1.24035e+06
1.65974e+06
2.24524e+06
3.06245e+06
4.20136e+06
5.7843e+06
7.97584e+06
1.09949e+07
1.51291e+07
2.07523e+07
2.83432e+07
3.85082e+07
5.20047e+07
6.97678e+07
9.29389e+07
1.22896e+08
1.61283e+08
2.10024e+08
2.71328e+08
3.4767e+08
4.41818e+08
5.57018e+08
6.97458e+08
8.68873e+08
1.07871e+09
1.33508e+09
1.64499e+09
2.0141e+09
2.44548e+09
2.92334e+09
3.37744e+09
3.68384e+09
3.79201e+09
3.87819e+09
4.26533e+09
5.33174e+09
8.4273e+09
1.95351e+10
5.3097e+10
3813.68
867.097
248.018
0.00942035
0.00228081
0.00268974
0.00312088
0.00343821
0.00368227
0.00387751
0.00403845
0.00417399
0.00428991
0.00439018
0.00447765
0.00455443
0.00462212
0.00468198
0.00473501
0.00478201
0.00482364
0.00486044
0.00489286
0.00492129
0.00494605
0.00496742
0.00498565
0.00500095
0.00501351
0.0050235
0.00503106
0.00503633
0.00503942
0.00504047
0.00503955
0.00503677
0.00503222
0.00502597
0.0050181
0.00500869
0.0049978
0.0049855
0.00497184
0.00495688
0.00494069
0.00492331
0.0049048
0.0048852
0.00486456
0.00484293
0.00482034
0.00479685
0.00477248
0.00474729
0.0047213
0.00469428
0.00466594
0.00463625
0.0046052
0.00457273
0.00453882
0.00450341
0.00446646
0.00442791
0.00438768
0.0043457
0.00430187
0.00425609
0.00420824
0.00415817
0.00410572
0.0040507
0.00399289
0.00393205
0.00386787
0.00380003
0.0037281
0.00365163
0.00357003
0.0034826
0.00338848
0.00328657
0.00317545
0.00305325
0.00291736
0.00276404
0.00258752
0.00237812
0.00211724
0.00175914
0
0
0
0
0
0
0
0
0
0
0
0
0
0
0
0
0
0
0
0
0
0
0
0
0
0
0
0
0
0
0
0
0
0
0
0
0
0
0
0
0
0
0
0
0
0
0
0
0
0
0
0
0
0
0
0
0
0
0
0
0
0
0
0
0
0
0
0
0
0
0
0
0
0
0
0
0
0
0
0
0
0
0
0
0
0
0
0
0
0
0
0
0
0
0
0
0
0
0
0
0
0
0
0
0
0
0
0
0
0
0
0
0
0
0
0
0
0
0
0
0
0
0
0
)
;

boundaryField
{
    inandouthalf11
    {
        type            cyclic;
    }
    inandouthalf12
    {
        type            cyclic;
    }
    inandouthalf21
    {
        type            cyclic;
    }
    inandouthalf22
    {
        type            cyclic;
    }
    inandouthalf31
    {
        type            cyclic;
    }
    inandouthalf32
    {
        type            cyclic;
    }
    inandouthalf41
    {
        type            cyclic;
    }
    inandouthalf42
    {
        type            cyclic;
    }
    top
    {
        type            symmetryPlane;
    }
    walls
    {
        type            calculated;
        value           uniform 1e+30;
    }
    frontAndBackPlanes
    {
        type            empty;
    }
}


// ************************************************************************* //
