/*--------------------------------*- C++ -*----------------------------------*\
| =========                 |                                                 |
| \\      /  F ield         | OpenFOAM: The Open Source CFD Toolbox           |
|  \\    /   O peration     | Version:  2.4.x                                 |
|   \\  /    A nd           | Web:      www.OpenFOAM.org                      |
|    \\/     M anipulation  |                                                 |
\*---------------------------------------------------------------------------*/
FoamFile
{
    version     2.0;
    format      ascii;
    class       volScalarField;
    location    "7.05";
    object      nutb;
}
// * * * * * * * * * * * * * * * * * * * * * * * * * * * * * * * * * * * * * //

dimensions      [0 2 -1 0 0 0 0];

internalField   nonuniform List<scalar> 
360
(
9e-22
9e-22
9e-22
9e-22
9e-22
9e-22
9e-22
9e-22
9e-22
9e-22
9e-22
9e-22
9e-22
9e-22
9e-22
9e-22
9e-22
9e-22
9e-22
9e-22
9e-22
9e-22
9e-22
9e-22
9e-22
9e-22
9e-22
9e-22
9e-22
9e-22
9e-22
9e-22
9e-22
9e-22
9e-22
9e-22
9e-22
9e-22
9e-22
9e-22
9e-22
9e-22
9e-22
9e-22
9e-22
9e-22
9e-22
9e-22
9e-22
9e-22
9e-22
9e-22
9e-22
9e-22
9e-22
9e-22
9e-22
9e-22
9e-22
9e-22
9e-22
9e-22
9e-22
9e-22
9e-22
9e-22
9e-22
9e-22
9e-22
9e-22
9e-22
9e-22
9e-22
9e-22
9e-22
9e-22
9e-22
9e-22
9e-22
9e-22
9e-22
9e-22
9e-22
9e-22
9e-22
9e-22
9e-22
9e-22
9e-22
9e-22
9e-22
9e-22
9e-22
9e-22
9e-22
9e-22
9e-22
9e-22
9e-22
9e-22
9e-22
9e-22
9e-22
9e-22
9e-22
9e-22
9e-22
9e-22
9e-22
9e-22
9e-22
9e-22
9e-22
9e-22
9e-22
9e-22
9e-22
9e-22
9e-22
9e-22
9e-22
9e-22
9e-22
9e-22
9e-22
9e-22
9e-22
9e-22
9e-22
9e-22
9e-22
9e-22
8.9402e-22
2.03634e-21
7.63633e-21
3.02029e-20
1.24065e-19
5.40034e-19
2.54157e-18
1.30222e-17
7.20843e-17
4.28053e-16
2.78345e-15
2.06477e-14
1.81821e-13
1.97245e-12
2.70801e-11
4.38966e-10
8.472e-09
2.26939e-07
3.86419e-06
1.54051e-05
2.80535e-05
4.001e-05
5.12157e-05
6.17514e-05
7.17061e-05
8.11525e-05
9.01449e-05
9.8725e-05
0.000106925
0.000114771
0.000122284
0.000129482
0.000136378
0.000142986
0.000149317
0.000155379
0.000161183
0.000166735
0.000172044
0.000177115
0.000181955
0.00018657
0.000190966
0.000195147
0.00019912
0.000202887
0.000206456
0.000209828
0.00021301
0.000216004
0.000218816
0.000221448
0.000223904
0.000226188
0.000228304
0.000230254
0.000232042
0.000233671
0.000235143
0.000236463
0.000237633
0.000238655
0.000239532
0.000240268
0.000240864
0.000241323
0.000241648
0.00024184
0.000241904
0.00024184
0.000241643
0.000241309
0.000240831
0.000240203
0.000239421
0.000238477
0.000237367
0.000236084
0.000234623
0.000232977
0.00023114
0.000229108
0.000226873
0.000224432
0.000221777
0.000218906
0.000215812
0.000212493
0.000208945
0.000205166
0.000201154
0.000196909
0.000192433
0.000187729
0.000182802
0.000177659
0.000172312
0.000166774
0.000161062
0.0001552
0.000149214
0.000143136
0.000137006
0.000130867
0.000124767
0.000118761
0.000112901
0.000107238
0.000101811
9.66447e-05
9.17373e-05
8.70594e-05
8.2553e-05
7.81393e-05
7.37319e-05
6.92526e-05
6.46432e-05
5.98698e-05
5.4918e-05
4.97838e-05
4.44636e-05
3.89479e-05
3.32199e-05
2.72572e-05
2.10366e-05
1.45338e-05
7.69591e-06
1.70763e-06
8.54924e-08
1.94305e-09
3.94595e-11
7.53044e-13
1.35218e-14
2.28498e-16
3.61231e-18
3.89444e-20
9.4128e-22
9e-22
9e-22
9e-22
9e-22
9e-22
9e-22
9e-22
9e-22
9e-22
9e-22
9e-22
9e-22
9e-22
9e-22
9e-22
9e-22
9e-22
9e-22
9e-22
9e-22
9e-22
9e-22
9e-22
9e-22
9e-22
9e-22
9e-22
9e-22
9e-22
9e-22
9e-22
9e-22
9e-22
9e-22
9e-22
9e-22
9e-22
9e-22
9e-22
9e-22
9e-22
9e-22
9e-22
9e-22
9e-22
9e-22
9e-22
9e-22
9e-22
9e-22
9e-22
9e-22
9e-22
9e-22
9e-22
9e-22
9e-22
9e-22
9e-22
9e-22
9e-22
9e-22
9e-22
9e-22
9e-22
9e-22
9e-22
9e-22
9e-22
9e-22
9e-22
9e-22
9e-22
9e-22
9e-22
9e-22
9e-22
9e-22
9e-22
9e-22
9e-22
9e-22
9e-22
9e-22
9e-22
9e-22
9e-22
9e-22
9e-22
9e-22
9e-22
)
;

boundaryField
{
    inandouthalf11
    {
        type            cyclic;
    }
    inandouthalf12
    {
        type            cyclic;
    }
    inandouthalf21
    {
        type            cyclic;
    }
    inandouthalf22
    {
        type            cyclic;
    }
    inandouthalf31
    {
        type            cyclic;
    }
    inandouthalf32
    {
        type            cyclic;
    }
    inandouthalf41
    {
        type            cyclic;
    }
    inandouthalf42
    {
        type            cyclic;
    }
    top
    {
        type            symmetryPlane;
    }
    walls
    {
        type            calculated;
        value           uniform 0;
    }
    frontAndBackPlanes
    {
        type            empty;
    }
}


// ************************************************************************* //
