/*--------------------------------*- C++ -*----------------------------------*\
| =========                 |                                                 |
| \\      /  F ield         | OpenFOAM: The Open Source CFD Toolbox           |
|  \\    /   O peration     | Version:  2.4.x                                 |
|   \\  /    A nd           | Web:      www.OpenFOAM.org                      |
|    \\/     M anipulation  |                                                 |
\*---------------------------------------------------------------------------*/
FoamFile
{
    version     2.0;
    format      ascii;
    class       surfaceScalarField;
    location    "7.05";
    object      phia;
}
// * * * * * * * * * * * * * * * * * * * * * * * * * * * * * * * * * * * * * //

dimensions      [0 3 -1 0 0 0 0];

internalField   nonuniform List<scalar> 
359
(
-2.48071e-13
-6.32537e-13
-9.80439e-13
-1.30632e-12
-1.63798e-12
-1.97698e-12
-2.31855e-12
-2.66088e-12
-3.00412e-12
-3.34904e-12
-3.69614e-12
-4.04545e-12
-4.39695e-12
-4.75054e-12
-5.10619e-12
-5.46401e-12
-5.82408e-12
-6.18643e-12
-6.55107e-12
-6.91808e-12
-7.28737e-12
-7.65903e-12
-8.03308e-12
-8.40952e-12
-8.78838e-12
-9.16965e-12
-9.5533e-12
-9.93942e-12
-1.0328e-11
-1.07189e-11
-1.11122e-11
-1.15079e-11
-1.19057e-11
-1.2306e-11
-1.27083e-11
-1.31127e-11
-1.35189e-11
-1.3927e-11
-1.43369e-11
-1.47482e-11
-1.5161e-11
-1.5575e-11
-1.59901e-11
-1.64065e-11
-1.68239e-11
-1.72424e-11
-1.7662e-11
-1.80826e-11
-1.85046e-11
-1.89284e-11
-1.93539e-11
-1.97815e-11
-2.02112e-11
-2.06433e-11
-2.10776e-11
-2.15143e-11
-2.19528e-11
-2.23931e-11
-2.28346e-11
-2.32764e-11
-2.37183e-11
-2.41593e-11
-2.45986e-11
-2.50349e-11
-2.54669e-11
-2.58933e-11
-2.63128e-11
-2.67243e-11
-2.71271e-11
-2.75205e-11
-2.79048e-11
-2.82805e-11
-2.8648e-11
-2.90086e-11
-2.93634e-11
-2.97141e-11
-3.0062e-11
-3.04092e-11
-3.07579e-11
-3.11105e-11
-3.147e-11
-3.18398e-11
-3.22235e-11
-3.26252e-11
-3.3049e-11
-3.34993e-11
-3.39801e-11
-3.4495e-11
-3.50468e-11
-3.56371e-11
-3.62661e-11
-3.69313e-11
-3.76281e-11
-3.83483e-11
-3.90809e-11
-3.98115e-11
-4.05242e-11
-4.1202e-11
-4.18294e-11
-4.23937e-11
-4.28867e-11
-4.3305e-11
-4.365e-11
-4.3927e-11
-4.41439e-11
-4.431e-11
-4.44346e-11
-4.45265e-11
-4.45933e-11
-4.46413e-11
-4.46755e-11
-4.46997e-11
-4.47167e-11
-4.47286e-11
-4.4737e-11
-4.47429e-11
-4.4747e-11
-4.47499e-11
-4.4752e-11
-4.47534e-11
-4.47545e-11
-4.47552e-11
-4.47558e-11
-4.47562e-11
-4.47565e-11
-4.47567e-11
-4.47568e-11
-4.47569e-11
-4.4757e-11
-4.47571e-11
-4.47571e-11
-4.47572e-11
-4.47572e-11
-4.47572e-11
-4.47572e-11
-4.47572e-11
-4.47573e-11
-4.47573e-11
-4.47573e-11
-4.47573e-11
-4.47573e-11
-4.47573e-11
-4.47573e-11
-4.47573e-11
-4.47573e-11
-4.47573e-11
-4.66456e-11
-5.28043e-11
-6.65333e-11
-7.82936e-09
-1.70665e-08
-2.40855e-08
-2.96635e-08
-3.40177e-08
-3.67032e-08
-3.83941e-08
-3.94336e-08
-4.00266e-08
-4.03133e-08
-4.03902e-08
-4.03225e-08
-4.01553e-08
-3.99202e-08
-3.96394e-08
-3.9329e-08
-3.90002e-08
-3.8661e-08
-3.83168e-08
-3.79714e-08
-3.76267e-08
-3.72837e-08
-3.69423e-08
-3.66015e-08
-3.62598e-08
-3.59151e-08
-3.55652e-08
-3.52074e-08
-3.48393e-08
-3.44584e-08
-3.40621e-08
-3.36485e-08
-3.32157e-08
-3.27621e-08
-3.22865e-08
-3.17882e-08
-3.12667e-08
-3.07218e-08
-3.01536e-08
-2.95627e-08
-2.89495e-08
-2.83151e-08
-2.76604e-08
-2.69867e-08
-2.62953e-08
-2.55878e-08
-2.48659e-08
-2.41314e-08
-2.33862e-08
-2.26325e-08
-2.18724e-08
-2.11082e-08
-2.03264e-08
-1.95291e-08
-1.87185e-08
-1.78974e-08
-1.70694e-08
-1.62391e-08
-1.54118e-08
-1.45934e-08
-1.37903e-08
-1.3009e-08
-1.22559e-08
-1.15364e-08
-1.08544e-08
-1.02132e-08
-9.61461e-09
-9.05856e-09
-8.54404e-09
-8.06929e-09
-7.63215e-09
-7.22921e-09
-6.8579e-09
-6.51616e-09
-6.2016e-09
-5.91249e-09
-5.64849e-09
-5.40833e-09
-5.19423e-09
-5.00382e-09
-4.84618e-09
-4.71378e-09
-4.63496e-09
-4.57609e-09
-4.64074e-09
-4.67532e-09
-5.25122e-09
-9.42502e-10
1.58473e-09
5.50512e-09
5.76054e-09
1.31884e-08
-1.01635e-08
-1.23488e-07
-1.58292e-07
-1.58263e-07
-1.58238e-07
-1.58219e-07
-1.58205e-07
-1.58194e-07
-1.58186e-07
-1.58181e-07
-1.58178e-07
-1.58176e-07
-1.58174e-07
-1.58172e-07
-1.58168e-07
-1.5816e-07
-1.58147e-07
-1.58115e-07
-1.58076e-07
-1.58069e-07
-1.58069e-07
-1.58069e-07
-1.58069e-07
-1.58069e-07
-1.58069e-07
-1.58069e-07
-1.58069e-07
-1.58069e-07
-1.58069e-07
-1.58069e-07
-1.58069e-07
-1.58069e-07
-1.58069e-07
-1.58069e-07
-1.58069e-07
-1.58069e-07
-1.58069e-07
-1.58069e-07
-1.58069e-07
-1.58069e-07
-1.58069e-07
-1.58069e-07
-1.58069e-07
-1.58069e-07
-1.58069e-07
-1.58069e-07
-1.58069e-07
-1.58069e-07
-1.58069e-07
-1.58069e-07
-1.58069e-07
-1.58069e-07
-1.58069e-07
-1.58069e-07
-1.58069e-07
-1.58069e-07
-1.58069e-07
-1.58069e-07
-1.58069e-07
-1.58069e-07
-1.58069e-07
-1.58069e-07
-1.58069e-07
-1.58069e-07
-1.58069e-07
-1.58069e-07
-1.58069e-07
-1.58069e-07
-1.58069e-07
-1.58069e-07
-1.58069e-07
-1.58069e-07
-1.58069e-07
-1.58069e-07
-1.58069e-07
-1.58069e-07
-1.58069e-07
-1.58069e-07
-1.58069e-07
-1.58069e-07
-1.58069e-07
-1.58069e-07
-1.58069e-07
-1.58069e-07
-1.58069e-07
-1.58069e-07
-1.58069e-07
-1.58069e-07
-1.58069e-07
-1.58069e-07
-1.58069e-07
-1.58069e-07
-1.58069e-07
-1.58069e-07
-1.58069e-07
-1.58069e-07
-1.58069e-07
-1.58069e-07
-1.58069e-07
-1.58069e-07
-1.58069e-07
-1.58069e-07
-1.58069e-07
-1.58069e-07
-1.58069e-07
-1.58069e-07
-1.58069e-07
-1.58069e-07
-1.58069e-07
-1.58069e-07
-1.58069e-07
-1.58069e-07
-1.58069e-07
-1.58069e-07
-1.58069e-07
-1.58052e-07
-1.57344e-07
-1.32403e-07
)
;

boundaryField
{
    inandouthalf11
    {
        type            cyclic;
        value           nonuniform List<scalar> 
100
(
3.31228e-39
5.6268e-15
1.19071e-14
1.75937e-14
2.34514e-14
2.97128e-14
3.62718e-14
4.30563e-14
5.00618e-14
5.7303e-14
6.4795e-14
7.25468e-14
8.05619e-14
8.88417e-14
9.73884e-14
1.06206e-13
1.15302e-13
1.24679e-13
1.34344e-13
1.44301e-13
1.54555e-13
1.65109e-13
1.7597e-13
1.87143e-13
1.98633e-13
2.10445e-13
2.22584e-13
2.35055e-13
2.47865e-13
2.61018e-13
2.74518e-13
2.88371e-13
3.0258e-13
3.1715e-13
3.32084e-13
3.47384e-13
3.63051e-13
3.79087e-13
3.95495e-13
4.12273e-13
4.29421e-13
4.46941e-13
4.64831e-13
4.83094e-13
5.01735e-13
5.20759e-13
5.40172e-13
5.59979e-13
5.80193e-13
6.00837e-13
6.2193e-13
6.43487e-13
6.65529e-13
6.88072e-13
7.1113e-13
7.34713e-13
7.58822e-13
7.83452e-13
8.08589e-13
8.34207e-13
8.60284e-13
8.86788e-13
9.13673e-13
9.40877e-13
9.68324e-13
9.95926e-13
1.02359e-12
1.05125e-12
1.0788e-12
1.10621e-12
1.13344e-12
1.1605e-12
1.18741e-12
1.21423e-12
1.24102e-12
1.2679e-12
1.29498e-12
1.32239e-12
1.35029e-12
1.37891e-12
1.40849e-12
1.43931e-12
1.47174e-12
1.50616e-12
1.54301e-12
1.58278e-12
1.62597e-12
1.67307e-12
1.72456e-12
1.78084e-12
1.84219e-12
1.90871e-12
1.98026e-12
2.05634e-12
2.13608e-12
2.2182e-12
2.30101e-12
2.38257e-12
2.46082e-12
2.53383e-12
)
;
    }
    inandouthalf12
    {
        type            cyclic;
        value           nonuniform List<scalar> 
100
(
-3.31228e-39
-5.6268e-15
-1.19071e-14
-1.75937e-14
-2.34514e-14
-2.97128e-14
-3.62718e-14
-4.30563e-14
-5.00618e-14
-5.7303e-14
-6.4795e-14
-7.25468e-14
-8.05619e-14
-8.88417e-14
-9.73884e-14
-1.06206e-13
-1.15302e-13
-1.24679e-13
-1.34344e-13
-1.44301e-13
-1.54555e-13
-1.65109e-13
-1.7597e-13
-1.87143e-13
-1.98633e-13
-2.10445e-13
-2.22584e-13
-2.35055e-13
-2.47865e-13
-2.61018e-13
-2.74518e-13
-2.88371e-13
-3.0258e-13
-3.1715e-13
-3.32084e-13
-3.47384e-13
-3.63051e-13
-3.79087e-13
-3.95495e-13
-4.12273e-13
-4.29421e-13
-4.46941e-13
-4.64831e-13
-4.83094e-13
-5.01735e-13
-5.20759e-13
-5.40172e-13
-5.59979e-13
-5.80193e-13
-6.00837e-13
-6.2193e-13
-6.43487e-13
-6.65529e-13
-6.88072e-13
-7.1113e-13
-7.34713e-13
-7.58822e-13
-7.83452e-13
-8.08589e-13
-8.34207e-13
-8.60284e-13
-8.86788e-13
-9.13673e-13
-9.40877e-13
-9.68324e-13
-9.95926e-13
-1.02359e-12
-1.05125e-12
-1.0788e-12
-1.10621e-12
-1.13344e-12
-1.1605e-12
-1.18741e-12
-1.21423e-12
-1.24102e-12
-1.2679e-12
-1.29498e-12
-1.32239e-12
-1.35029e-12
-1.37891e-12
-1.40849e-12
-1.43931e-12
-1.47174e-12
-1.50616e-12
-1.54301e-12
-1.58278e-12
-1.62597e-12
-1.67307e-12
-1.72456e-12
-1.78084e-12
-1.84219e-12
-1.90871e-12
-1.98026e-12
-2.05634e-12
-2.13608e-12
-2.2182e-12
-2.30101e-12
-2.38257e-12
-2.46082e-12
-2.53383e-12
)
;
    }
    inandouthalf21
    {
        type            cyclic;
        value           nonuniform List<scalar> 
100
(
2.6e-12
2.65824e-12
2.70806e-12
2.74951e-12
2.78312e-12
2.80975e-12
2.8304e-12
2.84613e-12
2.85793e-12
2.86667e-12
2.87307e-12
2.87773e-12
2.88111e-12
2.88355e-12
2.88531e-12
2.88657e-12
2.88749e-12
2.88816e-12
2.88864e-12
2.889e-12
2.88926e-12
2.88945e-12
2.88959e-12
2.8897e-12
2.88978e-12
2.88984e-12
2.88989e-12
2.88993e-12
2.88996e-12
2.88998e-12
2.89e-12
2.89001e-12
2.89002e-12
2.89003e-12
2.89004e-12
2.89004e-12
2.89005e-12
2.89005e-12
2.89005e-12
2.89005e-12
2.89006e-12
2.89006e-12
2.89006e-12
2.89006e-12
2.89006e-12
2.89006e-12
2.89006e-12
2.74184e-12
2.49632e-12
3.12901e-12
2.51297e-08
5.29481e-08
7.13146e-08
8.56309e-08
9.78081e-08
1.08641e-07
1.18534e-07
1.2772e-07
1.36346e-07
1.44511e-07
1.52286e-07
1.59725e-07
1.66867e-07
1.73745e-07
1.80385e-07
1.86807e-07
1.93029e-07
1.99064e-07
2.04926e-07
2.10623e-07
2.16165e-07
2.21559e-07
2.26811e-07
2.31926e-07
2.3691e-07
2.41766e-07
2.46499e-07
2.5111e-07
2.55604e-07
2.59982e-07
2.64247e-07
2.68401e-07
2.72446e-07
2.76382e-07
2.80212e-07
2.83937e-07
2.87557e-07
2.91074e-07
2.94488e-07
2.97801e-07
3.01013e-07
3.04123e-07
3.07134e-07
3.10044e-07
3.12855e-07
3.15566e-07
3.18177e-07
3.20689e-07
3.23101e-07
3.25414e-07
)
;
    }
    inandouthalf22
    {
        type            cyclic;
        value           nonuniform List<scalar> 
100
(
-2.6e-12
-2.65824e-12
-2.70806e-12
-2.74951e-12
-2.78312e-12
-2.80975e-12
-2.8304e-12
-2.84613e-12
-2.85793e-12
-2.86667e-12
-2.87307e-12
-2.87773e-12
-2.88111e-12
-2.88355e-12
-2.88531e-12
-2.88657e-12
-2.88749e-12
-2.88816e-12
-2.88864e-12
-2.889e-12
-2.88926e-12
-2.88945e-12
-2.88959e-12
-2.8897e-12
-2.88978e-12
-2.88984e-12
-2.88989e-12
-2.88993e-12
-2.88996e-12
-2.88998e-12
-2.89e-12
-2.89001e-12
-2.89002e-12
-2.89003e-12
-2.89004e-12
-2.89004e-12
-2.89005e-12
-2.89005e-12
-2.89005e-12
-2.89005e-12
-2.89006e-12
-2.89006e-12
-2.89006e-12
-2.89006e-12
-2.89006e-12
-2.89006e-12
-2.89006e-12
-2.74184e-12
-2.49632e-12
-3.12901e-12
-2.51297e-08
-5.29481e-08
-7.13146e-08
-8.56309e-08
-9.78081e-08
-1.08641e-07
-1.18534e-07
-1.2772e-07
-1.36346e-07
-1.44511e-07
-1.52286e-07
-1.59725e-07
-1.66867e-07
-1.73745e-07
-1.80385e-07
-1.86807e-07
-1.93029e-07
-1.99064e-07
-2.04926e-07
-2.10623e-07
-2.16165e-07
-2.21559e-07
-2.26811e-07
-2.31926e-07
-2.3691e-07
-2.41766e-07
-2.46499e-07
-2.5111e-07
-2.55604e-07
-2.59982e-07
-2.64247e-07
-2.68401e-07
-2.72446e-07
-2.76382e-07
-2.80212e-07
-2.83937e-07
-2.87557e-07
-2.91074e-07
-2.94488e-07
-2.97801e-07
-3.01013e-07
-3.04123e-07
-3.07134e-07
-3.10044e-07
-3.12855e-07
-3.15566e-07
-3.18177e-07
-3.20689e-07
-3.23101e-07
-3.25414e-07
)
;
    }
    inandouthalf31
    {
        type            cyclic;
        value           nonuniform List<scalar> 
110
(
3.27628e-07
3.36456e-07
3.45447e-07
3.54601e-07
3.63916e-07
3.73393e-07
3.8303e-07
3.92828e-07
4.02785e-07
4.12902e-07
4.23181e-07
4.33622e-07
4.44228e-07
4.55002e-07
4.65949e-07
4.77076e-07
4.88389e-07
4.99897e-07
5.11608e-07
5.23532e-07
5.3568e-07
5.48062e-07
5.60688e-07
5.73571e-07
5.86719e-07
6.00143e-07
6.13853e-07
6.27857e-07
6.4216e-07
6.56767e-07
6.71679e-07
6.86894e-07
7.02395e-07
7.18176e-07
7.34185e-07
7.50357e-07
7.67116e-07
1.00396e-06
1.02822e-06
1.05236e-06
1.07681e-06
1.1001e-06
1.12307e-06
1.14547e-06
1.16928e-06
1.19303e-06
1.21664e-06
1.24018e-06
1.26369e-06
1.28721e-06
1.31077e-06
1.33442e-06
1.35823e-06
1.38225e-06
1.40658e-06
1.43131e-06
1.45658e-06
1.48255e-06
1.50947e-06
1.53842e-06
1.56932e-06
1.60116e-06
1.63366e-06
1.66682e-06
1.70065e-06
1.73517e-06
1.77039e-06
1.80632e-06
1.84298e-06
1.88039e-06
1.91856e-06
1.9575e-06
1.99723e-06
2.03777e-06
2.07913e-06
2.12133e-06
2.16439e-06
2.20832e-06
2.25314e-06
2.29888e-06
2.34554e-06
2.39314e-06
2.44172e-06
2.49128e-06
2.54185e-06
2.59344e-06
2.64608e-06
2.69979e-06
2.75459e-06
2.8105e-06
2.86754e-06
2.92575e-06
2.98513e-06
3.04572e-06
3.10754e-06
3.17062e-06
3.23497e-06
3.30063e-06
3.36763e-06
3.43598e-06
3.50572e-06
3.57688e-06
3.64948e-06
3.72355e-06
3.79913e-06
3.87624e-06
3.95492e-06
4.0352e-06
4.1171e-06
4.20067e-06
)
;
    }
    inandouthalf32
    {
        type            cyclic;
        value           nonuniform List<scalar> 
110
(
-3.27628e-07
-3.36456e-07
-3.45447e-07
-3.54601e-07
-3.63916e-07
-3.73393e-07
-3.8303e-07
-3.92828e-07
-4.02785e-07
-4.12902e-07
-4.23181e-07
-4.33622e-07
-4.44228e-07
-4.55002e-07
-4.65949e-07
-4.77076e-07
-4.88389e-07
-4.99897e-07
-5.11608e-07
-5.23532e-07
-5.3568e-07
-5.48062e-07
-5.60688e-07
-5.73571e-07
-5.86719e-07
-6.00143e-07
-6.13853e-07
-6.27857e-07
-6.4216e-07
-6.56767e-07
-6.71679e-07
-6.86894e-07
-7.02395e-07
-7.18176e-07
-7.34185e-07
-7.50357e-07
-7.67116e-07
-1.00396e-06
-1.02822e-06
-1.05236e-06
-1.07681e-06
-1.1001e-06
-1.12307e-06
-1.14547e-06
-1.16928e-06
-1.19303e-06
-1.21664e-06
-1.24018e-06
-1.26369e-06
-1.28721e-06
-1.31077e-06
-1.33442e-06
-1.35823e-06
-1.38225e-06
-1.40658e-06
-1.43131e-06
-1.45658e-06
-1.48255e-06
-1.50947e-06
-1.53842e-06
-1.56932e-06
-1.60116e-06
-1.63366e-06
-1.66682e-06
-1.70065e-06
-1.73517e-06
-1.77039e-06
-1.80632e-06
-1.84298e-06
-1.88039e-06
-1.91856e-06
-1.9575e-06
-1.99723e-06
-2.03777e-06
-2.07913e-06
-2.12133e-06
-2.16439e-06
-2.20832e-06
-2.25314e-06
-2.29888e-06
-2.34554e-06
-2.39314e-06
-2.44172e-06
-2.49128e-06
-2.54185e-06
-2.59344e-06
-2.64608e-06
-2.69979e-06
-2.75459e-06
-2.8105e-06
-2.86754e-06
-2.92575e-06
-2.98513e-06
-3.04572e-06
-3.10754e-06
-3.17062e-06
-3.23497e-06
-3.30063e-06
-3.36763e-06
-3.43598e-06
-3.50572e-06
-3.57688e-06
-3.64948e-06
-3.72355e-06
-3.79913e-06
-3.87624e-06
-3.95492e-06
-4.0352e-06
-4.1171e-06
-4.20067e-06
)
;
    }
    inandouthalf41
    {
        type            cyclic;
        value           nonuniform List<scalar> 
50
(
3.76002e-06
3.76002e-06
3.76002e-06
3.76002e-06
3.76002e-06
3.76002e-06
3.76002e-06
3.76002e-06
3.76002e-06
3.76002e-06
3.76002e-06
3.76002e-06
3.76002e-06
3.76002e-06
3.76002e-06
3.76002e-06
3.76002e-06
3.76002e-06
3.76002e-06
3.76002e-06
3.76002e-06
3.76002e-06
3.76002e-06
3.76002e-06
3.76002e-06
3.76002e-06
3.76002e-06
3.76002e-06
3.76002e-06
3.76002e-06
3.76002e-06
3.76002e-06
3.76002e-06
3.76002e-06
3.76002e-06
3.76002e-06
3.76002e-06
3.76002e-06
3.76002e-06
3.76002e-06
3.76002e-06
3.76002e-06
3.76002e-06
3.76002e-06
3.76002e-06
3.76002e-06
3.76002e-06
3.76003e-06
3.76021e-06
3.76447e-06
)
;
    }
    inandouthalf42
    {
        type            cyclic;
        value           nonuniform List<scalar> 
50
(
-3.76002e-06
-3.76002e-06
-3.76002e-06
-3.76002e-06
-3.76002e-06
-3.76002e-06
-3.76002e-06
-3.76002e-06
-3.76002e-06
-3.76002e-06
-3.76002e-06
-3.76002e-06
-3.76002e-06
-3.76002e-06
-3.76002e-06
-3.76002e-06
-3.76002e-06
-3.76002e-06
-3.76002e-06
-3.76002e-06
-3.76002e-06
-3.76002e-06
-3.76002e-06
-3.76002e-06
-3.76002e-06
-3.76002e-06
-3.76002e-06
-3.76002e-06
-3.76002e-06
-3.76002e-06
-3.76002e-06
-3.76002e-06
-3.76002e-06
-3.76002e-06
-3.76002e-06
-3.76002e-06
-3.76002e-06
-3.76002e-06
-3.76002e-06
-3.76002e-06
-3.76002e-06
-3.76002e-06
-3.76002e-06
-3.76002e-06
-3.76002e-06
-3.76002e-06
-3.76002e-06
-3.76003e-06
-3.76021e-06
-3.76447e-06
)
;
    }
    top
    {
        type            symmetryPlane;
        value           uniform 0;
    }
    walls
    {
        type            fixedValue;
        value           uniform 0;
    }
    frontAndBackPlanes
    {
        type            empty;
        value           nonuniform 0();
    }
}


// ************************************************************************* //
