/*--------------------------------*- C++ -*----------------------------------*\
| =========                 |                                                 |
| \\      /  F ield         | OpenFOAM: The Open Source CFD Toolbox           |
|  \\    /   O peration     | Version:  2.4.x                                 |
|   \\  /    A nd           | Web:      www.OpenFOAM.org                      |
|    \\/     M anipulation  |                                                 |
\*---------------------------------------------------------------------------*/
FoamFile
{
    version     2.0;
    format      ascii;
    class       volVectorField;
    location    "7.05";
    object      susb;
}
// * * * * * * * * * * * * * * * * * * * * * * * * * * * * * * * * * * * * * //

dimensions      [0 1 -2 0 0 0 0];

internalField   nonuniform List<vector> 
360
(
(0 5.57971e-18 0)
(0 6.34042e-18 0)
(0 1.56205e-19 0)
(0 -8.97704e-19 0)
(-3.69588e-31 -4.42621e-19 0)
(-3.69545e-31 -2.45443e-19 0)
(-3.695e-31 -2.8106e-19 0)
(0 -3.14214e-19 0)
(-3.69387e-31 -3.22006e-19 0)
(0 -3.27788e-19 0)
(-3.69269e-31 -3.29634e-19 0)
(0 -3.30285e-19 0)
(-7.38302e-31 -3.32215e-19 0)
(0 -3.34453e-19 0)
(0 -3.3816e-19 0)
(0 -3.42107e-19 0)
(0 -3.45073e-19 0)
(-3.68846e-31 -3.47522e-19 0)
(0 -3.51587e-19 0)
(0 -3.54103e-19 0)
(0 -3.56786e-19 0)
(-3.68592e-31 -3.61128e-19 0)
(0 -3.64011e-19 0)
(0 -3.67464e-19 0)
(0 -3.7098e-19 0)
(-7.36657e-31 -3.73637e-19 0)
(0 -3.77723e-19 0)
(0 -3.81989e-19 0)
(0 -3.84691e-19 0)
(0 -3.8796e-19 0)
(0 -3.93075e-19 0)
(0 -3.95201e-19 0)
(0 -3.99868e-19 0)
(0 -4.04589e-19 0)
(0 -4.0703e-19 0)
(3.67625e-31 -4.11155e-19 0)
(0 -4.15015e-19 0)
(0 -4.21439e-19 0)
(0 -4.22563e-19 0)
(0 -4.2732e-19 0)
(0 -4.34334e-19 0)
(0 -4.346e-19 0)
(3.67091e-31 -4.4084e-19 0)
(0 -4.46519e-19 0)
(0 -4.49506e-19 0)
(0 -4.5624e-19 0)
(0 -4.58154e-19 0)
(0 -4.62207e-19 0)
(0 -4.72405e-19 0)
(0 -4.75156e-19 0)
(3.66432e-31 -4.78902e-19 0)
(0 -4.86154e-19 0)
(0 -4.91848e-19 0)
(0 -4.96068e-19 0)
(0 -5.03197e-19 0)
(0 -5.08723e-19 0)
(0 -5.13652e-19 0)
(0 -5.21445e-19 0)
(0 -5.23566e-19 0)
(0 -5.32737e-19 0)
(0 -5.39736e-19 0)
(0 -5.45172e-19 0)
(0 -5.5303e-19 0)
(0 -5.58002e-19 0)
(0 -5.63838e-19 0)
(0 -5.70222e-19 0)
(0 -5.77821e-19 0)
(0 -5.83492e-19 0)
(0 -5.87592e-19 0)
(0 -5.96622e-19 0)
(0 -6.08188e-19 0)
(0 -6.12012e-19 0)
(0 -6.19983e-19 0)
(0 -6.30941e-19 0)
(0 -6.39966e-19 0)
(0 -6.48072e-19 0)
(0 -6.54938e-19 0)
(0 -6.65444e-19 0)
(0 -6.76117e-19 0)
(0 -6.85806e-19 0)
(0 -6.9692e-19 0)
(0 -7.10127e-19 0)
(0 -7.22873e-19 0)
(0 -7.3608e-19 0)
(0 -7.49595e-19 0)
(0 -7.63409e-19 0)
(0 -7.77153e-19 0)
(0 -7.90662e-19 0)
(0 -8.05177e-19 0)
(0 -8.20242e-19 0)
(0 -8.35563e-19 0)
(0 -8.51719e-19 0)
(0 -8.68449e-19 0)
(0 -8.85148e-19 0)
(0 -9.0184e-19 0)
(0 -9.18413e-19 0)
(0 -9.34776e-19 0)
(0 -9.51068e-19 0)
(0 -9.6759e-19 0)
(0 -9.84594e-19 0)
(0 -1.00235e-18 0)
(0 -1.02117e-18 0)
(0 -1.04125e-18 0)
(0 -1.06268e-18 0)
(0 -1.08556e-18 0)
(0 -1.10994e-18 0)
(0 -1.13583e-18 0)
(0 -1.16324e-18 0)
(0 -1.19219e-18 0)
(0 -1.22265e-18 0)
(0 -1.25464e-18 0)
(0 -1.28817e-18 0)
(0 -1.32325e-18 0)
(0 -1.35995e-18 0)
(0 -1.39829e-18 0)
(0 -1.43836e-18 0)
(0 -1.48023e-18 0)
(0 -1.52399e-18 0)
(0 -1.56976e-18 0)
(0 -1.61764e-18 0)
(0 -1.66774e-18 0)
(0 -1.72014e-18 0)
(0 -1.77493e-18 0)
(0 -1.83229e-18 0)
(0 -1.89264e-18 0)
(0 -1.9568e-18 0)
(0 -2.0259e-18 0)
(0 -2.10097e-18 0)
(0 -2.18203e-18 0)
(0 -2.26766e-18 0)
(0 -2.35677e-18 0)
(0 -2.45374e-18 0)
(0 -2.55393e-18 0)
(0 -6.14678e-18 0)
(0 -2.43944e-17 0)
(0 -1.01466e-16 0)
(0 -4.39387e-16 0)
(0 -2.07476e-15 0)
(0 -1.1001e-14 0)
(0 -6.24467e-14 0)
(0 -3.49707e-13 0)
(0 -2.225e-12 0)
(0 -1.80811e-11 0)
(0 -1.69613e-10 0)
(0 -2.38729e-09 0)
(0 -6.53992e-08 0)
(0 -8.83909e-07 0)
(0 -1.04594e-05 0)
(0 -0.00423344 0)
(0 -0.429223 0)
(0 -0.915322 0)
(0 -0.656706 0)
(0 -0.331312 0)
(0 -0.209048 0)
(0 -0.145558 0)
(0 -0.110046 0)
(0 -0.0870203 0)
(0 -0.070834 0)
(0 -0.0589153 0)
(0 -0.0498145 0)
(0 -0.0426549 0)
(0 -0.0368903 0)
(0 -0.0321638 0)
(0 -0.0282308 0)
(0 -0.0249177 0)
(0 -0.0220982 0)
(0 -0.0196775 0)
(0 -0.0175835 0)
(0 -0.0157601 0)
(0 -0.0141629 0)
(0 -0.0127569 0)
(0 -0.0115136 0)
(0 -0.0104099 0)
(0 -0.0094271 0)
(0 -0.00854943 0)
(0 -0.00776393 0)
(0 -0.00705966 0)
(0 -0.00642732 0)
(0 -0.00585896 0)
(0 -0.00534769 0)
(0 -0.00488747 0)
(0 -0.00447299 0)
(0 -0.00409955 0)
(0 -0.00376291 0)
(0 -0.00345929 0)
(0 -0.00318526 0)
(0 -0.00293775 0)
(0 -0.00271399 0)
(0 -0.00251149 0)
(0 -0.00232802 0)
(0 -0.0021616 0)
(0 -0.00201047 0)
(0 -0.00187308 0)
(0 -0.00174808 0)
(0 -0.00163429 0)
(0 -0.00153064 0)
(0 -0.00143615 0)
(0 -0.00134982 0)
(0 -0.00127063 0)
(0 -0.00119777 0)
(0 -0.00113074 0)
(0 -0.00106832 0)
(-5.35896e-19 -0.00100945 0)
(0 -0.000954232 0)
(0 -0.000903133 0)
(5.24034e-19 -0.000856345 0)
(0 -0.000812841 0)
(-5.15461e-19 -0.000771493 0)
(0 -0.000731247 0)
(2.53024e-19 -0.000690815 0)
(0 -0.000649323 0)
(0 -0.0006055 0)
(0 -0.000558446 0)
(0 -0.000509302 0)
(0 -0.000458854 0)
(0 -0.000407423 0)
(0 -0.000356597 0)
(0 -0.000308119 0)
(0 -0.000262984 0)
(-5.46669e-20 -0.000221569 0)
(0 -0.000184764 0)
(-5.22266e-20 -0.000153067 0)
(0 -0.000125775 0)
(-2.47601e-20 -0.000102537 0)
(0 -8.32031e-05 0)
(0 -6.7099e-05 0)
(0 -5.38166e-05 0)
(0 -4.28374e-05 0)
(1.0424e-20 -3.40358e-05 0)
(9.99578e-21 -2.67818e-05 0)
(0 -2.1102e-05 0)
(0 -1.62778e-05 0)
(0 -1.29762e-05 0)
(0 -9.67789e-06 0)
(0 -7.2437e-06 0)
(0 -3.19245e-06 0)
(0 -2.74449e-06 0)
(0 -2.85139e-06 0)
(0 -2.12301e-06 0)
(0 -1.26291e-06 0)
(0 -6.58127e-07 0)
(0 -3.74344e-07 0)
(0 -1.80749e-07 0)
(-6.27996e-46 -1.70674e-18 0)
(2.27963e-48 -2.0421e-30 0)
(0 -1.01035e-32 0)
(0 -6.24827e-33 0)
(-2.25007e-49 -1.65532e-33 0)
(0 -6.6774e-34 0)
(0 -3.04273e-34 0)
(0 -1.65315e-34 0)
(0 -1.29406e-34 0)
(0 -1.17076e-34 0)
(0 -7.1315e-35 0)
(0 -2.45659e-35 0)
(0 -8.19142e-36 0)
(0 -3.02869e-36 0)
(0 -1.1641e-36 0)
(0 -4.42648e-37 0)
(0 -6.61997e-38 0)
(0 -1.54601e-39 0)
(0 -1.55301e-41 0)
(0 -1.59193e-43 0)
(0 -1.66689e-45 0)
(0 -1.61255e-47 0)
(0 -1.30735e-49 0)
(2.4445e-67 -1.02068e-51 0)
(0 -5.4269e-54 0)
(0 -6.36513e-56 0)
(0 -2.90216e-56 0)
(0 -1.35916e-56 0)
(0 -6.2477e-57 0)
(0 -2.81708e-57 0)
(0 -1.24515e-57 0)
(0 -5.39123e-58 0)
(0 -2.28495e-58 0)
(0 -9.47225e-59 0)
(0 -3.8376e-59 0)
(0 -1.51816e-59 0)
(0 -5.85902e-60 0)
(0 -2.2037e-60 0)
(0 -8.06947e-61 0)
(0 -2.8735e-61 0)
(0 -9.93863e-62 0)
(0 -3.33449e-62 0)
(0 -1.0837e-62 0)
(6.072e-79 -3.40655e-63 0)
(0 -1.03402e-63 0)
(0 -3.02541e-64 0)
(0 -8.51588e-65 0)
(0 -2.30113e-65 0)
(0 -5.95523e-66 0)
(0 -1.47222e-66 0)
(0 -3.46664e-67 0)
(0 -7.74998e-68 0)
(0 -1.63894e-68 0)
(0 -3.26513e-69 0)
(0 -6.09886e-70 0)
(0 -1.06225e-70 0)
(0 -1.71411e-71 0)
(0 -2.5432e-72 0)
(0 -3.4376e-73 0)
(0 -4.18555e-74 0)
(0 -4.52571e-75 0)
(0 -4.26597e-76 0)
(0 -3.41878e-77 0)
(0 -2.24749e-78 0)
(0 -1.14655e-79 0)
(0 -4.11538e-81 0)
(0 -8.32222e-83 0)
(0 -3.06992e-85 0)
(0 -1.47513e-89 0)
(0 -1.39708e-91 0)
(0 -6.5633e-94 0)
(0 -2.20486e-104 0)
(0 -3.68961e-115 0)
(0 -4.39838e-126 0)
(0 -3.78314e-137 0)
(0 -2.74936e-148 0)
(0 -1.52695e-159 0)
(0 -7.28252e-171 0)
(0 -7.57556e-181 0)
(0 -3.1184e-191 0)
(0 -2.53199e-199 0)
(0 -9.30133e-210 0)
(0 -8.70921e-218 0)
(0 -3.72045e-228 0)
(0 -2.99645e-236 0)
(0 -1.56596e-246 0)
(0 -1.03184e-254 0)
(0 -9.85646e-265 0)
(0 -3.6024e-273 0)
(0 -6.41896e-283 0)
(0 -1.28252e-291 0)
(0 -3.15488e-301 0)
(0 -4.65045e-310 0)
(0 -1.49223e-319 0)
(0 -0 0)
(0 0 0)
(0 0 0)
(0 0 0)
(0 0 0)
(0 0 0)
(0 0 0)
(0 0 0)
(0 0 0)
(0 0 0)
(0 0 0)
(0 0 0)
(0 0 0)
(0 0 0)
(0 0 0)
(0 0 0)
(0 0 0)
(0 0 0)
(0 0 0)
(0 0 0)
(0 0 0)
(0 0 0)
(0 0 0)
)
;

boundaryField
{
    inandouthalf11
    {
        type            cyclic;
    }
    inandouthalf12
    {
        type            cyclic;
    }
    inandouthalf21
    {
        type            cyclic;
    }
    inandouthalf22
    {
        type            cyclic;
    }
    inandouthalf31
    {
        type            cyclic;
    }
    inandouthalf32
    {
        type            cyclic;
    }
    inandouthalf41
    {
        type            cyclic;
    }
    inandouthalf42
    {
        type            cyclic;
    }
    top
    {
        type            symmetryPlane;
    }
    walls
    {
        type            zeroGradient;
    }
    frontAndBackPlanes
    {
        type            empty;
    }
}


// ************************************************************************* //
