/*--------------------------------*- C++ -*----------------------------------*\
| =========                 |                                                 |
| \\      /  F ield         | OpenFOAM: The Open Source CFD Toolbox           |
|  \\    /   O peration     | Version:  2.4.x                                 |
|   \\  /    A nd           | Web:      www.OpenFOAM.org                      |
|    \\/     M anipulation  |                                                 |
\*---------------------------------------------------------------------------*/
FoamFile
{
    version     2.0;
    format      ascii;
    class       volTensorField;
    location    "7.05";
    object      Taus;
}
// * * * * * * * * * * * * * * * * * * * * * * * * * * * * * * * * * * * * * //

dimensions      [0 2 -2 0 0 0 0];

internalField   nonuniform List<tensor> 
360
(
(0 -0.00497775 0 -0.00497775 -0.203619 0 0 0 0)
(0 -0.00732268 0 -0.00732268 -0.255125 0 0 0 0)
(0 -0.00919495 0 -0.00919495 -0.262666 0 0 0 0)
(0 -0.00927751 0 -0.00927751 -0.256563 0 0 0 0)
(2.41355e-18 -0.00926972 0 -0.00926972 -0.253198 0 0 0 0)
(4.67991e-18 -0.00950713 0 -0.00950713 -0.251942 0 0 0 0)
(4.62788e-18 -0.00978501 0 -0.00978501 -0.250616 0 0 0 0)
(0 -0.0100333 0 -0.0100333 -0.249007 0 0 0 0)
(4.54811e-18 -0.0102673 0 -0.0102673 -0.247365 0 0 0 0)
(0 -0.0104947 0 -0.0104947 -0.2457 0 0 0 0)
(8.87415e-18 -0.0107176 0 -0.0107176 -0.244021 0 0 0 0)
(0 -0.0109391 0 -0.0109391 -0.24236 0 0 0 0)
(8.64308e-18 -0.0111584 0 -0.0111584 -0.240697 0 0 0 0)
(0 -0.0113754 0 -0.0113754 -0.239038 0 0 0 0)
(0 -0.0115895 0 -0.0115895 -0.237375 0 0 0 0)
(0 -0.0117997 0 -0.0117997 -0.235703 0 0 0 0)
(0 -0.0120064 0 -0.0120064 -0.234025 0 0 0 0)
(1.61871e-17 -0.0122108 0 -0.0122108 -0.232348 0 0 0 0)
(0 -0.0124123 0 -0.0124123 -0.23067 0 0 0 0)
(0 -0.0126103 0 -0.0126103 -0.228978 0 0 0 0)
(0 -0.0128069 0 -0.0128069 -0.2273 0 0 0 0)
(3.06472e-17 -0.0129999 0 -0.0129999 -0.225607 0 0 0 0)
(0 -0.0131902 0 -0.0131902 -0.223913 0 0 0 0)
(0 -0.0133781 0 -0.0133781 -0.222219 0 0 0 0)
(0 -0.0135632 0 -0.0135632 -0.220519 0 0 0 0)
(2.89763e-17 -0.0137461 0 -0.0137461 -0.218817 0 0 0 0)
(0 -0.0139269 0 -0.0139269 -0.217118 0 0 0 0)
(0 -0.0141042 0 -0.0141042 -0.215406 0 0 0 0)
(0 -0.0142793 0 -0.0142793 -0.213696 0 0 0 0)
(0 -0.0144529 0 -0.0144529 -0.211986 0 0 0 0)
(0 -0.0146237 0 -0.0146237 -0.210274 0 0 0 0)
(0 -0.0147914 0 -0.0147914 -0.208547 0 0 0 0)
(0 -0.0149591 0 -0.0149591 -0.206843 0 0 0 0)
(0 -0.0151214 0 -0.0151214 -0.205104 0 0 0 0)
(0 -0.0152836 0 -0.0152836 -0.203388 0 0 0 0)
(-5.03565e-17 -0.0154433 0 -0.0154433 -0.201656 0 0 0 0)
(0 -0.0156017 0 -0.0156017 -0.199934 0 0 0 0)
(0 -0.0157562 0 -0.0157562 -0.198199 0 0 0 0)
(0 -0.0159082 0 -0.0159082 -0.196454 0 0 0 0)
(0 -0.0160618 0 -0.0160618 -0.194738 0 0 0 0)
(0 -0.0162089 0 -0.0162089 -0.192984 0 0 0 0)
(0 -0.0163558 0 -0.0163558 -0.191243 0 0 0 0)
(-4.60928e-17 -0.016503 0 -0.016503 -0.189515 0 0 0 0)
(0 -0.0166443 0 -0.0166443 -0.187756 0 0 0 0)
(0 -0.0167855 0 -0.0167855 -0.186015 0 0 0 0)
(0 -0.0169237 0 -0.0169237 -0.184264 0 0 0 0)
(0 -0.0170596 0 -0.0170596 -0.182503 0 0 0 0)
(0 -0.0171979 0 -0.0171979 -0.180767 0 0 0 0)
(0 -0.0173302 0 -0.0173302 -0.179008 0 0 0 0)
(0 -0.0174575 0 -0.0174575 -0.177231 0 0 0 0)
(-8.32794e-17 -0.017588 0 -0.017588 -0.175483 0 0 0 0)
(0 -0.0177143 0 -0.0177143 -0.173711 0 0 0 0)
(0 -0.0178385 0 -0.0178385 -0.171945 0 0 0 0)
(0 -0.0179604 0 -0.0179604 -0.170167 0 0 0 0)
(0 -0.0180824 0 -0.0180824 -0.168405 0 0 0 0)
(0 -0.018199 0 -0.018199 -0.166613 0 0 0 0)
(0 -0.0183176 0 -0.0183176 -0.164848 0 0 0 0)
(0 -0.0184314 0 -0.0184314 -0.163058 0 0 0 0)
(0 -0.0185457 0 -0.0185457 -0.161277 0 0 0 0)
(0 -0.0186603 0 -0.0186603 -0.159508 0 0 0 0)
(0 -0.0187673 0 -0.0187673 -0.157705 0 0 0 0)
(0 -0.0188756 0 -0.0188756 -0.155929 0 0 0 0)
(0 -0.018979 0 -0.018979 -0.154129 0 0 0 0)
(0 -0.0190818 0 -0.0190818 -0.152341 0 0 0 0)
(0 -0.0191831 0 -0.0191831 -0.150548 0 0 0 0)
(0 -0.0192836 0 -0.0192836 -0.148762 0 0 0 0)
(0 -0.0193804 0 -0.0193804 -0.146968 0 0 0 0)
(0 -0.0194748 0 -0.0194748 -0.145175 0 0 0 0)
(0 -0.0195692 0 -0.0195692 -0.143385 0 0 0 0)
(0 -0.0196627 0 -0.0196627 -0.141604 0 0 0 0)
(0 -0.0197472 0 -0.0197472 -0.139802 0 0 0 0)
(0 -0.0198278 0 -0.0198278 -0.137995 0 0 0 0)
(0 -0.0199104 0 -0.0199104 -0.136208 0 0 0 0)
(0 -0.0199851 0 -0.0199851 -0.134396 0 0 0 0)
(0 -0.0200561 0 -0.0200561 -0.132589 0 0 0 0)
(0 -0.0201226 0 -0.0201226 -0.130769 0 0 0 0)
(0 -0.0201901 0 -0.0201901 -0.128958 0 0 0 0)
(0 -0.0202556 0 -0.0202556 -0.127139 0 0 0 0)
(0 -0.0203177 0 -0.0203177 -0.125314 0 0 0 0)
(0 -0.0203779 0 -0.0203779 -0.123482 0 0 0 0)
(0 -0.0204376 0 -0.0204376 -0.121649 0 0 0 0)
(0 -0.0204941 0 -0.0204941 -0.119805 0 0 0 0)
(0 -0.0205478 0 -0.0205478 -0.117952 0 0 0 0)
(0 -0.0205997 0 -0.0205997 -0.116093 0 0 0 0)
(0 -0.0206496 0 -0.0206496 -0.114225 0 0 0 0)
(0 -0.0206983 0 -0.0206983 -0.112351 0 0 0 0)
(0 -0.0207456 0 -0.0207456 -0.110471 0 0 0 0)
(0 -0.0207927 0 -0.0207927 -0.108587 0 0 0 0)
(0 -0.0208391 0 -0.0208391 -0.106701 0 0 0 0)
(0 -0.0208839 0 -0.0208839 -0.104812 0 0 0 0)
(0 -0.0209268 0 -0.0209268 -0.102921 0 0 0 0)
(0 -0.0209675 0 -0.0209675 -0.10103 0 0 0 0)
(0 -0.0210049 0 -0.0210049 -0.0991381 0 0 0 0)
(0 -0.021039 0 -0.021039 -0.0972469 0 0 0 0)
(0 -0.0210703 0 -0.0210703 -0.0953576 0 0 0 0)
(0 -0.021099 0 -0.021099 -0.0934708 0 0 0 0)
(0 -0.0211257 0 -0.0211257 -0.0915874 0 0 0 0)
(0 -0.0211509 0 -0.0211509 -0.0897074 0 0 0 0)
(0 -0.0211749 0 -0.0211749 -0.0878304 0 0 0 0)
(0 -0.0211975 0 -0.0211975 -0.0859554 0 0 0 0)
(0 -0.0212181 0 -0.0212181 -0.084081 0 0 0 0)
(0 -0.021236 0 -0.021236 -0.0822055 0 0 0 0)
(0 -0.02125 0 -0.02125 -0.0803271 0 0 0 0)
(0 -0.0212588 0 -0.0212588 -0.0784441 0 0 0 0)
(0 -0.0212611 0 -0.0212611 -0.0765552 0 0 0 0)
(0 -0.0212557 0 -0.0212557 -0.0746593 0 0 0 0)
(0 -0.0212413 0 -0.0212413 -0.0727559 0 0 0 0)
(0 -0.0212169 0 -0.0212169 -0.0708445 0 0 0 0)
(0 -0.0211815 0 -0.0211815 -0.0689251 0 0 0 0)
(0 -0.0211342 0 -0.0211342 -0.0669981 0 0 0 0)
(0 -0.0210744 0 -0.0210744 -0.065064 0 0 0 0)
(0 -0.0210015 0 -0.0210015 -0.0631233 0 0 0 0)
(0 -0.0209151 0 -0.0209151 -0.061177 0 0 0 0)
(0 -0.0208149 0 -0.0208149 -0.0592259 0 0 0 0)
(0 -0.0207006 0 -0.0207006 -0.057271 0 0 0 0)
(0 -0.020572 0 -0.020572 -0.0553132 0 0 0 0)
(0 -0.0204291 0 -0.0204291 -0.0533535 0 0 0 0)
(0 -0.0202716 0 -0.0202716 -0.051393 0 0 0 0)
(0 -0.0200997 0 -0.0200997 -0.0494325 0 0 0 0)
(0 -0.0199132 0 -0.0199132 -0.0474732 0 0 0 0)
(0 -0.0197122 0 -0.0197122 -0.0455158 0 0 0 0)
(0 -0.0194968 0 -0.0194968 -0.0435614 0 0 0 0)
(0 -0.0192671 0 -0.0192671 -0.0416107 0 0 0 0)
(0 -0.0190233 0 -0.0190233 -0.0396646 0 0 0 0)
(0 -0.0187656 0 -0.0187656 -0.0377238 0 0 0 0)
(0 -0.0184938 0 -0.0184938 -0.035789 0 0 0 0)
(0 -0.018207 0 -0.018207 -0.033861 0 0 0 0)
(0 -0.0179037 0 -0.0179037 -0.0319407 0 0 0 0)
(0 -0.0175823 0 -0.0175823 -0.0300292 0 0 0 0)
(0 -0.0172422 0 -0.0172422 -0.0281276 0 0 0 0)
(0 -0.0168847 0 -0.0168847 -0.0262359 0 0 0 0)
(0 -0.016511 0 -0.016511 -0.0243547 0 0 0 0)
(0 -0.0161167 0 -0.0161167 -0.0224865 0 0 0 0)
(0 -0.0156898 0 -0.0156898 -0.0206367 0 0 0 0)
(0 -0.0152226 0 -0.0152226 -0.0188092 0 0 0 0)
(0 -0.0147263 0 -0.0147263 -0.0169986 0 0 0 0)
(0 -0.0142171 0 -0.0142171 -0.0151929 0 0 0 0)
(0 -0.0136785 0 -0.0136785 -0.0133997 0 0 0 0)
(0 -0.01305 0 -0.01305 -0.0116694 0 0 0 0)
(0 -0.0122998 0 -0.0122998 -0.0100238 0 0 0 0)
(0 -0.0115415 0 -0.0115415 -0.00834758 0 0 0 0)
(0 -0.0109012 0 -0.0109012 -0.0066353 0 0 0 0)
(0 -0.0100978 0 -0.0100978 -0.00504515 0 0 0 0)
(0 -0.0090377 0 -0.0090377 -0.00376644 0 0 0 0)
(0 -0.00782134 0 -0.00782134 -0.00273728 0 0 0 0)
(0 -0.00524773 0 -0.00524773 -0.00497091 0 0 0 0)
(0 0.000358187 0 0.000358187 -0.00439023 0 0 0 0)
(0 0.000216789 0 0.000216789 -0.00326492 0 0 0 0)
(0 -6.12023e-05 0 -6.12023e-05 -0.00189484 0 0 0 0)
(0 -0.000171478 0 -0.000171478 -5.19505e-05 0 0 0 0)
(0 -0.000290712 0 -0.000290712 -5.75638e-05 0 0 0 0)
(0 -0.000821109 0 -0.000821109 -0.000105914 0 0 0 0)
(0 -0.00123765 0 -0.00123765 -0.000210231 0 0 0 0)
(0 -0.00171492 0 -0.00171492 -0.000271391 0 0 0 0)
(0 -0.00222808 0 -0.00222808 -0.000270301 0 0 0 0)
(0 -0.00278305 0 -0.00278305 -0.000232069 0 0 0 0)
(0 -0.00338246 0 -0.00338246 -0.000185203 0 0 0 0)
(0 -0.0040268 0 -0.0040268 -0.000134624 0 0 0 0)
(0 -0.0047176 0 -0.0047176 -8.12349e-05 0 0 0 0)
(0 -0.00545734 0 -0.00545734 -2.67511e-05 0 0 0 0)
(0 -0.00624867 0 -0.00624867 2.75713e-05 0 0 0 0)
(0 -0.0070943 0 -0.0070943 8.12192e-05 0 0 0 0)
(0 -0.00799697 0 -0.00799697 0.000134032 0 0 0 0)
(0 -0.0089594 0 -0.0089594 0.000186008 0 0 0 0)
(0 -0.00998426 0 -0.00998426 0.00023726 0 0 0 0)
(0 -0.0110741 0 -0.0110741 0.000287992 0 0 0 0)
(0 -0.0122313 0 -0.0122313 0.00033852 0 0 0 0)
(0 -0.0134581 0 -0.0134581 0.000389308 0 0 0 0)
(0 -0.0147564 0 -0.0147564 0.000441022 0 0 0 0)
(0 -0.0161279 0 -0.0161279 0.000494586 0 0 0 0)
(0 -0.017574 0 -0.017574 0.000551223 0 0 0 0)
(0 -0.0190955 0 -0.0190955 0.00061249 0 0 0 0)
(0 -0.0206927 0 -0.0206927 0.000680283 0 0 0 0)
(0 -0.0223656 0 -0.0223656 0.000756834 0 0 0 0)
(0 -0.0241135 0 -0.0241135 0.000844669 0 0 0 0)
(0 -0.0259349 0 -0.0259349 0.000946555 0 0 0 0)
(0 -0.0278278 0 -0.0278278 0.00106544 0 0 0 0)
(0 -0.0297895 0 -0.0297895 0.00120435 0 0 0 0)
(0 -0.0318167 0 -0.0318167 0.00136633 0 0 0 0)
(0 -0.0339051 0 -0.0339051 0.00155434 0 0 0 0)
(0 -0.03605 0 -0.03605 0.00177116 0 0 0 0)
(0 -0.038246 0 -0.038246 0.00201936 0 0 0 0)
(0 -0.0404869 0 -0.0404869 0.0023012 0 0 0 0)
(0 -0.042766 0 -0.042766 0.00261862 0 0 0 0)
(0 -0.0450758 0 -0.0450758 0.00297321 0 0 0 0)
(0 -0.0474082 0 -0.0474082 0.00336624 0 0 0 0)
(0 -0.0497546 0 -0.0497546 0.0037986 0 0 0 0)
(0 -0.0521056 0 -0.0521056 0.0042709 0 0 0 0)
(0 -0.0544514 0 -0.0544514 0.00478346 0 0 0 0)
(0 -0.0567814 0 -0.0567814 0.0053363 0 0 0 0)
(0 -0.0590845 0 -0.0590845 0.00592919 0 0 0 0)
(0 -0.0613492 0 -0.0613492 0.00656164 0 0 0 0)
(0 -0.0635634 0 -0.0635634 0.00723284 0 0 0 0)
(0 -0.0657149 0 -0.0657149 0.00794165 0 0 0 0)
(0 -0.0677911 0 -0.0677911 0.0086865 0 0 0 0)
(0 -0.0697795 0 -0.0697795 0.00946529 0 0 0 0)
(0 -0.0716675 0 -0.0716675 0.0102754 0 0 0 0)
(0 -0.0734422 0 -0.0734422 0.011114 0 0 0 0)
(0 -0.0750898 0 -0.0750898 0.0119779 0 0 0 0)
(0 -0.0765949 0 -0.0765949 0.012864 0 0 0 0)
(0 -0.0779492 0 -0.0779492 0.0137688 0 0 0 0)
(0 -0.0792056 0 -0.0792056 0.0146992 0 0 0 0)
(1.03992e-15 -0.0804197 0 -0.0804197 0.015663 0 0 0 0)
(0 -0.0816004 0 -0.0816004 0.0166562 0 0 0 0)
(0 -0.082752 0 -0.082752 0.0176709 0 0 0 0)
(-1.1953e-15 -0.083893 0 -0.083893 0.0186941 0 0 0 0)
(0 -0.0850498 0 -0.0850498 0.0197092 0 0 0 0)
(2.64878e-15 -0.0862501 0 -0.0862501 0.0206965 0 0 0 0)
(0 -0.087529 0 -0.087529 0.0216345 0 0 0 0)
(-1.48332e-15 -0.0889222 0 -0.0889222 0.0225002 0 0 0 0)
(0 -0.0904642 0 -0.0904642 0.0232684 0 0 0 0)
(0 -0.0921907 0 -0.0921907 0.023917 0 0 0 0)
(0 -0.0941052 0 -0.0941052 0.0244278 0 0 0 0)
(-3.84842e-15 -0.0961956 0 -0.0961956 0.024784 0 0 0 0)
(0 -0.0984628 0 -0.0984628 0.0249721 0 0 0 0)
(0 -0.100861 0 -0.100861 0.0249826 0 0 0 0)
(0 -0.103312 0 -0.103312 0.024815 0 0 0 0)
(0 -0.105735 0 -0.105735 0.024471 0 0 0 0)
(0 -0.108049 0 -0.108049 0.0239532 0 0 0 0)
(5.63453e-15 -0.110143 0 -0.110143 0.0232749 0 0 0 0)
(0 -0.111876 0 -0.111876 0.0224508 0 0 0 0)
(6.12875e-15 -0.113191 0 -0.113191 0.0214877 0 0 0 0)
(0 -0.114026 0 -0.114026 0.0203879 0 0 0 0)
(6.44905e-15 -0.114276 0 -0.114276 0.0191631 0 0 0 0)
(0 -0.113887 0 -0.113887 0.0178163 0 0 0 0)
(0 -0.112817 0 -0.112817 0.0163467 0 0 0 0)
(0 -0.110978 0 -0.110978 0.0147489 0 0 0 0)
(0 -0.108287 0 -0.108287 0.0130363 0 0 0 0)
(-6.26921e-15 -0.104629 0 -0.104629 0.0111802 0 0 0 0)
(-6.06571e-15 -0.0999188 0 -0.0999188 0.00918861 0 0 0 0)
(0 -0.0939605 0 -0.0939605 0.00698128 0 0 0 0)
(0 -0.0865364 0 -0.0865364 0.00463919 0 0 0 0)
(0 -0.0775125 0 -0.0775125 0.00180361 0 0 0 0)
(0 -0.0665624 0 -0.0665624 -0.0013416 0 0 0 0)
(0 -0.0525206 0 -0.0525206 -0.00483696 0 0 0 0)
(0 -0.0437014 0 -0.0437014 -0.0077711 0 0 0 0)
(0 -0 0 -0 0 0 0 0 0)
(0 -0 0 -0 0 0 0 0 0)
(0 -0 0 -0 0 0 0 0 0)
(0 -0 0 -0 -0 0 0 0 0)
(0 -0 0 -0 0 0 0 0 0)
(0 -0 0 -0 -0 0 0 0 0)
(0 -0 0 -0 -0 0 0 0 0)
(0 -0 0 -0 -0 0 0 0 0)
(-0 -0 0 -0 0 0 0 0 0)
(0 0 0 0 0 0 0 0 0)
(0 0 0 0 0 0 0 0 0)
(0 0 0 0 0 0 0 0 0)
(0 0 0 0 0 0 0 0 0)
(0 0 0 0 0 0 0 0 0)
(0 0 0 0 0 0 0 0 0)
(0 0 0 0 0 0 0 0 0)
(0 0 0 0 0 0 0 0 0)
(0 0 0 0 0 0 0 0 0)
(0 0 0 0 0 0 0 0 0)
(0 0 0 0 0 0 0 0 0)
(0 0 0 0 0 0 0 0 0)
(0 0 0 0 0 0 0 0 0)
(0 0 0 0 0 0 0 0 0)
(0 0 0 0 0 0 0 0 0)
(0 0 0 0 0 0 0 0 0)
(0 0 0 0 0 0 0 0 0)
(0 0 0 0 0 0 0 0 0)
(0 0 0 0 -0 0 0 0 0)
(0 0 0 0 0 0 0 0 0)
(0 0 0 0 0 0 0 0 0)
(-0 0 0 0 -0 0 0 0 0)
(0 0 0 0 0 0 0 0 0)
(0 0 0 0 -0 0 0 0 0)
(0 0 0 0 0 0 0 0 0)
(0 0 0 0 -0 0 0 0 0)
(0 0 0 0 0 0 0 0 0)
(0 0 0 0 -0 0 0 0 0)
(0 0 0 0 -0 0 0 0 0)
(0 0 0 0 -0 0 0 0 0)
(0 0 0 0 0 0 0 0 0)
(0 0 0 0 -0 0 0 0 0)
(0 0 0 0 0 0 0 0 0)
(0 0 0 0 -0 0 0 0 0)
(0 0 0 0 0 0 0 0 0)
(0 0 0 0 -0 0 0 0 0)
(0 0 0 0 0 0 0 0 0)
(0 0 0 0 -0 0 0 0 0)
(0 0 0 0 0 0 0 0 0)
(0 0 0 0 -0 0 0 0 0)
(0 0 0 0 0 0 0 0 0)
(-0 0 0 0 -0 0 0 0 0)
(0 0 0 0 0 0 0 0 0)
(0 0 0 0 -0 0 0 0 0)
(0 0 0 0 0 0 0 0 0)
(0 0 0 0 -0 0 0 0 0)
(0 0 0 0 0 0 0 0 0)
(0 -0 0 -0 -0 0 0 0 0)
(0 0 0 0 0 0 0 0 0)
(0 -0 0 -0 -0 0 0 0 0)
(0 0 0 0 0 0 0 0 0)
(-0 -0 0 -0 -0 0 0 0 0)
(0 0 0 0 0 0 0 0 0)
(0 -0 0 -0 -0 0 0 0 0)
(0 0 0 0 0 0 0 0 0)
(0 -0 0 -0 -0 0 0 0 0)
(0 0 0 0 0 0 0 0 0)
(0 -0 0 -0 -0 0 0 0 0)
(0 0 0 0 0 0 0 0 0)
(0 -0 0 -0 -0 0 0 0 0)
(0 0 0 0 0 0 0 0 0)
(0 -0 0 -0 -0 0 0 0 0)
(0 0 0 0 0 0 0 0 0)
(0 -0 0 -0 -0 0 0 0 0)
(0 0 0 0 0 0 0 0 0)
(0 -0 0 -0 -0 0 0 0 0)
(0 0 0 0 0 0 0 0 0)
(0 -0 0 -0 -0 0 0 0 0)
(0 0 0 0 0 0 0 0 0)
(0 -0 0 -0 -0 0 0 0 0)
(0 0 0 0 0 0 0 0 0)
(0 -0 0 -0 -0 0 0 0 0)
(0 0 0 0 0 0 0 0 0)
(0 -0 0 -0 -0 0 0 0 0)
(0 0 0 0 0 0 0 0 0)
(0 -0 0 -0 -0 0 0 0 0)
(0 0 0 0 0 0 0 0 0)
(0 -0 0 -0 -0 0 0 0 0)
(0 0 0 0 0 0 0 0 0)
(0 -0 0 -0 -0 0 0 0 0)
(0 0 0 0 0 0 0 0 0)
(0 -0 0 -0 -0 0 0 0 0)
(0 0 0 0 0 0 0 0 0)
(0 -0 0 -0 -0 0 0 0 0)
(0 0 0 0 0 0 0 0 0)
(0 -0 0 -0 -0 0 0 0 0)
(0 0 0 0 0 0 0 0 0)
(0 -0 0 -0 -0 0 0 0 0)
(0 0 0 0 0 0 0 0 0)
(0 -0 0 -0 -0 0 0 0 0)
(0 0 0 0 0 0 0 0 0)
(0 -0 0 -0 -0 0 0 0 0)
(0 0 0 0 0 0 0 0 0)
(0 -0 0 -0 -0 0 0 0 0)
(0 0 0 0 0 0 0 0 0)
(0 -0 0 -0 -0 0 0 0 0)
(0 0 0 0 0 0 0 0 0)
(0 -0 0 -0 -0 0 0 0 0)
(0 0 0 0 0 0 0 0 0)
(0 -0 0 -0 -0 0 0 0 0)
(0 0 0 0 0 0 0 0 0)
(0 -0 0 -0 -0 0 0 0 0)
(0 0 0 0 0 0 0 0 0)
(0 -0 0 -0 -0 0 0 0 0)
(0 0 0 0 0 0 0 0 0)
(0 -0 0 -0 -0 0 0 0 0)
(0 0 0 0 0 0 0 0 0)
(0 -0 0 -0 -0 0 0 0 0)
(0 -0 0 -0 0 0 0 0 0)
(0 -0 0 -0 0 0 0 0 0)
(0 -0 0 -0 0 0 0 0 0)
(0 -0 0 -0 0 0 0 0 0)
(0 -0 0 -0 0 0 0 0 0)
(0 -0 0 -0 0 0 0 0 0)
(0 -0 0 -0 0 0 0 0 0)
)
;

boundaryField
{
    inandouthalf11
    {
        type            cyclic;
    }
    inandouthalf12
    {
        type            cyclic;
    }
    inandouthalf21
    {
        type            cyclic;
    }
    inandouthalf22
    {
        type            cyclic;
    }
    inandouthalf31
    {
        type            cyclic;
    }
    inandouthalf32
    {
        type            cyclic;
    }
    inandouthalf41
    {
        type            cyclic;
    }
    inandouthalf42
    {
        type            cyclic;
    }
    top
    {
        type            symmetryPlane;
    }
    walls
    {
        type            zeroGradient;
    }
    frontAndBackPlanes
    {
        type            empty;
    }
}


// ************************************************************************* //
