/*--------------------------------*- C++ -*----------------------------------*\
| =========                 |                                                 |
| \\      /  F ield         | OpenFOAM: The Open Source CFD Toolbox           |
|  \\    /   O peration     | Version:  2.4.x                                 |
|   \\  /    A nd           | Web:      www.OpenFOAM.org                      |
|    \\/     M anipulation  |                                                 |
\*---------------------------------------------------------------------------*/
FoamFile
{
    version     2.0;
    format      ascii;
    class       volScalarField;
    location    "7.05";
    object      Theta_0;
}
// * * * * * * * * * * * * * * * * * * * * * * * * * * * * * * * * * * * * * //

dimensions      [0 2 -2 0 0 0 0];

internalField   nonuniform List<scalar> 
360
(
6.66316e-21
6.66721e-21
6.66535e-21
6.66484e-21
6.6651e-21
6.6653e-21
6.66535e-21
6.66536e-21
6.66538e-21
6.66542e-21
6.66547e-21
6.66552e-21
6.66557e-21
6.66562e-21
6.66567e-21
6.66573e-21
6.66578e-21
6.66584e-21
6.66589e-21
6.66595e-21
6.66601e-21
6.66607e-21
6.66613e-21
6.66619e-21
6.66625e-21
6.66631e-21
6.66637e-21
6.66644e-21
6.6665e-21
6.66657e-21
6.66663e-21
6.66669e-21
6.66675e-21
6.66682e-21
6.66688e-21
6.66693e-21
6.66698e-21
6.66704e-21
6.66708e-21
6.66713e-21
6.66717e-21
6.6672e-21
6.66724e-21
6.66727e-21
6.6673e-21
6.66733e-21
6.66737e-21
6.6674e-21
6.66744e-21
6.66749e-21
6.66754e-21
6.6676e-21
6.66767e-21
6.66774e-21
6.66781e-21
6.66788e-21
6.66794e-21
6.668e-21
6.66803e-21
6.66805e-21
6.66805e-21
6.66803e-21
6.66798e-21
6.66789e-21
6.66776e-21
6.6676e-21
6.6674e-21
6.66718e-21
6.66693e-21
6.66668e-21
6.66644e-21
6.66622e-21
6.66601e-21
6.66584e-21
6.6657e-21
6.66561e-21
6.66555e-21
6.66553e-21
6.66557e-21
6.66568e-21
6.66586e-21
6.66613e-21
6.66651e-21
6.66701e-21
6.66767e-21
6.6685e-21
6.66953e-21
6.67075e-21
6.67217e-21
6.67377e-21
6.67547e-21
6.67719e-21
6.67875e-21
6.67996e-21
6.68062e-21
6.68053e-21
6.67959e-21
6.67784e-21
6.67547e-21
6.67276e-21
6.67004e-21
6.66759e-21
6.66558e-21
6.66406e-21
6.66299e-21
6.66229e-21
6.66186e-21
6.6616e-21
6.66146e-21
6.66138e-21
6.66133e-21
6.66131e-21
6.6613e-21
6.66129e-21
6.66128e-21
6.66128e-21
6.66128e-21
6.66127e-21
6.66127e-21
6.66127e-21
6.66127e-21
6.66126e-21
6.66126e-21
6.66126e-21
6.66125e-21
6.66125e-21
6.66125e-21
6.66124e-21
6.66124e-21
6.66124e-21
6.66123e-21
6.66123e-21
6.66125e-21
1.87146e-20
7.72579e-20
3.3801e-19
1.55649e-18
7.68555e-18
4.13667e-17
2.44023e-16
1.57215e-15
1.1069e-14
8.70636e-14
7.93544e-13
8.67905e-12
1.17366e-10
2.02797e-09
5.05533e-08
1.68538e-06
3.88322e-05
0.000410837
0.0011016
0.00160441
0.00199132
0.00230484
0.00256775
0.00279313
0.00298921
0.00316154
0.00331409
0.00344985
0.00357108
0.00367957
0.00377679
0.00386391
0.00394191
0.00401162
0.00407372
0.00412882
0.00417744
0.00422001
0.00425694
0.00428858
0.00431524
0.0043372
0.00435472
0.00436804
0.00437737
0.00438292
0.00438487
0.00438341
0.00437869
0.00437087
0.00436011
0.00434656
0.00433034
0.00431159
0.00429045
0.00426702
0.00424144
0.00421382
0.00418426
0.00415289
0.00411979
0.00408508
0.00404885
0.0040112
0.00397222
0.00393199
0.0038906
0.00384813
0.00380422
0.00375844
0.00371079
0.00366125
0.00360982
0.00355649
0.00350123
0.00344402
0.00338483
0.00332361
0.00326032
0.0031949
0.00312727
0.00305735
0.00298504
0.00291021
0.00283274
0.00275247
0.00266922
0.00258281
0.00249299
0.00239952
0.00230209
0.00220035
0.0020939
0.00198225
0.00186481
0.00174084
0.00160943
0.00146936
0.00131898
0.00115589
0.000976373
0.000773903
0.000534255
0
0
0
0
0
0
0
0
0
0
0
0
0
0
0
0
0
0
0
0
0
0
0
0
0
0
0
0
0
0
0
0
0
0
0
0
0
0
0
0
0
0
0
0
0
0
0
0
0
0
0
0
0
0
0
0
0
0
0
0
0
0
0
0
0
0
0
0
0
0
0
0
0
0
0
0
0
0
0
0
0
0
0
0
0
0
0
0
0
0
0
0
0
0
0
0
0
0
0
0
0
0
0
0
0
0
0
0
0
0
0
0
0
0
0
0
0
0
0
0
0
0
0
0
)
;

boundaryField
{
    inandouthalf11
    {
        type            cyclic;
    }
    inandouthalf12
    {
        type            cyclic;
    }
    inandouthalf21
    {
        type            cyclic;
    }
    inandouthalf22
    {
        type            cyclic;
    }
    inandouthalf31
    {
        type            cyclic;
    }
    inandouthalf32
    {
        type            cyclic;
    }
    inandouthalf41
    {
        type            cyclic;
    }
    inandouthalf42
    {
        type            cyclic;
    }
    top
    {
        type            symmetryPlane;
    }
    walls
    {
        type            zeroGradient;
    }
    frontAndBackPlanes
    {
        type            empty;
    }
}


// ************************************************************************* //
