/*--------------------------------*- C++ -*----------------------------------*\
| =========                 |                                                 |
| \\      /  F ield         | OpenFOAM: The Open Source CFD Toolbox           |
|  \\    /   O peration     | Version:  2.4.x                                 |
|   \\  /    A nd           | Web:      www.OpenFOAM.org                      |
|    \\/     M anipulation  |                                                 |
\*---------------------------------------------------------------------------*/
FoamFile
{
    version     2.0;
    format      ascii;
    class       volVectorField;
    location    "7.05";
    object      U;
}
// * * * * * * * * * * * * * * * * * * * * * * * * * * * * * * * * * * * * * //

dimensions      [0 1 -1 0 0 0 0];

internalField   nonuniform List<vector> 
360
(
(6.93622e-05 1.85755e-08 0)
(6.88645e-05 -3.56011e-09 0)
(6.8779e-05 -3.59341e-09 0)
(6.88353e-05 -9.13081e-11 0)
(6.88645e-05 6.18428e-10 0)
(6.88712e-05 2.0603e-10 0)
(6.88783e-05 3.53757e-12 0)
(6.88884e-05 1.0678e-11 0)
(6.88986e-05 4.59891e-11 0)
(6.89091e-05 7.0386e-11 0)
(6.89195e-05 8.17229e-11 0)
(6.89296e-05 8.03383e-11 0)
(6.89396e-05 7.60115e-11 0)
(6.89494e-05 7.34986e-11 0)
(6.89592e-05 7.49959e-11 0)
(6.89689e-05 7.86876e-11 0)
(6.89785e-05 8.11758e-11 0)
(6.8988e-05 8.24239e-11 0)
(6.89973e-05 8.26536e-11 0)
(6.90067e-05 8.40007e-11 0)
(6.90157e-05 8.26151e-11 0)
(6.90248e-05 8.47205e-11 0)
(6.90337e-05 8.58602e-11 0)
(6.90425e-05 8.5847e-11 0)
(6.90511e-05 8.57462e-11 0)
(6.90597e-05 8.57468e-11 0)
(6.9068e-05 8.55436e-11 0)
(6.90764e-05 8.73717e-11 0)
(6.90845e-05 8.5937e-11 0)
(6.90925e-05 8.44324e-11 0)
(6.91003e-05 8.22432e-11 0)
(6.91082e-05 8.39068e-11 0)
(6.91156e-05 7.67629e-11 0)
(6.91233e-05 8.00898e-11 0)
(6.91305e-05 7.10914e-11 0)
(6.91377e-05 6.82869e-11 0)
(6.91446e-05 6.34572e-11 0)
(6.91516e-05 5.93119e-11 0)
(6.91585e-05 5.75949e-11 0)
(6.91649e-05 4.35844e-11 0)
(6.91716e-05 4.56832e-11 0)
(6.9178e-05 3.96578e-11 0)
(6.91841e-05 2.96489e-11 0)
(6.91904e-05 3.71965e-11 0)
(6.91964e-05 3.23522e-11 0)
(6.92023e-05 3.09859e-11 0)
(6.92083e-05 3.53401e-11 0)
(6.92137e-05 3.32456e-11 0)
(6.92193e-05 4.63316e-11 0)
(6.92251e-05 6.37568e-11 0)
(6.92301e-05 5.83938e-11 0)
(6.92354e-05 7.2146e-11 0)
(6.92404e-05 7.4251e-11 0)
(6.92453e-05 8.22937e-11 0)
(6.92498e-05 7.097e-11 0)
(6.92545e-05 7.78789e-11 0)
(6.92585e-05 5.4001e-11 0)
(6.92628e-05 4.37116e-11 0)
(6.92667e-05 2.2764e-11 0)
(6.92703e-05 -1.09269e-11 0)
(6.92743e-05 -1.97088e-11 0)
(6.92778e-05 -6.58342e-11 0)
(6.92816e-05 -9.77383e-11 0)
(6.92853e-05 -1.51179e-10 0)
(6.92892e-05 -2.00654e-10 0)
(6.92932e-05 -2.5422e-10 0)
(6.92976e-05 -2.96801e-10 0)
(6.93025e-05 -3.34767e-10 0)
(6.93077e-05 -3.59141e-10 0)
(6.93133e-05 -3.73564e-10 0)
(6.93199e-05 -3.56036e-10 0)
(6.93272e-05 -3.27962e-10 0)
(6.93346e-05 -3.13249e-10 0)
(6.9343e-05 -2.55073e-10 0)
(6.93519e-05 -2.08711e-10 0)
(6.93613e-05 -1.42484e-10 0)
(6.93708e-05 -8.51388e-11 0)
(6.93806e-05 -8.42777e-12 0)
(6.93905e-05 8.2086e-11 0)
(6.94003e-05 1.86689e-10 0)
(6.94097e-05 2.99293e-10 0)
(6.94186e-05 4.33808e-10 0)
(6.94267e-05 5.81391e-10 0)
(6.94335e-05 7.36073e-10 0)
(6.94388e-05 8.97942e-10 0)
(6.94419e-05 1.05513e-09 0)
(6.94424e-05 1.20339e-09 0)
(6.94398e-05 1.32527e-09 0)
(6.94336e-05 1.41066e-09 0)
(6.94235e-05 1.44426e-09 0)
(6.94093e-05 1.40458e-09 0)
(6.93908e-05 1.2711e-09 0)
(6.93683e-05 1.02806e-09 0)
(6.93423e-05 6.61171e-10 0)
(6.93136e-05 1.72606e-10 0)
(6.92836e-05 -4.14636e-10 0)
(6.92539e-05 -1.05538e-09 0)
(6.92265e-05 -1.68591e-09 0)
(6.92034e-05 -2.23487e-09 0)
(6.91865e-05 -2.63944e-09 0)
(6.91777e-05 -2.86068e-09 0)
(6.91778e-05 -2.89067e-09 0)
(6.91876e-05 -2.75164e-09 0)
(6.92071e-05 -2.48726e-09 0)
(6.92357e-05 -2.14947e-09 0)
(6.92728e-05 -1.78686e-09 0)
(6.93173e-05 -1.43741e-09 0)
(6.93685e-05 -1.12552e-09 0)
(6.94252e-05 -8.62976e-10 0)
(6.94869e-05 -6.51986e-10 0)
(6.95528e-05 -4.88676e-10 0)
(6.96225e-05 -3.66098e-10 0)
(6.96956e-05 -2.76433e-10 0)
(6.97718e-05 -2.12285e-10 0)
(6.98511e-05 -1.67315e-10 0)
(6.99332e-05 -1.36433e-10 0)
(7.00183e-05 -1.15741e-10 0)
(7.01064e-05 -1.02343e-10 0)
(7.01974e-05 -9.41281e-11 0)
(7.02915e-05 -8.95776e-11 0)
(7.03888e-05 -8.76023e-11 0)
(7.04894e-05 -8.74284e-11 0)
(7.05934e-05 -8.85805e-11 0)
(7.07011e-05 -9.09451e-11 0)
(7.08125e-05 -9.48011e-11 0)
(7.0928e-05 -1.00672e-10 0)
(7.10477e-05 -1.08818e-10 0)
(7.11721e-05 -1.184e-10 0)
(7.13015e-05 -1.26972e-10 0)
(7.14364e-05 -1.32252e-10 0)
(7.15769e-05 -1.37526e-10 0)
(7.17235e-05 -1.56838e-10 0)
(7.18767e-05 -2.01844e-10 0)
(7.20386e-05 -2.47011e-10 0)
(7.22108e-05 -2.42121e-10 0)
(7.23933e-05 -2.15025e-10 0)
(7.25852e-05 -2.90953e-10 0)
(7.27896e-05 -5.5463e-10 0)
(7.30168e-05 -8.26988e-10 0)
(7.32781e-05 -4.98417e-10 0)
(7.35608e-05 3.60193e-10 0)
(7.38314e-05 -1.33292e-09 0)
(7.4157e-05 -2.38961e-09 0)
(7.45814e-05 -2.52999e-09 0)
(7.51136e-05 -1.1534e-08 0)
(7.61303e-05 -4.43478e-08 0)
(7.91296e-05 -1.87338e-07 0)
(8.0372e-05 3.61414e-06 0)
(8.26027e-05 -1.50487e-05 0)
(8.08842e-05 5.60095e-05 0)
(-0.027858 0.000595115 0)
(-0.0543609 -0.000327039 0)
(-0.0712619 0.000164456 0)
(-0.0846622 -5.41808e-05 0)
(-0.0962914 1.03841e-05 0)
(-0.106811 2.50552e-06 0)
(-0.116542 1.36353e-07 0)
(-0.125667 -1.50659e-07 0)
(-0.134302 -3.20735e-08 0)
(-0.142527 5.44941e-09 0)
(-0.150399 -1.29055e-09 0)
(-0.157962 -8.23757e-09 0)
(-0.16525 -9.54942e-09 0)
(-0.17229 -8.74313e-09 0)
(-0.179107 -7.67379e-09 0)
(-0.185719 -6.6898e-09 0)
(-0.192143 -5.78806e-09 0)
(-0.198393 -4.97898e-09 0)
(-0.20448 -4.2714e-09 0)
(-0.210418 -3.66851e-09 0)
(-0.216213 -3.16011e-09 0)
(-0.221876 -2.73624e-09 0)
(-0.227415 -2.38437e-09 0)
(-0.232834 -2.09357e-09 0)
(-0.238142 -1.8543e-09 0)
(-0.243343 -1.65724e-09 0)
(-0.248443 -1.49488e-09 0)
(-0.253446 -1.36047e-09 0)
(-0.258357 -1.24858e-09 0)
(-0.263179 -1.1543e-09 0)
(-0.267916 -1.074e-09 0)
(-0.272571 -1.00442e-09 0)
(-0.277146 -9.43223e-10 0)
(-0.281646 -8.88375e-10 0)
(-0.286072 -8.38487e-10 0)
(-0.290427 -7.92394e-10 0)
(-0.294713 -7.49344e-10 0)
(-0.298932 -7.08753e-10 0)
(-0.303085 -6.70245e-10 0)
(-0.307175 -6.33545e-10 0)
(-0.311204 -5.98454e-10 0)
(-0.315172 -5.64855e-10 0)
(-0.319082 -5.32713e-10 0)
(-0.322934 -5.02068e-10 0)
(-0.326729 -4.73037e-10 0)
(-0.33047 -4.4573e-10 0)
(-0.334157 -4.19828e-10 0)
(-0.337791 -3.94212e-10 0)
(-0.341373 -3.6844e-10 0)
(-0.344904 -3.44773e-10 0)
(-0.348385 -3.2423e-10 0)
(-0.351851 -3.12671e-10 0)
(-0.355337 -3.02301e-10 0)
(-0.358841 -2.91344e-10 0)
(-0.362364 -2.86469e-10 0)
(-0.365904 -2.78512e-10 0)
(-0.369461 -2.64551e-10 0)
(-0.373033 -2.52025e-10 0)
(-0.376619 -2.37226e-10 0)
(-0.380218 -2.20918e-10 0)
(-0.383829 -2.06254e-10 0)
(-0.387449 -1.82995e-10 0)
(-0.391078 -1.61531e-10 0)
(-0.394713 -1.47482e-10 0)
(-0.398352 -1.26421e-10 0)
(-0.401992 -1.06217e-10 0)
(-0.405631 -9.05472e-11 0)
(-0.409266 -7.67939e-11 0)
(-0.412893 -6.26912e-11 0)
(-0.416509 -4.88226e-11 0)
(-0.42011 -4.12896e-11 0)
(-0.423691 -3.31024e-11 0)
(-0.427248 -2.45833e-11 0)
(-0.430774 -1.94286e-11 0)
(-0.434264 -1.54432e-11 0)
(-0.437711 -1.0921e-11 0)
(-0.441108 -8.8629e-12 0)
(-0.444445 -5.23329e-12 0)
(-0.447714 -5.7047e-12 0)
(-0.450904 -1.16982e-12 0)
(-0.454005 -3.94463e-12 0)
(-0.457002 2.97384e-12 0)
(-0.459884 -6.87755e-12 0)
(-0.462634 4.80644e-12 0)
(-0.465236 -1.27914e-11 0)
(-0.467673 7.59265e-11 0)
(-0.469928 -1.50863e-10 0)
(-0.471982 9.58244e-11 0)
(-0.473816 -1.10914e-10 0)
(-0.475415 1.00997e-10 0)
(-0.476764 -1.01826e-10 0)
(-0.477853 1.01507e-10 0)
(-0.478677 2.58013e-11 0)
(-0.479236 -3.75285e-12 0)
(-0.479536 -1.48435e-12 0)
(-0.479589 1.44228e-13 0)
(-0.479409 2.76117e-13 0)
(-0.479016 3.20728e-14 0)
(-0.478429 -1.43998e-13 0)
(-0.47767 2.89438e-13 0)
(-0.476761 4.57413e-12 0)
(-0.475726 -1.94683e-11 0)
(-0.47459 4.78988e-11 0)
(-0.47338 -9.31442e-11 0)
(-0.472124 1.56438e-10 0)
(-0.470855 -2.39289e-10 0)
(-0.469613 3.40498e-10 0)
(-0.468446 -4.59474e-10 0)
(-0.467423 5.9232e-10 0)
(-0.466777 -7.36349e-10 0)
(-0.466645 8.86661e-10 0)
(-0.466639 -1.0422e-09 0)
(-0.466638 1.20096e-09 0)
(-0.466638 -1.36427e-09 0)
(-0.466638 1.53093e-09 0)
(-0.466638 -1.7025e-09 0)
(-0.466638 1.87767e-09 0)
(-0.466638 -2.0581e-09 0)
(-0.466638 2.24233e-09 0)
(-0.466638 -2.43216e-09 0)
(-0.466638 2.62596e-09 0)
(-0.466638 -2.82566e-09 0)
(-0.466638 3.02951e-09 0)
(-0.466638 -3.2395e-09 0)
(-0.466638 3.45381e-09 0)
(-0.466638 -3.6745e-09 0)
(-0.466638 3.89967e-09 0)
(-0.466638 -4.13141e-09 0)
(-0.466638 4.36779e-09 0)
(-0.466638 -4.61088e-09 0)
(-0.466638 4.85883e-09 0)
(-0.466638 -5.11359e-09 0)
(-0.466638 5.37337e-09 0)
(-0.466638 -5.64009e-09 0)
(-0.466638 5.912e-09 0)
(-0.466638 -6.19092e-09 0)
(-0.466638 6.47521e-09 0)
(-0.466638 -6.76657e-09 0)
(-0.466638 7.06349e-09 0)
(-0.466638 -7.36749e-09 0)
(-0.466638 7.67725e-09 0)
(-0.466638 -7.99407e-09 0)
(-0.466638 8.31688e-09 0)
(-0.466638 -8.6467e-09 0)
(-0.466638 8.98273e-09 0)
(-0.466638 -9.32568e-09 0)
(-0.466638 9.67509e-09 0)
(-0.466638 -1.00313e-08 0)
(-0.466638 1.03942e-08 0)
(-0.466638 -1.07639e-08 0)
(-0.466638 1.11402e-08 0)
(-0.466638 -1.15235e-08 0)
(-0.466638 1.19134e-08 0)
(-0.466638 -1.23102e-08 0)
(-0.466638 1.27137e-08 0)
(-0.466638 -1.3124e-08 0)
(-0.466638 1.3541e-08 0)
(-0.466638 -1.39648e-08 0)
(-0.466638 1.43952e-08 0)
(-0.466638 -1.48323e-08 0)
(-0.466638 1.34103e-08 0)
(-0.466638 -1.35501e-08 0)
(-0.466638 1.36883e-08 0)
(-0.466638 -1.38252e-08 0)
(-0.466638 1.39605e-08 0)
(-0.466638 -1.40944e-08 0)
(-0.466638 1.42266e-08 0)
(-0.466638 -1.43575e-08 0)
(-0.466638 1.44866e-08 0)
(-0.466638 -1.46143e-08 0)
(-0.466638 1.47404e-08 0)
(-0.466638 -1.48648e-08 0)
(-0.466638 1.49876e-08 0)
(-0.466638 -1.51088e-08 0)
(-0.466638 1.52282e-08 0)
(-0.466638 -1.53461e-08 0)
(-0.466638 1.54621e-08 0)
(-0.466638 -1.55765e-08 0)
(-0.466638 1.56889e-08 0)
(-0.466638 -1.57998e-08 0)
(-0.466638 1.59085e-08 0)
(-0.466638 -1.60157e-08 0)
(-0.466638 1.61207e-08 0)
(-0.466638 -1.62241e-08 0)
(-0.466638 1.63251e-08 0)
(-0.466638 -1.64247e-08 0)
(-0.466638 1.65214e-08 0)
(-0.466638 -1.66171e-08 0)
(-0.466638 1.67095e-08 0)
(-0.466638 -1.6801e-08 0)
(-0.466638 1.68887e-08 0)
(-0.466638 -1.6976e-08 0)
(-0.466638 1.70587e-08 0)
(-0.466638 -1.71418e-08 0)
(-0.466638 1.72189e-08 0)
(-0.466638 -1.72976e-08 0)
(-0.466638 1.73688e-08 0)
(-0.466638 -1.74428e-08 0)
(-0.466638 1.75075e-08 0)
(-0.466638 -1.75766e-08 0)
(-0.466638 1.76341e-08 0)
(-0.466638 -1.76978e-08 0)
(-0.466638 1.77472e-08 0)
(-0.466638 -1.78053e-08 0)
(-0.466638 1.78451e-08 0)
(-0.466638 -1.78961e-08 0)
(-0.466638 1.79252e-08 0)
(-0.466638 -1.79663e-08 0)
(-0.466638 1.79806e-08 0)
(-0.466638 -1.80036e-08 0)
)
;

boundaryField
{
    inandouthalf11
    {
        type            cyclic;
    }
    inandouthalf12
    {
        type            cyclic;
    }
    inandouthalf21
    {
        type            cyclic;
    }
    inandouthalf22
    {
        type            cyclic;
    }
    inandouthalf31
    {
        type            cyclic;
    }
    inandouthalf32
    {
        type            cyclic;
    }
    inandouthalf41
    {
        type            cyclic;
    }
    inandouthalf42
    {
        type            cyclic;
    }
    top
    {
        type            symmetryPlane;
    }
    walls
    {
        type            calculated;
        value           uniform (0 0 0);
    }
    frontAndBackPlanes
    {
        type            empty;
    }
}


// ************************************************************************* //
