/*--------------------------------*- C++ -*----------------------------------*\
| =========                 |                                                 |
| \\      /  F ield         | OpenFOAM: The Open Source CFD Toolbox           |
|  \\    /   O peration     | Version:  2.4.x                                 |
|   \\  /    A nd           | Web:      www.OpenFOAM.org                      |
|    \\/     M anipulation  |                                                 |
\*---------------------------------------------------------------------------*/
FoamFile
{
    version     2.0;
    format      ascii;
    class       volScalarField;
    location    "4.4";
    object      alpha_0;
}
// * * * * * * * * * * * * * * * * * * * * * * * * * * * * * * * * * * * * * //

dimensions      [0 0 0 0 0 0 0];

internalField   nonuniform List<scalar> 
360
(
0.610429
0.611005
0.611154
0.611109
0.611058
0.611028
0.611002
0.610976
0.610951
0.610925
0.610897
0.610869
0.610841
0.610813
0.610784
0.610756
0.610726
0.610697
0.610667
0.610636
0.610606
0.610575
0.610545
0.610514
0.610484
0.610455
0.610425
0.610396
0.610365
0.610333
0.610298
0.610258
0.610213
0.610159
0.610103
0.610051
0.610011
0.609985
0.60997
0.609962
0.609954
0.609947
0.60994
0.609931
0.609922
0.609912
0.609902
0.609891
0.609879
0.609866
0.609852
0.609837
0.609822
0.609804
0.609787
0.609767
0.609747
0.609725
0.609702
0.609679
0.609653
0.609627
0.6096
0.609573
0.609544
0.609515
0.609485
0.609454
0.609422
0.609389
0.609355
0.609318
0.609282
0.609244
0.609204
0.609164
0.609124
0.609082
0.609039
0.608996
0.608951
0.608905
0.608858
0.608809
0.60876
0.608709
0.608657
0.608604
0.60855
0.608495
0.608438
0.608381
0.608321
0.608261
0.608199
0.608136
0.608071
0.608005
0.607937
0.607868
0.607797
0.607724
0.607649
0.607573
0.607495
0.607415
0.607333
0.607248
0.607162
0.607073
0.606982
0.606888
0.606792
0.606693
0.606591
0.606486
0.606378
0.606267
0.606152
0.606034
0.605912
0.605786
0.605657
0.605522
0.605384
0.60524
0.605092
0.604938
0.604778
0.604611
0.604438
0.604258
0.60407
0.603872
0.603662
0.603439
0.603206
0.602958
0.602684
0.60237
0.602029
0.601705
0.601319
0.60082
0.600206
0.599166
0.595521
0.487192
0.303526
0.233368
0.19423
0.162941
0.13618
0.112859
0.0926428
0.0753691
0.0608534
0.0488429
0.0390316
0.0310941
0.0247168
0.0196164
0.015549
0.0123109
0.00973568
0.00768868
0.00606225
0.00477061
0.00374546
0.00293201
0.00228557
0.00176994
0.00135793
0.00103178
0.000780011
0.000592093
0.000455625
0.000357596
0.00028673
0.000234561
0.00019523
0.000164809
0.00014067
0.000121026
0.000104635
9.06071e-05
7.82856e-05
6.71838e-05
5.70059e-05
4.77485e-05
3.97096e-05
3.31864e-05
2.8095e-05
2.40015e-05
2.05324e-05
1.7586e-05
1.51407e-05
1.30951e-05
1.13419e-05
9.83202e-06
8.55871e-06
7.49267e-06
6.54718e-06
5.66769e-06
4.91242e-06
4.31474e-06
3.77245e-06
3.22936e-06
2.79033e-06
2.44969e-06
2.10676e-06
1.79879e-06
1.56287e-06
1.34046e-06
1.13777e-06
9.86011e-07
8.42984e-07
7.00531e-07
5.99741e-07
5.16386e-07
4.23828e-07
3.54938e-07
2.98773e-07
2.4414e-07
2.04327e-07
1.66369e-07
1.32754e-07
1.11131e-07
8.72641e-08
6.75979e-08
5.37935e-08
4.15294e-08
3.53029e-08
3.18581e-08
2.7656e-08
2.03902e-08
8.99245e-09
1.26467e-16
3.58447e-17
3.10862e-17
2.93933e-17
2.8152e-17
2.61761e-17
2.27891e-17
1.7736e-17
1.13078e-17
5.59405e-18
3.34425e-18
2.44184e-18
2.00622e-18
1.73842e-18
1.41968e-18
9.16907e-19
3.4481e-19
1.23783e-19
5.35095e-20
2.71838e-20
1.56437e-20
9.99979e-21
7.07502e-21
5.28139e-21
3.79337e-21
2.32367e-21
1.06084e-21
5.13559e-22
2.82296e-22
1.69308e-22
1.09069e-22
6.7444e-23
3.21693e-23
1.50222e-23
7.65476e-24
3.99297e-24
2.06934e-24
1.0183e-24
4.99574e-25
2.40558e-25
1.1328e-25
5.21179e-26
2.34041e-26
1.02473e-26
4.36983e-27
1.81274e-27
7.30597e-28
2.85692e-28
1.08234e-28
3.96633e-29
1.40355e-29
4.78712e-30
1.57051e-30
4.94491e-31
1.49057e-31
4.28978e-32
1.17511e-32
3.05343e-33
7.49682e-34
1.73147e-34
3.74263e-35
7.52605e-36
1.39804e-36
2.37874e-37
3.66898e-38
5.06374e-39
6.14956e-40
6.42552e-41
5.59618e-42
3.87112e-43
1.95815e-44
6.07338e-46
5.7511e-48
7.07059e-51
1.06045e-52
7.89259e-55
1.34625e-65
1.16097e-76
7.52285e-88
3.58091e-99
1.48959e-110
5.10173e-122
1.87564e-133
8.82351e-142
2.31929e-152
3.04045e-160
7.4561e-171
1.04597e-178
3.18355e-189
3.59761e-197
1.42838e-207
1.23842e-215
9.65137e-226
4.30461e-234
6.42179e-244
1.51905e-252
3.23168e-262
5.43979e-271
1.53058e-280
1.97575e-289
6.74642e-299
7.28952e-308
2.9748e-317
5.35073e-321
7.09478e-321
6.08689e-321
8.5424e-321
0
0
0
0
0
0
0
0
0
0
0
0
0
0
0
0
)
;

boundaryField
{
    inandouthalf11
    {
        type            cyclic;
    }
    inandouthalf12
    {
        type            cyclic;
    }
    inandouthalf21
    {
        type            cyclic;
    }
    inandouthalf22
    {
        type            cyclic;
    }
    inandouthalf31
    {
        type            cyclic;
    }
    inandouthalf32
    {
        type            cyclic;
    }
    inandouthalf41
    {
        type            cyclic;
    }
    inandouthalf42
    {
        type            cyclic;
    }
    top
    {
        type            symmetryPlane;
    }
    walls
    {
        type            zeroGradient;
    }
    frontAndBackPlanes
    {
        type            empty;
    }
}


// ************************************************************************* //
