/*--------------------------------*- C++ -*----------------------------------*\
| =========                 |                                                 |
| \\      /  F ield         | OpenFOAM: The Open Source CFD Toolbox           |
|  \\    /   O peration     | Version:  2.4.x                                 |
|   \\  /    A nd           | Web:      www.OpenFOAM.org                      |
|    \\/     M anipulation  |                                                 |
\*---------------------------------------------------------------------------*/
FoamFile
{
    version     2.0;
    format      ascii;
    class       surfaceScalarField;
    location    "4.4";
    object      ddt0(phib);
}
// * * * * * * * * * * * * * * * * * * * * * * * * * * * * * * * * * * * * * //

dimensions      [0 3 -2 0 0 0 0];

internalField   nonuniform List<scalar> 
359
(
-3.79604e-13
-1.24773e-12
-2.12901e-12
-2.91137e-12
-3.64472e-12
-4.38395e-12
-5.15009e-12
-5.93724e-12
-6.73055e-12
-7.52382e-12
-8.32137e-12
-9.13222e-12
-9.96625e-12
-1.08294e-11
-1.17238e-11
-1.26467e-11
-1.35882e-11
-1.45283e-11
-1.54351e-11
-1.62675e-11
-1.69793e-11
-1.75361e-11
-1.79298e-11
-1.81979e-11
-1.84358e-11
-1.8801e-11
-1.95094e-11
-2.08335e-11
-2.31008e-11
-2.6683e-11
-3.18993e-11
-3.86725e-11
-4.56942e-11
-4.9571e-11
-4.58434e-11
-3.35913e-11
-1.84481e-11
-7.36834e-12
-2.09095e-12
-3.32854e-13
1.25158e-13
2.32782e-13
2.5859e-13
2.64724e-13
2.65261e-13
2.63456e-13
2.60217e-13
2.55748e-13
2.5027e-13
2.44136e-13
2.37765e-13
2.31514e-13
2.25648e-13
2.20263e-13
2.15204e-13
2.10355e-13
2.0559e-13
2.00741e-13
1.95737e-13
1.90505e-13
1.85002e-13
1.79282e-13
1.73302e-13
1.67096e-13
1.60722e-13
1.54228e-13
1.47609e-13
1.4091e-13
1.34076e-13
1.27118e-13
1.2001e-13
1.12652e-13
1.05042e-13
9.71902e-14
8.91364e-14
8.07949e-14
7.22243e-14
6.34502e-14
5.44953e-14
4.53368e-14
3.59952e-14
2.64697e-14
1.67863e-14
6.88026e-15
-3.24236e-15
-1.36088e-14
-2.41791e-14
-3.50235e-14
-4.60421e-14
-5.72953e-14
-6.86908e-14
-8.02258e-14
-9.19023e-14
-1.03723e-13
-1.15669e-13
-1.27717e-13
-1.39886e-13
-1.52185e-13
-1.64566e-13
-1.77026e-13
-1.89544e-13
-2.02163e-13
-2.14799e-13
-2.27497e-13
-2.40215e-13
-2.52971e-13
-2.65707e-13
-2.78377e-13
-2.91076e-13
-3.03683e-13
-3.16238e-13
-3.2874e-13
-3.41155e-13
-3.53474e-13
-3.65721e-13
-3.77907e-13
-3.90033e-13
-4.02072e-13
-4.14045e-13
-4.25982e-13
-4.37814e-13
-4.49649e-13
-4.61453e-13
-4.73214e-13
-4.84863e-13
-4.9634e-13
-5.07636e-13
-5.1862e-13
-5.29195e-13
-5.39294e-13
-5.4873e-13
-5.57446e-13
-5.65412e-13
-5.72541e-13
-5.78897e-13
-5.84502e-13
-5.89354e-13
-5.93539e-13
-5.9703e-13
-5.99643e-13
-6.01338e-13
-6.02132e-13
-6.02239e-13
-6.0222e-13
-6.09332e-13
-9.45885e-13
2.38957e-10
4.51374e-09
5.16819e-09
4.51613e-09
4.01881e-09
3.54176e-09
3.10532e-09
2.70266e-09
2.33382e-09
1.99753e-09
1.6925e-09
1.41781e-09
1.17262e-09
9.55904e-10
7.66473e-10
6.02675e-10
4.6251e-10
3.43796e-10
2.44363e-10
1.62335e-10
9.60974e-11
4.4111e-11
4.47273e-12
-2.53525e-11
-4.7895e-11
-6.39293e-11
-7.17656e-11
-6.98559e-11
-6.00552e-11
-4.69672e-11
-3.46454e-11
-2.48933e-11
-1.78117e-11
-1.28493e-11
-9.40116e-12
-6.99636e-12
-5.30774e-12
-4.11712e-12
-3.28065e-12
-2.70224e-12
-2.31194e-12
-2.04485e-12
-1.82775e-12
-1.59515e-12
-1.33016e-12
-1.07464e-12
-8.76441e-13
-7.37339e-13
-6.27332e-13
-5.29682e-13
-4.47966e-13
-3.83821e-13
-3.30391e-13
-2.81696e-13
-2.39534e-13
-2.08018e-13
-1.83477e-13
-1.56853e-13
-1.30592e-13
-1.13952e-13
-1.02476e-13
-8.67573e-14
-7.20134e-14
-6.36289e-14
-5.5621e-14
-4.64785e-14
-4.00468e-14
-3.4532e-14
-2.87285e-14
-2.48534e-14
-2.17006e-14
-1.76687e-14
-1.47101e-14
-1.28894e-14
-1.06635e-14
-8.66601e-15
-7.18507e-15
-5.80464e-15
-4.7322e-15
-3.80063e-15
-2.96125e-15
-2.3696e-15
-1.87168e-15
-1.3971e-15
-1.01529e-15
-7.16571e-16
-5.40048e-16
-4.65902e-16
-4.10007e-16
-3.17704e-16
5.01345e-16
9.98997e-17
9.32599e-17
1.03869e-16
1.13518e-16
1.09006e-16
1.03929e-16
9.84314e-17
1.14196e-16
1.0739e-16
1.0475e-16
1.12496e-16
1.19683e-16
1.15489e-16
1.13172e-16
1.12847e-16
1.10642e-16
1.16337e-16
1.14213e-16
1.05394e-16
1.02902e-16
1.01112e-16
9.29345e-17
8.05265e-17
8.15876e-17
7.67217e-17
6.96421e-17
6.76693e-17
6.34894e-17
6.02218e-17
5.96499e-17
6.52255e-17
7.27064e-17
7.05451e-17
7.7613e-17
8.15696e-17
8.11274e-17
8.7589e-17
9.26547e-17
8.28897e-17
8.58122e-17
9.30139e-17
9.37549e-17
8.65352e-17
8.66128e-17
8.25232e-17
7.25262e-17
6.68176e-17
7.09352e-17
6.92057e-17
6.68808e-17
6.63871e-17
6.8522e-17
5.91371e-17
5.30081e-17
3.62391e-17
2.97904e-17
2.49541e-17
2.61669e-17
4.7683e-17
1.47694e-17
2.77502e-17
2.72486e-17
4.81098e-17
4.9858e-17
5.86057e-17
7.0968e-17
6.59686e-17
7.34265e-17
7.12226e-17
7.79825e-17
8.25582e-17
7.85585e-17
7.34665e-17
8.37538e-17
6.96644e-17
8.035e-17
8.80963e-17
9.29888e-17
8.36302e-17
8.23539e-17
7.7076e-17
6.8696e-17
5.77051e-17
5.80347e-17
4.56233e-17
4.31355e-17
3.78654e-17
3.19205e-17
2.68167e-17
1.4732e-17
6.15251e-17
9.46574e-19
6.04076e-18
5.12544e-18
6.97003e-20
5.56636e-18
2.78096e-18
-8.95599e-19
-5.6134e-18
-5.62675e-18
-9.60089e-18
-1.05613e-17
-9.6601e-18
-1.00738e-17
-1.36397e-17
-1.73181e-17
-1.75665e-17
-1.35943e-17
-1.19134e-17
-6.65301e-18
-1.07454e-17
-4.45733e-18
-1.38733e-17
-1.30545e-17
-1.02819e-17
-1.5169e-17
-1.79939e-17
-2.54712e-17
-3.55376e-17
-4.88437e-17
-7.61115e-17
-9.38503e-17
)
;

boundaryField
{
    inandouthalf11
    {
        type            cyclic;
        value           nonuniform List<scalar> 
100
(
-1.27227e-10
-1.26909e-10
-1.26791e-10
-1.26873e-10
-1.26965e-10
-1.27038e-10
-1.27108e-10
-1.27177e-10
-1.27245e-10
-1.27314e-10
-1.27385e-10
-1.27457e-10
-1.27529e-10
-1.27603e-10
-1.27678e-10
-1.27754e-10
-1.27832e-10
-1.27911e-10
-1.27989e-10
-1.28065e-10
-1.28136e-10
-1.282e-10
-1.28257e-10
-1.28305e-10
-1.28349e-10
-1.28394e-10
-1.28449e-10
-1.28526e-10
-1.28641e-10
-1.2881e-10
-1.29054e-10
-1.29384e-10
-1.29774e-10
-1.30115e-10
-1.30183e-10
-1.29795e-10
-1.29076e-10
-1.28417e-10
-1.28054e-10
-1.27923e-10
-1.27892e-10
-1.27891e-10
-1.27896e-10
-1.27905e-10
-1.27914e-10
-1.27925e-10
-1.27936e-10
-1.27948e-10
-1.27961e-10
-1.27976e-10
-1.27991e-10
-1.28007e-10
-1.28025e-10
-1.28044e-10
-1.28063e-10
-1.28085e-10
-1.28106e-10
-1.28131e-10
-1.28155e-10
-1.28181e-10
-1.28209e-10
-1.28237e-10
-1.28267e-10
-1.28297e-10
-1.28328e-10
-1.2836e-10
-1.28393e-10
-1.28427e-10
-1.28462e-10
-1.28498e-10
-1.28537e-10
-1.28576e-10
-1.28616e-10
-1.28659e-10
-1.28702e-10
-1.28746e-10
-1.28791e-10
-1.28837e-10
-1.28884e-10
-1.28932e-10
-1.28981e-10
-1.29032e-10
-1.29084e-10
-1.29137e-10
-1.29192e-10
-1.29248e-10
-1.29306e-10
-1.29365e-10
-1.29424e-10
-1.29486e-10
-1.29548e-10
-1.29612e-10
-1.29678e-10
-1.29745e-10
-1.29814e-10
-1.29884e-10
-1.29956e-10
-1.3003e-10
-1.30105e-10
-1.30182e-10
)
;
    }
    inandouthalf12
    {
        type            cyclic;
        value           nonuniform List<scalar> 
100
(
1.27227e-10
1.26909e-10
1.26791e-10
1.26873e-10
1.26965e-10
1.27038e-10
1.27108e-10
1.27177e-10
1.27245e-10
1.27314e-10
1.27385e-10
1.27457e-10
1.27529e-10
1.27603e-10
1.27678e-10
1.27754e-10
1.27832e-10
1.27911e-10
1.27989e-10
1.28065e-10
1.28136e-10
1.282e-10
1.28257e-10
1.28305e-10
1.28349e-10
1.28394e-10
1.28449e-10
1.28526e-10
1.28641e-10
1.2881e-10
1.29054e-10
1.29384e-10
1.29774e-10
1.30115e-10
1.30183e-10
1.29795e-10
1.29076e-10
1.28417e-10
1.28054e-10
1.27923e-10
1.27892e-10
1.27891e-10
1.27896e-10
1.27905e-10
1.27914e-10
1.27925e-10
1.27936e-10
1.27948e-10
1.27961e-10
1.27976e-10
1.27991e-10
1.28007e-10
1.28025e-10
1.28044e-10
1.28063e-10
1.28085e-10
1.28106e-10
1.28131e-10
1.28155e-10
1.28181e-10
1.28209e-10
1.28237e-10
1.28267e-10
1.28297e-10
1.28328e-10
1.2836e-10
1.28393e-10
1.28427e-10
1.28462e-10
1.28498e-10
1.28537e-10
1.28576e-10
1.28616e-10
1.28659e-10
1.28702e-10
1.28746e-10
1.28791e-10
1.28837e-10
1.28884e-10
1.28932e-10
1.28981e-10
1.29032e-10
1.29084e-10
1.29137e-10
1.29192e-10
1.29248e-10
1.29306e-10
1.29365e-10
1.29424e-10
1.29486e-10
1.29548e-10
1.29612e-10
1.29678e-10
1.29745e-10
1.29814e-10
1.29884e-10
1.29956e-10
1.3003e-10
1.30105e-10
1.30182e-10
)
;
    }
    inandouthalf21
    {
        type            cyclic;
        value           nonuniform List<scalar> 
100
(
-1.30261e-10
-1.30342e-10
-1.30425e-10
-1.3051e-10
-1.30597e-10
-1.30687e-10
-1.30778e-10
-1.30873e-10
-1.30969e-10
-1.31068e-10
-1.3117e-10
-1.31275e-10
-1.31383e-10
-1.31493e-10
-1.31607e-10
-1.31725e-10
-1.31845e-10
-1.3197e-10
-1.32099e-10
-1.32231e-10
-1.32368e-10
-1.32509e-10
-1.32655e-10
-1.32806e-10
-1.32962e-10
-1.33124e-10
-1.33291e-10
-1.33465e-10
-1.33646e-10
-1.33834e-10
-1.3403e-10
-1.34234e-10
-1.34447e-10
-1.34671e-10
-1.3491e-10
-1.35162e-10
-1.35428e-10
-1.35709e-10
-1.36021e-10
-1.3638e-10
-1.3677e-10
-1.37141e-10
-1.37582e-10
-1.38156e-10
-1.38862e-10
-1.39934e-10
-2.97855e-11
4.00895e-08
6.67093e-08
3.65185e-08
1.47582e-08
-3.07887e-09
-1.8614e-08
-3.2485e-08
-4.49599e-08
-5.6151e-08
-6.61093e-08
-7.48635e-08
-8.24383e-08
-8.88624e-08
-9.41687e-08
-9.8392e-08
-1.01566e-07
-1.03717e-07
-1.04864e-07
-1.0501e-07
-1.04142e-07
-1.02231e-07
-9.9227e-08
-9.50639e-08
-8.96611e-08
-8.29307e-08
-7.47904e-08
-6.51862e-08
-5.41229e-08
-4.16921e-08
-2.80897e-08
-1.36157e-08
1.34269e-09
1.63481e-08
3.09659e-08
4.48197e-08
5.76345e-08
6.92546e-08
7.96364e-08
8.88239e-08
9.69175e-08
1.04046e-07
1.10345e-07
1.15945e-07
1.20961e-07
1.25492e-07
1.29621e-07
1.33417e-07
1.36936e-07
1.40221e-07
1.4331e-07
1.4623e-07
1.49006e-07
1.51655e-07
)
;
    }
    inandouthalf22
    {
        type            cyclic;
        value           nonuniform List<scalar> 
100
(
1.30261e-10
1.30342e-10
1.30425e-10
1.3051e-10
1.30597e-10
1.30687e-10
1.30778e-10
1.30873e-10
1.30969e-10
1.31068e-10
1.3117e-10
1.31275e-10
1.31383e-10
1.31493e-10
1.31607e-10
1.31725e-10
1.31845e-10
1.3197e-10
1.32099e-10
1.32231e-10
1.32368e-10
1.32509e-10
1.32655e-10
1.32806e-10
1.32962e-10
1.33124e-10
1.33291e-10
1.33465e-10
1.33646e-10
1.33834e-10
1.3403e-10
1.34234e-10
1.34447e-10
1.34671e-10
1.3491e-10
1.35162e-10
1.35428e-10
1.35709e-10
1.36021e-10
1.3638e-10
1.3677e-10
1.37141e-10
1.37582e-10
1.38156e-10
1.38862e-10
1.39934e-10
2.97855e-11
-4.00895e-08
-6.67093e-08
-3.65185e-08
-1.47582e-08
3.07887e-09
1.8614e-08
3.2485e-08
4.49599e-08
5.6151e-08
6.61093e-08
7.48635e-08
8.24383e-08
8.88624e-08
9.41687e-08
9.8392e-08
1.01566e-07
1.03717e-07
1.04864e-07
1.0501e-07
1.04142e-07
1.02231e-07
9.9227e-08
9.50639e-08
8.96611e-08
8.29307e-08
7.47904e-08
6.51862e-08
5.41229e-08
4.16921e-08
2.80897e-08
1.36157e-08
-1.34269e-09
-1.63481e-08
-3.09659e-08
-4.48197e-08
-5.76345e-08
-6.92546e-08
-7.96364e-08
-8.88239e-08
-9.69175e-08
-1.04046e-07
-1.10345e-07
-1.15945e-07
-1.20961e-07
-1.25492e-07
-1.29621e-07
-1.33417e-07
-1.36936e-07
-1.40221e-07
-1.4331e-07
-1.4623e-07
-1.49006e-07
-1.51655e-07
)
;
    }
    inandouthalf31
    {
        type            cyclic;
        value           nonuniform List<scalar> 
110
(
1.54193e-07
1.59836e-07
1.656e-07
1.71491e-07
1.77515e-07
1.83679e-07
1.89987e-07
1.96446e-07
2.0306e-07
2.09834e-07
2.16773e-07
2.23882e-07
2.31165e-07
2.38626e-07
2.46269e-07
2.54099e-07
2.62119e-07
2.70332e-07
2.7874e-07
2.87347e-07
2.96153e-07
3.05159e-07
3.14364e-07
3.23766e-07
3.33361e-07
3.43143e-07
3.53102e-07
3.63227e-07
3.73499e-07
3.83896e-07
3.94386e-07
4.04928e-07
4.15468e-07
4.25932e-07
4.36218e-07
4.46187e-07
4.55635e-07
4.64254e-07
4.71518e-07
4.76513e-07
4.78437e-07
4.59905e-07
4.46689e-07
4.53879e-07
4.63059e-07
4.72457e-07
4.82047e-07
4.91831e-07
5.01814e-07
5.11999e-07
5.22391e-07
5.32994e-07
5.43813e-07
5.54851e-07
5.66112e-07
5.77603e-07
5.89327e-07
6.01289e-07
6.13493e-07
6.25945e-07
6.3865e-07
6.51613e-07
6.64839e-07
6.78334e-07
6.92102e-07
7.0615e-07
7.20483e-07
7.35107e-07
7.50027e-07
7.65251e-07
7.80784e-07
7.96631e-07
8.12801e-07
8.29299e-07
8.46131e-07
8.63305e-07
8.80828e-07
8.98707e-07
9.16948e-07
9.3556e-07
9.54549e-07
9.73924e-07
9.93692e-07
1.01386e-06
1.03444e-06
1.05544e-06
1.07686e-06
1.09872e-06
1.12102e-06
1.14377e-06
1.16699e-06
1.19067e-06
1.21484e-06
1.2395e-06
1.26466e-06
1.29033e-06
1.31652e-06
1.34324e-06
1.3705e-06
1.39832e-06
1.4267e-06
1.45566e-06
1.48521e-06
1.51535e-06
1.54611e-06
1.57749e-06
1.60951e-06
1.64218e-06
1.67551e-06
1.70952e-06
)
;
    }
    inandouthalf32
    {
        type            cyclic;
        value           nonuniform List<scalar> 
110
(
-1.54193e-07
-1.59836e-07
-1.656e-07
-1.71491e-07
-1.77515e-07
-1.83679e-07
-1.89987e-07
-1.96446e-07
-2.0306e-07
-2.09834e-07
-2.16773e-07
-2.23882e-07
-2.31165e-07
-2.38626e-07
-2.46269e-07
-2.54099e-07
-2.62119e-07
-2.70332e-07
-2.7874e-07
-2.87347e-07
-2.96153e-07
-3.05159e-07
-3.14364e-07
-3.23766e-07
-3.33361e-07
-3.43143e-07
-3.53102e-07
-3.63227e-07
-3.73499e-07
-3.83896e-07
-3.94386e-07
-4.04928e-07
-4.15468e-07
-4.25932e-07
-4.36218e-07
-4.46187e-07
-4.55635e-07
-4.64254e-07
-4.71518e-07
-4.76513e-07
-4.78437e-07
-4.59905e-07
-4.46689e-07
-4.53879e-07
-4.63059e-07
-4.72457e-07
-4.82047e-07
-4.91831e-07
-5.01814e-07
-5.11999e-07
-5.22391e-07
-5.32994e-07
-5.43813e-07
-5.54851e-07
-5.66112e-07
-5.77603e-07
-5.89327e-07
-6.01289e-07
-6.13493e-07
-6.25945e-07
-6.3865e-07
-6.51613e-07
-6.64839e-07
-6.78334e-07
-6.92102e-07
-7.0615e-07
-7.20483e-07
-7.35107e-07
-7.50027e-07
-7.65251e-07
-7.80784e-07
-7.96631e-07
-8.12801e-07
-8.29299e-07
-8.46131e-07
-8.63305e-07
-8.80828e-07
-8.98707e-07
-9.16948e-07
-9.3556e-07
-9.54549e-07
-9.73924e-07
-9.93692e-07
-1.01386e-06
-1.03444e-06
-1.05544e-06
-1.07686e-06
-1.09872e-06
-1.12102e-06
-1.14377e-06
-1.16699e-06
-1.19067e-06
-1.21484e-06
-1.2395e-06
-1.26466e-06
-1.29033e-06
-1.31652e-06
-1.34324e-06
-1.3705e-06
-1.39832e-06
-1.4267e-06
-1.45566e-06
-1.48521e-06
-1.51535e-06
-1.54611e-06
-1.57749e-06
-1.60951e-06
-1.64218e-06
-1.67551e-06
-1.70952e-06
)
;
    }
    inandouthalf41
    {
        type            cyclic;
        value           nonuniform List<scalar> 
50
(
1.53019e-06
1.53019e-06
1.53019e-06
1.53019e-06
1.53019e-06
1.53019e-06
1.53019e-06
1.53019e-06
1.53019e-06
1.53019e-06
1.53019e-06
1.53019e-06
1.53019e-06
1.53019e-06
1.53019e-06
1.53019e-06
1.53019e-06
1.53019e-06
1.53019e-06
1.53019e-06
1.53019e-06
1.53019e-06
1.53019e-06
1.53019e-06
1.53019e-06
1.53019e-06
1.53019e-06
1.53019e-06
1.53019e-06
1.53019e-06
1.53019e-06
1.53019e-06
1.53019e-06
1.53019e-06
1.53019e-06
1.53019e-06
1.53019e-06
1.53019e-06
1.53019e-06
1.53019e-06
1.53019e-06
1.53019e-06
1.53019e-06
1.53019e-06
1.53019e-06
1.53019e-06
1.53019e-06
1.53019e-06
1.53019e-06
1.53019e-06
)
;
    }
    inandouthalf42
    {
        type            cyclic;
        value           nonuniform List<scalar> 
50
(
-1.53019e-06
-1.53019e-06
-1.53019e-06
-1.53019e-06
-1.53019e-06
-1.53019e-06
-1.53019e-06
-1.53019e-06
-1.53019e-06
-1.53019e-06
-1.53019e-06
-1.53019e-06
-1.53019e-06
-1.53019e-06
-1.53019e-06
-1.53019e-06
-1.53019e-06
-1.53019e-06
-1.53019e-06
-1.53019e-06
-1.53019e-06
-1.53019e-06
-1.53019e-06
-1.53019e-06
-1.53019e-06
-1.53019e-06
-1.53019e-06
-1.53019e-06
-1.53019e-06
-1.53019e-06
-1.53019e-06
-1.53019e-06
-1.53019e-06
-1.53019e-06
-1.53019e-06
-1.53019e-06
-1.53019e-06
-1.53019e-06
-1.53019e-06
-1.53019e-06
-1.53019e-06
-1.53019e-06
-1.53019e-06
-1.53019e-06
-1.53019e-06
-1.53019e-06
-1.53019e-06
-1.53019e-06
-1.53019e-06
-1.53019e-06
)
;
    }
    top
    {
        type            symmetryPlane;
        value           uniform 0;
    }
    walls
    {
        type            calculated;
        value           uniform 0;
    }
    frontAndBackPlanes
    {
        type            empty;
        value           nonuniform 0();
    }
}


// ************************************************************************* //
