/*--------------------------------*- C++ -*----------------------------------*\
| =========                 |                                                 |
| \\      /  F ield         | OpenFOAM: The Open Source CFD Toolbox           |
|  \\    /   O peration     | Version:  2.4.x                                 |
|   \\  /    A nd           | Web:      www.OpenFOAM.org                      |
|    \\/     M anipulation  |                                                 |
\*---------------------------------------------------------------------------*/
FoamFile
{
    version     2.0;
    format      ascii;
    class       volVectorField;
    location    "4.4";
    object      ddt0(Ub);
}
// * * * * * * * * * * * * * * * * * * * * * * * * * * * * * * * * * * * * * //

dimensions      [0 1 -2 0 0 0 0];

internalField   nonuniform List<vector> 
360
(
(0.000127227 -4.24154e-08 0)
(0.000126909 -1.98422e-07 0)
(0.000126791 -4.22032e-07 0)
(0.000126873 -6.30027e-07 0)
(0.000126965 -8.19492e-07 0)
(0.000127038 -1.00356e-06 0)
(0.000127108 -1.19174e-06 0)
(0.000127177 -1.38591e-06 0)
(0.000127245 -1.58345e-06 0)
(0.000127314 -1.78176e-06 0)
(0.000127385 -1.98062e-06 0)
(0.000127457 -2.18166e-06 0)
(0.000127529 -2.38728e-06 0)
(0.000127603 -2.59942e-06 0)
(0.000127678 -2.81911e-06 0)
(0.000127754 -3.04627e-06 0)
(0.000127832 -3.27932e-06 0)
(0.000127911 -3.51453e-06 0)
(0.000127989 -3.7454e-06 0)
(0.000128065 -3.96284e-06 0)
(0.000128136 -4.15588e-06 0)
(0.0001282 -4.31448e-06 0)
(0.000128257 -4.43329e-06 0)
(0.000128305 -4.516e-06 0)
(0.000128349 -4.5792e-06 0)
(0.000128394 -4.6545e-06 0)
(0.000128449 -4.78855e-06 0)
(0.000128526 -5.04241e-06 0)
(0.000128641 -5.49102e-06 0)
(0.00012881 -6.22177e-06 0)
(0.000129054 -7.32117e-06 0)
(0.000129384 -8.82024e-06 0)
(0.000129774 -1.05464e-05 0)
(0.000130115 -1.19112e-05 0)
(0.000130183 -1.19336e-05 0)
(0.000129795 -9.93674e-06 0)
(0.000129076 -6.50496e-06 0)
(0.000128417 -3.22167e-06 0)
(0.000128054 -1.17813e-06 0)
(0.000127923 -3.01159e-07 0)
(0.000127892 -2.53875e-08 0)
(0.000127891 4.48979e-08 0)
(0.000127896 6.14603e-08 0)
(0.000127905 6.54246e-08 0)
(0.000127914 6.62506e-08 0)
(0.000127925 6.60911e-08 0)
(0.000127936 6.54595e-08 0)
(0.000127948 6.44952e-08 0)
(0.000127961 6.32532e-08 0)
(0.000127976 6.18009e-08 0)
(0.000127991 6.02369e-08 0)
(0.000128007 5.86596e-08 0)
(0.000128025 5.71449e-08 0)
(0.000128044 5.57383e-08 0)
(0.000128063 5.44332e-08 0)
(0.000128085 5.31949e-08 0)
(0.000128106 5.19927e-08 0)
(0.000128131 5.07919e-08 0)
(0.000128155 4.95593e-08 0)
(0.000128181 4.82804e-08 0)
(0.000128209 4.69388e-08 0)
(0.000128237 4.55354e-08 0)
(0.000128267 4.40734e-08 0)
(0.000128297 4.25497e-08 0)
(0.000128328 4.09772e-08 0)
(0.00012836 3.93686e-08 0)
(0.000128393 3.77298e-08 0)
(0.000128427 3.60651e-08 0)
(0.000128462 3.4373e-08 0)
(0.000128498 3.26492e-08 0)
(0.000128537 3.08918e-08 0)
(0.000128576 2.90827e-08 0)
(0.000128616 2.72117e-08 0)
(0.000128659 2.52795e-08 0)
(0.000128702 2.32912e-08 0)
(0.000128746 2.12418e-08 0)
(0.000128791 1.91274e-08 0)
(0.000128837 1.69595e-08 0)
(0.000128884 1.47435e-08 0)
(0.000128932 1.24792e-08 0)
(0.000128981 1.01667e-08 0)
(0.000129032 7.80854e-09 0)
(0.000129084 5.40743e-09 0)
(0.000129137 2.95879e-09 0)
(0.000129192 4.55219e-10 0)
(0.000129248 -2.10588e-09 0)
(0.000129306 -4.72297e-09 0)
(0.000129365 -7.39988e-09 0)
(0.000129424 -1.01327e-08 0)
(0.000129486 -1.29167e-08 0)
(0.000129548 -1.57478e-08 0)
(0.000129612 -1.8614e-08 0)
(0.000129678 -2.15154e-08 0)
(0.000129745 -2.44526e-08 0)
(0.000129814 -2.74233e-08 0)
(0.000129884 -3.04225e-08 0)
(0.000129956 -3.34496e-08 0)
(0.00013003 -3.6508e-08 0)
(0.000130105 -3.9593e-08 0)
(0.000130182 -4.26982e-08 0)
(0.000130261 -4.58204e-08 0)
(0.000130342 -4.89625e-08 0)
(0.000130425 -5.21194e-08 0)
(0.00013051 -5.5286e-08 0)
(0.000130597 -5.8463e-08 0)
(0.000130687 -6.16473e-08 0)
(0.000130778 -6.48337e-08 0)
(0.000130873 -6.80094e-08 0)
(0.000130969 -7.11805e-08 0)
(0.000131068 -7.43436e-08 0)
(0.00013117 -7.74889e-08 0)
(0.000131275 -8.0621e-08 0)
(0.000131383 -8.37355e-08 0)
(0.000131493 -8.68272e-08 0)
(0.000131607 -8.9898e-08 0)
(0.000131725 -9.2952e-08 0)
(0.000131845 -9.5991e-08 0)
(0.00013197 -9.90115e-08 0)
(0.000132099 -1.02013e-07 0)
(0.000132231 -1.05002e-07 0)
(0.000132368 -1.07973e-07 0)
(0.000132509 -1.10931e-07 0)
(0.000132655 -1.13886e-07 0)
(0.000132806 -1.16831e-07 0)
(0.000132962 -1.19757e-07 0)
(0.000133124 -1.22648e-07 0)
(0.000133291 -1.25495e-07 0)
(0.000133465 -1.2828e-07 0)
(0.000133646 -1.30974e-07 0)
(0.000133834 -1.33558e-07 0)
(0.00013403 -1.36e-07 0)
(0.000134234 -1.3827e-07 0)
(0.000134447 -1.40355e-07 0)
(0.000134671 -1.4224e-07 0)
(0.00013491 -1.43925e-07 0)
(0.000135162 -1.45421e-07 0)
(0.000135428 -1.46733e-07 0)
(0.000135709 -1.47863e-07 0)
(0.000136021 -1.48809e-07 0)
(0.00013638 -1.49553e-07 0)
(0.00013677 -1.50141e-07 0)
(0.000137141 -1.50466e-07 0)
(0.000137582 -1.50602e-07 0)
(0.000138156 -1.50595e-07 0)
(0.000138862 -1.91683e-07 0)
(0.000139934 4.38635e-06 0)
(2.97855e-05 -4.85396e-05 0)
(-0.0400895 0.000210713 0)
(-0.0667093 0.00161219 0)
(-0.0365185 0.00124905 0)
(-0.0147582 0.00110035 0)
(0.00307887 0.000952642 0)
(0.018614 0.000834472 0)
(0.032485 0.000727628 0)
(0.0449599 0.000629882 0)
(0.056151 0.000540921 0)
(0.0661093 0.00046028 0)
(0.0748635 0.000387539 0)
(0.0824383 0.000322404 0)
(0.0888624 0.000264604 0)
(0.0941687 0.000213839 0)
(0.098392 0.000169738 0)
(0.101566 0.000131829 0)
(0.103717 9.95697e-05 0)
(0.104864 7.24027e-05 0)
(0.10501 4.98176e-05 0)
(0.104142 3.13849e-05 0)
(0.102231 1.6723e-05 0)
(0.099227 5.40011e-06 0)
(0.0950639 -3.16977e-06 0)
(0.0896611 -9.65891e-06 0)
(0.0829307 -1.44813e-05 0)
(0.0747904 -1.74724e-05 0)
(0.0651862 -1.81632e-05 0)
(0.0541229 -1.6559e-05 0)
(0.0416921 -1.34996e-05 0)
(0.0280897 -1.01502e-05 0)
(0.0136157 -7.30167e-06 0)
(-0.00134269 -5.1877e-06 0)
(-0.0163481 -3.71182e-06 0)
(-0.0309659 -2.69551e-06 0)
(-0.0448197 -1.99111e-06 0)
(-0.0576345 -1.49792e-06 0)
(-0.0692546 -1.15015e-06 0)
(-0.0796364 -9.0485e-07 0)
(-0.0888239 -7.33821e-07 0)
(-0.0969175 -6.17585e-07 0)
(-0.104046 -5.39725e-07 0)
(-0.110345 -4.82436e-07 0)
(-0.115945 -4.27656e-07 0)
(-0.120961 -3.65184e-07 0)
(-0.125492 -2.99078e-07 0)
(-0.129621 -2.41558e-07 0)
(-0.133417 -1.9933e-07 0)
(-0.136936 -1.68734e-07 0)
(-0.140221 -1.43426e-07 0)
(-0.14331 -1.21372e-07 0)
(-0.14623 -1.0327e-07 0)
(-0.149006 -8.86598e-08 0)
(-0.151655 -7.59766e-08 0)
(-0.154193 -6.47151e-08 0)
(-0.156656 -5.55888e-08 0)
(-0.159076 -4.86268e-08 0)
(-0.161458 -4.22698e-08 0)
(-0.163805 -3.5726e-08 0)
(-0.166121 -3.03772e-08 0)
(-0.168408 -2.68345e-08 0)
(-0.170669 -2.35063e-08 0)
(-0.172905 -1.97847e-08 0)
(-0.175119 -1.68458e-08 0)
(-0.177311 -1.47703e-08 0)
(-0.179483 -1.27028e-08 0)
(-0.181635 -1.07698e-08 0)
(-0.183767 -9.24068e-09 0)
(-0.185881 -7.84992e-09 0)
(-0.187975 -6.6621e-09 0)
(-0.190051 -5.77173e-09 0)
(-0.192106 -4.88515e-09 0)
(-0.194141 -4.02181e-09 0)
(-0.196154 -3.41498e-09 0)
(-0.198143 -2.91996e-09 0)
(-0.200107 -2.40434e-09 0)
(-0.202042 -1.96266e-09 0)
(-0.203946 -1.60565e-09 0)
(-0.205812 -1.30446e-09 0)
(-0.207637 -1.05431e-09 0)
(-0.209413 -8.35397e-10 0)
(-0.211132 -6.57968e-10 0)
(-0.212784 -5.22942e-10 0)
(-0.214356 -4.03881e-10 0)
(-0.215833 -2.97006e-10 0)
(-0.217194 -2.10014e-10 0)
(-0.218414 -1.48062e-10 0)
(-0.21946 -1.34385e-10 0)
(-0.220289 -5.5067e-11 0)
(-0.22084 -1.21137e-10 0)
(-0.221031 -1.46225e-10 0)
(-0.220732 6.18164e-10 0)
(-0.219726 -8.78261e-10 0)
(-0.217635 1.28986e-09 0)
(-0.214167 -1.58996e-09 0)
(-0.201776 1.94093e-09 0)
(-0.192079 -2.12302e-09 0)
(-0.191288 2.37733e-09 0)
(-0.191275 -2.51421e-09 0)
(-0.191275 2.74373e-09 0)
(-0.191275 -2.84954e-09 0)
(-0.191274 3.04481e-09 0)
(-0.191274 -3.11616e-09 0)
(-0.191274 3.29305e-09 0)
(-0.191274 -3.34867e-09 0)
(-0.191274 3.51894e-09 0)
(-0.191274 -3.57848e-09 0)
(-0.191274 3.75477e-09 0)
(-0.191274 -3.82226e-09 0)
(-0.191274 4.00741e-09 0)
(-0.191274 -4.08869e-09 0)
(-0.191274 4.2801e-09 0)
(-0.191274 -4.37568e-09 0)
(-0.191274 4.57184e-09 0)
(-0.191274 -4.68492e-09 0)
(-0.191274 4.8851e-09 0)
(-0.191274 -5.012e-09 0)
(-0.191274 5.21811e-09 0)
(-0.191274 -5.35951e-09 0)
(-0.191274 5.57153e-09 0)
(-0.191274 -5.72529e-09 0)
(-0.191274 5.94621e-09 0)
(-0.191274 -6.10808e-09 0)
(-0.191274 6.34266e-09 0)
(-0.191274 -6.51087e-09 0)
(-0.191274 6.75839e-09 0)
(-0.191274 -6.93226e-09 0)
(-0.191274 7.19305e-09 0)
(-0.191274 -7.37377e-09 0)
(-0.191274 7.64577e-09 0)
(-0.191274 -7.8361e-09 0)
(-0.191274 8.11902e-09 0)
(-0.191274 -8.3171e-09 0)
(-0.191274 8.60953e-09 0)
(-0.191274 -8.81922e-09 0)
(-0.191274 9.11924e-09 0)
(-0.191274 -9.3416e-09 0)
(-0.191274 9.64695e-09 0)
(-0.191274 -9.88437e-09 0)
(-0.191274 1.0197e-08 0)
(-0.191274 -1.04452e-08 0)
(-0.191274 1.07663e-08 0)
(-0.191274 -1.10263e-08 0)
(-0.191274 1.13552e-08 0)
(-0.191274 -1.16288e-08 0)
(-0.191274 1.19611e-08 0)
(-0.191274 -1.22545e-08 0)
(-0.191274 1.25878e-08 0)
(-0.191274 -1.28965e-08 0)
(-0.191274 1.32402e-08 0)
(-0.191274 -1.35549e-08 0)
(-0.191274 1.39078e-08 0)
(-0.191274 -1.4235e-08 0)
(-0.191274 1.45991e-08 0)
(-0.191274 -1.49303e-08 0)
(-0.191274 1.53152e-08 0)
(-0.191274 -1.56474e-08 0)
(-0.191274 1.60458e-08 0)
(-0.191274 -1.63798e-08 0)
(-0.191274 1.67874e-08 0)
(-0.191274 -1.71248e-08 0)
(-0.191274 1.75394e-08 0)
(-0.191274 -1.78773e-08 0)
(-0.191274 1.82948e-08 0)
(-0.191274 -1.63479e-08 0)
(-0.191274 1.63917e-08 0)
(-0.191274 -1.63541e-08 0)
(-0.191274 1.63933e-08 0)
(-0.191274 -1.63463e-08 0)
(-0.191274 1.63851e-08 0)
(-0.191274 -1.6335e-08 0)
(-0.191274 1.63662e-08 0)
(-0.191274 -1.63167e-08 0)
(-0.191274 1.63367e-08 0)
(-0.191274 -1.62889e-08 0)
(-0.191274 1.62974e-08 0)
(-0.191274 -1.62526e-08 0)
(-0.191274 1.62456e-08 0)
(-0.191274 -1.61973e-08 0)
(-0.191274 1.61806e-08 0)
(-0.191274 -1.61311e-08 0)
(-0.191274 1.61075e-08 0)
(-0.191274 -1.60472e-08 0)
(-0.191274 1.60107e-08 0)
(-0.191274 -1.59575e-08 0)
(-0.191274 1.59057e-08 0)
(-0.191274 -1.5847e-08 0)
(-0.191274 1.57872e-08 0)
(-0.191274 -1.5721e-08 0)
(-0.191274 1.56511e-08 0)
(-0.191274 -1.55799e-08 0)
(-0.191274 1.54989e-08 0)
(-0.191274 -1.54217e-08 0)
(-0.191274 1.53304e-08 0)
(-0.191274 -1.52449e-08 0)
(-0.191274 1.5144e-08 0)
(-0.191274 -1.50509e-08 0)
(-0.191274 1.49378e-08 0)
(-0.191274 -1.48358e-08 0)
(-0.191274 1.47134e-08 0)
(-0.191274 -1.4598e-08 0)
(-0.191274 1.44666e-08 0)
(-0.191274 -1.43375e-08 0)
(-0.191274 1.41936e-08 0)
(-0.191274 -1.40527e-08 0)
(-0.191274 1.38926e-08 0)
(-0.191274 -1.37368e-08 0)
(-0.191274 1.35594e-08 0)
(-0.191274 -1.33915e-08 0)
(-0.191274 1.31965e-08 0)
(-0.191274 -1.30352e-08 0)
(-0.191274 1.28341e-08 0)
(-0.191274 -1.20701e-08 0)
(-0.191274 1.19512e-08 0)
)
;

boundaryField
{
    inandouthalf11
    {
        type            cyclic;
    }
    inandouthalf12
    {
        type            cyclic;
    }
    inandouthalf21
    {
        type            cyclic;
    }
    inandouthalf22
    {
        type            cyclic;
    }
    inandouthalf31
    {
        type            cyclic;
    }
    inandouthalf32
    {
        type            cyclic;
    }
    inandouthalf41
    {
        type            cyclic;
    }
    inandouthalf42
    {
        type            cyclic;
    }
    top
    {
        type            symmetryPlane;
    }
    walls
    {
        type            calculated;
        value           uniform (0 0 0);
    }
    frontAndBackPlanes
    {
        type            empty;
    }
}


// ************************************************************************* //
