/*--------------------------------*- C++ -*----------------------------------*\
| =========                 |                                                 |
| \\      /  F ield         | OpenFOAM: The Open Source CFD Toolbox           |
|  \\    /   O peration     | Version:  2.4.x                                 |
|   \\  /    A nd           | Web:      www.OpenFOAM.org                      |
|    \\/     M anipulation  |                                                 |
\*---------------------------------------------------------------------------*/
FoamFile
{
    version     2.0;
    format      ascii;
    class       volScalarField;
    location    "4.4";
    object      nutb;
}
// * * * * * * * * * * * * * * * * * * * * * * * * * * * * * * * * * * * * * //

dimensions      [0 2 -1 0 0 0 0];

internalField   nonuniform List<scalar> 
360
(
9e-22
9e-22
9e-22
9e-22
9e-22
9e-22
9e-22
9e-22
9e-22
9e-22
9e-22
9e-22
9e-22
9e-22
9e-22
9e-22
9e-22
9e-22
9e-22
9e-22
9e-22
9e-22
9e-22
9e-22
9e-22
9e-22
9e-22
9e-22
9e-22
9e-22
9e-22
9e-22
9e-22
9e-22
9e-22
9e-22
9e-22
9e-22
9e-22
9e-22
9e-22
9e-22
9e-22
9e-22
9e-22
9e-22
9e-22
9e-22
9e-22
9e-22
9e-22
9e-22
9e-22
9e-22
9e-22
9e-22
9e-22
9e-22
9e-22
9e-22
9e-22
9e-22
9e-22
9e-22
9e-22
9e-22
9e-22
9e-22
9e-22
9e-22
9e-22
9e-22
9e-22
9e-22
9e-22
9e-22
9e-22
9e-22
9e-22
9e-22
9e-22
9e-22
9e-22
9e-22
9e-22
9e-22
9e-22
9e-22
9e-22
9e-22
9e-22
9e-22
9e-22
9e-22
9e-22
9e-22
9e-22
9e-22
9e-22
9e-22
9e-22
9e-22
9e-22
9e-22
9e-22
9e-22
9e-22
9e-22
9e-22
9e-22
9e-22
9e-22
9e-22
9e-22
9e-22
9e-22
9e-22
9e-22
9e-22
9e-22
9e-22
9e-22
9e-22
9e-22
9e-22
9e-22
9e-22
9e-22
9e-22
9e-22
9e-22
9e-22
9e-22
6.21527e-22
3.24345e-21
2.34307e-20
1.83333e-19
1.55443e-18
1.43756e-17
1.45869e-16
1.63967e-15
2.07496e-14
3.02509e-13
5.1931e-12
1.0667e-10
2.65526e-09
7.78399e-08
1.6817e-06
9.32139e-06
1.76743e-05
2.44559e-05
3.03011e-05
3.5529e-05
4.02924e-05
4.46808e-05
4.87416e-05
5.24927e-05
5.59339e-05
5.9055e-05
6.18424e-05
6.4284e-05
6.63719e-05
6.81037e-05
6.94832e-05
7.05203e-05
7.12314e-05
7.16393e-05
7.17733e-05
7.16691e-05
7.137e-05
7.09272e-05
7.04004e-05
6.98584e-05
6.93779e-05
6.90417e-05
6.89357e-05
6.91456e-05
6.97515e-05
7.08213e-05
7.2402e-05
7.45126e-05
7.71396e-05
8.0237e-05
8.37316e-05
8.75317e-05
9.15367e-05
9.56473e-05
9.97724e-05
0.000103834
0.00010777
0.000111532
0.000115087
0.000118412
0.000121497
0.000124338
0.000126936
0.000129299
0.000131435
0.000133354
0.000135068
0.000136586
0.000137934
0.000139127
0.000140164
0.000141044
0.000141768
0.000142333
0.000142737
0.000142978
0.000143053
0.000142956
0.000142683
0.000142228
0.000141585
0.000140747
0.000139705
0.000138451
0.000136976
0.000135269
0.00013332
0.000131119
0.000128653
0.00012591
0.000122878
0.000119542
0.000115891
0.000111909
0.000107582
0.000102896
9.78363e-05
9.23869e-05
8.65332e-05
8.02603e-05
7.35537e-05
6.63994e-05
5.87844e-05
5.06973e-05
4.2129e-05
3.30722e-05
2.35134e-05
1.3432e-05
3.54873e-06
1.83564e-07
2.78635e-09
3.59716e-11
4.39528e-13
5.09363e-15
5.59919e-17
5.82018e-19
5.24652e-21
9.00213e-22
9e-22
9e-22
9e-22
9e-22
9e-22
9e-22
9e-22
9e-22
9e-22
9e-22
9e-22
9e-22
9e-22
9e-22
9e-22
9e-22
9e-22
9e-22
9e-22
9e-22
9e-22
9e-22
9e-22
9e-22
9e-22
9e-22
9e-22
9e-22
9e-22
9e-22
9e-22
9e-22
9e-22
9e-22
9e-22
9e-22
9e-22
9e-22
9e-22
9e-22
9e-22
9e-22
9e-22
9e-22
9e-22
9e-22
9e-22
9e-22
9e-22
9e-22
9e-22
9e-22
9e-22
9e-22
9e-22
9e-22
9e-22
9e-22
9e-22
9e-22
9e-22
9e-22
9e-22
9e-22
9e-22
9e-22
9e-22
9e-22
9e-22
9e-22
9e-22
9e-22
9e-22
9e-22
9e-22
9e-22
9e-22
9e-22
9e-22
9e-22
9e-22
9e-22
9e-22
9e-22
9e-22
9e-22
9e-22
9e-22
9e-22
9e-22
9e-22
9e-22
9e-22
9e-22
9e-22
9e-22
9e-22
9e-22
9e-22
9e-22
9e-22
9e-22
9e-22
9e-22
9e-22
9e-22
9e-22
9e-22
9e-22
)
;

boundaryField
{
    inandouthalf11
    {
        type            cyclic;
    }
    inandouthalf12
    {
        type            cyclic;
    }
    inandouthalf21
    {
        type            cyclic;
    }
    inandouthalf22
    {
        type            cyclic;
    }
    inandouthalf31
    {
        type            cyclic;
    }
    inandouthalf32
    {
        type            cyclic;
    }
    inandouthalf41
    {
        type            cyclic;
    }
    inandouthalf42
    {
        type            cyclic;
    }
    top
    {
        type            symmetryPlane;
    }
    walls
    {
        type            calculated;
        value           uniform 0;
    }
    frontAndBackPlanes
    {
        type            empty;
    }
}


// ************************************************************************* //
