/*--------------------------------*- C++ -*----------------------------------*\
| =========                 |                                                 |
| \\      /  F ield         | OpenFOAM: The Open Source CFD Toolbox           |
|  \\    /   O peration     | Version:  2.4.x                                 |
|   \\  /    A nd           | Web:      www.OpenFOAM.org                      |
|    \\/     M anipulation  |                                                 |
\*---------------------------------------------------------------------------*/
FoamFile
{
    version     2.0;
    format      ascii;
    class       volScalarField;
    location    "4.4";
    object      pa;
}
// * * * * * * * * * * * * * * * * * * * * * * * * * * * * * * * * * * * * * //

dimensions      [1 -1 -2 0 0 0 0];

internalField   nonuniform List<scalar> 
360
(
2.89495e-16
2.92483e-16
2.92621e-16
2.9221e-16
2.92073e-16
2.92064e-16
2.92054e-16
2.9202e-16
2.9197e-16
2.91913e-16
2.91859e-16
2.91813e-16
2.91772e-16
2.91734e-16
2.917e-16
2.91668e-16
2.91639e-16
2.91613e-16
2.91586e-16
2.91549e-16
2.91497e-16
2.91422e-16
2.91322e-16
2.91199e-16
2.91063e-16
2.90934e-16
2.90841e-16
2.90818e-16
2.90916e-16
2.91208e-16
2.91816e-16
2.92886e-16
2.94444e-16
2.95903e-16
2.95779e-16
2.93226e-16
2.90043e-16
2.88296e-16
2.87805e-16
2.87718e-16
2.8769e-16
2.87668e-16
2.87648e-16
2.87623e-16
2.87597e-16
2.8757e-16
2.8754e-16
2.8751e-16
2.87476e-16
2.87437e-16
2.87398e-16
2.87355e-16
2.87311e-16
2.87262e-16
2.87211e-16
2.87155e-16
2.87098e-16
2.87035e-16
2.8697e-16
2.86903e-16
2.8683e-16
2.86757e-16
2.8668e-16
2.86601e-16
2.86521e-16
2.86439e-16
2.86353e-16
2.86265e-16
2.86175e-16
2.86081e-16
2.85982e-16
2.8588e-16
2.85776e-16
2.85667e-16
2.85556e-16
2.85442e-16
2.85327e-16
2.85209e-16
2.85089e-16
2.84965e-16
2.84839e-16
2.8471e-16
2.84576e-16
2.8444e-16
2.843e-16
2.84157e-16
2.84011e-16
2.83861e-16
2.83709e-16
2.83554e-16
2.83395e-16
2.83233e-16
2.83068e-16
2.82898e-16
2.82725e-16
2.82548e-16
2.82367e-16
2.82182e-16
2.81992e-16
2.81796e-16
0
0
0
0
0
0
0
0
0
0
0
0
0
0
0
2.77975e-16
2.77679e-16
2.77374e-16
2.7706e-16
2.76737e-16
2.76405e-16
2.76062e-16
2.75708e-16
2.75344e-16
2.74967e-16
2.74579e-16
2.74177e-16
2.73761e-16
2.7333e-16
2.72883e-16
2.72418e-16
2.71935e-16
2.71433e-16
3.50944e-16
2.238e-15
1.85064e-14
1.66865e-13
1.6447e-12
1.78443e-11
2.14636e-10
2.89472e-09
4.45329e-08
7.98563e-07
1.74573e-05
0.000767198
0.0554648
1.35735
6.43956
6.02047
5.32056
4.3801
3.52365
2.79987
2.20546
1.72614
1.34451
1.04343
0.807423
0.623289
0.480109
0.369057
0.283104
0.216704
0.165509
0.126115
0.0958696
0.0727021
0.0550018
0.0415136
0.0312557
0.0234556
0.0175105
0.0129736
0.00953798
0.00699087
0.00515496
0.00386046
0.00295358
0.0023122
0.00184937
0.00150696
0.00124695
0.0010444
0.000882651
0.0007503
0.000639346
0.000543997
0.00046005
0.000384882
0.000318002
0.000260959
0.000215254
0.000179892
0.00015173
0.000128161
0.000108387
9.21397e-05
7.86826e-05
6.72814e-05
5.75762e-05
4.94703e-05
4.27351e-05
3.68319e-05
3.1433e-05
2.6844e-05
2.32183e-05
1.99786e-05
1.68203e-05
1.4283e-05
1.23137e-05
1.03908e-05
8.69688e-06
7.39974e-06
6.20864e-06
5.14896e-06
4.35415e-06
3.62733e-06
2.93256e-06
2.43815e-06
2.03476e-06
1.61519e-06
1.30493e-06
1.05673e-06
8.28032e-07
6.62053e-07
5.12748e-07
3.87151e-07
3.04755e-07
2.23311e-07
1.59864e-07
1.16103e-07
8.04323e-08
5.98983e-08
4.56465e-08
3.14028e-08
1.59819e-08
0
0
0
0
0
0
0
0
0
0
0
0
0
0
0
0
0
0
0
0
0
0
0
0
0
0
0
0
0
0
0
0
0
0
0
0
0
0
0
0
0
0
0
0
0
0
0
0
0
0
0
0
0
0
0
0
0
0
0
0
0
0
0
0
0
0
0
0
0
0
0
0
0
0
0
0
0
0
0
0
0
0
0
0
0
0
0
0
0
0
0
0
0
0
0
0
0
0
0
0
0
0
0
0
0
0
0
0
0
0
0
0
0
0
0
0
0
0
0
0
0
0
0
0
)
;

boundaryField
{
    inandouthalf11
    {
        type            cyclic;
    }
    inandouthalf12
    {
        type            cyclic;
    }
    inandouthalf21
    {
        type            cyclic;
    }
    inandouthalf22
    {
        type            cyclic;
    }
    inandouthalf31
    {
        type            cyclic;
    }
    inandouthalf32
    {
        type            cyclic;
    }
    inandouthalf41
    {
        type            cyclic;
    }
    inandouthalf42
    {
        type            cyclic;
    }
    top
    {
        type            symmetryPlane;
    }
    walls
    {
        type            calculated;
        value           uniform 2.89495e-16;
    }
    frontAndBackPlanes
    {
        type            empty;
    }
}


// ************************************************************************* //
