/*--------------------------------*- C++ -*----------------------------------*\
| =========                 |                                                 |
| \\      /  F ield         | OpenFOAM: The Open Source CFD Toolbox           |
|  \\    /   O peration     | Version:  2.4.x                                 |
|   \\  /    A nd           | Web:      www.OpenFOAM.org                      |
|    \\/     M anipulation  |                                                 |
\*---------------------------------------------------------------------------*/
FoamFile
{
    version     2.0;
    format      ascii;
    class       volVectorField;
    location    "4.4";
    object      susb;
}
// * * * * * * * * * * * * * * * * * * * * * * * * * * * * * * * * * * * * * //

dimensions      [0 1 -2 0 0 0 0];

internalField   nonuniform List<vector> 
360
(
(0 3.99197e-18 0)
(0 5.0454e-18 0)
(0 7.22255e-19 0)
(0 -6.69142e-19 0)
(-3.68254e-31 -5.62515e-19 0)
(-3.68179e-31 -3.9245e-19 0)
(-3.68114e-31 -3.64009e-19 0)
(0 -3.55425e-19 0)
(-7.35972e-31 -3.55051e-19 0)
(0 -3.72288e-19 0)
(-3.67853e-31 -3.8525e-19 0)
(0 -3.90829e-19 0)
(-3.67713e-31 -3.9226e-19 0)
(0 -3.91739e-19 0)
(0 -3.9527e-19 0)
(0 -4.01577e-19 0)
(0 -4.07601e-19 0)
(-3.67355e-31 -4.12456e-19 0)
(0 -4.19374e-19 0)
(0 -4.21987e-19 0)
(0 -4.23392e-19 0)
(-3.67054e-31 -4.26178e-19 0)
(0 -4.23723e-19 0)
(0 -4.19594e-19 0)
(0 -4.13958e-19 0)
(-3.66754e-31 -4.07636e-19 0)
(0 -4.07943e-19 0)
(0 -4.15442e-19 0)
(0 -4.30733e-19 0)
(0 -4.62681e-19 0)
(0 -5.19868e-19 0)
(0 -5.93767e-19 0)
(0 -6.85268e-19 0)
(0 -7.55592e-19 0)
(0 -7.48141e-19 0)
(7.31515e-31 -6.38561e-19 0)
(0 -4.53598e-19 0)
(0 -2.80806e-19 0)
(0 -1.60371e-19 0)
(0 -1.11941e-19 0)
(0 -1.05727e-19 0)
(0 -9.99259e-20 0)
(3.65483e-31 -1.11e-19 0)
(0 -1.22474e-19 0)
(0 -1.27726e-19 0)
(0 -1.39388e-19 0)
(0 -1.44078e-19 0)
(0 -1.54872e-19 0)
(0 -1.7758e-19 0)
(0 -1.86894e-19 0)
(3.65266e-31 -1.96421e-19 0)
(0 -2.11953e-19 0)
(0 -2.2637e-19 0)
(0 -2.39726e-19 0)
(0 -2.5796e-19 0)
(0 -2.74558e-19 0)
(0 -2.89614e-19 0)
(0 -3.08798e-19 0)
(0 -3.19368e-19 0)
(0 -3.38838e-19 0)
(0 -3.5408e-19 0)
(0 -3.64802e-19 0)
(0 -3.76913e-19 0)
(0 -3.84402e-19 0)
(0 -3.93656e-19 0)
(0 -4.05017e-19 0)
(0 -4.1966e-19 0)
(0 -4.33505e-19 0)
(0 -4.46593e-19 0)
(0 -4.65992e-19 0)
(0 -4.88308e-19 0)
(0 -5.0013e-19 0)
(0 -5.14888e-19 0)
(0 -5.31804e-19 0)
(0 -5.45104e-19 0)
(0 -5.56204e-19 0)
(0 -5.65193e-19 0)
(0 -5.78399e-19 0)
(0 -5.92367e-19 0)
(0 -6.05698e-19 0)
(0 -6.20803e-19 0)
(0 -6.38305e-19 0)
(0 -6.55054e-19 0)
(0 -6.71677e-19 0)
(0 -6.87863e-19 0)
(0 -7.03592e-19 0)
(0 -7.18599e-19 0)
(0 -7.32874e-19 0)
(0 -7.47995e-19 0)
(0 -7.6375e-19 0)
(0 -7.7997e-19 0)
(0 -7.97364e-19 0)
(0 -8.1576e-19 0)
(0 -8.34565e-19 0)
(0 -8.53828e-19 0)
(0 -8.73462e-19 0)
(0 -8.93371e-19 0)
(0 -9.13636e-19 0)
(0 -9.34448e-19 0)
(0 -9.55898e-19 0)
(0 -9.78053e-19 0)
(0 -1.00104e-18 0)
(0 -1.02489e-18 0)
(0 -1.04958e-18 0)
(0 -1.07517e-18 0)
(0 -1.10171e-18 0)
(0 -1.12927e-18 0)
(0 -1.15792e-18 0)
(0 -1.18775e-18 0)
(0 -1.21882e-18 0)
(0 -1.25122e-18 0)
(0 -1.28499e-18 0)
(0 -1.32022e-18 0)
(0 -1.35697e-18 0)
(0 -1.39532e-18 0)
(0 -1.43535e-18 0)
(0 -1.47714e-18 0)
(0 -1.52082e-18 0)
(0 -1.56647e-18 0)
(0 -1.61423e-18 0)
(0 -1.66419e-18 0)
(0 -1.71644e-18 0)
(0 -1.77107e-18 0)
(0 -1.82825e-18 0)
(0 -1.88838e-18 0)
(0 -1.95225e-18 0)
(0 -2.021e-18 0)
(0 -2.09567e-18 0)
(0 -2.17638e-18 0)
(0 -2.26173e-18 0)
(0 -2.35046e-18 0)
(0 -2.44656e-18 0)
(0 -2.56236e-18 0)
(0 -1.86924e-18 0)
(0 -1.03249e-17 0)
(0 -7.84483e-17 0)
(0 -6.46482e-16 0)
(0 -5.93404e-15 0)
(0 -6.17955e-14 0)
(0 -6.96974e-13 0)
(0 -7.93309e-12 0)
(0 -1.06829e-10 0)
(0 -1.93797e-09 0)
(0 -4.17118e-08 0)
(0 -1.26707e-06 0)
(0 -8.87754e-05 0)
(0 -0.0607324 0)
(0 -1.75106 0)
(0 -3.05209 0)
(0 -1.62168 0)
(0 -1.07235 0)
(0 -0.93768 0)
(0 -0.834924 0)
(0 -0.740132 0)
(0 -0.647418 0)
(0 -0.558055 0)
(0 -0.474692 0)
(0 -0.39943 0)
(0 -0.333318 0)
(0 -0.276452 0)
(0 -0.228287 0)
(0 -0.187934 0)
(0 -0.154375 0)
(0 -0.126597 0)
(0 -0.103673 0)
(0 -0.084787 0)
(0 -0.0692393 0)
(0 -0.0564454 0)
(0 -0.0459361 0)
(0 -0.0373537 0)
(0 -0.0304107 0)
(0 -0.0248001 0)
(0 -0.0201436 0)
(0 -0.0160919 0)
(0 -0.0124954 0)
(0 -0.00941867 0)
(0 -0.00696988 0)
(0 -0.00515361 0)
(0 -0.0038683 0)
(0 -0.00297649 0)
(0 -0.00235741 0)
(0 -0.00192282 0)
(0 -0.00161343 0)
(0 -0.0013907 0)
(0 -0.00122986 0)
(0 -0.00111511 0)
(0 -0.00103576 0)
(0 -0.000980712 0)
(0 -0.000930741 0)
(0 -0.000857878 0)
(0 -0.000745481 0)
(0 -0.000611539 0)
(0 -0.000495666 0)
(0 -0.000416914 0)
(0 -0.000360206 0)
(0 -0.000307437 0)
(0 -0.000259361 0)
(0 -0.000221651 0)
(0 -0.000191916 0)
(0 -0.000164653 0)
(0 -0.00013829 0)
(0 -0.000117378 0)
(-2.30836e-20 -0.000104362 0)
(0 -9.15175e-05 0)
(0 -7.40134e-05 0)
(2.15088e-20 -6.0751e-05 0)
(0 -5.6254e-05 0)
(0 -4.94967e-05 0)
(0 -3.80968e-05 0)
(1.90598e-20 -3.22622e-05 0)
(0 -2.96685e-05 0)
(0 -2.38951e-05 0)
(0 -1.9323e-05 0)
(4.07691e-21 -1.71752e-05 0)
(0 -1.36981e-05 0)
(0 -1.08393e-05 0)
(0 -9.9638e-06 0)
(0 -8.04627e-06 0)
(0 -5.73492e-06 0)
(-1.47302e-21 -5.13036e-06 0)
(0 -4.40292e-06 0)
(-1.27525e-21 -3.16277e-06 0)
(0 -2.58062e-06 0)
(-5.38575e-22 -2.0186e-06 0)
(0 -1.52279e-06 0)
(0 -1.32443e-06 0)
(0 -1.00396e-06 0)
(0 -8.13243e-07 0)
(2.21142e-22 -7.6357e-07 0)
(2.14633e-22 -5.70295e-07 0)
(0 -4.26237e-07 0)
(0 -2.88064e-07 0)
(0 -1.41377e-07 0)
(0 -1.03027e-07 0)
(0 -1.4035e-07 0)
(0 -2.03617e-07 0)
(0 -1.93371e-07 0)
(0 -6.9284e-08 0)
(0 -6.06375e-16 0)
(0 -2.84019e-17 0)
(0 -7.21981e-18 0)
(0 -2.05061e-18 0)
(0 -1.73319e-19 0)
(-2.82488e-36 -4.0573e-21 0)
(1.78717e-38 -6.98254e-23 0)
(0 -8.8379e-25 0)
(0 -6.58906e-27 0)
(-6.54775e-45 -2.80563e-29 0)
(0 -1.21372e-31 0)
(0 -5.63955e-34 0)
(-4.95567e-50 -7.90903e-35 0)
(0 -1.08563e-34 0)
(0 -1.39135e-34 0)
(0 -1.00828e-34 0)
(0 -3.62288e-35 0)
(0 -1.1777e-35 0)
(0 -4.52521e-36 0)
(0 -2.01293e-36 0)
(0 -9.83856e-37 0)
(0 -5.3095e-37 0)
(0 -3.61897e-37 0)
(0 -3.19714e-37 0)
(0 -2.895e-37 0)
(0 -1.88252e-37 0)
(0 -7.92771e-38 0)
(0 -3.43568e-38 0)
(4.38512e-54 -1.69445e-38 0)
(0 -9.76237e-39 0)
(0 -7.22068e-39 0)
(0 -4.83315e-39 0)
(0 -2.21368e-39 0)
(0 -9.76041e-40 0)
(0 -4.84432e-40 0)
(0 -2.52854e-40 0)
(0 -1.30831e-40 0)
(0 -6.3523e-41 0)
(0 -3.09253e-41 0)
(0 -1.47869e-41 0)
(0 -6.91285e-42 0)
(0 -3.15669e-42 0)
(0 -1.4066e-42 0)
(0 -6.1096e-43 0)
(0 -2.58388e-43 0)
(0 -1.06275e-43 0)
(0 -4.24562e-44 0)
(0 -1.64514e-44 0)
(1.399e-60 -6.17425e-45 0)
(0 -2.24074e-45 0)
(0 -7.85022e-46 0)
(0 -2.64997e-46 0)
(0 -8.60164e-47 0)
(0 -2.67872e-47 0)
(0 -7.98372e-48 0)
(0 -2.27102e-48 0)
(0 -6.1467e-49 0)
(0 -1.57751e-49 0)
(4.36525e-66 -3.82403e-50 0)
(0 -8.71667e-51 0)
(0 -1.8588e-51 0)
(0 -3.68608e-52 0)
(0 -6.74958e-53 0)
(0 -1.13155e-53 0)
(0 -1.7189e-54 0)
(0 -2.33532e-55 0)
(0 -2.79047e-56 0)
(0 -2.86732e-57 0)
(0 -2.45447e-58 0)
(0 -1.66782e-59 0)
(0 -8.2819e-61 0)
(0 -2.52082e-62 0)
(0 -2.49301e-64 0)
(0 -3.24332e-67 0)
(0 -4.86468e-69 0)
(0 -3.62048e-71 0)
(0 -6.17577e-82 0)
(0 -5.32605e-93 0)
(0 -3.45128e-104 0)
(0 -1.64286e-115 0)
(0 -6.83412e-127 0)
(0 -2.34063e-138 0)
(0 -8.605e-150 0)
(0 -4.04752e-158 0)
(0 -1.06392e-168 0)
(0 -1.39471e-176 0)
(0 -3.42025e-187 0)
(0 -4.79805e-195 0)
(0 -1.46036e-205 0)
(0 -1.65029e-213 0)
(0 -6.55225e-224 0)
(0 -5.68087e-232 0)
(0 -4.42728e-242 0)
(0 -1.97461e-250 0)
(0 -2.9458e-260 0)
(0 -6.96817e-269 0)
(0 -1.48243e-278 0)
(0 -2.49534e-287 0)
(0 -7.02109e-297 0)
(0 -9.06316e-306 0)
(0 -3.09471e-315 0)
(0 -4.94066e-324 0)
(0 -0 0)
(0 0 0)
(0 0 0)
(0 0 0)
(0 0 0)
(0 0 0)
(0 0 0)
(0 0 0)
(0 0 0)
(0 0 0)
(0 0 0)
(0 0 0)
(0 0 0)
(0 0 0)
(0 0 0)
(0 0 0)
(0 0 0)
(0 0 0)
(0 0 0)
(0 0 0)
)
;

boundaryField
{
    inandouthalf11
    {
        type            cyclic;
    }
    inandouthalf12
    {
        type            cyclic;
    }
    inandouthalf21
    {
        type            cyclic;
    }
    inandouthalf22
    {
        type            cyclic;
    }
    inandouthalf31
    {
        type            cyclic;
    }
    inandouthalf32
    {
        type            cyclic;
    }
    inandouthalf41
    {
        type            cyclic;
    }
    inandouthalf42
    {
        type            cyclic;
    }
    top
    {
        type            symmetryPlane;
    }
    walls
    {
        type            zeroGradient;
    }
    frontAndBackPlanes
    {
        type            empty;
    }
}


// ************************************************************************* //
