/*--------------------------------*- C++ -*----------------------------------*\
| =========                 |                                                 |
| \\      /  F ield         | OpenFOAM: The Open Source CFD Toolbox           |
|  \\    /   O peration     | Version:  2.4.x                                 |
|   \\  /    A nd           | Web:      www.OpenFOAM.org                      |
|    \\/     M anipulation  |                                                 |
\*---------------------------------------------------------------------------*/
FoamFile
{
    version     2.0;
    format      ascii;
    class       volScalarField;
    location    "4.4";
    object      Theta;
}
// * * * * * * * * * * * * * * * * * * * * * * * * * * * * * * * * * * * * * //

dimensions      [0 2 -2 0 0 0 0];

internalField   nonuniform List<scalar> 
360
(
6.67163e-21
6.70201e-21
6.69521e-21
6.68883e-21
6.68906e-21
6.69087e-21
6.69239e-21
6.69334e-21
6.69386e-21
6.69428e-21
6.69487e-21
6.69568e-21
6.69663e-21
6.69765e-21
6.69873e-21
6.69991e-21
6.7012e-21
6.70257e-21
6.70392e-21
6.70511e-21
6.70594e-21
6.70627e-21
6.70602e-21
6.70521e-21
6.70408e-21
6.70309e-21
6.70288e-21
6.70433e-21
6.7086e-21
6.71748e-21
6.73384e-21
6.76123e-21
6.80027e-21
6.8376e-21
6.83852e-21
6.78302e-21
6.71207e-21
6.67334e-21
6.66296e-21
6.66149e-21
6.66136e-21
6.66136e-21
6.66135e-21
6.66135e-21
6.66135e-21
6.66135e-21
6.66135e-21
6.66135e-21
6.66135e-21
6.66135e-21
6.66135e-21
6.66135e-21
6.66135e-21
6.66135e-21
6.66135e-21
6.66135e-21
6.66135e-21
6.66135e-21
6.66135e-21
6.66135e-21
6.66135e-21
6.66135e-21
6.66135e-21
6.66135e-21
6.66135e-21
6.66135e-21
6.66134e-21
6.66134e-21
6.66134e-21
6.66134e-21
6.66134e-21
6.66134e-21
6.66134e-21
6.66134e-21
6.66134e-21
6.66134e-21
6.66134e-21
6.66134e-21
6.66133e-21
6.66133e-21
6.66133e-21
6.66133e-21
6.66133e-21
6.66133e-21
6.66133e-21
6.66133e-21
6.66133e-21
6.66133e-21
6.66132e-21
6.66132e-21
6.66132e-21
6.66132e-21
6.66132e-21
6.66132e-21
6.66132e-21
6.66131e-21
6.66131e-21
6.66131e-21
6.66131e-21
6.66124e-21
0
0
0
0
0
0
0
0
0
0
0
0
0
0
0
6.66128e-21
6.66128e-21
6.66127e-21
6.66127e-21
6.66127e-21
6.66126e-21
6.66126e-21
6.66126e-21
6.66126e-21
6.66125e-21
6.66125e-21
6.66125e-21
6.66124e-21
6.66124e-21
6.66123e-21
6.66123e-21
6.66123e-21
6.66123e-21
8.62932e-21
5.5144e-20
4.56992e-19
4.12998e-18
4.08062e-17
4.43922e-16
5.35612e-15
7.24781e-14
1.11857e-12
2.01339e-11
4.42305e-10
1.95551e-08
1.42817e-06
3.62136e-05
0.000460371
0.00199965
0.00325025
0.00385625
0.00425314
0.00454024
0.00476027
0.00493119
0.0050601
0.0051496
0.00520097
0.00521579
0.00519653
0.00514637
0.00506917
0.00496914
0.00485059
0.00471782
0.00457502
0.00442617
0.00427501
0.00412489
0.00397877
0.00383908
0.00370764
0.00358554
0.00347316
0.00337026
0.00327615
0.00319001
0.00311098
0.00303832
0.00297138
0.00290957
0.00285239
0.00279938
0.0027501
0.00270415
0.00266117
0.00262078
0.00258267
0.00254649
0.00251194
0.00247872
0.00244656
0.00241526
0.00238465
0.00235459
0.00232497
0.00229569
0.00226667
0.00223785
0.00220916
0.00218057
0.00215172
0.00212231
0.00209227
0.00206157
0.00203016
0.00199798
0.00196501
0.00193118
0.00189645
0.00186076
0.00182407
0.00178632
0.00174744
0.00170738
0.00166607
0.00162342
0.00157937
0.00153381
0.00148666
0.0014378
0.0013871
0.00133443
0.00127962
0.00122249
0.0011628
0.0011003
0.00103466
0.000965488
0.000892264
0.000814321
0.000730741
0.000640202
0.000540641
0.000428439
0.000295717
0
0
0
0
0
0
0
0
0
0
0
0
0
0
0
0
0
0
0
0
0
0
0
0
0
0
0
0
0
0
0
0
0
0
0
0
0
0
0
0
0
0
0
0
0
0
0
0
0
0
0
0
0
0
0
0
0
0
0
0
0
0
0
0
0
0
0
0
0
0
0
0
0
0
0
0
0
0
0
0
0
0
0
0
0
0
0
0
0
0
0
0
0
0
0
0
0
0
0
0
0
0
0
0
0
0
0
0
0
0
0
0
0
0
0
0
0
0
0
0
0
0
0
0
)
;

boundaryField
{
    inandouthalf11
    {
        type            cyclic;
    }
    inandouthalf12
    {
        type            cyclic;
    }
    inandouthalf21
    {
        type            cyclic;
    }
    inandouthalf22
    {
        type            cyclic;
    }
    inandouthalf31
    {
        type            cyclic;
    }
    inandouthalf32
    {
        type            cyclic;
    }
    inandouthalf41
    {
        type            cyclic;
    }
    inandouthalf42
    {
        type            cyclic;
    }
    top
    {
        type            symmetryPlane;
    }
    walls
    {
        type            zeroGradient;
    }
    frontAndBackPlanes
    {
        type            empty;
    }
}


// ************************************************************************* //
