/*--------------------------------*- C++ -*----------------------------------*\
| =========                 |                                                 |
| \\      /  F ield         | OpenFOAM: The Open Source CFD Toolbox           |
|  \\    /   O peration     | Version:  2.4.x                                 |
|   \\  /    A nd           | Web:      www.OpenFOAM.org                      |
|    \\/     M anipulation  |                                                 |
\*---------------------------------------------------------------------------*/
FoamFile
{
    version     2.0;
    format      ascii;
    class       volScalarField;
    location    "4.4";
    object      Theta_0;
}
// * * * * * * * * * * * * * * * * * * * * * * * * * * * * * * * * * * * * * //

dimensions      [0 2 -2 0 0 0 0];

internalField   nonuniform List<scalar> 
360
(
6.67163e-21
6.70201e-21
6.69522e-21
6.68883e-21
6.68907e-21
6.69088e-21
6.6924e-21
6.69334e-21
6.69386e-21
6.69429e-21
6.69488e-21
6.69569e-21
6.69663e-21
6.69765e-21
6.69873e-21
6.69991e-21
6.70121e-21
6.70258e-21
6.70393e-21
6.70512e-21
6.70595e-21
6.70628e-21
6.70602e-21
6.70521e-21
6.70409e-21
6.70309e-21
6.70289e-21
6.70435e-21
6.70862e-21
6.71752e-21
6.7339e-21
6.76133e-21
6.80039e-21
6.83767e-21
6.83844e-21
6.78282e-21
6.71191e-21
6.67329e-21
6.66295e-21
6.66149e-21
6.66136e-21
6.66136e-21
6.66135e-21
6.66135e-21
6.66135e-21
6.66135e-21
6.66135e-21
6.66135e-21
6.66135e-21
6.66135e-21
6.66135e-21
6.66135e-21
6.66135e-21
6.66135e-21
6.66135e-21
6.66135e-21
6.66135e-21
6.66135e-21
6.66135e-21
6.66135e-21
6.66135e-21
6.66135e-21
6.66135e-21
6.66135e-21
6.66135e-21
6.66135e-21
6.66134e-21
6.66134e-21
6.66134e-21
6.66134e-21
6.66134e-21
6.66134e-21
6.66134e-21
6.66134e-21
6.66134e-21
6.66134e-21
6.66134e-21
6.66134e-21
6.66133e-21
6.66133e-21
6.66133e-21
6.66133e-21
6.66133e-21
6.66133e-21
6.66133e-21
6.66133e-21
6.66133e-21
6.66133e-21
6.66132e-21
6.66132e-21
6.66132e-21
6.66132e-21
6.66132e-21
6.66132e-21
6.66132e-21
6.66131e-21
6.66131e-21
6.66131e-21
6.66131e-21
6.66124e-21
0
0
0
0
0
0
0
0
0
0
0
0
0
0
0
6.66128e-21
6.66128e-21
6.66127e-21
6.66127e-21
6.66127e-21
6.66126e-21
6.66126e-21
6.66126e-21
6.66126e-21
6.66125e-21
6.66125e-21
6.66125e-21
6.66124e-21
6.66124e-21
6.66123e-21
6.66123e-21
6.66123e-21
6.66123e-21
8.62226e-21
5.5081e-20
4.56459e-19
4.12514e-18
4.07595e-17
4.43447e-16
5.351e-15
7.24177e-14
1.11775e-12
2.01208e-11
4.4204e-10
1.95431e-08
1.42752e-06
3.62028e-05
0.000460255
0.00199949
0.00325028
0.00385637
0.00425329
0.0045404
0.00476041
0.0049313
0.00506017
0.00514962
0.00520093
0.00521568
0.00519636
0.00514614
0.00506887
0.00496877
0.00485017
0.00471735
0.00457451
0.00442563
0.00427444
0.0041243
0.00397818
0.0038385
0.00370706
0.00358498
0.00347263
0.00336974
0.00327566
0.00318953
0.00311052
0.00303788
0.00297095
0.00290916
0.002852
0.002799
0.00274973
0.00270379
0.00266082
0.00262045
0.00258234
0.00254618
0.00251163
0.00247842
0.00244627
0.00241497
0.00238436
0.00235431
0.00232469
0.00229542
0.00226641
0.00223759
0.00220891
0.00218031
0.00215148
0.00212206
0.00209203
0.00206133
0.00202992
0.00199775
0.00196478
0.00193096
0.00189623
0.00186055
0.00182386
0.00178611
0.00174724
0.00170719
0.00166588
0.00162324
0.00157919
0.00153364
0.00148649
0.00143763
0.00138694
0.00133428
0.00127948
0.00122235
0.00116267
0.00110018
0.00103455
0.000965378
0.000892162
0.000814228
0.000730658
0.000640129
0.000540579
0.00042839
0.000295684
0
0
0
0
0
0
0
0
0
0
0
0
0
0
0
0
0
0
0
0
0
0
0
0
0
0
0
0
0
0
0
0
0
0
0
0
0
0
0
0
0
0
0
0
0
0
0
0
0
0
0
0
0
0
0
0
0
0
0
0
0
0
0
0
0
0
0
0
0
0
0
0
0
0
0
0
0
0
0
0
0
0
0
0
0
0
0
0
0
0
0
0
0
0
0
0
0
0
0
0
0
0
0
0
0
0
0
0
0
0
0
0
0
0
0
0
0
0
0
0
0
0
0
0
)
;

boundaryField
{
    inandouthalf11
    {
        type            cyclic;
    }
    inandouthalf12
    {
        type            cyclic;
    }
    inandouthalf21
    {
        type            cyclic;
    }
    inandouthalf22
    {
        type            cyclic;
    }
    inandouthalf31
    {
        type            cyclic;
    }
    inandouthalf32
    {
        type            cyclic;
    }
    inandouthalf41
    {
        type            cyclic;
    }
    inandouthalf42
    {
        type            cyclic;
    }
    top
    {
        type            symmetryPlane;
    }
    walls
    {
        type            zeroGradient;
    }
    frontAndBackPlanes
    {
        type            empty;
    }
}


// ************************************************************************* //
