/*--------------------------------*- C++ -*----------------------------------*\
| =========                 |                                                 |
| \\      /  F ield         | OpenFOAM: The Open Source CFD Toolbox           |
|  \\    /   O peration     | Version:  2.4.x                                 |
|   \\  /    A nd           | Web:      www.OpenFOAM.org                      |
|    \\/     M anipulation  |                                                 |
\*---------------------------------------------------------------------------*/
FoamFile
{
    version     2.0;
    format      ascii;
    class       volVectorField;
    location    "4.4";
    object      Ua;
}
// * * * * * * * * * * * * * * * * * * * * * * * * * * * * * * * * * * * * * //

dimensions      [0 1 -1 0 0 0 0];

internalField   nonuniform List<vector> 
360
(
(-1.05958e-32 -8.10275e-32 0)
(-4.92456e-08 -2.74587e-07 0)
(-1.11063e-07 -5.44105e-07 0)
(-1.66311e-07 -7.69723e-07 0)
(-2.19513e-07 -9.89946e-07 0)
(-2.74149e-07 -1.2176e-06 0)
(-3.30664e-07 -1.45229e-06 0)
(-3.88605e-07 -1.69164e-06 0)
(-4.47489e-07 -1.93347e-06 0)
(-5.07072e-07 -2.17669e-06 0)
(-5.67402e-07 -2.42164e-06 0)
(-6.28664e-07 -2.66919e-06 0)
(-6.91022e-07 -2.91999e-06 0)
(-7.54569e-07 -3.17434e-06 0)
(-8.19357e-07 -3.43235e-06 0)
(-8.85453e-07 -3.69423e-06 0)
(-9.52949e-07 -3.96033e-06 0)
(-1.02193e-06 -4.23094e-06 0)
(-1.09241e-06 -4.50613e-06 0)
(-1.16433e-06 -4.7856e-06 0)
(-1.23746e-06 -5.06844e-06 0)
(-1.31147e-06 -5.35321e-06 0)
(-1.38589e-06 -5.63815e-06 0)
(-1.46025e-06 -5.92129e-06 0)
(-1.53416e-06 -6.20105e-06 0)
(-1.60752e-06 -6.47689e-06 0)
(-1.6807e-06 -6.75008e-06 0)
(-1.75475e-06 -7.02445e-06 0)
(-1.83156e-06 -7.30693e-06 0)
(-1.91398e-06 -7.60802e-06 0)
(-2.00605e-06 -7.94258e-06 0)
(-2.11287e-06 -8.32976e-06 0)
(-2.23939e-06 -8.78895e-06 0)
(-2.38671e-06 -9.32688e-06 0)
(-2.54533e-06 -9.9115e-06 0)
(-2.69127e-06 -1.04538e-05 0)
(-2.79735e-06 -1.08488e-05 0)
(-2.85495e-06 -1.10616e-05 0)
(-2.87798e-06 -1.11451e-05 0)
(-2.88506e-06 -1.11702e-05 0)
(-2.88693e-06 -1.11766e-05 0)
(-2.88744e-06 -1.11783e-05 0)
(-2.8876e-06 -1.11789e-05 0)
(-2.88767e-06 -1.11791e-05 0)
(-2.88771e-06 -1.11792e-05 0)
(-2.88774e-06 -1.11793e-05 0)
(-2.88777e-06 -1.11794e-05 0)
(-2.8878e-06 -1.11795e-05 0)
(-2.88784e-06 -1.11796e-05 0)
(-2.88789e-06 -1.11797e-05 0)
(-2.88795e-06 -1.11799e-05 0)
(-2.88803e-06 -1.11801e-05 0)
(-2.8881e-06 -1.11803e-05 0)
(-2.88819e-06 -1.11805e-05 0)
(-2.88828e-06 -1.11807e-05 0)
(-2.88837e-06 -1.11809e-05 0)
(-2.88846e-06 -1.11811e-05 0)
(-2.88855e-06 -1.11814e-05 0)
(-2.88865e-06 -1.11816e-05 0)
(-2.88874e-06 -1.11818e-05 0)
(-2.88884e-06 -1.1182e-05 0)
(-2.88894e-06 -1.11823e-05 0)
(-2.88905e-06 -1.11825e-05 0)
(-2.88916e-06 -1.11827e-05 0)
(-2.88927e-06 -1.1183e-05 0)
(-2.88939e-06 -1.11832e-05 0)
(-2.8895e-06 -1.11835e-05 0)
(-2.88963e-06 -1.11837e-05 0)
(-2.88975e-06 -1.1184e-05 0)
(-2.88988e-06 -1.11842e-05 0)
(-2.89002e-06 -1.11845e-05 0)
(-2.89016e-06 -1.11848e-05 0)
(-2.89031e-06 -1.11851e-05 0)
(-2.89047e-06 -1.11854e-05 0)
(-2.89063e-06 -1.11857e-05 0)
(-2.8908e-06 -1.1186e-05 0)
(-2.89098e-06 -1.11863e-05 0)
(-2.89116e-06 -1.11867e-05 0)
(-2.89135e-06 -1.1187e-05 0)
(-2.89155e-06 -1.11874e-05 0)
(-2.89175e-06 -1.11877e-05 0)
(-2.89195e-06 -1.11881e-05 0)
(-2.89217e-06 -1.11885e-05 0)
(-2.89239e-06 -1.11889e-05 0)
(-2.89261e-06 -1.11893e-05 0)
(-2.89284e-06 -1.11897e-05 0)
(-2.89308e-06 -1.11901e-05 0)
(-2.89333e-06 -1.11905e-05 0)
(-2.89358e-06 -1.11909e-05 0)
(-2.89384e-06 -1.11914e-05 0)
(-2.89411e-06 -1.11918e-05 0)
(-2.89439e-06 -1.11923e-05 0)
(-2.89467e-06 -1.11927e-05 0)
(-2.89495e-06 -1.11932e-05 0)
(-2.89524e-06 -1.11936e-05 0)
(-2.89554e-06 -1.11941e-05 0)
(-2.89584e-06 -1.11946e-05 0)
(-2.89615e-06 -1.11951e-05 0)
(-2.89646e-06 -1.11955e-05 0)
(-2.89678e-06 -1.1196e-05 0)
(-2.89711e-06 -1.11965e-05 0)
(-2.89743e-06 -1.1197e-05 0)
(-2.89777e-06 -1.11975e-05 0)
(-2.89811e-06 -1.1198e-05 0)
(-2.89845e-06 -1.11985e-05 0)
(-2.8988e-06 -1.1199e-05 0)
(-2.89915e-06 -1.11995e-05 0)
(-2.89951e-06 -1.12e-05 0)
(-2.89987e-06 -1.12005e-05 0)
(-2.90023e-06 -1.1201e-05 0)
(-2.9006e-06 -1.12015e-05 0)
(-2.90096e-06 -1.1202e-05 0)
(-2.90134e-06 -1.12025e-05 0)
(-2.90171e-06 -1.1203e-05 0)
(-2.90209e-06 -1.12035e-05 0)
(-2.90247e-06 -1.12039e-05 0)
(-2.90285e-06 -1.12044e-05 0)
(-2.90324e-06 -1.12049e-05 0)
(-2.90364e-06 -1.12054e-05 0)
(-2.90403e-06 -1.12059e-05 0)
(-2.90444e-06 -1.12063e-05 0)
(-2.90485e-06 -1.12068e-05 0)
(-2.90527e-06 -1.12073e-05 0)
(-2.9057e-06 -1.12077e-05 0)
(-2.90613e-06 -1.12082e-05 0)
(-2.90658e-06 -1.12087e-05 0)
(-2.90703e-06 -1.12091e-05 0)
(-2.90748e-06 -1.12096e-05 0)
(-2.90794e-06 -1.121e-05 0)
(-2.9084e-06 -1.12104e-05 0)
(-2.90885e-06 -1.12108e-05 0)
(-2.90929e-06 -1.12112e-05 0)
(-2.90971e-06 -1.12116e-05 0)
(-2.91012e-06 -1.12119e-05 0)
(-2.91051e-06 -1.12121e-05 0)
(-2.91088e-06 -1.12124e-05 0)
(-2.91124e-06 -1.12126e-05 0)
(-2.91158e-06 -1.12128e-05 0)
(-2.91192e-06 -1.1213e-05 0)
(-2.91223e-06 -1.12131e-05 0)
(-2.91252e-06 -1.12133e-05 0)
(-2.91273e-06 -1.12133e-05 0)
(-2.91287e-06 -1.12134e-05 0)
(-2.91295e-06 -1.12134e-05 0)
(-2.91298e-06 -1.12134e-05 0)
(-2.913e-06 -1.12134e-05 0)
(-2.91304e-06 -1.12134e-05 0)
(-0.0142939 7.77098e-06 0)
(-0.108501 0.000343523 0)
(-0.210554 0.000509226 0)
(-0.293043 0.000614515 0)
(-0.361729 0.000693595 0)
(-0.420047 0.000788755 0)
(-0.470338 0.000901634 0)
(-0.514237 0.0010364 0)
(-0.552934 0.00119639 0)
(-0.58733 0.00138358 0)
(-0.61812 0.00159853 0)
(-0.645852 0.00184063 0)
(-0.670954 0.00210835 0)
(-0.693767 0.00239946 0)
(-0.714555 0.00271121 0)
(-0.733526 0.00304035 0)
(-0.750844 0.00338319 0)
(-0.766635 0.00373551 0)
(-0.781 0.00409248 0)
(-0.794023 0.00444868 0)
(-0.805771 0.00479826 0)
(-0.816309 0.00513508 0)
(-0.825696 0.00545187 0)
(-0.833995 0.00573728 0)
(-0.841276 0.00597211 0)
(-0.847616 0.0061303 0)
(-0.853108 0.00618924 0)
(-0.857851 0.00614394 0)
(-0.861948 0.00601185 0)
(-0.865493 0.00582432 0)
(-0.868567 0.00561361 0)
(-0.871238 0.00540489 0)
(-0.87356 0.0052144 0)
(-0.875576 0.00505113 0)
(-0.877325 0.00491896 0)
(-0.878836 0.0048185 0)
(-0.880138 0.00474826 0)
(-0.881254 0.00470529 0)
(-0.882205 0.00468559 0)
(-0.883011 0.00468417 0)
(-0.883691 0.00469505 0)
(-0.884263 0.00471142 0)
(-0.884744 0.00472649 0)
(-0.885151 0.00473551 0)
(-0.885496 0.00473743 0)
(-0.88579 0.00473428 0)
(-0.886042 0.00472829 0)
(-0.886257 0.00472008 0)
(-0.886442 0.00470935 0)
(-0.886601 0.00469631 0)
(-0.886738 0.00468153 0)
(-0.886856 0.00466517 0)
(-0.886959 0.00464707 0)
(-0.887048 0.00462729 0)
(-0.887126 0.0046062 0)
(-0.887195 0.00458393 0)
(-0.887256 0.0045597 0)
(-0.887308 0.00453282 0)
(-0.887354 0.00450438 0)
(-0.887392 0.00447526 0)
(-0.887423 0.00444367 0)
(-0.887448 0.00440858 0)
(-0.887467 0.00437199 0)
(-0.887479 0.00433381 0)
(-0.887484 0.00429189 0)
(-0.887484 0.00424707 0)
(-0.887477 0.0042 0)
(-0.887464 0.0041488 0)
(-0.887445 0.0040944 0)
(-0.887419 0.00403801 0)
(-0.887386 0.0039763 0)
(-0.887346 0.00390919 0)
(-0.887299 0.00384056 0)
(-0.887245 0.00376749 0)
(-0.887183 0.0036875 0)
(-0.887113 0.00360379 0)
(-0.887034 0.00351488 0)
(-0.886946 0.00342096 0)
(-0.886849 0.00332343 0)
(-0.886739 0.00321794 0)
(-0.886617 0.00310768 0)
(-0.886483 0.00299281 0)
(-0.886331 0.0028648 0)
(-0.886162 0.00272523 0)
(-0.885976 0.00257423 0)
(-0.885783 0.00241972 0)
(-0.885598 0.00228571 0)
(-0.885436 0.00218545 0)
(-0.8853 0.00212338 0)
(-0.88512 0.00204944 0)
(-0.848299 -0.0306383 0)
(-0.846311 -0.0397289 0)
(-0.843626 -0.0396343 0)
(-0.841596 -0.0396176 0)
(-0.840476 -0.0395813 0)
(-0.840233 -0.0395546 0)
(-0.840219 -0.0395483 0)
(-0.840216 -0.0395482 0)
(-0.840214 -0.0395482 0)
(-0.840212 -0.0395482 0)
(-0.84021 -0.0395482 0)
(-0.840209 -0.0395482 0)
(-0.840207 -0.0395482 0)
(-0.840206 -0.0395482 0)
(-0.840206 -0.0395482 0)
(-0.840205 -0.0395482 0)
(-0.840204 -0.0395482 0)
(-0.840204 -0.0395482 0)
(-0.840204 -0.0395482 0)
(-0.840203 -0.0395482 0)
(-0.840203 -0.0395482 0)
(-0.840203 -0.0395482 0)
(-0.840203 -0.0395482 0)
(-0.840203 -0.0395482 0)
(-0.840203 -0.0395482 0)
(-0.840203 -0.0395482 0)
(-0.840203 -0.0395482 0)
(-0.840203 -0.0395482 0)
(-0.840203 -0.0395482 0)
(-0.840203 -0.0395482 0)
(-0.840203 -0.0395482 0)
(-0.840203 -0.0395482 0)
(-0.840203 -0.0395482 0)
(-0.840203 -0.0395482 0)
(-0.840203 -0.0395482 0)
(-0.840203 -0.0395482 0)
(-0.840203 -0.0395482 0)
(-0.840203 -0.0395482 0)
(-0.840203 -0.0395482 0)
(-0.840203 -0.0395482 0)
(-0.840203 -0.0395482 0)
(-0.840203 -0.0395482 0)
(-0.840203 -0.0395482 0)
(-0.840203 -0.0395482 0)
(-0.840203 -0.0395482 0)
(-0.840203 -0.0395482 0)
(-0.840203 -0.0395482 0)
(-0.840203 -0.0395482 0)
(-0.840203 -0.0395482 0)
(-0.840203 -0.0395482 0)
(-0.840203 -0.0395482 0)
(-0.840203 -0.0395482 0)
(-0.840203 -0.0395482 0)
(-0.840203 -0.0395482 0)
(-0.840203 -0.0395482 0)
(-0.840203 -0.0395482 0)
(-0.840203 -0.0395482 0)
(-0.840203 -0.0395482 0)
(-0.840203 -0.0395482 0)
(-0.840203 -0.0395482 0)
(-0.840203 -0.0395482 0)
(-0.840203 -0.0395482 0)
(-0.840203 -0.0395482 0)
(-0.840203 -0.0395482 0)
(-0.840203 -0.0395482 0)
(-0.840203 -0.0395482 0)
(-0.840203 -0.0395482 0)
(-0.840203 -0.0395482 0)
(-0.840203 -0.0395482 0)
(-0.840203 -0.0395482 0)
(-0.840203 -0.0395482 0)
(-0.840203 -0.0395482 0)
(-0.840203 -0.0395482 0)
(-0.840203 -0.0395482 0)
(-0.840203 -0.0395482 0)
(-0.840203 -0.0395482 0)
(-0.840203 -0.0395482 0)
(-0.840203 -0.0395482 0)
(-0.840203 -0.0395482 0)
(-0.840203 -0.0395482 0)
(-0.840203 -0.0395482 0)
(-0.840203 -0.0395482 0)
(-0.840203 -0.0395482 0)
(-0.840203 -0.0395482 0)
(-0.840203 -0.0395482 0)
(-0.840203 -0.0395482 0)
(-0.840203 -0.0395482 0)
(-0.840203 -0.0395482 0)
(-0.840203 -0.0395482 0)
(-0.840203 -0.0395482 0)
(-0.840203 -0.0395482 0)
(-0.840203 -0.0395482 0)
(-0.840203 -0.0395482 0)
(-0.840203 -0.0395482 0)
(-0.840203 -0.0395482 0)
(-0.840203 -0.0395482 0)
(-0.840203 -0.0395482 0)
(-0.840203 -0.0395482 0)
(-0.840203 -0.0395482 0)
(-0.840203 -0.0395482 0)
(-0.840203 -0.0395482 0)
(-0.840203 -0.0395482 0)
(-0.840203 -0.0395482 0)
(-0.840203 -0.0395482 0)
(-0.840203 -0.0395482 0)
(-0.840203 -0.0395482 0)
(-0.840203 -0.0395482 0)
(-0.840203 -0.0395482 0)
(-0.840203 -0.0395482 0)
(-0.840203 -0.0395482 0)
(-0.840203 -0.0395482 0)
(-0.840203 -0.0395482 0)
(-0.840203 -0.0395482 0)
(-0.840203 -0.0395482 0)
(-0.840203 -0.0395482 0)
(-0.840203 -0.0395482 0)
(-0.840203 -0.0395482 0)
(-0.840203 -0.0395482 0)
(-0.840203 -0.0395482 0)
(-0.840203 -0.039548 0)
(-0.840202 -0.0395396 0)
(-0.840197 -0.0391951 0)
(-0.840066 -0.0224967 0)
)
;

boundaryField
{
    inandouthalf11
    {
        type            cyclic;
    }
    inandouthalf12
    {
        type            cyclic;
    }
    inandouthalf21
    {
        type            cyclic;
    }
    inandouthalf22
    {
        type            cyclic;
    }
    inandouthalf31
    {
        type            cyclic;
    }
    inandouthalf32
    {
        type            cyclic;
    }
    inandouthalf41
    {
        type            cyclic;
    }
    inandouthalf42
    {
        type            cyclic;
    }
    top
    {
        type            symmetryPlane;
    }
    walls
    {
        type            fixedValue;
        value           uniform (0 0 0);
    }
    frontAndBackPlanes
    {
        type            empty;
    }
}


// ************************************************************************* //
