/*--------------------------------*- C++ -*----------------------------------*\
| =========                 |                                                 |
| \\      /  F ield         | OpenFOAM: The Open Source CFD Toolbox           |
|  \\    /   O peration     | Version:  2.4.x                                 |
|   \\  /    A nd           | Web:      www.OpenFOAM.org                      |
|    \\/     M anipulation  |                                                 |
\*---------------------------------------------------------------------------*/
FoamFile
{
    version     2.0;
    format      ascii;
    class       volVectorField;
    location    "4.4";
    object      Ub;
}
// * * * * * * * * * * * * * * * * * * * * * * * * * * * * * * * * * * * * * //

dimensions      [0 1 -1 0 0 0 0];

internalField   nonuniform List<vector> 
360
(
(-4.0648e-05 1.07581e-07 0)
(-4.05696e-05 4.2652e-07 0)
(-4.05806e-05 8.32157e-07 0)
(-4.06513e-05 1.20397e-06 0)
(-4.07218e-05 1.55811e-06 0)
(-4.07867e-05 1.91574e-06 0)
(-4.08522e-05 2.28295e-06 0)
(-4.0919e-05 2.65774e-06 0)
(-4.09864e-05 3.0368e-06 0)
(-4.10549e-05 3.41844e-06 0)
(-4.11247e-05 3.80296e-06 0)
(-4.11955e-05 4.19139e-06 0)
(-4.12675e-05 4.58469e-06 0)
(-4.13407e-05 4.98339e-06 0)
(-4.14151e-05 5.38775e-06 0)
(-4.1491e-05 5.79814e-06 0)
(-4.15685e-05 6.21502e-06 0)
(-4.16475e-05 6.63879e-06 0)
(-4.17282e-05 7.06944e-06 0)
(-4.18106e-05 7.5065e-06 0)
(-4.18941e-05 7.94849e-06 0)
(-4.19786e-05 8.39326e-06 0)
(-4.20635e-05 8.83812e-06 0)
(-4.21483e-05 9.28019e-06 0)
(-4.22325e-05 9.71728e-06 0)
(-4.2316e-05 1.01489e-05 0)
(-4.23992e-05 1.05771e-05 0)
(-4.24834e-05 1.10084e-05 0)
(-4.25706e-05 1.14536e-05 0)
(-4.26639e-05 1.19294e-05 0)
(-4.2768e-05 1.24589e-05 0)
(-4.28887e-05 1.30706e-05 0)
(-4.30309e-05 1.37892e-05 0)
(-4.31965e-05 1.46155e-05 0)
(-4.33742e-05 1.54925e-05 0)
(-4.3538e-05 1.62975e-05 0)
(-4.36576e-05 1.68997e-05 0)
(-4.37238e-05 1.7251e-05 0)
(-4.37519e-05 1.74077e-05 0)
(-4.37618e-05 1.74614e-05 0)
(-4.37664e-05 1.74763e-05 0)
(-4.37694e-05 1.74797e-05 0)
(-4.3772e-05 1.74803e-05 0)
(-4.37752e-05 1.74801e-05 0)
(-4.37782e-05 1.74796e-05 0)
(-4.37816e-05 1.74791e-05 0)
(-4.37852e-05 1.74785e-05 0)
(-4.37888e-05 1.74778e-05 0)
(-4.3793e-05 1.74771e-05 0)
(-4.37978e-05 1.74764e-05 0)
(-4.38025e-05 1.74756e-05 0)
(-4.38077e-05 1.74748e-05 0)
(-4.38132e-05 1.74739e-05 0)
(-4.38192e-05 1.74731e-05 0)
(-4.38253e-05 1.7472e-05 0)
(-4.38322e-05 1.7471e-05 0)
(-4.38392e-05 1.74698e-05 0)
(-4.38469e-05 1.74686e-05 0)
(-4.38548e-05 1.74672e-05 0)
(-4.3863e-05 1.74658e-05 0)
(-4.3872e-05 1.74644e-05 0)
(-4.38809e-05 1.74628e-05 0)
(-4.38904e-05 1.74612e-05 0)
(-4.39e-05 1.74595e-05 0)
(-4.39099e-05 1.74578e-05 0)
(-4.392e-05 1.7456e-05 0)
(-4.39304e-05 1.74542e-05 0)
(-4.39413e-05 1.74524e-05 0)
(-4.39524e-05 1.74504e-05 0)
(-4.39639e-05 1.74484e-05 0)
(-4.39761e-05 1.74463e-05 0)
(-4.39887e-05 1.74441e-05 0)
(-4.40015e-05 1.74418e-05 0)
(-4.40149e-05 1.74395e-05 0)
(-4.40286e-05 1.74371e-05 0)
(-4.40427e-05 1.74347e-05 0)
(-4.40569e-05 1.74322e-05 0)
(-4.40715e-05 1.74297e-05 0)
(-4.40865e-05 1.74271e-05 0)
(-4.41018e-05 1.74245e-05 0)
(-4.41175e-05 1.74218e-05 0)
(-4.41336e-05 1.7419e-05 0)
(-4.41502e-05 1.74161e-05 0)
(-4.41671e-05 1.74132e-05 0)
(-4.41846e-05 1.74102e-05 0)
(-4.42025e-05 1.74071e-05 0)
(-4.42207e-05 1.74039e-05 0)
(-4.42394e-05 1.74007e-05 0)
(-4.42584e-05 1.73974e-05 0)
(-4.42779e-05 1.7394e-05 0)
(-4.42978e-05 1.73906e-05 0)
(-4.43181e-05 1.73871e-05 0)
(-4.4339e-05 1.73835e-05 0)
(-4.43603e-05 1.73798e-05 0)
(-4.43821e-05 1.7376e-05 0)
(-4.44045e-05 1.73721e-05 0)
(-4.44274e-05 1.73681e-05 0)
(-4.44508e-05 1.7364e-05 0)
(-4.44748e-05 1.73598e-05 0)
(-4.44993e-05 1.73555e-05 0)
(-4.45245e-05 1.73511e-05 0)
(-4.45502e-05 1.73466e-05 0)
(-4.45766e-05 1.73419e-05 0)
(-4.46036e-05 1.73372e-05 0)
(-4.46313e-05 1.73322e-05 0)
(-4.46598e-05 1.73272e-05 0)
(-4.46889e-05 1.7322e-05 0)
(-4.47189e-05 1.73166e-05 0)
(-4.47496e-05 1.73111e-05 0)
(-4.47811e-05 1.73054e-05 0)
(-4.48135e-05 1.72996e-05 0)
(-4.48469e-05 1.72936e-05 0)
(-4.48811e-05 1.72873e-05 0)
(-4.49164e-05 1.72809e-05 0)
(-4.49527e-05 1.72743e-05 0)
(-4.49901e-05 1.72674e-05 0)
(-4.50286e-05 1.72604e-05 0)
(-4.50682e-05 1.72531e-05 0)
(-4.51092e-05 1.72455e-05 0)
(-4.51514e-05 1.72377e-05 0)
(-4.5195e-05 1.72296e-05 0)
(-4.524e-05 1.72213e-05 0)
(-4.52865e-05 1.72126e-05 0)
(-4.53346e-05 1.72036e-05 0)
(-4.53843e-05 1.71944e-05 0)
(-4.54358e-05 1.71847e-05 0)
(-4.54892e-05 1.71747e-05 0)
(-4.55446e-05 1.71643e-05 0)
(-4.56022e-05 1.71535e-05 0)
(-4.56622e-05 1.71422e-05 0)
(-4.57247e-05 1.71304e-05 0)
(-4.57897e-05 1.7118e-05 0)
(-4.58577e-05 1.71049e-05 0)
(-4.59293e-05 1.70911e-05 0)
(-4.60055e-05 1.70765e-05 0)
(-4.60861e-05 1.70611e-05 0)
(-4.61708e-05 1.70447e-05 0)
(-4.62608e-05 1.70267e-05 0)
(-4.63606e-05 1.70068e-05 0)
(-4.64752e-05 1.69854e-05 0)
(-4.65997e-05 1.69637e-05 0)
(-4.67184e-05 1.69368e-05 0)
(-4.68597e-05 1.69069e-05 0)
(-4.70434e-05 1.68718e-05 0)
(-4.727e-05 1.68143e-05 0)
(-4.76885e-05 1.63985e-05 0)
(-8.1434e-05 2.10963e-05 0)
(-0.0160997 -1.304e-05 0)
(-0.118857 -0.000202922 0)
(-0.220331 -0.00015156 0)
(-0.30142 -0.000149154 0)
(-0.368795 -0.000136585 0)
(-0.426162 -0.000125497 0)
(-0.475792 -0.000115599 0)
(-0.519264 -0.0001066 0)
(-0.557737 -9.82377e-05 0)
(-0.592095 -9.03151e-05 0)
(-0.623025 -8.26967e-05 0)
(-0.651068 -7.53136e-05 0)
(-0.676653 -6.81523e-05 0)
(-0.700127 -6.12379e-05 0)
(-0.721766 -5.46146e-05 0)
(-0.741794 -4.83296e-05 0)
(-0.760391 -4.24256e-05 0)
(-0.777706 -3.6935e-05 0)
(-0.793856 -3.18792e-05 0)
(-0.808937 -2.72689e-05 0)
(-0.823025 -2.31069e-05 0)
(-0.83618 -1.93869e-05 0)
(-0.848446 -1.60896e-05 0)
(-0.859855 -1.31787e-05 0)
(-0.87043 -1.06085e-05 0)
(-0.880185 -8.34836e-06 0)
(-0.889125 -6.40374e-06 0)
(-0.897254 -4.80427e-06 0)
(-0.904576 -3.56345e-06 0)
(-0.911097 -2.65109e-06 0)
(-0.916833 -2.00234e-06 0)
(-0.921808 -1.54518e-06 0)
(-0.926061 -1.21995e-06 0)
(-0.929639 -9.84201e-07 0)
(-0.9326 -8.09576e-07 0)
(-0.935008 -6.77215e-07 0)
(-0.936929 -5.74376e-07 0)
(-0.938425 -4.92244e-07 0)
(-0.939557 -4.24549e-07 0)
(-0.940375 -3.66688e-07 0)
(-0.940925 -3.15317e-07 0)
(-0.941246 -2.68449e-07 0)
(-0.941369 -2.25777e-07 0)
(-0.94132 -1.88417e-07 0)
(-0.941121 -1.57565e-07 0)
(-0.94079 -1.33051e-07 0)
(-0.940342 -1.13344e-07 0)
(-0.939789 -9.68714e-08 0)
(-0.939142 -8.28892e-08 0)
(-0.938409 -7.11405e-08 0)
(-0.937599 -6.12817e-08 0)
(-0.936717 -5.28911e-08 0)
(-0.935769 -4.57127e-08 0)
(-0.93476 -3.96497e-08 0)
(-0.933684 -3.44958e-08 0)
(-0.932532 -2.99503e-08 0)
(-0.931303 -2.58671e-08 0)
(-0.929998 -2.23434e-08 0)
(-0.928618 -1.94035e-08 0)
(-0.927161 -1.68031e-08 0)
(-0.925629 -1.44052e-08 0)
(-0.924022 -1.23496e-08 0)
(-0.922339 -1.06475e-08 0)
(-0.920582 -9.12505e-09 0)
(-0.91875 -7.76272e-09 0)
(-0.916844 -6.61354e-09 0)
(-0.914865 -5.61854e-09 0)
(-0.912812 -4.7497e-09 0)
(-0.910687 -4.02293e-09 0)
(-0.90849 -3.3846e-09 0)
(-0.906222 -2.81181e-09 0)
(-0.903885 -2.34588e-09 0)
(-0.901479 -1.96107e-09 0)
(-0.899006 -1.61052e-09 0)
(-0.896467 -1.31151e-09 0)
(-0.893864 -1.06937e-09 0)
(-0.8912 -8.65274e-10 0)
(-0.888477 -6.95472e-10 0)
(-0.885699 -5.5241e-10 0)
(-0.882868 -4.33751e-10 0)
(-0.879988 -3.40872e-10 0)
(-0.877066 -2.62652e-10 0)
(-0.874105 -1.96322e-10 0)
(-0.871114 -1.45801e-10 0)
(-0.868101 -1.09695e-10 0)
(-0.865075 -8.74982e-11 0)
(-0.862049 -7.3531e-11 0)
(-0.859037 -4.09756e-11 0)
(-0.85606 -1.17426e-10 0)
(-0.853141 1.41243e-10 0)
(-0.850312 -1.4637e-10 0)
(-0.84762 2.89096e-10 0)
(-0.84513 -4.66798e-10 0)
(-0.842947 6.67444e-10 0)
(-0.841413 -8.94965e-10 0)
(-0.841028 1.13199e-09 0)
(-0.841007 -1.38233e-09 0)
(-0.841003 1.63455e-09 0)
(-0.841001 -1.89755e-09 0)
(-0.840998 2.16273e-09 0)
(-0.840997 -2.43906e-09 0)
(-0.840995 2.71839e-09 0)
(-0.840994 -3.00926e-09 0)
(-0.840993 3.30395e-09 0)
(-0.840992 -3.61051e-09 0)
(-0.840992 3.92167e-09 0)
(-0.840991 -4.24499e-09 0)
(-0.840991 4.57369e-09 0)
(-0.84099 -4.91477e-09 0)
(-0.84099 5.26197e-09 0)
(-0.84099 -5.62173e-09 0)
(-0.84099 5.98834e-09 0)
(-0.840989 -6.36765e-09 0)
(-0.840989 6.75449e-09 0)
(-0.840989 -7.15415e-09 0)
(-0.840989 7.56201e-09 0)
(-0.840989 -7.9828e-09 0)
(-0.840989 8.4124e-09 0)
(-0.840989 -8.85507e-09 0)
(-0.840989 9.30709e-09 0)
(-0.840989 -9.77233e-09 0)
(-0.840989 1.02475e-08 0)
(-0.840989 -1.0736e-08 0)
(-0.840989 1.12349e-08 0)
(-0.840989 -1.17474e-08 0)
(-0.840989 1.22706e-08 0)
(-0.840989 -1.28077e-08 0)
(-0.840989 1.3356e-08 0)
(-0.840989 -1.39183e-08 0)
(-0.840989 1.44922e-08 0)
(-0.840989 -1.50803e-08 0)
(-0.840989 1.56804e-08 0)
(-0.840989 -1.6295e-08 0)
(-0.840989 1.69219e-08 0)
(-0.840989 -1.75635e-08 0)
(-0.840989 1.82179e-08 0)
(-0.840989 -1.88871e-08 0)
(-0.840989 1.95695e-08 0)
(-0.840989 -2.02669e-08 0)
(-0.840989 2.09779e-08 0)
(-0.840989 -2.17041e-08 0)
(-0.840989 2.24442e-08 0)
(-0.840989 -2.31998e-08 0)
(-0.840989 2.39696e-08 0)
(-0.840989 -2.47551e-08 0)
(-0.840989 2.55552e-08 0)
(-0.840989 -2.63711e-08 0)
(-0.840989 2.72021e-08 0)
(-0.840989 -2.80488e-08 0)
(-0.840989 2.89112e-08 0)
(-0.840989 -2.97894e-08 0)
(-0.840989 3.06835e-08 0)
(-0.840989 -3.15937e-08 0)
(-0.840989 3.25201e-08 0)
(-0.840989 -3.34627e-08 0)
(-0.840989 3.44217e-08 0)
(-0.840989 -3.5397e-08 0)
(-0.840989 3.6389e-08 0)
(-0.840989 -3.73974e-08 0)
(-0.840989 3.84226e-08 0)
(-0.840989 -3.94643e-08 0)
(-0.840989 4.05228e-08 0)
(-0.840989 -4.15979e-08 0)
(-0.840989 3.74669e-08 0)
(-0.840989 -3.77082e-08 0)
(-0.840989 3.79461e-08 0)
(-0.840989 -3.81801e-08 0)
(-0.840989 3.84105e-08 0)
(-0.840989 -3.8637e-08 0)
(-0.840989 3.88599e-08 0)
(-0.840989 -3.90788e-08 0)
(-0.840989 3.92941e-08 0)
(-0.840989 -3.95053e-08 0)
(-0.840989 3.97128e-08 0)
(-0.840989 -3.99162e-08 0)
(-0.840989 4.01157e-08 0)
(-0.840989 -4.03112e-08 0)
(-0.840989 4.05027e-08 0)
(-0.840989 -4.06901e-08 0)
(-0.840989 4.08734e-08 0)
(-0.840989 -4.10527e-08 0)
(-0.840989 4.12276e-08 0)
(-0.840989 -4.13986e-08 0)
(-0.840989 4.1565e-08 0)
(-0.840989 -4.17276e-08 0)
(-0.840989 4.18852e-08 0)
(-0.840989 -4.20394e-08 0)
(-0.840989 4.2188e-08 0)
(-0.840989 -4.23336e-08 0)
(-0.840989 4.2473e-08 0)
(-0.840989 -4.26098e-08 0)
(-0.840989 4.27398e-08 0)
(-0.840989 -4.28676e-08 0)
(-0.840989 4.29881e-08 0)
(-0.840989 -4.31066e-08 0)
(-0.840989 4.32173e-08 0)
(-0.840989 -4.33262e-08 0)
(-0.840989 4.34269e-08 0)
(-0.840989 -4.3526e-08 0)
(-0.840989 4.36162e-08 0)
(-0.840989 -4.37052e-08 0)
(-0.840989 4.37847e-08 0)
(-0.840989 -4.3863e-08 0)
(-0.840989 4.39315e-08 0)
(-0.840989 -4.39982e-08 0)
(-0.840989 4.40551e-08 0)
(-0.840989 -4.41094e-08 0)
(-0.840989 4.41539e-08 0)
(-0.840989 -4.41941e-08 0)
(-0.840989 4.42242e-08 0)
(-0.840989 -4.42462e-08 0)
(-0.840989 4.42493e-08 0)
(-0.840989 -4.42396e-08 0)
)
;

boundaryField
{
    inandouthalf11
    {
        type            cyclic;
    }
    inandouthalf12
    {
        type            cyclic;
    }
    inandouthalf21
    {
        type            cyclic;
    }
    inandouthalf22
    {
        type            cyclic;
    }
    inandouthalf31
    {
        type            cyclic;
    }
    inandouthalf32
    {
        type            cyclic;
    }
    inandouthalf41
    {
        type            cyclic;
    }
    inandouthalf42
    {
        type            cyclic;
    }
    top
    {
        type            symmetryPlane;
    }
    walls
    {
        type            fixedValue;
        value           uniform (0 0 0);
    }
    frontAndBackPlanes
    {
        type            empty;
    }
}


// ************************************************************************* //
