/*--------------------------------*- C++ -*----------------------------------*\
| =========                 |                                                 |
| \\      /  F ield         | OpenFOAM: The Open Source CFD Toolbox           |
|  \\    /   O peration     | Version:  2.4.x                                 |
|   \\  /    A nd           | Web:      www.OpenFOAM.org                      |
|    \\/     M anipulation  |                                                 |
\*---------------------------------------------------------------------------*/
FoamFile
{
    version     2.0;
    format      ascii;
    class       volVectorField;
    location    "4.4";
    object      Ur;
}
// * * * * * * * * * * * * * * * * * * * * * * * * * * * * * * * * * * * * * //

dimensions      [0 1 -1 0 0 0 0];

internalField   nonuniform List<vector> 
360
(
(-4.0648e-05 1.07581e-07 0)
(-4.05204e-05 7.01107e-07 0)
(-4.04695e-05 1.37626e-06 0)
(-4.0485e-05 1.97369e-06 0)
(-4.05022e-05 2.54806e-06 0)
(-4.05125e-05 3.13335e-06 0)
(-4.05215e-05 3.73523e-06 0)
(-4.05304e-05 4.34938e-06 0)
(-4.0539e-05 4.97027e-06 0)
(-4.05479e-05 5.59512e-06 0)
(-4.05573e-05 6.2246e-06 0)
(-4.05668e-05 6.86058e-06 0)
(-4.05765e-05 7.50468e-06 0)
(-4.05861e-05 8.15773e-06 0)
(-4.05957e-05 8.82011e-06 0)
(-4.06055e-05 9.49236e-06 0)
(-4.06155e-05 1.01753e-05 0)
(-4.06256e-05 1.08697e-05 0)
(-4.06358e-05 1.15756e-05 0)
(-4.06463e-05 1.22921e-05 0)
(-4.06566e-05 1.30169e-05 0)
(-4.06671e-05 1.37465e-05 0)
(-4.06776e-05 1.44763e-05 0)
(-4.0688e-05 1.52015e-05 0)
(-4.06983e-05 1.59183e-05 0)
(-4.07085e-05 1.66257e-05 0)
(-4.07185e-05 1.73272e-05 0)
(-4.07286e-05 1.80328e-05 0)
(-4.0739e-05 1.87605e-05 0)
(-4.075e-05 1.95374e-05 0)
(-4.0762e-05 2.04015e-05 0)
(-4.07758e-05 2.14003e-05 0)
(-4.07915e-05 2.25782e-05 0)
(-4.08098e-05 2.39424e-05 0)
(-4.08289e-05 2.5404e-05 0)
(-4.08467e-05 2.67513e-05 0)
(-4.08602e-05 2.77485e-05 0)
(-4.08688e-05 2.83126e-05 0)
(-4.08739e-05 2.85528e-05 0)
(-4.08767e-05 2.86315e-05 0)
(-4.08795e-05 2.86529e-05 0)
(-4.0882e-05 2.86581e-05 0)
(-4.08844e-05 2.86591e-05 0)
(-4.08875e-05 2.86592e-05 0)
(-4.08905e-05 2.86588e-05 0)
(-4.08939e-05 2.86584e-05 0)
(-4.08975e-05 2.86579e-05 0)
(-4.0901e-05 2.86573e-05 0)
(-4.09052e-05 2.86567e-05 0)
(-4.09099e-05 2.86561e-05 0)
(-4.09145e-05 2.86555e-05 0)
(-4.09197e-05 2.86549e-05 0)
(-4.09251e-05 2.86542e-05 0)
(-4.0931e-05 2.86535e-05 0)
(-4.09371e-05 2.86527e-05 0)
(-4.09439e-05 2.86519e-05 0)
(-4.09508e-05 2.86509e-05 0)
(-4.09583e-05 2.86499e-05 0)
(-4.09662e-05 2.86488e-05 0)
(-4.09743e-05 2.86476e-05 0)
(-4.09831e-05 2.86464e-05 0)
(-4.0992e-05 2.8645e-05 0)
(-4.10014e-05 2.86437e-05 0)
(-4.10109e-05 2.86422e-05 0)
(-4.10206e-05 2.86408e-05 0)
(-4.10306e-05 2.86393e-05 0)
(-4.10409e-05 2.86377e-05 0)
(-4.10516e-05 2.86361e-05 0)
(-4.10627e-05 2.86344e-05 0)
(-4.1074e-05 2.86326e-05 0)
(-4.10861e-05 2.86308e-05 0)
(-4.10986e-05 2.86289e-05 0)
(-4.11112e-05 2.86269e-05 0)
(-4.11245e-05 2.86249e-05 0)
(-4.1138e-05 2.86228e-05 0)
(-4.11519e-05 2.86207e-05 0)
(-4.1166e-05 2.86185e-05 0)
(-4.11804e-05 2.86164e-05 0)
(-4.11951e-05 2.86141e-05 0)
(-4.12103e-05 2.86119e-05 0)
(-4.12257e-05 2.86095e-05 0)
(-4.12416e-05 2.86071e-05 0)
(-4.1258e-05 2.86046e-05 0)
(-4.12748e-05 2.86021e-05 0)
(-4.1292e-05 2.85994e-05 0)
(-4.13096e-05 2.85967e-05 0)
(-4.13277e-05 2.8594e-05 0)
(-4.13461e-05 2.85912e-05 0)
(-4.13649e-05 2.85883e-05 0)
(-4.13841e-05 2.85854e-05 0)
(-4.14037e-05 2.85824e-05 0)
(-4.14238e-05 2.85793e-05 0)
(-4.14443e-05 2.85762e-05 0)
(-4.14653e-05 2.8573e-05 0)
(-4.14869e-05 2.85696e-05 0)
(-4.15089e-05 2.85662e-05 0)
(-4.15315e-05 2.85627e-05 0)
(-4.15546e-05 2.85591e-05 0)
(-4.15783e-05 2.85554e-05 0)
(-4.16025e-05 2.85516e-05 0)
(-4.16273e-05 2.85476e-05 0)
(-4.16528e-05 2.85436e-05 0)
(-4.16788e-05 2.85394e-05 0)
(-4.17055e-05 2.85352e-05 0)
(-4.17329e-05 2.85307e-05 0)
(-4.1761e-05 2.85262e-05 0)
(-4.17898e-05 2.85215e-05 0)
(-4.18193e-05 2.85166e-05 0)
(-4.18497e-05 2.85116e-05 0)
(-4.18809e-05 2.85064e-05 0)
(-4.19129e-05 2.85011e-05 0)
(-4.19459e-05 2.84956e-05 0)
(-4.19798e-05 2.84898e-05 0)
(-4.20147e-05 2.84839e-05 0)
(-4.20506e-05 2.84777e-05 0)
(-4.20876e-05 2.84714e-05 0)
(-4.21257e-05 2.84648e-05 0)
(-4.2165e-05 2.8458e-05 0)
(-4.22055e-05 2.84509e-05 0)
(-4.22473e-05 2.84435e-05 0)
(-4.22905e-05 2.84359e-05 0)
(-4.23351e-05 2.84281e-05 0)
(-4.23812e-05 2.84199e-05 0)
(-4.24289e-05 2.84114e-05 0)
(-4.24782e-05 2.84026e-05 0)
(-4.25293e-05 2.83934e-05 0)
(-4.25822e-05 2.83839e-05 0)
(-4.26371e-05 2.83739e-05 0)
(-4.26943e-05 2.83635e-05 0)
(-4.27538e-05 2.83526e-05 0)
(-4.28158e-05 2.83412e-05 0)
(-4.28804e-05 2.83292e-05 0)
(-4.2948e-05 2.83165e-05 0)
(-4.30192e-05 2.8303e-05 0)
(-4.3095e-05 2.82887e-05 0)
(-4.31752e-05 2.82735e-05 0)
(-4.32596e-05 2.82573e-05 0)
(-4.33492e-05 2.82395e-05 0)
(-4.34486e-05 2.82197e-05 0)
(-4.35629e-05 2.81985e-05 0)
(-4.36872e-05 2.8177e-05 0)
(-4.38057e-05 2.81501e-05 0)
(-4.39468e-05 2.81203e-05 0)
(-4.41305e-05 2.80852e-05 0)
(-4.4357e-05 2.80277e-05 0)
(-4.47755e-05 2.76119e-05 0)
(-7.85209e-05 3.23096e-05 0)
(-0.00180579 -2.0811e-05 0)
(-0.0103558 -0.000546445 0)
(-0.00977709 -0.000660786 0)
(-0.00837693 -0.000763669 0)
(-0.00706544 -0.00083018 0)
(-0.00611469 -0.000914252 0)
(-0.00545376 -0.00101723 0)
(-0.00502674 -0.001143 0)
(-0.00480314 -0.00129463 0)
(-0.00476592 -0.0014739 0)
(-0.00490513 -0.00168122 0)
(-0.00521596 -0.00191594 0)
(-0.00569894 -0.0021765 0)
(-0.00636018 -0.0024607 0)
(-0.00721106 -0.00276583 0)
(-0.00826736 -0.00308868 0)
(-0.00954764 -0.00342562 0)
(-0.0110712 -0.00377245 0)
(-0.0128557 -0.00412436 0)
(-0.0149146 -0.00447595 0)
(-0.0172541 -0.00482136 0)
(-0.019871 -0.00515446 0)
(-0.0227497 -0.00546796 0)
(-0.0258599 -0.00575045 0)
(-0.0291548 -0.00598272 0)
(-0.0325686 -0.00613865 0)
(-0.0360171 -0.00619564 0)
(-0.0394033 -0.00614874 0)
(-0.0426282 -0.00601542 0)
(-0.0456046 -0.00582697 0)
(-0.0482659 -0.00561562 0)
(-0.0505704 -0.00540643 0)
(-0.0525012 -0.00521562 0)
(-0.0540623 -0.00505211 0)
(-0.0552749 -0.00491977 0)
(-0.0561715 -0.00481918 0)
(-0.0567905 -0.00474883 0)
(-0.0571716 -0.00470578 0)
(-0.057352 -0.00468601 0)
(-0.057364 -0.00468453 0)
(-0.0572343 -0.00469537 0)
(-0.0569829 -0.00471169 0)
(-0.0566245 -0.00472672 0)
(-0.0561692 -0.0047357 0)
(-0.0556252 -0.00473759 0)
(-0.0549999 -0.00473441 0)
(-0.0543004 -0.00472841 0)
(-0.0535323 -0.00472017 0)
(-0.0527004 -0.00470943 0)
(-0.0518088 -0.00469639 0)
(-0.050861 -0.00468159 0)
(-0.0498605 -0.00466522 0)
(-0.04881 -0.00464711 0)
(-0.0477123 -0.00462733 0)
(-0.0465584 -0.00460624 0)
(-0.045337 -0.00458396 0)
(-0.0440478 -0.00455973 0)
(-0.04269 -0.00453285 0)
(-0.0412638 -0.0045044 0)
(-0.0397692 -0.00447528 0)
(-0.0382059 -0.00444369 0)
(-0.0365735 -0.00440859 0)
(-0.0348726 -0.004372 0)
(-0.0331032 -0.00433382 0)
(-0.0312656 -0.0042919 0)
(-0.0293601 -0.00424708 0)
(-0.0273873 -0.00420001 0)
(-0.0253478 -0.00414881 0)
(-0.0232422 -0.0040944 0)
(-0.0210713 -0.00403801 0)
(-0.0188366 -0.00397631 0)
(-0.0165392 -0.00390919 0)
(-0.0141797 -0.00384056 0)
(-0.0117605 -0.00376749 0)
(-0.00928396 -0.0036875 0)
(-0.00675146 -0.00360379 0)
(-0.00416625 -0.00351488 0)
(-0.00153122 -0.00342096 0)
(0.00115 -0.00332343 0)
(0.00387105 -0.00321794 0)
(0.00662877 -0.00310768 0)
(0.00941705 -0.00299281 0)
(0.0122253 -0.0028648 0)
(0.0150473 -0.00272523 0)
(0.0178754 -0.00257423 0)
(0.0207074 -0.00241972 0)
(0.0235492 -0.00228571 0)
(0.0263982 -0.00218545 0)
(0.0292404 -0.00212338 0)
(0.0319792 -0.00204944 0)
(-0.0020133 0.0306383 0)
(-0.00130937 0.0397289 0)
(-0.00150423 0.0396343 0)
(-0.0013508 0.0396176 0)
(-0.000936497 0.0395813 0)
(-0.000794987 0.0395546 0)
(-0.000787358 0.0395483 0)
(-0.000787016 0.0395482 0)
(-0.000786901 0.0395482 0)
(-0.000786811 0.0395482 0)
(-0.000786737 0.0395482 0)
(-0.000786676 0.0395482 0)
(-0.000786626 0.0395482 0)
(-0.000786585 0.0395482 0)
(-0.000786552 0.0395482 0)
(-0.000786525 0.0395482 0)
(-0.000786503 0.0395482 0)
(-0.000786486 0.0395482 0)
(-0.000786472 0.0395482 0)
(-0.000786461 0.0395482 0)
(-0.000786452 0.0395482 0)
(-0.000786445 0.0395482 0)
(-0.00078644 0.0395482 0)
(-0.000786435 0.0395482 0)
(-0.000786432 0.0395482 0)
(-0.00078643 0.0395482 0)
(-0.000786428 0.0395482 0)
(-0.000786426 0.0395482 0)
(-0.000786425 0.0395482 0)
(-0.000786424 0.0395482 0)
(-0.000786423 0.0395482 0)
(-0.000786423 0.0395482 0)
(-0.000786423 0.0395482 0)
(-0.000786422 0.0395482 0)
(-0.000786422 0.0395482 0)
(-0.000786422 0.0395482 0)
(-0.000786422 0.0395482 0)
(-0.000786422 0.0395482 0)
(-0.000786422 0.0395482 0)
(-0.000786422 0.0395482 0)
(-0.000786422 0.0395482 0)
(-0.000786421 0.0395482 0)
(-0.000786422 0.0395482 0)
(-0.000786421 0.0395482 0)
(-0.000786422 0.0395482 0)
(-0.000786421 0.0395482 0)
(-0.000786422 0.0395482 0)
(-0.000786421 0.0395482 0)
(-0.000786422 0.0395482 0)
(-0.000786421 0.0395482 0)
(-0.000786422 0.0395482 0)
(-0.000786421 0.0395482 0)
(-0.000786422 0.0395482 0)
(-0.000786421 0.0395482 0)
(-0.000786422 0.0395482 0)
(-0.000786421 0.0395482 0)
(-0.000786422 0.0395482 0)
(-0.000786421 0.0395482 0)
(-0.000786422 0.0395482 0)
(-0.000786421 0.0395482 0)
(-0.000786422 0.0395482 0)
(-0.000786421 0.0395482 0)
(-0.000786422 0.0395482 0)
(-0.000786421 0.0395482 0)
(-0.000786422 0.0395482 0)
(-0.000786421 0.0395482 0)
(-0.000786422 0.0395482 0)
(-0.000786421 0.0395482 0)
(-0.000786422 0.0395482 0)
(-0.000786421 0.0395482 0)
(-0.000786422 0.0395482 0)
(-0.000786421 0.0395482 0)
(-0.000786422 0.0395482 0)
(-0.000786421 0.0395482 0)
(-0.000786422 0.0395482 0)
(-0.000786421 0.0395482 0)
(-0.000786422 0.0395482 0)
(-0.000786421 0.0395482 0)
(-0.000786422 0.0395482 0)
(-0.000786421 0.0395482 0)
(-0.000786422 0.0395482 0)
(-0.000786421 0.0395482 0)
(-0.000786422 0.0395482 0)
(-0.000786421 0.0395482 0)
(-0.000786422 0.0395482 0)
(-0.000786421 0.0395482 0)
(-0.000786422 0.0395482 0)
(-0.000786421 0.0395482 0)
(-0.000786422 0.0395482 0)
(-0.000786421 0.0395482 0)
(-0.000786422 0.0395482 0)
(-0.000786421 0.0395482 0)
(-0.000786422 0.0395482 0)
(-0.000786421 0.0395482 0)
(-0.000786422 0.0395482 0)
(-0.000786421 0.0395482 0)
(-0.000786422 0.0395482 0)
(-0.000786421 0.0395482 0)
(-0.000786422 0.0395482 0)
(-0.000786421 0.0395482 0)
(-0.000786422 0.0395482 0)
(-0.000786421 0.0395482 0)
(-0.000786422 0.0395482 0)
(-0.000786421 0.0395482 0)
(-0.000786422 0.0395482 0)
(-0.000786421 0.0395482 0)
(-0.000786422 0.0395482 0)
(-0.000786421 0.0395482 0)
(-0.000786422 0.0395482 0)
(-0.000786421 0.0395482 0)
(-0.000786422 0.0395482 0)
(-0.000786421 0.0395482 0)
(-0.000786422 0.0395482 0)
(-0.000786421 0.0395482 0)
(-0.000786422 0.0395482 0)
(-0.000786421 0.0395482 0)
(-0.000786422 0.0395482 0)
(-0.000786421 0.0395482 0)
(-0.000786422 0.0395482 0)
(-0.000786431 0.039548 0)
(-0.000786667 0.0395395 0)
(-0.000792349 0.0391951 0)
(-0.000922642 0.0224967 0)
)
;

boundaryField
{
    inandouthalf11
    {
        type            cyclic;
    }
    inandouthalf12
    {
        type            cyclic;
    }
    inandouthalf21
    {
        type            cyclic;
    }
    inandouthalf22
    {
        type            cyclic;
    }
    inandouthalf31
    {
        type            cyclic;
    }
    inandouthalf32
    {
        type            cyclic;
    }
    inandouthalf41
    {
        type            cyclic;
    }
    inandouthalf42
    {
        type            cyclic;
    }
    top
    {
        type            symmetryPlane;
    }
    walls
    {
        type            calculated;
        value           uniform (0 0 0);
    }
    frontAndBackPlanes
    {
        type            empty;
    }
}


// ************************************************************************* //
