/*--------------------------------*- C++ -*----------------------------------*\
| =========                 |                                                 |
| \\      /  F ield         | OpenFOAM: The Open Source CFD Toolbox           |
|  \\    /   O peration     | Version:  2.4.x                                 |
|   \\  /    A nd           | Web:      www.OpenFOAM.org                      |
|    \\/     M anipulation  |                                                 |
\*---------------------------------------------------------------------------*/
FoamFile
{
    version     2.0;
    format      ascii;
    class       surfaceScalarField;
    location    "11.5";
    object      ddt0(phib);
}
// * * * * * * * * * * * * * * * * * * * * * * * * * * * * * * * * * * * * * //

dimensions      [0 3 -2 0 0 0 0];

internalField   nonuniform List<scalar> 
359
(
-2.07552e-14
-5.20437e-14
-8.15432e-14
-1.10334e-13
-1.39861e-13
-1.69604e-13
-1.98724e-13
-2.26829e-13
-2.53743e-13
-2.79278e-13
-3.03211e-13
-3.25425e-13
-3.45835e-13
-3.64369e-13
-3.81055e-13
-3.95957e-13
-4.09133e-13
-4.20702e-13
-4.30845e-13
-4.3969e-13
-4.47377e-13
-4.54134e-13
-4.60151e-13
-4.6549e-13
-4.70451e-13
-4.75085e-13
-4.79595e-13
-4.84074e-13
-4.88654e-13
-4.93394e-13
-4.98433e-13
-5.03796e-13
-5.09587e-13
-5.15857e-13
-5.2263e-13
-5.29959e-13
-5.37875e-13
-5.46353e-13
-5.55426e-13
-5.65119e-13
-5.75382e-13
-5.86273e-13
-5.97797e-13
-6.09948e-13
-6.22652e-13
-6.35926e-13
-6.49776e-13
-6.64127e-13
-6.7905e-13
-6.9447e-13
-7.10339e-13
-7.2671e-13
-7.43536e-13
-7.60778e-13
-7.78364e-13
-7.96343e-13
-8.14695e-13
-8.33403e-13
-8.52412e-13
-8.71697e-13
-8.91281e-13
-9.11075e-13
-9.31129e-13
-9.51386e-13
-9.71832e-13
-9.92485e-13
-1.01327e-12
-1.03419e-12
-1.05526e-12
-1.07642e-12
-1.09769e-12
-1.11901e-12
-1.1404e-12
-1.16185e-12
-1.18335e-12
-1.20487e-12
-1.22637e-12
-1.24794e-12
-1.26946e-12
-1.29094e-12
-1.31242e-12
-1.33381e-12
-1.3552e-12
-1.37653e-12
-1.39781e-12
-1.41899e-12
-1.44011e-12
-1.46109e-12
-1.48203e-12
-1.50281e-12
-1.52349e-12
-1.54404e-12
-1.56445e-12
-1.58473e-12
-1.60483e-12
-1.6248e-12
-1.64457e-12
-1.66418e-12
-1.68361e-12
-1.70287e-12
-1.72197e-12
-1.74085e-12
-1.75956e-12
-1.77813e-12
-1.79653e-12
-1.81483e-12
-1.83301e-12
-1.85112e-12
-1.86914e-12
-1.88711e-12
-1.90504e-12
-1.92294e-12
-1.94084e-12
-1.95864e-12
-1.97638e-12
-1.99398e-12
-2.01139e-12
-2.02857e-12
-2.04544e-12
-2.06204e-12
-2.07834e-12
-2.09446e-12
-2.11057e-12
-2.12694e-12
-2.14391e-12
-2.16193e-12
-2.1816e-12
-2.20351e-12
-2.22841e-12
-2.25693e-12
-2.28947e-12
-2.32603e-12
-2.36571e-12
-2.40651e-12
-2.44512e-12
-2.47734e-12
-2.49981e-12
-2.51169e-12
-2.5153e-12
-2.51414e-12
-2.51112e-12
-2.49419e-12
-2.4877e-12
-2.49134e-12
-2.48656e-12
-2.47318e-12
-3.75215e-12
-1.62324e-08
-8.63591e-09
-5.31109e-09
-3.48443e-09
-2.30805e-09
-1.56324e-09
-1.11377e-09
-8.59825e-10
-7.27209e-10
-6.63558e-10
-6.3377e-10
-6.16085e-10
-5.97868e-10
-5.73184e-10
-5.41308e-10
-5.04163e-10
-4.60525e-10
-4.02781e-10
-3.27354e-10
-2.48245e-10
-1.83854e-10
-1.39056e-10
-1.09283e-10
-8.92803e-11
-7.54254e-11
-6.54655e-11
-5.80241e-11
-5.22538e-11
-4.76237e-11
-4.37938e-11
-4.05413e-11
-3.77166e-11
-3.52177e-11
-3.29732e-11
-3.09322e-11
-2.9058e-11
-2.73234e-11
-2.5708e-11
-2.41963e-11
-2.27761e-11
-2.14379e-11
-2.01742e-11
-1.89785e-11
-1.78459e-11
-1.67721e-11
-1.57535e-11
-1.47869e-11
-1.38698e-11
-1.29997e-11
-1.21748e-11
-1.1393e-11
-1.06527e-11
-9.95234e-12
-9.29028e-12
-8.65269e-12
-8.03994e-12
-7.45228e-12
-6.88985e-12
-6.35265e-12
-5.84054e-12
-5.35332e-12
-4.89064e-12
-4.4522e-12
-4.03775e-12
-3.64705e-12
-3.2801e-12
-2.9369e-12
-2.61759e-12
-2.32222e-12
-2.05077e-12
-1.80293e-12
-1.57818e-12
-1.37562e-12
-1.19411e-12
-1.03228e-12
-8.88614e-13
-7.61521e-13
-6.49468e-13
-5.51027e-13
-4.64795e-13
-3.89686e-13
-3.24919e-13
-2.69924e-13
-2.24841e-13
-1.91088e-13
-1.65133e-13
-1.3754e-13
-9.59011e-14
-6.12374e-14
-4.40019e-14
-2.9739e-14
-1.8877e-14
-1.08951e-14
-5.25033e-15
-1.51839e-15
7.80646e-16
2.0702e-15
2.40379e-15
2.60296e-15
2.1903e-15
1.93073e-15
1.50557e-15
1.08592e-15
5.02482e-16
3.3449e-16
1.87166e-16
1.28357e-16
1.137e-16
9.60951e-17
7.74744e-17
6.2922e-17
5.65085e-17
5.67201e-17
5.32872e-17
3.52634e-17
2.63667e-17
1.52182e-17
5.45793e-18
-8.72651e-18
-1.1691e-17
-2.00055e-17
-2.44626e-17
-3.53617e-17
-5.13458e-17
-5.35442e-17
-6.78497e-17
-7.53116e-17
-9.07391e-17
-1.07401e-16
-1.12557e-16
-1.18164e-16
-1.24282e-16
-1.34502e-16
-1.39407e-16
-1.43342e-16
-1.53241e-16
-1.68665e-16
-1.75323e-16
-1.89525e-16
-1.95794e-16
-2.02912e-16
-2.13007e-16
-2.30699e-16
-2.44753e-16
-2.55475e-16
-2.9078e-16
-3.1066e-16
-3.42708e-16
-3.66267e-16
-5.21976e-16
-6.60092e-16
-8.17252e-16
-9.90473e-16
-1.15207e-15
-1.35422e-15
-1.55094e-15
-1.79716e-15
-1.98226e-15
-2.21998e-15
-2.46701e-15
-2.79168e-15
-3.07522e-15
-3.43126e-15
-3.75884e-15
-4.13183e-15
-4.54301e-15
-4.9753e-15
-5.41979e-15
-5.87778e-15
-6.36607e-15
-6.82771e-15
-7.32519e-15
-7.76208e-15
-8.76891e-15
-9.64962e-15
-1.06064e-14
-1.13445e-14
-1.31068e-14
-1.44018e-14
-1.66393e-14
-1.7976e-14
-3.4016e-14
-4.83689e-14
-6.36009e-14
-7.63516e-14
-9.21914e-14
-1.04325e-13
-1.16687e-13
-1.24796e-13
-1.41347e-13
-1.52189e-13
-1.63096e-13
-1.66856e-13
-1.76602e-13
-1.78464e-13
-1.81027e-13
-1.76786e-13
-1.9123e-13
-1.98246e-13
-2.05929e-13
-2.04961e-13
-2.1023e-13
-2.08457e-13
-2.07243e-13
-2.06637e-13
-2.05115e-13
-2.09029e-13
-2.1501e-13
-2.35948e-13
-2.37026e-13
-2.78796e-13
-3.60212e-13
)
;

boundaryField
{
    inandouthalf11
    {
        type            cyclic;
        value           nonuniform List<scalar> 
100
(
-1.92e-10
-1.90932e-10
-1.9079e-10
-1.90936e-10
-1.91006e-10
-1.9103e-10
-1.91059e-10
-1.91097e-10
-1.91135e-10
-1.91174e-10
-1.91213e-10
-1.91252e-10
-1.91291e-10
-1.9133e-10
-1.91369e-10
-1.91408e-10
-1.91448e-10
-1.91488e-10
-1.91529e-10
-1.9157e-10
-1.9161e-10
-1.91652e-10
-1.91693e-10
-1.91735e-10
-1.91778e-10
-1.9182e-10
-1.91864e-10
-1.91907e-10
-1.91952e-10
-1.91996e-10
-1.92041e-10
-1.92087e-10
-1.92133e-10
-1.9218e-10
-1.92227e-10
-1.92275e-10
-1.92323e-10
-1.92372e-10
-1.92422e-10
-1.92471e-10
-1.92522e-10
-1.92574e-10
-1.92625e-10
-1.92678e-10
-1.92731e-10
-1.92785e-10
-1.9284e-10
-1.92895e-10
-1.92951e-10
-1.93008e-10
-1.93065e-10
-1.93123e-10
-1.93182e-10
-1.93242e-10
-1.93302e-10
-1.93364e-10
-1.93425e-10
-1.93488e-10
-1.93552e-10
-1.93616e-10
-1.93681e-10
-1.93747e-10
-1.93815e-10
-1.93882e-10
-1.93951e-10
-1.94021e-10
-1.94092e-10
-1.94164e-10
-1.94236e-10
-1.9431e-10
-1.94385e-10
-1.94461e-10
-1.94537e-10
-1.94616e-10
-1.94695e-10
-1.94776e-10
-1.94857e-10
-1.9494e-10
-1.95024e-10
-1.9511e-10
-1.95197e-10
-1.95285e-10
-1.95375e-10
-1.95466e-10
-1.95559e-10
-1.95653e-10
-1.95749e-10
-1.95847e-10
-1.95946e-10
-1.96047e-10
-1.9615e-10
-1.96255e-10
-1.96362e-10
-1.9647e-10
-1.96581e-10
-1.96694e-10
-1.9681e-10
-1.96927e-10
-1.97048e-10
-1.9717e-10
)
;
    }
    inandouthalf12
    {
        type            cyclic;
        value           nonuniform List<scalar> 
100
(
1.92e-10
1.90932e-10
1.9079e-10
1.90936e-10
1.91006e-10
1.9103e-10
1.91059e-10
1.91097e-10
1.91135e-10
1.91174e-10
1.91213e-10
1.91252e-10
1.91291e-10
1.9133e-10
1.91369e-10
1.91408e-10
1.91448e-10
1.91488e-10
1.91529e-10
1.9157e-10
1.9161e-10
1.91652e-10
1.91693e-10
1.91735e-10
1.91778e-10
1.9182e-10
1.91864e-10
1.91907e-10
1.91952e-10
1.91996e-10
1.92041e-10
1.92087e-10
1.92133e-10
1.9218e-10
1.92227e-10
1.92275e-10
1.92323e-10
1.92372e-10
1.92422e-10
1.92471e-10
1.92522e-10
1.92574e-10
1.92625e-10
1.92678e-10
1.92731e-10
1.92785e-10
1.9284e-10
1.92895e-10
1.92951e-10
1.93008e-10
1.93065e-10
1.93123e-10
1.93182e-10
1.93242e-10
1.93302e-10
1.93364e-10
1.93425e-10
1.93488e-10
1.93552e-10
1.93616e-10
1.93681e-10
1.93747e-10
1.93815e-10
1.93882e-10
1.93951e-10
1.94021e-10
1.94092e-10
1.94164e-10
1.94236e-10
1.9431e-10
1.94385e-10
1.94461e-10
1.94537e-10
1.94616e-10
1.94695e-10
1.94776e-10
1.94857e-10
1.9494e-10
1.95024e-10
1.9511e-10
1.95197e-10
1.95285e-10
1.95375e-10
1.95466e-10
1.95559e-10
1.95653e-10
1.95749e-10
1.95847e-10
1.95946e-10
1.96047e-10
1.9615e-10
1.96255e-10
1.96362e-10
1.9647e-10
1.96581e-10
1.96694e-10
1.9681e-10
1.96927e-10
1.97048e-10
1.9717e-10
)
;
    }
    inandouthalf21
    {
        type            cyclic;
        value           nonuniform List<scalar> 
100
(
-1.97295e-10
-1.97423e-10
-1.97554e-10
-1.97688e-10
-1.97824e-10
-1.97964e-10
-1.98108e-10
-1.98254e-10
-1.98404e-10
-1.98558e-10
-1.98716e-10
-1.98878e-10
-1.99044e-10
-1.99215e-10
-1.9939e-10
-1.9957e-10
-1.99755e-10
-1.99946e-10
-2.00142e-10
-2.00344e-10
-2.00553e-10
-2.00768e-10
-2.0099e-10
-2.0122e-10
-2.01457e-10
-2.01704e-10
-2.01959e-10
-2.02224e-10
-2.025e-10
-2.02787e-10
-2.03087e-10
-2.034e-10
-2.03727e-10
-2.04073e-10
-2.04442e-10
-2.04834e-10
-2.05248e-10
-2.05689e-10
-2.06179e-10
-2.06737e-10
-2.07341e-10
-2.08052e-10
-2.13016e-10
-2.12275e-10
-2.13186e-10
-2.14691e-10
-2.10795e-10
3.33607e-09
1.8066e-07
1.37464e-07
1.05385e-07
8.45726e-08
7.05764e-08
6.1434e-08
5.59825e-08
5.34844e-08
5.34951e-08
5.58012e-08
6.03823e-08
6.73751e-08
7.7031e-08
8.96572e-08
1.05531e-07
1.24781e-07
1.47242e-07
1.72328e-07
1.99007e-07
2.25963e-07
2.51888e-07
2.75761e-07
2.96986e-07
3.15376e-07
3.31049e-07
3.44298e-07
3.55482e-07
3.64961e-07
3.73055e-07
3.80037e-07
3.86129e-07
3.9151e-07
3.96321e-07
4.00673e-07
4.04652e-07
4.08327e-07
4.11753e-07
4.14972e-07
4.18017e-07
4.20916e-07
4.23691e-07
4.26358e-07
4.28931e-07
4.31422e-07
4.3384e-07
4.36192e-07
4.38484e-07
4.40722e-07
4.4291e-07
4.45051e-07
4.47148e-07
4.49203e-07
)
;
    }
    inandouthalf22
    {
        type            cyclic;
        value           nonuniform List<scalar> 
100
(
1.97295e-10
1.97423e-10
1.97554e-10
1.97688e-10
1.97824e-10
1.97964e-10
1.98108e-10
1.98254e-10
1.98404e-10
1.98558e-10
1.98716e-10
1.98878e-10
1.99044e-10
1.99215e-10
1.9939e-10
1.9957e-10
1.99755e-10
1.99946e-10
2.00142e-10
2.00344e-10
2.00553e-10
2.00768e-10
2.0099e-10
2.0122e-10
2.01457e-10
2.01704e-10
2.01959e-10
2.02224e-10
2.025e-10
2.02787e-10
2.03087e-10
2.034e-10
2.03727e-10
2.04073e-10
2.04442e-10
2.04834e-10
2.05248e-10
2.05689e-10
2.06179e-10
2.06737e-10
2.07341e-10
2.08052e-10
2.13016e-10
2.12275e-10
2.13186e-10
2.14691e-10
2.10795e-10
-3.33607e-09
-1.8066e-07
-1.37464e-07
-1.05385e-07
-8.45726e-08
-7.05764e-08
-6.1434e-08
-5.59825e-08
-5.34844e-08
-5.34951e-08
-5.58012e-08
-6.03823e-08
-6.73751e-08
-7.7031e-08
-8.96572e-08
-1.05531e-07
-1.24781e-07
-1.47242e-07
-1.72328e-07
-1.99007e-07
-2.25963e-07
-2.51888e-07
-2.75761e-07
-2.96986e-07
-3.15376e-07
-3.31049e-07
-3.44298e-07
-3.55482e-07
-3.64961e-07
-3.73055e-07
-3.80037e-07
-3.86129e-07
-3.9151e-07
-3.96321e-07
-4.00673e-07
-4.04652e-07
-4.08327e-07
-4.11753e-07
-4.14972e-07
-4.18017e-07
-4.20916e-07
-4.23691e-07
-4.26358e-07
-4.28931e-07
-4.31422e-07
-4.3384e-07
-4.36192e-07
-4.38484e-07
-4.40722e-07
-4.4291e-07
-4.45051e-07
-4.47148e-07
-4.49203e-07
)
;
    }
    inandouthalf31
    {
        type            cyclic;
        value           nonuniform List<scalar> 
110
(
4.51221e-07
4.62419e-07
4.73888e-07
4.85637e-07
4.97672e-07
5.1e-07
5.22629e-07
5.35565e-07
5.48816e-07
5.62391e-07
5.76295e-07
5.90536e-07
6.05123e-07
6.20062e-07
6.35361e-07
6.51028e-07
6.67069e-07
6.83493e-07
7.00306e-07
7.17516e-07
7.3513e-07
7.53155e-07
7.71596e-07
7.90461e-07
8.09755e-07
8.29483e-07
8.4965e-07
8.7026e-07
8.91317e-07
9.12824e-07
9.3478e-07
9.57187e-07
9.80043e-07
1.00335e-06
1.02709e-06
1.05127e-06
1.07587e-06
1.10088e-06
1.12629e-06
1.15207e-06
1.1782e-06
1.20465e-06
1.23138e-06
1.25836e-06
1.28553e-06
1.31283e-06
1.34021e-06
1.36759e-06
1.39489e-06
1.42203e-06
1.44893e-06
1.47551e-06
1.5017e-06
1.52746e-06
1.5528e-06
1.57775e-06
1.60242e-06
1.627e-06
1.65172e-06
1.67683e-06
1.70261e-06
1.72929e-06
1.75707e-06
1.78607e-06
1.81637e-06
1.84802e-06
1.88103e-06
1.91541e-06
1.95117e-06
1.9883e-06
2.02681e-06
2.0667e-06
2.10799e-06
2.15073e-06
2.19497e-06
2.24088e-06
2.28969e-06
2.34152e-06
2.39004e-06
2.43858e-06
2.48807e-06
2.53857e-06
2.5901e-06
2.64267e-06
2.69631e-06
2.75104e-06
2.80688e-06
2.86385e-06
2.92198e-06
2.98129e-06
3.0418e-06
3.10354e-06
3.16653e-06
3.23081e-06
3.29638e-06
3.36329e-06
3.43156e-06
3.50121e-06
3.57227e-06
3.64478e-06
3.71876e-06
3.79424e-06
3.87125e-06
3.94983e-06
4.03e-06
4.1118e-06
4.19526e-06
4.28041e-06
4.36729e-06
4.45594e-06
)
;
    }
    inandouthalf32
    {
        type            cyclic;
        value           nonuniform List<scalar> 
110
(
-4.51221e-07
-4.62419e-07
-4.73888e-07
-4.85637e-07
-4.97672e-07
-5.1e-07
-5.22629e-07
-5.35565e-07
-5.48816e-07
-5.62391e-07
-5.76295e-07
-5.90536e-07
-6.05123e-07
-6.20062e-07
-6.35361e-07
-6.51028e-07
-6.67069e-07
-6.83493e-07
-7.00306e-07
-7.17516e-07
-7.3513e-07
-7.53155e-07
-7.71596e-07
-7.90461e-07
-8.09755e-07
-8.29483e-07
-8.4965e-07
-8.7026e-07
-8.91317e-07
-9.12824e-07
-9.3478e-07
-9.57187e-07
-9.80043e-07
-1.00335e-06
-1.02709e-06
-1.05127e-06
-1.07587e-06
-1.10088e-06
-1.12629e-06
-1.15207e-06
-1.1782e-06
-1.20465e-06
-1.23138e-06
-1.25836e-06
-1.28553e-06
-1.31283e-06
-1.34021e-06
-1.36759e-06
-1.39489e-06
-1.42203e-06
-1.44893e-06
-1.47551e-06
-1.5017e-06
-1.52746e-06
-1.5528e-06
-1.57775e-06
-1.60242e-06
-1.627e-06
-1.65172e-06
-1.67683e-06
-1.70261e-06
-1.72929e-06
-1.75707e-06
-1.78607e-06
-1.81637e-06
-1.84802e-06
-1.88103e-06
-1.91541e-06
-1.95117e-06
-1.9883e-06
-2.02681e-06
-2.0667e-06
-2.10799e-06
-2.15073e-06
-2.19497e-06
-2.24088e-06
-2.28969e-06
-2.34152e-06
-2.39004e-06
-2.43858e-06
-2.48807e-06
-2.53857e-06
-2.5901e-06
-2.64267e-06
-2.69631e-06
-2.75104e-06
-2.80688e-06
-2.86385e-06
-2.92198e-06
-2.98129e-06
-3.0418e-06
-3.10354e-06
-3.16653e-06
-3.23081e-06
-3.29638e-06
-3.36329e-06
-3.43156e-06
-3.50121e-06
-3.57227e-06
-3.64478e-06
-3.71876e-06
-3.79424e-06
-3.87125e-06
-3.94983e-06
-4.03e-06
-4.1118e-06
-4.19526e-06
-4.28041e-06
-4.36729e-06
-4.45594e-06
)
;
    }
    inandouthalf41
    {
        type            cyclic;
        value           nonuniform List<scalar> 
50
(
3.98852e-06
3.98852e-06
3.98852e-06
3.98852e-06
3.98852e-06
3.98852e-06
3.98852e-06
3.98852e-06
3.98852e-06
3.98852e-06
3.98852e-06
3.98852e-06
3.98852e-06
3.98852e-06
3.98852e-06
3.98852e-06
3.98852e-06
3.98852e-06
3.98852e-06
3.98852e-06
3.98852e-06
3.98852e-06
3.98852e-06
3.98852e-06
3.98852e-06
3.98852e-06
3.98852e-06
3.98852e-06
3.98852e-06
3.98852e-06
3.98852e-06
3.98852e-06
3.98852e-06
3.98852e-06
3.98852e-06
3.98852e-06
3.98852e-06
3.98852e-06
3.98852e-06
3.98852e-06
3.98852e-06
3.98852e-06
3.98852e-06
3.98852e-06
3.98852e-06
3.98852e-06
3.98852e-06
3.98852e-06
3.98852e-06
3.98852e-06
)
;
    }
    inandouthalf42
    {
        type            cyclic;
        value           nonuniform List<scalar> 
50
(
-3.98852e-06
-3.98852e-06
-3.98852e-06
-3.98852e-06
-3.98852e-06
-3.98852e-06
-3.98852e-06
-3.98852e-06
-3.98852e-06
-3.98852e-06
-3.98852e-06
-3.98852e-06
-3.98852e-06
-3.98852e-06
-3.98852e-06
-3.98852e-06
-3.98852e-06
-3.98852e-06
-3.98852e-06
-3.98852e-06
-3.98852e-06
-3.98852e-06
-3.98852e-06
-3.98852e-06
-3.98852e-06
-3.98852e-06
-3.98852e-06
-3.98852e-06
-3.98852e-06
-3.98852e-06
-3.98852e-06
-3.98852e-06
-3.98852e-06
-3.98852e-06
-3.98852e-06
-3.98852e-06
-3.98852e-06
-3.98852e-06
-3.98852e-06
-3.98852e-06
-3.98852e-06
-3.98852e-06
-3.98852e-06
-3.98852e-06
-3.98852e-06
-3.98852e-06
-3.98852e-06
-3.98852e-06
-3.98852e-06
-3.98852e-06
)
;
    }
    top
    {
        type            symmetryPlane;
        value           uniform 0;
    }
    walls
    {
        type            calculated;
        value           uniform 0;
    }
    frontAndBackPlanes
    {
        type            empty;
        value           nonuniform 0();
    }
}


// ************************************************************************* //
