/*--------------------------------*- C++ -*----------------------------------*\
| =========                 |                                                 |
| \\      /  F ield         | OpenFOAM: The Open Source CFD Toolbox           |
|  \\    /   O peration     | Version:  2.4.x                                 |
|   \\  /    A nd           | Web:      www.OpenFOAM.org                      |
|    \\/     M anipulation  |                                                 |
\*---------------------------------------------------------------------------*/
FoamFile
{
    version     2.0;
    format      ascii;
    class       volScalarField;
    location    "11.5";
    object      ddt0(alpha);
}
// * * * * * * * * * * * * * * * * * * * * * * * * * * * * * * * * * * * * * //

dimensions      [0 0 -1 0 0 0 0];

internalField   nonuniform List<scalar> 
360
(
3.56463e-06
5.3469e-06
5.07168e-06
5.01829e-06
5.27054e-06
5.48079e-06
5.5984e-06
5.68194e-06
5.75525e-06
5.82009e-06
5.86899e-06
5.89567e-06
5.90064e-06
5.88418e-06
5.84897e-06
5.79745e-06
5.73132e-06
5.65208e-06
5.56186e-06
5.46416e-06
5.35874e-06
5.25025e-06
5.13934e-06
5.02777e-06
4.91715e-06
4.80848e-06
4.70252e-06
4.60136e-06
4.50446e-06
4.41244e-06
4.3257e-06
4.24562e-06
4.16945e-06
4.1015e-06
4.0374e-06
3.97987e-06
3.92704e-06
3.88016e-06
3.83911e-06
3.80054e-06
3.76897e-06
3.7407e-06
3.71524e-06
3.69564e-06
3.67818e-06
3.66436e-06
3.6537e-06
3.64371e-06
3.63752e-06
3.63485e-06
3.63157e-06
3.63144e-06
3.63191e-06
3.63462e-06
3.63669e-06
3.64202e-06
3.64555e-06
3.65126e-06
3.65636e-06
3.6603e-06
3.66725e-06
3.67194e-06
3.67846e-06
3.68345e-06
3.68843e-06
3.69223e-06
3.69611e-06
3.69915e-06
3.70093e-06
3.70088e-06
3.702e-06
3.70275e-06
3.7001e-06
3.69878e-06
3.69567e-06
3.69274e-06
3.6869e-06
3.67989e-06
3.67179e-06
3.66264e-06
3.65168e-06
3.64009e-06
3.62774e-06
3.61436e-06
3.60008e-06
3.58445e-06
3.56762e-06
3.54899e-06
3.52866e-06
3.50688e-06
3.48371e-06
3.45929e-06
3.43397e-06
3.40776e-06
3.38065e-06
3.35256e-06
3.32341e-06
3.29316e-06
3.26183e-06
3.22958e-06
3.19661e-06
3.16319e-06
3.12964e-06
3.09624e-06
3.06329e-06
3.03106e-06
2.9998e-06
2.96972e-06
2.94094e-06
2.9135e-06
2.88726e-06
2.86194e-06
2.83703e-06
2.81183e-06
2.78546e-06
2.75697e-06
2.72543e-06
2.69008e-06
2.65054e-06
2.60705e-06
2.56064e-06
2.51327e-06
2.468e-06
2.42895e-06
2.40131e-06
2.39123e-06
2.40538e-06
2.45018e-06
2.53015e-06
2.64514e-06
2.78669e-06
2.93385e-06
3.0494e-06
3.076e-06
2.93487e-06
2.54716e-06
1.90459e-06
1.13429e-06
4.46857e-07
-2.118e-09
-2.16097e-07
-3.93754e-06
2.32361e-06
-6.44338e-07
-1.32916e-07
-5.04892e-07
-1.72723e-05
-0.237244
-0.235407
-0.0465387
-0.000544681
0.0207843
0.0344693
0.0437684
0.0493013
0.0513778
0.050541
0.047508
0.0430745
0.0379041
0.0325177
0.0273029
0.0225366
0.0183333
0.0145564
0.0109667
0.00764576
0.00498261
0.00314508
0.00197162
0.00123082
0.000756692
0.000446957
0.00024036
9.99948e-05
3.21565e-06
-6.42043e-05
-0.000111421
-0.000144466
-0.000167399
-0.000183008
-0.000193244
-0.000199493
-0.000202756
-0.000203764
-0.000203058
-0.000201045
-0.00019803
-0.000194247
-0.000189875
-0.000185053
-0.000179891
-0.000174475
-0.000168873
-0.000163144
-0.000157333
-0.00015148
-0.000145621
-0.000139783
-0.000133994
-0.000128275
-0.000122589
-0.000116899
-0.000111224
-0.000105582
-9.99862e-05
-9.44498e-05
-8.89816e-05
-8.35888e-05
-7.82777e-05
-7.30551e-05
-6.79299e-05
-6.29146e-05
-5.80268e-05
-5.32882e-05
-4.87243e-05
-4.43608e-05
-4.02216e-05
-3.63252e-05
-3.26836e-05
-2.93013e-05
-2.61762e-05
-2.33001e-05
-2.06601e-05
-1.82414e-05
-1.60296e-05
-1.40115e-05
-1.21733e-05
-1.05098e-05
-9.03005e-06
-7.74434e-06
-6.70918e-06
-6.03073e-06
-5.44672e-06
-4.53854e-06
-2.77927e-06
-2.04974e-06
-1.76044e-06
-1.4251e-06
-1.13258e-06
-8.82454e-07
-6.72619e-07
-5.00371e-07
-3.61969e-07
-2.51516e-07
-1.75774e-07
-1.04672e-07
-7.79071e-08
-3.14585e-08
-3.12651e-08
-3.43051e-09
-8.48784e-09
2.12374e-09
2.92448e-19
7.97306e-30
1.70208e-40
3.11292e-51
4.93709e-62
-2.03993e-68
-1.07434e-68
-5.26703e-69
-2.6606e-69
-1.31584e-69
-6.44228e-70
-3.1035e-70
-1.47038e-70
-6.84799e-71
-3.13345e-71
-1.4079e-71
-6.20818e-72
-2.68493e-72
-1.13816e-72
-4.72586e-73
-1.92068e-73
-7.63479e-74
-2.96591e-74
-1.12504e-74
-4.16321e-75
-1.50115e-75
-5.26987e-76
-1.79938e-76
-5.96885e-77
-1.92115e-77
-5.99173e-78
-1.80817e-78
-5.27163e-79
-1.48229e-79
-4.0124e-80
-1.04348e-80
-2.60143e-81
-6.20197e-82
-1.41016e-82
-3.04873e-83
-6.24628e-84
-1.20816e-84
-2.1966e-85
-3.73548e-86
-5.90763e-87
-8.63025e-88
-1.1553e-88
-1.40349e-89
-1.52889e-90
-1.47102e-91
-1.22561e-92
-8.60776e-94
-4.9021e-95
-2.13001e-96
-6.32722e-98
-9.90033e-100
-1.0403e-102
-1.17266e-109
-6.9131e-112
-2.01532e-114
-8.58681e-125
-1.87397e-135
-3.09772e-146
-3.72473e-157
-3.93859e-168
-3.19518e-179
-2.23988e-190
-3.56587e-201
-1.46208e-211
-7.79681e-220
-4.06154e-230
-2.68123e-238
-1.65627e-248
-9.23265e-257
-7.00577e-267
-3.1849e-275
-4.52198e-285
-1.13229e-293
-3.01392e-303
-4.20823e-312
4.44659e-323
0
0
0
0
0
0
0
0
0
0
0
0
0
0
0
0
0
0
0
0
0
0
0
0
0
0
)
;

boundaryField
{
    inandouthalf11
    {
        type            cyclic;
    }
    inandouthalf12
    {
        type            cyclic;
    }
    inandouthalf21
    {
        type            cyclic;
    }
    inandouthalf22
    {
        type            cyclic;
    }
    inandouthalf31
    {
        type            cyclic;
    }
    inandouthalf32
    {
        type            cyclic;
    }
    inandouthalf41
    {
        type            cyclic;
    }
    inandouthalf42
    {
        type            cyclic;
    }
    top
    {
        type            symmetryPlane;
    }
    walls
    {
        type            calculated;
        value           uniform 3.56463e-06;
    }
    frontAndBackPlanes
    {
        type            empty;
    }
}


// ************************************************************************* //
