/*--------------------------------*- C++ -*----------------------------------*\
| =========                 |                                                 |
| \\      /  F ield         | OpenFOAM: The Open Source CFD Toolbox           |
|  \\    /   O peration     | Version:  2.4.x                                 |
|   \\  /    A nd           | Web:      www.OpenFOAM.org                      |
|    \\/     M anipulation  |                                                 |
\*---------------------------------------------------------------------------*/
FoamFile
{
    version     2.0;
    format      ascii;
    class       volScalarField;
    location    "11.5";
    object      k;
}
// * * * * * * * * * * * * * * * * * * * * * * * * * * * * * * * * * * * * * //

dimensions      [0 2 -2 0 0 0 0];

internalField   nonuniform List<scalar> 
360
(
1e-20
1e-20
1e-20
1e-20
1e-20
1e-20
1e-20
1e-20
1e-20
1e-20
1e-20
1e-20
1e-20
1e-20
1e-20
1e-20
1e-20
1e-20
1e-20
1e-20
1e-20
1e-20
1e-20
1e-20
1e-20
1e-20
1e-20
1e-20
1e-20
1e-20
1e-20
1e-20
1e-20
1e-20
1e-20
1e-20
1e-20
1e-20
1e-20
1e-20
1e-20
1e-20
1e-20
1e-20
1e-20
1e-20
1e-20
1e-20
1e-20
1e-20
1e-20
1e-20
1e-20
1e-20
1e-20
1e-20
1e-20
1e-20
1e-20
1e-20
1e-20
1e-20
1e-20
1e-20
1e-20
1e-20
1e-20
1e-20
1e-20
1e-20
1e-20
1e-20
1e-20
1e-20
1e-20
1e-20
1e-20
1e-20
1e-20
1e-20
1e-20
1e-20
1e-20
1e-20
1e-20
1e-20
1e-20
1e-20
1e-20
1e-20
1e-20
1e-20
1e-20
1e-20
1e-20
1e-20
1e-20
1e-20
1e-20
1e-20
1e-20
1e-20
1e-20
1e-20
1e-20
1e-20
1e-20
1e-20
1e-20
1e-20
1e-20
1e-20
1e-20
1e-20
1e-20
1e-20
1e-20
1e-20
1e-20
1e-20
1e-20
1e-20
1e-20
1e-20
1e-20
1e-20
1e-20
1e-20
1e-20
1e-20
1e-20
1e-20
1e-20
1e-20
1.00241e-20
5.31699e-20
5.43002e-19
6.09434e-18
7.41693e-17
9.93225e-16
1.48718e-14
2.53335e-13
5.06553e-12
1.15917e-10
3.12491e-09
1.02226e-07
4.04332e-06
0.000160967
0.00248456
0.00607351
0.00753094
0.0081904
0.00843666
0.00843624
0.00827741
0.00801258
0.0076748
0.00728643
0.00686401
0.00642101
0.00596944
0.00552067
0.00508579
0.0046755
0.00429955
0.00396578
0.00367922
0.00344141
0.00325068
0.00310279
0.00299204
0.00291224
0.00285752
0.00282269
0.00280347
0.00279641
0.00279881
0.00280856
0.00282405
0.00284401
0.00286745
0.00289361
0.00292186
0.00295172
0.00298278
0.00301471
0.00304724
0.00308013
0.00311318
0.00314622
0.00317911
0.00321171
0.0032439
0.00327559
0.00330668
0.00333708
0.00336672
0.00339554
0.00342347
0.00345045
0.00347643
0.00350163
0.0035262
0.00355003
0.00357303
0.00359507
0.00361605
0.00363584
0.00365432
0.00367136
0.00368682
0.00370056
0.00371245
0.00372233
0.00373006
0.00373548
0.00373844
0.00373876
0.0037363
0.00373089
0.00372235
0.00371052
0.00369524
0.00367633
0.00365363
0.00362698
0.00359621
0.00356117
0.00352172
0.0034777
0.003429
0.00337548
0.00331705
0.00325362
0.00318512
0.00311151
0.00303276
0.0029489
0.00285998
0.00276609
0.00266737
0.00256402
0.00245631
0.00234455
0.00222917
0.00211065
0.00198957
0.00186662
0.0017426
0.00161839
0.00149499
0.00137348
0.00125501
0.00114075
0.00103187
0.000929434
0.000834335
0.000747234
0.000668477
0.000598062
0.00053564
0.000480561
0.000431953
0.000388817
0.000350114
0.00031485
0.000282123
0.000251161
0.000221343
0.000192211
0.000163473
0.000135012
0.000106894
7.93973e-05
5.30748e-05
2.89476e-05
8.95381e-06
7.24359e-07
1.28868e-08
1.5742e-10
1.79492e-12
1.92506e-14
1.94411e-16
1.85521e-18
2.39284e-20
1e-20
1e-20
1e-20
1e-20
1e-20
1e-20
1e-20
1e-20
1e-20
1e-20
1e-20
1e-20
1e-20
1e-20
1e-20
1e-20
1e-20
1e-20
1e-20
1e-20
1e-20
1e-20
1e-20
1e-20
1e-20
1e-20
1e-20
1e-20
1e-20
1e-20
1e-20
1e-20
1e-20
1e-20
1e-20
1e-20
1e-20
1e-20
1e-20
1e-20
1e-20
1e-20
1e-20
1e-20
1e-20
1e-20
1e-20
1e-20
1e-20
1e-20
1e-20
1e-20
1e-20
1e-20
1e-20
1e-20
1e-20
1e-20
1e-20
1e-20
1e-20
1e-20
1e-20
1e-20
1e-20
1e-20
1e-20
1e-20
1e-20
1e-20
1e-20
1e-20
1e-20
1e-20
1e-20
)
;

boundaryField
{
    inandouthalf11
    {
        type            cyclic;
    }
    inandouthalf12
    {
        type            cyclic;
    }
    inandouthalf21
    {
        type            cyclic;
    }
    inandouthalf22
    {
        type            cyclic;
    }
    inandouthalf31
    {
        type            cyclic;
    }
    inandouthalf32
    {
        type            cyclic;
    }
    inandouthalf41
    {
        type            cyclic;
    }
    inandouthalf42
    {
        type            cyclic;
    }
    top
    {
        type            symmetryPlane;
    }
    walls
    {
        type            zeroGradient;
    }
    frontAndBackPlanes
    {
        type            empty;
    }
}


// ************************************************************************* //
