/*--------------------------------*- C++ -*----------------------------------*\
| =========                 |                                                 |
| \\      /  F ield         | OpenFOAM: The Open Source CFD Toolbox           |
|  \\    /   O peration     | Version:  2.4.x                                 |
|   \\  /    A nd           | Web:      www.OpenFOAM.org                      |
|    \\/     M anipulation  |                                                 |
\*---------------------------------------------------------------------------*/
FoamFile
{
    version     2.0;
    format      ascii;
    class       volScalarField;
    location    "11.5";
    object      nutb;
}
// * * * * * * * * * * * * * * * * * * * * * * * * * * * * * * * * * * * * * //

dimensions      [0 2 -1 0 0 0 0];

internalField   nonuniform List<scalar> 
360
(
9e-22
9e-22
9e-22
9e-22
9e-22
9e-22
9e-22
9e-22
9e-22
9e-22
9e-22
9e-22
9e-22
9e-22
9e-22
9e-22
9e-22
9e-22
9e-22
9e-22
9e-22
9e-22
9e-22
9e-22
9e-22
9e-22
9e-22
9e-22
9e-22
9e-22
9e-22
9e-22
9e-22
9e-22
9e-22
9e-22
9e-22
9e-22
9e-22
9e-22
9e-22
9e-22
9e-22
9e-22
9e-22
9e-22
9e-22
9e-22
9e-22
9e-22
9e-22
9e-22
9e-22
9e-22
9e-22
9e-22
9e-22
9e-22
9e-22
9e-22
9e-22
9e-22
9e-22
9e-22
9e-22
9e-22
9e-22
9e-22
9e-22
9e-22
9e-22
9e-22
9e-22
9e-22
9e-22
9e-22
9e-22
9e-22
9e-22
9e-22
9e-22
9e-22
9e-22
9e-22
9e-22
9e-22
9e-22
9e-22
9e-22
9e-22
9e-22
9e-22
9e-22
9e-22
9e-22
9e-22
9e-22
9e-22
9e-22
9e-22
9e-22
9e-22
9e-22
9e-22
9e-22
9e-22
9e-22
9e-22
9e-22
9e-22
9e-22
9e-22
9e-22
9e-22
9e-22
9e-22
9e-22
9e-22
9e-22
9e-22
9e-22
9e-22
9e-22
9e-22
9e-22
9e-22
9e-22
9e-22
9e-22
9e-22
9e-22
9e-22
9e-22
9e-22
4.76986e-22
1.69244e-21
1.49407e-20
1.44795e-19
1.50367e-18
1.69778e-17
2.11814e-16
2.97334e-15
4.92051e-14
9.1661e-13
1.97863e-11
5.16582e-10
1.61922e-08
4.92271e-07
5.80561e-06
1.42627e-05
2.06908e-05
2.58662e-05
3.01818e-05
3.38472e-05
3.69868e-05
3.96834e-05
4.19929e-05
4.39589e-05
4.5626e-05
4.70504e-05
4.83068e-05
4.94945e-05
5.07404e-05
5.21991e-05
5.40481e-05
5.64741e-05
5.96506e-05
6.37138e-05
6.87421e-05
7.47459e-05
8.16665e-05
8.93887e-05
9.77591e-05
0.000106608
0.000115767
0.000125082
0.000134421
0.000143674
0.000152755
0.0001616
0.000170163
0.000178413
0.00018633
0.000193906
0.000201139
0.000208033
0.000214596
0.000220837
0.000226768
0.000232403
0.000237755
0.000242838
0.000247665
0.000252248
0.0002566
0.000260733
0.000264656
0.000268381
0.000271917
0.000275272
0.000278455
0.000281503
0.000284445
0.000287281
0.000290008
0.000292622
0.000295122
0.000297504
0.000299764
0.000301899
0.000303904
0.000305774
0.000307505
0.000309091
0.000310527
0.000311806
0.000312921
0.000313865
0.000314632
0.000315213
0.0003156
0.000315786
0.00031576
0.000315515
0.00031504
0.000314327
0.000313365
0.000312146
0.000310658
0.000308892
0.000306839
0.000304488
0.000301829
0.000298855
0.000295557
0.000291926
0.000287956
0.00028364
0.000278975
0.000273957
0.000268586
0.000262865
0.0002568
0.000250399
0.000243677
0.000236653
0.000229353
0.00022181
0.000214064
0.000206166
0.000198175
0.00019016
0.000182199
0.000174374
0.00016677
0.000159465
0.000152521
0.000145976
0.000139827
0.000134032
0.000128501
0.000123117
0.000117742
0.000112251
0.000106536
0.000100522
9.41632e-05
8.74345e-05
8.03212e-05
7.28109e-05
6.48882e-05
5.65334e-05
4.77226e-05
3.84302e-05
2.86333e-05
1.83298e-05
7.23078e-06
7.32088e-07
1.38237e-08
1.68261e-10
1.9093e-12
2.03825e-14
2.04857e-16
1.86268e-18
5.02508e-21
9e-22
9e-22
9e-22
9e-22
9e-22
9e-22
9e-22
9e-22
9e-22
9e-22
9e-22
9e-22
9e-22
9e-22
9e-22
9e-22
9e-22
9e-22
9e-22
9e-22
9e-22
9e-22
9e-22
9e-22
9e-22
9e-22
9e-22
9e-22
9e-22
9e-22
9e-22
9e-22
9e-22
9e-22
9e-22
9e-22
9e-22
9e-22
9e-22
9e-22
9e-22
9e-22
9e-22
9e-22
9e-22
9e-22
9e-22
9e-22
9e-22
9e-22
9e-22
9e-22
9e-22
9e-22
9e-22
9e-22
9e-22
9e-22
9e-22
9e-22
9e-22
9e-22
9e-22
9e-22
9e-22
9e-22
9e-22
9e-22
9e-22
9e-22
9e-22
9e-22
9e-22
9e-22
9e-22
)
;

boundaryField
{
    inandouthalf11
    {
        type            cyclic;
    }
    inandouthalf12
    {
        type            cyclic;
    }
    inandouthalf21
    {
        type            cyclic;
    }
    inandouthalf22
    {
        type            cyclic;
    }
    inandouthalf31
    {
        type            cyclic;
    }
    inandouthalf32
    {
        type            cyclic;
    }
    inandouthalf41
    {
        type            cyclic;
    }
    inandouthalf42
    {
        type            cyclic;
    }
    top
    {
        type            symmetryPlane;
    }
    walls
    {
        type            calculated;
        value           uniform 0;
    }
    frontAndBackPlanes
    {
        type            empty;
    }
}


// ************************************************************************* //
