/*--------------------------------*- C++ -*----------------------------------*\
| =========                 |                                                 |
| \\      /  F ield         | OpenFOAM: The Open Source CFD Toolbox           |
|  \\    /   O peration     | Version:  2.4.x                                 |
|   \\  /    A nd           | Web:      www.OpenFOAM.org                      |
|    \\/     M anipulation  |                                                 |
\*---------------------------------------------------------------------------*/
FoamFile
{
    version     2.0;
    format      ascii;
    class       surfaceScalarField;
    location    "11.5";
    object      phia;
}
// * * * * * * * * * * * * * * * * * * * * * * * * * * * * * * * * * * * * * //

dimensions      [0 3 -1 0 0 0 0];

internalField   nonuniform List<scalar> 
359
(
-1.16371e-14
-2.91166e-14
-4.56962e-14
-6.20957e-14
-7.93224e-14
-9.72367e-14
-1.15538e-13
-1.34114e-13
-1.52931e-13
-1.71962e-13
-1.91155e-13
-2.10438e-13
-2.29738e-13
-2.48987e-13
-2.68122e-13
-2.87092e-13
-3.05846e-13
-3.24344e-13
-3.42549e-13
-3.60436e-13
-3.77979e-13
-3.9517e-13
-4.12e-13
-4.28466e-13
-4.44573e-13
-4.60325e-13
-4.75732e-13
-4.9081e-13
-5.05572e-13
-5.20034e-13
-5.34214e-13
-5.48134e-13
-5.61805e-13
-5.75256e-13
-5.88498e-13
-6.01553e-13
-6.14437e-13
-6.27169e-13
-6.39767e-13
-6.52241e-13
-6.64614e-13
-6.76894e-13
-6.89093e-13
-7.0123e-13
-7.13311e-13
-7.25348e-13
-7.37352e-13
-7.49324e-13
-7.61279e-13
-7.73226e-13
-7.85164e-13
-7.97103e-13
-8.09046e-13
-8.21e-13
-8.32962e-13
-8.44944e-13
-8.5694e-13
-8.68956e-13
-8.80991e-13
-8.93041e-13
-9.05116e-13
-9.17209e-13
-9.29325e-13
-9.41461e-13
-9.53614e-13
-9.65783e-13
-9.77968e-13
-9.90165e-13
-1.00237e-12
-1.01458e-12
-1.02679e-12
-1.03901e-12
-1.05123e-12
-1.06344e-12
-1.07564e-12
-1.08784e-12
-1.10003e-12
-1.11219e-12
-1.12433e-12
-1.13645e-12
-1.14853e-12
-1.16058e-12
-1.17259e-12
-1.18456e-12
-1.19648e-12
-1.20836e-12
-1.22019e-12
-1.23197e-12
-1.24368e-12
-1.25532e-12
-1.26689e-12
-1.27839e-12
-1.28981e-12
-1.30114e-12
-1.31239e-12
-1.32356e-12
-1.33464e-12
-1.34562e-12
-1.3565e-12
-1.36729e-12
-1.37797e-12
-1.38855e-12
-1.39902e-12
-1.4094e-12
-1.41967e-12
-1.42984e-12
-1.43991e-12
-1.4499e-12
-1.4598e-12
-1.46961e-12
-1.47935e-12
-1.48902e-12
-1.49861e-12
-1.50813e-12
-1.51757e-12
-1.52693e-12
-1.53619e-12
-1.54535e-12
-1.55439e-12
-1.56331e-12
-1.57208e-12
-1.58071e-12
-1.5892e-12
-1.59758e-12
-1.60589e-12
-1.61417e-12
-1.62253e-12
-1.63105e-12
-1.63986e-12
-1.64906e-12
-1.65876e-12
-1.66898e-12
-1.6796e-12
-1.69035e-12
-1.70069e-12
-1.70978e-12
-1.71679e-12
-1.72133e-12
-1.72368e-12
-1.72463e-12
-1.72501e-12
-1.72496e-12
-1.72625e-12
-1.72686e-12
-1.72728e-12
-1.72798e-12
-1.72184e-12
8.10643e-10
3.32893e-09
4.97538e-09
6.13922e-09
7.21026e-09
8.28854e-09
9.40647e-09
1.05662e-08
1.17526e-08
1.29369e-08
1.40784e-08
1.51223e-08
1.59983e-08
1.66167e-08
1.68621e-08
1.65773e-08
1.55478e-08
1.35377e-08
1.04556e-08
6.52035e-09
2.14788e-09
-2.30092e-09
-6.60672e-09
-1.06551e-08
-1.43973e-08
-1.78221e-08
-2.09379e-08
-2.37618e-08
-2.63143e-08
-2.86164e-08
-3.06885e-08
-3.25494e-08
-3.42164e-08
-3.57051e-08
-3.70298e-08
-3.82034e-08
-3.92379e-08
-4.01439e-08
-4.09315e-08
-4.16099e-08
-4.21876e-08
-4.26726e-08
-4.30723e-08
-4.33937e-08
-4.36434e-08
-4.38275e-08
-4.39517e-08
-4.40216e-08
-4.40421e-08
-4.40179e-08
-4.39535e-08
-4.3853e-08
-4.372e-08
-4.35582e-08
-4.33666e-08
-4.31469e-08
-4.29007e-08
-4.26298e-08
-4.23356e-08
-4.20199e-08
-4.1684e-08
-4.13294e-08
-4.09573e-08
-4.05684e-08
-4.01635e-08
-3.97425e-08
-3.93052e-08
-3.88509e-08
-3.83784e-08
-3.78865e-08
-3.7374e-08
-3.68398e-08
-3.62834e-08
-3.57048e-08
-3.51045e-08
-3.44832e-08
-3.38423e-08
-3.3183e-08
-3.25066e-08
-3.18142e-08
-3.11063e-08
-3.03833e-08
-2.96446e-08
-2.88914e-08
-2.81283e-08
-2.73661e-08
-2.66636e-08
-2.61122e-08
-2.58345e-08
-2.42628e-08
-2.23874e-08
-2.0837e-08
-1.92054e-08
-1.75083e-08
-1.57636e-08
-1.39906e-08
-1.22142e-08
-1.04995e-08
-8.68307e-09
-7.29758e-09
-5.23344e-09
-4.52751e-09
-1.90023e-09
-2.07374e-09
1.51939e-09
-7.20499e-08
-1.49919e-07
-1.58533e-07
-1.58435e-07
-1.58412e-07
-1.58383e-07
-1.58355e-07
-1.58329e-07
-1.58308e-07
-1.58289e-07
-1.58272e-07
-1.58259e-07
-1.58249e-07
-1.58242e-07
-1.58237e-07
-1.58233e-07
-1.5823e-07
-1.58228e-07
-1.58226e-07
-1.58224e-07
-1.58221e-07
-1.58216e-07
-1.58209e-07
-1.58197e-07
-1.58167e-07
-1.58151e-07
-1.58151e-07
-1.58151e-07
-1.58151e-07
-1.58151e-07
-1.58151e-07
-1.58151e-07
-1.58151e-07
-1.58151e-07
-1.58151e-07
-1.58151e-07
-1.58151e-07
-1.58151e-07
-1.58151e-07
-1.58151e-07
-1.58151e-07
-1.58151e-07
-1.58151e-07
-1.58151e-07
-1.58151e-07
-1.58151e-07
-1.58151e-07
-1.58151e-07
-1.58151e-07
-1.58151e-07
-1.58151e-07
-1.58151e-07
-1.58151e-07
-1.58151e-07
-1.58151e-07
-1.58151e-07
-1.58151e-07
-1.58151e-07
-1.58151e-07
-1.58151e-07
-1.58151e-07
-1.58151e-07
-1.58151e-07
-1.58151e-07
-1.58151e-07
-1.58151e-07
-1.58151e-07
-1.58151e-07
-1.58151e-07
-1.58151e-07
-1.58151e-07
-1.58151e-07
-1.58151e-07
-1.58151e-07
-1.58151e-07
-1.58151e-07
-1.58151e-07
-1.58151e-07
-1.58151e-07
-1.58151e-07
-1.58151e-07
-1.58151e-07
-1.58151e-07
-1.58151e-07
-1.58151e-07
-1.58151e-07
-1.58151e-07
-1.58151e-07
-1.58151e-07
-1.58151e-07
-1.58151e-07
-1.58151e-07
-1.58151e-07
-1.58151e-07
-1.58151e-07
-1.58151e-07
-1.58151e-07
-1.58151e-07
-1.58151e-07
-1.58151e-07
-1.58151e-07
-1.58151e-07
-1.58151e-07
-1.58151e-07
-1.58133e-07
-1.57427e-07
-1.32529e-07
)
;

boundaryField
{
    inandouthalf11
    {
        type            cyclic;
        value           nonuniform List<scalar> 
100
(
2.11368e-38
1.59573e-15
3.35265e-15
4.97416e-15
6.66732e-15
8.46673e-15
1.03258e-14
1.22208e-14
1.41474e-14
1.61035e-14
1.80845e-14
2.00841e-14
2.20947e-14
2.41088e-14
2.61195e-14
2.81207e-14
3.0107e-14
3.20735e-14
3.40157e-14
3.59304e-14
3.78147e-14
3.96665e-14
4.14847e-14
4.32685e-14
4.50178e-14
4.67329e-14
4.84144e-14
5.00634e-14
5.16814e-14
5.32699e-14
5.48304e-14
5.63649e-14
5.78753e-14
5.93635e-14
6.08315e-14
6.22812e-14
6.37145e-14
6.51332e-14
6.65394e-14
6.79344e-14
6.93201e-14
7.06981e-14
7.20697e-14
7.34363e-14
7.47993e-14
7.61599e-14
7.75192e-14
7.88779e-14
8.0237e-14
8.15976e-14
8.29605e-14
8.4326e-14
8.56949e-14
8.70678e-14
8.84449e-14
8.98268e-14
9.12138e-14
9.2606e-14
9.40037e-14
9.54067e-14
9.68152e-14
9.82296e-14
9.96497e-14
1.01076e-13
1.02507e-13
1.03944e-13
1.05387e-13
1.06834e-13
1.08287e-13
1.09743e-13
1.11204e-13
1.12669e-13
1.14138e-13
1.15611e-13
1.17087e-13
1.18566e-13
1.20047e-13
1.21531e-13
1.23016e-13
1.24502e-13
1.25989e-13
1.27476e-13
1.28964e-13
1.30451e-13
1.31937e-13
1.33423e-13
1.34907e-13
1.3639e-13
1.3787e-13
1.39347e-13
1.4082e-13
1.42289e-13
1.43755e-13
1.45215e-13
1.46671e-13
1.48122e-13
1.49567e-13
1.51007e-13
1.5244e-13
1.53868e-13
)
;
    }
    inandouthalf12
    {
        type            cyclic;
        value           nonuniform List<scalar> 
100
(
-2.11368e-38
-1.59573e-15
-3.35265e-15
-4.97416e-15
-6.66732e-15
-8.46673e-15
-1.03258e-14
-1.22208e-14
-1.41474e-14
-1.61035e-14
-1.80845e-14
-2.00841e-14
-2.20947e-14
-2.41088e-14
-2.61195e-14
-2.81207e-14
-3.0107e-14
-3.20735e-14
-3.40157e-14
-3.59304e-14
-3.78147e-14
-3.96665e-14
-4.14847e-14
-4.32685e-14
-4.50178e-14
-4.67329e-14
-4.84144e-14
-5.00634e-14
-5.16814e-14
-5.32699e-14
-5.48304e-14
-5.63649e-14
-5.78753e-14
-5.93635e-14
-6.08315e-14
-6.22812e-14
-6.37145e-14
-6.51332e-14
-6.65394e-14
-6.79344e-14
-6.93201e-14
-7.06981e-14
-7.20697e-14
-7.34363e-14
-7.47993e-14
-7.61599e-14
-7.75192e-14
-7.88779e-14
-8.0237e-14
-8.15976e-14
-8.29605e-14
-8.4326e-14
-8.56949e-14
-8.70678e-14
-8.84449e-14
-8.98268e-14
-9.12138e-14
-9.2606e-14
-9.40037e-14
-9.54067e-14
-9.68152e-14
-9.82296e-14
-9.96497e-14
-1.01076e-13
-1.02507e-13
-1.03944e-13
-1.05387e-13
-1.06834e-13
-1.08287e-13
-1.09743e-13
-1.11204e-13
-1.12669e-13
-1.14138e-13
-1.15611e-13
-1.17087e-13
-1.18566e-13
-1.20047e-13
-1.21531e-13
-1.23016e-13
-1.24502e-13
-1.25989e-13
-1.27476e-13
-1.28964e-13
-1.30451e-13
-1.31937e-13
-1.33423e-13
-1.34907e-13
-1.3639e-13
-1.3787e-13
-1.39347e-13
-1.4082e-13
-1.42289e-13
-1.43755e-13
-1.45215e-13
-1.46671e-13
-1.48122e-13
-1.49567e-13
-1.51007e-13
-1.5244e-13
-1.53868e-13
)
;
    }
    inandouthalf21
    {
        type            cyclic;
        value           nonuniform List<scalar> 
100
(
1.55288e-13
1.56702e-13
1.5811e-13
1.59511e-13
1.60907e-13
1.62296e-13
1.63682e-13
1.65063e-13
1.66441e-13
1.67817e-13
1.69192e-13
1.70567e-13
1.71943e-13
1.7332e-13
1.747e-13
1.76081e-13
1.77463e-13
1.78847e-13
1.80229e-13
1.8161e-13
1.82988e-13
1.84364e-13
1.85738e-13
1.87115e-13
1.885e-13
1.89903e-13
1.9134e-13
1.92829e-13
1.94395e-13
1.96067e-13
1.97874e-13
1.99841e-13
2.01975e-13
2.04255e-13
2.06605e-13
2.08869e-13
2.10824e-13
2.12267e-13
2.13132e-13
2.13538e-13
2.13696e-13
2.1378e-13
2.13881e-13
2.14156e-13
2.14399e-13
2.14675e-13
2.15398e-13
2.2334e-13
7.80182e-08
1.95668e-07
2.8974e-07
3.66287e-07
4.30153e-07
4.84414e-07
5.31089e-07
5.7159e-07
6.06944e-07
6.37913e-07
6.65072e-07
6.88857e-07
7.09606e-07
7.276e-07
7.43089e-07
7.56316e-07
7.67535e-07
7.77014e-07
7.85021e-07
7.91805e-07
7.97574e-07
8.02491e-07
8.06687e-07
8.10267e-07
8.13316e-07
8.15904e-07
8.18092e-07
8.19928e-07
8.21455e-07
8.2271e-07
8.23723e-07
8.24522e-07
8.25132e-07
8.25571e-07
8.25859e-07
8.26013e-07
8.26046e-07
8.25972e-07
8.25802e-07
8.25547e-07
8.25216e-07
8.24819e-07
8.24364e-07
8.23857e-07
8.23306e-07
8.22717e-07
8.22096e-07
8.21448e-07
8.20779e-07
8.20093e-07
8.19394e-07
8.18687e-07
)
;
    }
    inandouthalf22
    {
        type            cyclic;
        value           nonuniform List<scalar> 
100
(
-1.55288e-13
-1.56702e-13
-1.5811e-13
-1.59511e-13
-1.60907e-13
-1.62296e-13
-1.63682e-13
-1.65063e-13
-1.66441e-13
-1.67817e-13
-1.69192e-13
-1.70567e-13
-1.71943e-13
-1.7332e-13
-1.747e-13
-1.76081e-13
-1.77463e-13
-1.78847e-13
-1.80229e-13
-1.8161e-13
-1.82988e-13
-1.84364e-13
-1.85738e-13
-1.87115e-13
-1.885e-13
-1.89903e-13
-1.9134e-13
-1.92829e-13
-1.94395e-13
-1.96067e-13
-1.97874e-13
-1.99841e-13
-2.01975e-13
-2.04255e-13
-2.06605e-13
-2.08869e-13
-2.10824e-13
-2.12267e-13
-2.13132e-13
-2.13538e-13
-2.13696e-13
-2.1378e-13
-2.13881e-13
-2.14156e-13
-2.14399e-13
-2.14675e-13
-2.15398e-13
-2.2334e-13
-7.80182e-08
-1.95668e-07
-2.8974e-07
-3.66287e-07
-4.30153e-07
-4.84414e-07
-5.31089e-07
-5.7159e-07
-6.06944e-07
-6.37913e-07
-6.65072e-07
-6.88857e-07
-7.09606e-07
-7.276e-07
-7.43089e-07
-7.56316e-07
-7.67535e-07
-7.77014e-07
-7.85021e-07
-7.91805e-07
-7.97574e-07
-8.02491e-07
-8.06687e-07
-8.10267e-07
-8.13316e-07
-8.15904e-07
-8.18092e-07
-8.19928e-07
-8.21455e-07
-8.2271e-07
-8.23723e-07
-8.24522e-07
-8.25132e-07
-8.25571e-07
-8.25859e-07
-8.26013e-07
-8.26046e-07
-8.25972e-07
-8.25802e-07
-8.25547e-07
-8.25216e-07
-8.24819e-07
-8.24364e-07
-8.23857e-07
-8.23306e-07
-8.22717e-07
-8.22096e-07
-8.21448e-07
-8.20779e-07
-8.20093e-07
-8.19394e-07
-8.18687e-07
)
;
    }
    inandouthalf31
    {
        type            cyclic;
        value           nonuniform List<scalar> 
110
(
8.17979e-07
8.33848e-07
8.50011e-07
8.66473e-07
8.83244e-07
9.00329e-07
9.17736e-07
9.35474e-07
9.53551e-07
9.71975e-07
9.90755e-07
1.0099e-06
1.02942e-06
1.04933e-06
1.06962e-06
1.09033e-06
1.11144e-06
1.13298e-06
1.15495e-06
1.17737e-06
1.20024e-06
1.22358e-06
1.2474e-06
1.27171e-06
1.29652e-06
1.32184e-06
1.34769e-06
1.37407e-06
1.40102e-06
1.42853e-06
1.45664e-06
1.48536e-06
1.51472e-06
1.54473e-06
1.57543e-06
1.60684e-06
1.63876e-06
1.56933e-06
1.59459e-06
1.62001e-06
1.6458e-06
1.67199e-06
1.6986e-06
1.72565e-06
1.75324e-06
1.78125e-06
1.81001e-06
1.83921e-06
1.86944e-06
1.90009e-06
1.93186e-06
1.96439e-06
1.99766e-06
2.03473e-06
2.07147e-06
2.10841e-06
2.14724e-06
2.18754e-06
2.2294e-06
2.27286e-06
2.31805e-06
2.36484e-06
2.41327e-06
2.46337e-06
2.51508e-06
2.56838e-06
2.62325e-06
2.67964e-06
2.73751e-06
2.79683e-06
2.85754e-06
2.9196e-06
2.98292e-06
3.04743e-06
3.11303e-06
3.17958e-06
3.24665e-06
3.31345e-06
3.38078e-06
3.4494e-06
3.51942e-06
3.59085e-06
3.66374e-06
3.7381e-06
3.81398e-06
3.89139e-06
3.97037e-06
4.05096e-06
4.13319e-06
4.21708e-06
4.30267e-06
4.39001e-06
4.47911e-06
4.57003e-06
4.66279e-06
4.75743e-06
4.85399e-06
4.95251e-06
5.05304e-06
5.1556e-06
5.26025e-06
5.36701e-06
5.47595e-06
5.5871e-06
5.7005e-06
5.81621e-06
5.93426e-06
6.05471e-06
6.1776e-06
6.30299e-06
)
;
    }
    inandouthalf32
    {
        type            cyclic;
        value           nonuniform List<scalar> 
110
(
-8.17979e-07
-8.33848e-07
-8.50011e-07
-8.66473e-07
-8.83244e-07
-9.00329e-07
-9.17736e-07
-9.35474e-07
-9.53551e-07
-9.71975e-07
-9.90755e-07
-1.0099e-06
-1.02942e-06
-1.04933e-06
-1.06962e-06
-1.09033e-06
-1.11144e-06
-1.13298e-06
-1.15495e-06
-1.17737e-06
-1.20024e-06
-1.22358e-06
-1.2474e-06
-1.27171e-06
-1.29652e-06
-1.32184e-06
-1.34769e-06
-1.37407e-06
-1.40102e-06
-1.42853e-06
-1.45664e-06
-1.48536e-06
-1.51472e-06
-1.54473e-06
-1.57543e-06
-1.60684e-06
-1.63876e-06
-1.56933e-06
-1.59459e-06
-1.62001e-06
-1.6458e-06
-1.67199e-06
-1.6986e-06
-1.72565e-06
-1.75324e-06
-1.78125e-06
-1.81001e-06
-1.83921e-06
-1.86944e-06
-1.90009e-06
-1.93186e-06
-1.96439e-06
-1.99766e-06
-2.03473e-06
-2.07147e-06
-2.10841e-06
-2.14724e-06
-2.18754e-06
-2.2294e-06
-2.27286e-06
-2.31805e-06
-2.36484e-06
-2.41327e-06
-2.46337e-06
-2.51508e-06
-2.56838e-06
-2.62325e-06
-2.67964e-06
-2.73751e-06
-2.79683e-06
-2.85754e-06
-2.9196e-06
-2.98292e-06
-3.04743e-06
-3.11303e-06
-3.17958e-06
-3.24665e-06
-3.31345e-06
-3.38078e-06
-3.4494e-06
-3.51942e-06
-3.59085e-06
-3.66374e-06
-3.7381e-06
-3.81398e-06
-3.89139e-06
-3.97037e-06
-4.05096e-06
-4.13319e-06
-4.21708e-06
-4.30267e-06
-4.39001e-06
-4.47911e-06
-4.57003e-06
-4.66279e-06
-4.75743e-06
-4.85399e-06
-4.95251e-06
-5.05304e-06
-5.1556e-06
-5.26025e-06
-5.36701e-06
-5.47595e-06
-5.5871e-06
-5.7005e-06
-5.81621e-06
-5.93426e-06
-6.05471e-06
-6.1776e-06
-6.30299e-06
)
;
    }
    inandouthalf41
    {
        type            cyclic;
        value           nonuniform List<scalar> 
50
(
5.64182e-06
5.64182e-06
5.64182e-06
5.64182e-06
5.64182e-06
5.64182e-06
5.64182e-06
5.64182e-06
5.64182e-06
5.64182e-06
5.64182e-06
5.64182e-06
5.64182e-06
5.64182e-06
5.64182e-06
5.64182e-06
5.64182e-06
5.64182e-06
5.64182e-06
5.64182e-06
5.64182e-06
5.64182e-06
5.64182e-06
5.64182e-06
5.64182e-06
5.64182e-06
5.64182e-06
5.64182e-06
5.64182e-06
5.64182e-06
5.64182e-06
5.64182e-06
5.64182e-06
5.64182e-06
5.64182e-06
5.64182e-06
5.64182e-06
5.64182e-06
5.64182e-06
5.64182e-06
5.64182e-06
5.64182e-06
5.64182e-06
5.64182e-06
5.64182e-06
5.64182e-06
5.64182e-06
5.64182e-06
5.6417e-06
5.63905e-06
)
;
    }
    inandouthalf42
    {
        type            cyclic;
        value           nonuniform List<scalar> 
50
(
-5.64182e-06
-5.64182e-06
-5.64182e-06
-5.64182e-06
-5.64182e-06
-5.64182e-06
-5.64182e-06
-5.64182e-06
-5.64182e-06
-5.64182e-06
-5.64182e-06
-5.64182e-06
-5.64182e-06
-5.64182e-06
-5.64182e-06
-5.64182e-06
-5.64182e-06
-5.64182e-06
-5.64182e-06
-5.64182e-06
-5.64182e-06
-5.64182e-06
-5.64182e-06
-5.64182e-06
-5.64182e-06
-5.64182e-06
-5.64182e-06
-5.64182e-06
-5.64182e-06
-5.64182e-06
-5.64182e-06
-5.64182e-06
-5.64182e-06
-5.64182e-06
-5.64182e-06
-5.64182e-06
-5.64182e-06
-5.64182e-06
-5.64182e-06
-5.64182e-06
-5.64182e-06
-5.64182e-06
-5.64182e-06
-5.64182e-06
-5.64182e-06
-5.64182e-06
-5.64182e-06
-5.64182e-06
-5.6417e-06
-5.63905e-06
)
;
    }
    top
    {
        type            symmetryPlane;
        value           uniform 0;
    }
    walls
    {
        type            fixedValue;
        value           uniform 0;
    }
    frontAndBackPlanes
    {
        type            empty;
        value           nonuniform 0();
    }
}


// ************************************************************************* //
