/*--------------------------------*- C++ -*----------------------------------*\
| =========                 |                                                 |
| \\      /  F ield         | OpenFOAM: The Open Source CFD Toolbox           |
|  \\    /   O peration     | Version:  2.4.x                                 |
|   \\  /    A nd           | Web:      www.OpenFOAM.org                      |
|    \\/     M anipulation  |                                                 |
\*---------------------------------------------------------------------------*/
FoamFile
{
    version     2.0;
    format      ascii;
    class       surfaceScalarField;
    location    "11.5";
    object      phib;
}
// * * * * * * * * * * * * * * * * * * * * * * * * * * * * * * * * * * * * * //

dimensions      [0 3 -1 0 0 0 0];

internalField   nonuniform List<scalar> 
359
(
1.83039e-14
4.58894e-14
7.20196e-14
9.78388e-14
1.24967e-13
1.5318e-13
1.81994e-13
2.11235e-13
2.40851e-13
2.70797e-13
3.00992e-13
3.31322e-13
3.61674e-13
3.91938e-13
4.22017e-13
4.51828e-13
4.81296e-13
5.10352e-13
5.38941e-13
5.67023e-13
5.9456e-13
6.21534e-13
6.47934e-13
6.73757e-13
6.99006e-13
7.23693e-13
7.47831e-13
7.71445e-13
7.94556e-13
8.1719e-13
8.39375e-13
8.61143e-13
8.82516e-13
9.03535e-13
9.24221e-13
9.44607e-13
9.64718e-13
9.84583e-13
1.00423e-12
1.02368e-12
1.04296e-12
1.06209e-12
1.08109e-12
1.09998e-12
1.11878e-12
1.1375e-12
1.15616e-12
1.17477e-12
1.19334e-12
1.21189e-12
1.23042e-12
1.24895e-12
1.26747e-12
1.286e-12
1.30454e-12
1.3231e-12
1.34167e-12
1.36027e-12
1.37888e-12
1.39751e-12
1.41617e-12
1.43485e-12
1.45356e-12
1.47229e-12
1.49103e-12
1.50979e-12
1.52856e-12
1.54734e-12
1.56613e-12
1.58491e-12
1.60368e-12
1.62245e-12
1.64121e-12
1.65994e-12
1.67866e-12
1.69735e-12
1.716e-12
1.73461e-12
1.75317e-12
1.77168e-12
1.79012e-12
1.80849e-12
1.82679e-12
1.84501e-12
1.86315e-12
1.8812e-12
1.89915e-12
1.917e-12
1.93473e-12
1.95235e-12
1.96983e-12
1.98717e-12
2.00438e-12
2.02144e-12
2.03835e-12
2.0551e-12
2.07169e-12
2.08811e-12
2.10436e-12
2.12043e-12
2.13632e-12
2.15202e-12
2.16754e-12
2.18287e-12
2.19801e-12
2.21298e-12
2.22776e-12
2.24238e-12
2.25683e-12
2.27112e-12
2.28526e-12
2.29925e-12
2.31308e-12
2.32677e-12
2.3403e-12
2.35366e-12
2.36684e-12
2.37981e-12
2.39254e-12
2.40503e-12
2.41726e-12
2.42921e-12
2.4409e-12
2.45235e-12
2.46363e-12
2.47481e-12
2.48603e-12
2.49742e-12
2.50917e-12
2.52145e-12
2.53439e-12
2.54801e-12
2.56214e-12
2.57631e-12
2.58967e-12
2.60097e-12
2.60893e-12
2.61286e-12
2.6131e-12
2.61088e-12
2.6073e-12
2.58965e-12
2.57859e-12
2.579e-12
2.5723e-12
2.5645e-12
2.47087e-12
-6.83239e-10
-1.30951e-09
-1.31339e-09
-1.25154e-09
-1.15785e-09
-1.04555e-09
-9.23244e-10
-7.98066e-10
-6.75975e-10
-5.61456e-10
-4.57477e-10
-3.65561e-10
-2.86159e-10
-2.18948e-10
-1.63061e-10
-1.17253e-10
-8.01739e-11
-5.0834e-11
-2.87749e-11
-1.34118e-11
-3.40531e-12
2.90881e-12
6.86642e-12
9.33706e-12
1.08564e-11
1.17543e-11
1.22379e-11
1.244e-11
1.24481e-11
1.23209e-11
1.20991e-11
1.18111e-11
1.1477e-11
1.11117e-11
1.07257e-11
1.03273e-11
9.92222e-12
9.51512e-12
9.1094e-12
8.70768e-12
8.31196e-12
7.92379e-12
7.54434e-12
7.17452e-12
6.81501e-12
6.46631e-12
6.1288e-12
5.80274e-12
5.48829e-12
5.18554e-12
4.89449e-12
4.6151e-12
4.34729e-12
4.0909e-12
3.8409e-12
3.59766e-12
3.36154e-12
3.13284e-12
2.91186e-12
2.69888e-12
2.49416e-12
2.29793e-12
2.11045e-12
1.93192e-12
1.76255e-12
1.6025e-12
1.45188e-12
1.31076e-12
1.1791e-12
1.0568e-12
9.43658e-13
8.39402e-13
7.43693e-13
6.56145e-13
5.76346e-13
5.03872e-13
4.38305e-13
3.79238e-13
3.26278e-13
2.79046e-13
2.37177e-13
2.00295e-13
1.67962e-13
1.39669e-13
1.1466e-13
9.17216e-14
7.05852e-14
5.28192e-14
4.13956e-14
3.2948e-14
2.55459e-14
1.94315e-14
1.44733e-14
1.05312e-14
7.46518e-15
5.13767e-15
3.41954e-15
2.20104e-15
1.3321e-15
8.0368e-16
4.02357e-16
2.36534e-16
7.18836e-17
4.88945e-17
9.84823e-19
1.06253e-16
1.18359e-17
1.1221e-17
1.06446e-17
1.00285e-17
9.44719e-18
8.83329e-18
8.25411e-18
7.66039e-18
7.10817e-18
6.5607e-18
6.07748e-18
5.64484e-18
5.27652e-18
4.93819e-18
4.6312e-18
4.35205e-18
4.09571e-18
3.85027e-18
3.62159e-18
3.42494e-18
3.24235e-18
3.06715e-18
2.89387e-18
2.73194e-18
2.57051e-18
2.41307e-18
2.25857e-18
2.12663e-18
1.99834e-18
1.87464e-18
1.74909e-18
1.6279e-18
1.50465e-18
1.39576e-18
1.26993e-18
1.14992e-18
1.02726e-18
9.03205e-19
7.76221e-19
6.55745e-19
5.31507e-19
4.13772e-19
2.98084e-19
2.86764e-19
2.58985e-19
2.40683e-19
2.3869e-19
2.27852e-19
2.19443e-19
2.10924e-19
2.04774e-19
1.99695e-19
1.98029e-19
1.97165e-19
2.01082e-19
2.01481e-19
2.06928e-19
2.1226e-19
2.21031e-19
2.27799e-19
2.37942e-19
2.47752e-19
2.5999e-19
2.72517e-19
2.85662e-19
3.0008e-19
3.13973e-19
3.44469e-19
3.71954e-19
4.02554e-19
4.25927e-19
4.84119e-19
5.26537e-19
6.00749e-19
6.42876e-19
1.17916e-18
1.65696e-18
2.1636e-18
2.58773e-18
3.11474e-18
3.51855e-18
3.93002e-18
4.20024e-18
4.75126e-18
5.11252e-18
5.47521e-18
5.60051e-18
5.92523e-18
5.98769e-18
6.07304e-18
5.93188e-18
6.41332e-18
6.64715e-18
6.90272e-18
6.86839e-18
7.04302e-18
6.98115e-18
6.93789e-18
6.91277e-18
6.85661e-18
6.97998e-18
7.17158e-18
7.86225e-18
7.88477e-18
9.27162e-18
1.19789e-17
)
;

boundaryField
{
    inandouthalf11
    {
        type            cyclic;
        value           nonuniform List<scalar> 
100
(
1.05518e-10
1.0493e-10
1.04853e-10
1.04934e-10
1.04973e-10
1.04987e-10
1.05003e-10
1.05025e-10
1.05047e-10
1.05069e-10
1.05091e-10
1.05114e-10
1.05136e-10
1.05159e-10
1.05182e-10
1.05205e-10
1.05228e-10
1.05252e-10
1.05276e-10
1.053e-10
1.05324e-10
1.05348e-10
1.05372e-10
1.05397e-10
1.05422e-10
1.05447e-10
1.05472e-10
1.05498e-10
1.05524e-10
1.0555e-10
1.05576e-10
1.05602e-10
1.05629e-10
1.05656e-10
1.05683e-10
1.05711e-10
1.05738e-10
1.05766e-10
1.05795e-10
1.05823e-10
1.05852e-10
1.05882e-10
1.05911e-10
1.05941e-10
1.05971e-10
1.06002e-10
1.06033e-10
1.06064e-10
1.06095e-10
1.06127e-10
1.0616e-10
1.06192e-10
1.06225e-10
1.06259e-10
1.06293e-10
1.06327e-10
1.06362e-10
1.06397e-10
1.06433e-10
1.06469e-10
1.06505e-10
1.06542e-10
1.0658e-10
1.06618e-10
1.06656e-10
1.06695e-10
1.06735e-10
1.06775e-10
1.06816e-10
1.06857e-10
1.06898e-10
1.06941e-10
1.06984e-10
1.07027e-10
1.07072e-10
1.07117e-10
1.07162e-10
1.07208e-10
1.07255e-10
1.07303e-10
1.07351e-10
1.07401e-10
1.07451e-10
1.07501e-10
1.07553e-10
1.07606e-10
1.07659e-10
1.07713e-10
1.07769e-10
1.07825e-10
1.07882e-10
1.07941e-10
1.08e-10
1.0806e-10
1.08122e-10
1.08185e-10
1.08249e-10
1.08314e-10
1.08381e-10
1.08449e-10
)
;
    }
    inandouthalf12
    {
        type            cyclic;
        value           nonuniform List<scalar> 
100
(
-1.05518e-10
-1.0493e-10
-1.04853e-10
-1.04934e-10
-1.04973e-10
-1.04987e-10
-1.05003e-10
-1.05025e-10
-1.05047e-10
-1.05069e-10
-1.05091e-10
-1.05114e-10
-1.05136e-10
-1.05159e-10
-1.05182e-10
-1.05205e-10
-1.05228e-10
-1.05252e-10
-1.05276e-10
-1.053e-10
-1.05324e-10
-1.05348e-10
-1.05372e-10
-1.05397e-10
-1.05422e-10
-1.05447e-10
-1.05472e-10
-1.05498e-10
-1.05524e-10
-1.0555e-10
-1.05576e-10
-1.05602e-10
-1.05629e-10
-1.05656e-10
-1.05683e-10
-1.05711e-10
-1.05738e-10
-1.05766e-10
-1.05795e-10
-1.05823e-10
-1.05852e-10
-1.05882e-10
-1.05911e-10
-1.05941e-10
-1.05971e-10
-1.06002e-10
-1.06033e-10
-1.06064e-10
-1.06095e-10
-1.06127e-10
-1.0616e-10
-1.06192e-10
-1.06225e-10
-1.06259e-10
-1.06293e-10
-1.06327e-10
-1.06362e-10
-1.06397e-10
-1.06433e-10
-1.06469e-10
-1.06505e-10
-1.06542e-10
-1.0658e-10
-1.06618e-10
-1.06656e-10
-1.06695e-10
-1.06735e-10
-1.06775e-10
-1.06816e-10
-1.06857e-10
-1.06898e-10
-1.06941e-10
-1.06984e-10
-1.07027e-10
-1.07072e-10
-1.07117e-10
-1.07162e-10
-1.07208e-10
-1.07255e-10
-1.07303e-10
-1.07351e-10
-1.07401e-10
-1.07451e-10
-1.07501e-10
-1.07553e-10
-1.07606e-10
-1.07659e-10
-1.07713e-10
-1.07769e-10
-1.07825e-10
-1.07882e-10
-1.07941e-10
-1.08e-10
-1.0806e-10
-1.08122e-10
-1.08185e-10
-1.08249e-10
-1.08314e-10
-1.08381e-10
-1.08449e-10
)
;
    }
    inandouthalf21
    {
        type            cyclic;
        value           nonuniform List<scalar> 
100
(
1.08519e-10
1.0859e-10
1.08662e-10
1.08737e-10
1.08812e-10
1.0889e-10
1.08969e-10
1.09051e-10
1.09134e-10
1.09219e-10
1.09307e-10
1.09396e-10
1.09488e-10
1.09583e-10
1.0968e-10
1.0978e-10
1.09882e-10
1.09988e-10
1.10096e-10
1.10208e-10
1.10323e-10
1.10442e-10
1.10565e-10
1.10692e-10
1.10824e-10
1.1096e-10
1.11101e-10
1.11247e-10
1.11399e-10
1.11557e-10
1.11722e-10
1.11894e-10
1.12074e-10
1.12264e-10
1.12467e-10
1.12683e-10
1.12911e-10
1.13155e-10
1.13424e-10
1.13732e-10
1.14064e-10
1.14457e-10
1.17184e-10
1.16778e-10
1.17279e-10
1.18111e-10
1.19506e-10
6.17372e-10
8.77722e-08
2.08309e-07
3.00524e-07
3.75463e-07
4.38304e-07
4.91982e-07
5.38444e-07
5.79076e-07
6.14901e-07
6.46692e-07
6.75032e-07
7.00363e-07
7.23011e-07
7.43218e-07
7.61155e-07
7.7695e-07
7.90705e-07
8.02516e-07
8.125e-07
8.20801e-07
8.27595e-07
8.33079e-07
8.37452e-07
8.40905e-07
8.43604e-07
8.45692e-07
8.47283e-07
8.48472e-07
8.49331e-07
8.49917e-07
8.50276e-07
8.50443e-07
8.50447e-07
8.50309e-07
8.50049e-07
8.4968e-07
8.49215e-07
8.48663e-07
8.48034e-07
8.47335e-07
8.4657e-07
8.45747e-07
8.44869e-07
8.4394e-07
8.42965e-07
8.41946e-07
8.40886e-07
8.39788e-07
8.38655e-07
8.37488e-07
8.3629e-07
8.35062e-07
)
;
    }
    inandouthalf22
    {
        type            cyclic;
        value           nonuniform List<scalar> 
100
(
-1.08519e-10
-1.0859e-10
-1.08662e-10
-1.08737e-10
-1.08812e-10
-1.0889e-10
-1.08969e-10
-1.09051e-10
-1.09134e-10
-1.09219e-10
-1.09307e-10
-1.09396e-10
-1.09488e-10
-1.09583e-10
-1.0968e-10
-1.0978e-10
-1.09882e-10
-1.09988e-10
-1.10096e-10
-1.10208e-10
-1.10323e-10
-1.10442e-10
-1.10565e-10
-1.10692e-10
-1.10824e-10
-1.1096e-10
-1.11101e-10
-1.11247e-10
-1.11399e-10
-1.11557e-10
-1.11722e-10
-1.11894e-10
-1.12074e-10
-1.12264e-10
-1.12467e-10
-1.12683e-10
-1.12911e-10
-1.13155e-10
-1.13424e-10
-1.13732e-10
-1.14064e-10
-1.14457e-10
-1.17184e-10
-1.16778e-10
-1.17279e-10
-1.18111e-10
-1.19506e-10
-6.17372e-10
-8.77722e-08
-2.08309e-07
-3.00524e-07
-3.75463e-07
-4.38304e-07
-4.91982e-07
-5.38444e-07
-5.79076e-07
-6.14901e-07
-6.46692e-07
-6.75032e-07
-7.00363e-07
-7.23011e-07
-7.43218e-07
-7.61155e-07
-7.7695e-07
-7.90705e-07
-8.02516e-07
-8.125e-07
-8.20801e-07
-8.27595e-07
-8.33079e-07
-8.37452e-07
-8.40905e-07
-8.43604e-07
-8.45692e-07
-8.47283e-07
-8.48472e-07
-8.49331e-07
-8.49917e-07
-8.50276e-07
-8.50443e-07
-8.50447e-07
-8.50309e-07
-8.50049e-07
-8.4968e-07
-8.49215e-07
-8.48663e-07
-8.48034e-07
-8.47335e-07
-8.4657e-07
-8.45747e-07
-8.44869e-07
-8.4394e-07
-8.42965e-07
-8.41946e-07
-8.40886e-07
-8.39788e-07
-8.38655e-07
-8.37488e-07
-8.3629e-07
-8.35062e-07
)
;
    }
    inandouthalf31
    {
        type            cyclic;
        value           nonuniform List<scalar> 
110
(
8.3381e-07
8.49414e-07
8.65254e-07
8.81331e-07
8.97647e-07
9.14202e-07
9.30998e-07
9.48036e-07
9.65316e-07
9.82841e-07
1.00061e-06
1.01863e-06
1.03689e-06
1.05539e-06
1.07415e-06
1.09315e-06
1.11241e-06
1.13191e-06
1.15166e-06
1.17166e-06
1.19192e-06
1.21243e-06
1.23319e-06
1.2542e-06
1.27547e-06
1.297e-06
1.31879e-06
1.34083e-06
1.36315e-06
1.38572e-06
1.40857e-06
1.4317e-06
1.4551e-06
1.47879e-06
1.50277e-06
1.52706e-06
1.55166e-06
1.57658e-06
1.60184e-06
1.62746e-06
1.65345e-06
1.67983e-06
1.70665e-06
1.73391e-06
1.76167e-06
1.78995e-06
1.81881e-06
1.8483e-06
1.87848e-06
1.90942e-06
1.94119e-06
1.97388e-06
2.00759e-06
2.0424e-06
2.07843e-06
2.11577e-06
2.15452e-06
2.19477e-06
2.23659e-06
2.28003e-06
2.32514e-06
2.37192e-06
2.42037e-06
2.47048e-06
2.52223e-06
2.57559e-06
2.63052e-06
2.687e-06
2.74498e-06
2.80443e-06
2.86529e-06
2.9275e-06
2.99101e-06
3.05572e-06
3.12154e-06
3.18832e-06
3.25578e-06
3.32298e-06
3.39053e-06
3.45935e-06
3.52956e-06
3.6012e-06
3.6743e-06
3.74888e-06
3.82497e-06
3.9026e-06
3.98182e-06
4.06264e-06
4.1451e-06
4.22923e-06
4.31507e-06
4.40266e-06
4.49202e-06
4.5832e-06
4.67622e-06
4.77114e-06
4.86798e-06
4.96679e-06
5.0676e-06
5.17046e-06
5.2754e-06
5.38248e-06
5.49173e-06
5.6032e-06
5.71693e-06
5.83297e-06
5.95136e-06
6.07216e-06
6.19541e-06
6.32116e-06
)
;
    }
    inandouthalf32
    {
        type            cyclic;
        value           nonuniform List<scalar> 
110
(
-8.3381e-07
-8.49414e-07
-8.65254e-07
-8.81331e-07
-8.97647e-07
-9.14202e-07
-9.30998e-07
-9.48036e-07
-9.65316e-07
-9.82841e-07
-1.00061e-06
-1.01863e-06
-1.03689e-06
-1.05539e-06
-1.07415e-06
-1.09315e-06
-1.11241e-06
-1.13191e-06
-1.15166e-06
-1.17166e-06
-1.19192e-06
-1.21243e-06
-1.23319e-06
-1.2542e-06
-1.27547e-06
-1.297e-06
-1.31879e-06
-1.34083e-06
-1.36315e-06
-1.38572e-06
-1.40857e-06
-1.4317e-06
-1.4551e-06
-1.47879e-06
-1.50277e-06
-1.52706e-06
-1.55166e-06
-1.57658e-06
-1.60184e-06
-1.62746e-06
-1.65345e-06
-1.67983e-06
-1.70665e-06
-1.73391e-06
-1.76167e-06
-1.78995e-06
-1.81881e-06
-1.8483e-06
-1.87848e-06
-1.90942e-06
-1.94119e-06
-1.97388e-06
-2.00759e-06
-2.0424e-06
-2.07843e-06
-2.11577e-06
-2.15452e-06
-2.19477e-06
-2.23659e-06
-2.28003e-06
-2.32514e-06
-2.37192e-06
-2.42037e-06
-2.47048e-06
-2.52223e-06
-2.57559e-06
-2.63052e-06
-2.687e-06
-2.74498e-06
-2.80443e-06
-2.86529e-06
-2.9275e-06
-2.99101e-06
-3.05572e-06
-3.12154e-06
-3.18832e-06
-3.25578e-06
-3.32298e-06
-3.39053e-06
-3.45935e-06
-3.52956e-06
-3.6012e-06
-3.6743e-06
-3.74888e-06
-3.82497e-06
-3.9026e-06
-3.98182e-06
-4.06264e-06
-4.1451e-06
-4.22923e-06
-4.31507e-06
-4.40266e-06
-4.49202e-06
-4.5832e-06
-4.67622e-06
-4.77114e-06
-4.86798e-06
-4.96679e-06
-5.0676e-06
-5.17046e-06
-5.2754e-06
-5.38248e-06
-5.49173e-06
-5.6032e-06
-5.71693e-06
-5.83297e-06
-5.95136e-06
-6.07216e-06
-6.19541e-06
-6.32116e-06
)
;
    }
    inandouthalf41
    {
        type            cyclic;
        value           nonuniform List<scalar> 
50
(
5.65808e-06
5.65808e-06
5.65808e-06
5.65808e-06
5.65808e-06
5.65808e-06
5.65808e-06
5.65808e-06
5.65808e-06
5.65808e-06
5.65808e-06
5.65808e-06
5.65808e-06
5.65808e-06
5.65808e-06
5.65808e-06
5.65808e-06
5.65808e-06
5.65808e-06
5.65808e-06
5.65808e-06
5.65808e-06
5.65808e-06
5.65808e-06
5.65808e-06
5.65808e-06
5.65808e-06
5.65808e-06
5.65808e-06
5.65808e-06
5.65808e-06
5.65808e-06
5.65808e-06
5.65808e-06
5.65808e-06
5.65808e-06
5.65808e-06
5.65808e-06
5.65808e-06
5.65808e-06
5.65808e-06
5.65808e-06
5.65808e-06
5.65808e-06
5.65808e-06
5.65808e-06
5.65808e-06
5.65808e-06
5.65808e-06
5.65808e-06
)
;
    }
    inandouthalf42
    {
        type            cyclic;
        value           nonuniform List<scalar> 
50
(
-5.65808e-06
-5.65808e-06
-5.65808e-06
-5.65808e-06
-5.65808e-06
-5.65808e-06
-5.65808e-06
-5.65808e-06
-5.65808e-06
-5.65808e-06
-5.65808e-06
-5.65808e-06
-5.65808e-06
-5.65808e-06
-5.65808e-06
-5.65808e-06
-5.65808e-06
-5.65808e-06
-5.65808e-06
-5.65808e-06
-5.65808e-06
-5.65808e-06
-5.65808e-06
-5.65808e-06
-5.65808e-06
-5.65808e-06
-5.65808e-06
-5.65808e-06
-5.65808e-06
-5.65808e-06
-5.65808e-06
-5.65808e-06
-5.65808e-06
-5.65808e-06
-5.65808e-06
-5.65808e-06
-5.65808e-06
-5.65808e-06
-5.65808e-06
-5.65808e-06
-5.65808e-06
-5.65808e-06
-5.65808e-06
-5.65808e-06
-5.65808e-06
-5.65808e-06
-5.65808e-06
-5.65808e-06
-5.65808e-06
-5.65808e-06
)
;
    }
    top
    {
        type            symmetryPlane;
        value           uniform 0;
    }
    walls
    {
        type            fixedValue;
        value           uniform 0;
    }
    frontAndBackPlanes
    {
        type            empty;
        value           nonuniform 0();
    }
}


// ************************************************************************* //
