/*--------------------------------*- C++ -*----------------------------------*\
| =========                 |                                                 |
| \\      /  F ield         | OpenFOAM: The Open Source CFD Toolbox           |
|  \\    /   O peration     | Version:  2.4.x                                 |
|   \\  /    A nd           | Web:      www.OpenFOAM.org                      |
|    \\/     M anipulation  |                                                 |
\*---------------------------------------------------------------------------*/
FoamFile
{
    version     2.0;
    format      ascii;
    class       volScalarField;
    location    "11.5";
    object      Theta;
}
// * * * * * * * * * * * * * * * * * * * * * * * * * * * * * * * * * * * * * //

dimensions      [0 2 -2 0 0 0 0];

internalField   nonuniform List<scalar> 
360
(
6.66138e-21
6.66141e-21
6.66141e-21
6.66141e-21
6.66141e-21
6.66141e-21
6.66141e-21
6.66141e-21
6.66141e-21
6.66141e-21
6.66141e-21
6.66141e-21
6.66141e-21
6.6614e-21
6.6614e-21
6.6614e-21
6.6614e-21
6.6614e-21
6.6614e-21
6.6614e-21
6.6614e-21
6.6614e-21
6.6614e-21
6.6614e-21
6.66139e-21
6.66139e-21
6.66139e-21
6.66139e-21
6.66139e-21
6.66139e-21
6.66139e-21
6.66139e-21
6.66139e-21
6.66139e-21
6.66139e-21
6.66138e-21
6.66138e-21
6.66138e-21
6.66138e-21
6.66138e-21
6.66138e-21
6.66138e-21
6.66138e-21
6.66138e-21
6.66138e-21
6.66138e-21
6.66138e-21
6.66137e-21
6.66137e-21
6.66137e-21
6.66137e-21
6.66137e-21
6.66137e-21
6.66137e-21
6.66137e-21
6.66137e-21
6.66137e-21
6.66137e-21
6.66137e-21
6.66137e-21
6.66136e-21
6.66136e-21
6.66136e-21
6.66136e-21
6.66136e-21
6.66136e-21
6.66136e-21
6.66136e-21
6.66136e-21
6.66136e-21
6.66136e-21
6.66135e-21
6.66135e-21
6.66135e-21
6.66135e-21
6.66135e-21
6.66135e-21
6.66135e-21
6.66135e-21
6.66135e-21
6.66134e-21
6.66134e-21
6.66134e-21
6.66134e-21
6.66134e-21
6.66134e-21
6.66134e-21
6.66134e-21
6.66133e-21
6.66133e-21
6.66133e-21
6.66133e-21
6.66133e-21
6.66133e-21
6.66132e-21
6.66132e-21
6.66132e-21
6.66132e-21
6.66132e-21
6.66132e-21
6.66131e-21
6.66131e-21
6.66131e-21
6.66131e-21
6.66131e-21
6.66131e-21
6.6613e-21
6.6613e-21
6.6613e-21
6.6613e-21
6.6613e-21
6.66129e-21
6.66129e-21
6.66129e-21
6.66129e-21
6.66128e-21
6.66128e-21
6.66128e-21
6.66128e-21
6.66127e-21
6.66127e-21
6.66127e-21
6.66126e-21
6.66126e-21
6.66126e-21
6.66125e-21
6.66125e-21
6.66125e-21
6.66124e-21
6.66124e-21
6.66124e-21
6.66123e-21
6.66123e-21
6.66123e-21
6.67121e-21
3.52777e-20
3.60133e-19
4.04064e-18
4.91543e-17
6.57858e-16
9.84273e-15
1.67512e-13
3.34757e-12
7.72481e-11
3.0564e-09
3.46625e-07
1.45564e-05
0.000195777
0.0014313
0.00308199
0.00379803
0.00417825
0.00440377
0.00453954
0.00460954
0.00462349
0.00458739
0.00450648
0.00438854
0.00424248
0.00407816
0.00390545
0.00373304
0.00356777
0.00341411
0.00327416
0.00314809
0.0030351
0.00293409
0.002844
0.00276382
0.00269261
0.00262946
0.00257355
0.00252409
0.00248038
0.00244176
0.00240763
0.00237745
0.00235074
0.00232706
0.00230599
0.00228718
0.0022703
0.00225505
0.00224115
0.00222838
0.0022165
0.00220532
0.00219465
0.00218434
0.00217423
0.0021642
0.00215413
0.00214391
0.00213344
0.00212266
0.00211147
0.00209982
0.00208766
0.00207492
0.00206145
0.00204703
0.00203158
0.00201502
0.00199728
0.00197827
0.00195792
0.00193614
0.00191287
0.00188802
0.00186152
0.0018333
0.00180326
0.00177134
0.00173745
0.00170151
0.00166342
0.00162308
0.00158038
0.0015352
0.00148738
0.00143676
0.00138316
0.00132638
0.00126614
0.00120217
0.00113409
0.00106148
0.000983757
0.000900187
0.000809754
0.000710988
0.000601593
0.000477541
0.000330053
0
0
0
0
0
0
0
0
0
0
0
0
0
0
0
0
0
0
0
0
0
0
0
0
0
0
0
0
0
0
0
0
0
0
0
0
0
0
0
0
0
0
0
0
0
0
0
0
0
0
0
0
0
0
0
0
0
0
0
0
0
0
0
0
0
0
0
0
0
0
0
0
0
0
0
0
0
0
0
0
0
0
0
0
0
0
0
0
0
0
0
0
0
0
0
0
0
0
0
0
0
0
0
0
0
0
0
0
0
0
0
0
0
0
0
0
0
0
0
0
0
0
0
0
)
;

boundaryField
{
    inandouthalf11
    {
        type            cyclic;
    }
    inandouthalf12
    {
        type            cyclic;
    }
    inandouthalf21
    {
        type            cyclic;
    }
    inandouthalf22
    {
        type            cyclic;
    }
    inandouthalf31
    {
        type            cyclic;
    }
    inandouthalf32
    {
        type            cyclic;
    }
    inandouthalf41
    {
        type            cyclic;
    }
    inandouthalf42
    {
        type            cyclic;
    }
    top
    {
        type            symmetryPlane;
    }
    walls
    {
        type            zeroGradient;
    }
    frontAndBackPlanes
    {
        type            empty;
    }
}


// ************************************************************************* //
