/*--------------------------------*- C++ -*----------------------------------*\
| =========                 |                                                 |
| \\      /  F ield         | OpenFOAM: The Open Source CFD Toolbox           |
|  \\    /   O peration     | Version:  2.4.x                                 |
|   \\  /    A nd           | Web:      www.OpenFOAM.org                      |
|    \\/     M anipulation  |                                                 |
\*---------------------------------------------------------------------------*/
FoamFile
{
    version     2.0;
    format      ascii;
    class       volScalarField;
    location    "11.5";
    object      tmf;
}
// * * * * * * * * * * * * * * * * * * * * * * * * * * * * * * * * * * * * * //

dimensions      [0 0 0 0 0 0 0];

internalField   nonuniform List<scalar> 
360
(
0.999206
0.999209
0.99921
0.999209
0.999209
0.999209
0.999209
0.999209
0.999209
0.999209
0.999209
0.999209
0.999209
0.999209
0.999209
0.999208
0.999208
0.999208
0.999208
0.999208
0.999208
0.999208
0.999208
0.999208
0.999208
0.999208
0.999208
0.999207
0.999207
0.999207
0.999207
0.999207
0.999207
0.999207
0.999207
0.999207
0.999207
0.999206
0.999206
0.999206
0.999206
0.999206
0.999206
0.999206
0.999206
0.999206
0.999206
0.999205
0.999205
0.999205
0.999205
0.999205
0.999205
0.999205
0.999205
0.999204
0.999204
0.999204
0.999204
0.999204
0.999204
0.999204
0.999204
0.999203
0.999203
0.999203
0.999203
0.999203
0.999203
0.999203
0.999202
0.999202
0.999202
0.999202
0.999202
0.999202
0.999201
0.999201
0.999201
0.999201
0.999201
0.999201
0.9992
0.9992
0.9992
0.9992
0.9992
0.999199
0.999199
0.999199
0.999199
0.999199
0.999198
0.999198
0.999198
0.999198
0.999198
0.999197
0.999197
0.999197
0.999197
0.999196
0.999196
0.999196
0.999196
0.999195
0.999195
0.999195
0.999194
0.999194
0.999194
0.999193
0.999193
0.999193
0.999192
0.999192
0.999192
0.999191
0.999191
0.99919
0.99919
0.99919
0.999189
0.999189
0.999188
0.999188
0.999187
0.999187
0.999186
0.999186
0.999185
0.999184
0.999184
0.999183
0.998455
0.997687
0.997322
0.996896
0.99636
0.995678
0.994808
0.993692
0.992293
0.990558
0.988197
0.985181
0.981275
0.973994
0.91362
0.869917
0.857326
0.859381
0.862927
0.86762
0.873423
0.880273
0.888001
0.896366
0.905105
0.913967
0.922731
0.931209
0.939246
0.946721
0.953545
0.959659
0.965038
0.969682
0.973621
0.976912
0.979627
0.98185
0.983661
0.985135
0.986337
0.987321
0.988129
0.988797
0.989352
0.989814
0.990202
0.990529
0.990805
0.991039
0.991237
0.991405
0.991548
0.991669
0.991772
0.991858
0.991929
0.991988
0.992036
0.992074
0.992103
0.992124
0.992138
0.992145
0.992145
0.99214
0.992128
0.992112
0.99209
0.992062
0.992029
0.99199
0.991946
0.991897
0.991842
0.991783
0.991721
0.991656
0.991591
0.991529
0.991474
0.991432
0.991412
0.99142
0.991463
0.991543
0.991658
0.991803
0.991969
0.992151
0.992342
0.992538
0.992736
0.992934
0.993131
0.993326
0.993518
0.993708
0.993895
0.994081
0.994264
0.994445
0.99462
0.992113
0.9922
0.992263
0.992339
0.992424
0.992521
0.992622
0.992771
0.992855
0.993122
0.993178
0.993555
0.993672
0.994032
0.994262
0.994534
0.996359
0.996765
0.996951
0.997138
0.997321
0.997498
0.997664
0.997818
0.997956
0.998079
0.998186
0.998279
0.998359
0.998431
0.998495
0.998556
0.998617
0.99868
0.998749
0.998826
0.998917
0.999029
0.999172
0.999351
0.999481
0.999511
0.99951
0.999507
0.999505
0.999503
0.999478
0.997502
0.994191
0.994191
0.994191
0.994191
0.994191
0.994191
0.994191
0.994191
0.994191
0.994191
0.994191
0.994191
0.994191
0.994191
0.994191
0.994191
0.994191
0.994191
0.994191
0.994191
0.994191
0.994191
0.994191
0.994191
0.994191
0.994191
0.994191
0.994191
0.994191
0.994191
0.994191
0.994191
0.994191
0.994191
0.994191
0.994191
0.994191
0.994191
0.994191
0.994191
0.994191
0.994191
0.994191
0.994191
0.994191
0.994191
0.994191
0.994191
0.994191
0.994191
0.994191
0.994191
0.994191
0.994191
0.994191
0.994191
0.994191
0.994191
0.994191
0.994191
0.994191
0.994191
0.994191
0.994191
0.994191
0.994191
0.994191
0.994191
0.994191
0.994191
0.994191
0.994191
0.994191
0.994176
0.993246
)
;

boundaryField
{
    inandouthalf11
    {
        type            cyclic;
    }
    inandouthalf12
    {
        type            cyclic;
    }
    inandouthalf21
    {
        type            cyclic;
    }
    inandouthalf22
    {
        type            cyclic;
    }
    inandouthalf31
    {
        type            cyclic;
    }
    inandouthalf32
    {
        type            cyclic;
    }
    inandouthalf41
    {
        type            cyclic;
    }
    inandouthalf42
    {
        type            cyclic;
    }
    top
    {
        type            symmetryPlane;
    }
    walls
    {
        type            calculated;
        value           uniform 0;
    }
    frontAndBackPlanes
    {
        type            empty;
    }
}


// ************************************************************************* //
