/*--------------------------------*- C++ -*----------------------------------*\
| =========                 |                                                 |
| \\      /  F ield         | OpenFOAM: The Open Source CFD Toolbox           |
|  \\    /   O peration     | Version:  2.4.x                                 |
|   \\  /    A nd           | Web:      www.OpenFOAM.org                      |
|    \\/     M anipulation  |                                                 |
\*---------------------------------------------------------------------------*/
FoamFile
{
    version     2.0;
    format      ascii;
    class       volVectorField;
    location    "11.5";
    object      U;
}
// * * * * * * * * * * * * * * * * * * * * * * * * * * * * * * * * * * * * * //

dimensions      [0 1 -1 0 0 0 0];

internalField   nonuniform List<vector> 
360
(
(-4.10579e-05 8.76324e-10 0)
(-4.0739e-05 -1.65142e-10 0)
(-4.07006e-05 -1.44017e-10 0)
(-4.07426e-05 2.50513e-11 0)
(-4.07631e-05 4.77832e-11 0)
(-4.07709e-05 2.03253e-11 0)
(-4.07804e-05 9.25236e-12 0)
(-4.07922e-05 9.13102e-12 0)
(-4.08042e-05 8.95442e-12 0)
(-4.08164e-05 7.31375e-12 0)
(-4.08287e-05 4.90743e-12 0)
(-4.08411e-05 2.09337e-12 0)
(-4.08535e-05 -6.42499e-13 0)
(-4.0866e-05 -3.12674e-12 0)
(-4.08786e-05 -5.29266e-12 0)
(-4.08913e-05 -7.18535e-12 0)
(-4.09042e-05 -8.88331e-12 0)
(-4.09171e-05 -1.03378e-11 0)
(-4.09301e-05 -1.15245e-11 0)
(-4.09432e-05 -1.23681e-11 0)
(-4.09563e-05 -1.30521e-11 0)
(-4.09696e-05 -1.33594e-11 0)
(-4.09829e-05 -1.34822e-11 0)
(-4.09963e-05 -1.34486e-11 0)
(-4.10098e-05 -1.32376e-11 0)
(-4.10234e-05 -1.28788e-11 0)
(-4.1037e-05 -1.24223e-11 0)
(-4.10508e-05 -1.17887e-11 0)
(-4.10647e-05 -1.11777e-11 0)
(-4.10787e-05 -1.05072e-11 0)
(-4.10927e-05 -9.81299e-12 0)
(-4.1107e-05 -8.94061e-12 0)
(-4.11212e-05 -8.37484e-12 0)
(-4.11357e-05 -7.39718e-12 0)
(-4.11502e-05 -6.82952e-12 0)
(-4.11649e-05 -6.03899e-12 0)
(-4.11796e-05 -5.36974e-12 0)
(-4.11946e-05 -4.67699e-12 0)
(-4.12097e-05 -3.8866e-12 0)
(-4.12248e-05 -3.5773e-12 0)
(-4.12403e-05 -2.74258e-12 0)
(-4.12558e-05 -2.22619e-12 0)
(-4.12714e-05 -1.94491e-12 0)
(-4.12874e-05 -1.16005e-12 0)
(-4.13033e-05 -8.61057e-13 0)
(-4.13195e-05 -4.90542e-13 0)
(-4.13359e-05 -3.32799e-15 0)
(-4.13524e-05 8.1908e-14 0)
(-4.13691e-05 5.17063e-13 0)
(-4.13861e-05 1.07647e-12 0)
(-4.14031e-05 9.11275e-13 0)
(-4.14205e-05 1.33846e-12 0)
(-4.14379e-05 1.43313e-12 0)
(-4.14557e-05 1.77664e-12 0)
(-4.14735e-05 1.6092e-12 0)
(-4.14918e-05 2.14054e-12 0)
(-4.151e-05 1.84575e-12 0)
(-4.15287e-05 2.12847e-12 0)
(-4.15475e-05 2.17244e-12 0)
(-4.15664e-05 1.88499e-12 0)
(-4.15859e-05 2.46464e-12 0)
(-4.16053e-05 2.08762e-12 0)
(-4.16251e-05 2.35787e-12 0)
(-4.16451e-05 2.17195e-12 0)
(-4.16655e-05 2.19677e-12 0)
(-4.1686e-05 2.0533e-12 0)
(-4.17068e-05 2.0817e-12 0)
(-4.1728e-05 1.99656e-12 0)
(-4.17494e-05 1.91172e-12 0)
(-4.1771e-05 1.61013e-12 0)
(-4.1793e-05 1.81474e-12 0)
(-4.18154e-05 1.93322e-12 0)
(-4.18379e-05 1.29001e-12 0)
(-4.18609e-05 1.63174e-12 0)
(-4.18841e-05 1.35688e-12 0)
(-4.19078e-05 1.45055e-12 0)
(-4.19317e-05 1.03873e-12 0)
(-4.1956e-05 9.02119e-13 0)
(-4.19806e-05 8.18622e-13 0)
(-4.20057e-05 7.47308e-13 0)
(-4.20311e-05 4.88037e-13 0)
(-4.20569e-05 4.5206e-13 0)
(-4.20831e-05 4.04963e-13 0)
(-4.21098e-05 2.62929e-13 0)
(-4.21369e-05 1.7261e-13 0)
(-4.21644e-05 -1.18748e-14 0)
(-4.21924e-05 -1.35396e-13 0)
(-4.22208e-05 -3.61256e-13 0)
(-4.22498e-05 -5.72403e-13 0)
(-4.22792e-05 -7.22418e-13 0)
(-4.23091e-05 -8.6923e-13 0)
(-4.23396e-05 -1.02086e-12 0)
(-4.23707e-05 -1.10718e-12 0)
(-4.24023e-05 -1.20464e-12 0)
(-4.24345e-05 -1.3176e-12 0)
(-4.24673e-05 -1.43792e-12 0)
(-4.25008e-05 -1.56789e-12 0)
(-4.25349e-05 -1.70584e-12 0)
(-4.25697e-05 -1.83716e-12 0)
(-4.26052e-05 -1.943e-12 0)
(-4.26414e-05 -2.02291e-12 0)
(-4.26784e-05 -2.06967e-12 0)
(-4.27162e-05 -2.07582e-12 0)
(-4.27548e-05 -2.04748e-12 0)
(-4.27943e-05 -1.98773e-12 0)
(-4.28347e-05 -1.89697e-12 0)
(-4.2876e-05 -1.78066e-12 0)
(-4.29183e-05 -1.64629e-12 0)
(-4.29616e-05 -1.50422e-12 0)
(-4.30059e-05 -1.37083e-12 0)
(-4.30514e-05 -1.26754e-12 0)
(-4.3098e-05 -1.21865e-12 0)
(-4.31458e-05 -1.25036e-12 0)
(-4.31949e-05 -1.38722e-12 0)
(-4.32453e-05 -1.64731e-12 0)
(-4.32971e-05 -2.03729e-12 0)
(-4.33503e-05 -2.54668e-12 0)
(-4.34051e-05 -3.14188e-12 0)
(-4.34615e-05 -3.76246e-12 0)
(-4.35196e-05 -4.3211e-12 0)
(-4.35795e-05 -4.70673e-12 0)
(-4.36413e-05 -4.79049e-12 0)
(-4.37051e-05 -4.4352e-12 0)
(-4.3771e-05 -3.50655e-12 0)
(-4.38392e-05 -1.8866e-12 0)
(-4.39097e-05 5.07255e-13 0)
(-4.39829e-05 3.69171e-12 0)
(-4.40588e-05 7.56302e-12 0)
(-4.41379e-05 1.17994e-11 0)
(-4.42202e-05 1.56877e-11 0)
(-4.4306e-05 1.78842e-11 0)
(-4.43955e-05 1.62169e-11 0)
(-4.44892e-05 7.91589e-12 0)
(-4.45883e-05 -9.47348e-12 0)
(-4.4694e-05 -3.68552e-11 0)
(-4.48065e-05 -7.11145e-11 0)
(-4.49253e-05 -1.00959e-10 0)
(-4.50518e-05 -1.11984e-10 0)
(-4.51917e-05 -9.70663e-11 0)
(-4.5351e-05 -5.05793e-11 0)
(-4.55229e-05 -4.8149e-11 0)
(-4.57265e-05 -1.93974e-09 0)
(-4.71446e-05 2.70479e-09 0)
(-4.69325e-05 -9.75455e-09 0)
(-4.71937e-05 1.15237e-07 0)
(-4.76281e-05 -5.02461e-07 0)
(-4.82855e-05 1.95139e-06 0)
(-0.000258434 -7.59526e-06 0)
(-0.0845231 -4.11995e-05 0)
(-0.205382 -2.69037e-05 0)
(-0.298516 -1.79117e-06 0)
(-0.374064 -2.86197e-06 0)
(-0.437291 -2.77091e-06 0)
(-0.491227 -2.27641e-06 0)
(-0.537864 -1.8129e-06 0)
(-0.578615 -1.443e-06 0)
(-0.614525 -1.12904e-06 0)
(-0.646377 -8.43159e-07 0)
(-0.674763 -5.93217e-07 0)
(-0.700131 -3.7955e-07 0)
(-0.722811 -1.97356e-07 0)
(-0.743045 -4.04976e-08 0)
(-0.761009 8.36704e-08 0)
(-0.776828 1.48763e-07 0)
(-0.790605 1.46428e-07 0)
(-0.802436 1.22619e-07 0)
(-0.812436 1.21642e-07 0)
(-0.82075 1.22935e-07 0)
(-0.827553 1.01907e-07 0)
(-0.833044 7.15806e-08 0)
(-0.837423 4.74992e-08 0)
(-0.84088 3.17215e-08 0)
(-0.843583 2.1839e-08 0)
(-0.845673 1.54886e-08 0)
(-0.847267 1.1253e-08 0)
(-0.848458 8.34267e-09 0)
(-0.849318 6.29357e-09 0)
(-0.849906 4.81769e-09 0)
(-0.850266 3.73212e-09 0)
(-0.850434 2.91929e-09 0)
(-0.850439 2.30044e-09 0)
(-0.850302 1.82281e-09 0)
(-0.850042 1.44982e-09 0)
(-0.849674 1.15561e-09 0)
(-0.849209 9.21426e-10 0)
(-0.848658 7.33637e-10 0)
(-0.848029 5.82079e-10 0)
(-0.84733 4.59157e-10 0)
(-0.846566 3.59021e-10 0)
(-0.845743 2.77216e-10 0)
(-0.844865 2.10231e-10 0)
(-0.843937 1.55335e-10 0)
(-0.842962 1.10338e-10 0)
(-0.841943 7.35048e-11 0)
(-0.840883 4.34187e-11 0)
(-0.839786 1.89322e-11 0)
(-0.838652 -9.05391e-13 0)
(-0.837486 -1.68832e-11 0)
(-0.836288 -2.96378e-11 0)
(-0.835061 -3.96299e-11 0)
(-0.833806 -4.71003e-11 0)
(-0.832512 -5.49163e-11 0)
(-0.831166 -6.30918e-11 0)
(-0.829768 -6.89255e-11 0)
(-0.828317 -7.48452e-11 0)
(-0.826811 -7.89469e-11 0)
(-0.825251 -8.293e-11 0)
(-0.823637 -8.53182e-11 0)
(-0.821966 -8.74152e-11 0)
(-0.82024 -8.80854e-11 0)
(-0.818457 -8.83685e-11 0)
(-0.816617 -8.74935e-11 0)
(-0.81472 -8.63465e-11 0)
(-0.812766 -8.45255e-11 0)
(-0.810753 -8.27145e-11 0)
(-0.808683 -8.08153e-11 0)
(-0.806555 -7.91099e-11 0)
(-0.804369 -7.7505e-11 0)
(-0.802124 -7.59198e-11 0)
(-0.799822 -7.41881e-11 0)
(-0.797463 -7.2194e-11 0)
(-0.795046 -6.98503e-11 0)
(-0.792572 -6.70436e-11 0)
(-0.790043 -6.36442e-11 0)
(-0.787458 -5.98207e-11 0)
(-0.78482 -5.60574e-11 0)
(-0.782128 -5.19724e-11 0)
(-0.779384 -4.66171e-11 0)
(-0.77659 -4.14954e-11 0)
(-0.773748 -3.41757e-11 0)
(-0.77086 -1.80443e-11 0)
(-0.767928 -2.75865e-11 0)
(-0.764954 -9.71797e-11 0)
(-0.761942 -8.63313e-11 0)
(-0.758896 1.71576e-11 0)
(-0.755819 2.22862e-10 0)
(-0.752715 -3.15096e-10 0)
(-0.74959 2.25875e-10 0)
(-0.74645 -4.36246e-11 0)
(-0.7433 -7.60478e-12 0)
(-0.740148 -1.30008e-11 0)
(-0.737001 -1.18018e-11 0)
(-0.733869 -1.20379e-11 0)
(-0.730761 1.05856e-11 0)
(-0.727688 -5.05464e-11 0)
(-0.724662 7.45511e-11 0)
(-0.721697 -1.01892e-10 0)
(-0.718809 1.12537e-10 0)
(-0.716012 -1.00404e-10 0)
(-0.713326 9.24994e-11 0)
(-0.710769 -5.28415e-11 0)
(-0.708362 3.91818e-11 0)
(-0.706125 7.3039e-12 0)
(-0.70408 1.86026e-11 0)
(-0.702245 6.79275e-13 0)
(-0.700641 1.50692e-12 0)
(-0.69928 2.56389e-12 0)
(-0.698172 2.54241e-12 0)
(-0.697322 2.30364e-12 0)
(-0.696725 2.12929e-12 0)
(-0.696374 1.98607e-12 0)
(-0.696252 1.84467e-12 0)
(-0.696341 1.70636e-12 0)
(-0.696618 1.57627e-12 0)
(-0.697061 1.46028e-12 0)
(-0.697647 1.35954e-12 0)
(-0.698353 1.28892e-12 0)
(-0.699156 1.2466e-12 0)
(-0.700034 1.00421e-12 0)
(-0.700966 -7.14616e-13 0)
(-0.70193 9.58965e-12 0)
(-0.702904 -2.17326e-11 0)
(-0.703866 4.64398e-11 0)
(-0.70479 -7.72921e-11 0)
(-0.705648 1.21172e-10 0)
(-0.706405 -1.70716e-10 0)
(-0.707002 2.30267e-10 0)
(-0.70724 -2.91684e-10 0)
(-0.70726 3.58381e-10 0)
(-0.70726 -4.24171e-10 0)
(-0.70726 4.93655e-10 0)
(-0.70726 -5.62336e-10 0)
(-0.70726 6.34523e-10 0)
(-0.70726 -7.06268e-10 0)
(-0.70726 7.81363e-10 0)
(-0.70726 -8.56349e-10 0)
(-0.70726 9.34518e-10 0)
(-0.70726 -1.01289e-09 0)
(-0.70726 1.09426e-09 0)
(-0.70726 -1.17613e-09 0)
(-0.70726 1.26081e-09 0)
(-0.70726 -1.34627e-09 0)
(-0.70726 1.43432e-09 0)
(-0.70726 -1.52341e-09 0)
(-0.70726 1.61487e-09 0)
(-0.70726 -1.70763e-09 0)
(-0.70726 1.80252e-09 0)
(-0.70726 -1.89888e-09 0)
(-0.70726 1.99727e-09 0)
(-0.70726 -2.09717e-09 0)
(-0.70726 2.19903e-09 0)
(-0.70726 -2.30237e-09 0)
(-0.70726 2.40762e-09 0)
(-0.70726 -2.51432e-09 0)
(-0.70726 2.62283e-09 0)
(-0.70726 -2.73273e-09 0)
(-0.70726 2.84435e-09 0)
(-0.70726 -2.95726e-09 0)
(-0.70726 3.07177e-09 0)
(-0.70726 -3.18743e-09 0)
(-0.70726 2.90237e-09 0)
(-0.70726 -2.95348e-09 0)
(-0.70726 3.00419e-09 0)
(-0.70726 -3.05407e-09 0)
(-0.70726 3.10356e-09 0)
(-0.70726 -3.15219e-09 0)
(-0.70726 3.20044e-09 0)
(-0.70726 -3.24781e-09 0)
(-0.70726 3.29482e-09 0)
(-0.70726 -3.3409e-09 0)
(-0.70726 3.38664e-09 0)
(-0.70726 -3.43141e-09 0)
(-0.70726 3.47589e-09 0)
(-0.70726 -3.51932e-09 0)
(-0.70726 3.5625e-09 0)
(-0.70726 -3.60456e-09 0)
(-0.70726 3.64645e-09 0)
(-0.70726 -3.68709e-09 0)
(-0.70726 3.72773e-09 0)
(-0.70726 -3.7667e-09 0)
(-0.70726 3.80639e-09 0)
(-0.70726 -3.84346e-09 0)
(-0.70726 3.88219e-09 0)
(-0.70726 -3.91734e-09 0)
(-0.70726 3.95504e-09 0)
(-0.70726 -3.98828e-09 0)
(-0.70726 4.02484e-09 0)
(-0.70726 -4.05612e-09 0)
(-0.70726 4.09151e-09 0)
(-0.70726 -4.12083e-09 0)
(-0.70726 4.15484e-09 0)
(-0.70726 -4.18224e-09 0)
(-0.70726 4.21469e-09 0)
(-0.70726 -4.24024e-09 0)
(-0.70726 4.27091e-09 0)
(-0.70726 -4.29441e-09 0)
(-0.70726 4.32342e-09 0)
(-0.70726 -4.34467e-09 0)
(-0.70726 4.37173e-09 0)
(-0.70726 -4.39074e-09 0)
(-0.70726 4.41556e-09 0)
(-0.70726 -4.43218e-09 0)
(-0.70726 4.45443e-09 0)
(-0.70726 -4.46839e-09 0)
(-0.70726 4.48779e-09 0)
(-0.70726 -4.49836e-09 0)
(-0.70726 4.51454e-09 0)
(-0.70726 -4.52049e-09 0)
(-0.70726 4.53249e-09 0)
(-0.70726 -4.53123e-09 0)
)
;

boundaryField
{
    inandouthalf11
    {
        type            cyclic;
    }
    inandouthalf12
    {
        type            cyclic;
    }
    inandouthalf21
    {
        type            cyclic;
    }
    inandouthalf22
    {
        type            cyclic;
    }
    inandouthalf31
    {
        type            cyclic;
    }
    inandouthalf32
    {
        type            cyclic;
    }
    inandouthalf41
    {
        type            cyclic;
    }
    inandouthalf42
    {
        type            cyclic;
    }
    top
    {
        type            symmetryPlane;
    }
    walls
    {
        type            calculated;
        value           uniform (0 0 0);
    }
    frontAndBackPlanes
    {
        type            empty;
    }
}


// ************************************************************************* //
