/*--------------------------------*- C++ -*----------------------------------*\
| =========                 |                                                 |
| \\      /  F ield         | OpenFOAM: The Open Source CFD Toolbox           |
|  \\    /   O peration     | Version:  2.4.x                                 |
|   \\  /    A nd           | Web:      www.OpenFOAM.org                      |
|    \\/     M anipulation  |                                                 |
\*---------------------------------------------------------------------------*/
FoamFile
{
    version     2.0;
    format      ascii;
    class       volVectorField;
    location    "11.5";
    object      Ua;
}
// * * * * * * * * * * * * * * * * * * * * * * * * * * * * * * * * * * * * * //

dimensions      [0 1 -1 0 0 0 0];

internalField   nonuniform List<vector> 
360
(
(-2.11368e-32 -1.01278e-31 0)
(-1.59573e-09 -5.33107e-09 0)
(-3.35265e-09 -9.58225e-09 0)
(-4.97416e-09 -1.34339e-08 0)
(-6.66732e-09 -1.76002e-08 0)
(-8.46673e-09 -2.20362e-08 0)
(-1.03258e-08 -2.65811e-08 0)
(-1.22208e-08 -3.11913e-08 0)
(-1.41474e-08 -3.58658e-08 0)
(-1.61035e-08 -4.05997e-08 0)
(-1.80845e-08 -4.53817e-08 0)
(-2.00841e-08 -5.01958e-08 0)
(-2.20947e-08 -5.50231e-08 0)
(-2.41088e-08 -5.98459e-08 0)
(-2.61195e-08 -6.46475e-08 0)
(-2.81207e-08 -6.94138e-08 0)
(-3.0107e-08 -7.41321e-08 0)
(-3.20735e-08 -7.87911e-08 0)
(-3.40157e-08 -8.33808e-08 0)
(-3.59304e-08 -8.78938e-08 0)
(-3.78147e-08 -9.23237e-08 0)
(-3.96665e-08 -9.66661e-08 0)
(-4.14847e-08 -1.00919e-07 0)
(-4.32685e-08 -1.05081e-07 0)
(-4.50178e-08 -1.09152e-07 0)
(-4.67329e-08 -1.13134e-07 0)
(-4.84144e-08 -1.17028e-07 0)
(-5.00634e-08 -1.20838e-07 0)
(-5.16814e-08 -1.24567e-07 0)
(-5.32699e-08 -1.28219e-07 0)
(-5.48304e-08 -1.31798e-07 0)
(-5.63649e-08 -1.35309e-07 0)
(-5.78753e-08 -1.38757e-07 0)
(-5.93635e-08 -1.42146e-07 0)
(-6.08315e-08 -1.45482e-07 0)
(-6.22812e-08 -1.48768e-07 0)
(-6.37145e-08 -1.52009e-07 0)
(-6.51332e-08 -1.5521e-07 0)
(-6.65394e-08 -1.58375e-07 0)
(-6.79344e-08 -1.61508e-07 0)
(-6.93201e-08 -1.64613e-07 0)
(-7.06981e-08 -1.67694e-07 0)
(-7.20697e-08 -1.70753e-07 0)
(-7.34363e-08 -1.73794e-07 0)
(-7.47993e-08 -1.76821e-07 0)
(-7.61599e-08 -1.79835e-07 0)
(-7.75192e-08 -1.82839e-07 0)
(-7.88779e-08 -1.85836e-07 0)
(-8.0237e-08 -1.88826e-07 0)
(-8.15976e-08 -1.91814e-07 0)
(-8.29605e-08 -1.94799e-07 0)
(-8.4326e-08 -1.97783e-07 0)
(-8.56949e-08 -2.00768e-07 0)
(-8.70678e-08 -2.03755e-07 0)
(-8.84449e-08 -2.06744e-07 0)
(-8.98268e-08 -2.09737e-07 0)
(-9.12138e-08 -2.12734e-07 0)
(-9.2606e-08 -2.15736e-07 0)
(-9.40037e-08 -2.18742e-07 0)
(-9.54067e-08 -2.21753e-07 0)
(-9.68152e-08 -2.24768e-07 0)
(-9.82296e-08 -2.27789e-07 0)
(-9.96497e-08 -2.30815e-07 0)
(-1.01076e-07 -2.33847e-07 0)
(-1.02507e-07 -2.36883e-07 0)
(-1.03944e-07 -2.39924e-07 0)
(-1.05387e-07 -2.42968e-07 0)
(-1.06834e-07 -2.46016e-07 0)
(-1.08287e-07 -2.49066e-07 0)
(-1.09743e-07 -2.52118e-07 0)
(-1.11204e-07 -2.55171e-07 0)
(-1.12669e-07 -2.58226e-07 0)
(-1.14138e-07 -2.6128e-07 0)
(-1.15611e-07 -2.64333e-07 0)
(-1.17087e-07 -2.67386e-07 0)
(-1.18566e-07 -2.70437e-07 0)
(-1.20047e-07 -2.73485e-07 0)
(-1.21531e-07 -2.76529e-07 0)
(-1.23016e-07 -2.79567e-07 0)
(-1.24502e-07 -2.82599e-07 0)
(-1.25989e-07 -2.85624e-07 0)
(-1.27476e-07 -2.8864e-07 0)
(-1.28964e-07 -2.91647e-07 0)
(-1.30451e-07 -2.94645e-07 0)
(-1.31937e-07 -2.97633e-07 0)
(-1.33423e-07 -3.00609e-07 0)
(-1.34907e-07 -3.03573e-07 0)
(-1.3639e-07 -3.06524e-07 0)
(-1.3787e-07 -3.09459e-07 0)
(-1.39347e-07 -3.12379e-07 0)
(-1.4082e-07 -3.15281e-07 0)
(-1.42289e-07 -3.18165e-07 0)
(-1.43755e-07 -3.21029e-07 0)
(-1.45215e-07 -3.23874e-07 0)
(-1.46671e-07 -3.26697e-07 0)
(-1.48122e-07 -3.295e-07 0)
(-1.49567e-07 -3.3228e-07 0)
(-1.51007e-07 -3.35038e-07 0)
(-1.5244e-07 -3.37771e-07 0)
(-1.53868e-07 -3.4048e-07 0)
(-1.55288e-07 -3.43164e-07 0)
(-1.56702e-07 -3.45821e-07 0)
(-1.5811e-07 -3.48453e-07 0)
(-1.59511e-07 -3.51059e-07 0)
(-1.60907e-07 -3.53639e-07 0)
(-1.62296e-07 -3.56194e-07 0)
(-1.63682e-07 -3.58725e-07 0)
(-1.65063e-07 -3.61232e-07 0)
(-1.66441e-07 -3.63717e-07 0)
(-1.67817e-07 -3.66182e-07 0)
(-1.69192e-07 -3.68626e-07 0)
(-1.70567e-07 -3.71051e-07 0)
(-1.71943e-07 -3.73458e-07 0)
(-1.7332e-07 -3.75847e-07 0)
(-1.747e-07 -3.78217e-07 0)
(-1.76081e-07 -3.80567e-07 0)
(-1.77463e-07 -3.82896e-07 0)
(-1.78847e-07 -3.852e-07 0)
(-1.80229e-07 -3.87476e-07 0)
(-1.8161e-07 -3.89721e-07 0)
(-1.82988e-07 -3.91932e-07 0)
(-1.84364e-07 -3.94107e-07 0)
(-1.85738e-07 -3.96246e-07 0)
(-1.87115e-07 -3.98354e-07 0)
(-1.885e-07 -4.00437e-07 0)
(-1.89903e-07 -4.02506e-07 0)
(-1.9134e-07 -4.04581e-07 0)
(-1.92829e-07 -4.06683e-07 0)
(-1.94395e-07 -4.08841e-07 0)
(-1.96067e-07 -4.11086e-07 0)
(-1.97874e-07 -4.13446e-07 0)
(-1.99841e-07 -4.15936e-07 0)
(-2.01975e-07 -4.18551e-07 0)
(-2.04255e-07 -4.21249e-07 0)
(-2.06605e-07 -4.23929e-07 0)
(-2.08869e-07 -4.26415e-07 0)
(-2.10824e-07 -4.28474e-07 0)
(-2.12267e-07 -4.29921e-07 0)
(-2.13132e-07 -4.30741e-07 0)
(-2.13538e-07 -4.31099e-07 0)
(-2.13696e-07 -4.31218e-07 0)
(-2.1378e-07 -4.31256e-07 0)
(-2.13881e-07 -4.31339e-07 0)
(-2.14156e-07 -4.31664e-07 0)
(-2.14399e-07 -4.31795e-07 0)
(-2.14675e-07 -4.31872e-07 0)
(-2.15398e-07 -4.31838e-07 0)
(-2.2334e-07 -4.30623e-07 0)
(-0.0780182 0.000433705 0)
(-0.195668 0.0010939 0)
(-0.28974 0.00142341 0)
(-0.366287 0.00167601 0)
(-0.430153 0.00193755 0)
(-0.484414 0.00221149 0)
(-0.531089 0.00249705 0)
(-0.57159 0.00279165 0)
(-0.606944 0.0030899 0)
(-0.637913 0.00338328 0)
(-0.665072 0.00366004 0)
(-0.688857 0.00390487 0)
(-0.709606 0.00409861 0)
(-0.7276 0.00421674 0)
(-0.743089 0.00422482 0)
(-0.756316 0.00407172 0)
(-0.767535 0.00369379 0)
(-0.777014 0.00304768 0)
(-0.785021 0.00215416 0)
(-0.791805 0.00109825 0)
(-0.797574 -1.94158e-05 0)
(-0.802491 -0.00112404 0)
(-0.806687 -0.00217386 0)
(-0.810267 -0.00314996 0)
(-0.813316 -0.00404625 0)
(-0.815904 -0.00486326 0)
(-0.818092 -0.00560469 0)
(-0.819928 -0.00627553 0)
(-0.821455 -0.00688114 0)
(-0.82271 -0.00742675 0)
(-0.823723 -0.00791729 0)
(-0.824522 -0.00835726 0)
(-0.825132 -0.0087508 0)
(-0.825571 -0.00910164 0)
(-0.825859 -0.00941317 0)
(-0.826013 -0.00968848 0)
(-0.826046 -0.0099304 0)
(-0.825972 -0.0101415 0)
(-0.825802 -0.0103242 0)
(-0.825547 -0.0104807 0)
(-0.825216 -0.0106131 0)
(-0.824819 -0.0107232 0)
(-0.824364 -0.0108129 0)
(-0.823857 -0.0108839 0)
(-0.823306 -0.0109378 0)
(-0.822717 -0.010976 0)
(-0.822096 -0.0109999 0)
(-0.821448 -0.0110109 0)
(-0.820779 -0.0110101 0)
(-0.820093 -0.0109988 0)
(-0.819394 -0.010978 0)
(-0.818687 -0.0109485 0)
(-0.817976 -0.0109115 0)
(-0.817257 -0.0108672 0)
(-0.816525 -0.0108156 0)
(-0.815781 -0.0107572 0)
(-0.815027 -0.0106925 0)
(-0.814265 -0.0106217 0)
(-0.813497 -0.0105453 0)
(-0.812724 -0.0104638 0)
(-0.811948 -0.0103774 0)
(-0.811172 -0.0102864 0)
(-0.810396 -0.0101913 0)
(-0.809623 -0.010092 0)
(-0.808855 -0.00998873 0)
(-0.808092 -0.00988146 0)
(-0.807337 -0.00977004 0)
(-0.806591 -0.00965423 0)
(-0.805855 -0.00953374 0)
(-0.80513 -0.00940822 0)
(-0.804417 -0.0092774 0)
(-0.803718 -0.00914107 0)
(-0.803033 -0.00899916 0)
(-0.802363 -0.00885172 0)
(-0.801708 -0.00869893 0)
(-0.801071 -0.00854107 0)
(-0.80045 -0.00837844 0)
(-0.799849 -0.00821139 0)
(-0.799266 -0.0080402 0)
(-0.798704 -0.00786512 0)
(-0.798165 -0.00768624 0)
(-0.797651 -0.00750348 0)
(-0.797165 -0.00731671 0)
(-0.796711 -0.00712598 0)
(-0.796295 -0.00693299 0)
(-0.795919 -0.00674664 0)
(-0.795587 -0.0065883 0)
(-0.795306 -0.00649414 0)
(-0.794972 -0.00644296 0)
(-0.746145 -0.0055781 0)
(-0.743074 -0.00544333 0)
(-0.739899 -0.00500381 0)
(-0.736726 -0.00459084 0)
(-0.73356 -0.00416067 0)
(-0.730409 -0.00372618 0)
(-0.727281 -0.00321918 0)
(-0.724206 -0.00302694 0)
(-0.72114 -0.00195275 0)
(-0.718205 -0.00279372 0)
(-0.715274 -0.000295794 0)
(-0.712568 -0.00296522 0)
(-0.709844 0.00148079 0)
(-0.707352 -0.00306105 0)
(-0.704954 0.00280207 0)
(-0.702632 -0.00278505 0)
(-0.701436 -0.0318873 0)
(-0.699894 -0.0396548 0)
(-0.698205 -0.039611 0)
(-0.696918 -0.0396066 0)
(-0.695871 -0.0395993 0)
(-0.69508 -0.0395923 0)
(-0.694532 -0.0395854 0)
(-0.694249 -0.0395798 0)
(-0.694173 -0.0395748 0)
(-0.694299 -0.0395701 0)
(-0.694612 -0.0395665 0)
(-0.695086 -0.0395637 0)
(-0.695696 -0.0395615 0)
(-0.696421 -0.0395599 0)
(-0.697239 -0.0395588 0)
(-0.698128 -0.039558 0)
(-0.699067 -0.0395574 0)
(-0.700033 -0.0395568 0)
(-0.701006 -0.0395563 0)
(-0.701962 -0.0395556 0)
(-0.702878 -0.0395546 0)
(-0.703724 -0.0395531 0)
(-0.704469 -0.0395507 0)
(-0.705018 -0.0395454 0)
(-0.705212 -0.03954 0)
(-0.705227 -0.0395379 0)
(-0.705228 -0.0395378 0)
(-0.705228 -0.0395378 0)
(-0.705228 -0.0395378 0)
(-0.705228 -0.0395378 0)
(-0.705228 -0.0395378 0)
(-0.705228 -0.0395378 0)
(-0.705228 -0.0395378 0)
(-0.705228 -0.0395378 0)
(-0.705228 -0.0395378 0)
(-0.705228 -0.0395378 0)
(-0.705228 -0.0395378 0)
(-0.705228 -0.0395378 0)
(-0.705228 -0.0395378 0)
(-0.705228 -0.0395378 0)
(-0.705228 -0.0395378 0)
(-0.705228 -0.0395378 0)
(-0.705228 -0.0395378 0)
(-0.705228 -0.0395378 0)
(-0.705228 -0.0395378 0)
(-0.705228 -0.0395378 0)
(-0.705228 -0.0395378 0)
(-0.705228 -0.0395378 0)
(-0.705228 -0.0395378 0)
(-0.705228 -0.0395378 0)
(-0.705228 -0.0395378 0)
(-0.705228 -0.0395378 0)
(-0.705228 -0.0395378 0)
(-0.705228 -0.0395378 0)
(-0.705228 -0.0395378 0)
(-0.705228 -0.0395378 0)
(-0.705228 -0.0395378 0)
(-0.705228 -0.0395378 0)
(-0.705228 -0.0395378 0)
(-0.705228 -0.0395378 0)
(-0.705228 -0.0395378 0)
(-0.705228 -0.0395378 0)
(-0.705228 -0.0395378 0)
(-0.705228 -0.0395378 0)
(-0.705228 -0.0395378 0)
(-0.705228 -0.0395378 0)
(-0.705228 -0.0395378 0)
(-0.705228 -0.0395378 0)
(-0.705228 -0.0395378 0)
(-0.705228 -0.0395378 0)
(-0.705228 -0.0395378 0)
(-0.705228 -0.0395378 0)
(-0.705228 -0.0395378 0)
(-0.705228 -0.0395378 0)
(-0.705228 -0.0395378 0)
(-0.705228 -0.0395378 0)
(-0.705228 -0.0395378 0)
(-0.705228 -0.0395378 0)
(-0.705228 -0.0395378 0)
(-0.705228 -0.0395378 0)
(-0.705228 -0.0395378 0)
(-0.705228 -0.0395378 0)
(-0.705228 -0.0395378 0)
(-0.705228 -0.0395378 0)
(-0.705228 -0.0395378 0)
(-0.705228 -0.0395378 0)
(-0.705228 -0.0395378 0)
(-0.705228 -0.0395378 0)
(-0.705228 -0.0395378 0)
(-0.705228 -0.0395378 0)
(-0.705228 -0.0395378 0)
(-0.705228 -0.0395378 0)
(-0.705228 -0.0395378 0)
(-0.705228 -0.0395378 0)
(-0.705228 -0.0395378 0)
(-0.705228 -0.0395378 0)
(-0.705228 -0.0395378 0)
(-0.705228 -0.0395378 0)
(-0.705228 -0.0395378 0)
(-0.705228 -0.0395378 0)
(-0.705228 -0.0395378 0)
(-0.705228 -0.0395378 0)
(-0.705228 -0.0395378 0)
(-0.705228 -0.0395375 0)
(-0.705227 -0.0395291 0)
(-0.705213 -0.0391842 0)
(-0.704881 -0.0224755 0)
)
;

boundaryField
{
    inandouthalf11
    {
        type            cyclic;
    }
    inandouthalf12
    {
        type            cyclic;
    }
    inandouthalf21
    {
        type            cyclic;
    }
    inandouthalf22
    {
        type            cyclic;
    }
    inandouthalf31
    {
        type            cyclic;
    }
    inandouthalf32
    {
        type            cyclic;
    }
    inandouthalf41
    {
        type            cyclic;
    }
    inandouthalf42
    {
        type            cyclic;
    }
    top
    {
        type            symmetryPlane;
    }
    walls
    {
        type            fixedValue;
        value           uniform (0 0 0);
    }
    frontAndBackPlanes
    {
        type            empty;
    }
}


// ************************************************************************* //
