/*--------------------------------*- C++ -*----------------------------------*\
| =========                 |                                                 |
| \\      /  F ield         | OpenFOAM: The Open Source CFD Toolbox           |
|  \\    /   O peration     | Version:  2.4.x                                 |
|   \\  /    A nd           | Web:      www.OpenFOAM.org                      |
|    \\/     M anipulation  |                                                 |
\*---------------------------------------------------------------------------*/
FoamFile
{
    version     2.0;
    format      ascii;
    class       volVectorField;
    location    "11.5";
    object      Ub;
}
// * * * * * * * * * * * * * * * * * * * * * * * * * * * * * * * * * * * * * //

dimensions      [0 1 -1 0 0 0 0];

internalField   nonuniform List<vector> 
360
(
(-0.000105518 2.25215e-09 0)
(-0.00010493 7.97501e-09 0)
(-0.000104853 1.47338e-08 0)
(-0.000104934 2.12328e-08 0)
(-0.000104973 2.78513e-08 0)
(-0.000104987 3.47674e-08 0)
(-0.000105003 4.18957e-08 0)
(-0.000105025 4.9153e-08 0)
(-0.000105047 5.65101e-08 0)
(-0.000105069 6.39553e-08 0)
(-0.000105091 7.1473e-08 0)
(-0.000105114 7.90386e-08 0)
(-0.000105136 8.66238e-08 0)
(-0.000105159 9.42008e-08 0)
(-0.000105182 1.01744e-07 0)
(-0.000105205 1.0923e-07 0)
(-0.000105228 1.1664e-07 0)
(-0.000105252 1.23955e-07 0)
(-0.000105276 1.31161e-07 0)
(-0.0001053 1.38245e-07 0)
(-0.000105324 1.45197e-07 0)
(-0.000105348 1.52011e-07 0)
(-0.000105372 1.58683e-07 0)
(-0.000105397 1.65211e-07 0)
(-0.000105422 1.71595e-07 0)
(-0.000105447 1.77837e-07 0)
(-0.000105472 1.8394e-07 0)
(-0.000105498 1.89909e-07 0)
(-0.000105524 1.9575e-07 0)
(-0.00010555 2.01468e-07 0)
(-0.000105576 2.0707e-07 0)
(-0.000105602 2.12564e-07 0)
(-0.000105629 2.17957e-07 0)
(-0.000105656 2.23256e-07 0)
(-0.000105683 2.28469e-07 0)
(-0.000105711 2.33603e-07 0)
(-0.000105738 2.38665e-07 0)
(-0.000105766 2.43662e-07 0)
(-0.000105795 2.48602e-07 0)
(-0.000105823 2.53488e-07 0)
(-0.000105852 2.5833e-07 0)
(-0.000105882 2.63131e-07 0)
(-0.000105911 2.67897e-07 0)
(-0.000105941 2.72634e-07 0)
(-0.000105971 2.77344e-07 0)
(-0.000106002 2.82034e-07 0)
(-0.000106033 2.86708e-07 0)
(-0.000106064 2.91366e-07 0)
(-0.000106095 2.96013e-07 0)
(-0.000106127 3.00654e-07 0)
(-0.00010616 3.05289e-07 0)
(-0.000106192 3.09921e-07 0)
(-0.000106225 3.14552e-07 0)
(-0.000106259 3.19184e-07 0)
(-0.000106293 3.23816e-07 0)
(-0.000106327 3.28454e-07 0)
(-0.000106362 3.33095e-07 0)
(-0.000106397 3.37741e-07 0)
(-0.000106433 3.42393e-07 0)
(-0.000106469 3.47048e-07 0)
(-0.000106505 3.5171e-07 0)
(-0.000106542 3.56377e-07 0)
(-0.00010658 3.61051e-07 0)
(-0.000106618 3.6573e-07 0)
(-0.000106656 3.70414e-07 0)
(-0.000106695 3.75102e-07 0)
(-0.000106735 3.79793e-07 0)
(-0.000106775 3.84487e-07 0)
(-0.000106816 3.89183e-07 0)
(-0.000106857 3.93878e-07 0)
(-0.000106898 3.98572e-07 0)
(-0.000106941 4.03266e-07 0)
(-0.000106984 4.07956e-07 0)
(-0.000107027 4.12643e-07 0)
(-0.000107072 4.17324e-07 0)
(-0.000107117 4.22e-07 0)
(-0.000107162 4.26668e-07 0)
(-0.000107208 4.31326e-07 0)
(-0.000107255 4.35972e-07 0)
(-0.000107303 4.40605e-07 0)
(-0.000107351 4.45223e-07 0)
(-0.000107401 4.49824e-07 0)
(-0.000107451 4.54408e-07 0)
(-0.000107501 4.58973e-07 0)
(-0.000107553 4.63518e-07 0)
(-0.000107606 4.68042e-07 0)
(-0.000107659 4.72542e-07 0)
(-0.000107713 4.77017e-07 0)
(-0.000107769 4.81465e-07 0)
(-0.000107825 4.85883e-07 0)
(-0.000107882 4.9027e-07 0)
(-0.000107941 4.94623e-07 0)
(-0.000108 4.98942e-07 0)
(-0.00010806 5.03225e-07 0)
(-0.000108122 5.07471e-07 0)
(-0.000108185 5.11678e-07 0)
(-0.000108249 5.15846e-07 0)
(-0.000108314 5.19973e-07 0)
(-0.000108381 5.24057e-07 0)
(-0.000108449 5.28097e-07 0)
(-0.000108519 5.32091e-07 0)
(-0.00010859 5.3604e-07 0)
(-0.000108662 5.39942e-07 0)
(-0.000108737 5.43798e-07 0)
(-0.000108812 5.47607e-07 0)
(-0.00010889 5.51371e-07 0)
(-0.000108969 5.55089e-07 0)
(-0.000109051 5.58765e-07 0)
(-0.000109134 5.62398e-07 0)
(-0.000109219 5.6599e-07 0)
(-0.000109307 5.69543e-07 0)
(-0.000109396 5.73059e-07 0)
(-0.000109488 5.76537e-07 0)
(-0.000109583 5.79978e-07 0)
(-0.00010968 5.8338e-07 0)
(-0.00010978 5.86741e-07 0)
(-0.000109882 5.90057e-07 0)
(-0.000109988 5.93325e-07 0)
(-0.000110096 5.96538e-07 0)
(-0.000110208 5.99692e-07 0)
(-0.000110323 6.02781e-07 0)
(-0.000110442 6.05802e-07 0)
(-0.000110565 6.08756e-07 0)
(-0.000110692 6.11649e-07 0)
(-0.000110824 6.1449e-07 0)
(-0.00011096 6.17297e-07 0)
(-0.000111101 6.20096e-07 0)
(-0.000111247 6.22922e-07 0)
(-0.000111399 6.25814e-07 0)
(-0.000111557 6.28817e-07 0)
(-0.000111722 6.31969e-07 0)
(-0.000111894 6.35287e-07 0)
(-0.000112074 6.38752e-07 0)
(-0.000112264 6.42286e-07 0)
(-0.000112467 6.45727e-07 0)
(-0.000112683 6.48811e-07 0)
(-0.000112911 6.51215e-07 0)
(-0.000113155 6.52686e-07 0)
(-0.000113424 6.53192e-07 0)
(-0.000113732 6.52966e-07 0)
(-0.000114064 6.52199e-07 0)
(-0.000114457 6.46392e-07 0)
(-0.000117184 6.50477e-07 0)
(-0.000116778 6.21014e-07 0)
(-0.000117279 9.31317e-07 0)
(-0.000118111 -6.07394e-07 0)
(-0.000119506 5.48237e-06 0)
(-0.000617372 -1.75548e-05 0)
(-0.0877722 -0.000278413 0)
(-0.208309 -0.000364578 0)
(-0.300524 -0.000327815 0)
(-0.375463 -0.000304978 0)
(-0.438304 -0.000277985 0)
(-0.491982 -0.000247727 0)
(-0.538444 -0.000215999 0)
(-0.579076 -0.000184492 0)
(-0.614901 -0.000154498 0)
(-0.646692 -0.000126918 0)
(-0.675032 -0.000102281 0)
(-0.700363 -8.08034e-05 0)
(-0.723011 -6.2476e-05 0)
(-0.743218 -4.7127e-05 0)
(-0.761155 -3.44688e-05 0)
(-0.77695 -2.41584e-05 0)
(-0.790705 -1.59008e-05 0)
(-0.802516 -9.52629e-06 0)
(-0.8125 -4.91544e-06 0)
(-0.820801 -1.82684e-06 0)
(-0.827595 1.29142e-07 0)
(-0.833079 1.34521e-06 0)
(-0.837452 2.10318e-06 0)
(-0.840905 2.57376e-06 0)
(-0.843604 2.85876e-06 0)
(-0.845692 3.02074e-06 0)
(-0.847283 3.09955e-06 0)
(-0.848472 3.12126e-06 0)
(-0.849331 3.10328e-06 0)
(-0.849917 3.05752e-06 0)
(-0.850276 2.99227e-06 0)
(-0.850443 2.91342e-06 0)
(-0.850447 2.82521e-06 0)
(-0.850309 2.73071e-06 0)
(-0.850049 2.63223e-06 0)
(-0.84968 2.53146e-06 0)
(-0.849215 2.42969e-06 0)
(-0.848663 2.3279e-06 0)
(-0.848034 2.22683e-06 0)
(-0.847335 2.12704e-06 0)
(-0.84657 2.02896e-06 0)
(-0.845747 1.93295e-06 0)
(-0.844869 1.83924e-06 0)
(-0.84394 1.74803e-06 0)
(-0.842965 1.65948e-06 0)
(-0.841946 1.57368e-06 0)
(-0.840886 1.49073e-06 0)
(-0.839788 1.41065e-06 0)
(-0.838655 1.3335e-06 0)
(-0.837488 1.25927e-06 0)
(-0.83629 1.18797e-06 0)
(-0.835062 1.11958e-06 0)
(-0.833807 1.05407e-06 0)
(-0.832514 9.90751e-07 0)
(-0.831168 9.29082e-07 0)
(-0.829769 8.6915e-07 0)
(-0.828318 8.11036e-07 0)
(-0.826812 7.54818e-07 0)
(-0.825252 7.00567e-07 0)
(-0.823637 6.48348e-07 0)
(-0.821967 5.98226e-07 0)
(-0.82024 5.5026e-07 0)
(-0.818457 5.04506e-07 0)
(-0.816617 4.61019e-07 0)
(-0.81472 4.19844e-07 0)
(-0.812766 3.81017e-07 0)
(-0.810754 3.4456e-07 0)
(-0.808683 3.10479e-07 0)
(-0.806555 2.78755e-07 0)
(-0.804369 2.4935e-07 0)
(-0.802124 2.22205e-07 0)
(-0.799822 1.97242e-07 0)
(-0.797463 1.7437e-07 0)
(-0.795046 1.53487e-07 0)
(-0.792572 1.34488e-07 0)
(-0.790043 1.17267e-07 0)
(-0.787458 1.01721e-07 0)
(-0.78482 8.77498e-08 0)
(-0.782128 7.52566e-08 0)
(-0.779384 6.41494e-08 0)
(-0.77659 5.43374e-08 0)
(-0.773748 4.57245e-08 0)
(-0.77086 3.81972e-08 0)
(-0.767927 3.15837e-08 0)
(-0.764954 2.56079e-08 0)
(-0.761942 2.00646e-08 0)
(-0.758896 1.51647e-08 0)
(-0.755819 1.15171e-08 0)
(-0.752715 9.09881e-09 0)
(-0.74959 7.20409e-09 0)
(-0.74645 5.54729e-09 0)
(-0.7433 4.1664e-09 0)
(-0.740148 3.06004e-09 0)
(-0.737001 2.19364e-09 0)
(-0.733869 1.52904e-09 0)
(-0.730761 1.03222e-09 0)
(-0.727688 6.72745e-10 0)
(-0.724662 4.192e-10 0)
(-0.721697 2.50334e-10 0)
(-0.718809 1.39013e-10 0)
(-0.716012 7.19551e-11 0)
(-0.713326 3.37014e-11 0)
(-0.710769 1.11203e-11 0)
(-0.708362 2.39758e-12 0)
(-0.706125 1.44876e-11 0)
(-0.70408 1.86026e-11 0)
(-0.702245 6.79275e-13 0)
(-0.700641 1.50692e-12 0)
(-0.69928 2.56389e-12 0)
(-0.698172 2.54241e-12 0)
(-0.697322 2.30364e-12 0)
(-0.696725 2.12929e-12 0)
(-0.696374 1.98607e-12 0)
(-0.696252 1.84467e-12 0)
(-0.696341 1.70636e-12 0)
(-0.696618 1.57627e-12 0)
(-0.697061 1.46028e-12 0)
(-0.697647 1.35954e-12 0)
(-0.698353 1.28892e-12 0)
(-0.699156 1.2466e-12 0)
(-0.700034 1.00421e-12 0)
(-0.700966 -7.14616e-13 0)
(-0.70193 9.58965e-12 0)
(-0.702904 -2.17326e-11 0)
(-0.703866 4.64398e-11 0)
(-0.70479 -7.72921e-11 0)
(-0.705648 1.21172e-10 0)
(-0.706405 -1.70716e-10 0)
(-0.707002 2.30267e-10 0)
(-0.70724 -2.91684e-10 0)
(-0.70726 3.58381e-10 0)
(-0.70726 -4.24171e-10 0)
(-0.70726 4.93655e-10 0)
(-0.70726 -5.62336e-10 0)
(-0.70726 6.34523e-10 0)
(-0.70726 -7.06268e-10 0)
(-0.70726 7.81363e-10 0)
(-0.70726 -8.56349e-10 0)
(-0.70726 9.34518e-10 0)
(-0.70726 -1.01289e-09 0)
(-0.70726 1.09426e-09 0)
(-0.70726 -1.17613e-09 0)
(-0.70726 1.26081e-09 0)
(-0.70726 -1.34627e-09 0)
(-0.70726 1.43432e-09 0)
(-0.70726 -1.52341e-09 0)
(-0.70726 1.61487e-09 0)
(-0.70726 -1.70763e-09 0)
(-0.70726 1.80252e-09 0)
(-0.70726 -1.89888e-09 0)
(-0.70726 1.99727e-09 0)
(-0.70726 -2.09717e-09 0)
(-0.70726 2.19903e-09 0)
(-0.70726 -2.30237e-09 0)
(-0.70726 2.40762e-09 0)
(-0.70726 -2.51432e-09 0)
(-0.70726 2.62283e-09 0)
(-0.70726 -2.73273e-09 0)
(-0.70726 2.84435e-09 0)
(-0.70726 -2.95726e-09 0)
(-0.70726 3.07177e-09 0)
(-0.70726 -3.18743e-09 0)
(-0.70726 2.90237e-09 0)
(-0.70726 -2.95348e-09 0)
(-0.70726 3.00419e-09 0)
(-0.70726 -3.05407e-09 0)
(-0.70726 3.10356e-09 0)
(-0.70726 -3.15219e-09 0)
(-0.70726 3.20044e-09 0)
(-0.70726 -3.24781e-09 0)
(-0.70726 3.29482e-09 0)
(-0.70726 -3.3409e-09 0)
(-0.70726 3.38664e-09 0)
(-0.70726 -3.43141e-09 0)
(-0.70726 3.47589e-09 0)
(-0.70726 -3.51932e-09 0)
(-0.70726 3.5625e-09 0)
(-0.70726 -3.60456e-09 0)
(-0.70726 3.64645e-09 0)
(-0.70726 -3.68709e-09 0)
(-0.70726 3.72773e-09 0)
(-0.70726 -3.7667e-09 0)
(-0.70726 3.80639e-09 0)
(-0.70726 -3.84346e-09 0)
(-0.70726 3.88219e-09 0)
(-0.70726 -3.91734e-09 0)
(-0.70726 3.95504e-09 0)
(-0.70726 -3.98828e-09 0)
(-0.70726 4.02484e-09 0)
(-0.70726 -4.05612e-09 0)
(-0.70726 4.09151e-09 0)
(-0.70726 -4.12083e-09 0)
(-0.70726 4.15484e-09 0)
(-0.70726 -4.18224e-09 0)
(-0.70726 4.21469e-09 0)
(-0.70726 -4.24024e-09 0)
(-0.70726 4.27091e-09 0)
(-0.70726 -4.29441e-09 0)
(-0.70726 4.32342e-09 0)
(-0.70726 -4.34467e-09 0)
(-0.70726 4.37173e-09 0)
(-0.70726 -4.39074e-09 0)
(-0.70726 4.41556e-09 0)
(-0.70726 -4.43218e-09 0)
(-0.70726 4.45443e-09 0)
(-0.70726 -4.46839e-09 0)
(-0.70726 4.48779e-09 0)
(-0.70726 -4.49836e-09 0)
(-0.70726 4.51454e-09 0)
(-0.70726 -4.52049e-09 0)
(-0.70726 4.53249e-09 0)
(-0.70726 -4.53123e-09 0)
)
;

boundaryField
{
    inandouthalf11
    {
        type            cyclic;
    }
    inandouthalf12
    {
        type            cyclic;
    }
    inandouthalf21
    {
        type            cyclic;
    }
    inandouthalf22
    {
        type            cyclic;
    }
    inandouthalf31
    {
        type            cyclic;
    }
    inandouthalf32
    {
        type            cyclic;
    }
    inandouthalf41
    {
        type            cyclic;
    }
    inandouthalf42
    {
        type            cyclic;
    }
    top
    {
        type            symmetryPlane;
    }
    walls
    {
        type            fixedValue;
        value           uniform (0 0 0);
    }
    frontAndBackPlanes
    {
        type            empty;
    }
}


// ************************************************************************* //
