/*--------------------------------*- C++ -*----------------------------------*\
| =========                 |                                                 |
| \\      /  F ield         | OpenFOAM: The Open Source CFD Toolbox           |
|  \\    /   O peration     | Version:  2.4.x                                 |
|   \\  /    A nd           | Web:      www.OpenFOAM.org                      |
|    \\/     M anipulation  |                                                 |
\*---------------------------------------------------------------------------*/
FoamFile
{
    version     2.0;
    format      ascii;
    class       volVectorField;
    location    "3.2";
    object      ddt0(Ub);
}
// * * * * * * * * * * * * * * * * * * * * * * * * * * * * * * * * * * * * * //

dimensions      [0 1 -2 0 0 0 0];

internalField   nonuniform List<vector> 
360
(
(0.000126894 -9.23123e-08 0)
(0.000127692 -7.36356e-07 0)
(0.000127831 -1.96772e-06 0)
(0.000127833 -3.20272e-06 0)
(0.000127831 -4.10566e-06 0)
(0.000127856 -4.63916e-06 0)
(0.000127899 -4.91354e-06 0)
(0.000127934 -5.05837e-06 0)
(0.00012795 -5.1945e-06 0)
(0.000127979 -5.43555e-06 0)
(0.000128064 -5.89308e-06 0)
(0.000128241 -6.67549e-06 0)
(0.000128535 -7.86361e-06 0)
(0.000128934 -9.42624e-06 0)
(0.000129359 -1.1056e-05 0)
(0.00012962 -1.20204e-05 0)
(0.000129444 -1.13434e-05 0)
(0.000128689 -8.54768e-06 0)
(0.000127575 -4.38197e-06 0)
(0.000126556 -4.05049e-07 0)
(0.000125901 2.30458e-06 0)
(0.000125581 3.71255e-06 0)
(0.000125449 4.31244e-06 0)
(0.0001254 4.5357e-06 0)
(0.000125385 4.60558e-06 0)
(0.000125384 4.61166e-06 0)
(0.00012539 4.58646e-06 0)
(0.000125403 4.54257e-06 0)
(0.000125419 4.48696e-06 0)
(0.000125437 4.42574e-06 0)
(0.000125454 4.36456e-06 0)
(0.000125471 4.30761e-06 0)
(0.000125486 4.2567e-06 0)
(0.0001255 4.21164e-06 0)
(0.000125513 4.17078e-06 0)
(0.000125525 4.13229e-06 0)
(0.000125538 4.09443e-06 0)
(0.000125552 4.05609e-06 0)
(0.000125568 4.01663e-06 0)
(0.000125583 3.9758e-06 0)
(0.000125601 3.93375e-06 0)
(0.00012562 3.8906e-06 0)
(0.000125639 3.84666e-06 0)
(0.00012566 3.80215e-06 0)
(0.000125681 3.75716e-06 0)
(0.000125704 3.71181e-06 0)
(0.000125727 3.6661e-06 0)
(0.000125751 3.61994e-06 0)
(0.000125777 3.57321e-06 0)
(0.000125805 3.52568e-06 0)
(0.000125833 3.47715e-06 0)
(0.000125864 3.42749e-06 0)
(0.000125895 3.37651e-06 0)
(0.000125929 3.32407e-06 0)
(0.000125964 3.26999e-06 0)
(0.000126003 3.21413e-06 0)
(0.000126042 3.1563e-06 0)
(0.000126084 3.09643e-06 0)
(0.000126128 3.03438e-06 0)
(0.000126173 2.97016e-06 0)
(0.000126221 2.9038e-06 0)
(0.000126271 2.83538e-06 0)
(0.000126322 2.76512e-06 0)
(0.000126374 2.69324e-06 0)
(0.000126427 2.61999e-06 0)
(0.000126481 2.54551e-06 0)
(0.000126537 2.46981e-06 0)
(0.000126595 2.39267e-06 0)
(0.000126654 2.31378e-06 0)
(0.000126716 2.23263e-06 0)
(0.000126781 2.14865e-06 0)
(0.000126848 2.06124e-06 0)
(0.000126918 1.96997e-06 0)
(0.000126992 1.87455e-06 0)
(0.000127067 1.7749e-06 0)
(0.000127145 1.67116e-06 0)
(0.000127225 1.56372e-06 0)
(0.000127306 1.45308e-06 0)
(0.000127389 1.33973e-06 0)
(0.000127474 1.22405e-06 0)
(0.00012756 1.10625e-06 0)
(0.000127649 9.86362e-07 0)
(0.00012774 8.6424e-07 0)
(0.000127832 7.39643e-07 0)
(0.000127928 6.12316e-07 0)
(0.000128025 4.82057e-07 0)
(0.000128125 3.48773e-07 0)
(0.000128226 2.12519e-07 0)
(0.00012833 7.34849e-08 0)
(0.000128435 -6.80779e-08 0)
(0.000128542 -2.1189e-07 0)
(0.000128651 -3.57691e-07 0)
(0.000128762 -5.05292e-07 0)
(0.000128874 -6.54578e-07 0)
(0.000128989 -8.0551e-07 0)
(0.000129105 -9.58099e-07 0)
(0.000129223 -1.11238e-06 0)
(0.000129344 -1.26839e-06 0)
(0.000129466 -1.42617e-06 0)
(0.000129591 -1.58574e-06 0)
(0.000129717 -1.74713e-06 0)
(0.000129846 -1.91033e-06 0)
(0.000129978 -2.07533e-06 0)
(0.000130111 -2.24211e-06 0)
(0.000130247 -2.41061e-06 0)
(0.000130385 -2.58075e-06 0)
(0.000130526 -2.75239e-06 0)
(0.000130669 -2.92537e-06 0)
(0.000130815 -3.09949e-06 0)
(0.000130963 -3.27448e-06 0)
(0.000131114 -3.45007e-06 0)
(0.000131267 -3.62594e-06 0)
(0.000131423 -3.80179e-06 0)
(0.000131582 -3.97735e-06 0)
(0.000131743 -4.15242e-06 0)
(0.000131907 -4.3269e-06 0)
(0.000132074 -4.50089e-06 0)
(0.000132244 -4.6747e-06 0)
(0.000132418 -4.84895e-06 0)
(0.000132596 -5.02467e-06 0)
(0.000132779 -5.20333e-06 0)
(0.000132968 -5.38695e-06 0)
(0.000133164 -5.57822e-06 0)
(0.000133369 -5.7805e-06 0)
(0.000133584 -5.998e-06 0)
(0.000133813 -6.23569e-06 0)
(0.000134058 -6.49934e-06 0)
(0.000134322 -6.7953e-06 0)
(0.000134609 -7.13005e-06 0)
(0.000134924 -7.50948e-06 0)
(0.000135268 -7.93783e-06 0)
(0.000135643 -8.41663e-06 0)
(0.000136051 -8.94417e-06 0)
(0.000136492 -9.51558e-06 0)
(0.000136967 -1.01223e-05 0)
(0.000137466 -1.07497e-05 0)
(0.000137977 -1.13757e-05 0)
(0.000138489 -1.19732e-05 0)
(0.000139002 -1.25152e-05 0)
(0.000139517 -1.29744e-05 0)
(0.000140003 -1.33202e-05 0)
(0.000140402 -1.35275e-05 0)
(0.000140829 -1.36171e-05 0)
(0.000141377 -1.36342e-05 0)
(0.000142046 -1.36082e-05 0)
(0.000142934 -1.32811e-05 0)
(0.000149373 -2.09329e-05 0)
(0.000169553 -3.87693e-05 0)
(0.000205937 -4.52411e-05 0)
(-0.0507289 -9.70539e-05 0)
(-0.131356 -0.00114026 0)
(-0.345567 -0.00160238 0)
(-0.560588 -0.00115578 0)
(-0.711663 -0.00056035 0)
(-0.79807 -0.000528681 0)
(-0.847621 -0.000435296 0)
(-0.879356 -0.00037789 0)
(-0.902514 -0.000336302 0)
(-0.921354 -0.00030162 0)
(-0.937861 -0.000271145 0)
(-0.952988 -0.000243914 0)
(-0.96722 -0.00021934 0)
(-0.980803 -0.000197027 0)
(-0.993863 -0.000176695 0)
(-1.00647 -0.000158139 0)
(-1.01866 -0.000141196 0)
(-1.03046 -0.000125733 0)
(-1.04188 -0.000111637 0)
(-1.05296 -9.88043e-05 0)
(-1.06369 -8.71442e-05 0)
(-1.07409 -7.65721e-05 0)
(-1.08419 -6.70099e-05 0)
(-1.09399 -5.83854e-05 0)
(-1.10351 -5.06317e-05 0)
(-1.11277 -4.3687e-05 0)
(-1.12178 -3.74942e-05 0)
(-1.13055 -3.19997e-05 0)
(-1.1391 -2.71515e-05 0)
(-1.14743 -2.28985e-05 0)
(-1.15555 -1.91888e-05 0)
(-1.16349 -1.59703e-05 0)
(-1.17124 -1.3191e-05 0)
(-1.17881 -1.08007e-05 0)
(-1.18621 -8.75286e-06 0)
(-1.19345 -7.00553e-06 0)
(-1.20054 -5.52275e-06 0)
(-1.20747 -4.2746e-06 0)
(-1.21425 -3.23639e-06 0)
(-1.22089 -2.38695e-06 0)
(-1.22739 -1.70578e-06 0)
(-1.23375 -1.16984e-06 0)
(-1.23997 -7.5187e-07 0)
(-1.24605 -4.23355e-07 0)
(-1.252 -1.62933e-07 0)
(-1.25781 3.61062e-08 0)
(-1.26347 1.7012e-07 0)
(-1.26899 2.40001e-07 0)
(-1.27435 2.60091e-07 0)
(-1.27956 2.52054e-07 0)
(-1.2846 2.3308e-07 0)
(-1.28947 2.10661e-07 0)
(-1.29421 1.86419e-07 0)
(-1.29885 1.62907e-07 0)
(-1.30337 1.43461e-07 0)
(-1.30773 1.2673e-07 0)
(-1.3119 1.0944e-07 0)
(-1.31585 9.33617e-08 0)
(-1.31951 8.13508e-08 0)
(-1.32284 7.11648e-08 0)
(-1.32574 6.06415e-08 0)
(-1.32812 5.14278e-08 0)
(-1.32984 4.41824e-08 0)
(-1.33072 3.77062e-08 0)
(-1.33049 3.20076e-08 0)
(-1.32878 2.72076e-08 0)
(-1.32504 2.26963e-08 0)
(-1.31834 1.91566e-08 0)
(-1.30629 1.79771e-08 0)
(-1.28098 9.23538e-09 0)
(-1.21771 1.83077e-08 0)
(-1.19952 2.7035e-09 0)
(-1.19885 1.39625e-08 0)
(-1.19883 1.45729e-09 0)
(-1.19882 1.07884e-08 0)
(-1.19882 -8.48449e-10 0)
(-1.19881 9.11105e-09 0)
(-1.1988 -2.51474e-09 0)
(-1.1988 8.19071e-09 0)
(-1.1988 -4.15333e-09 0)
(-1.19879 7.85098e-09 0)
(-1.19879 -5.33284e-09 0)
(-1.19879 7.64429e-09 0)
(-1.19879 -6.21977e-09 0)
(-1.19879 7.69445e-09 0)
(-1.19879 -7.05743e-09 0)
(-1.19878 7.89474e-09 0)
(-1.19878 -7.94269e-09 0)
(-1.19878 8.64369e-09 0)
(-1.19878 -7.75769e-09 0)
(-1.19878 9.06958e-09 0)
(-1.19878 -8.9025e-09 0)
(-1.19878 8.21011e-09 0)
(-1.19878 -1.28788e-08 0)
(-1.19878 1.32352e-08 0)
(-1.19878 -1.3649e-08 0)
(-1.19878 1.40202e-08 0)
(-1.19878 -1.44531e-08 0)
(-1.19878 1.48332e-08 0)
(-1.19878 -1.52857e-08 0)
(-1.19878 1.56735e-08 0)
(-1.19878 -1.61433e-08 0)
(-1.19878 1.65432e-08 0)
(-1.19878 -1.70231e-08 0)
(-1.19878 1.74317e-08 0)
(-1.19878 -1.79244e-08 0)
(-1.19878 1.8345e-08 0)
(-1.19878 -1.88438e-08 0)
(-1.19878 1.9274e-08 0)
(-1.19878 -1.97833e-08 0)
(-1.19878 2.02173e-08 0)
(-1.19878 -2.07361e-08 0)
(-1.19878 2.11738e-08 0)
(-1.19878 -2.1701e-08 0)
(-1.19878 2.21422e-08 0)
(-1.19878 -2.26748e-08 0)
(-1.19878 2.31167e-08 0)
(-1.19878 -2.36547e-08 0)
(-1.19878 2.40972e-08 0)
(-1.19878 -2.46349e-08 0)
(-1.19878 2.50811e-08 0)
(-1.19878 -2.56141e-08 0)
(-1.19878 2.60621e-08 0)
(-1.19878 -2.65909e-08 0)
(-1.19878 2.70334e-08 0)
(-1.19878 -2.75604e-08 0)
(-1.19878 2.79955e-08 0)
(-1.19878 -2.85149e-08 0)
(-1.19878 2.89453e-08 0)
(-1.19878 -2.94501e-08 0)
(-1.19878 2.98732e-08 0)
(-1.19878 -3.0364e-08 0)
(-1.19878 3.07743e-08 0)
(-1.19878 -3.12474e-08 0)
(-1.19878 3.16436e-08 0)
(-1.19878 -3.2092e-08 0)
(-1.19878 3.24728e-08 0)
(-1.19878 -3.28926e-08 0)
(-1.19878 3.32489e-08 0)
(-1.19878 -3.36401e-08 0)
(-1.19878 3.39659e-08 0)
(-1.19878 -3.43175e-08 0)
(-1.19878 3.46116e-08 0)
(-1.19878 -3.49124e-08 0)
(-1.19878 3.5172e-08 0)
(-1.19878 -3.54128e-08 0)
(-1.19878 3.56276e-08 0)
(-1.19878 -3.57781e-08 0)
(-1.19878 3.5995e-08 0)
(-1.19878 -3.5955e-08 0)
(-1.19878 3.62064e-08 0)
(-1.19878 -3.59198e-08 0)
(-1.19878 3.61476e-08 0)
(-1.19878 -3.55262e-08 0)
(-1.19878 3.55709e-08 0)
(-1.19878 -3.43883e-08 0)
(-1.19878 3.3822e-08 0)
(-1.19878 -3.09126e-08 0)
(-1.19878 2.90272e-08 0)
(-1.19878 -2.74112e-08 0)
(-1.19878 2.77132e-08 0)
(-1.19878 -2.33572e-08 0)
(-1.19878 2.34354e-08 0)
(-1.19878 -2.21115e-08 0)
(-1.19878 2.23424e-08 0)
(-1.19878 -2.10088e-08 0)
(-1.19878 2.13554e-08 0)
(-1.19878 -2.00773e-08 0)
(-1.19878 2.04115e-08 0)
(-1.19878 -1.92645e-08 0)
(-1.19878 1.94425e-08 0)
(-1.19878 -1.85574e-08 0)
(-1.19878 1.85595e-08 0)
(-1.19878 -1.78702e-08 0)
(-1.19878 1.76292e-08 0)
(-1.19878 -1.73345e-08 0)
(-1.19878 1.66721e-08 0)
(-1.19878 -1.68982e-08 0)
(-1.19878 1.56019e-08 0)
(-1.19878 -1.63699e-08 0)
(-1.19878 1.5172e-08 0)
(-1.19878 -1.54336e-08 0)
(-1.19878 1.43904e-08 0)
(-1.19878 -1.5216e-08 0)
(-1.19878 1.31181e-08 0)
(-1.19878 -1.5794e-08 0)
(-1.19878 1.05122e-08 0)
(-1.19878 -1.72883e-08 0)
(-1.19878 8.31873e-09 0)
(-1.19878 -1.86814e-08 0)
(-1.19878 4.54684e-09 0)
(-1.19878 -2.22802e-08 0)
(-1.19878 -6.7691e-10 0)
(-1.19878 -2.74498e-08 0)
(-1.19878 -8.24435e-09 0)
(-1.19878 -3.48373e-08 0)
(-1.19878 -1.6955e-08 0)
(-1.19878 -4.33069e-08 0)
(-1.19878 -2.7462e-08 0)
(-1.19878 -5.39433e-08 0)
(-1.19878 -3.95012e-08 0)
(-1.19878 -6.56159e-08 0)
(-1.19878 -5.27528e-08 0)
(-1.19878 -8.08618e-08 0)
(-1.19878 -7.19264e-08 0)
(-1.19878 -9.94018e-08 0)
(-1.19878 -8.86852e-08 0)
(-1.19878 -1.13768e-07 0)
(-1.19878 -1.0456e-07 0)
(-1.19878 -1.34586e-07 0)
(-1.19878 -5.82019e-08 0)
)
;

boundaryField
{
    inandouthalf11
    {
        type            cyclic;
    }
    inandouthalf12
    {
        type            cyclic;
    }
    inandouthalf21
    {
        type            cyclic;
    }
    inandouthalf22
    {
        type            cyclic;
    }
    inandouthalf31
    {
        type            cyclic;
    }
    inandouthalf32
    {
        type            cyclic;
    }
    inandouthalf41
    {
        type            cyclic;
    }
    inandouthalf42
    {
        type            cyclic;
    }
    top
    {
        type            symmetryPlane;
    }
    walls
    {
        type            calculated;
        value           uniform (0 0 0);
    }
    frontAndBackPlanes
    {
        type            empty;
    }
}


// ************************************************************************* //
