/*--------------------------------*- C++ -*----------------------------------*\
| =========                 |                                                 |
| \\      /  F ield         | OpenFOAM: The Open Source CFD Toolbox           |
|  \\    /   O peration     | Version:  2.4.x                                 |
|   \\  /    A nd           | Web:      www.OpenFOAM.org                      |
|    \\/     M anipulation  |                                                 |
\*---------------------------------------------------------------------------*/
FoamFile
{
    version     2.0;
    format      ascii;
    class       surfaceScalarField;
    location    "3.2";
    object      ddt0(phib);
}
// * * * * * * * * * * * * * * * * * * * * * * * * * * * * * * * * * * * * * //

dimensions      [0 3 -2 0 0 0 0];

internalField   nonuniform List<scalar> 
359
(
-1.09795e-12
-5.15307e-12
-1.05852e-11
-1.50222e-11
-1.78136e-11
-1.92983e-11
-2.00099e-11
-2.04562e-11
-2.11001e-11
-2.2387e-11
-2.47638e-11
-2.86506e-11
-3.42701e-11
-4.1145e-11
-4.7292e-11
-4.884e-11
-4.1846e-11
-2.64771e-11
-8.57912e-12
5.29618e-12
1.31028e-11
1.65785e-11
1.79131e-11
1.83694e-11
1.8474e-11
1.84187e-11
1.82727e-11
1.80677e-11
1.7828e-11
1.7578e-11
1.73387e-11
1.71222e-11
1.69316e-11
1.67616e-11
1.66048e-11
1.64535e-11
1.6302e-11
1.61468e-11
1.59862e-11
1.58203e-11
1.56496e-11
1.54752e-11
1.52982e-11
1.5119e-11
1.49383e-11
1.47562e-11
1.45726e-11
1.4387e-11
1.41987e-11
1.40067e-11
1.38105e-11
1.36094e-11
1.34027e-11
1.31898e-11
1.29702e-11
1.27429e-11
1.25076e-11
1.22638e-11
1.20112e-11
1.17501e-11
1.14803e-11
1.12028e-11
1.09182e-11
1.06277e-11
1.03322e-11
1.00319e-11
9.72648e-12
9.41486e-12
9.09528e-12
8.76568e-12
8.42341e-12
8.06639e-12
7.69327e-12
7.30304e-12
6.89605e-12
6.47316e-12
6.03648e-12
5.58806e-12
5.12968e-12
4.66257e-12
4.18727e-12
3.70347e-12
3.21029e-12
2.70668e-12
2.19166e-12
1.66461e-12
1.12539e-12
5.74575e-13
1.31047e-14
-5.57937e-13
-1.1374e-12
-1.72436e-12
-2.31823e-12
-2.91866e-12
-3.5257e-12
-4.13939e-12
-4.75992e-12
-5.38748e-12
-6.02218e-12
-6.66411e-12
-7.3133e-12
-7.96972e-12
-8.63334e-12
-9.30396e-12
-9.98135e-12
-1.06651e-11
-1.13545e-11
-1.2049e-11
-1.27475e-11
-1.34489e-11
-1.41522e-11
-1.48559e-11
-1.5559e-11
-1.62604e-11
-1.69596e-11
-1.76564e-11
-1.83515e-11
-1.90469e-11
-1.97456e-11
-2.04527e-11
-2.1175e-11
-2.19218e-11
-2.27052e-11
-2.35402e-11
-2.44453e-11
-2.5442e-11
-2.65547e-11
-2.78099e-11
-2.9233e-11
-3.08456e-11
-3.26601e-11
-3.46764e-11
-3.68812e-11
-3.92484e-11
-4.17348e-11
-4.42676e-11
-4.67434e-11
-4.90503e-11
-5.10822e-11
-5.27209e-11
-5.3838e-11
-5.43973e-11
-5.45671e-11
-5.45315e-11
-5.43937e-11
-5.37663e-11
-1.13754e-10
-1.93485e-10
-2.64656e-10
-2.91024e-09
-4.75317e-09
-4.93712e-09
-3.39032e-09
-2.30161e-09
-1.8818e-09
-1.61811e-09
-1.42976e-09
-1.27636e-09
-1.14554e-09
-1.03009e-09
-9.26504e-10
-8.32743e-10
-7.47454e-10
-6.69674e-10
-5.98673e-10
-5.33861e-10
-4.74742e-10
-4.20883e-10
-3.71897e-10
-3.27433e-10
-2.87165e-10
-2.50792e-10
-2.18035e-10
-1.88638e-10
-1.62363e-10
-1.38987e-10
-1.18301e-10
-1.00099e-10
-8.4174e-11
-7.03185e-11
-5.83239e-11
-4.7986e-11
-3.91107e-11
-3.15207e-11
-2.50604e-11
-1.95979e-11
-1.50238e-11
-1.12465e-11
-8.18351e-12
-5.74941e-12
-3.84527e-12
-2.35838e-12
-1.18235e-12
-2.55912e-13
4.19681e-13
8.2754e-13
9.99868e-13
1.01808e-12
9.64242e-13
8.86247e-13
7.96068e-13
6.97203e-13
6.0967e-13
5.42815e-13
4.75973e-13
4.02981e-13
3.47457e-13
3.08318e-13
2.64596e-13
2.22212e-13
1.91805e-13
1.64727e-13
1.38735e-13
1.18819e-13
1.00561e-13
8.30129e-14
7.13742e-14
6.16048e-14
5.02438e-14
4.17604e-14
3.5777e-14
2.98562e-14
2.47358e-14
2.00884e-14
1.6182e-14
1.36165e-14
1.09443e-14
8.51096e-15
6.97954e-15
5.47668e-15
4.18611e-15
3.30596e-15
2.47706e-15
1.77603e-15
1.15506e-15
4.85477e-16
8.74937e-16
2.10429e-15
2.32466e-15
8.74218e-16
-2.45723e-15
-7.23515e-15
-5.16434e-17
-4.5396e-17
-4.94662e-17
-5.88443e-17
-6.13541e-17
-7.17492e-17
-7.3923e-17
-8.38335e-17
-7.19223e-17
-7.09955e-17
-8.45328e-17
-7.58147e-17
-7.25927e-17
-7.28534e-17
-7.09022e-17
-7.62249e-17
-8.28772e-17
-8.31637e-17
-8.64177e-17
-8.68504e-17
-8.60993e-17
-9.46441e-17
-9.22302e-17
-9.29806e-17
-9.87159e-17
-9.70299e-17
-8.81503e-17
-8.7517e-17
-8.05082e-17
-8.06235e-17
-8.62479e-17
-8.42388e-17
-9.26271e-17
-8.74503e-17
-8.17786e-17
-7.53581e-17
-7.24181e-17
-7.37138e-17
-7.32151e-17
-6.97667e-17
-6.80588e-17
-5.6728e-17
-5.50772e-17
-4.47938e-17
-4.80803e-17
-5.57311e-17
-4.68119e-17
-4.0933e-17
-3.61212e-17
-2.54718e-17
-8.52713e-18
-3.88351e-18
7.09616e-18
-3.69902e-18
1.50213e-16
2.76371e-16
4.16918e-16
5.2502e-16
6.76982e-16
7.91177e-16
9.05085e-16
9.81113e-16
1.1716e-15
1.28458e-15
1.39579e-15
1.41189e-15
1.53676e-15
1.51381e-15
1.50829e-15
1.367e-15
1.59077e-15
1.651e-15
1.7202e-15
1.58432e-15
1.63137e-15
1.43704e-15
1.2572e-15
8.26178e-16
8.78773e-16
6.22111e-16
3.75928e-16
-2.57947e-16
-4.64474e-16
-1.17778e-15
-1.76074e-15
-3.10533e-15
-1.35264e-15
-1.09916e-15
-7.76978e-16
-2.82934e-15
-2.53723e-15
-5.79906e-15
-8.9283e-15
-1.60704e-14
-1.60043e-14
-2.10024e-14
-2.59809e-14
-3.69796e-14
-4.36117e-14
-5.6419e-14
-6.94303e-14
-8.75332e-14
-1.01829e-13
-1.20689e-13
-1.39848e-13
-1.63235e-13
-1.86215e-13
-2.0997e-13
-2.35813e-13
-2.62297e-13
-3.07997e-13
-3.42632e-13
-3.79695e-13
-4.02441e-13
-4.35703e-13
-4.70339e-13
-5.49878e-13
)
;

boundaryField
{
    inandouthalf11
    {
        type            cyclic;
        value           nonuniform List<scalar> 
100
(
-1.26894e-10
-1.27692e-10
-1.27831e-10
-1.27833e-10
-1.27831e-10
-1.27856e-10
-1.27899e-10
-1.27934e-10
-1.2795e-10
-1.27979e-10
-1.28064e-10
-1.28241e-10
-1.28535e-10
-1.28934e-10
-1.29359e-10
-1.2962e-10
-1.29444e-10
-1.28689e-10
-1.27575e-10
-1.26556e-10
-1.25901e-10
-1.25581e-10
-1.25449e-10
-1.254e-10
-1.25385e-10
-1.25384e-10
-1.2539e-10
-1.25403e-10
-1.25419e-10
-1.25437e-10
-1.25454e-10
-1.25471e-10
-1.25486e-10
-1.255e-10
-1.25513e-10
-1.25525e-10
-1.25538e-10
-1.25552e-10
-1.25568e-10
-1.25583e-10
-1.25601e-10
-1.2562e-10
-1.25639e-10
-1.2566e-10
-1.25681e-10
-1.25704e-10
-1.25727e-10
-1.25751e-10
-1.25777e-10
-1.25805e-10
-1.25833e-10
-1.25864e-10
-1.25895e-10
-1.25929e-10
-1.25964e-10
-1.26003e-10
-1.26042e-10
-1.26084e-10
-1.26128e-10
-1.26173e-10
-1.26221e-10
-1.26271e-10
-1.26322e-10
-1.26374e-10
-1.26427e-10
-1.26481e-10
-1.26537e-10
-1.26595e-10
-1.26654e-10
-1.26716e-10
-1.26781e-10
-1.26848e-10
-1.26918e-10
-1.26992e-10
-1.27067e-10
-1.27145e-10
-1.27225e-10
-1.27306e-10
-1.27389e-10
-1.27474e-10
-1.2756e-10
-1.27649e-10
-1.2774e-10
-1.27832e-10
-1.27928e-10
-1.28025e-10
-1.28125e-10
-1.28226e-10
-1.2833e-10
-1.28435e-10
-1.28542e-10
-1.28651e-10
-1.28762e-10
-1.28874e-10
-1.28989e-10
-1.29105e-10
-1.29223e-10
-1.29344e-10
-1.29466e-10
-1.29591e-10
)
;
    }
    inandouthalf12
    {
        type            cyclic;
        value           nonuniform List<scalar> 
100
(
1.26894e-10
1.27692e-10
1.27831e-10
1.27833e-10
1.27831e-10
1.27856e-10
1.27899e-10
1.27934e-10
1.2795e-10
1.27979e-10
1.28064e-10
1.28241e-10
1.28535e-10
1.28934e-10
1.29359e-10
1.2962e-10
1.29444e-10
1.28689e-10
1.27575e-10
1.26556e-10
1.25901e-10
1.25581e-10
1.25449e-10
1.254e-10
1.25385e-10
1.25384e-10
1.2539e-10
1.25403e-10
1.25419e-10
1.25437e-10
1.25454e-10
1.25471e-10
1.25486e-10
1.255e-10
1.25513e-10
1.25525e-10
1.25538e-10
1.25552e-10
1.25568e-10
1.25583e-10
1.25601e-10
1.2562e-10
1.25639e-10
1.2566e-10
1.25681e-10
1.25704e-10
1.25727e-10
1.25751e-10
1.25777e-10
1.25805e-10
1.25833e-10
1.25864e-10
1.25895e-10
1.25929e-10
1.25964e-10
1.26003e-10
1.26042e-10
1.26084e-10
1.26128e-10
1.26173e-10
1.26221e-10
1.26271e-10
1.26322e-10
1.26374e-10
1.26427e-10
1.26481e-10
1.26537e-10
1.26595e-10
1.26654e-10
1.26716e-10
1.26781e-10
1.26848e-10
1.26918e-10
1.26992e-10
1.27067e-10
1.27145e-10
1.27225e-10
1.27306e-10
1.27389e-10
1.27474e-10
1.2756e-10
1.27649e-10
1.2774e-10
1.27832e-10
1.27928e-10
1.28025e-10
1.28125e-10
1.28226e-10
1.2833e-10
1.28435e-10
1.28542e-10
1.28651e-10
1.28762e-10
1.28874e-10
1.28989e-10
1.29105e-10
1.29223e-10
1.29344e-10
1.29466e-10
1.29591e-10
)
;
    }
    inandouthalf21
    {
        type            cyclic;
        value           nonuniform List<scalar> 
100
(
-1.29717e-10
-1.29846e-10
-1.29978e-10
-1.30111e-10
-1.30247e-10
-1.30385e-10
-1.30526e-10
-1.30669e-10
-1.30815e-10
-1.30963e-10
-1.31114e-10
-1.31267e-10
-1.31423e-10
-1.31582e-10
-1.31743e-10
-1.31907e-10
-1.32074e-10
-1.32244e-10
-1.32418e-10
-1.32596e-10
-1.32779e-10
-1.32968e-10
-1.33164e-10
-1.33369e-10
-1.33584e-10
-1.33813e-10
-1.34058e-10
-1.34322e-10
-1.34609e-10
-1.34924e-10
-1.35268e-10
-1.35643e-10
-1.36051e-10
-1.36492e-10
-1.36967e-10
-1.37466e-10
-1.37977e-10
-1.38489e-10
-1.39002e-10
-1.39517e-10
-1.40003e-10
-1.40402e-10
-1.40829e-10
-1.41377e-10
-1.42046e-10
-1.42934e-10
-1.49373e-10
-1.69553e-10
-2.05937e-10
5.07289e-08
1.31356e-07
3.45567e-07
5.60588e-07
7.11663e-07
7.9807e-07
8.47621e-07
8.79356e-07
9.02514e-07
9.21354e-07
9.37861e-07
9.52988e-07
9.6722e-07
9.80803e-07
9.93863e-07
1.00647e-06
1.01866e-06
1.03046e-06
1.04188e-06
1.05296e-06
1.06369e-06
1.07409e-06
1.08419e-06
1.09399e-06
1.10351e-06
1.11277e-06
1.12178e-06
1.13055e-06
1.1391e-06
1.14743e-06
1.15555e-06
1.16349e-06
1.17124e-06
1.17881e-06
1.18621e-06
1.19345e-06
1.20054e-06
1.20747e-06
1.21425e-06
1.22089e-06
1.22739e-06
1.23375e-06
1.23997e-06
1.24605e-06
1.252e-06
1.25781e-06
1.26347e-06
1.26899e-06
1.27435e-06
1.27956e-06
1.2846e-06
)
;
    }
    inandouthalf22
    {
        type            cyclic;
        value           nonuniform List<scalar> 
100
(
1.29717e-10
1.29846e-10
1.29978e-10
1.30111e-10
1.30247e-10
1.30385e-10
1.30526e-10
1.30669e-10
1.30815e-10
1.30963e-10
1.31114e-10
1.31267e-10
1.31423e-10
1.31582e-10
1.31743e-10
1.31907e-10
1.32074e-10
1.32244e-10
1.32418e-10
1.32596e-10
1.32779e-10
1.32968e-10
1.33164e-10
1.33369e-10
1.33584e-10
1.33813e-10
1.34058e-10
1.34322e-10
1.34609e-10
1.34924e-10
1.35268e-10
1.35643e-10
1.36051e-10
1.36492e-10
1.36967e-10
1.37466e-10
1.37977e-10
1.38489e-10
1.39002e-10
1.39517e-10
1.40003e-10
1.40402e-10
1.40829e-10
1.41377e-10
1.42046e-10
1.42934e-10
1.49373e-10
1.69553e-10
2.05937e-10
-5.07289e-08
-1.31356e-07
-3.45567e-07
-5.60588e-07
-7.11663e-07
-7.9807e-07
-8.47621e-07
-8.79356e-07
-9.02514e-07
-9.21354e-07
-9.37861e-07
-9.52988e-07
-9.6722e-07
-9.80803e-07
-9.93863e-07
-1.00647e-06
-1.01866e-06
-1.03046e-06
-1.04188e-06
-1.05296e-06
-1.06369e-06
-1.07409e-06
-1.08419e-06
-1.09399e-06
-1.10351e-06
-1.11277e-06
-1.12178e-06
-1.13055e-06
-1.1391e-06
-1.14743e-06
-1.15555e-06
-1.16349e-06
-1.17124e-06
-1.17881e-06
-1.18621e-06
-1.19345e-06
-1.20054e-06
-1.20747e-06
-1.21425e-06
-1.22089e-06
-1.22739e-06
-1.23375e-06
-1.23997e-06
-1.24605e-06
-1.252e-06
-1.25781e-06
-1.26347e-06
-1.26899e-06
-1.27435e-06
-1.27956e-06
-1.2846e-06
)
;
    }
    inandouthalf31
    {
        type            cyclic;
        value           nonuniform List<scalar> 
110
(
1.28948e-06
1.32049e-06
1.35212e-06
1.38436e-06
1.41718e-06
1.45056e-06
1.48446e-06
1.51881e-06
1.55354e-06
1.58855e-06
1.62371e-06
1.65881e-06
1.69359e-06
1.72767e-06
1.76048e-06
1.79115e-06
1.81827e-06
1.83822e-06
1.83918e-06
1.78383e-06
1.79285e-06
1.82822e-06
1.8653e-06
1.90314e-06
1.94176e-06
1.98116e-06
2.02137e-06
2.06239e-06
2.10424e-06
2.14695e-06
2.19052e-06
2.23498e-06
2.28034e-06
2.32662e-06
2.37385e-06
2.42203e-06
2.47119e-06
2.52134e-06
2.57252e-06
2.62473e-06
2.67801e-06
2.73236e-06
2.78782e-06
2.84441e-06
2.90214e-06
2.96105e-06
3.02115e-06
3.08247e-06
3.14503e-06
3.20887e-06
3.274e-06
3.34045e-06
3.40826e-06
3.47744e-06
3.54802e-06
3.62003e-06
3.69351e-06
3.76848e-06
3.84497e-06
3.92301e-06
4.00264e-06
4.08388e-06
4.16677e-06
4.25135e-06
4.33764e-06
4.42568e-06
4.51551e-06
4.60716e-06
4.70068e-06
4.79609e-06
4.89343e-06
4.99276e-06
5.0941e-06
5.1975e-06
5.30299e-06
5.41063e-06
5.52045e-06
5.6325e-06
5.74682e-06
5.86347e-06
5.98248e-06
6.10391e-06
6.2278e-06
6.35421e-06
6.48318e-06
6.61478e-06
6.74904e-06
6.88603e-06
7.02579e-06
7.1684e-06
7.3139e-06
7.46235e-06
7.61382e-06
7.76836e-06
7.92603e-06
8.08691e-06
8.25105e-06
8.41853e-06
8.5894e-06
8.76374e-06
8.94162e-06
9.12311e-06
9.30829e-06
9.49722e-06
9.68999e-06
9.88667e-06
1.00873e-05
1.02921e-05
1.0501e-05
1.07141e-05
)
;
    }
    inandouthalf32
    {
        type            cyclic;
        value           nonuniform List<scalar> 
110
(
-1.28948e-06
-1.32049e-06
-1.35212e-06
-1.38436e-06
-1.41718e-06
-1.45056e-06
-1.48446e-06
-1.51881e-06
-1.55354e-06
-1.58855e-06
-1.62371e-06
-1.65881e-06
-1.69359e-06
-1.72767e-06
-1.76048e-06
-1.79115e-06
-1.81827e-06
-1.83822e-06
-1.83918e-06
-1.78383e-06
-1.79285e-06
-1.82822e-06
-1.8653e-06
-1.90314e-06
-1.94176e-06
-1.98116e-06
-2.02137e-06
-2.06239e-06
-2.10424e-06
-2.14695e-06
-2.19052e-06
-2.23498e-06
-2.28034e-06
-2.32662e-06
-2.37385e-06
-2.42203e-06
-2.47119e-06
-2.52134e-06
-2.57252e-06
-2.62473e-06
-2.67801e-06
-2.73236e-06
-2.78782e-06
-2.84441e-06
-2.90214e-06
-2.96105e-06
-3.02115e-06
-3.08247e-06
-3.14503e-06
-3.20887e-06
-3.274e-06
-3.34045e-06
-3.40826e-06
-3.47744e-06
-3.54802e-06
-3.62003e-06
-3.69351e-06
-3.76848e-06
-3.84497e-06
-3.92301e-06
-4.00264e-06
-4.08388e-06
-4.16677e-06
-4.25135e-06
-4.33764e-06
-4.42568e-06
-4.51551e-06
-4.60716e-06
-4.70068e-06
-4.79609e-06
-4.89343e-06
-4.99276e-06
-5.0941e-06
-5.1975e-06
-5.30299e-06
-5.41063e-06
-5.52045e-06
-5.6325e-06
-5.74682e-06
-5.86347e-06
-5.98248e-06
-6.10391e-06
-6.2278e-06
-6.35421e-06
-6.48318e-06
-6.61478e-06
-6.74904e-06
-6.88603e-06
-7.02579e-06
-7.1684e-06
-7.3139e-06
-7.46235e-06
-7.61382e-06
-7.76836e-06
-7.92603e-06
-8.08691e-06
-8.25105e-06
-8.41853e-06
-8.5894e-06
-8.76374e-06
-8.94162e-06
-9.12311e-06
-9.30829e-06
-9.49722e-06
-9.68999e-06
-9.88667e-06
-1.00873e-05
-1.02921e-05
-1.0501e-05
-1.07141e-05
)
;
    }
    inandouthalf41
    {
        type            cyclic;
        value           nonuniform List<scalar> 
50
(
9.59024e-06
9.59024e-06
9.59024e-06
9.59024e-06
9.59024e-06
9.59024e-06
9.59024e-06
9.59024e-06
9.59024e-06
9.59024e-06
9.59024e-06
9.59024e-06
9.59024e-06
9.59024e-06
9.59024e-06
9.59024e-06
9.59024e-06
9.59024e-06
9.59024e-06
9.59024e-06
9.59024e-06
9.59024e-06
9.59024e-06
9.59024e-06
9.59024e-06
9.59024e-06
9.59024e-06
9.59024e-06
9.59024e-06
9.59024e-06
9.59024e-06
9.59024e-06
9.59024e-06
9.59024e-06
9.59024e-06
9.59024e-06
9.59024e-06
9.59024e-06
9.59024e-06
9.59024e-06
9.59024e-06
9.59024e-06
9.59024e-06
9.59024e-06
9.59024e-06
9.59024e-06
9.59024e-06
9.59024e-06
9.59024e-06
9.59024e-06
)
;
    }
    inandouthalf42
    {
        type            cyclic;
        value           nonuniform List<scalar> 
50
(
-9.59024e-06
-9.59024e-06
-9.59024e-06
-9.59024e-06
-9.59024e-06
-9.59024e-06
-9.59024e-06
-9.59024e-06
-9.59024e-06
-9.59024e-06
-9.59024e-06
-9.59024e-06
-9.59024e-06
-9.59024e-06
-9.59024e-06
-9.59024e-06
-9.59024e-06
-9.59024e-06
-9.59024e-06
-9.59024e-06
-9.59024e-06
-9.59024e-06
-9.59024e-06
-9.59024e-06
-9.59024e-06
-9.59024e-06
-9.59024e-06
-9.59024e-06
-9.59024e-06
-9.59024e-06
-9.59024e-06
-9.59024e-06
-9.59024e-06
-9.59024e-06
-9.59024e-06
-9.59024e-06
-9.59024e-06
-9.59024e-06
-9.59024e-06
-9.59024e-06
-9.59024e-06
-9.59024e-06
-9.59024e-06
-9.59024e-06
-9.59024e-06
-9.59024e-06
-9.59024e-06
-9.59024e-06
-9.59024e-06
-9.59024e-06
)
;
    }
    top
    {
        type            symmetryPlane;
        value           uniform 0;
    }
    walls
    {
        type            calculated;
        value           uniform 0;
    }
    frontAndBackPlanes
    {
        type            empty;
        value           nonuniform 0();
    }
}


// ************************************************************************* //
