/*--------------------------------*- C++ -*----------------------------------*\
| =========                 |                                                 |
| \\      /  F ield         | OpenFOAM: The Open Source CFD Toolbox           |
|  \\    /   O peration     | Version:  2.4.x                                 |
|   \\  /    A nd           | Web:      www.OpenFOAM.org                      |
|    \\/     M anipulation  |                                                 |
\*---------------------------------------------------------------------------*/
FoamFile
{
    version     2.0;
    format      ascii;
    class       volScalarField;
    location    "3.2";
    object      ddt0(((1.5*(alpha+1e-08))*rho),Theta);
}
// * * * * * * * * * * * * * * * * * * * * * * * * * * * * * * * * * * * * * //

dimensions      [1 -1 -3 0 0 0 0];

internalField   nonuniform List<scalar> 
360
(
-1.14217e-19
-9.79143e-19
-1.49518e-18
-1.05821e-18
-5.95504e-19
-2.99412e-19
-1.39521e-19
-8.63267e-20
-1.27388e-19
-2.5801e-19
-4.85374e-19
-8.33009e-19
-1.30987e-18
-1.78856e-18
-1.7757e-18
-4.53226e-19
2.09263e-18
3.70613e-18
2.90772e-18
1.2642e-18
3.43868e-19
6.89604e-20
1.24629e-20
2.3239e-21
3.53701e-22
-1.63277e-22
-4.09942e-22
-6.14948e-22
-8.00607e-22
-9.29124e-22
-9.6741e-22
-9.21707e-22
-8.32172e-22
-7.42505e-22
-6.77159e-22
-6.41804e-22
-6.32043e-22
-6.40285e-22
-6.58589e-22
-6.80874e-22
-7.04167e-22
-7.25946e-22
-7.45461e-22
-7.63836e-22
-7.81304e-22
-7.98591e-22
-8.16921e-22
-8.38252e-22
-8.65911e-22
-9.0067e-22
-9.41195e-22
-9.87789e-22
-1.04139e-21
-1.10254e-21
-1.17238e-21
-1.25178e-21
-1.34029e-21
-1.43713e-21
-1.53997e-21
-1.6465e-21
-1.75419e-21
-1.85754e-21
-1.95157e-21
-2.03353e-21
-2.10457e-21
-2.17146e-21
-2.24433e-21
-2.33336e-21
-2.44755e-21
-2.59662e-21
-2.78848e-21
-3.02162e-21
-3.28857e-21
-3.58122e-21
-3.88584e-21
-4.18356e-21
-4.45725e-21
-4.69969e-21
-4.91426e-21
-5.10942e-21
-5.29826e-21
-5.49671e-21
-5.7171e-21
-5.96481e-21
-6.23884e-21
-6.53215e-21
-6.83301e-21
-7.1277e-21
-7.40516e-21
-7.65951e-21
-7.88976e-21
-8.09984e-21
-8.29703e-21
-8.48872e-21
-8.68057e-21
-8.87606e-21
-9.07625e-21
-9.2804e-21
-9.48686e-21
-9.67811e-21
0
0
0
0
0
0
0
0
0
0
0
0
0
0
0
-1.11156e-20
-1.11125e-20
-1.11714e-20
-1.13278e-20
-1.16256e-20
-1.21195e-20
-1.28781e-20
-1.39881e-20
-1.55592e-20
-1.77281e-20
-2.06599e-20
-2.4541e-20
-2.94504e-20
1.83791e-17
9.42087e-17
1.32918e-16
-8.18004e-16
-8.67954e-15
-5.15432e-14
-2.39929e-13
-9.4224e-13
-3.19213e-12
-9.37597e-12
-2.39039e-11
-5.29736e-11
-1.01163e-10
-1.65118e-10
-2.90634e-10
-1.03079e-09
-6.9763e-09
-5.26513e-08
1.1781e-06
0.000590904
0.0379544
0.819058
1.90576
1.13976
0.443043
0.159198
0.0555235
0.0127419
-0.00832149
-0.0198333
-0.0263924
-0.030126
-0.0321191
-0.0329803
-0.0330758
-0.0326381
-0.031823
-0.0307388
-0.0294642
-0.0280575
-0.0265633
-0.0250161
-0.0234433
-0.0218667
-0.0203044
-0.0187714
-0.0172807
-0.0158436
-0.0144698
-0.0131676
-0.0119434
-0.0108013
-0.00974315
-0.0087682
-0.00787323
-0.00705289
-0.00629968
-0.00560452
-0.00495702
-0.00434611
-0.00376119
-0.00319437
-0.00264415
-0.00211984
-0.00164311
-0.00124093
-0.000930482
-0.000707638
-0.000551787
-0.000440438
-0.000357671
-0.000294283
-0.000245055
-0.000205388
-0.000171887
-0.000143837
-0.000121608
-0.000102993
-8.60597e-05
-7.21821e-05
-6.13712e-05
-5.16376e-05
-4.3061e-05
-3.62534e-05
-3.04037e-05
-2.52659e-05
-2.11675e-05
-1.76423e-05
-1.44604e-05
-1.20384e-05
-1.00374e-05
-8.174e-06
-6.69483e-06
-5.50175e-06
-4.47135e-06
-3.64685e-06
-2.93202e-06
-2.33402e-06
-1.88842e-06
-1.49578e-06
-1.1717e-06
-9.31778e-07
-7.21534e-07
-5.60209e-07
-4.31772e-07
-3.30625e-07
-2.48696e-07
-1.84586e-07
-1.32915e-07
-9.90046e-08
-8.07569e-08
-6.63103e-08
-4.49029e-08
0
0
0
0
0
0
0
0
0
0
0
0
0
0
0
0
0
0
0
0
0
0
0
0
0
0
0
0
0
0
0
0
0
0
0
0
0
0
0
0
0
0
0
0
0
0
0
0
0
0
0
0
0
0
0
0
0
0
0
0
0
0
0
0
0
0
0
0
0
0
0
0
0
0
0
0
0
0
0
0
0
0
0
0
0
0
0
0
0
0
0
0
0
0
0
0
0
0
0
0
0
0
0
0
0
0
0
0
0
0
0
0
0
0
0
0
0
0
0
)
;

boundaryField
{
    inandouthalf11
    {
        type            cyclic;
    }
    inandouthalf12
    {
        type            cyclic;
    }
    inandouthalf21
    {
        type            cyclic;
    }
    inandouthalf22
    {
        type            cyclic;
    }
    inandouthalf31
    {
        type            cyclic;
    }
    inandouthalf32
    {
        type            cyclic;
    }
    inandouthalf41
    {
        type            cyclic;
    }
    inandouthalf42
    {
        type            cyclic;
    }
    top
    {
        type            symmetryPlane;
    }
    walls
    {
        type            calculated;
        value           uniform -1.14217e-19;
    }
    frontAndBackPlanes
    {
        type            empty;
    }
}


// ************************************************************************* //
