/*--------------------------------*- C++ -*----------------------------------*\
| =========                 |                                                 |
| \\      /  F ield         | OpenFOAM: The Open Source CFD Toolbox           |
|  \\    /   O peration     | Version:  2.4.x                                 |
|   \\  /    A nd           | Web:      www.OpenFOAM.org                      |
|    \\/     M anipulation  |                                                 |
\*---------------------------------------------------------------------------*/
FoamFile
{
    version     2.0;
    format      ascii;
    class       volVectorField;
    location    "3.2";
    object      ddt0(Ua);
}
// * * * * * * * * * * * * * * * * * * * * * * * * * * * * * * * * * * * * * //

dimensions      [0 1 -2 0 0 0 0];

internalField   nonuniform List<vector> 
360
(
(-3.7882e-33 -1.79175e-32 0)
(6.03061e-08 3.63712e-07 0)
(2.30498e-07 1.26818e-06 0)
(4.03064e-07 2.11525e-06 0)
(5.16967e-07 2.68646e-06 0)
(5.71429e-07 3.00797e-06 0)
(5.83921e-07 3.16322e-06 0)
(5.74758e-07 3.23737e-06 0)
(5.63626e-07 3.30752e-06 0)
(5.68823e-07 3.44526e-06 0)
(6.07125e-07 3.72132e-06 0)
(6.93716e-07 4.20787e-06 0)
(8.39339e-07 4.96828e-06 0)
(1.03926e-06 6.01071e-06 0)
(1.24896e-06 7.17607e-06 0)
(1.35633e-06 7.98682e-06 0)
(1.2009e-06 7.67389e-06 0)
(7.02859e-07 5.74355e-06 0)
(7.30969e-09 2.7558e-06 0)
(-6.06658e-07 1.67632e-08 0)
(-9.84888e-07 -1.68923e-06 0)
(-1.16285e-06 -2.4897e-06 0)
(-1.23361e-06 -2.80557e-06 0)
(-1.25895e-06 -2.91853e-06 0)
(-1.26615e-06 -2.95225e-06 0)
(-1.26526e-06 -2.95231e-06 0)
(-1.25976e-06 -2.9347e-06 0)
(-1.25096e-06 -2.90568e-06 0)
(-1.23975e-06 -2.86914e-06 0)
(-1.2272e-06 -2.82902e-06 0)
(-1.21447e-06 -2.7892e-06 0)
(-1.20248e-06 -2.7525e-06 0)
(-1.19169e-06 -2.72009e-06 0)
(-1.18204e-06 -2.6916e-06 0)
(-1.17318e-06 -2.66586e-06 0)
(-1.16468e-06 -2.64157e-06 0)
(-1.15616e-06 -2.61762e-06 0)
(-1.14734e-06 -2.59327e-06 0)
(-1.13806e-06 -2.56812e-06 0)
(-1.12829e-06 -2.54207e-06 0)
(-1.11802e-06 -2.51521e-06 0)
(-1.10732e-06 -2.48765e-06 0)
(-1.09626e-06 -2.4596e-06 0)
(-1.0849e-06 -2.43118e-06 0)
(-1.07327e-06 -2.40249e-06 0)
(-1.06142e-06 -2.37357e-06 0)
(-1.04933e-06 -2.34444e-06 0)
(-1.03699e-06 -2.31505e-06 0)
(-1.02436e-06 -2.2853e-06 0)
(-1.01138e-06 -2.25503e-06 0)
(-9.97987e-07 -2.22413e-06 0)
(-9.84143e-07 -2.19251e-06 0)
(-9.69796e-07 -2.16005e-06 0)
(-9.54899e-07 -2.12666e-06 0)
(-9.39406e-07 -2.09223e-06 0)
(-9.23265e-07 -2.05665e-06 0)
(-9.06431e-07 -2.01982e-06 0)
(-8.88867e-07 -1.98167e-06 0)
(-8.70548e-07 -1.94212e-06 0)
(-8.51468e-07 -1.90118e-06 0)
(-8.31636e-07 -1.85885e-06 0)
(-8.11082e-07 -1.8152e-06 0)
(-7.89864e-07 -1.77034e-06 0)
(-7.6806e-07 -1.72445e-06 0)
(-7.45745e-07 -1.67769e-06 0)
(-7.22967e-07 -1.63017e-06 0)
(-6.99723e-07 -1.58188e-06 0)
(-6.7595e-07 -1.5327e-06 0)
(-6.51539e-07 -1.4824e-06 0)
(-6.26335e-07 -1.43066e-06 0)
(-6.0015e-07 -1.3771e-06 0)
(-5.72794e-07 -1.3213e-06 0)
(-5.44125e-07 -1.26298e-06 0)
(-5.14056e-07 -1.20195e-06 0)
(-4.82562e-07 -1.13816e-06 0)
(-4.49701e-07 -1.07169e-06 0)
(-4.15608e-07 -1.0028e-06 0)
(-3.80465e-07 -9.31852e-07 0)
(-3.44445e-07 -8.59163e-07 0)
(-3.07685e-07 -7.8498e-07 0)
(-2.70267e-07 -7.09447e-07 0)
(-2.32211e-07 -6.32579e-07 0)
(-1.93475e-07 -5.54263e-07 0)
(-1.53983e-07 -4.74328e-07 0)
(-1.13655e-07 -3.92593e-07 0)
(-7.24307e-08 -3.0892e-07 0)
(-3.02881e-08 -2.23244e-07 0)
(1.27467e-08 -1.35601e-07 0)
(5.66028e-08 -4.61162e-08 0)
(1.01182e-07 4.50382e-08 0)
(1.46378e-07 1.37674e-07 0)
(1.92091e-07 2.31622e-07 0)
(2.38247e-07 3.26758e-07 0)
(2.84796e-07 4.23018e-07 0)
(3.31716e-07 5.20381e-07 0)
(3.79e-07 6.1886e-07 0)
(4.26652e-07 7.18485e-07 0)
(4.74683e-07 8.19288e-07 0)
(5.23098e-07 9.21296e-07 0)
(5.71906e-07 1.02453e-06 0)
(6.21111e-07 1.129e-06 0)
(6.70714e-07 1.23472e-06 0)
(7.20715e-07 1.34167e-06 0)
(7.71108e-07 1.44985e-06 0)
(8.2188e-07 1.55923e-06 0)
(8.73007e-07 1.66975e-06 0)
(9.2445e-07 1.78134e-06 0)
(9.76154e-07 1.8939e-06 0)
(1.02804e-06 2.0073e-06 0)
(1.08003e-06 2.12136e-06 0)
(1.13199e-06 2.23592e-06 0)
(1.1838e-06 2.35077e-06 0)
(1.23531e-06 2.46573e-06 0)
(1.2864e-06 2.5806e-06 0)
(1.33693e-06 2.69526e-06 0)
(1.3868e-06 2.80966e-06 0)
(1.43596e-06 2.92383e-06 0)
(1.48443e-06 3.03799e-06 0)
(1.53234e-06 3.15254e-06 0)
(1.57996e-06 3.26813e-06 0)
(1.62773e-06 3.38573e-06 0)
(1.67633e-06 3.50665e-06 0)
(1.7267e-06 3.63263e-06 0)
(1.78014e-06 3.76589e-06 0)
(1.83834e-06 3.90917e-06 0)
(1.90343e-06 4.06576e-06 0)
(1.97807e-06 4.23948e-06 0)
(2.06534e-06 4.43461e-06 0)
(2.16868e-06 4.65555e-06 0)
(2.29156e-06 4.90641e-06 0)
(2.43698e-06 5.19021e-06 0)
(2.60697e-06 5.50815e-06 0)
(2.80211e-06 5.85919e-06 0)
(3.02137e-06 6.24037e-06 0)
(3.26166e-06 6.64657e-06 0)
(3.51663e-06 7.06871e-06 0)
(3.77577e-06 7.49174e-06 0)
(4.02578e-06 7.89706e-06 0)
(4.25323e-06 8.26776e-06 0)
(4.44392e-06 8.58728e-06 0)
(4.58085e-06 8.8307e-06 0)
(4.65519e-06 8.97643e-06 0)
(4.68221e-06 9.042e-06 0)
(4.68685e-06 9.06469e-06 0)
(4.68514e-06 9.07064e-06 0)
(4.68301e-06 9.07246e-06 0)
(4.67906e-06 9.07174e-06 0)
(2.44608e-05 2.29553e-05 0)
(0.000118637 3.41785e-05 0)
(-0.0485341 0.000218591 0)
(-0.137131 0.0010902 0)
(-0.33981 0.0155258 0)
(-0.521953 0.0376124 0)
(-0.642311 0.0496586 0)
(-0.720321 0.0533687 0)
(-0.775055 0.0507841 0)
(-0.816464 0.0456433 0)
(-0.849344 0.0404701 0)
(-0.876449 0.0357009 0)
(-0.899512 0.0313295 0)
(-0.919648 0.0273675 0)
(-0.937607 0.023785 0)
(-0.953907 0.0205397 0)
(-0.968909 0.0175911 0)
(-0.982876 0.0149025 0)
(-0.995995 0.0124413 0)
(-1.00841 0.0101794 0)
(-1.02022 0.0080922 0)
(-1.03151 0.00615869 0)
(-1.04235 0.00436086 0)
(-1.05277 0.00268393 0)
(-1.06281 0.00111637 0)
(-1.07251 -0.000349912 0)
(-1.08188 -0.00171976 0)
(-1.09094 -0.00299533 0)
(-1.09969 -0.00417735 0)
(-1.10815 -0.0052669 0)
(-1.11631 -0.00626739 0)
(-1.12419 -0.00718634 0)
(-1.13178 -0.00803639 0)
(-1.13908 -0.00883532 0)
(-1.1461 -0.00960509 0)
(-1.15283 -0.0103701 0)
(-1.15926 -0.011155 0)
(-1.16541 -0.0119823 0)
(-1.17127 -0.0128705 0)
(-1.17683 -0.0138333 0)
(-1.18207 -0.0148778 0)
(-1.18698 -0.0160037 0)
(-1.19154 -0.0171982 0)
(-1.19573 -0.0184272 0)
(-1.19951 -0.019628 0)
(-1.20288 -0.0207114 0)
(-1.20584 -0.0215867 0)
(-1.20844 -0.0222017 0)
(-1.21075 -0.0225669 0)
(-1.21287 -0.0227384 0)
(-1.21485 -0.0227826 0)
(-1.21672 -0.0227503 0)
(-1.21847 -0.0226711 0)
(-1.22013 -0.0225606 0)
(-1.2217 -0.0224305 0)
(-1.22318 -0.0222894 0)
(-1.22459 -0.0221376 0)
(-1.22597 -0.0219707 0)
(-1.22729 -0.0217962 0)
(-1.22849 -0.0216242 0)
(-1.22964 -0.0214474 0)
(-1.23078 -0.0212597 0)
(-1.23183 -0.0210728 0)
(-1.23277 -0.0208911 0)
(-1.23367 -0.0207078 0)
(-1.23449 -0.0205269 0)
(-1.23521 -0.0203548 0)
(-1.23585 -0.020189 0)
(-1.23638 -0.0200364 0)
(-1.23676 -0.019907 0)
(-1.23707 -0.0197966 0)
(-1.23729 -0.019711 0)
(-1.23733 -0.0196588 0)
(-1.23731 -0.0196209 0)
(-1.23732 -0.0195804 0)
(-1.23731 -0.0195382 0)
(-1.23728 -0.019494 0)
(-1.23718 -0.019451 0)
(-1.23704 -0.0194074 0)
(-1.23693 -0.0193561 0)
(-1.23676 -0.0193047 0)
(-1.23653 -0.0192542 0)
(-1.2363 -0.0191956 0)
(-1.23602 -0.0191357 0)
(-1.23567 -0.0190739 0)
(-1.23531 -0.0190037 0)
(-1.2349 -0.0189288 0)
(-1.23438 -0.0188522 0)
(-1.23371 -0.0187747 0)
(-1.23267 -0.0187283 0)
(-1.23224 -0.0185908 0)
(-1.23329 -0.0182224 0)
(-1.23491 -0.0177945 0)
(-1.23617 -0.0174543 0)
(-1.23681 -0.0171961 0)
(-1.20113 -6.53568e-05 0)
(-1.20113 -6.53949e-05 0)
(-1.20113 -6.53956e-05 0)
(-1.20113 -6.53886e-05 0)
(-1.20113 -6.53941e-05 0)
(-1.20113 -6.53865e-05 0)
(-1.20113 -6.53927e-05 0)
(-1.20113 -6.53851e-05 0)
(-1.20113 -6.53919e-05 0)
(-1.20113 -6.5384e-05 0)
(-1.20113 -6.53914e-05 0)
(-1.20113 -6.53833e-05 0)
(-1.20113 -6.53911e-05 0)
(-1.20113 -6.53827e-05 0)
(-1.20113 -6.53911e-05 0)
(-1.20113 -6.53823e-05 0)
(-1.20113 -6.53911e-05 0)
(-1.20113 -6.53819e-05 0)
(-1.20113 -6.53912e-05 0)
(-1.20113 -6.53816e-05 0)
(-1.20113 -6.53913e-05 0)
(-1.20113 -6.53814e-05 0)
(-1.20113 -6.53912e-05 0)
(-1.20113 -6.5382e-05 0)
(-1.20113 -6.53904e-05 0)
(-1.20113 -6.53828e-05 0)
(-1.20113 -6.53903e-05 0)
(-1.20113 -6.53816e-05 0)
(-1.20113 -6.53912e-05 0)
(-1.20113 -6.53814e-05 0)
(-1.20113 -6.53914e-05 0)
(-1.20113 -6.53812e-05 0)
(-1.20113 -6.53916e-05 0)
(-1.20113 -6.5381e-05 0)
(-1.20113 -6.53918e-05 0)
(-1.20113 -6.53807e-05 0)
(-1.20113 -6.5392e-05 0)
(-1.20113 -6.53805e-05 0)
(-1.20113 -6.53922e-05 0)
(-1.20113 -6.53803e-05 0)
(-1.20113 -6.53924e-05 0)
(-1.20113 -6.53801e-05 0)
(-1.20113 -6.53926e-05 0)
(-1.20113 -6.53799e-05 0)
(-1.20113 -6.53928e-05 0)
(-1.20113 -6.53797e-05 0)
(-1.20113 -6.5393e-05 0)
(-1.20113 -6.53796e-05 0)
(-1.20113 -6.53931e-05 0)
(-1.20113 -6.53794e-05 0)
(-1.20113 -6.53933e-05 0)
(-1.20113 -6.53793e-05 0)
(-1.20113 -6.53934e-05 0)
(-1.20113 -6.53792e-05 0)
(-1.20113 -6.53935e-05 0)
(-1.20113 -6.5379e-05 0)
(-1.20113 -6.53936e-05 0)
(-1.20113 -6.5379e-05 0)
(-1.20113 -6.53936e-05 0)
(-1.20113 -6.53789e-05 0)
(-1.20113 -6.53935e-05 0)
(-1.20113 -6.5379e-05 0)
(-1.20113 -6.53933e-05 0)
(-1.20113 -6.53789e-05 0)
(-1.20113 -6.53924e-05 0)
(-1.20113 -6.53805e-05 0)
(-1.20113 -6.53918e-05 0)
(-1.20113 -6.53806e-05 0)
(-1.20113 -6.5391e-05 0)
(-1.20113 -6.53815e-05 0)
(-1.20113 -6.53907e-05 0)
(-1.20113 -6.53817e-05 0)
(-1.20113 -6.53905e-05 0)
(-1.20113 -6.53819e-05 0)
(-1.20113 -6.53903e-05 0)
(-1.20113 -6.53821e-05 0)
(-1.20113 -6.53901e-05 0)
(-1.20113 -6.53824e-05 0)
(-1.20113 -6.539e-05 0)
(-1.20113 -6.53826e-05 0)
(-1.20113 -6.53899e-05 0)
(-1.20113 -6.53828e-05 0)
(-1.20113 -6.53898e-05 0)
(-1.20113 -6.5383e-05 0)
(-1.20113 -6.53897e-05 0)
(-1.20113 -6.53833e-05 0)
(-1.20113 -6.53896e-05 0)
(-1.20113 -6.53833e-05 0)
(-1.20113 -6.53894e-05 0)
(-1.20113 -6.53835e-05 0)
(-1.20113 -6.53894e-05 0)
(-1.20113 -6.53838e-05 0)
(-1.20113 -6.53897e-05 0)
(-1.20113 -6.53847e-05 0)
(-1.20113 -6.53904e-05 0)
(-1.20113 -6.53854e-05 0)
(-1.20113 -6.5391e-05 0)
(-1.20113 -6.53867e-05 0)
(-1.20113 -6.53924e-05 0)
(-1.20113 -6.53886e-05 0)
(-1.20113 -6.53945e-05 0)
(-1.20113 -6.53914e-05 0)
(-1.20113 -6.53973e-05 0)
(-1.20113 -6.53946e-05 0)
(-1.20113 -6.54006e-05 0)
(-1.20113 -6.53985e-05 0)
(-1.20113 -6.54047e-05 0)
(-1.20113 -6.5403e-05 0)
(-1.20113 -6.54093e-05 0)
(-1.20113 -6.5408e-05 0)
(-1.20113 -6.54151e-05 0)
(-1.20113 -6.54153e-05 0)
(-1.20113 -6.54223e-05 0)
(-1.20113 -6.54217e-05 0)
(-1.20113 -6.54308e-05 0)
(-1.20113 -6.54938e-05 0)
(-1.20114 -6.68912e-05 0)
(-1.20148 -0.000124514 0)
)
;

boundaryField
{
    inandouthalf11
    {
        type            cyclic;
    }
    inandouthalf12
    {
        type            cyclic;
    }
    inandouthalf21
    {
        type            cyclic;
    }
    inandouthalf22
    {
        type            cyclic;
    }
    inandouthalf31
    {
        type            cyclic;
    }
    inandouthalf32
    {
        type            cyclic;
    }
    inandouthalf41
    {
        type            cyclic;
    }
    inandouthalf42
    {
        type            cyclic;
    }
    top
    {
        type            symmetryPlane;
    }
    walls
    {
        type            calculated;
        value           uniform (0 0 0);
    }
    frontAndBackPlanes
    {
        type            empty;
    }
}


// ************************************************************************* //
