/*--------------------------------*- C++ -*----------------------------------*\
| =========                 |                                                 |
| \\      /  F ield         | OpenFOAM: The Open Source CFD Toolbox           |
|  \\    /   O peration     | Version:  2.4.x                                 |
|   \\  /    A nd           | Web:      www.OpenFOAM.org                      |
|    \\/     M anipulation  |                                                 |
\*---------------------------------------------------------------------------*/
FoamFile
{
    version     2.0;
    format      ascii;
    class       volScalarField;
    location    "3.2";
    object      ddt0(epsilon);
}
// * * * * * * * * * * * * * * * * * * * * * * * * * * * * * * * * * * * * * //

dimensions      [0 2 -4 0 0 0 0];

internalField   nonuniform List<scalar> 
360
(
0
0
0
0
0
0
0
0
0
0
0
0
0
0
0
0
0
0
0
0
0
0
0
0
0
0
0
0
0
0
0
0
0
0
0
0
0
0
0
0
0
0
0
0
0
0
0
0
0
0
0
0
0
0
0
0
0
0
0
0
0
0
0
0
0
0
0
0
0
0
0
0
0
0
0
0
0
0
0
0
0
0
0
0
0
0
0
0
0
0
0
0
0
0
0
0
0
0
0
0
0
0
0
0
0
0
0
0
0
0
0
0
0
0
0
0
0
0
0
0
0
0
0
0
0
0
0
0
0
3.6135e-20
-3.66243e-21
-8.33101e-19
-6.64373e-18
-3.70646e-17
-1.69942e-16
-6.70577e-16
-2.31395e-15
-7.02187e-15
-1.88161e-14
-4.49426e-14
-9.80661e-14
-2.1433e-13
-6.2992e-13
-3.3004e-12
-2.44789e-11
-2.16945e-11
1.52658e-08
1.25906e-06
9.9243e-05
0.00824581
0.221374
0.401859
0.234538
0.114296
0.0536041
0.0236048
0.00703406
-0.00344238
-0.0108656
-0.0165731
-0.0212029
-0.0250767
-0.028371
-0.0311898
-0.0335997
-0.0356473
-0.0373682
-0.0387916
-0.0399423
-0.0408425
-0.041512
-0.041969
-0.0422299
-0.0423096
-0.042222
-0.0419793
-0.0415929
-0.0410731
-0.0404293
-0.03967
-0.038803
-0.0378355
-0.036774
-0.0356247
-0.0343931
-0.0330845
-0.031704
-0.0302562
-0.0287456
-0.0271767
-0.0255537
-0.0238808
-0.0221624
-0.0204028
-0.0186068
-0.0167791
-0.014925
-0.0130499
-0.0111595
-0.00926022
-0.00735859
-0.00544259
-0.00350115
-0.00154396
0.000417066
0.00236724
0.00428853
0.00615872
0.00795041
0.00962966
0.0111543
0.0124713
0.0135135
0.0141943
0.0144
0.0139813
0.0127487
0.0104022
0.00592055
0.000910114
2.36355e-05
3.21505e-07
4.08737e-09
4.95018e-11
5.71192e-13
6.28046e-15
6.57979e-17
6.39941e-19
0
0
0
0
0
0
0
0
0
0
0
0
0
0
0
0
0
0
0
0
0
0
0
0
0
0
0
0
0
0
0
0
0
0
0
0
0
0
0
0
0
0
0
0
0
0
0
0
0
0
0
0
0
0
0
0
0
0
0
0
0
0
0
0
0
0
0
0
0
0
0
0
0
0
0
0
0
0
0
0
0
0
0
0
0
0
0
0
0
0
0
0
0
0
0
0
0
0
0
0
0
0
0
0
0
0
0
0
0
0
0
0
0
0
0
0
0
0
0
0
0
0
0
0
0
0
0
0
0
0
0
0
)
;

boundaryField
{
    inandouthalf11
    {
        type            cyclic;
    }
    inandouthalf12
    {
        type            cyclic;
    }
    inandouthalf21
    {
        type            cyclic;
    }
    inandouthalf22
    {
        type            cyclic;
    }
    inandouthalf31
    {
        type            cyclic;
    }
    inandouthalf32
    {
        type            cyclic;
    }
    inandouthalf41
    {
        type            cyclic;
    }
    inandouthalf42
    {
        type            cyclic;
    }
    top
    {
        type            symmetryPlane;
    }
    walls
    {
        type            calculated;
        value           uniform 0;
    }
    frontAndBackPlanes
    {
        type            empty;
    }
}


// ************************************************************************* //
