/*--------------------------------*- C++ -*----------------------------------*\
| =========                 |                                                 |
| \\      /  F ield         | OpenFOAM: The Open Source CFD Toolbox           |
|  \\    /   O peration     | Version:  2.4.x                                 |
|   \\  /    A nd           | Web:      www.OpenFOAM.org                      |
|    \\/     M anipulation  |                                                 |
\*---------------------------------------------------------------------------*/
FoamFile
{
    version     2.0;
    format      ascii;
    class       volVectorField;
    location    "3.2";
    object      gradPs;
}
// * * * * * * * * * * * * * * * * * * * * * * * * * * * * * * * * * * * * * //

dimensions      [0 1 -2 0 0 0 0];

internalField   nonuniform List<vector> 
360
(
(0 4.56661e-18 0)
(0 5.83367e-18 0)
(0 -6.28029e-20 0)
(0 -2.24531e-18 0)
(-1.45294e-32 -1.32065e-18 0)
(-1.45302e-32 -5.4552e-19 0)
(-1.45312e-32 -1.9123e-19 0)
(0 -1.27053e-19 0)
(-2.90655e-32 -1.50567e-19 0)
(0 -4.72431e-20 0)
(-1.45341e-32 2.8091e-19 0)
(0 8.23755e-19 0)
(-1.45357e-32 1.50684e-18 0)
(0 2.06774e-18 0)
(0 1.84107e-18 0)
(0 3.38792e-20 0)
(0 -2.9024e-18 0)
(-1.45412e-32 -4.69974e-18 0)
(0 -3.95203e-18 0)
(0 -2.01874e-18 0)
(0 -6.76219e-19 0)
(-2.9086e-32 -1.69145e-19 0)
(0 -4.02991e-20 0)
(0 -1.33679e-20 0)
(0 -7.55556e-21 0)
(-1.45432e-32 -6.04892e-21 0)
(0 -7.25905e-21 0)
(0 -8.80641e-21 0)
(0 -8.86667e-21 0)
(0 -9.08458e-21 0)
(0 -1.10177e-20 0)
(0 -1.1221e-20 0)
(0 -1.30267e-20 0)
(0 -1.47132e-20 0)
(0 -1.46257e-20 0)
(2.90879e-32 -1.6134e-20 0)
(0 -1.75949e-20 0)
(0 -2.07197e-20 0)
(0 -2.05365e-20 0)
(0 -2.2105e-20 0)
(0 -2.53141e-20 0)
(0 -2.51348e-20 0)
(1.4545e-32 -2.82681e-20 0)
(0 -3.13257e-20 0)
(0 -3.2699e-20 0)
(0 -3.57043e-20 0)
(0 -3.69138e-20 0)
(0 -3.96248e-20 0)
(0 -4.54612e-20 0)
(0 -4.78943e-20 0)
(1.45471e-32 -5.03143e-20 0)
(0 -5.42795e-20 0)
(0 -5.79823e-20 0)
(0 -6.1393e-20 0)
(0 -6.60571e-20 0)
(0 -7.03201e-20 0)
(0 -7.41601e-20 0)
(0 -7.90815e-20 0)
(0 -8.17631e-20 0)
(0 -8.67118e-20 0)
(0 -9.0613e-20 0)
(0 -9.333e-20 0)
(0 -9.64056e-20 0)
(0 -9.82935e-20 0)
(0 -1.00619e-19 0)
(0 -1.03484e-19 0)
(0 -1.07207e-19 0)
(0 -1.10742e-19 0)
(0 -1.14058e-19 0)
(0 -1.18971e-19 0)
(0 -1.24682e-19 0)
(0 -1.27686e-19 0)
(0 -1.31394e-19 0)
(0 -1.35672e-19 0)
(0 -1.39039e-19 0)
(0 -1.41853e-19 0)
(0 -1.44113e-19 0)
(0 -1.47452e-19 0)
(0 -1.51001e-19 0)
(0 -1.54377e-19 0)
(0 -1.58183e-19 0)
(0 -1.62598e-19 0)
(0 -1.66815e-19 0)
(0 -1.70993e-19 0)
(0 -1.75059e-19 0)
(0 -1.79015e-19 0)
(0 -1.82799e-19 0)
(0 -1.86403e-19 0)
(0 -1.9023e-19 0)
(0 -1.94224e-19 0)
(0 -1.98333e-19 0)
(0 -2.02732e-19 0)
(0 -2.07378e-19 0)
(0 -2.12119e-19 0)
(0 -2.16967e-19 0)
(0 -2.21904e-19 0)
(0 -2.26908e-19 0)
(0 -2.32001e-19 0)
(0 -2.39037e-19 0)
(0 -1.75058e-16 0)
(0 -1.74957e-16 0)
(0 0 0)
(0 0 0)
(0 0 0)
(0 0 0)
(0 0 0)
(0 0 0)
(0 0 0)
(0 0 0)
(0 0 0)
(0 0 0)
(0 0 0)
(0 0 0)
(0 0 0)
(0 1.72931e-16 0)
(0 1.72777e-16 0)
(0 -3.7346e-19 0)
(0 -3.84188e-19 0)
(0 -3.95329e-19 0)
(0 -4.06893e-19 0)
(0 -4.18882e-19 0)
(0 -4.31294e-19 0)
(0 -4.44125e-19 0)
(0 -4.57394e-19 0)
(0 -4.71186e-19 0)
(0 -4.85702e-19 0)
(0 -5.01233e-19 0)
(0 5.64718e-18 0)
(0 4.69299e-16 0)
(0 2.61874e-15 0)
(0 1.10531e-14 0)
(0 4.28446e-14 0)
(0 1.53346e-13 0)
(0 5.039e-13 0)
(0 1.5064e-12 0)
(0 4.0417e-12 0)
(0 9.56905e-12 0)
(0 1.96564e-11 0)
(0 3.43305e-11 0)
(0 4.83966e-11 0)
(0 5.04752e-11 0)
(0 9.61731e-11 0)
(0 9.94171e-10 0)
(0 1.54645e-08 0)
(0 3.22362e-07 0)
(0 9.73919e-06 0)
(0 0.00110904 0)
(0 0.0855294 0)
(0 1.41892 0)
(0 0.402719 0)
(0 -3.8887 0)
(0 -3.34306 0)
(0 -3.16558 0)
(0 -2.17868 0)
(0 -1.38518 0)
(0 -0.889213 0)
(0 -0.623499 0)
(0 -0.481676 0)
(0 -0.393985 0)
(0 -0.33946 0)
(0 -0.306856 0)
(0 -0.288857 0)
(0 -0.281205 0)
(0 -0.281175 0)
(0 -0.286923 0)
(0 -0.297174 0)
(0 -0.311011 0)
(0 -0.327772 0)
(0 -0.34696 0)
(0 -0.368196 0)
(0 -0.391164 0)
(0 -0.415566 0)
(0 -0.44106 0)
(0 -0.467231 0)
(0 -0.493556 0)
(0 -0.519402 0)
(0 -0.544079 0)
(0 -0.566933 0)
(0 -0.587452 0)
(0 -0.605397 0)
(0 -0.620928 0)
(0 -0.634711 0)
(0 -0.648039 0)
(0 -0.662968 0)
(0 -0.68252 0)
(0 -0.710939 0)
(0 -0.753952 0)
(0 -0.818836 0)
(0 -0.913765 0)
(0 -1.04537 0)
(0 -1.21287 0)
(0 -1.39813 0)
(0 -1.55648 0)
(0 -1.62334 0)
(0 -1.55513 0)
(0 -1.38025 0)
(0 -1.17991 0)
(0 -1.01111 0)
(0 -0.880309 0)
(0 -0.771786 0)
(0 -0.680354 0)
(0 -0.613779 0)
(-1.03285e-16 -0.560592 0)
(0 -0.492966 0)
(0 -0.425726 0)
(1.21623e-16 -0.393729 0)
(0 -0.363002 0)
(-1.32525e-16 -0.305023 0)
(0 -0.26411 0)
(7.01235e-17 -0.246379 0)
(0 -0.215237 0)
(0 -0.182382 0)
(0 -0.163403 0)
(7.52824e-17 -0.141173 0)
(0 -0.118909 0)
(0 -0.107186 0)
(0 -0.0913641 0)
(0 -0.0727718 0)
(0 -0.0645914 0)
(-1.89608e-17 -0.0567691 0)
(0 -0.0456687 0)
(-9.33499e-18 -0.0382804 0)
(0 -0.0321664 0)
(-9.13757e-18 -0.0268367 0)
(0 -0.0230657 0)
(0 -0.018365 0)
(0 -0.014754 0)
(0 -0.0126849 0)
(2.1275e-18 -0.00996946 0)
(2.09202e-18 -0.00793982 0)
(0 -0.00655544 0)
(0 -0.00508356 0)
(0 -0.00400236 0)
(0 -0.0031654 0)
(0 -0.00249748 0)
(0 -0.00194911 0)
(0 -0.00139914 0)
(0 -0.000787042 0)
(0 -0.000422589 0)
(0 -0.000450904 0)
(0 -0.000843754 0)
(0 -0.000566697 0)
(0 0 0)
(0 0 0)
(0 0 0)
(0 0 0)
(0 0 0)
(0 0 0)
(0 0 0)
(0 0 0)
(0 0 0)
(0 0 0)
(0 0 0)
(0 0 0)
(0 0 0)
(0 0 0)
(0 0 0)
(0 0 0)
(0 0 0)
(0 0 0)
(0 0 0)
(0 0 0)
(0 0 0)
(0 0 0)
(0 0 0)
(0 0 0)
(0 0 0)
(0 0 0)
(0 0 0)
(0 0 0)
(0 0 0)
(0 0 0)
(0 0 0)
(0 0 0)
(0 0 0)
(0 0 0)
(0 0 0)
(0 0 0)
(0 0 0)
(0 0 0)
(0 0 0)
(0 0 0)
(0 0 0)
(0 0 0)
(0 0 0)
(0 0 0)
(0 0 0)
(0 0 0)
(0 0 0)
(0 0 0)
(0 0 0)
(0 0 0)
(0 0 0)
(0 0 0)
(0 0 0)
(0 0 0)
(0 0 0)
(0 0 0)
(0 0 0)
(0 0 0)
(0 0 0)
(0 0 0)
(0 0 0)
(0 0 0)
(0 0 0)
(0 0 0)
(0 0 0)
(0 0 0)
(0 0 0)
(0 0 0)
(0 0 0)
(0 0 0)
(0 0 0)
(0 0 0)
(0 0 0)
(0 0 0)
(0 0 0)
(0 0 0)
(0 0 0)
(0 0 0)
(0 0 0)
(0 0 0)
(0 0 0)
(0 0 0)
(0 0 0)
(0 0 0)
(0 0 0)
(0 0 0)
(0 0 0)
(0 0 0)
(0 0 0)
(0 0 0)
(0 0 0)
(0 0 0)
(0 0 0)
(0 0 0)
(0 0 0)
(0 0 0)
(0 0 0)
(0 0 0)
(0 0 0)
(0 0 0)
(0 0 0)
(0 0 0)
(0 0 0)
(0 0 0)
(0 0 0)
(0 0 0)
(0 0 0)
(0 0 0)
(0 0 0)
(0 0 0)
(0 0 0)
(0 0 0)
(0 0 0)
(0 0 0)
(0 0 0)
(0 0 0)
(0 0 0)
(0 0 0)
)
;

boundaryField
{
    inandouthalf11
    {
        type            cyclic;
    }
    inandouthalf12
    {
        type            cyclic;
    }
    inandouthalf21
    {
        type            cyclic;
    }
    inandouthalf22
    {
        type            cyclic;
    }
    inandouthalf31
    {
        type            cyclic;
    }
    inandouthalf32
    {
        type            cyclic;
    }
    inandouthalf41
    {
        type            cyclic;
    }
    inandouthalf42
    {
        type            cyclic;
    }
    top
    {
        type            symmetryPlane;
    }
    walls
    {
        type            calculated;
        value           uniform (0 0 0);
    }
    frontAndBackPlanes
    {
        type            empty;
    }
}


// ************************************************************************* //
