/*--------------------------------*- C++ -*----------------------------------*\
| =========                 |                                                 |
| \\      /  F ield         | OpenFOAM: The Open Source CFD Toolbox           |
|  \\    /   O peration     | Version:  2.4.x                                 |
|   \\  /    A nd           | Web:      www.OpenFOAM.org                      |
|    \\/     M anipulation  |                                                 |
\*---------------------------------------------------------------------------*/
FoamFile
{
    version     2.0;
    format      ascii;
    class       volScalarField;
    location    "3.2";
    object      p;
}
// * * * * * * * * * * * * * * * * * * * * * * * * * * * * * * * * * * * * * //

dimensions      [1 -1 -2 0 0 0 0];

internalField   nonuniform List<scalar> 
360
(
4894.03
4889.12
4884.21
4879.3
4874.38
4869.46
4864.54
4859.61
4854.69
4849.75
4844.82
4839.88
4834.94
4830
4825.05
4820.1
4815.15
4810.19
4805.23
4800.26
4795.3
4790.33
4785.37
4780.4
4775.43
4770.47
4765.5
4760.53
4755.57
4750.6
4745.63
4740.66
4735.7
4730.73
4725.76
4720.8
4715.83
4710.86
4705.89
4700.93
4695.96
4690.99
4686.02
4681.06
4676.09
4671.12
4666.15
4661.19
4656.22
4651.25
4646.28
4641.31
4636.35
4631.38
4626.41
4621.44
4616.47
4611.5
4606.54
4601.57
4596.6
4591.63
4586.66
4581.69
4576.72
4571.75
4566.79
4561.82
4556.85
4551.88
4546.91
4541.94
4536.97
4532
4527.03
4522.06
4517.09
4512.12
4507.15
4502.18
4497.21
4492.24
4487.27
4482.3
4477.33
4472.36
4467.39
4462.42
4457.45
4452.47
4447.5
4442.53
4437.56
4432.59
4427.62
4422.64
4417.67
4412.7
4407.73
4402.75
4397.78
4392.81
4387.84
4382.86
4377.89
4372.92
4367.94
4362.97
4357.99
4353.02
4348.05
4343.07
4338.1
4333.12
4328.15
4323.17
4318.2
4313.23
4308.25
4303.28
4298.3
4293.32
4288.35
4283.37
4278.4
4273.42
4268.45
4263.47
4258.49
4253.52
4248.54
4243.56
4238.59
4233.61
4228.63
4223.66
4218.68
4213.7
4208.72
4203.74
4198.77
4193.79
4188.81
4183.83
4178.86
4173.88
4168.9
4163.93
4158.94
4153.92
4147.72
4141.68
4136.63
4131.59
4126.54
4121.47
4116.41
4111.35
4106.29
4101.24
4096.19
4091.14
4086.1
4081.07
4076.04
4071.01
4065.99
4060.98
4055.97
4050.97
4045.98
4041
4036.02
4031.04
4026.08
4021.12
4016.17
4011.23
4006.29
4001.36
3996.44
3991.52
3986.61
3981.71
3976.81
3971.92
3967.03
3962.16
3957.28
3952.42
3947.56
3942.7
3937.85
3933.01
3928.17
3923.34
3918.51
3913.69
3908.87
3904.06
3899.25
3894.4
3889.45
3884.41
3879.27
3874.03
3868.69
3863.24
3857.68
3852.02
3846.24
3840.35
3834.33
3828.2
3821.94
3815.54
3809.01
3802.33
3795.48
3788.43
3781.18
3773.78
3766.22
3758.51
3750.65
3742.62
3734.43
3726.08
3717.55
3708.86
3699.98
3690.93
3681.69
3672.27
3662.65
3652.84
3642.83
3632.61
3622.19
3611.56
3600.71
3589.64
3578.35
3566.83
3555.07
3543.08
3530.84
3518.35
3505.61
3492.61
3479.35
3465.82
3452.01
3437.92
3423.55
3408.88
3393.92
3378.66
3363.08
3347.19
3330.97
3314.43
3297.55
3280.33
3262.76
3244.83
3226.54
3207.87
3188.83
3169.4
3149.58
3129.35
3108.72
3087.66
3066.18
3044.26
3021.9
2999.08
2975.8
2952.05
2927.81
2903.09
2877.86
2852.12
2825.86
2799.06
2771.72
2743.82
2715.36
2686.32
2656.7
2626.47
2595.62
2564.15
2532.05
2499.29
2465.86
2431.76
2396.96
2361.46
2325.24
2288.28
2250.57
2212.1
2172.85
2132.8
2091.93
2050.24
2007.7
1964.3
1922.76
1883.52
1844.28
1805.04
1765.8
1726.56
1687.32
1648.08
1608.84
1569.6
1530.36
1491.12
1451.88
1412.64
1373.4
1334.16
1294.92
1255.68
1216.44
1177.2
1137.96
1098.72
1059.48
1020.24
981
941.76
902.52
863.28
824.04
784.8
745.56
706.32
667.08
627.84
588.6
549.36
510.12
470.88
431.64
392.4
353.16
313.92
274.68
235.44
196.2
156.96
117.72
78.48
39.24
2.79528e-07
)
;

boundaryField
{
    inandouthalf11
    {
        type            cyclic;
    }
    inandouthalf12
    {
        type            cyclic;
    }
    inandouthalf21
    {
        type            cyclic;
    }
    inandouthalf22
    {
        type            cyclic;
    }
    inandouthalf31
    {
        type            cyclic;
    }
    inandouthalf32
    {
        type            cyclic;
    }
    inandouthalf41
    {
        type            cyclic;
    }
    inandouthalf42
    {
        type            cyclic;
    }
    top
    {
        type            symmetryPlane;
    }
    walls
    {
        type            slip;
    }
    frontAndBackPlanes
    {
        type            empty;
    }
}


// ************************************************************************* //
