/*--------------------------------*- C++ -*----------------------------------*\
| =========                 |                                                 |
| \\      /  F ield         | OpenFOAM: The Open Source CFD Toolbox           |
|  \\    /   O peration     | Version:  2.4.x                                 |
|   \\  /    A nd           | Web:      www.OpenFOAM.org                      |
|    \\/     M anipulation  |                                                 |
\*---------------------------------------------------------------------------*/
FoamFile
{
    version     2.0;
    format      ascii;
    class       surfaceScalarField;
    location    "3.2";
    object      phia_0;
}
// * * * * * * * * * * * * * * * * * * * * * * * * * * * * * * * * * * * * * //

dimensions      [0 3 -1 0 0 0 0];

internalField   nonuniform List<scalar> 
359
(
-9.77295e-13
-3.24888e-12
-5.71724e-12
-7.93006e-12
-9.916e-12
-1.18016e-11
-1.36706e-11
-1.5546e-11
-1.74144e-11
-1.92748e-11
-2.1159e-11
-2.31288e-11
-2.52648e-11
-2.76384e-11
-3.0269e-11
-3.30565e-11
-3.57355e-11
-3.79516e-11
-3.94727e-11
-4.03349e-11
-4.07525e-11
-4.09407e-11
-4.10291e-11
-4.10771e-11
-4.11092e-11
-4.11357e-11
-4.11612e-11
-4.11886e-11
-4.12191e-11
-4.12531e-11
-4.12901e-11
-4.1329e-11
-4.13689e-11
-4.14087e-11
-4.1448e-11
-4.14864e-11
-4.15242e-11
-4.15614e-11
-4.15984e-11
-4.16353e-11
-4.16723e-11
-4.17095e-11
-4.17471e-11
-4.17851e-11
-4.18236e-11
-4.18626e-11
-4.19021e-11
-4.1942e-11
-4.19827e-11
-4.20241e-11
-4.20663e-11
-4.21095e-11
-4.21537e-11
-4.21992e-11
-4.22458e-11
-4.2294e-11
-4.23437e-11
-4.23951e-11
-4.24482e-11
-4.2503e-11
-4.25595e-11
-4.26176e-11
-4.2677e-11
-4.27376e-11
-4.27992e-11
-4.28616e-11
-4.2925e-11
-4.29895e-11
-4.30553e-11
-4.3123e-11
-4.31929e-11
-4.32655e-11
-4.3341e-11
-4.34196e-11
-4.35012e-11
-4.35858e-11
-4.36729e-11
-4.37624e-11
-4.38538e-11
-4.39471e-11
-4.40421e-11
-4.41388e-11
-4.42375e-11
-4.43382e-11
-4.44413e-11
-4.45466e-11
-4.46543e-11
-4.47642e-11
-4.48762e-11
-4.49901e-11
-4.51057e-11
-4.52228e-11
-4.53413e-11
-4.54612e-11
-4.55825e-11
-4.57051e-11
-4.58291e-11
-4.59544e-11
-4.60811e-11
-4.62091e-11
-4.63382e-11
-4.64685e-11
-4.65999e-11
-4.67323e-11
-4.68655e-11
-4.69994e-11
-4.71339e-11
-4.72689e-11
-4.74041e-11
-4.75394e-11
-4.76747e-11
-4.78098e-11
-4.79447e-11
-4.80794e-11
-4.82139e-11
-4.83485e-11
-4.84833e-11
-4.86189e-11
-4.87557e-11
-4.88945e-11
-4.90361e-11
-4.91816e-11
-4.93322e-11
-4.94889e-11
-4.96532e-11
-4.98264e-11
-5.00096e-11
-5.02039e-11
-5.04099e-11
-5.06279e-11
-5.0857e-11
-5.10959e-11
-5.13425e-11
-5.15945e-11
-5.1849e-11
-5.21011e-11
-5.23437e-11
-5.2569e-11
-5.27694e-11
-5.29358e-11
-5.30559e-11
-5.3123e-11
-5.31535e-11
-5.31651e-11
-5.31691e-11
-5.31658e-11
-5.6669e-11
-6.09777e-11
-6.85942e-11
9.13631e-10
2.20478e-09
-1.70416e-09
-1.17126e-08
-2.46295e-08
-3.72028e-08
-4.74891e-08
-5.52873e-08
-6.12077e-08
-6.5593e-08
-6.87528e-08
-7.09413e-08
-7.23496e-08
-7.31265e-08
-7.33889e-08
-7.32292e-08
-7.27223e-08
-7.19291e-08
-7.09e-08
-6.96777e-08
-6.82986e-08
-6.67944e-08
-6.51926e-08
-6.35171e-08
-6.17884e-08
-6.00226e-08
-5.82318e-08
-5.64228e-08
-5.45975e-08
-5.27528e-08
-5.08817e-08
-4.89743e-08
-4.70201e-08
-4.50096e-08
-4.29375e-08
-4.0805e-08
-3.8623e-08
-3.64148e-08
-3.42183e-08
-3.20869e-08
-3.00871e-08
-2.8292e-08
-2.67668e-08
-2.55488e-08
-2.4632e-08
-2.39677e-08
-2.34897e-08
-2.31413e-08
-2.28842e-08
-2.26945e-08
-2.25566e-08
-2.24584e-08
-2.23907e-08
-2.23526e-08
-2.23435e-08
-2.23559e-08
-2.23871e-08
-2.24447e-08
-2.25258e-08
-2.26222e-08
-2.27396e-08
-2.28812e-08
-2.30413e-08
-2.32214e-08
-2.34246e-08
-2.36459e-08
-2.38859e-08
-2.41479e-08
-2.44243e-08
-2.47114e-08
-2.50102e-08
-2.53188e-08
-2.56362e-08
-2.59638e-08
-2.63016e-08
-2.66527e-08
-2.70192e-08
-2.73987e-08
-2.77949e-08
-2.82108e-08
-2.86446e-08
-2.91006e-08
-2.95802e-08
-3.00838e-08
-3.06132e-08
-3.11727e-08
-3.17691e-08
-3.2406e-08
-3.3048e-08
-3.36192e-08
-3.40535e-08
-3.44656e-08
-9.57397e-08
-1.57926e-07
-1.57926e-07
-1.57926e-07
-1.57926e-07
-1.57926e-07
-1.57926e-07
-1.57926e-07
-1.57926e-07
-1.57926e-07
-1.57926e-07
-1.57926e-07
-1.57926e-07
-1.57926e-07
-1.57926e-07
-1.57926e-07
-1.57926e-07
-1.57926e-07
-1.57926e-07
-1.57926e-07
-1.57926e-07
-1.57926e-07
-1.57926e-07
-1.57926e-07
-1.57926e-07
-1.57926e-07
-1.57926e-07
-1.57926e-07
-1.57926e-07
-1.57926e-07
-1.57926e-07
-1.57926e-07
-1.57926e-07
-1.57926e-07
-1.57926e-07
-1.57926e-07
-1.57926e-07
-1.57926e-07
-1.57926e-07
-1.57926e-07
-1.57926e-07
-1.57926e-07
-1.57926e-07
-1.57926e-07
-1.57926e-07
-1.57926e-07
-1.57926e-07
-1.57926e-07
-1.57926e-07
-1.57926e-07
-1.57926e-07
-1.57926e-07
-1.57926e-07
-1.57926e-07
-1.57926e-07
-1.57926e-07
-1.57926e-07
-1.57926e-07
-1.57926e-07
-1.57926e-07
-1.57926e-07
-1.57926e-07
-1.57926e-07
-1.57926e-07
-1.57926e-07
-1.57926e-07
-1.57926e-07
-1.57926e-07
-1.57926e-07
-1.57926e-07
-1.57926e-07
-1.57926e-07
-1.57926e-07
-1.57926e-07
-1.57926e-07
-1.57926e-07
-1.57926e-07
-1.57926e-07
-1.57926e-07
-1.57926e-07
-1.57926e-07
-1.57926e-07
-1.57926e-07
-1.57926e-07
-1.57926e-07
-1.57926e-07
-1.57926e-07
-1.57926e-07
-1.57926e-07
-1.57926e-07
-1.57926e-07
-1.57926e-07
-1.57926e-07
-1.57926e-07
-1.57926e-07
-1.57926e-07
-1.57926e-07
-1.57926e-07
-1.57926e-07
-1.57926e-07
-1.57926e-07
-1.57926e-07
-1.57926e-07
-1.57926e-07
-1.57926e-07
-1.57926e-07
-1.57926e-07
-1.57926e-07
-1.57926e-07
-1.57926e-07
-1.57926e-07
-1.57926e-07
-1.57926e-07
-1.57926e-07
-1.57925e-07
-1.57908e-07
-1.57198e-07
-1.3218e-07
)
;

boundaryField
{
    inandouthalf11
    {
        type            cyclic;
        value           nonuniform List<scalar> 
100
(
1.05239e-38
9.95039e-14
2.60533e-13
4.13014e-13
5.4748e-13
6.71385e-13
7.91038e-13
9.09555e-13
1.02718e-12
1.14333e-12
1.25886e-12
1.37661e-12
1.50081e-12
1.63598e-12
1.7849e-12
1.94538e-12
2.10633e-12
2.24817e-12
2.3527e-12
2.41573e-12
2.44752e-12
2.46201e-12
2.46868e-12
2.47217e-12
2.4744e-12
2.47616e-12
2.47785e-12
2.47967e-12
2.48178e-12
2.48423e-12
2.48703e-12
2.49013e-12
2.49345e-12
2.49689e-12
2.50039e-12
2.50393e-12
2.50749e-12
2.51108e-12
2.51472e-12
2.51844e-12
2.52225e-12
2.52617e-12
2.53021e-12
2.53439e-12
2.53871e-12
2.54316e-12
2.54777e-12
2.55252e-12
2.55743e-12
2.56252e-12
2.56779e-12
2.57326e-12
2.57895e-12
2.58487e-12
2.59104e-12
2.59748e-12
2.60421e-12
2.61125e-12
2.61861e-12
2.62629e-12
2.63431e-12
2.64264e-12
2.65127e-12
2.66017e-12
2.66931e-12
2.67867e-12
2.68825e-12
2.69806e-12
2.70815e-12
2.71856e-12
2.72937e-12
2.74064e-12
2.75244e-12
2.76479e-12
2.77772e-12
2.79121e-12
2.80524e-12
2.81975e-12
2.83469e-12
2.85003e-12
2.86574e-12
2.88182e-12
2.89829e-12
2.91518e-12
2.93252e-12
2.95033e-12
2.96862e-12
2.98739e-12
3.00661e-12
3.02625e-12
3.04629e-12
3.0667e-12
3.08745e-12
3.10853e-12
3.12993e-12
3.15167e-12
3.17374e-12
3.19613e-12
3.21886e-12
3.24191e-12
)
;
    }
    inandouthalf12
    {
        type            cyclic;
        value           nonuniform List<scalar> 
100
(
-1.05239e-38
-9.95039e-14
-2.60533e-13
-4.13014e-13
-5.4748e-13
-6.71385e-13
-7.91038e-13
-9.09555e-13
-1.02718e-12
-1.14333e-12
-1.25886e-12
-1.37661e-12
-1.50081e-12
-1.63598e-12
-1.7849e-12
-1.94538e-12
-2.10633e-12
-2.24817e-12
-2.3527e-12
-2.41573e-12
-2.44752e-12
-2.46201e-12
-2.46868e-12
-2.47217e-12
-2.4744e-12
-2.47616e-12
-2.47785e-12
-2.47967e-12
-2.48178e-12
-2.48423e-12
-2.48703e-12
-2.49013e-12
-2.49345e-12
-2.49689e-12
-2.50039e-12
-2.50393e-12
-2.50749e-12
-2.51108e-12
-2.51472e-12
-2.51844e-12
-2.52225e-12
-2.52617e-12
-2.53021e-12
-2.53439e-12
-2.53871e-12
-2.54316e-12
-2.54777e-12
-2.55252e-12
-2.55743e-12
-2.56252e-12
-2.56779e-12
-2.57326e-12
-2.57895e-12
-2.58487e-12
-2.59104e-12
-2.59748e-12
-2.60421e-12
-2.61125e-12
-2.61861e-12
-2.62629e-12
-2.63431e-12
-2.64264e-12
-2.65127e-12
-2.66017e-12
-2.66931e-12
-2.67867e-12
-2.68825e-12
-2.69806e-12
-2.70815e-12
-2.71856e-12
-2.72937e-12
-2.74064e-12
-2.75244e-12
-2.76479e-12
-2.77772e-12
-2.79121e-12
-2.80524e-12
-2.81975e-12
-2.83469e-12
-2.85003e-12
-2.86574e-12
-2.88182e-12
-2.89829e-12
-2.91518e-12
-2.93252e-12
-2.95033e-12
-2.96862e-12
-2.98739e-12
-3.00661e-12
-3.02625e-12
-3.04629e-12
-3.0667e-12
-3.08745e-12
-3.10853e-12
-3.12993e-12
-3.15167e-12
-3.17374e-12
-3.19613e-12
-3.21886e-12
-3.24191e-12
)
;
    }
    inandouthalf21
    {
        type            cyclic;
        value           nonuniform List<scalar> 
100
(
3.26529e-12
3.28897e-12
3.31295e-12
3.33723e-12
3.36177e-12
3.38656e-12
3.41158e-12
3.43681e-12
3.46222e-12
3.48778e-12
3.51348e-12
3.53928e-12
3.56519e-12
3.59119e-12
3.61729e-12
3.64354e-12
3.66997e-12
3.69667e-12
3.72375e-12
3.75135e-12
3.77966e-12
3.80888e-12
3.83927e-12
3.87113e-12
3.90478e-12
3.94057e-12
3.97884e-12
4.01997e-12
4.06427e-12
4.11201e-12
4.16331e-12
4.21814e-12
4.27634e-12
4.33764e-12
4.40166e-12
4.46767e-12
4.53431e-12
4.59973e-12
4.66179e-12
4.71757e-12
4.76248e-12
4.79229e-12
4.80807e-12
4.81491e-12
4.81767e-12
4.81935e-12
4.82202e-12
6.53826e-12
1.51932e-11
8.29393e-09
9.98769e-08
1.89032e-07
2.30447e-07
2.51479e-07
2.62913e-07
2.69288e-07
2.7266e-07
2.74085e-07
2.74172e-07
2.73296e-07
2.717e-07
2.69548e-07
2.6696e-07
2.64022e-07
2.60801e-07
2.57351e-07
2.53714e-07
2.49926e-07
2.46018e-07
2.42017e-07
2.37947e-07
2.3383e-07
2.29686e-07
2.25534e-07
2.2139e-07
2.17271e-07
2.13192e-07
2.09167e-07
2.05209e-07
2.0133e-07
1.97541e-07
1.93852e-07
1.90272e-07
1.86809e-07
1.83471e-07
1.80264e-07
1.77194e-07
1.74265e-07
1.7148e-07
1.68841e-07
1.66346e-07
1.6399e-07
1.61764e-07
1.59652e-07
1.57637e-07
1.55707e-07
1.53852e-07
1.52066e-07
1.50348e-07
1.48696e-07
)
;
    }
    inandouthalf22
    {
        type            cyclic;
        value           nonuniform List<scalar> 
100
(
-3.26529e-12
-3.28897e-12
-3.31295e-12
-3.33723e-12
-3.36177e-12
-3.38656e-12
-3.41158e-12
-3.43681e-12
-3.46222e-12
-3.48778e-12
-3.51348e-12
-3.53928e-12
-3.56519e-12
-3.59119e-12
-3.61729e-12
-3.64354e-12
-3.66997e-12
-3.69667e-12
-3.72375e-12
-3.75135e-12
-3.77966e-12
-3.80888e-12
-3.83927e-12
-3.87113e-12
-3.90478e-12
-3.94057e-12
-3.97884e-12
-4.01997e-12
-4.06427e-12
-4.11201e-12
-4.16331e-12
-4.21814e-12
-4.27634e-12
-4.33764e-12
-4.40166e-12
-4.46767e-12
-4.53431e-12
-4.59973e-12
-4.66179e-12
-4.71757e-12
-4.76248e-12
-4.79229e-12
-4.80807e-12
-4.81491e-12
-4.81767e-12
-4.81935e-12
-4.82202e-12
-6.53826e-12
-1.51932e-11
-8.29393e-09
-9.98769e-08
-1.89032e-07
-2.30447e-07
-2.51479e-07
-2.62913e-07
-2.69288e-07
-2.7266e-07
-2.74085e-07
-2.74172e-07
-2.73296e-07
-2.717e-07
-2.69548e-07
-2.6696e-07
-2.64022e-07
-2.60801e-07
-2.57351e-07
-2.53714e-07
-2.49926e-07
-2.46018e-07
-2.42017e-07
-2.37947e-07
-2.3383e-07
-2.29686e-07
-2.25534e-07
-2.2139e-07
-2.17271e-07
-2.13192e-07
-2.09167e-07
-2.05209e-07
-2.0133e-07
-1.97541e-07
-1.93852e-07
-1.90272e-07
-1.86809e-07
-1.83471e-07
-1.80264e-07
-1.77194e-07
-1.74265e-07
-1.7148e-07
-1.68841e-07
-1.66346e-07
-1.6399e-07
-1.61764e-07
-1.59652e-07
-1.57637e-07
-1.55707e-07
-1.53852e-07
-1.52066e-07
-1.50348e-07
-1.48696e-07
)
;
    }
    inandouthalf31
    {
        type            cyclic;
        value           nonuniform List<scalar> 
110
(
1.47107e-07
1.48521e-07
1.49962e-07
1.51425e-07
1.52912e-07
1.54424e-07
1.55954e-07
1.57495e-07
1.59053e-07
1.60629e-07
1.62211e-07
1.63799e-07
1.65396e-07
1.66994e-07
1.68595e-07
1.70203e-07
1.71805e-07
1.73403e-07
1.75017e-07
1.76639e-07
1.78256e-07
1.79881e-07
1.8151e-07
1.83144e-07
1.84778e-07
1.86393e-07
1.88003e-07
1.89609e-07
1.91186e-07
1.92747e-07
1.94288e-07
1.95797e-07
1.97278e-07
1.98736e-07
2.00163e-07
2.01544e-07
2.02852e-07
2.04132e-07
2.05656e-07
2.07749e-07
2.10558e-07
2.13307e-07
1.5981e-08
1.62968e-08
1.66206e-08
1.6952e-08
1.7291e-08
1.76377e-08
1.79921e-08
1.83542e-08
1.87242e-08
1.91022e-08
1.94882e-08
1.98823e-08
2.02847e-08
2.06954e-08
2.11147e-08
2.15426e-08
2.19794e-08
2.24251e-08
2.288e-08
2.33441e-08
2.38177e-08
2.4301e-08
2.47941e-08
2.52972e-08
2.58106e-08
2.63345e-08
2.68689e-08
2.74143e-08
2.79707e-08
2.85384e-08
2.91176e-08
2.97086e-08
3.03116e-08
3.09269e-08
3.15546e-08
3.21951e-08
3.28485e-08
3.35153e-08
3.41956e-08
3.48896e-08
3.55978e-08
3.63203e-08
3.70575e-08
3.78097e-08
3.85771e-08
3.93601e-08
4.01591e-08
4.09742e-08
4.18059e-08
4.26544e-08
4.35202e-08
4.44035e-08
4.53048e-08
4.62243e-08
4.71626e-08
4.81198e-08
4.90966e-08
5.00931e-08
5.11099e-08
5.21472e-08
5.32057e-08
5.42856e-08
5.53875e-08
5.65117e-08
5.76587e-08
5.8829e-08
6.00231e-08
6.12414e-08
)
;
    }
    inandouthalf32
    {
        type            cyclic;
        value           nonuniform List<scalar> 
110
(
-1.47107e-07
-1.48521e-07
-1.49962e-07
-1.51425e-07
-1.52912e-07
-1.54424e-07
-1.55954e-07
-1.57495e-07
-1.59053e-07
-1.60629e-07
-1.62211e-07
-1.63799e-07
-1.65396e-07
-1.66994e-07
-1.68595e-07
-1.70203e-07
-1.71805e-07
-1.73403e-07
-1.75017e-07
-1.76639e-07
-1.78256e-07
-1.79881e-07
-1.8151e-07
-1.83144e-07
-1.84778e-07
-1.86393e-07
-1.88003e-07
-1.89609e-07
-1.91186e-07
-1.92747e-07
-1.94288e-07
-1.95797e-07
-1.97278e-07
-1.98736e-07
-2.00163e-07
-2.01544e-07
-2.02852e-07
-2.04132e-07
-2.05656e-07
-2.07749e-07
-2.10558e-07
-2.13307e-07
-1.5981e-08
-1.62968e-08
-1.66206e-08
-1.6952e-08
-1.7291e-08
-1.76377e-08
-1.79921e-08
-1.83542e-08
-1.87242e-08
-1.91022e-08
-1.94882e-08
-1.98823e-08
-2.02847e-08
-2.06954e-08
-2.11147e-08
-2.15426e-08
-2.19794e-08
-2.24251e-08
-2.288e-08
-2.33441e-08
-2.38177e-08
-2.4301e-08
-2.47941e-08
-2.52972e-08
-2.58106e-08
-2.63345e-08
-2.68689e-08
-2.74143e-08
-2.79707e-08
-2.85384e-08
-2.91176e-08
-2.97086e-08
-3.03116e-08
-3.09269e-08
-3.15546e-08
-3.21951e-08
-3.28485e-08
-3.35153e-08
-3.41956e-08
-3.48896e-08
-3.55978e-08
-3.63203e-08
-3.70575e-08
-3.78097e-08
-3.85771e-08
-3.93601e-08
-4.01591e-08
-4.09742e-08
-4.18059e-08
-4.26544e-08
-4.35202e-08
-4.44035e-08
-4.53048e-08
-4.62243e-08
-4.71626e-08
-4.81198e-08
-4.90966e-08
-5.00931e-08
-5.11099e-08
-5.21472e-08
-5.32057e-08
-5.42856e-08
-5.53875e-08
-5.65117e-08
-5.76587e-08
-5.8829e-08
-6.00231e-08
-6.12414e-08
)
;
    }
    inandouthalf41
    {
        type            cyclic;
        value           nonuniform List<scalar> 
50
(
5.48173e-08
5.48173e-08
5.48173e-08
5.48173e-08
5.48173e-08
5.48173e-08
5.48173e-08
5.48173e-08
5.48173e-08
5.48173e-08
5.48173e-08
5.48173e-08
5.48173e-08
5.48173e-08
5.48173e-08
5.48173e-08
5.48173e-08
5.48173e-08
5.48173e-08
5.48173e-08
5.48173e-08
5.48173e-08
5.48173e-08
5.48173e-08
5.48173e-08
5.48173e-08
5.48173e-08
5.48173e-08
5.48173e-08
5.48173e-08
5.48173e-08
5.48173e-08
5.48173e-08
5.48173e-08
5.48173e-08
5.48173e-08
5.48173e-08
5.48173e-08
5.48173e-08
5.48173e-08
5.48173e-08
5.48173e-08
5.48173e-08
5.48173e-08
5.48173e-08
5.48173e-08
5.48169e-08
5.48061e-08
5.4542e-08
4.84396e-08
)
;
    }
    inandouthalf42
    {
        type            cyclic;
        value           nonuniform List<scalar> 
50
(
-5.48173e-08
-5.48173e-08
-5.48173e-08
-5.48173e-08
-5.48173e-08
-5.48173e-08
-5.48173e-08
-5.48173e-08
-5.48173e-08
-5.48173e-08
-5.48173e-08
-5.48173e-08
-5.48173e-08
-5.48173e-08
-5.48173e-08
-5.48173e-08
-5.48173e-08
-5.48173e-08
-5.48173e-08
-5.48173e-08
-5.48173e-08
-5.48173e-08
-5.48173e-08
-5.48173e-08
-5.48173e-08
-5.48173e-08
-5.48173e-08
-5.48173e-08
-5.48173e-08
-5.48173e-08
-5.48173e-08
-5.48173e-08
-5.48173e-08
-5.48173e-08
-5.48173e-08
-5.48173e-08
-5.48173e-08
-5.48173e-08
-5.48173e-08
-5.48173e-08
-5.48173e-08
-5.48173e-08
-5.48173e-08
-5.48173e-08
-5.48173e-08
-5.48173e-08
-5.48169e-08
-5.48061e-08
-5.4542e-08
-4.84396e-08
)
;
    }
    top
    {
        type            symmetryPlane;
        value           uniform 0;
    }
    walls
    {
        type            fixedValue;
        value           uniform 0;
    }
    frontAndBackPlanes
    {
        type            empty;
        value           nonuniform 0();
    }
}


// ************************************************************************* //
