/*--------------------------------*- C++ -*----------------------------------*\
| =========                 |                                                 |
| \\      /  F ield         | OpenFOAM: The Open Source CFD Toolbox           |
|  \\    /   O peration     | Version:  2.4.x                                 |
|   \\  /    A nd           | Web:      www.OpenFOAM.org                      |
|    \\/     M anipulation  |                                                 |
\*---------------------------------------------------------------------------*/
FoamFile
{
    version     2.0;
    format      ascii;
    class       surfaceScalarField;
    location    "3.2";
    object      phib;
}
// * * * * * * * * * * * * * * * * * * * * * * * * * * * * * * * * * * * * * //

dimensions      [0 3 -1 0 0 0 0];

internalField   nonuniform List<scalar> 
359
(
1.53041e-12
5.0922e-12
8.9636e-12
1.24321e-11
1.55435e-11
1.84968e-11
2.1423e-11
2.43589e-11
2.72836e-11
3.0195e-11
3.31424e-11
3.62222e-11
3.95605e-11
4.32687e-11
4.73772e-11
5.173e-11
5.59133e-11
5.93743e-11
6.17505e-11
6.30974e-11
6.37498e-11
6.40437e-11
6.41814e-11
6.42561e-11
6.43059e-11
6.43467e-11
6.43861e-11
6.44282e-11
6.44752e-11
6.45276e-11
6.45845e-11
6.46445e-11
6.47057e-11
6.47669e-11
6.48271e-11
6.48861e-11
6.49437e-11
6.50003e-11
6.50565e-11
6.51124e-11
6.51683e-11
6.52246e-11
6.52811e-11
6.53381e-11
6.53957e-11
6.54538e-11
6.55126e-11
6.5572e-11
6.56319e-11
6.56928e-11
6.57549e-11
6.58181e-11
6.58826e-11
6.59487e-11
6.60164e-11
6.60861e-11
6.61578e-11
6.62318e-11
6.63082e-11
6.63869e-11
6.64679e-11
6.6551e-11
6.66361e-11
6.67228e-11
6.68108e-11
6.68999e-11
6.69902e-11
6.70818e-11
6.71754e-11
6.72713e-11
6.73702e-11
6.7473e-11
6.75799e-11
6.76913e-11
6.78071e-11
6.79272e-11
6.80511e-11
6.81783e-11
6.83083e-11
6.84407e-11
6.85754e-11
6.87125e-11
6.88522e-11
6.89946e-11
6.91402e-11
6.9289e-11
6.9441e-11
6.95962e-11
6.97541e-11
6.99146e-11
7.00772e-11
7.02418e-11
7.04081e-11
7.0576e-11
7.07456e-11
7.09167e-11
7.10894e-11
7.12637e-11
7.14394e-11
7.16165e-11
7.17949e-11
7.19745e-11
7.2155e-11
7.23364e-11
7.25184e-11
7.27008e-11
7.28833e-11
7.30656e-11
7.32476e-11
7.34288e-11
7.36091e-11
7.37883e-11
7.39661e-11
7.41426e-11
7.43178e-11
7.44918e-11
7.46652e-11
7.48384e-11
7.50123e-11
7.51879e-11
7.53664e-11
7.55495e-11
7.57386e-11
7.59357e-11
7.61427e-11
7.63613e-11
7.65933e-11
7.68402e-11
7.71026e-11
7.73807e-11
7.76733e-11
7.79779e-11
7.82908e-11
7.86078e-11
7.89239e-11
7.9232e-11
7.9521e-11
7.97764e-11
7.99826e-11
8.01256e-11
8.01967e-11
8.01805e-11
8.00799e-11
7.99136e-11
7.96572e-11
7.8982e-11
8.36474e-11
8.96639e-11
9.27412e-11
-5.3885e-10
-3.20131e-10
8.59158e-11
2.73496e-10
3.1787e-10
3.16354e-10
3.01703e-10
2.82174e-10
2.61598e-10
2.41299e-10
2.21844e-10
2.03456e-10
1.86203e-10
1.70087e-10
1.55075e-10
1.41122e-10
1.28177e-10
1.16186e-10
1.05096e-10
9.48575e-11
8.54206e-11
7.67392e-11
6.87695e-11
6.14706e-11
5.48036e-11
4.87319e-11
4.32198e-11
3.82321e-11
3.37335e-11
2.96877e-11
2.60577e-11
2.28061e-11
1.98954e-11
1.72892e-11
1.49527e-11
1.28537e-11
1.0963e-11
9.25537e-12
7.71051e-12
6.3145e-12
5.06176e-12
3.95679e-12
3.01319e-12
2.24672e-12
1.66254e-12
1.24432e-12
9.56113e-13
7.56861e-13
6.14107e-13
5.07564e-13
4.25879e-13
3.61769e-13
3.08514e-13
2.6339e-13
2.26359e-13
1.96103e-13
1.69265e-13
1.4556e-13
1.26442e-13
1.10276e-13
9.54051e-14
8.2651e-14
7.19608e-14
6.23641e-14
5.40769e-14
4.7062e-14
4.0596e-14
3.50089e-14
3.05155e-14
2.63702e-14
2.25865e-14
1.94651e-14
1.67455e-14
1.43643e-14
1.22851e-14
1.03944e-14
8.82891e-15
7.50872e-15
6.29073e-15
5.28642e-15
4.43649e-15
3.68074e-15
3.05737e-15
2.52979e-15
2.07592e-15
1.68258e-15
1.34063e-15
1.07913e-15
9.67713e-16
9.88385e-16
1.0153e-15
7.03786e-16
5.37521e-16
7.46714e-18
7.21407e-18
6.92429e-18
6.67277e-18
6.39699e-18
6.15775e-18
5.88691e-18
5.63978e-18
5.38626e-18
5.14087e-18
4.87642e-18
4.62836e-18
4.36606e-18
4.11936e-18
3.86287e-18
3.6219e-18
3.37255e-18
3.1385e-18
2.90191e-18
2.6835e-18
2.47001e-18
2.28299e-18
2.11847e-18
1.97945e-18
1.87556e-18
1.76319e-18
1.66177e-18
1.56962e-18
1.48249e-18
1.40187e-18
1.33492e-18
1.27226e-18
1.21237e-18
1.15317e-18
1.09774e-18
1.04193e-18
9.87259e-19
9.33477e-19
8.9088e-19
8.48104e-19
8.0612e-19
7.60691e-19
7.18026e-19
6.7092e-19
6.63785e-19
6.11976e-19
5.6728e-19
5.18024e-19
4.68255e-19
4.12613e-19
3.62081e-19
3.06158e-19
2.52385e-19
1.93716e-19
2.58444e-20
1.47164e-20
8.06088e-21
1.55907e-20
1.13886e-20
4.90601e-21
-9.08244e-22
-8.50507e-21
-1.22307e-20
-1.70044e-20
-2.1395e-20
-2.59056e-20
-3.10813e-20
-3.45216e-20
-3.82174e-20
-3.99669e-20
-4.69028e-20
-5.08683e-20
-5.46444e-20
-5.37858e-20
-5.74063e-20
-5.49819e-20
-5.26906e-20
-4.34319e-20
-4.79566e-20
-4.35329e-20
-3.93382e-20
-2.33554e-20
-2.06324e-20
-2.50553e-21
1.16302e-20
4.93984e-20
-6.89786e-21
-1.48926e-20
-2.48923e-20
4.30672e-20
3.40633e-20
1.42554e-19
2.46779e-19
4.84093e-19
4.827e-19
6.49197e-19
8.15168e-19
1.18116e-18
1.4021e-18
1.82811e-18
2.26086e-18
2.86245e-18
3.33933e-18
3.96675e-18
4.6042e-18
5.38057e-18
6.1448e-18
6.93284e-18
7.79023e-18
8.66706e-18
1.01847e-17
1.13326e-17
1.2561e-17
1.3311e-17
1.44114e-17
1.55535e-17
1.81843e-17
)
;

boundaryField
{
    inandouthalf11
    {
        type            cyclic;
        value           nonuniform List<scalar> 
100
(
2.55192e-10
2.55071e-10
2.54912e-10
2.55058e-10
2.55259e-10
2.55458e-10
2.55663e-10
2.55862e-10
2.56043e-10
2.56218e-10
2.56395e-10
2.56581e-10
2.56783e-10
2.57005e-10
2.5725e-10
2.57516e-10
2.57784e-10
2.58022e-10
2.58201e-10
2.58313e-10
2.5837e-10
2.58398e-10
2.58412e-10
2.5842e-10
2.58426e-10
2.58432e-10
2.58437e-10
2.58444e-10
2.58452e-10
2.5846e-10
2.58469e-10
2.5848e-10
2.58489e-10
2.58502e-10
2.58514e-10
2.58527e-10
2.5854e-10
2.58555e-10
2.58573e-10
2.58588e-10
2.58607e-10
2.58626e-10
2.58646e-10
2.58669e-10
2.58692e-10
2.58718e-10
2.58745e-10
2.58772e-10
2.58803e-10
2.58838e-10
2.58872e-10
2.5891e-10
2.5895e-10
2.58993e-10
2.59037e-10
2.59086e-10
2.59136e-10
2.59191e-10
2.59248e-10
2.59306e-10
2.5937e-10
2.59434e-10
2.59502e-10
2.5957e-10
2.5964e-10
2.59712e-10
2.59787e-10
2.59863e-10
2.59943e-10
2.60025e-10
2.60111e-10
2.60201e-10
2.60292e-10
2.60388e-10
2.60486e-10
2.60587e-10
2.6069e-10
2.60795e-10
2.60902e-10
2.61013e-10
2.61125e-10
2.61241e-10
2.6136e-10
2.61483e-10
2.61608e-10
2.61736e-10
2.61868e-10
2.62002e-10
2.6214e-10
2.6228e-10
2.62423e-10
2.62569e-10
2.62718e-10
2.62871e-10
2.63028e-10
2.63188e-10
2.63351e-10
2.63518e-10
2.63689e-10
2.63864e-10
)
;
    }
    inandouthalf12
    {
        type            cyclic;
        value           nonuniform List<scalar> 
100
(
-2.55192e-10
-2.55071e-10
-2.54912e-10
-2.55058e-10
-2.55259e-10
-2.55458e-10
-2.55663e-10
-2.55862e-10
-2.56043e-10
-2.56218e-10
-2.56395e-10
-2.56581e-10
-2.56783e-10
-2.57005e-10
-2.5725e-10
-2.57516e-10
-2.57784e-10
-2.58022e-10
-2.58201e-10
-2.58313e-10
-2.5837e-10
-2.58398e-10
-2.58412e-10
-2.5842e-10
-2.58426e-10
-2.58432e-10
-2.58437e-10
-2.58444e-10
-2.58452e-10
-2.5846e-10
-2.58469e-10
-2.5848e-10
-2.58489e-10
-2.58502e-10
-2.58514e-10
-2.58527e-10
-2.5854e-10
-2.58555e-10
-2.58573e-10
-2.58588e-10
-2.58607e-10
-2.58626e-10
-2.58646e-10
-2.58669e-10
-2.58692e-10
-2.58718e-10
-2.58745e-10
-2.58772e-10
-2.58803e-10
-2.58838e-10
-2.58872e-10
-2.5891e-10
-2.5895e-10
-2.58993e-10
-2.59037e-10
-2.59086e-10
-2.59136e-10
-2.59191e-10
-2.59248e-10
-2.59306e-10
-2.5937e-10
-2.59434e-10
-2.59502e-10
-2.5957e-10
-2.5964e-10
-2.59712e-10
-2.59787e-10
-2.59863e-10
-2.59943e-10
-2.60025e-10
-2.60111e-10
-2.60201e-10
-2.60292e-10
-2.60388e-10
-2.60486e-10
-2.60587e-10
-2.6069e-10
-2.60795e-10
-2.60902e-10
-2.61013e-10
-2.61125e-10
-2.61241e-10
-2.6136e-10
-2.61483e-10
-2.61608e-10
-2.61736e-10
-2.61868e-10
-2.62002e-10
-2.6214e-10
-2.6228e-10
-2.62423e-10
-2.62569e-10
-2.62718e-10
-2.62871e-10
-2.63028e-10
-2.63188e-10
-2.63351e-10
-2.63518e-10
-2.63689e-10
-2.63864e-10
)
;
    }
    inandouthalf21
    {
        type            cyclic;
        value           nonuniform List<scalar> 
100
(
2.64043e-10
2.64226e-10
2.64413e-10
2.64604e-10
2.648e-10
2.65e-10
2.65205e-10
2.65415e-10
2.65631e-10
2.65851e-10
2.66077e-10
2.66309e-10
2.66547e-10
2.66791e-10
2.67041e-10
2.67299e-10
2.67563e-10
2.67836e-10
2.68116e-10
2.68406e-10
2.68704e-10
2.69013e-10
2.69332e-10
2.69662e-10
2.70005e-10
2.7036e-10
2.7073e-10
2.71115e-10
2.71517e-10
2.71937e-10
2.72376e-10
2.72834e-10
2.73313e-10
2.73819e-10
2.74355e-10
2.74921e-10
2.75513e-10
2.76135e-10
2.76814e-10
2.77579e-10
2.78396e-10
2.7916e-10
2.80049e-10
2.81195e-10
2.82597e-10
2.84862e-10
2.92133e-10
2.93728e-10
3.16218e-10
9.13223e-09
1.20693e-07
2.11321e-07
2.52586e-07
2.72335e-07
2.81624e-07
2.85959e-07
2.87747e-07
2.88051e-07
2.87381e-07
2.86008e-07
2.84096e-07
2.81749e-07
2.79041e-07
2.76027e-07
2.72751e-07
2.69248e-07
2.65547e-07
2.61672e-07
2.57644e-07
2.53482e-07
2.49202e-07
2.44816e-07
2.40338e-07
2.35777e-07
2.31144e-07
2.26448e-07
2.21694e-07
2.16891e-07
2.12045e-07
2.07161e-07
2.02244e-07
1.97299e-07
1.9233e-07
1.87341e-07
1.82335e-07
1.77317e-07
1.72289e-07
1.67254e-07
1.62215e-07
1.57176e-07
1.52138e-07
1.47106e-07
1.4208e-07
1.37065e-07
1.32064e-07
1.27078e-07
1.2211e-07
1.17164e-07
1.12242e-07
1.07347e-07
)
;
    }
    inandouthalf22
    {
        type            cyclic;
        value           nonuniform List<scalar> 
100
(
-2.64043e-10
-2.64226e-10
-2.64413e-10
-2.64604e-10
-2.648e-10
-2.65e-10
-2.65205e-10
-2.65415e-10
-2.65631e-10
-2.65851e-10
-2.66077e-10
-2.66309e-10
-2.66547e-10
-2.66791e-10
-2.67041e-10
-2.67299e-10
-2.67563e-10
-2.67836e-10
-2.68116e-10
-2.68406e-10
-2.68704e-10
-2.69013e-10
-2.69332e-10
-2.69662e-10
-2.70005e-10
-2.7036e-10
-2.7073e-10
-2.71115e-10
-2.71517e-10
-2.71937e-10
-2.72376e-10
-2.72834e-10
-2.73313e-10
-2.73819e-10
-2.74355e-10
-2.74921e-10
-2.75513e-10
-2.76135e-10
-2.76814e-10
-2.77579e-10
-2.78396e-10
-2.7916e-10
-2.80049e-10
-2.81195e-10
-2.82597e-10
-2.84862e-10
-2.92133e-10
-2.93728e-10
-3.16218e-10
-9.13223e-09
-1.20693e-07
-2.11321e-07
-2.52586e-07
-2.72335e-07
-2.81624e-07
-2.85959e-07
-2.87747e-07
-2.88051e-07
-2.87381e-07
-2.86008e-07
-2.84096e-07
-2.81749e-07
-2.79041e-07
-2.76027e-07
-2.72751e-07
-2.69248e-07
-2.65547e-07
-2.61672e-07
-2.57644e-07
-2.53482e-07
-2.49202e-07
-2.44816e-07
-2.40338e-07
-2.35777e-07
-2.31144e-07
-2.26448e-07
-2.21694e-07
-2.16891e-07
-2.12045e-07
-2.07161e-07
-2.02244e-07
-1.97299e-07
-1.9233e-07
-1.87341e-07
-1.82335e-07
-1.77317e-07
-1.72289e-07
-1.67254e-07
-1.62215e-07
-1.57176e-07
-1.52138e-07
-1.47106e-07
-1.4208e-07
-1.37065e-07
-1.32064e-07
-1.27078e-07
-1.2211e-07
-1.17164e-07
-1.12242e-07
-1.07347e-07
)
;
    }
    inandouthalf31
    {
        type            cyclic;
        value           nonuniform List<scalar> 
110
(
1.02482e-07
9.95816e-08
9.64569e-08
9.31033e-08
8.95167e-08
8.56943e-08
8.1635e-08
7.73394e-08
7.28112e-08
6.80572e-08
6.3089e-08
5.7924e-08
5.25882e-08
4.71189e-08
4.15696e-08
3.60194e-08
3.05882e-08
2.5475e-08
2.10007e-08
1.88015e-08
1.87469e-08
1.90102e-08
1.92965e-08
1.95973e-08
1.99121e-08
2.02406e-08
2.05829e-08
2.09387e-08
2.13076e-08
2.16896e-08
2.20845e-08
2.24921e-08
2.29124e-08
2.33452e-08
2.37903e-08
2.42478e-08
2.47176e-08
2.51997e-08
2.5694e-08
2.62007e-08
2.67199e-08
2.72513e-08
2.77934e-08
2.83487e-08
2.89168e-08
2.94975e-08
3.00909e-08
3.06972e-08
3.13165e-08
3.1949e-08
3.25948e-08
3.32542e-08
3.39274e-08
3.46145e-08
3.53159e-08
3.60317e-08
3.67623e-08
3.75078e-08
3.82686e-08
3.90449e-08
3.9837e-08
4.06454e-08
4.14701e-08
4.23117e-08
4.31704e-08
4.40465e-08
4.49405e-08
4.58526e-08
4.67832e-08
4.77328e-08
4.87016e-08
4.96901e-08
5.06986e-08
5.17277e-08
5.27776e-08
5.38489e-08
5.49418e-08
5.6057e-08
5.71948e-08
5.83557e-08
5.95402e-08
6.07487e-08
6.19817e-08
6.32398e-08
6.45234e-08
6.58331e-08
6.71693e-08
6.85327e-08
6.99237e-08
7.1343e-08
7.2791e-08
7.42685e-08
7.5776e-08
7.7314e-08
7.88833e-08
8.04844e-08
8.2118e-08
8.37848e-08
8.54854e-08
8.72206e-08
8.89909e-08
9.07972e-08
9.26401e-08
9.45205e-08
9.6439e-08
9.83965e-08
1.00394e-07
1.02431e-07
1.0451e-07
1.06632e-07
)
;
    }
    inandouthalf32
    {
        type            cyclic;
        value           nonuniform List<scalar> 
110
(
-1.02482e-07
-9.95816e-08
-9.64569e-08
-9.31033e-08
-8.95167e-08
-8.56943e-08
-8.1635e-08
-7.73394e-08
-7.28112e-08
-6.80572e-08
-6.3089e-08
-5.7924e-08
-5.25882e-08
-4.71189e-08
-4.15696e-08
-3.60194e-08
-3.05882e-08
-2.5475e-08
-2.10007e-08
-1.88015e-08
-1.87469e-08
-1.90102e-08
-1.92965e-08
-1.95973e-08
-1.99121e-08
-2.02406e-08
-2.05829e-08
-2.09387e-08
-2.13076e-08
-2.16896e-08
-2.20845e-08
-2.24921e-08
-2.29124e-08
-2.33452e-08
-2.37903e-08
-2.42478e-08
-2.47176e-08
-2.51997e-08
-2.5694e-08
-2.62007e-08
-2.67199e-08
-2.72513e-08
-2.77934e-08
-2.83487e-08
-2.89168e-08
-2.94975e-08
-3.00909e-08
-3.06972e-08
-3.13165e-08
-3.1949e-08
-3.25948e-08
-3.32542e-08
-3.39274e-08
-3.46145e-08
-3.53159e-08
-3.60317e-08
-3.67623e-08
-3.75078e-08
-3.82686e-08
-3.90449e-08
-3.9837e-08
-4.06454e-08
-4.14701e-08
-4.23117e-08
-4.31704e-08
-4.40465e-08
-4.49405e-08
-4.58526e-08
-4.67832e-08
-4.77328e-08
-4.87016e-08
-4.96901e-08
-5.06986e-08
-5.17277e-08
-5.27776e-08
-5.38489e-08
-5.49418e-08
-5.6057e-08
-5.71948e-08
-5.83557e-08
-5.95402e-08
-6.07487e-08
-6.19817e-08
-6.32398e-08
-6.45234e-08
-6.58331e-08
-6.71693e-08
-6.85327e-08
-6.99237e-08
-7.1343e-08
-7.2791e-08
-7.42685e-08
-7.5776e-08
-7.7314e-08
-7.88833e-08
-8.04844e-08
-8.2118e-08
-8.37848e-08
-8.54854e-08
-8.72206e-08
-8.89909e-08
-9.07972e-08
-9.26401e-08
-9.45205e-08
-9.6439e-08
-9.83965e-08
-1.00394e-07
-1.02431e-07
-1.0451e-07
-1.06632e-07
)
;
    }
    inandouthalf41
    {
        type            cyclic;
        value           nonuniform List<scalar> 
50
(
9.54463e-08
9.54463e-08
9.54463e-08
9.54463e-08
9.54463e-08
9.54463e-08
9.54463e-08
9.54463e-08
9.54463e-08
9.54463e-08
9.54463e-08
9.54463e-08
9.54463e-08
9.54463e-08
9.54463e-08
9.54463e-08
9.54463e-08
9.54463e-08
9.54463e-08
9.54463e-08
9.54463e-08
9.54463e-08
9.54463e-08
9.54463e-08
9.54463e-08
9.54463e-08
9.54463e-08
9.54463e-08
9.54463e-08
9.54463e-08
9.54463e-08
9.54463e-08
9.54463e-08
9.54463e-08
9.54463e-08
9.54463e-08
9.54463e-08
9.54463e-08
9.54463e-08
9.54463e-08
9.54463e-08
9.54463e-08
9.54463e-08
9.54463e-08
9.54463e-08
9.54463e-08
9.54463e-08
9.54463e-08
9.54463e-08
9.54463e-08
)
;
    }
    inandouthalf42
    {
        type            cyclic;
        value           nonuniform List<scalar> 
50
(
-9.54463e-08
-9.54463e-08
-9.54463e-08
-9.54463e-08
-9.54463e-08
-9.54463e-08
-9.54463e-08
-9.54463e-08
-9.54463e-08
-9.54463e-08
-9.54463e-08
-9.54463e-08
-9.54463e-08
-9.54463e-08
-9.54463e-08
-9.54463e-08
-9.54463e-08
-9.54463e-08
-9.54463e-08
-9.54463e-08
-9.54463e-08
-9.54463e-08
-9.54463e-08
-9.54463e-08
-9.54463e-08
-9.54463e-08
-9.54463e-08
-9.54463e-08
-9.54463e-08
-9.54463e-08
-9.54463e-08
-9.54463e-08
-9.54463e-08
-9.54463e-08
-9.54463e-08
-9.54463e-08
-9.54463e-08
-9.54463e-08
-9.54463e-08
-9.54463e-08
-9.54463e-08
-9.54463e-08
-9.54463e-08
-9.54463e-08
-9.54463e-08
-9.54463e-08
-9.54463e-08
-9.54463e-08
-9.54463e-08
-9.54463e-08
)
;
    }
    top
    {
        type            symmetryPlane;
        value           uniform 0;
    }
    walls
    {
        type            fixedValue;
        value           uniform 0;
    }
    frontAndBackPlanes
    {
        type            empty;
        value           nonuniform 0();
    }
}


// ************************************************************************* //
