/*--------------------------------*- C++ -*----------------------------------*\
| =========                 |                                                 |
| \\      /  F ield         | OpenFOAM: The Open Source CFD Toolbox           |
|  \\    /   O peration     | Version:  2.4.x                                 |
|   \\  /    A nd           | Web:      www.OpenFOAM.org                      |
|    \\/     M anipulation  |                                                 |
\*---------------------------------------------------------------------------*/
FoamFile
{
    version     2.0;
    format      ascii;
    class       volScalarField;
    location    "3.2";
    object      Theta_0;
}
// * * * * * * * * * * * * * * * * * * * * * * * * * * * * * * * * * * * * * //

dimensions      [0 2 -2 0 0 0 0];

internalField   nonuniform List<scalar> 
360
(
6.69264e-21
6.84253e-21
6.87966e-21
6.82985e-21
6.79792e-21
6.78509e-21
6.7826e-21
6.78316e-21
6.78241e-21
6.7814e-21
6.78444e-21
6.79601e-21
6.81986e-21
6.85753e-21
6.90288e-21
6.93258e-21
6.91061e-21
6.83029e-21
6.74027e-21
6.68656e-21
6.66727e-21
6.66256e-21
6.66163e-21
6.66144e-21
6.66139e-21
6.66138e-21
6.66138e-21
6.66139e-21
6.66139e-21
6.6614e-21
6.66141e-21
6.66141e-21
6.66141e-21
6.66141e-21
6.66141e-21
6.66141e-21
6.66141e-21
6.66141e-21
6.66141e-21
6.66141e-21
6.66141e-21
6.66141e-21
6.66141e-21
6.66141e-21
6.66141e-21
6.66141e-21
6.66141e-21
6.66142e-21
6.66142e-21
6.66142e-21
6.66142e-21
6.66142e-21
6.66143e-21
6.66143e-21
6.66144e-21
6.66144e-21
6.66145e-21
6.66145e-21
6.66146e-21
6.66147e-21
6.66147e-21
6.66148e-21
6.66148e-21
6.66149e-21
6.66149e-21
6.6615e-21
6.6615e-21
6.66151e-21
6.66151e-21
6.66152e-21
6.66153e-21
6.66155e-21
6.66156e-21
6.66158e-21
6.6616e-21
6.66162e-21
6.66164e-21
6.66165e-21
6.66167e-21
6.66168e-21
6.66169e-21
6.6617e-21
6.66172e-21
6.66173e-21
6.66175e-21
6.66177e-21
6.66179e-21
6.66181e-21
6.66182e-21
6.66184e-21
6.66185e-21
6.66187e-21
6.66188e-21
6.66189e-21
6.66191e-21
6.66192e-21
6.66193e-21
6.66194e-21
6.66196e-21
6.6619e-21
0
0
0
0
0
0
0
0
0
0
0
0
0
0
0
6.66202e-21
6.66202e-21
6.66203e-21
6.66204e-21
6.66207e-21
6.6621e-21
6.66215e-21
6.66221e-21
6.66229e-21
6.66239e-21
6.66252e-21
6.66267e-21
6.66286e-21
6.90244e-21
2.50382e-20
1.09523e-19
4.58924e-19
1.79447e-18
6.50129e-18
2.16912e-17
6.61135e-17
1.82008e-16
4.46648e-16
9.6602e-16
1.82108e-15
2.91289e-15
3.86476e-15
6.81475e-15
4.41036e-14
6.34927e-13
1.32408e-11
4.1061e-10
4.63891e-08
3.64199e-06
8.70341e-05
0.000694538
0.0014009
0.00150609
0.00154891
0.0016049
0.00167836
0.00176527
0.00186157
0.0019638
0.00206923
0.00217579
0.00228187
0.00238622
0.00248787
0.00258606
0.00268015
0.00276968
0.00285425
0.00293358
0.00300745
0.00307571
0.00313826
0.00319508
0.00324618
0.00329162
0.0033315
0.00336597
0.00339519
0.00341937
0.00343873
0.00345353
0.00346402
0.00347049
0.00347321
0.00347247
0.00346856
0.00346176
0.00345235
0.00344061
0.00342681
0.00341121
0.00339404
0.00337552
0.0033558
0.00333502
0.00331326
0.00329058
0.00326706
0.00324274
0.00321768
0.00319193
0.00316527
0.00313743
0.00310842
0.0030782
0.00304678
0.00301413
0.00298022
0.00294501
0.00290849
0.00287061
0.00283132
0.00279057
0.00274832
0.00270449
0.00265902
0.00261185
0.00256287
0.00251202
0.00245919
0.00240428
0.00234716
0.00228771
0.00222579
0.00216123
0.00209387
0.00202351
0.00194994
0.00187289
0.00179208
0.00170717
0.00161776
0.00152336
0.00142336
0.001317
0.00120328
0.00108082
0.000947638
0.000800693
0.000634722
0.000438182
0
0
0
0
0
0
0
0
0
0
0
0
0
0
0
0
0
0
0
0
0
0
0
0
0
0
0
0
0
0
0
0
0
0
0
0
0
0
0
0
0
0
0
0
0
0
0
0
0
0
0
0
0
0
0
0
0
0
0
0
0
0
0
0
0
0
0
0
0
0
0
0
0
0
0
0
0
0
0
0
0
0
0
0
0
0
0
0
0
0
0
0
0
0
0
0
0
0
0
0
0
0
0
0
0
0
0
0
0
0
0
0
0
0
0
0
0
0
0
)
;

boundaryField
{
    inandouthalf11
    {
        type            cyclic;
    }
    inandouthalf12
    {
        type            cyclic;
    }
    inandouthalf21
    {
        type            cyclic;
    }
    inandouthalf22
    {
        type            cyclic;
    }
    inandouthalf31
    {
        type            cyclic;
    }
    inandouthalf32
    {
        type            cyclic;
    }
    inandouthalf41
    {
        type            cyclic;
    }
    inandouthalf42
    {
        type            cyclic;
    }
    top
    {
        type            symmetryPlane;
    }
    walls
    {
        type            zeroGradient;
    }
    frontAndBackPlanes
    {
        type            empty;
    }
}


// ************************************************************************* //
