/*--------------------------------*- C++ -*----------------------------------*\
| =========                 |                                                 |
| \\      /  F ield         | OpenFOAM: The Open Source CFD Toolbox           |
|  \\    /   O peration     | Version:  2.4.x                                 |
|   \\  /    A nd           | Web:      www.OpenFOAM.org                      |
|    \\/     M anipulation  |                                                 |
\*---------------------------------------------------------------------------*/
FoamFile
{
    version     2.0;
    format      ascii;
    class       volVectorField;
    location    "3.2";
    object      U;
}
// * * * * * * * * * * * * * * * * * * * * * * * * * * * * * * * * * * * * * //

dimensions      [0 1 -1 0 0 0 0];

internalField   nonuniform List<vector> 
360
(
(-9.94829e-05 6.58232e-08 0)
(-9.94185e-05 2.1701e-08 0)
(-9.94171e-05 -1.32387e-08 0)
(-9.95662e-05 -1.31012e-08 0)
(-9.97346e-05 -5.90821e-09 0)
(-9.98965e-05 -1.759e-09 0)
(-0.000100059 8.38469e-11 0)
(-0.000100219 1.27926e-10 0)
(-0.000100369 -4.32383e-10 0)
(-0.000100515 -3.70415e-11 0)
(-0.000100662 1.78252e-09 0)
(-0.000100814 4.61418e-09 0)
(-0.000100978 7.78467e-09 0)
(-0.000101157 1.00538e-08 0)
(-0.000101355 9.20945e-09 0)
(-0.000101569 2.32894e-09 0)
(-0.000101784 -1.09428e-08 0)
(-0.000101976 -2.41353e-08 0)
(-0.000102118 -2.79716e-08 0)
(-0.000102206 -2.13627e-08 0)
(-0.000102251 -1.19028e-08 0)
(-0.000102272 -5.3409e-09 0)
(-0.000102283 -2.16983e-09 0)
(-0.000102288 -8.65099e-10 0)
(-0.000102293 -3.34018e-10 0)
(-0.000102296 -9.39231e-11 0)
(-0.0001023 1.44781e-11 0)
(-0.000102304 1.0473e-10 0)
(-0.000102309 1.34704e-10 0)
(-0.000102315 1.28797e-10 0)
(-0.00010232 7.89075e-11 0)
(-0.000102327 7.3759e-11 0)
(-0.000102334 -2.20355e-11 0)
(-0.000102342 6.81511e-12 0)
(-0.00010235 -4.51309e-11 0)
(-0.000102358 -2.82394e-11 0)
(-0.000102367 -4.1027e-11 0)
(-0.000102376 -3.15999e-11 0)
(-0.000102387 1.45382e-11 0)
(-0.000102396 -3.44843e-11 0)
(-0.000102408 1.01836e-11 0)
(-0.00010242 1.42606e-11 0)
(-0.000102432 -2.00181e-11 0)
(-0.000102446 2.04515e-11 0)
(-0.00010246 2.29979e-12 0)
(-0.000102475 3.23216e-12 0)
(-0.000102491 2.38861e-11 0)
(-0.000102507 -1.00376e-11 0)
(-0.000102525 -4.13609e-12 0)
(-0.000102545 3.74212e-11 0)
(-0.000102565 3.14897e-12 0)
(-0.000102587 2.66335e-11 0)
(-0.00010261 1.41507e-11 0)
(-0.000102635 3.91263e-11 0)
(-0.000102661 9.85663e-12 0)
(-0.000102689 5.42385e-11 0)
(-0.000102718 2.41332e-11 0)
(-0.000102749 4.8848e-11 0)
(-0.000102782 5.37971e-11 0)
(-0.000102815 2.32329e-11 0)
(-0.000102852 6.26219e-11 0)
(-0.000102888 2.82047e-11 0)
(-0.000102927 4.44387e-11 0)
(-0.000102966 2.55032e-11 0)
(-0.000103007 2.5017e-11 0)
(-0.000103048 1.20868e-11 0)
(-0.00010309 1.8241e-11 0)
(-0.000103134 2.7472e-11 0)
(-0.00010318 4.2657e-11 0)
(-0.000103226 3.82031e-11 0)
(-0.000103276 6.65895e-11 0)
(-0.000103327 9.99794e-11 0)
(-0.00010338 7.96217e-11 0)
(-0.000103434 1.05113e-10 0)
(-0.000103491 9.11842e-11 0)
(-0.000103549 9.95952e-11 0)
(-0.000103608 7.54097e-11 0)
(-0.000103669 6.11536e-11 0)
(-0.000103731 5.06633e-11 0)
(-0.000103795 4.7922e-11 0)
(-0.00010386 3.89704e-11 0)
(-0.000103927 4.35629e-11 0)
(-0.000103996 5.14809e-11 0)
(-0.000104066 5.68997e-11 0)
(-0.000104139 6.42697e-11 0)
(-0.000104213 6.50107e-11 0)
(-0.000104289 6.63303e-11 0)
(-0.000104367 6.00237e-11 0)
(-0.000104446 5.10393e-11 0)
(-0.000104528 4.29063e-11 0)
(-0.000104611 3.48618e-11 0)
(-0.000104695 2.7051e-11 0)
(-0.000104782 2.33604e-11 0)
(-0.00010487 2.11914e-11 0)
(-0.00010496 2.00214e-11 0)
(-0.000105053 1.94531e-11 0)
(-0.000105147 1.87182e-11 0)
(-0.000105244 1.71176e-11 0)
(-0.000105342 1.4551e-11 0)
(-0.000105443 1.13892e-11 0)
(-0.000105546 7.42432e-12 0)
(-0.000105651 2.78111e-12 0)
(-0.000105758 -2.27575e-12 0)
(-0.000105868 -7.96889e-12 0)
(-0.00010598 -1.44121e-11 0)
(-0.000106095 -2.15345e-11 0)
(-0.000106212 -2.92982e-11 0)
(-0.000106332 -3.75391e-11 0)
(-0.000106454 -4.59432e-11 0)
(-0.00010658 -5.41448e-11 0)
(-0.000106708 -6.17018e-11 0)
(-0.000106839 -6.80808e-11 0)
(-0.000106974 -7.26878e-11 0)
(-0.000107112 -7.48664e-11 0)
(-0.000107253 -7.39152e-11 0)
(-0.000107398 -6.91354e-11 0)
(-0.000107546 -5.98739e-11 0)
(-0.000107699 -4.55644e-11 0)
(-0.000107856 -2.57834e-11 0)
(-0.000108018 -3.27783e-13 0)
(-0.000108185 3.06991e-11 0)
(-0.000108358 6.67951e-11 0)
(-0.000108537 1.06932e-10 0)
(-0.000108722 1.49421e-10 0)
(-0.000108915 1.91865e-10 0)
(-0.000109115 2.31186e-10 0)
(-0.000109323 2.63678e-10 0)
(-0.000109542 2.84937e-10 0)
(-0.00010977 2.89632e-10 0)
(-0.000110009 2.71072e-10 0)
(-0.00011026 2.21126e-10 0)
(-0.000110523 1.30771e-10 0)
(-0.000110798 -1.62179e-12 0)
(-0.000111088 -1.53579e-10 0)
(-0.000111396 -3.00354e-10 0)
(-0.00011172 -4.95651e-10 0)
(-0.000112058 -8.45709e-10 0)
(-0.000112411 -1.40332e-09 0)
(-0.000112792 -2.06992e-09 0)
(-0.000113215 -2.27234e-09 0)
(-0.000113659 -1.58591e-09 0)
(-0.000114069 -3.19613e-09 0)
(-0.000114538 -3.83092e-09 0)
(-0.000115136 -3.10325e-09 0)
(-0.000115865 -9.01035e-09 0)
(-0.000117044 -5.4414e-08 0)
(-0.000120847 3.3464e-07 0)
(-0.000122494 8.36551e-08 0)
(-0.000137274 1.09575e-06 0)
(-0.00867194 -3.16109e-06 0)
(-0.116827 -8.50626e-05 0)
(-0.209831 5.06097e-05 0)
(-0.251924 -8.31137e-06 0)
(-0.272009 1.26648e-05 0)
(-0.281442 3.44791e-06 0)
(-0.285842 1.41496e-06 0)
(-0.287664 5.74242e-07 0)
(-0.287988 3.25501e-07 0)
(-0.28733 1.88036e-07 0)
(-0.285965 1.02356e-07 0)
(-0.284059 5.63947e-08 0)
(-0.281716 3.07729e-08 0)
(-0.279012 1.53116e-08 0)
(-0.276001 5.68598e-09 0)
(-0.272728 -3.97417e-10 0)
(-0.269227 -4.256e-09 0)
(-0.265527 -6.66797e-09 0)
(-0.261654 -8.14344e-09 0)
(-0.257628 -8.98494e-09 0)
(-0.253468 -9.40291e-09 0)
(-0.249188 -9.52244e-09 0)
(-0.244804 -9.43564e-09 0)
(-0.240327 -9.19607e-09 0)
(-0.235768 -8.84388e-09 0)
(-0.231136 -8.41055e-09 0)
(-0.226441 -7.92309e-09 0)
(-0.221688 -7.41086e-09 0)
(-0.216887 -6.90052e-09 0)
(-0.212041 -6.41535e-09 0)
(-0.207158 -5.96992e-09 0)
(-0.202242 -5.57185e-09 0)
(-0.197297 -5.22084e-09 0)
(-0.192329 -4.9138e-09 0)
(-0.18734 -4.64689e-09 0)
(-0.182336 -4.42016e-09 0)
(-0.177318 -4.23846e-09 0)
(-0.17229 -4.11142e-09 0)
(-0.167256 -4.04461e-09 0)
(-0.162217 -4.01384e-09 0)
(-0.157178 -3.90993e-09 0)
(-0.152141 -3.50312e-09 0)
(-0.147108 -2.58377e-09 0)
(-0.142082 -1.30809e-09 0)
(-0.137067 -3.01962e-10 0)
(-0.132065 -1.30442e-10 0)
(-0.127079 -5.19209e-10 0)
(-0.122111 -7.42534e-10 0)
(-0.117165 -6.01018e-10 0)
(-0.112243 -3.24516e-10 0)
(-0.107348 -1.0578e-10 0)
(-0.102483 -8.07538e-11 0)
(-0.0976009 -1.43916e-10 0)
(-0.0926577 -5.08231e-11 0)
(-0.0876569 1.17052e-10 0)
(-0.0826035 -2.99228e-11 0)
(-0.0775032 -1.64631e-10 0)
(-0.0723631 6.77398e-11 0)
(-0.0671916 1.11402e-10 0)
(-0.0619991 -9.80362e-11 0)
(-0.0567982 -3.59219e-11 0)
(-0.0516044 8.16367e-11 0)
(-0.0464372 -1.49946e-11 0)
(-0.0413208 -2.78917e-11 0)
(-0.0362868 4.65083e-11 0)
(-0.0313764 -9.34735e-12 0)
(-0.0266463 -2.92833e-11 0)
(-0.0221782 4.79655e-11 0)
(-0.0181035 -7.1057e-12 0)
(-0.014627 1.34128e-10 0)
(-0.0128347 -3.45885e-10 0)
(-0.0125429 5.95212e-10 0)
(-0.012466 -8.32804e-10 0)
(-0.012402 1.08094e-09 0)
(-0.0123447 -1.31381e-09 0)
(-0.0122935 1.5821e-09 0)
(-0.0122477 -1.84795e-09 0)
(-0.0122071 2.15064e-09 0)
(-0.012171 -2.4542e-09 0)
(-0.012139 2.78887e-09 0)
(-0.0121109 -3.12123e-09 0)
(-0.012086 3.48006e-09 0)
(-0.0120642 -3.83413e-09 0)
(-0.0120452 4.21028e-09 0)
(-0.0120285 -4.58132e-09 0)
(-0.0120141 4.97101e-09 0)
(-0.0120015 -5.35425e-09 0)
(-0.0119906 5.75286e-09 0)
(-0.0119813 -6.14635e-09 0)
(-0.0119733 6.56312e-09 0)
(-0.0119665 -6.9943e-09 0)
(-0.0119609 7.45764e-09 0)
(-0.0119561 -7.90742e-09 0)
(-0.0119513 8.5413e-09 0)
(-0.0119476 -8.96021e-09 0)
(-0.0119446 9.40157e-09 0)
(-0.0119421 -9.85105e-09 0)
(-0.01194 1.03226e-08 0)
(-0.0119382 -1.08028e-08 0)
(-0.0119368 1.13047e-08 0)
(-0.0119356 -1.1816e-08 0)
(-0.0119347 1.23485e-08 0)
(-0.0119339 -1.28911e-08 0)
(-0.0119332 1.34546e-08 0)
(-0.0119327 -1.40287e-08 0)
(-0.0119323 1.46234e-08 0)
(-0.011932 -1.52294e-08 0)
(-0.0119317 1.58556e-08 0)
(-0.0119315 -1.64939e-08 0)
(-0.0119313 1.7152e-08 0)
(-0.0119312 -1.78228e-08 0)
(-0.0119311 1.85131e-08 0)
(-0.011931 -1.92168e-08 0)
(-0.011931 1.99398e-08 0)
(-0.0119309 -2.06767e-08 0)
(-0.0119309 2.14326e-08 0)
(-0.0119308 -2.22031e-08 0)
(-0.0119308 2.29924e-08 0)
(-0.0119308 -2.37967e-08 0)
(-0.0119308 2.46198e-08 0)
(-0.0119308 -2.54583e-08 0)
(-0.0119308 2.63156e-08 0)
(-0.0119308 -2.71886e-08 0)
(-0.0119308 2.80804e-08 0)
(-0.0119308 -2.89882e-08 0)
(-0.0119308 2.99148e-08 0)
(-0.0119308 -3.08577e-08 0)
(-0.0119308 3.18194e-08 0)
(-0.0119308 -3.27976e-08 0)
(-0.0119308 3.37947e-08 0)
(-0.0119308 -3.48085e-08 0)
(-0.0119308 3.58412e-08 0)
(-0.0119308 -3.68908e-08 0)
(-0.0119308 3.79593e-08 0)
(-0.0119308 -3.90448e-08 0)
(-0.0119308 4.01491e-08 0)
(-0.0119308 -4.12707e-08 0)
(-0.0119308 4.24109e-08 0)
(-0.0119308 -4.35683e-08 0)
(-0.0119308 4.47444e-08 0)
(-0.0119308 -4.59377e-08 0)
(-0.0119308 4.71493e-08 0)
(-0.0119308 -4.83781e-08 0)
(-0.0119308 4.96249e-08 0)
(-0.0119308 -5.08887e-08 0)
(-0.0119308 5.217e-08 0)
(-0.0119308 -5.3468e-08 0)
(-0.0119308 5.47828e-08 0)
(-0.0119308 -5.61137e-08 0)
(-0.0119308 5.74604e-08 0)
(-0.0119308 -5.88223e-08 0)
(-0.0119308 6.01985e-08 0)
(-0.0119308 -6.15882e-08 0)
(-0.0119308 6.299e-08 0)
(-0.0119308 -6.44023e-08 0)
(-0.0119308 6.58225e-08 0)
(-0.0119308 -6.72465e-08 0)
(-0.0119308 6.86657e-08 0)
(-0.0119308 -7.00228e-08 0)
(-0.0119308 7.13733e-08 0)
(-0.0119308 -7.27298e-08 0)
(-0.0119308 6.49991e-08 0)
(-0.0119308 -6.48822e-08 0)
(-0.0119308 6.47576e-08 0)
(-0.0119308 -6.46266e-08 0)
(-0.0119308 6.44898e-08 0)
(-0.0119308 -6.43479e-08 0)
(-0.0119308 6.42016e-08 0)
(-0.0119308 -6.40513e-08 0)
(-0.0119308 6.38975e-08 0)
(-0.0119308 -6.37406e-08 0)
(-0.0119308 6.35809e-08 0)
(-0.0119308 -6.34189e-08 0)
(-0.0119308 6.32549e-08 0)
(-0.0119308 -6.30891e-08 0)
(-0.0119308 6.29218e-08 0)
(-0.0119308 -6.27533e-08 0)
(-0.0119308 6.25839e-08 0)
(-0.0119308 -6.24138e-08 0)
(-0.0119308 6.22432e-08 0)
(-0.0119308 -6.20725e-08 0)
(-0.0119308 6.19017e-08 0)
(-0.0119308 -6.17312e-08 0)
(-0.0119308 6.15611e-08 0)
(-0.0119308 -6.13917e-08 0)
(-0.0119308 6.12233e-08 0)
(-0.0119308 -6.10557e-08 0)
(-0.0119308 6.08898e-08 0)
(-0.0119308 -6.0725e-08 0)
(-0.0119308 6.05625e-08 0)
(-0.0119308 -6.04012e-08 0)
(-0.0119308 6.02431e-08 0)
(-0.0119308 -6.00861e-08 0)
(-0.0119308 5.99334e-08 0)
(-0.0119308 -5.97815e-08 0)
(-0.0119308 5.96353e-08 0)
(-0.0119308 -5.94893e-08 0)
(-0.0119308 5.93507e-08 0)
(-0.0119308 -5.92118e-08 0)
(-0.0119308 5.9082e-08 0)
(-0.0119308 -5.89511e-08 0)
(-0.0119308 5.88317e-08 0)
(-0.0119308 -5.87103e-08 0)
(-0.0119308 5.86029e-08 0)
(-0.0119308 -5.84924e-08 0)
(-0.0119308 5.83995e-08 0)
(-0.0119308 -5.83022e-08 0)
(-0.0119308 5.82264e-08 0)
(-0.0119308 -5.81464e-08 0)
(-0.0119308 5.8093e-08 0)
(-0.0119308 -5.80415e-08 0)
)
;

boundaryField
{
    inandouthalf11
    {
        type            cyclic;
    }
    inandouthalf12
    {
        type            cyclic;
    }
    inandouthalf21
    {
        type            cyclic;
    }
    inandouthalf22
    {
        type            cyclic;
    }
    inandouthalf31
    {
        type            cyclic;
    }
    inandouthalf32
    {
        type            cyclic;
    }
    inandouthalf41
    {
        type            cyclic;
    }
    inandouthalf42
    {
        type            cyclic;
    }
    top
    {
        type            symmetryPlane;
    }
    walls
    {
        type            calculated;
        value           uniform (0 0 0);
    }
    frontAndBackPlanes
    {
        type            empty;
    }
}


// ************************************************************************* //
