/*--------------------------------*- C++ -*----------------------------------*\
| =========                 |                                                 |
| \\      /  F ield         | OpenFOAM: The Open Source CFD Toolbox           |
|  \\    /   O peration     | Version:  2.4.x                                 |
|   \\  /    A nd           | Web:      www.OpenFOAM.org                      |
|    \\/     M anipulation  |                                                 |
\*---------------------------------------------------------------------------*/
FoamFile
{
    version     2.0;
    format      ascii;
    class       volVectorField;
    location    "3.2";
    object      Ur;
}
// * * * * * * * * * * * * * * * * * * * * * * * * * * * * * * * * * * * * * //

dimensions      [0 1 -1 0 0 0 0];

internalField   nonuniform List<vector> 
360
(
(-0.000255192 1.68848e-07 0)
(-0.000254971 1.28359e-06 0)
(-0.000254652 2.89879e-06 0)
(-0.000254645 4.40157e-06 0)
(-0.000254712 5.73693e-06 0)
(-0.000254787 6.97183e-06 0)
(-0.000254872 8.17312e-06 0)
(-0.000254952 9.37399e-06 0)
(-0.000255016 1.05753e-05 0)
(-0.000255074 1.17702e-05 0)
(-0.000255136 1.29675e-05 0)
(-0.000255204 1.41977e-05 0)
(-0.000255283 1.55078e-05 0)
(-0.000255369 1.69482e-05 0)
(-0.000255466 1.8552e-05 0)
(-0.000255571 2.02984e-05 0)
(-0.000255678 2.20711e-05 0)
(-0.000255774 2.36614e-05 0)
(-0.000255848 2.48654e-05 0)
(-0.000255897 2.56182e-05 0)
(-0.000255922 2.60122e-05 0)
(-0.000255936 2.61954e-05 0)
(-0.000255943 2.62786e-05 0)
(-0.000255948 2.632e-05 0)
(-0.000255952 2.63447e-05 0)
(-0.000255955 2.63629e-05 0)
(-0.000255959 2.63792e-05 0)
(-0.000255964 2.63959e-05 0)
(-0.00025597 2.64142e-05 0)
(-0.000255975 2.64347e-05 0)
(-0.000255981 2.64573e-05 0)
(-0.000255989 2.64815e-05 0)
(-0.000255995 2.65065e-05 0)
(-0.000256005 2.65319e-05 0)
(-0.000256013 2.65569e-05 0)
(-0.000256023 2.65815e-05 0)
(-0.000256033 2.66056e-05 0)
(-0.000256044 2.66292e-05 0)
(-0.000256058 2.66526e-05 0)
(-0.000256069 2.66758e-05 0)
(-0.000256085 2.6699e-05 0)
(-0.0002561 2.67223e-05 0)
(-0.000256115 2.67457e-05 0)
(-0.000256134 2.67694e-05 0)
(-0.000256154 2.67932e-05 0)
(-0.000256174 2.68174e-05 0)
(-0.000256197 2.68418e-05 0)
(-0.000256219 2.68664e-05 0)
(-0.000256246 2.68914e-05 0)
(-0.000256275 2.69168e-05 0)
(-0.000256304 2.69426e-05 0)
(-0.000256337 2.69689e-05 0)
(-0.00025637 2.69958e-05 0)
(-0.000256408 2.70234e-05 0)
(-0.000256446 2.70515e-05 0)
(-0.000256489 2.70806e-05 0)
(-0.000256532 2.71104e-05 0)
(-0.00025658 2.71413e-05 0)
(-0.000256629 2.71732e-05 0)
(-0.00025668 2.7206e-05 0)
(-0.000256736 2.72399e-05 0)
(-0.000256791 2.72747e-05 0)
(-0.00025685 2.73105e-05 0)
(-0.00025691 2.73469e-05 0)
(-0.000256971 2.73841e-05 0)
(-0.000257033 2.74217e-05 0)
(-0.000257098 2.74598e-05 0)
(-0.000257165 2.74985e-05 0)
(-0.000257235 2.75379e-05 0)
(-0.000257306 2.75782e-05 0)
(-0.000257382 2.76197e-05 0)
(-0.00025746 2.76628e-05 0)
(-0.00025754 2.77074e-05 0)
(-0.000257623 2.7754e-05 0)
(-0.000257708 2.78024e-05 0)
(-0.000257796 2.78527e-05 0)
(-0.000257884 2.79046e-05 0)
(-0.000257975 2.79581e-05 0)
(-0.000258068 2.80129e-05 0)
(-0.000258163 2.80688e-05 0)
(-0.00025826 2.81256e-05 0)
(-0.000258359 2.81836e-05 0)
(-0.000258462 2.82426e-05 0)
(-0.000258567 2.83027e-05 0)
(-0.000258675 2.83642e-05 0)
(-0.000258786 2.8427e-05 0)
(-0.000258899 2.84912e-05 0)
(-0.000259015 2.85568e-05 0)
(-0.000259133 2.86237e-05 0)
(-0.000259253 2.86917e-05 0)
(-0.000259377 2.87608e-05 0)
(-0.000259502 2.88307e-05 0)
(-0.000259631 2.89015e-05 0)
(-0.000259763 2.89731e-05 0)
(-0.000259898 2.90454e-05 0)
(-0.000260036 2.91185e-05 0)
(-0.000260177 2.91922e-05 0)
(-0.000260322 2.92668e-05 0)
(-0.00026047 2.9342e-05 0)
(-0.000260622 2.94179e-05 0)
(-0.000260778 2.94945e-05 0)
(-0.000260937 2.95716e-05 0)
(-0.0002611 2.96493e-05 0)
(-0.000261267 2.97275e-05 0)
(-0.000261438 2.98061e-05 0)
(-0.000261614 2.9885e-05 0)
(-0.000261794 2.99642e-05 0)
(-0.000261979 3.00435e-05 0)
(-0.000262169 3.01228e-05 0)
(-0.000262364 3.0202e-05 0)
(-0.000262564 3.0281e-05 0)
(-0.00026277 3.03597e-05 0)
(-0.000262982 3.0438e-05 0)
(-0.0002632 3.0516e-05 0)
(-0.000263424 3.05935e-05 0)
(-0.000263655 3.06708e-05 0)
(-0.000263894 3.07479e-05 0)
(-0.00026414 3.08249e-05 0)
(-0.000264393 3.09023e-05 0)
(-0.000264655 3.09803e-05 0)
(-0.000264925 3.10596e-05 0)
(-0.000265204 3.11406e-05 0)
(-0.000265493 3.1224e-05 0)
(-0.000265792 3.13106e-05 0)
(-0.000266101 3.14011e-05 0)
(-0.00026642 3.14963e-05 0)
(-0.000266752 3.15971e-05 0)
(-0.000267096 3.1704e-05 0)
(-0.000267453 3.18176e-05 0)
(-0.000267825 3.19381e-05 0)
(-0.000268213 3.20654e-05 0)
(-0.000268616 3.21985e-05 0)
(-0.000269038 3.23364e-05 0)
(-0.000269482 3.24774e-05 0)
(-0.000269954 3.262e-05 0)
(-0.000270454 3.27617e-05 0)
(-0.000270979 3.28984e-05 0)
(-0.000271536 3.30248e-05 0)
(-0.000272153 3.31356e-05 0)
(-0.000272863 3.32265e-05 0)
(-0.000273635 3.32916e-05 0)
(-0.000274368 3.33181e-05 0)
(-0.000275242 3.33123e-05 0)
(-0.000276381 3.32835e-05 0)
(-0.00027778 3.32217e-05 0)
(-0.000280044 3.30288e-05 0)
(-0.000287312 3.3743e-05 0)
(-0.000287194 3.59922e-05 0)
(-0.000301048 4.07159e-05 0)
(-0.000828625 1.0076e-05 0)
(-0.0207884 -0.000712521 0)
(-0.0222209 -0.000472587 0)
(-0.0220353 0.00149218 0)
(-0.0207275 0.00460622 0)
(-0.0185679 0.0078828 0)
(-0.0165167 0.010768 0)
(-0.0149243 0.0130274 0)
(-0.0137972 0.0147227 0)
(-0.0130336 0.0159865 0)
(-0.0125327 0.0169093 0)
(-0.0122131 0.0175614 0)
(-0.0120139 0.0179974 0)
(-0.011891 0.0182593 0)
(-0.0118123 0.0183797 0)
(-0.0117542 0.0183845 0)
(-0.0116989 0.0182943 0)
(-0.0116324 0.0181258 0)
(-0.0115432 0.0178927 0)
(-0.0114214 0.0176066 0)
(-0.0112583 0.0172773 0)
(-0.0110453 0.0169132 0)
(-0.0107746 0.0165216 0)
(-0.0104381 0.016109 0)
(-0.0100282 0.0156809 0)
(-0.00953713 0.0152419 0)
(-0.00895727 0.0147956 0)
(-0.0082812 0.0143443 0)
(-0.00750171 0.013889 0)
(-0.00661194 0.0134297 0)
(-0.00560544 0.012965 0)
(-0.0044762 0.0124925 0)
(-0.00321878 0.0120098 0)
(-0.00182831 0.011514 0)
(-0.000300515 0.0110033 0)
(0.00136824 0.0104768 0)
(0.00318093 0.00993601 0)
(0.00513983 0.00938493 0)
(0.00724639 0.00883116 0)
(0.00950092 0.00828616 0)
(0.011902 0.00776533 0)
(0.0144455 0.00728695 0)
(0.0171235 0.0068694 0)
(0.019923 0.00652635 0)
(0.0228264 0.00626155 0)
(0.0258145 0.006067 0)
(0.0288705 0.00592731 0)
(0.0319828 0.00582659 0)
(0.0351439 0.00575281 0)
(0.0383483 0.00569827 0)
(0.0415909 0.00565815 0)
(0.044868 0.00562913 0)
(0.0482093 0.00560867 0)
(0.0516409 0.00559568 0)
(0.0551539 0.00558993 0)
(0.0587433 0.00559039 0)
(0.0624044 0.00559592 0)
(0.0661226 0.00560706 0)
(0.0698828 0.00562437 0)
(0.0736803 0.00564661 0)
(0.0775021 0.00567335 0)
(0.0813232 0.00570565 0)
(0.0851241 0.00574335 0)
(0.0888831 0.00578589 0)
(0.0925629 0.0058338 0)
(0.0961232 0.00588692 0)
(0.0995114 0.00594455 0)
(0.102636 0.00600738 0)
(0.105368 0.00607501 0)
(0.107518 0.0061455 0)
(0.107992 0.00621871 0)
(0.106967 0.00629484 0)
(0.105737 0.00637309 0)
(0.104502 0.00645367 0)
(0.103267 0.00653679 0)
(0.102032 0.00662264 0)
(0.100786 0.00671244 0)
(0.0995372 0.00680574 0)
(0.0982888 0.00690229 0)
(0.0970267 0.00700391 0)
(0.0957594 0.0071101 0)
(0.094487 0.00722102 0)
(0.0932024 0.00733802 0)
(0.0919112 0.00746089 0)
(0.0906157 0.00758983 0)
(0.0893134 0.00772568 0)
(0.0879988 0.00786961 0)
(0.0866591 0.00802413 0)
(0.0853194 0.00818804 0)
(0.084107 0.00834465 0)
(0.0831635 0.00847311 0)
(0.0825395 0.0085604 0)
(0.0818753 0.00868819 0)
(-0.00484018 0.0394815 0)
(-0.00484007 0.0394814 0)
(-0.00483993 0.0394814 0)
(-0.00483983 0.0394814 0)
(-0.00483975 0.0394814 0)
(-0.00483968 0.0394814 0)
(-0.00483962 0.0394814 0)
(-0.00483957 0.0394814 0)
(-0.00483953 0.0394814 0)
(-0.0048395 0.0394814 0)
(-0.00483947 0.0394814 0)
(-0.00483945 0.0394814 0)
(-0.00483943 0.0394814 0)
(-0.00483942 0.0394814 0)
(-0.00483941 0.0394814 0)
(-0.0048394 0.0394814 0)
(-0.0048394 0.0394814 0)
(-0.00483939 0.0394814 0)
(-0.00483939 0.0394814 0)
(-0.00483938 0.0394814 0)
(-0.00483938 0.0394814 0)
(-0.00483938 0.0394814 0)
(-0.00483938 0.0394814 0)
(-0.00483938 0.0394814 0)
(-0.00483938 0.0394814 0)
(-0.00483938 0.0394814 0)
(-0.00483937 0.0394814 0)
(-0.00483937 0.0394814 0)
(-0.00483937 0.0394814 0)
(-0.00483937 0.0394814 0)
(-0.00483937 0.0394814 0)
(-0.00483937 0.0394814 0)
(-0.00483937 0.0394814 0)
(-0.00483937 0.0394814 0)
(-0.00483937 0.0394814 0)
(-0.00483937 0.0394814 0)
(-0.00483937 0.0394814 0)
(-0.00483937 0.0394814 0)
(-0.00483937 0.0394814 0)
(-0.00483937 0.0394814 0)
(-0.00483937 0.0394814 0)
(-0.00483937 0.0394814 0)
(-0.00483937 0.0394814 0)
(-0.00483937 0.0394814 0)
(-0.00483937 0.0394814 0)
(-0.00483937 0.0394814 0)
(-0.00483937 0.0394814 0)
(-0.00483937 0.0394814 0)
(-0.00483937 0.0394814 0)
(-0.00483937 0.0394814 0)
(-0.00483937 0.0394815 0)
(-0.00483937 0.0394814 0)
(-0.00483937 0.0394815 0)
(-0.00483937 0.0394814 0)
(-0.00483937 0.0394815 0)
(-0.00483937 0.0394814 0)
(-0.00483937 0.0394815 0)
(-0.00483938 0.0394814 0)
(-0.00483937 0.0394815 0)
(-0.00483938 0.0394814 0)
(-0.00483937 0.0394815 0)
(-0.00483938 0.0394814 0)
(-0.00483937 0.0394815 0)
(-0.00483938 0.0394814 0)
(-0.00483937 0.0394815 0)
(-0.00483938 0.0394814 0)
(-0.00483937 0.0394815 0)
(-0.00483938 0.0394814 0)
(-0.00483937 0.0394815 0)
(-0.00483938 0.0394814 0)
(-0.00483937 0.0394815 0)
(-0.00483938 0.0394814 0)
(-0.00483937 0.0394815 0)
(-0.00483938 0.0394814 0)
(-0.00483937 0.0394815 0)
(-0.00483938 0.0394814 0)
(-0.00483937 0.0394815 0)
(-0.00483938 0.0394814 0)
(-0.00483937 0.0394815 0)
(-0.00483938 0.0394814 0)
(-0.00483937 0.0394815 0)
(-0.00483938 0.0394814 0)
(-0.00483937 0.0394815 0)
(-0.00483938 0.0394814 0)
(-0.00483937 0.0394815 0)
(-0.00483938 0.0394814 0)
(-0.00483937 0.0394815 0)
(-0.00483938 0.0394814 0)
(-0.00483937 0.0394815 0)
(-0.00483938 0.0394814 0)
(-0.00483937 0.0394815 0)
(-0.00483938 0.0394814 0)
(-0.00483937 0.0394815 0)
(-0.00483938 0.0394814 0)
(-0.00483937 0.0394815 0)
(-0.00483938 0.0394814 0)
(-0.00483937 0.0394815 0)
(-0.00483938 0.0394814 0)
(-0.00483937 0.0394815 0)
(-0.00483938 0.0394814 0)
(-0.00483937 0.0394815 0)
(-0.00483938 0.0394814 0)
(-0.00483937 0.0394815 0)
(-0.00483938 0.0394814 0)
(-0.00483937 0.0394815 0)
(-0.00483938 0.0394814 0)
(-0.00483937 0.0394815 0)
(-0.00483938 0.0394814 0)
(-0.00483937 0.0394815 0)
(-0.00483938 0.0394814 0)
(-0.00483937 0.0394815 0)
(-0.00483938 0.0394814 0)
(-0.00483937 0.0394815 0)
(-0.00483938 0.0394814 0)
(-0.00483942 0.0394812 0)
(-0.00484078 0.0394726 0)
(-0.00487379 0.0391266 0)
(-0.00563651 0.0223657 0)
)
;

boundaryField
{
    inandouthalf11
    {
        type            cyclic;
    }
    inandouthalf12
    {
        type            cyclic;
    }
    inandouthalf21
    {
        type            cyclic;
    }
    inandouthalf22
    {
        type            cyclic;
    }
    inandouthalf31
    {
        type            cyclic;
    }
    inandouthalf32
    {
        type            cyclic;
    }
    inandouthalf41
    {
        type            cyclic;
    }
    inandouthalf42
    {
        type            cyclic;
    }
    top
    {
        type            symmetryPlane;
    }
    walls
    {
        type            calculated;
        value           uniform (0 0 0);
    }
    frontAndBackPlanes
    {
        type            empty;
    }
}


// ************************************************************************* //
