/*--------------------------------*- C++ -*----------------------------------*\
| =========                 |                                                 |
| \\      /  F ield         | OpenFOAM: The Open Source CFD Toolbox           |
|  \\    /   O peration     | Version:  2.4.x                                 |
|   \\  /    A nd           | Web:      www.OpenFOAM.org                      |
|    \\/     M anipulation  |                                                 |
\*---------------------------------------------------------------------------*/
FoamFile
{
    version     2.0;
    format      ascii;
    class       surfaceScalarField;
    location    "10.15";
    object      ddt0(phia);
}
// * * * * * * * * * * * * * * * * * * * * * * * * * * * * * * * * * * * * * //

dimensions      [0 3 -2 0 0 0 0];

internalField   nonuniform List<scalar> 
359
(
1.34734e-14
3.35584e-14
5.07387e-14
6.63078e-14
8.22498e-14
9.89914e-14
1.16608e-13
1.35296e-13
1.55284e-13
1.76762e-13
1.99858e-13
2.24637e-13
2.51137e-13
2.79363e-13
3.09312e-13
3.4097e-13
3.74312e-13
4.09301e-13
4.45893e-13
4.8405e-13
5.23715e-13
5.64847e-13
6.07397e-13
6.5132e-13
6.96569e-13
7.43098e-13
7.90859e-13
8.39819e-13
8.89932e-13
9.41155e-13
9.93448e-13
1.04678e-12
1.1011e-12
1.15639e-12
1.2126e-12
1.26969e-12
1.32763e-12
1.38638e-12
1.44591e-12
1.50617e-12
1.56713e-12
1.62876e-12
1.69099e-12
1.75382e-12
1.81719e-12
1.88106e-12
1.9454e-12
2.01013e-12
2.07523e-12
2.14068e-12
2.2064e-12
2.27236e-12
2.33851e-12
2.40481e-12
2.4712e-12
2.53766e-12
2.6041e-12
2.6705e-12
2.7368e-12
2.80292e-12
2.86886e-12
2.93455e-12
2.99996e-12
3.06503e-12
3.12971e-12
3.19395e-12
3.2577e-12
3.32092e-12
3.38354e-12
3.4455e-12
3.5068e-12
3.5674e-12
3.62721e-12
3.68625e-12
3.74445e-12
3.80179e-12
3.85822e-12
3.91369e-12
3.96817e-12
4.02163e-12
4.07402e-12
4.12534e-12
4.17557e-12
4.22468e-12
4.27267e-12
4.31951e-12
4.36519e-12
4.40968e-12
4.45298e-12
4.49505e-12
4.53589e-12
4.57549e-12
4.61384e-12
4.65096e-12
4.68683e-12
4.72145e-12
4.75483e-12
4.78697e-12
4.81787e-12
4.84752e-12
4.87593e-12
4.90312e-12
4.92909e-12
4.95385e-12
4.97741e-12
4.99978e-12
5.02096e-12
5.04096e-12
5.05974e-12
5.0773e-12
5.09358e-12
5.10853e-12
5.1221e-12
5.13421e-12
5.1448e-12
5.15382e-12
5.16127e-12
5.16715e-12
5.17154e-12
5.17454e-12
5.17627e-12
5.17686e-12
5.1764e-12
5.17486e-12
5.17209e-12
5.16772e-12
5.16118e-12
5.15173e-12
5.13854e-12
5.12072e-12
5.09739e-12
5.06765e-12
5.03047e-12
4.98487e-12
4.93085e-12
4.87161e-12
4.81535e-12
4.77299e-12
4.75034e-12
4.74301e-12
4.74159e-12
4.74018e-12
1.34362e-09
3.65463e-09
5.19507e-09
5.63998e-09
5.52065e-09
5.23492e-09
-9.98145e-09
-7.15618e-09
2.74121e-08
6.99511e-08
7.52889e-08
4.70965e-08
8.68959e-09
-2.57527e-08
-5.1799e-08
-6.93945e-08
-8.00429e-08
-8.55617e-08
-8.75673e-08
-8.73161e-08
-8.57147e-08
-8.33851e-08
-8.07357e-08
-7.80227e-08
-7.53971e-08
-7.29406e-08
-7.069e-08
-6.86545e-08
-6.6827e-08
-6.51919e-08
-6.37297e-08
-6.24198e-08
-6.12427e-08
-6.01803e-08
-5.92164e-08
-5.8337e-08
-5.75297e-08
-5.67839e-08
-5.60902e-08
-5.544e-08
-5.48258e-08
-5.42402e-08
-5.36761e-08
-5.31261e-08
-5.25825e-08
-5.20369e-08
-5.14795e-08
-5.08994e-08
-5.02832e-08
-4.96152e-08
-4.88767e-08
-4.80473e-08
-4.71077e-08
-4.60445e-08
-4.48588e-08
-4.35748e-08
-4.22468e-08
-4.09615e-08
-3.98303e-08
-3.89555e-08
-3.84554e-08
-3.83952e-08
-3.87444e-08
-3.93908e-08
-4.02104e-08
-4.11123e-08
-4.20362e-08
-4.29389e-08
-4.37825e-08
-4.45261e-08
-4.51187e-08
-4.54975e-08
-4.55917e-08
-4.53343e-08
-4.46824e-08
-4.36356e-08
-4.22463e-08
-4.061e-08
-3.8842e-08
-3.70508e-08
-3.53205e-08
-3.37053e-08
-3.22337e-08
-3.09168e-08
-2.97512e-08
-2.8734e-08
-2.78506e-08
-2.7099e-08
-2.64635e-08
-2.5945e-08
-2.55352e-08
-2.52091e-08
-2.50391e-08
-2.48095e-08
-1.05049e-08
-5.46674e-09
-2.10446e-09
-3.80882e-10
6.7386e-10
-3.50835e-09
-1.38892e-09
-1.18193e-08
-9.86842e-09
-2.03568e-08
-1.72071e-08
-3.12119e-08
-2.41633e-08
-4.43881e-08
1.5423e-06
-4.31864e-08
-2.6543e-09
3.40384e-10
2.57753e-10
2.70244e-10
2.73536e-10
2.74901e-10
2.741e-10
2.71327e-10
2.66692e-10
2.6026e-10
2.52054e-10
2.42054e-10
2.30192e-10
2.16345e-10
2.00308e-10
1.81737e-10
1.5991e-10
1.3035e-10
7.21706e-11
-3.35045e-11
1.42666e-10
1.8454e-10
1.8317e-10
1.83098e-10
1.83098e-10
1.83097e-10
1.83097e-10
1.83097e-10
1.83097e-10
1.83097e-10
1.83096e-10
1.83096e-10
1.83096e-10
1.83096e-10
1.83096e-10
1.83096e-10
1.83096e-10
1.83096e-10
1.83096e-10
1.83096e-10
1.83096e-10
1.83096e-10
1.83096e-10
1.83096e-10
1.83095e-10
1.83096e-10
1.83095e-10
1.83095e-10
1.83095e-10
1.83095e-10
1.83095e-10
1.83095e-10
1.83094e-10
1.83095e-10
1.83094e-10
1.83095e-10
1.83094e-10
1.83095e-10
1.83094e-10
1.83095e-10
1.83094e-10
1.83094e-10
1.83094e-10
1.83094e-10
1.83094e-10
1.83094e-10
1.83094e-10
1.83094e-10
1.83094e-10
1.83094e-10
1.83094e-10
1.83094e-10
1.83094e-10
1.83094e-10
1.83094e-10
1.83094e-10
1.83093e-10
1.83093e-10
1.83093e-10
1.83093e-10
1.83092e-10
1.83092e-10
1.83092e-10
1.83092e-10
1.83092e-10
1.83092e-10
1.83091e-10
1.83091e-10
1.83091e-10
1.83091e-10
1.83091e-10
1.83091e-10
1.83091e-10
1.83091e-10
1.83091e-10
1.8309e-10
1.8309e-10
1.83089e-10
1.83088e-10
1.83087e-10
1.83085e-10
1.83084e-10
1.83083e-10
1.83087e-10
1.83184e-10
1.85296e-10
2.81129e-10
)
;

boundaryField
{
    inandouthalf11
    {
        type            cyclic;
        value           nonuniform List<scalar> 
100
(
2.57235e-38
4.83036e-15
9.86304e-15
1.42135e-14
1.84935e-14
2.28074e-14
2.70526e-14
3.11954e-14
3.52535e-14
3.92512e-14
4.32083e-14
4.71403e-14
5.10604e-14
5.49806e-14
5.8913e-14
6.28698e-14
6.68624e-14
7.09014e-14
7.49965e-14
7.91568e-14
8.33906e-14
8.77057e-14
9.21097e-14
9.66093e-14
1.01211e-13
1.0592e-13
1.10741e-13
1.15679e-13
1.2074e-13
1.25925e-13
1.31239e-13
1.36685e-13
1.42266e-13
1.47983e-13
1.5384e-13
1.59837e-13
1.65976e-13
1.72258e-13
1.78685e-13
1.85257e-13
1.91974e-13
1.98837e-13
2.05846e-13
2.13e-13
2.203e-13
2.27746e-13
2.35336e-13
2.43068e-13
2.50941e-13
2.58955e-13
2.6711e-13
2.75401e-13
2.83828e-13
2.92388e-13
3.0108e-13
3.099e-13
3.18847e-13
3.27917e-13
3.37107e-13
3.46411e-13
3.55827e-13
3.65354e-13
3.74987e-13
3.84723e-13
3.94557e-13
4.04484e-13
4.145e-13
4.246e-13
4.34778e-13
4.45026e-13
4.55342e-13
4.65723e-13
4.76161e-13
4.86652e-13
4.9719e-13
5.07772e-13
5.18391e-13
5.29038e-13
5.39706e-13
5.5039e-13
5.61083e-13
5.71779e-13
5.82473e-13
5.93161e-13
6.03838e-13
6.14498e-13
6.25137e-13
6.35747e-13
6.46322e-13
6.56855e-13
6.67339e-13
6.7777e-13
6.88144e-13
6.98457e-13
7.08707e-13
7.1889e-13
7.29005e-13
7.39047e-13
7.49015e-13
7.58907e-13
)
;
    }
    inandouthalf12
    {
        type            cyclic;
        value           nonuniform List<scalar> 
100
(
-2.57235e-38
-4.83036e-15
-9.86304e-15
-1.42135e-14
-1.84935e-14
-2.28074e-14
-2.70526e-14
-3.11954e-14
-3.52535e-14
-3.92512e-14
-4.32083e-14
-4.71403e-14
-5.10604e-14
-5.49806e-14
-5.8913e-14
-6.28698e-14
-6.68624e-14
-7.09014e-14
-7.49965e-14
-7.91568e-14
-8.33906e-14
-8.77057e-14
-9.21097e-14
-9.66093e-14
-1.01211e-13
-1.0592e-13
-1.10741e-13
-1.15679e-13
-1.2074e-13
-1.25925e-13
-1.31239e-13
-1.36685e-13
-1.42266e-13
-1.47983e-13
-1.5384e-13
-1.59837e-13
-1.65976e-13
-1.72258e-13
-1.78685e-13
-1.85257e-13
-1.91974e-13
-1.98837e-13
-2.05846e-13
-2.13e-13
-2.203e-13
-2.27746e-13
-2.35336e-13
-2.43068e-13
-2.50941e-13
-2.58955e-13
-2.6711e-13
-2.75401e-13
-2.83828e-13
-2.92388e-13
-3.0108e-13
-3.099e-13
-3.18847e-13
-3.27917e-13
-3.37107e-13
-3.46411e-13
-3.55827e-13
-3.65354e-13
-3.74987e-13
-3.84723e-13
-3.94557e-13
-4.04484e-13
-4.145e-13
-4.246e-13
-4.34778e-13
-4.45026e-13
-4.55342e-13
-4.65723e-13
-4.76161e-13
-4.86652e-13
-4.9719e-13
-5.07772e-13
-5.18391e-13
-5.29038e-13
-5.39706e-13
-5.5039e-13
-5.61083e-13
-5.71779e-13
-5.82473e-13
-5.93161e-13
-6.03838e-13
-6.14498e-13
-6.25137e-13
-6.35747e-13
-6.46322e-13
-6.56855e-13
-6.67339e-13
-6.7777e-13
-6.88144e-13
-6.98457e-13
-7.08707e-13
-7.1889e-13
-7.29005e-13
-7.39047e-13
-7.49015e-13
-7.58907e-13
)
;
    }
    inandouthalf21
    {
        type            cyclic;
        value           nonuniform List<scalar> 
100
(
7.6872e-13
7.78456e-13
7.88113e-13
7.97694e-13
8.072e-13
8.16634e-13
8.26e-13
8.35302e-13
8.44542e-13
8.53725e-13
8.62854e-13
8.71932e-13
8.80962e-13
8.89948e-13
8.98894e-13
9.07805e-13
9.16691e-13
9.25563e-13
9.34437e-13
9.43328e-13
9.52256e-13
9.61231e-13
9.70254e-13
9.79305e-13
9.88331e-13
9.97246e-13
1.00593e-12
1.01422e-12
1.02197e-12
1.02904e-12
1.03534e-12
1.04086e-12
1.04566e-12
1.04995e-12
1.05408e-12
1.05868e-12
1.06476e-12
1.07318e-12
1.08309e-12
1.09111e-12
1.09444e-12
1.0949e-12
1.09531e-12
-1.26208e-10
-2.28102e-10
-2.36493e-10
-2.08592e-10
-1.92531e-10
-2.26332e-10
6.50544e-07
7.99641e-07
8.33462e-07
8.59144e-07
8.89542e-07
9.2237e-07
9.54719e-07
9.84937e-07
1.0124e-06
1.03705e-06
1.0591e-06
1.07886e-06
1.09665e-06
1.11275e-06
1.12741e-06
1.14084e-06
1.1532e-06
1.16464e-06
1.17528e-06
1.1852e-06
1.19449e-06
1.20321e-06
1.21142e-06
1.21917e-06
1.2265e-06
1.23344e-06
1.24002e-06
1.24626e-06
1.2522e-06
1.25785e-06
1.26324e-06
1.26837e-06
1.27326e-06
1.27793e-06
1.28238e-06
1.28664e-06
1.2907e-06
1.29459e-06
1.29829e-06
1.30183e-06
1.30521e-06
1.30844e-06
1.31151e-06
1.31444e-06
1.31723e-06
1.31988e-06
1.3224e-06
1.32479e-06
1.32706e-06
1.32921e-06
1.33125e-06
)
;
    }
    inandouthalf22
    {
        type            cyclic;
        value           nonuniform List<scalar> 
100
(
-7.6872e-13
-7.78456e-13
-7.88113e-13
-7.97694e-13
-8.072e-13
-8.16634e-13
-8.26e-13
-8.35302e-13
-8.44542e-13
-8.53725e-13
-8.62854e-13
-8.71932e-13
-8.80962e-13
-8.89948e-13
-8.98894e-13
-9.07805e-13
-9.16691e-13
-9.25563e-13
-9.34437e-13
-9.43328e-13
-9.52256e-13
-9.61231e-13
-9.70254e-13
-9.79305e-13
-9.88331e-13
-9.97246e-13
-1.00593e-12
-1.01422e-12
-1.02197e-12
-1.02904e-12
-1.03534e-12
-1.04086e-12
-1.04566e-12
-1.04995e-12
-1.05408e-12
-1.05868e-12
-1.06476e-12
-1.07318e-12
-1.08309e-12
-1.09111e-12
-1.09444e-12
-1.0949e-12
-1.09531e-12
1.26208e-10
2.28102e-10
2.36493e-10
2.08592e-10
1.92531e-10
2.26332e-10
-6.50544e-07
-7.99641e-07
-8.33462e-07
-8.59144e-07
-8.89542e-07
-9.2237e-07
-9.54719e-07
-9.84937e-07
-1.0124e-06
-1.03705e-06
-1.0591e-06
-1.07886e-06
-1.09665e-06
-1.11275e-06
-1.12741e-06
-1.14084e-06
-1.1532e-06
-1.16464e-06
-1.17528e-06
-1.1852e-06
-1.19449e-06
-1.20321e-06
-1.21142e-06
-1.21917e-06
-1.2265e-06
-1.23344e-06
-1.24002e-06
-1.24626e-06
-1.2522e-06
-1.25785e-06
-1.26324e-06
-1.26837e-06
-1.27326e-06
-1.27793e-06
-1.28238e-06
-1.28664e-06
-1.2907e-06
-1.29459e-06
-1.29829e-06
-1.30183e-06
-1.30521e-06
-1.30844e-06
-1.31151e-06
-1.31444e-06
-1.31723e-06
-1.31988e-06
-1.3224e-06
-1.32479e-06
-1.32706e-06
-1.32921e-06
-1.33125e-06
)
;
    }
    inandouthalf31
    {
        type            cyclic;
        value           nonuniform List<scalar> 
110
(
1.33318e-06
1.36213e-06
1.39164e-06
1.42172e-06
1.45238e-06
1.48363e-06
1.51546e-06
1.54788e-06
1.58089e-06
1.61447e-06
1.64863e-06
1.68336e-06
1.71865e-06
1.7545e-06
1.79091e-06
1.82789e-06
1.86544e-06
1.90359e-06
1.94235e-06
1.98177e-06
2.02188e-06
2.06271e-06
2.10429e-06
2.14666e-06
2.18984e-06
2.23384e-06
2.27871e-06
2.32445e-06
2.3711e-06
2.41867e-06
2.4672e-06
2.51672e-06
2.56726e-06
2.61885e-06
2.67152e-06
2.72534e-06
2.7802e-06
2.78625e-06
2.83322e-06
2.87921e-06
2.92666e-06
2.97593e-06
3.02709e-06
3.08022e-06
3.13492e-06
3.19195e-06
3.25008e-06
3.31112e-06
3.37196e-06
3.43754e-06
3.50031e-06
3.57145e-06
3.63782e-06
3.7081e-06
3.77989e-06
3.85365e-06
3.92915e-06
4.00646e-06
4.08561e-06
4.16666e-06
4.24966e-06
4.33468e-06
4.42178e-06
4.51105e-06
4.60257e-06
4.69644e-06
4.79277e-06
4.89166e-06
4.99324e-06
5.0976e-06
5.20473e-06
5.31637e-06
5.42994e-06
5.54133e-06
5.65383e-06
5.76859e-06
5.88568e-06
6.00514e-06
6.12703e-06
6.25139e-06
6.37828e-06
6.50774e-06
6.63983e-06
6.7746e-06
6.91211e-06
7.0524e-06
7.19555e-06
7.3416e-06
7.49061e-06
7.64265e-06
7.79778e-06
7.95605e-06
8.11754e-06
8.2823e-06
8.45041e-06
8.62193e-06
8.79694e-06
8.97549e-06
9.15767e-06
9.34355e-06
9.53319e-06
9.72669e-06
9.92412e-06
1.01256e-05
1.03311e-05
1.05408e-05
1.07547e-05
1.0973e-05
1.11957e-05
1.1423e-05
)
;
    }
    inandouthalf32
    {
        type            cyclic;
        value           nonuniform List<scalar> 
110
(
-1.33318e-06
-1.36213e-06
-1.39164e-06
-1.42172e-06
-1.45238e-06
-1.48363e-06
-1.51546e-06
-1.54788e-06
-1.58089e-06
-1.61447e-06
-1.64863e-06
-1.68336e-06
-1.71865e-06
-1.7545e-06
-1.79091e-06
-1.82789e-06
-1.86544e-06
-1.90359e-06
-1.94235e-06
-1.98177e-06
-2.02188e-06
-2.06271e-06
-2.10429e-06
-2.14666e-06
-2.18984e-06
-2.23384e-06
-2.27871e-06
-2.32445e-06
-2.3711e-06
-2.41867e-06
-2.4672e-06
-2.51672e-06
-2.56726e-06
-2.61885e-06
-2.67152e-06
-2.72534e-06
-2.7802e-06
-2.78625e-06
-2.83322e-06
-2.87921e-06
-2.92666e-06
-2.97593e-06
-3.02709e-06
-3.08022e-06
-3.13492e-06
-3.19195e-06
-3.25008e-06
-3.31112e-06
-3.37196e-06
-3.43754e-06
-3.50031e-06
-3.57145e-06
-3.63782e-06
-3.7081e-06
-3.77989e-06
-3.85365e-06
-3.92915e-06
-4.00646e-06
-4.08561e-06
-4.16666e-06
-4.24966e-06
-4.33468e-06
-4.42178e-06
-4.51105e-06
-4.60257e-06
-4.69644e-06
-4.79277e-06
-4.89166e-06
-4.99324e-06
-5.0976e-06
-5.20473e-06
-5.31637e-06
-5.42994e-06
-5.54133e-06
-5.65383e-06
-5.76859e-06
-5.88568e-06
-6.00514e-06
-6.12703e-06
-6.25139e-06
-6.37828e-06
-6.50774e-06
-6.63983e-06
-6.7746e-06
-6.91211e-06
-7.0524e-06
-7.19555e-06
-7.3416e-06
-7.49061e-06
-7.64265e-06
-7.79778e-06
-7.95605e-06
-8.11754e-06
-8.2823e-06
-8.45041e-06
-8.62193e-06
-8.79694e-06
-8.97549e-06
-9.15767e-06
-9.34355e-06
-9.53319e-06
-9.72669e-06
-9.92412e-06
-1.01256e-05
-1.03311e-05
-1.05408e-05
-1.07547e-05
-1.0973e-05
-1.11957e-05
-1.1423e-05
)
;
    }
    inandouthalf41
    {
        type            cyclic;
        value           nonuniform List<scalar> 
50
(
1.02247e-05
1.02247e-05
1.02247e-05
1.02247e-05
1.02247e-05
1.02247e-05
1.02247e-05
1.02247e-05
1.02247e-05
1.02247e-05
1.02247e-05
1.02247e-05
1.02247e-05
1.02247e-05
1.02247e-05
1.02247e-05
1.02247e-05
1.02247e-05
1.02247e-05
1.02247e-05
1.02247e-05
1.02247e-05
1.02247e-05
1.02247e-05
1.02247e-05
1.02247e-05
1.02247e-05
1.02247e-05
1.02247e-05
1.02247e-05
1.02247e-05
1.02247e-05
1.02247e-05
1.02247e-05
1.02247e-05
1.02247e-05
1.02247e-05
1.02247e-05
1.02247e-05
1.02247e-05
1.02247e-05
1.02247e-05
1.02247e-05
1.02247e-05
1.02247e-05
1.02247e-05
1.02247e-05
1.02247e-05
1.02246e-05
1.02228e-05
)
;
    }
    inandouthalf42
    {
        type            cyclic;
        value           nonuniform List<scalar> 
50
(
-1.02247e-05
-1.02247e-05
-1.02247e-05
-1.02247e-05
-1.02247e-05
-1.02247e-05
-1.02247e-05
-1.02247e-05
-1.02247e-05
-1.02247e-05
-1.02247e-05
-1.02247e-05
-1.02247e-05
-1.02247e-05
-1.02247e-05
-1.02247e-05
-1.02247e-05
-1.02247e-05
-1.02247e-05
-1.02247e-05
-1.02247e-05
-1.02247e-05
-1.02247e-05
-1.02247e-05
-1.02247e-05
-1.02247e-05
-1.02247e-05
-1.02247e-05
-1.02247e-05
-1.02247e-05
-1.02247e-05
-1.02247e-05
-1.02247e-05
-1.02247e-05
-1.02247e-05
-1.02247e-05
-1.02247e-05
-1.02247e-05
-1.02247e-05
-1.02247e-05
-1.02247e-05
-1.02247e-05
-1.02247e-05
-1.02247e-05
-1.02247e-05
-1.02247e-05
-1.02247e-05
-1.02247e-05
-1.02246e-05
-1.02228e-05
)
;
    }
    top
    {
        type            symmetryPlane;
        value           uniform 0;
    }
    walls
    {
        type            calculated;
        value           uniform 0;
    }
    frontAndBackPlanes
    {
        type            empty;
        value           nonuniform 0();
    }
}


// ************************************************************************* //
