/*--------------------------------*- C++ -*----------------------------------*\
| =========                 |                                                 |
| \\      /  F ield         | OpenFOAM: The Open Source CFD Toolbox           |
|  \\    /   O peration     | Version:  2.4.x                                 |
|   \\  /    A nd           | Web:      www.OpenFOAM.org                      |
|    \\/     M anipulation  |                                                 |
\*---------------------------------------------------------------------------*/
FoamFile
{
    version     2.0;
    format      ascii;
    class       surfaceScalarField;
    location    "10.15";
    object      ddt0(phib);
}
// * * * * * * * * * * * * * * * * * * * * * * * * * * * * * * * * * * * * * //

dimensions      [0 3 -2 0 0 0 0];

internalField   nonuniform List<scalar> 
359
(
-2.03084e-14
-5.11298e-14
-7.73062e-14
-1.00917e-13
-1.25135e-13
-1.50618e-13
-1.77466e-13
-2.06001e-13
-2.36566e-13
-2.69497e-13
-3.04949e-13
-3.43042e-13
-3.83851e-13
-4.27346e-13
-4.73568e-13
-5.22434e-13
-5.74001e-13
-6.28128e-13
-6.84766e-13
-7.43843e-13
-8.05292e-13
-8.69025e-13
-9.34969e-13
-1.00306e-12
-1.07321e-12
-1.14537e-12
-1.21945e-12
-1.29543e-12
-1.37318e-12
-1.45267e-12
-1.53382e-12
-1.61659e-12
-1.70089e-12
-1.78669e-12
-1.87392e-12
-1.96248e-12
-2.05239e-12
-2.14351e-12
-2.23588e-12
-2.3293e-12
-2.42389e-12
-2.51942e-12
-2.6159e-12
-2.71328e-12
-2.81151e-12
-2.91048e-12
-3.0102e-12
-3.11046e-12
-3.21126e-12
-3.3126e-12
-3.41431e-12
-3.51636e-12
-3.61868e-12
-3.72122e-12
-3.82385e-12
-3.92653e-12
-4.0292e-12
-4.13174e-12
-4.2341e-12
-4.33612e-12
-4.43786e-12
-4.53913e-12
-4.63995e-12
-4.74017e-12
-4.8398e-12
-4.93866e-12
-5.03674e-12
-5.13392e-12
-5.23014e-12
-5.32528e-12
-5.41936e-12
-5.51228e-12
-5.60395e-12
-5.69431e-12
-5.78339e-12
-5.87104e-12
-5.95723e-12
-6.04183e-12
-6.12491e-12
-6.20631e-12
-6.28602e-12
-6.36397e-12
-6.4402e-12
-6.5146e-12
-6.58724e-12
-6.65801e-12
-6.72695e-12
-6.79395e-12
-6.85905e-12
-6.92219e-12
-6.98334e-12
-7.04251e-12
-7.0997e-12
-7.15485e-12
-7.20806e-12
-7.25926e-12
-7.3085e-12
-7.3557e-12
-7.4009e-12
-7.4441e-12
-7.48537e-12
-7.5246e-12
-7.56188e-12
-7.59724e-12
-7.63068e-12
-7.66218e-12
-7.69179e-12
-7.71947e-12
-7.7452e-12
-7.7689e-12
-7.79058e-12
-7.8101e-12
-7.82741e-12
-7.84233e-12
-7.85486e-12
-7.86484e-12
-7.87231e-12
-7.87724e-12
-7.87981e-12
-7.88007e-12
-7.87833e-12
-7.87469e-12
-7.8693e-12
-7.86211e-12
-7.85291e-12
-7.84108e-12
-7.82578e-12
-7.80586e-12
-7.78002e-12
-7.74694e-12
-7.70528e-12
-7.6536e-12
-7.5904e-12
-7.51407e-12
-7.42469e-12
-7.32713e-12
-7.23393e-12
-7.1614e-12
-7.11797e-12
-7.09681e-12
-7.0838e-12
-6.89155e-12
-1.99682e-09
-5.42238e-09
-7.67853e-09
-8.2932e-09
-8.06934e-09
-4.81966e-09
2.50003e-08
7.68894e-09
-8.06658e-09
-1.44398e-08
-1.45898e-08
-1.21444e-08
-9.38984e-09
-7.11177e-09
-5.41013e-09
-4.18751e-09
-3.31666e-09
-2.68999e-09
-2.22859e-09
-1.87849e-09
-1.604e-09
-1.38198e-09
-1.19746e-09
-1.04076e-09
-9.05539e-10
-7.87524e-10
-6.8377e-10
-5.92148e-10
-5.11054e-10
-4.39219e-10
-3.756e-10
-3.19312e-10
-2.69584e-10
-2.25735e-10
-1.87158e-10
-1.53306e-10
-1.23688e-10
-9.78608e-11
-7.54269e-11
-5.60273e-11
-3.93395e-11
-2.50739e-11
-1.29705e-11
-2.7962e-12
5.65801e-12
1.25793e-11
1.81349e-11
2.24744e-11
2.57309e-11
2.80227e-11
2.94551e-11
3.01238e-11
3.01195e-11
2.95347e-11
2.84711e-11
2.7045e-11
2.53884e-11
2.36417e-11
2.19406e-11
2.03672e-11
1.90067e-11
1.78896e-11
1.69816e-11
1.62071e-11
1.54946e-11
1.47967e-11
1.40852e-11
1.33427e-11
1.25572e-11
1.1718e-11
1.0815e-11
9.84061e-12
8.79393e-12
7.68828e-12
6.55598e-12
5.44679e-12
4.41662e-12
3.51169e-12
2.75639e-12
2.15144e-12
1.68027e-12
1.31888e-12
1.04264e-12
8.30925e-13
6.66744e-13
5.38955e-13
4.37333e-13
3.57414e-13
2.92353e-13
2.41468e-13
1.98872e-13
1.66748e-13
1.37779e-13
1.27831e-13
6.43924e-14
3.68526e-14
2.64349e-14
2.4489e-14
2.42622e-14
2.76405e-14
2.57416e-14
2.83129e-14
2.62552e-14
2.64739e-14
2.4775e-14
2.45005e-14
2.31305e-14
2.26546e-14
1.11205e-14
2.09516e-14
2.03942e-14
1.99117e-14
1.93267e-14
1.88309e-14
1.82496e-14
1.77472e-14
1.71464e-14
1.66464e-14
1.60496e-14
1.55273e-14
1.48617e-14
1.42651e-14
1.36298e-14
1.30449e-14
1.23645e-14
1.17127e-14
1.10704e-14
1.04549e-14
9.81575e-15
9.18906e-15
8.65474e-15
8.12779e-15
7.62801e-15
7.15521e-15
6.77861e-15
6.42702e-15
6.06976e-15
5.58635e-15
5.22078e-15
4.73023e-15
4.24057e-15
3.78373e-15
3.37274e-15
3.08027e-15
2.80565e-15
2.54405e-15
2.29213e-15
2.04538e-15
1.83047e-15
1.77551e-15
1.76585e-15
1.8313e-15
1.87326e-15
1.1454e-15
1.51703e-15
1.07108e-15
5.80849e-16
1.80809e-16
-2.26337e-16
-4.7731e-16
-7.09753e-16
-8.13314e-16
-1.0758e-15
-1.25298e-15
-1.42587e-15
-1.43446e-15
-1.56827e-15
-1.5385e-15
-1.51923e-15
-1.45425e-15
-1.52787e-15
-1.56985e-15
-1.61886e-15
-1.58236e-15
-1.5923e-15
-1.55291e-15
-1.50656e-15
-1.4257e-15
-1.36446e-15
-1.36056e-15
-1.38143e-15
-1.50199e-15
-1.63471e-15
-1.94051e-15
-2.30238e-15
-2.00226e-15
-3.27585e-15
-3.69553e-15
-4.13353e-15
-4.40889e-15
-4.92993e-15
-5.08527e-15
-5.24305e-15
-5.17896e-15
-5.31521e-15
-5.38179e-15
-5.44065e-15
-5.51123e-15
-5.27837e-15
-5.74871e-15
-6.07601e-15
-6.27333e-15
-5.10231e-15
-4.69166e-15
-4.23874e-15
-6.15202e-15
-6.42033e-15
-9.28737e-15
-1.22055e-14
-1.65375e-14
-1.9604e-14
-2.28641e-14
-2.60017e-14
-2.95169e-14
-3.30883e-14
-3.51563e-14
-3.89572e-14
)
;

boundaryField
{
    inandouthalf11
    {
        type            cyclic;
        value           nonuniform List<scalar> 
100
(
7.63045e-11
7.58752e-11
7.58259e-11
7.58897e-11
7.59212e-11
7.59343e-11
7.59499e-11
7.59686e-11
7.59874e-11
7.60062e-11
7.6025e-11
7.60436e-11
7.60623e-11
7.60811e-11
7.61e-11
7.6119e-11
7.61382e-11
7.61576e-11
7.61771e-11
7.61969e-11
7.62167e-11
7.62369e-11
7.62574e-11
7.6278e-11
7.6299e-11
7.63202e-11
7.63416e-11
7.63634e-11
7.63855e-11
7.64079e-11
7.64306e-11
7.64538e-11
7.6477e-11
7.65009e-11
7.65249e-11
7.65493e-11
7.6574e-11
7.65992e-11
7.66248e-11
7.66505e-11
7.66769e-11
7.67036e-11
7.67305e-11
7.67581e-11
7.67858e-11
7.68141e-11
7.68428e-11
7.68717e-11
7.69012e-11
7.69312e-11
7.69614e-11
7.69922e-11
7.70233e-11
7.70549e-11
7.70868e-11
7.71195e-11
7.71522e-11
7.71857e-11
7.72195e-11
7.72536e-11
7.72885e-11
7.73235e-11
7.73593e-11
7.73954e-11
7.7432e-11
7.7469e-11
7.75066e-11
7.75447e-11
7.75832e-11
7.76221e-11
7.76617e-11
7.77018e-11
7.77421e-11
7.77833e-11
7.78248e-11
7.7867e-11
7.79096e-11
7.79528e-11
7.79965e-11
7.80408e-11
7.80856e-11
7.8131e-11
7.81771e-11
7.82237e-11
7.82709e-11
7.83187e-11
7.83672e-11
7.84163e-11
7.84661e-11
7.85165e-11
7.85677e-11
7.86196e-11
7.86722e-11
7.87255e-11
7.87797e-11
7.88347e-11
7.88905e-11
7.89471e-11
7.90047e-11
7.90632e-11
)
;
    }
    inandouthalf12
    {
        type            cyclic;
        value           nonuniform List<scalar> 
100
(
-7.63045e-11
-7.58752e-11
-7.58259e-11
-7.58897e-11
-7.59212e-11
-7.59343e-11
-7.59499e-11
-7.59686e-11
-7.59874e-11
-7.60062e-11
-7.6025e-11
-7.60436e-11
-7.60623e-11
-7.60811e-11
-7.61e-11
-7.6119e-11
-7.61382e-11
-7.61576e-11
-7.61771e-11
-7.61969e-11
-7.62167e-11
-7.62369e-11
-7.62574e-11
-7.6278e-11
-7.6299e-11
-7.63202e-11
-7.63416e-11
-7.63634e-11
-7.63855e-11
-7.64079e-11
-7.64306e-11
-7.64538e-11
-7.6477e-11
-7.65009e-11
-7.65249e-11
-7.65493e-11
-7.6574e-11
-7.65992e-11
-7.66248e-11
-7.66505e-11
-7.66769e-11
-7.67036e-11
-7.67305e-11
-7.67581e-11
-7.67858e-11
-7.68141e-11
-7.68428e-11
-7.68717e-11
-7.69012e-11
-7.69312e-11
-7.69614e-11
-7.69922e-11
-7.70233e-11
-7.70549e-11
-7.70868e-11
-7.71195e-11
-7.71522e-11
-7.71857e-11
-7.72195e-11
-7.72536e-11
-7.72885e-11
-7.73235e-11
-7.73593e-11
-7.73954e-11
-7.7432e-11
-7.7469e-11
-7.75066e-11
-7.75447e-11
-7.75832e-11
-7.76221e-11
-7.76617e-11
-7.77018e-11
-7.77421e-11
-7.77833e-11
-7.78248e-11
-7.7867e-11
-7.79096e-11
-7.79528e-11
-7.79965e-11
-7.80408e-11
-7.80856e-11
-7.8131e-11
-7.81771e-11
-7.82237e-11
-7.82709e-11
-7.83187e-11
-7.83672e-11
-7.84163e-11
-7.84661e-11
-7.85165e-11
-7.85677e-11
-7.86196e-11
-7.86722e-11
-7.87255e-11
-7.87797e-11
-7.88347e-11
-7.88905e-11
-7.89471e-11
-7.90047e-11
-7.90632e-11
)
;
    }
    inandouthalf21
    {
        type            cyclic;
        value           nonuniform List<scalar> 
100
(
7.91226e-11
7.91831e-11
7.92446e-11
7.93072e-11
7.93709e-11
7.94358e-11
7.9502e-11
7.95695e-11
7.96383e-11
7.97086e-11
7.97804e-11
7.98537e-11
7.99287e-11
8.00053e-11
8.00838e-11
8.01642e-11
8.02465e-11
8.03309e-11
8.04176e-11
8.05067e-11
8.05983e-11
8.06927e-11
8.079e-11
8.08904e-11
8.09941e-11
8.11012e-11
8.12118e-11
8.1326e-11
8.1444e-11
8.15658e-11
8.16914e-11
8.18209e-11
8.19548e-11
8.20947e-11
8.22424e-11
8.23992e-11
8.25666e-11
8.27498e-11
8.29569e-11
8.31918e-11
8.3439e-11
8.37408e-11
6.83984e-11
-7.10617e-11
-1.64806e-10
-1.60367e-10
-1.21314e-10
7.04415e-12
3.26898e-08
7.10568e-07
7.90875e-07
8.21407e-07
8.51171e-07
8.85474e-07
9.21217e-07
9.55538e-07
9.87001e-07
1.01519e-06
1.04022e-06
1.06243e-06
1.0822e-06
1.09993e-06
1.11592e-06
1.13045e-06
1.14375e-06
1.156e-06
1.16735e-06
1.1779e-06
1.18777e-06
1.19703e-06
1.20574e-06
1.21397e-06
1.22176e-06
1.22914e-06
1.23616e-06
1.24285e-06
1.24922e-06
1.25531e-06
1.26114e-06
1.26673e-06
1.27208e-06
1.27722e-06
1.28217e-06
1.28692e-06
1.2915e-06
1.29592e-06
1.30018e-06
1.30429e-06
1.30826e-06
1.31209e-06
1.3158e-06
1.31939e-06
1.32286e-06
1.32622e-06
1.32947e-06
1.33261e-06
1.33565e-06
1.33859e-06
1.34144e-06
1.3442e-06
)
;
    }
    inandouthalf22
    {
        type            cyclic;
        value           nonuniform List<scalar> 
100
(
-7.91226e-11
-7.91831e-11
-7.92446e-11
-7.93072e-11
-7.93709e-11
-7.94358e-11
-7.9502e-11
-7.95695e-11
-7.96383e-11
-7.97086e-11
-7.97804e-11
-7.98537e-11
-7.99287e-11
-8.00053e-11
-8.00838e-11
-8.01642e-11
-8.02465e-11
-8.03309e-11
-8.04176e-11
-8.05067e-11
-8.05983e-11
-8.06927e-11
-8.079e-11
-8.08904e-11
-8.09941e-11
-8.11012e-11
-8.12118e-11
-8.1326e-11
-8.1444e-11
-8.15658e-11
-8.16914e-11
-8.18209e-11
-8.19548e-11
-8.20947e-11
-8.22424e-11
-8.23992e-11
-8.25666e-11
-8.27498e-11
-8.29569e-11
-8.31918e-11
-8.3439e-11
-8.37408e-11
-6.83984e-11
7.10617e-11
1.64806e-10
1.60367e-10
1.21314e-10
-7.04415e-12
-3.26898e-08
-7.10568e-07
-7.90875e-07
-8.21407e-07
-8.51171e-07
-8.85474e-07
-9.21217e-07
-9.55538e-07
-9.87001e-07
-1.01519e-06
-1.04022e-06
-1.06243e-06
-1.0822e-06
-1.09993e-06
-1.11592e-06
-1.13045e-06
-1.14375e-06
-1.156e-06
-1.16735e-06
-1.1779e-06
-1.18777e-06
-1.19703e-06
-1.20574e-06
-1.21397e-06
-1.22176e-06
-1.22914e-06
-1.23616e-06
-1.24285e-06
-1.24922e-06
-1.25531e-06
-1.26114e-06
-1.26673e-06
-1.27208e-06
-1.27722e-06
-1.28217e-06
-1.28692e-06
-1.2915e-06
-1.29592e-06
-1.30018e-06
-1.30429e-06
-1.30826e-06
-1.31209e-06
-1.3158e-06
-1.31939e-06
-1.32286e-06
-1.32622e-06
-1.32947e-06
-1.33261e-06
-1.33565e-06
-1.33859e-06
-1.34144e-06
-1.3442e-06
)
;
    }
    inandouthalf31
    {
        type            cyclic;
        value           nonuniform List<scalar> 
110
(
1.34686e-06
1.37685e-06
1.40745e-06
1.43869e-06
1.47056e-06
1.50307e-06
1.53622e-06
1.57003e-06
1.6045e-06
1.63963e-06
1.67541e-06
1.71186e-06
1.74896e-06
1.78672e-06
1.82511e-06
1.86414e-06
1.90378e-06
1.944e-06
1.9848e-06
2.02612e-06
2.06793e-06
2.11019e-06
2.15282e-06
2.19578e-06
2.23898e-06
2.28234e-06
2.32577e-06
2.36917e-06
2.41245e-06
2.45552e-06
2.49831e-06
2.54077e-06
2.58293e-06
2.62486e-06
2.6667e-06
2.7087e-06
2.75114e-06
2.79438e-06
2.83874e-06
2.88454e-06
2.932e-06
2.98129e-06
3.03247e-06
3.08555e-06
3.14051e-06
3.1973e-06
3.25586e-06
3.31616e-06
3.37815e-06
3.44182e-06
3.50714e-06
3.57412e-06
3.64276e-06
3.71309e-06
3.78512e-06
3.85888e-06
3.93441e-06
4.01175e-06
4.09093e-06
4.17201e-06
4.25504e-06
4.34009e-06
4.42722e-06
4.51652e-06
4.60806e-06
4.70194e-06
4.79828e-06
4.89717e-06
4.99874e-06
5.1031e-06
5.21042e-06
5.3212e-06
5.43593e-06
5.5478e-06
5.66045e-06
5.77534e-06
5.89257e-06
6.01217e-06
6.1342e-06
6.25871e-06
6.38574e-06
6.51536e-06
6.6476e-06
6.78253e-06
6.9202e-06
7.06066e-06
7.20397e-06
7.35019e-06
7.49938e-06
7.6516e-06
7.80691e-06
7.96537e-06
8.12704e-06
8.292e-06
8.4603e-06
8.63203e-06
8.80723e-06
8.986e-06
9.16839e-06
9.35448e-06
9.54435e-06
9.73808e-06
9.93573e-06
1.01374e-05
1.03432e-05
1.05531e-05
1.07673e-05
1.09859e-05
1.12088e-05
1.14363e-05
)
;
    }
    inandouthalf32
    {
        type            cyclic;
        value           nonuniform List<scalar> 
110
(
-1.34686e-06
-1.37685e-06
-1.40745e-06
-1.43869e-06
-1.47056e-06
-1.50307e-06
-1.53622e-06
-1.57003e-06
-1.6045e-06
-1.63963e-06
-1.67541e-06
-1.71186e-06
-1.74896e-06
-1.78672e-06
-1.82511e-06
-1.86414e-06
-1.90378e-06
-1.944e-06
-1.9848e-06
-2.02612e-06
-2.06793e-06
-2.11019e-06
-2.15282e-06
-2.19578e-06
-2.23898e-06
-2.28234e-06
-2.32577e-06
-2.36917e-06
-2.41245e-06
-2.45552e-06
-2.49831e-06
-2.54077e-06
-2.58293e-06
-2.62486e-06
-2.6667e-06
-2.7087e-06
-2.75114e-06
-2.79438e-06
-2.83874e-06
-2.88454e-06
-2.932e-06
-2.98129e-06
-3.03247e-06
-3.08555e-06
-3.14051e-06
-3.1973e-06
-3.25586e-06
-3.31616e-06
-3.37815e-06
-3.44182e-06
-3.50714e-06
-3.57412e-06
-3.64276e-06
-3.71309e-06
-3.78512e-06
-3.85888e-06
-3.93441e-06
-4.01175e-06
-4.09093e-06
-4.17201e-06
-4.25504e-06
-4.34009e-06
-4.42722e-06
-4.51652e-06
-4.60806e-06
-4.70194e-06
-4.79828e-06
-4.89717e-06
-4.99874e-06
-5.1031e-06
-5.21042e-06
-5.3212e-06
-5.43593e-06
-5.5478e-06
-5.66045e-06
-5.77534e-06
-5.89257e-06
-6.01217e-06
-6.1342e-06
-6.25871e-06
-6.38574e-06
-6.51536e-06
-6.6476e-06
-6.78253e-06
-6.9202e-06
-7.06066e-06
-7.20397e-06
-7.35019e-06
-7.49938e-06
-7.6516e-06
-7.80691e-06
-7.96537e-06
-8.12704e-06
-8.292e-06
-8.4603e-06
-8.63203e-06
-8.80723e-06
-8.986e-06
-9.16839e-06
-9.35448e-06
-9.54435e-06
-9.73808e-06
-9.93573e-06
-1.01374e-05
-1.03432e-05
-1.05531e-05
-1.07673e-05
-1.09859e-05
-1.12088e-05
-1.14363e-05
)
;
    }
    inandouthalf41
    {
        type            cyclic;
        value           nonuniform List<scalar> 
50
(
1.02367e-05
1.02367e-05
1.02367e-05
1.02367e-05
1.02367e-05
1.02367e-05
1.02367e-05
1.02367e-05
1.02367e-05
1.02367e-05
1.02367e-05
1.02367e-05
1.02367e-05
1.02367e-05
1.02367e-05
1.02367e-05
1.02367e-05
1.02367e-05
1.02367e-05
1.02367e-05
1.02367e-05
1.02367e-05
1.02367e-05
1.02367e-05
1.02367e-05
1.02367e-05
1.02367e-05
1.02367e-05
1.02367e-05
1.02367e-05
1.02367e-05
1.02367e-05
1.02367e-05
1.02367e-05
1.02367e-05
1.02367e-05
1.02367e-05
1.02367e-05
1.02367e-05
1.02367e-05
1.02367e-05
1.02367e-05
1.02367e-05
1.02367e-05
1.02367e-05
1.02367e-05
1.02367e-05
1.02367e-05
1.02367e-05
1.02367e-05
)
;
    }
    inandouthalf42
    {
        type            cyclic;
        value           nonuniform List<scalar> 
50
(
-1.02367e-05
-1.02367e-05
-1.02367e-05
-1.02367e-05
-1.02367e-05
-1.02367e-05
-1.02367e-05
-1.02367e-05
-1.02367e-05
-1.02367e-05
-1.02367e-05
-1.02367e-05
-1.02367e-05
-1.02367e-05
-1.02367e-05
-1.02367e-05
-1.02367e-05
-1.02367e-05
-1.02367e-05
-1.02367e-05
-1.02367e-05
-1.02367e-05
-1.02367e-05
-1.02367e-05
-1.02367e-05
-1.02367e-05
-1.02367e-05
-1.02367e-05
-1.02367e-05
-1.02367e-05
-1.02367e-05
-1.02367e-05
-1.02367e-05
-1.02367e-05
-1.02367e-05
-1.02367e-05
-1.02367e-05
-1.02367e-05
-1.02367e-05
-1.02367e-05
-1.02367e-05
-1.02367e-05
-1.02367e-05
-1.02367e-05
-1.02367e-05
-1.02367e-05
-1.02367e-05
-1.02367e-05
-1.02367e-05
-1.02367e-05
)
;
    }
    top
    {
        type            symmetryPlane;
        value           uniform 0;
    }
    walls
    {
        type            calculated;
        value           uniform 0;
    }
    frontAndBackPlanes
    {
        type            empty;
        value           nonuniform 0();
    }
}


// ************************************************************************* //
