/*--------------------------------*- C++ -*----------------------------------*\
| =========                 |                                                 |
| \\      /  F ield         | OpenFOAM: The Open Source CFD Toolbox           |
|  \\    /   O peration     | Version:  2.4.x                                 |
|   \\  /    A nd           | Web:      www.OpenFOAM.org                      |
|    \\/     M anipulation  |                                                 |
\*---------------------------------------------------------------------------*/
FoamFile
{
    version     2.0;
    format      ascii;
    class       volScalarField;
    location    "10.15";
    object      epsilon_0;
}
// * * * * * * * * * * * * * * * * * * * * * * * * * * * * * * * * * * * * * //

dimensions      [0 2 -3 0 0 0 0];

internalField   nonuniform List<scalar> 
360
(
1.60309e-27
1e-20
1e-20
1e-20
1e-20
1e-20
1e-20
1e-20
1e-20
1e-20
1e-20
1e-20
1e-20
1e-20
1e-20
1e-20
1e-20
1e-20
1e-20
1e-20
1e-20
1e-20
1e-20
1e-20
1e-20
1e-20
1e-20
1e-20
1e-20
1e-20
1e-20
1e-20
1e-20
1e-20
1e-20
1e-20
1e-20
1e-20
1e-20
1e-20
1e-20
1e-20
1e-20
1e-20
1e-20
1e-20
1e-20
1e-20
1e-20
1e-20
1e-20
1e-20
1e-20
1e-20
1e-20
1e-20
1e-20
1e-20
1e-20
1e-20
1e-20
1e-20
1e-20
1e-20
1e-20
1e-20
1e-20
1e-20
1e-20
1e-20
1e-20
1e-20
1e-20
1e-20
1e-20
1e-20
1e-20
1e-20
1e-20
1e-20
1e-20
1e-20
1e-20
1e-20
1e-20
1e-20
1e-20
1e-20
1e-20
1e-20
1e-20
1e-20
1e-20
1e-20
1e-20
1e-20
1e-20
1e-20
1e-20
1e-20
1e-20
1e-20
1e-20
1e-20
1e-20
1e-20
1e-20
1e-20
1e-20
1e-20
1e-20
1e-20
1e-20
1e-20
1e-20
1e-20
1e-20
1e-20
1e-20
1e-20
1e-20
1e-20
1e-20
1e-20
1e-20
1e-20
2.22239e-20
7.69183e-20
2.66577e-19
8.98872e-19
2.9567e-18
9.53897e-18
3.03764e-17
9.61984e-17
3.05788e-16
9.87457e-16
3.29563e-15
1.1676e-14
4.56571e-14
2.06601e-13
1.13832e-12
8.05598e-12
7.57785e-11
8.4419e-10
1.17477e-08
2.2325e-07
5.76441e-06
0.000193914
0.00598738
0.0381536
0.048312
0.04901
0.0488592
0.0486319
0.0483763
0.0480707
0.0477089
0.0472968
0.0468447
0.0463624
0.0458582
0.0453382
0.0448067
0.0442666
0.0437199
0.0431679
0.0426115
0.0420511
0.0414872
0.0409198
0.0403493
0.0397756
0.039199
0.0386195
0.0380372
0.0374523
0.0368649
0.0362752
0.0356833
0.0350893
0.0344934
0.0338958
0.0332966
0.0326961
0.0320944
0.0314917
0.0308881
0.030284
0.0296795
0.0290748
0.02847
0.0278655
0.0272614
0.026658
0.0260555
0.0254541
0.024854
0.0242555
0.0236589
0.0230644
0.0224722
0.0218767
0.0212722
0.0206588
0.0200368
0.0194066
0.0187683
0.0181224
0.0174692
0.0168093
0.016143
0.0154711
0.0147943
0.0141132
0.0134289
0.0127424
0.0120548
0.0113675
0.010682
0.0100001
0.00932358
0.00865469
0.00799575
0.00734934
0.00671827
0.00610554
0.00551433
0.00494791
0.00440963
0.00390274
0.00343029
0.00299495
0.00259882
0.00224325
0.00192865
0.00165441
0.00141883
0.00121928
0.00105237
0.000914243
0.000800859
0.000708279
0.000632855
0.000571354
0.000520993
0.000479443
0.000444776
0.000415418
0.00039009
0.000367755
0.000347577
0.00032888
0.000311127
0.000293892
0.000276844
0.000259736
0.000242397
0.000224717
0.000206649
0.000188201
0.00016943
0.000150444
0.000131395
0.00011248
9.39368e-05
7.60418e-05
5.91087e-05
4.34855e-05
2.95523e-05
1.77232e-05
8.4661e-06
2.31094e-06
1.82246e-07
3.11586e-09
3.32968e-11
3.34119e-13
3.18362e-15
2.88439e-17
2.56431e-19
1.08175e-20
1e-20
1e-20
1e-20
1e-20
1e-20
1e-20
1e-20
1e-20
1e-20
1e-20
1e-20
1e-20
1e-20
1e-20
1e-20
1e-20
1e-20
1e-20
1e-20
1e-20
1e-20
1e-20
1e-20
1e-20
1e-20
1e-20
1e-20
1e-20
1e-20
1e-20
1e-20
1e-20
1e-20
1e-20
1e-20
1e-20
1e-20
1e-20
1e-20
1e-20
1e-20
1e-20
1e-20
1e-20
1e-20
1e-20
1e-20
1e-20
1e-20
1e-20
1e-20
1e-20
1e-20
1e-20
1e-20
1e-20
1e-20
1e-20
1e-20
1e-20
1e-20
1e-20
1e-20
1e-20
1e-20
1e-20
1e-20
1e-20
1e-20
1e-20
1e-20
1e-20
1e-20
1e-20
1e-20
1e-20
1e-20
1e-20
1e-20
1e-20
)
;

boundaryField
{
    inandouthalf11
    {
        type            cyclic;
    }
    inandouthalf12
    {
        type            cyclic;
    }
    inandouthalf21
    {
        type            cyclic;
    }
    inandouthalf22
    {
        type            cyclic;
    }
    inandouthalf31
    {
        type            cyclic;
    }
    inandouthalf32
    {
        type            cyclic;
    }
    inandouthalf41
    {
        type            cyclic;
    }
    inandouthalf42
    {
        type            cyclic;
    }
    top
    {
        type            symmetryPlane;
    }
    walls
    {
        type            zeroGradient;
    }
    frontAndBackPlanes
    {
        type            empty;
    }
}


// ************************************************************************* //
