/*--------------------------------*- C++ -*----------------------------------*\
| =========                 |                                                 |
| \\      /  F ield         | OpenFOAM: The Open Source CFD Toolbox           |
|  \\    /   O peration     | Version:  2.4.x                                 |
|   \\  /    A nd           | Web:      www.OpenFOAM.org                      |
|    \\/     M anipulation  |                                                 |
\*---------------------------------------------------------------------------*/
FoamFile
{
    version     2.0;
    format      ascii;
    class       volScalarField;
    location    "10.15";
    object      epsilon;
}
// * * * * * * * * * * * * * * * * * * * * * * * * * * * * * * * * * * * * * //

dimensions      [0 2 -3 0 0 0 0];

internalField   nonuniform List<scalar> 
360
(
1e-20
1e-20
1e-20
1e-20
1e-20
1e-20
1e-20
1e-20
1e-20
1e-20
1e-20
1e-20
1e-20
1e-20
1e-20
1e-20
1e-20
1e-20
1e-20
1e-20
1e-20
1e-20
1e-20
1e-20
1e-20
1e-20
1e-20
1e-20
1e-20
1e-20
1e-20
1e-20
1e-20
1e-20
1e-20
1e-20
1e-20
1e-20
1e-20
1e-20
1e-20
1e-20
1e-20
1e-20
1e-20
1e-20
1e-20
1e-20
1e-20
1e-20
1e-20
1e-20
1e-20
1e-20
1e-20
1e-20
1e-20
1e-20
1e-20
1e-20
1e-20
1e-20
1e-20
1e-20
1e-20
1e-20
1e-20
1e-20
1e-20
1e-20
1e-20
1e-20
1e-20
1e-20
1e-20
1e-20
1e-20
1e-20
1e-20
1e-20
1e-20
1e-20
1e-20
1e-20
1e-20
1e-20
1e-20
1e-20
1e-20
1e-20
1e-20
1e-20
1e-20
1e-20
1e-20
1e-20
1e-20
1e-20
1e-20
1e-20
1e-20
1e-20
1e-20
1e-20
1e-20
1e-20
1e-20
1e-20
1e-20
1e-20
1e-20
1e-20
1e-20
1e-20
1e-20
1e-20
1e-20
1e-20
1e-20
1e-20
1e-20
1e-20
1e-20
1e-20
1e-20
1e-20
2.22155e-20
7.68765e-20
2.66394e-19
8.98127e-19
2.95383e-18
9.52829e-18
3.03377e-17
9.60595e-17
3.05289e-16
9.85637e-16
3.28877e-15
1.16486e-14
4.55365e-14
2.05991e-13
1.13462e-12
8.02798e-12
7.54989e-11
8.40899e-10
1.1701e-08
2.22377e-07
5.74102e-06
0.000193029
0.00596173
0.0380624
0.0482798
0.0489876
0.0488347
0.0486047
0.0483479
0.0480426
0.0476818
0.0472711
0.0468205
0.0463397
0.0458369
0.0453181
0.0447877
0.0442486
0.0437028
0.0431516
0.0425959
0.0420363
0.0414729
0.0409062
0.0403361
0.039763
0.0391869
0.0386078
0.038026
0.0374416
0.0368546
0.0362653
0.0356737
0.0350801
0.0344846
0.0338873
0.0332885
0.0326883
0.0320869
0.0314845
0.0308813
0.0302775
0.0296733
0.0290688
0.0284644
0.0278601
0.0272563
0.0266531
0.0260509
0.0254497
0.0248498
0.0242516
0.0236552
0.0230609
0.022469
0.0218737
0.0212694
0.0206562
0.0200345
0.0194044
0.0187664
0.0181207
0.0174677
0.016808
0.0161419
0.0154702
0.0147936
0.0141127
0.0134286
0.0127422
0.0120548
0.0113677
0.0106824
0.0100006
0.00932422
0.00865546
0.00799663
0.00735031
0.00671932
0.00610665
0.00551548
0.00494909
0.00441081
0.00390389
0.0034314
0.00299599
0.00259979
0.00224413
0.00192943
0.00165508
0.0014194
0.00121976
0.00105276
0.000914545
0.000801092
0.000708454
0.000632983
0.000571443
0.000521053
0.000479479
0.000444793
0.000415422
0.000390084
0.000367742
0.000347559
0.00032886
0.000311106
0.00029387
0.000276823
0.000259717
0.00024238
0.000224703
0.000206638
0.000188192
0.000169425
0.000150442
0.000131396
0.000112483
9.39419e-05
7.60485e-05
5.91166e-05
4.3494e-05
2.95606e-05
1.77307e-05
8.47205e-06
2.31426e-06
1.82748e-07
3.12736e-09
3.34226e-11
3.35399e-13
3.19597e-15
2.89571e-17
2.57416e-19
1.08242e-20
1e-20
1e-20
1e-20
1e-20
1e-20
1e-20
1e-20
1e-20
1e-20
1e-20
1e-20
1e-20
1e-20
1e-20
1e-20
1e-20
1e-20
1e-20
1e-20
1e-20
1e-20
1e-20
1e-20
1e-20
1e-20
1e-20
1e-20
1e-20
1e-20
1e-20
1e-20
1e-20
1e-20
1e-20
1e-20
1e-20
1e-20
1e-20
1e-20
1e-20
1e-20
1e-20
1e-20
1e-20
1e-20
1e-20
1e-20
1e-20
1e-20
1e-20
1e-20
1e-20
1e-20
1e-20
1e-20
1e-20
1e-20
1e-20
1e-20
1e-20
1e-20
1e-20
1e-20
1e-20
1e-20
1e-20
1e-20
1e-20
1e-20
1e-20
1e-20
1e-20
1e-20
1e-20
1e-20
1e-20
1e-20
1e-20
1e-20
1e-20
)
;

boundaryField
{
    inandouthalf11
    {
        type            cyclic;
    }
    inandouthalf12
    {
        type            cyclic;
    }
    inandouthalf21
    {
        type            cyclic;
    }
    inandouthalf22
    {
        type            cyclic;
    }
    inandouthalf31
    {
        type            cyclic;
    }
    inandouthalf32
    {
        type            cyclic;
    }
    inandouthalf41
    {
        type            cyclic;
    }
    inandouthalf42
    {
        type            cyclic;
    }
    top
    {
        type            symmetryPlane;
    }
    walls
    {
        type            zeroGradient;
    }
    frontAndBackPlanes
    {
        type            empty;
    }
}


// ************************************************************************* //
