/*--------------------------------*- C++ -*----------------------------------*\
| =========                 |                                                 |
| \\      /  F ield         | OpenFOAM: The Open Source CFD Toolbox           |
|  \\    /   O peration     | Version:  2.4.x                                 |
|   \\  /    A nd           | Web:      www.OpenFOAM.org                      |
|    \\/     M anipulation  |                                                 |
\*---------------------------------------------------------------------------*/
FoamFile
{
    version     2.0;
    format      ascii;
    class       volVectorField;
    location    "10.15";
    object      gradPf;
}
// * * * * * * * * * * * * * * * * * * * * * * * * * * * * * * * * * * * * * //

dimensions      [0 1 -2 0 0 0 0];

internalField   nonuniform List<vector> 
360
(
(0 71.8481 0)
(0 80.4411 0)
(0 0.0929108 0)
(0 -12.5788 0)
(-3.34414e-14 -5.22052 0)
(-3.34421e-14 -2.80987 0)
(-3.3443e-14 -3.583 0)
(0 -4.07245 0)
(-3.34454e-14 -4.11645 0)
(0 -4.12539 0)
(-3.34479e-14 -4.1121 0)
(0 -4.09972 0)
(-3.34504e-14 -4.10608 0)
(0 -4.11355 0)
(0 -4.13219 0)
(0 -4.15109 0)
(0 -4.15975 0)
(-1.67285e-14 -4.16441 0)
(0 -4.18589 0)
(0 -4.19182 0)
(0 -4.19856 0)
(-3.34624e-14 -4.22069 0)
(0 -4.22771 0)
(0 -4.24019 0)
(0 -4.25305 0)
(-3.3468e-14 -4.25669 0)
(0 -4.27269 0)
(0 -4.28975 0)
(0 -4.29175 0)
(0 -4.29905 0)
(0 -4.32181 0)
(0 -4.31664 0)
(0 -4.33326 0)
(0 -4.35049 0)
(0 -4.34706 0)
(1.67417e-14 -4.35744 0)
(0 -4.36456 0)
(0 -4.39229 0)
(0 -4.375 0)
(0 -4.38822 0)
(0 -4.41934 0)
(0 -4.39351 0)
(3.34951e-14 -4.4156 0)
(0 -4.4316 0)
(0 -4.42556 0)
(0 -4.45021 0)
(0 -4.43534 0)
(0 -4.43457 0)
(0 -4.47871 0)
(0 -4.46484 0)
(1.67549e-14 -4.45899 0)
(0 -4.47958 0)
(0 -4.48591 0)
(0 -4.48113 0)
(0 -4.49694 0)
(0 -4.50086 0)
(0 -4.50056 0)
(0 -4.51988 0)
(0 -4.49791 0)
(0 -4.52199 0)
(0 -4.52934 0)
(0 -4.52558 0)
(0 -4.54023 0)
(0 -4.53666 0)
(0 -4.53927 0)
(0 -4.5451 0)
(0 -4.55824 0)
(0 -4.55783 0)
(0 -4.54507 0)
(0 -4.55948 0)
(0 -4.58566 0)
(0 -4.56338 0)
(0 -4.56507 0)
(0 -4.5828 0)
(0 -4.58748 0)
(0 -4.58742 0)
(0 -4.5797 0)
(0 -4.58996 0)
(0 -4.59689 0)
(0 -4.59429 0)
(0 -4.59553 0)
(0 -4.6038 0)
(0 -4.60601 0)
(0 -4.6084 0)
(0 -4.61103 0)
(0 -4.61411 0)
(0 -4.6159 0)
(0 -4.61526 0)
(0 -4.61765 0)
(0 -4.62013 0)
(0 -4.62112 0)
(0 -4.62356 0)
(0 -4.62668 0)
(0 -4.62853 0)
(0 -4.63008 0)
(0 -4.63136 0)
(0 -4.63203 0)
(0 -4.63232 0)
(0 -4.63264 0)
(0 -4.63288 0)
(0 -4.63294 0)
(0 -4.63298 0)
(0 -4.63279 0)
(0 -4.63213 0)
(0 -4.63099 0)
(0 -4.62935 0)
(0 -4.62712 0)
(0 -4.62432 0)
(0 -4.6209 0)
(0 -4.61679 0)
(0 -4.61192 0)
(0 -4.60625 0)
(0 -4.59971 0)
(0 -4.5923 0)
(0 -4.584 0)
(0 -4.57484 0)
(0 -4.56487 0)
(0 -4.55417 0)
(0 -4.54284 0)
(0 -4.53095 0)
(0 -4.5185 0)
(0 -4.50537 0)
(0 -4.49131 0)
(0 -4.47609 0)
(0 -4.45977 0)
(0 -4.443 0)
(0 -4.42693 0)
(0 -4.4123 0)
(0 -4.39792 0)
(0 -4.37992 0)
(0 -4.35513 0)
(0 -4.32952 0)
(0 -4.32097 0)
(0 -4.33834 0)
(0 -4.35517 0)
(0 -4.33868 0)
(0 -4.31985 0)
(0 -4.39799 0)
(0 -4.61223 0)
(0 -4.73582 0)
(0 -4.82791 0)
(0 -16.4213 0)
(0 -14.2643 0)
(0 -1.74769 0)
(0 -3.69425 0)
(0 -3.93431 0)
(0 -3.48594 0)
(0 -4.45354 0)
(0 -3.96609 0)
(0 0 0)
(0 0 0)
(0 0 0)
(0 0 0)
(0 0 0)
(0 0 0)
(0 0 0)
(0 0 0)
(0 0 0)
(0 0 0)
(0 0 0)
(0 0 0)
(0 0 0)
(0 0 0)
(0 0 0)
(0 0 0)
(0 0 0)
(0 0 0)
(0 0 0)
(0 0 0)
(0 0 0)
(0 0 0)
(0 0 0)
(0 0 0)
(0 0 0)
(0 0 0)
(0 0 0)
(0 0 0)
(0 0 0)
(0 0 0)
(0 0 0)
(0 0 0)
(0 0 0)
(0 0 0)
(0 0 0)
(0 0 0)
(0 0 0)
(0 0 0)
(0 0 0)
(0 0 0)
(0 0 0)
(0 0 0)
(0 0 0)
(0 0 0)
(0 0 0)
(0 0 0)
(0 0 0)
(0 0 0)
(0 0 0)
(0 0 0)
(0 0 0)
(0 0 0)
(0 0 0)
(0 0 0)
(0 0 0)
(0 0 0)
(0 0 0)
(0 0 0)
(0 0 0)
(0 0 0)
(0 0 0)
(0 0 0)
(0 0 0)
(0 0 0)
(0 0 0)
(0 0 0)
(0 0 0)
(0 0 0)
(0 0 0)
(0 0 0)
(0 0 0)
(0 0 0)
(0 0 0)
(0 0 0)
(0 0 0)
(0 0 0)
(0 0 0)
(0 0 0)
(0 0 0)
(0 0 0)
(0 0 0)
(0 0 0)
(0 0 0)
(0 0 0)
(0 0 0)
(0 0 0)
(0 0 0)
(0 0 0)
(0 0 0)
(0 0 0)
(0 0 0)
(0 0 0)
(0 0 0)
(0 0 0)
(0 0 0)
(0 0 0)
(0 0 0)
(0 0 0)
(0 0 0)
(0 0 0)
(0 0 0)
(0 0 0)
(0 0 0)
(0 0 0)
(0 0 0)
(0 0 0)
(0 0 0)
(0 0 0)
(0 0 0)
(0 0 0)
(0 0 0)
(0 0 0)
(0 0 0)
(0 0 0)
(0 0 0)
(0 0 0)
(0 0 0)
(0 0 0)
(0 0 0)
(0 0 0)
(0 0 0)
(0 0 0)
(0 0 0)
(0 0 0)
(0 0 0)
(0 0 0)
(0 0 0)
(0 0 0)
(0 0 0)
(0 0 0)
(0 0 0)
(0 0 0)
(0 0 0)
(0 0 0)
(0 0 0)
(0 0 0)
(0 0 0)
(0 0 0)
(0 0 0)
(0 0 0)
(0 0 0)
(0 0 0)
(0 0 0)
(0 0 0)
(0 0 0)
(0 0 0)
(0 0 0)
(0 0 0)
(0 0 0)
(0 0 0)
(0 0 0)
(0 0 0)
(0 0 0)
(0 0 0)
(0 0 0)
(0 0 0)
(0 0 0)
(0 0 0)
(0 0 0)
(0 0 0)
(0 0 0)
(0 0 0)
(0 0 0)
(0 0 0)
(0 0 0)
(0 0 0)
(0 0 0)
(0 0 0)
(0 0 0)
(0 0 0)
(0 0 0)
(0 0 0)
(0 0 0)
(0 0 0)
(0 0 0)
(0 0 0)
(0 0 0)
(0 0 0)
(0 0 0)
(0 0 0)
(0 0 0)
(0 0 0)
(0 0 0)
(0 0 0)
(0 0 0)
(0 0 0)
(0 0 0)
(0 0 0)
(0 0 0)
(0 0 0)
(0 0 0)
(0 0 0)
(0 0 0)
(0 0 0)
(0 0 0)
(0 0 0)
(0 0 0)
(0 0 0)
(0 0 0)
(0 0 0)
(0 0 0)
(0 0 0)
(0 0 0)
(0 0 0)
(0 0 0)
(0 0 0)
(0 0 0)
(0 0 0)
(0 0 0)
(0 0 0)
(0 0 0)
)
;

boundaryField
{
    inandouthalf11
    {
        type            cyclic;
    }
    inandouthalf12
    {
        type            cyclic;
    }
    inandouthalf21
    {
        type            cyclic;
    }
    inandouthalf22
    {
        type            cyclic;
    }
    inandouthalf31
    {
        type            cyclic;
    }
    inandouthalf32
    {
        type            cyclic;
    }
    inandouthalf41
    {
        type            cyclic;
    }
    inandouthalf42
    {
        type            cyclic;
    }
    top
    {
        type            symmetryPlane;
    }
    walls
    {
        type            calculated;
        value           uniform (0 0 0);
    }
    frontAndBackPlanes
    {
        type            empty;
    }
}


// ************************************************************************* //
