/*--------------------------------*- C++ -*----------------------------------*\
| =========                 |                                                 |
| \\      /  F ield         | OpenFOAM: The Open Source CFD Toolbox           |
|  \\    /   O peration     | Version:  2.4.x                                 |
|   \\  /    A nd           | Web:      www.OpenFOAM.org                      |
|    \\/     M anipulation  |                                                 |
\*---------------------------------------------------------------------------*/
FoamFile
{
    version     2.0;
    format      ascii;
    class       volScalarField;
    location    "10.15";
    object      k_0;
}
// * * * * * * * * * * * * * * * * * * * * * * * * * * * * * * * * * * * * * //

dimensions      [0 2 -2 0 0 0 0];

internalField   nonuniform List<scalar> 
360
(
1e-20
1e-20
1e-20
1e-20
1e-20
1e-20
1e-20
1e-20
1e-20
1e-20
1e-20
1e-20
1e-20
1e-20
1e-20
1e-20
1e-20
1e-20
1e-20
1e-20
1e-20
1e-20
1e-20
1e-20
1e-20
1e-20
1e-20
1e-20
1e-20
1e-20
1e-20
1e-20
1e-20
1e-20
1e-20
1e-20
1e-20
1e-20
1e-20
1e-20
1e-20
1e-20
1e-20
1e-20
1e-20
1e-20
1e-20
1e-20
1e-20
1e-20
1e-20
1e-20
1e-20
1e-20
1e-20
1e-20
1e-20
1e-20
1e-20
1e-20
1e-20
1e-20
1e-20
1e-20
1e-20
1e-20
1e-20
1e-20
1e-20
1e-20
1e-20
1e-20
1e-20
1e-20
1e-20
1e-20
1e-20
1e-20
1e-20
1e-20
1e-20
1e-20
1e-20
1e-20
1e-20
1e-20
1e-20
1e-20
1e-20
1e-20
1e-20
1e-20
1e-20
1e-20
1e-20
1e-20
1e-20
1e-20
1e-20
1e-20
1e-20
1e-20
1e-20
1e-20
1e-20
1e-20
1e-20
1e-20
1e-20
1e-20
1e-20
1e-20
1e-20
1e-20
1e-20
1e-20
1e-20
1e-20
1e-20
1e-20
1e-20
1e-20
1e-20
1e-20
1e-20
1e-20
2.49307e-20
8.43485e-20
2.82094e-19
9.13235e-19
2.86762e-18
8.7707e-18
2.6257e-17
7.73984e-17
2.26316e-16
6.62329e-16
1.96394e-15
6.02687e-15
1.98368e-14
7.34167e-14
3.21925e-13
1.78304e-12
1.42233e-11
1.30108e-10
1.38331e-09
2.00309e-08
3.95829e-07
1.01938e-05
0.000277268
0.00173189
0.00290729
0.00369962
0.00435984
0.00493283
0.00543721
0.00588443
0.00628321
0.00664054
0.00696203
0.00725222
0.00751479
0.00775274
0.00796853
0.00816421
0.0083415
0.00850185
0.00864652
0.00877658
0.00889298
0.00899654
0.00908801
0.00916803
0.00923721
0.00929608
0.00934512
0.0093848
0.00941552
0.00943766
0.00945158
0.00945761
0.00945605
0.0094472
0.00943133
0.0094087
0.00937955
0.00934412
0.00930263
0.0092553
0.00920232
0.0091439
0.00908023
0.00901149
0.00893787
0.00885954
0.00877667
0.00868943
0.00859799
0.00850251
0.00840315
0.00830007
0.00819341
0.00808223
0.00796534
0.00784266
0.00771409
0.00757954
0.00743893
0.00729219
0.00713926
0.00698011
0.00681472
0.0066431
0.00646529
0.00628135
0.00609139
0.00589558
0.00569411
0.00548724
0.0052753
0.0050587
0.0048379
0.00461349
0.00438616
0.0041567
0.00392607
0.00369534
0.00346575
0.00323868
0.00301566
0.00279834
0.00258847
0.0023878
0.00219808
0.00202089
0.00185755
0.00170903
0.00157581
0.00145785
0.00135465
0.00126524
0.0011883
0.00112233
0.00106574
0.00101699
0.000974626
0.000937328
0.000903932
0.00087342
0.000844911
0.000817648
0.000790979
0.000764351
0.000737295
0.000709416
0.000680394
0.000649969
0.000617948
0.000584194
0.000548632
0.000511246
0.000472079
0.000431239
0.0003889
0.000345308
0.000300787
0.000255752
0.000210721
0.000166337
0.00012341
8.29887e-05
4.65599e-05
1.62269e-05
1.64471e-06
3.10085e-08
3.32052e-10
3.33096e-12
3.1744e-14
2.87702e-16
2.48835e-18
2.81599e-20
1e-20
1e-20
1e-20
1e-20
1e-20
1e-20
1e-20
1e-20
1e-20
1e-20
1e-20
1e-20
1e-20
1e-20
1e-20
1e-20
1e-20
1e-20
1e-20
1e-20
1e-20
1e-20
1e-20
1e-20
1e-20
1e-20
1e-20
1e-20
1e-20
1e-20
1e-20
1e-20
1e-20
1e-20
1e-20
1e-20
1e-20
1e-20
1e-20
1e-20
1e-20
1e-20
1e-20
1e-20
1e-20
1e-20
1e-20
1e-20
1e-20
1e-20
1e-20
1e-20
1e-20
1e-20
1e-20
1e-20
1e-20
1e-20
1e-20
1e-20
1e-20
1e-20
1e-20
1e-20
1e-20
1e-20
1e-20
1e-20
1e-20
1e-20
1e-20
1e-20
1e-20
1e-20
1e-20
1e-20
1e-20
1e-20
1e-20
1e-20
)
;

boundaryField
{
    inandouthalf11
    {
        type            cyclic;
    }
    inandouthalf12
    {
        type            cyclic;
    }
    inandouthalf21
    {
        type            cyclic;
    }
    inandouthalf22
    {
        type            cyclic;
    }
    inandouthalf31
    {
        type            cyclic;
    }
    inandouthalf32
    {
        type            cyclic;
    }
    inandouthalf41
    {
        type            cyclic;
    }
    inandouthalf42
    {
        type            cyclic;
    }
    top
    {
        type            symmetryPlane;
    }
    walls
    {
        type            zeroGradient;
    }
    frontAndBackPlanes
    {
        type            empty;
    }
}


// ************************************************************************* //
