/*--------------------------------*- C++ -*----------------------------------*\
| =========                 |                                                 |
| \\      /  F ield         | OpenFOAM: The Open Source CFD Toolbox           |
|  \\    /   O peration     | Version:  2.4.x                                 |
|   \\  /    A nd           | Web:      www.OpenFOAM.org                      |
|    \\/     M anipulation  |                                                 |
\*---------------------------------------------------------------------------*/
FoamFile
{
    version     2.0;
    format      ascii;
    class       volScalarField;
    location    "10.15";
    object      p;
}
// * * * * * * * * * * * * * * * * * * * * * * * * * * * * * * * * * * * * * //

dimensions      [1 -1 -2 0 0 0 0];

internalField   nonuniform List<scalar> 
360
(
4892.65
4887.74
4882.84
4877.93
4873.03
4868.12
4863.22
4858.31
4853.4
4848.5
4843.59
4838.69
4833.78
4828.88
4823.97
4819.06
4814.16
4809.25
4804.35
4799.44
4794.53
4789.63
4784.72
4779.82
4774.91
4770
4765.1
4760.19
4755.28
4750.38
4745.47
4740.56
4735.66
4730.75
4725.84
4720.93
4716.03
4711.12
4706.21
4701.31
4696.4
4691.49
4686.58
4681.68
4676.77
4671.86
4666.95
4662.04
4657.14
4652.23
4647.32
4642.41
4637.5
4632.6
4627.69
4622.78
4617.87
4612.96
4608.05
4603.14
4598.23
4593.32
4588.42
4583.51
4578.6
4573.69
4568.78
4563.87
4558.96
4554.05
4549.14
4544.23
4539.32
4534.41
4529.5
4524.59
4519.68
4514.77
4509.86
4504.95
4500.04
4495.13
4490.22
4485.3
4480.39
4475.48
4470.57
4465.66
4460.75
4455.84
4450.93
4446.01
4441.1
4436.19
4431.28
4426.37
4421.46
4416.54
4411.63
4406.72
4401.81
4396.9
4391.98
4387.07
4382.16
4377.25
4372.33
4367.42
4362.51
4357.6
4352.68
4347.77
4342.86
4337.95
4333.03
4328.12
4323.21
4318.3
4313.38
4308.47
4303.56
4298.64
4293.73
4288.82
4283.9
4278.99
4274.08
4269.16
4264.25
4259.34
4254.43
4249.51
4244.6
4239.69
4234.77
4229.86
4224.95
4220.03
4215.12
4210.21
4205.29
4200.38
4195.47
4190.53
4185.53
4180.49
4175.43
4170.29
4165.08
4157.27
4150.6
4144.44
4138.53
4132.79
4127.18
4121.66
4116.21
4110.83
4105.5
4100.22
4094.97
4089.76
4084.57
4079.41
4074.28
4069.16
4064.07
4058.99
4053.93
4048.88
4043.85
4038.83
4033.82
4028.82
4023.83
4018.86
4013.89
4008.93
4003.98
3999.04
3994.1
3989.17
3984.25
3979.34
3974.43
3969.52
3964.63
3959.74
3954.85
3949.97
3945.09
3940.22
3935.35
3930.48
3925.62
3920.77
3915.91
3911.06
3906.22
3901.37
3896.53
3891.65
3886.66
3881.58
3876.4
3871.12
3865.73
3860.23
3854.63
3848.91
3843.08
3837.14
3831.07
3824.89
3818.58
3812.14
3805.58
3798.88
3792.05
3785.08
3777.96
3770.71
3763.3
3755.74
3748.03
3740.16
3732.12
3723.92
3715.54
3706.99
3698.26
3689.34
3680.23
3670.92
3661.41
3651.7
3641.78
3631.64
3621.29
3610.72
3599.92
3588.89
3577.64
3566.15
3554.42
3542.45
3530.23
3517.77
3505.05
3492.07
3478.82
3465.31
3451.52
3437.45
3423.1
3408.45
3393.51
3378.27
3362.71
3346.85
3330.66
3314.14
3297.29
3280.1
3262.56
3244.66
3226.4
3207.76
3188.75
3169.35
3149.55
3129.34
3108.72
3087.66
3066.18
3044.26
3021.9
2999.08
2975.8
2952.05
2927.81
2903.09
2877.86
2852.12
2825.86
2799.06
2771.72
2743.82
2715.36
2686.32
2656.7
2626.47
2595.62
2564.15
2532.05
2499.29
2465.86
2431.76
2396.96
2361.46
2325.24
2288.28
2250.57
2212.1
2172.85
2132.8
2091.93
2050.24
2007.7
1964.3
1922.76
1883.52
1844.28
1805.04
1765.8
1726.56
1687.32
1648.08
1608.84
1569.6
1530.36
1491.12
1451.88
1412.64
1373.4
1334.16
1294.92
1255.68
1216.44
1177.2
1137.96
1098.72
1059.48
1020.24
981
941.76
902.52
863.28
824.04
784.8
745.56
706.32
667.08
627.84
588.6
549.36
510.12
470.88
431.64
392.4
353.16
313.92
274.68
235.44
196.2
156.96
117.72
78.48
39.24
-2.4797e-07
)
;

boundaryField
{
    inandouthalf11
    {
        type            cyclic;
    }
    inandouthalf12
    {
        type            cyclic;
    }
    inandouthalf21
    {
        type            cyclic;
    }
    inandouthalf22
    {
        type            cyclic;
    }
    inandouthalf31
    {
        type            cyclic;
    }
    inandouthalf32
    {
        type            cyclic;
    }
    inandouthalf41
    {
        type            cyclic;
    }
    inandouthalf42
    {
        type            cyclic;
    }
    top
    {
        type            symmetryPlane;
    }
    walls
    {
        type            slip;
    }
    frontAndBackPlanes
    {
        type            empty;
    }
}


// ************************************************************************* //
