/*--------------------------------*- C++ -*----------------------------------*\
| =========                 |                                                 |
| \\      /  F ield         | OpenFOAM: The Open Source CFD Toolbox           |
|  \\    /   O peration     | Version:  2.4.x                                 |
|   \\  /    A nd           | Web:      www.OpenFOAM.org                      |
|    \\/     M anipulation  |                                                 |
\*---------------------------------------------------------------------------*/
FoamFile
{
    version     2.0;
    format      ascii;
    class       surfaceScalarField;
    location    "10.15";
    object      phia;
}
// * * * * * * * * * * * * * * * * * * * * * * * * * * * * * * * * * * * * * //

dimensions      [0 3 -1 0 0 0 0];

internalField   nonuniform List<scalar> 
359
(
-3.23625e-14
-8.04649e-14
-1.23232e-13
-1.62511e-13
-2.01452e-13
-2.40013e-13
-2.77715e-13
-3.14564e-13
-3.50765e-13
-3.86528e-13
-4.22009e-13
-4.5731e-13
-4.92527e-13
-5.2774e-13
-5.63031e-13
-5.98478e-13
-6.34149e-13
-6.70103e-13
-7.06391e-13
-7.43066e-13
-7.8016e-13
-8.17719e-13
-8.55774e-13
-8.94355e-13
-9.33487e-13
-9.7319e-13
-1.01348e-12
-1.05438e-12
-1.09589e-12
-1.13803e-12
-1.1808e-12
-1.2242e-12
-1.26823e-12
-1.31291e-12
-1.35821e-12
-1.40415e-12
-1.45069e-12
-1.49786e-12
-1.54564e-12
-1.59399e-12
-1.64294e-12
-1.69246e-12
-1.74252e-12
-1.79313e-12
-1.84427e-12
-1.89592e-12
-1.94807e-12
-2.00066e-12
-2.05372e-12
-2.10722e-12
-2.16113e-12
-2.21544e-12
-2.27011e-12
-2.32514e-12
-2.38049e-12
-2.43616e-12
-2.49209e-12
-2.54829e-12
-2.60472e-12
-2.66133e-12
-2.71815e-12
-2.7751e-12
-2.83221e-12
-2.88942e-12
-2.94672e-12
-3.00406e-12
-3.06144e-12
-3.11882e-12
-3.17616e-12
-3.23342e-12
-3.29061e-12
-3.34771e-12
-3.40465e-12
-3.46146e-12
-3.51808e-12
-3.57451e-12
-3.6307e-12
-3.68662e-12
-3.74225e-12
-3.79756e-12
-3.85251e-12
-3.90709e-12
-3.9613e-12
-4.0151e-12
-4.06848e-12
-4.12142e-12
-4.17389e-12
-4.22587e-12
-4.27733e-12
-4.32824e-12
-4.37859e-12
-4.42835e-12
-4.47751e-12
-4.52606e-12
-4.574e-12
-4.6213e-12
-4.66796e-12
-4.71396e-12
-4.7593e-12
-4.80395e-12
-4.84793e-12
-4.8912e-12
-4.93379e-12
-4.97567e-12
-5.01687e-12
-5.05737e-12
-5.09717e-12
-5.1363e-12
-5.17474e-12
-5.2125e-12
-5.24959e-12
-5.28602e-12
-5.32179e-12
-5.35693e-12
-5.39145e-12
-5.42536e-12
-5.45869e-12
-5.49147e-12
-5.5237e-12
-5.55541e-12
-5.58656e-12
-5.61711e-12
-5.64696e-12
-5.67598e-12
-5.70397e-12
-5.73073e-12
-5.75605e-12
-5.77982e-12
-5.80202e-12
-5.82279e-12
-5.84243e-12
-5.86146e-12
-5.88062e-12
-5.90084e-12
-5.92306e-12
-5.94761e-12
-5.97327e-12
-5.99659e-12
-6.01317e-12
-6.02115e-12
-6.0233e-12
-6.02315e-12
-2.87601e-11
-6.91193e-11
-1.0347e-10
-1.26268e-10
-1.37764e-10
-1.393e-10
-1.01694e-08
-2.19687e-08
-3.2083e-08
-4.04117e-08
-4.69151e-08
-5.15871e-08
-5.47251e-08
-5.6722e-08
-5.79066e-08
-5.85172e-08
-5.87179e-08
-5.86205e-08
-5.83003e-08
-5.78089e-08
-5.71823e-08
-5.64461e-08
-5.56195e-08
-5.47166e-08
-5.37488e-08
-5.27251e-08
-5.16532e-08
-5.05392e-08
-4.93888e-08
-4.82065e-08
-4.69966e-08
-4.57627e-08
-4.45081e-08
-4.32358e-08
-4.19483e-08
-4.06482e-08
-3.93377e-08
-3.80188e-08
-3.66937e-08
-3.53641e-08
-3.40321e-08
-3.26997e-08
-3.13687e-08
-3.00414e-08
-2.872e-08
-2.74072e-08
-2.61058e-08
-2.48191e-08
-2.35509e-08
-2.23057e-08
-2.10889e-08
-1.99065e-08
-1.87653e-08
-1.76726e-08
-1.66349e-08
-1.56571e-08
-1.47408e-08
-1.38831e-08
-1.30756e-08
-1.22894e-08
-1.15065e-08
-1.07053e-08
-9.86406e-09
-8.96619e-09
-8.00168e-09
-6.96628e-09
-5.85987e-09
-4.68565e-09
-3.45006e-09
-2.16351e-09
-8.41303e-10
4.9524e-10
1.81846e-09
3.09535e-09
4.2905e-09
5.37088e-09
6.31133e-09
7.09847e-09
7.73203e-09
8.2225e-09
8.58759e-09
8.84745e-09
9.02261e-09
9.12909e-09
9.18443e-09
9.19172e-09
9.17188e-09
9.104e-09
9.02916e-09
8.88001e-09
8.75209e-09
8.46784e-09
8.31985e-09
7.33837e-09
4.57918e-09
4.75879e-09
4.12455e-09
3.40474e-09
2.45507e-09
1.60981e-09
6.20371e-10
-1.73247e-10
-8.23599e-10
-1.60561e-09
-1.79375e-09
-2.48568e-09
-2.29258e-09
-2.75498e-09
-3.28726e-09
-9.74979e-08
-1.56745e-07
-1.58142e-07
-1.58017e-07
-1.58029e-07
-1.58033e-07
-1.58037e-07
-1.5804e-07
-1.58043e-07
-1.58045e-07
-1.58047e-07
-1.58047e-07
-1.58045e-07
-1.58043e-07
-1.58038e-07
-1.58032e-07
-1.58023e-07
-1.58011e-07
-1.57995e-07
-1.57974e-07
-1.57927e-07
-1.57895e-07
-1.57893e-07
-1.57893e-07
-1.57893e-07
-1.57893e-07
-1.57893e-07
-1.57893e-07
-1.57893e-07
-1.57893e-07
-1.57893e-07
-1.57893e-07
-1.57893e-07
-1.57893e-07
-1.57893e-07
-1.57893e-07
-1.57893e-07
-1.57893e-07
-1.57893e-07
-1.57893e-07
-1.57893e-07
-1.57893e-07
-1.57893e-07
-1.57893e-07
-1.57893e-07
-1.57893e-07
-1.57893e-07
-1.57893e-07
-1.57893e-07
-1.57893e-07
-1.57893e-07
-1.57893e-07
-1.57893e-07
-1.57893e-07
-1.57893e-07
-1.57893e-07
-1.57893e-07
-1.57893e-07
-1.57893e-07
-1.57893e-07
-1.57893e-07
-1.57893e-07
-1.57893e-07
-1.57893e-07
-1.57893e-07
-1.57893e-07
-1.57893e-07
-1.57893e-07
-1.57893e-07
-1.57893e-07
-1.57893e-07
-1.57893e-07
-1.57893e-07
-1.57893e-07
-1.57893e-07
-1.57893e-07
-1.57893e-07
-1.57893e-07
-1.57893e-07
-1.57893e-07
-1.57893e-07
-1.57893e-07
-1.57893e-07
-1.57893e-07
-1.57893e-07
-1.57893e-07
-1.57893e-07
-1.57893e-07
-1.57893e-07
-1.57893e-07
-1.57893e-07
-1.57893e-07
-1.57893e-07
-1.57893e-07
-1.57893e-07
-1.57893e-07
-1.57893e-07
-1.57893e-07
-1.57893e-07
-1.57893e-07
-1.57893e-07
-1.57893e-07
-1.57893e-07
-1.57893e-07
-1.57893e-07
-1.57875e-07
-1.57166e-07
-1.32132e-07
)
;

boundaryField
{
    inandouthalf11
    {
        type            cyclic;
        value           nonuniform List<scalar> 
100
(
4.96473e-39
9.77306e-16
1.95819e-15
2.77578e-15
3.55347e-15
4.31285e-15
5.03748e-15
5.72337e-15
6.37508e-15
6.99755e-15
7.59452e-15
8.16863e-15
8.72185e-15
9.2558e-15
9.77187e-15
1.02713e-14
1.0755e-14
1.12238e-14
1.16782e-14
1.21185e-14
1.2545e-14
1.29576e-14
1.33564e-14
1.37412e-14
1.41117e-14
1.44677e-14
1.48085e-14
1.51338e-14
1.5443e-14
1.57355e-14
1.60105e-14
1.62675e-14
1.65057e-14
1.67243e-14
1.69226e-14
1.70997e-14
1.72549e-14
1.73873e-14
1.74962e-14
1.75808e-14
1.76402e-14
1.76736e-14
1.76802e-14
1.76593e-14
1.76101e-14
1.75318e-14
1.74238e-14
1.72852e-14
1.71155e-14
1.69139e-14
1.66798e-14
1.64126e-14
1.61117e-14
1.57765e-14
1.54065e-14
1.50012e-14
1.45601e-14
1.40829e-14
1.35691e-14
1.30185e-14
1.24307e-14
1.18054e-14
1.11423e-14
1.04411e-14
9.70173e-15
8.92416e-15
8.10826e-15
7.25398e-15
6.36145e-15
5.4309e-15
4.4623e-15
3.45551e-15
2.41088e-15
1.32866e-15
2.08866e-16
-9.48351e-16
-2.14251e-15
-3.37297e-15
-4.63924e-15
-5.94086e-15
-7.27722e-15
-8.64781e-15
-1.00522e-14
-1.14901e-14
-1.2961e-14
-1.44643e-14
-1.59994e-14
-1.75654e-14
-1.91616e-14
-2.07868e-14
-2.24403e-14
-2.41212e-14
-2.58288e-14
-2.75624e-14
-2.93217e-14
-3.11059e-14
-3.29145e-14
-3.47468e-14
-3.66022e-14
-3.848e-14
)
;
    }
    inandouthalf12
    {
        type            cyclic;
        value           nonuniform List<scalar> 
100
(
-4.96473e-39
-9.77306e-16
-1.95819e-15
-2.77578e-15
-3.55347e-15
-4.31285e-15
-5.03748e-15
-5.72337e-15
-6.37508e-15
-6.99755e-15
-7.59452e-15
-8.16863e-15
-8.72185e-15
-9.2558e-15
-9.77187e-15
-1.02713e-14
-1.0755e-14
-1.12238e-14
-1.16782e-14
-1.21185e-14
-1.2545e-14
-1.29576e-14
-1.33564e-14
-1.37412e-14
-1.41117e-14
-1.44677e-14
-1.48085e-14
-1.51338e-14
-1.5443e-14
-1.57355e-14
-1.60105e-14
-1.62675e-14
-1.65057e-14
-1.67243e-14
-1.69226e-14
-1.70997e-14
-1.72549e-14
-1.73873e-14
-1.74962e-14
-1.75808e-14
-1.76402e-14
-1.76736e-14
-1.76802e-14
-1.76593e-14
-1.76101e-14
-1.75318e-14
-1.74238e-14
-1.72852e-14
-1.71155e-14
-1.69139e-14
-1.66798e-14
-1.64126e-14
-1.61117e-14
-1.57765e-14
-1.54065e-14
-1.50012e-14
-1.45601e-14
-1.40829e-14
-1.35691e-14
-1.30185e-14
-1.24307e-14
-1.18054e-14
-1.11423e-14
-1.04411e-14
-9.70173e-15
-8.92416e-15
-8.10826e-15
-7.25398e-15
-6.36145e-15
-5.4309e-15
-4.4623e-15
-3.45551e-15
-2.41088e-15
-1.32866e-15
-2.08866e-16
9.48351e-16
2.14251e-15
3.37297e-15
4.63924e-15
5.94086e-15
7.27722e-15
8.64781e-15
1.00522e-14
1.14901e-14
1.2961e-14
1.44643e-14
1.59994e-14
1.75654e-14
1.91616e-14
2.07868e-14
2.24403e-14
2.41212e-14
2.58288e-14
2.75624e-14
2.93217e-14
3.11059e-14
3.29145e-14
3.47468e-14
3.66022e-14
3.848e-14
)
;
    }
    inandouthalf21
    {
        type            cyclic;
        value           nonuniform List<scalar> 
100
(
-4.03797e-14
-4.23007e-14
-4.42429e-14
-4.62061e-14
-4.81902e-14
-5.01954e-14
-5.22219e-14
-5.42701e-14
-5.63405e-14
-5.84338e-14
-6.05507e-14
-6.26925e-14
-6.48603e-14
-6.70561e-14
-6.92819e-14
-7.15405e-14
-7.38352e-14
-7.61698e-14
-7.85485e-14
-8.09754e-14
-8.34538e-14
-8.59847e-14
-8.85663e-14
-9.11915e-14
-9.38479e-14
-9.65171e-14
-9.91773e-14
-1.01807e-13
-1.04393e-13
-1.06934e-13
-1.09451e-13
-1.11997e-13
-1.14664e-13
-1.176e-13
-1.21004e-13
-1.2509e-13
-1.29935e-13
-1.35193e-13
-1.39885e-13
-1.42822e-13
-1.438e-13
-1.43918e-13
-1.43933e-13
2.56133e-12
5.50554e-12
7.13064e-12
7.59043e-12
7.35747e-12
5.26331e-12
-5.73876e-08
-1.08671e-07
-1.43659e-07
-1.69934e-07
-1.91355e-07
-2.09775e-07
-2.26155e-07
-2.41046e-07
-2.54793e-07
-2.67623e-07
-2.79698e-07
-2.91138e-07
-3.02034e-07
-3.12458e-07
-3.22465e-07
-3.32104e-07
-3.41413e-07
-3.50423e-07
-3.59162e-07
-3.67652e-07
-3.75915e-07
-3.83967e-07
-3.91822e-07
-3.99495e-07
-4.06997e-07
-4.14338e-07
-4.21527e-07
-4.28573e-07
-4.35482e-07
-4.42261e-07
-4.48915e-07
-4.5545e-07
-4.61869e-07
-4.68176e-07
-4.74374e-07
-4.80466e-07
-4.86454e-07
-4.92339e-07
-4.98122e-07
-5.03802e-07
-5.09382e-07
-5.14859e-07
-5.20232e-07
-5.25501e-07
-5.30664e-07
-5.35719e-07
-5.40662e-07
-5.45493e-07
-5.50207e-07
-5.54803e-07
-5.59277e-07
)
;
    }
    inandouthalf22
    {
        type            cyclic;
        value           nonuniform List<scalar> 
100
(
4.03797e-14
4.23007e-14
4.42429e-14
4.62061e-14
4.81902e-14
5.01954e-14
5.22219e-14
5.42701e-14
5.63405e-14
5.84338e-14
6.05507e-14
6.26925e-14
6.48603e-14
6.70561e-14
6.92819e-14
7.15405e-14
7.38352e-14
7.61698e-14
7.85485e-14
8.09754e-14
8.34538e-14
8.59847e-14
8.85663e-14
9.11915e-14
9.38479e-14
9.65171e-14
9.91773e-14
1.01807e-13
1.04393e-13
1.06934e-13
1.09451e-13
1.11997e-13
1.14664e-13
1.176e-13
1.21004e-13
1.2509e-13
1.29935e-13
1.35193e-13
1.39885e-13
1.42822e-13
1.438e-13
1.43918e-13
1.43933e-13
-2.56133e-12
-5.50554e-12
-7.13064e-12
-7.59043e-12
-7.35747e-12
-5.26331e-12
5.73876e-08
1.08671e-07
1.43659e-07
1.69934e-07
1.91355e-07
2.09775e-07
2.26155e-07
2.41046e-07
2.54793e-07
2.67623e-07
2.79698e-07
2.91138e-07
3.02034e-07
3.12458e-07
3.22465e-07
3.32104e-07
3.41413e-07
3.50423e-07
3.59162e-07
3.67652e-07
3.75915e-07
3.83967e-07
3.91822e-07
3.99495e-07
4.06997e-07
4.14338e-07
4.21527e-07
4.28573e-07
4.35482e-07
4.42261e-07
4.48915e-07
4.5545e-07
4.61869e-07
4.68176e-07
4.74374e-07
4.80466e-07
4.86454e-07
4.92339e-07
4.98122e-07
5.03802e-07
5.09382e-07
5.14859e-07
5.20232e-07
5.25501e-07
5.30664e-07
5.35719e-07
5.40662e-07
5.45493e-07
5.50207e-07
5.54803e-07
5.59277e-07
)
;
    }
    inandouthalf31
    {
        type            cyclic;
        value           nonuniform List<scalar> 
110
(
-5.63628e-07
-5.7942e-07
-5.95573e-07
-6.12089e-07
-6.28972e-07
-6.46222e-07
-6.6384e-07
-6.81828e-07
-7.00184e-07
-7.18907e-07
-7.37994e-07
-7.57441e-07
-7.77243e-07
-7.97396e-07
-8.17892e-07
-8.38726e-07
-8.59893e-07
-8.81387e-07
-9.03205e-07
-9.25348e-07
-9.47816e-07
-9.70612e-07
-9.93739e-07
-1.0172e-06
-1.041e-06
-1.06515e-06
-1.08964e-06
-1.11448e-06
-1.13967e-06
-1.16521e-06
-1.1911e-06
-1.21733e-06
-1.2439e-06
-1.27079e-06
-1.29797e-06
-1.3254e-06
-1.35346e-06
-1.5345e-06
-1.56939e-06
-1.60309e-06
-1.63684e-06
-1.67077e-06
-1.70485e-06
-1.73917e-06
-1.77374e-06
-1.80857e-06
-1.84378e-06
-1.87921e-06
-1.91517e-06
-1.95125e-06
-1.98802e-06
-2.02364e-06
-2.05663e-06
-2.09453e-06
-2.13292e-06
-2.17205e-06
-2.21175e-06
-2.25207e-06
-2.29304e-06
-2.3347e-06
-2.3771e-06
-2.42029e-06
-2.46432e-06
-2.50926e-06
-2.55517e-06
-2.60214e-06
-2.65025e-06
-2.69962e-06
-2.75036e-06
-2.80261e-06
-2.85649e-06
-2.91233e-06
-2.97062e-06
-3.03083e-06
-3.09235e-06
-3.15511e-06
-3.21915e-06
-3.28449e-06
-3.35116e-06
-3.41918e-06
-3.48858e-06
-3.55939e-06
-3.63163e-06
-3.70535e-06
-3.78056e-06
-3.85729e-06
-3.93558e-06
-4.01547e-06
-4.09697e-06
-4.18013e-06
-4.26497e-06
-4.35154e-06
-4.43986e-06
-4.52998e-06
-4.62193e-06
-4.71574e-06
-4.81146e-06
-4.90912e-06
-5.00876e-06
-5.11042e-06
-5.21415e-06
-5.31999e-06
-5.42797e-06
-5.53814e-06
-5.65055e-06
-5.76524e-06
-5.88226e-06
-6.00165e-06
-6.12347e-06
-6.24776e-06
)
;
    }
    inandouthalf32
    {
        type            cyclic;
        value           nonuniform List<scalar> 
110
(
5.63628e-07
5.7942e-07
5.95573e-07
6.12089e-07
6.28972e-07
6.46222e-07
6.6384e-07
6.81828e-07
7.00184e-07
7.18907e-07
7.37994e-07
7.57441e-07
7.77243e-07
7.97396e-07
8.17892e-07
8.38726e-07
8.59893e-07
8.81387e-07
9.03205e-07
9.25348e-07
9.47816e-07
9.70612e-07
9.93739e-07
1.0172e-06
1.041e-06
1.06515e-06
1.08964e-06
1.11448e-06
1.13967e-06
1.16521e-06
1.1911e-06
1.21733e-06
1.2439e-06
1.27079e-06
1.29797e-06
1.3254e-06
1.35346e-06
1.5345e-06
1.56939e-06
1.60309e-06
1.63684e-06
1.67077e-06
1.70485e-06
1.73917e-06
1.77374e-06
1.80857e-06
1.84378e-06
1.87921e-06
1.91517e-06
1.95125e-06
1.98802e-06
2.02364e-06
2.05663e-06
2.09453e-06
2.13292e-06
2.17205e-06
2.21175e-06
2.25207e-06
2.29304e-06
2.3347e-06
2.3771e-06
2.42029e-06
2.46432e-06
2.50926e-06
2.55517e-06
2.60214e-06
2.65025e-06
2.69962e-06
2.75036e-06
2.80261e-06
2.85649e-06
2.91233e-06
2.97062e-06
3.03083e-06
3.09235e-06
3.15511e-06
3.21915e-06
3.28449e-06
3.35116e-06
3.41918e-06
3.48858e-06
3.55939e-06
3.63163e-06
3.70535e-06
3.78056e-06
3.85729e-06
3.93558e-06
4.01547e-06
4.09697e-06
4.18013e-06
4.26497e-06
4.35154e-06
4.43986e-06
4.52998e-06
4.62193e-06
4.71574e-06
4.81146e-06
4.90912e-06
5.00876e-06
5.11042e-06
5.21415e-06
5.31999e-06
5.42797e-06
5.53814e-06
5.65055e-06
5.76524e-06
5.88226e-06
6.00165e-06
6.12347e-06
6.24776e-06
)
;
    }
    inandouthalf41
    {
        type            cyclic;
        value           nonuniform List<scalar> 
50
(
-5.59238e-06
-5.59238e-06
-5.59238e-06
-5.59238e-06
-5.59238e-06
-5.59238e-06
-5.59238e-06
-5.59238e-06
-5.59238e-06
-5.59238e-06
-5.59238e-06
-5.59238e-06
-5.59238e-06
-5.59238e-06
-5.59238e-06
-5.59238e-06
-5.59238e-06
-5.59238e-06
-5.59238e-06
-5.59238e-06
-5.59238e-06
-5.59238e-06
-5.59238e-06
-5.59238e-06
-5.59238e-06
-5.59238e-06
-5.59238e-06
-5.59238e-06
-5.59238e-06
-5.59238e-06
-5.59238e-06
-5.59238e-06
-5.59238e-06
-5.59238e-06
-5.59238e-06
-5.59238e-06
-5.59238e-06
-5.59238e-06
-5.59238e-06
-5.59238e-06
-5.59238e-06
-5.59238e-06
-5.59238e-06
-5.59238e-06
-5.59238e-06
-5.59238e-06
-5.59238e-06
-5.5924e-06
-5.59267e-06
-5.59909e-06
)
;
    }
    inandouthalf42
    {
        type            cyclic;
        value           nonuniform List<scalar> 
50
(
5.59238e-06
5.59238e-06
5.59238e-06
5.59238e-06
5.59238e-06
5.59238e-06
5.59238e-06
5.59238e-06
5.59238e-06
5.59238e-06
5.59238e-06
5.59238e-06
5.59238e-06
5.59238e-06
5.59238e-06
5.59238e-06
5.59238e-06
5.59238e-06
5.59238e-06
5.59238e-06
5.59238e-06
5.59238e-06
5.59238e-06
5.59238e-06
5.59238e-06
5.59238e-06
5.59238e-06
5.59238e-06
5.59238e-06
5.59238e-06
5.59238e-06
5.59238e-06
5.59238e-06
5.59238e-06
5.59238e-06
5.59238e-06
5.59238e-06
5.59238e-06
5.59238e-06
5.59238e-06
5.59238e-06
5.59238e-06
5.59238e-06
5.59238e-06
5.59238e-06
5.59238e-06
5.59238e-06
5.5924e-06
5.59267e-06
5.59909e-06
)
;
    }
    top
    {
        type            symmetryPlane;
        value           uniform 0;
    }
    walls
    {
        type            fixedValue;
        value           uniform 0;
    }
    frontAndBackPlanes
    {
        type            empty;
        value           nonuniform 0();
    }
}


// ************************************************************************* //
