/*--------------------------------*- C++ -*----------------------------------*\
| =========                 |                                                 |
| \\      /  F ield         | OpenFOAM: The Open Source CFD Toolbox           |
|  \\    /   O peration     | Version:  2.4.x                                 |
|   \\  /    A nd           | Web:      www.OpenFOAM.org                      |
|    \\/     M anipulation  |                                                 |
\*---------------------------------------------------------------------------*/
FoamFile
{
    version     2.0;
    format      ascii;
    class       surfaceScalarField;
    location    "10.15";
    object      phia_0;
}
// * * * * * * * * * * * * * * * * * * * * * * * * * * * * * * * * * * * * * //

dimensions      [0 3 -1 0 0 0 0];

internalField   nonuniform List<scalar> 
359
(
-3.23651e-14
-8.04716e-14
-1.23243e-13
-1.62524e-13
-2.01469e-13
-2.40033e-13
-2.77738e-13
-3.14591e-13
-3.50796e-13
-3.86563e-13
-4.22048e-13
-4.57355e-13
-4.92577e-13
-5.27795e-13
-5.63092e-13
-5.98545e-13
-6.34223e-13
-6.70185e-13
-7.0648e-13
-7.43162e-13
-7.80264e-13
-8.17831e-13
-8.55895e-13
-8.94484e-13
-9.33625e-13
-9.73338e-13
-1.01364e-12
-1.05455e-12
-1.09607e-12
-1.13822e-12
-1.18099e-12
-1.22441e-12
-1.26845e-12
-1.31314e-12
-1.35846e-12
-1.4044e-12
-1.45096e-12
-1.49813e-12
-1.54592e-12
-1.59429e-12
-1.64325e-12
-1.69278e-12
-1.74286e-12
-1.79348e-12
-1.84463e-12
-1.89629e-12
-1.94845e-12
-2.00106e-12
-2.05413e-12
-2.10765e-12
-2.16157e-12
-2.21589e-12
-2.27057e-12
-2.32562e-12
-2.38098e-12
-2.43666e-12
-2.49261e-12
-2.54883e-12
-2.60527e-12
-2.66189e-12
-2.71872e-12
-2.77569e-12
-2.83281e-12
-2.89003e-12
-2.94734e-12
-3.0047e-12
-3.06209e-12
-3.11948e-12
-3.17683e-12
-3.2341e-12
-3.29131e-12
-3.34842e-12
-3.40538e-12
-3.46219e-12
-3.51883e-12
-3.57527e-12
-3.63147e-12
-3.6874e-12
-3.74304e-12
-3.79836e-12
-3.85332e-12
-3.90792e-12
-3.96213e-12
-4.01594e-12
-4.06933e-12
-4.12228e-12
-4.17476e-12
-4.22675e-12
-4.27822e-12
-4.32914e-12
-4.37949e-12
-4.42926e-12
-4.47843e-12
-4.52699e-12
-4.57493e-12
-4.62224e-12
-4.6689e-12
-4.71491e-12
-4.76026e-12
-4.80492e-12
-4.8489e-12
-4.89218e-12
-4.93477e-12
-4.97666e-12
-5.01786e-12
-5.05836e-12
-5.09817e-12
-5.1373e-12
-5.17574e-12
-5.21351e-12
-5.2506e-12
-5.28704e-12
-5.32281e-12
-5.35795e-12
-5.39247e-12
-5.42638e-12
-5.45972e-12
-5.4925e-12
-5.52473e-12
-5.55644e-12
-5.58759e-12
-5.61814e-12
-5.64799e-12
-5.67701e-12
-5.705e-12
-5.73175e-12
-5.75708e-12
-5.78085e-12
-5.80305e-12
-5.82381e-12
-5.84344e-12
-5.86247e-12
-5.88162e-12
-5.90184e-12
-5.92404e-12
-5.94858e-12
-5.97423e-12
-5.99754e-12
-6.01412e-12
-6.0221e-12
-6.02424e-12
-6.02409e-12
-2.9027e-11
-6.98453e-11
-1.04503e-10
-1.27391e-10
-1.38865e-10
-1.40344e-10
-1.01674e-08
-2.19671e-08
-3.20881e-08
-4.04253e-08
-4.69299e-08
-5.15964e-08
-5.47269e-08
-5.67169e-08
-5.78964e-08
-5.85035e-08
-5.87021e-08
-5.86035e-08
-5.82829e-08
-5.77915e-08
-5.71652e-08
-5.64295e-08
-5.56034e-08
-5.4701e-08
-5.37337e-08
-5.27106e-08
-5.16391e-08
-5.05255e-08
-4.93755e-08
-4.81935e-08
-4.69839e-08
-4.57503e-08
-4.44959e-08
-4.32238e-08
-4.19365e-08
-4.06366e-08
-3.93262e-08
-3.80075e-08
-3.66825e-08
-3.53531e-08
-3.40212e-08
-3.26889e-08
-3.1358e-08
-3.00308e-08
-2.87096e-08
-2.73969e-08
-2.60956e-08
-2.4809e-08
-2.35409e-08
-2.22958e-08
-2.10791e-08
-1.98969e-08
-1.8756e-08
-1.76635e-08
-1.6626e-08
-1.56484e-08
-1.47323e-08
-1.38749e-08
-1.30677e-08
-1.22816e-08
-1.14989e-08
-1.06976e-08
-9.85634e-09
-8.95835e-09
-7.99367e-09
-6.95809e-09
-5.8515e-09
-4.67709e-09
-3.44134e-09
-2.15464e-09
-8.32317e-10
5.04302e-10
1.82754e-09
3.10438e-09
4.2994e-09
5.37957e-09
6.31974e-09
7.10656e-09
7.73977e-09
8.22988e-09
8.59463e-09
8.85417e-09
9.02903e-09
9.13524e-09
9.19036e-09
9.19744e-09
9.17743e-09
9.1094e-09
9.03443e-09
8.88518e-09
8.75717e-09
8.47286e-09
8.32484e-09
7.34332e-09
4.58127e-09
4.75987e-09
4.12496e-09
3.40481e-09
2.45493e-09
1.61051e-09
6.20645e-10
-1.70902e-10
-8.21636e-10
-1.60156e-09
-1.79032e-09
-2.47946e-09
-2.28776e-09
-2.74618e-09
-3.20051e-09
-9.74893e-08
-1.56745e-07
-1.58142e-07
-1.58017e-07
-1.58029e-07
-1.58033e-07
-1.58037e-07
-1.5804e-07
-1.58043e-07
-1.58046e-07
-1.58047e-07
-1.58047e-07
-1.58046e-07
-1.58043e-07
-1.58038e-07
-1.58032e-07
-1.58023e-07
-1.58011e-07
-1.57995e-07
-1.57974e-07
-1.57927e-07
-1.57895e-07
-1.57893e-07
-1.57893e-07
-1.57893e-07
-1.57893e-07
-1.57893e-07
-1.57893e-07
-1.57893e-07
-1.57893e-07
-1.57893e-07
-1.57893e-07
-1.57893e-07
-1.57893e-07
-1.57893e-07
-1.57893e-07
-1.57893e-07
-1.57893e-07
-1.57893e-07
-1.57893e-07
-1.57893e-07
-1.57893e-07
-1.57893e-07
-1.57893e-07
-1.57893e-07
-1.57893e-07
-1.57893e-07
-1.57893e-07
-1.57893e-07
-1.57893e-07
-1.57893e-07
-1.57893e-07
-1.57893e-07
-1.57893e-07
-1.57893e-07
-1.57893e-07
-1.57893e-07
-1.57893e-07
-1.57893e-07
-1.57893e-07
-1.57893e-07
-1.57893e-07
-1.57893e-07
-1.57893e-07
-1.57893e-07
-1.57893e-07
-1.57893e-07
-1.57893e-07
-1.57893e-07
-1.57893e-07
-1.57893e-07
-1.57893e-07
-1.57893e-07
-1.57893e-07
-1.57893e-07
-1.57893e-07
-1.57893e-07
-1.57893e-07
-1.57893e-07
-1.57893e-07
-1.57893e-07
-1.57893e-07
-1.57893e-07
-1.57893e-07
-1.57893e-07
-1.57893e-07
-1.57893e-07
-1.57893e-07
-1.57893e-07
-1.57893e-07
-1.57893e-07
-1.57893e-07
-1.57893e-07
-1.57893e-07
-1.57893e-07
-1.57893e-07
-1.57893e-07
-1.57893e-07
-1.57893e-07
-1.57893e-07
-1.57893e-07
-1.57893e-07
-1.57893e-07
-1.57893e-07
-1.57893e-07
-1.57875e-07
-1.57166e-07
-1.32132e-07
)
;

boundaryField
{
    inandouthalf11
    {
        type            cyclic;
        value           nonuniform List<scalar> 
100
(
4.9596e-39
9.76344e-16
1.95623e-15
2.77295e-15
3.54979e-15
4.30831e-15
5.03209e-15
5.71716e-15
6.36806e-15
6.98973e-15
7.58591e-15
8.15924e-15
8.71168e-15
9.24485e-15
9.76014e-15
1.02588e-14
1.07417e-14
1.12097e-14
1.16633e-14
1.21027e-14
1.25284e-14
1.29401e-14
1.33381e-14
1.3722e-14
1.40916e-14
1.44466e-14
1.47865e-14
1.51108e-14
1.5419e-14
1.57104e-14
1.59844e-14
1.62403e-14
1.64774e-14
1.66948e-14
1.68919e-14
1.70679e-14
1.72218e-14
1.7353e-14
1.74607e-14
1.75439e-14
1.76019e-14
1.7634e-14
1.76392e-14
1.76169e-14
1.75662e-14
1.74865e-14
1.73769e-14
1.72368e-14
1.70655e-14
1.68624e-14
1.66266e-14
1.63577e-14
1.60551e-14
1.57182e-14
1.53465e-14
1.49395e-14
1.44966e-14
1.40176e-14
1.35019e-14
1.29495e-14
1.23598e-14
1.17326e-14
1.10676e-14
1.03645e-14
9.62316e-15
8.84361e-15
8.02572e-15
7.16942e-15
6.27487e-15
5.34228e-15
4.37162e-15
3.36277e-15
2.31606e-15
1.23175e-15
1.09857e-16
-1.04947e-15
-2.24574e-15
-3.47832e-15
-4.74672e-15
-6.05046e-15
-7.38895e-15
-8.76167e-15
-1.01682e-14
-1.16082e-14
-1.30812e-14
-1.45866e-14
-1.61238e-14
-1.7692e-14
-1.92903e-14
-2.09176e-14
-2.25732e-14
-2.42561e-14
-2.59658e-14
-2.77015e-14
-2.94628e-14
-3.12491e-14
-3.30597e-14
-3.4894e-14
-3.67514e-14
-3.86311e-14
)
;
    }
    inandouthalf12
    {
        type            cyclic;
        value           nonuniform List<scalar> 
100
(
-4.9596e-39
-9.76344e-16
-1.95623e-15
-2.77295e-15
-3.54979e-15
-4.30831e-15
-5.03209e-15
-5.71716e-15
-6.36806e-15
-6.98973e-15
-7.58591e-15
-8.15924e-15
-8.71168e-15
-9.24485e-15
-9.76014e-15
-1.02588e-14
-1.07417e-14
-1.12097e-14
-1.16633e-14
-1.21027e-14
-1.25284e-14
-1.29401e-14
-1.33381e-14
-1.3722e-14
-1.40916e-14
-1.44466e-14
-1.47865e-14
-1.51108e-14
-1.5419e-14
-1.57104e-14
-1.59844e-14
-1.62403e-14
-1.64774e-14
-1.66948e-14
-1.68919e-14
-1.70679e-14
-1.72218e-14
-1.7353e-14
-1.74607e-14
-1.75439e-14
-1.76019e-14
-1.7634e-14
-1.76392e-14
-1.76169e-14
-1.75662e-14
-1.74865e-14
-1.73769e-14
-1.72368e-14
-1.70655e-14
-1.68624e-14
-1.66266e-14
-1.63577e-14
-1.60551e-14
-1.57182e-14
-1.53465e-14
-1.49395e-14
-1.44966e-14
-1.40176e-14
-1.35019e-14
-1.29495e-14
-1.23598e-14
-1.17326e-14
-1.10676e-14
-1.03645e-14
-9.62316e-15
-8.84361e-15
-8.02572e-15
-7.16942e-15
-6.27487e-15
-5.34228e-15
-4.37162e-15
-3.36277e-15
-2.31606e-15
-1.23175e-15
-1.09857e-16
1.04947e-15
2.24574e-15
3.47832e-15
4.74672e-15
6.05046e-15
7.38895e-15
8.76167e-15
1.01682e-14
1.16082e-14
1.30812e-14
1.45866e-14
1.61238e-14
1.7692e-14
1.92903e-14
2.09176e-14
2.25732e-14
2.42561e-14
2.59658e-14
2.77015e-14
2.94628e-14
3.12491e-14
3.30597e-14
3.4894e-14
3.67514e-14
3.86311e-14
)
;
    }
    inandouthalf21
    {
        type            cyclic;
        value           nonuniform List<scalar> 
100
(
-4.05327e-14
-4.24558e-14
-4.43999e-14
-4.63649e-14
-4.8351e-14
-5.0358e-14
-5.23864e-14
-5.44365e-14
-5.65087e-14
-5.86038e-14
-6.07226e-14
-6.28661e-14
-6.50358e-14
-6.72333e-14
-6.94609e-14
-7.17213e-14
-7.40177e-14
-7.63541e-14
-7.87346e-14
-8.11633e-14
-8.36434e-14
-8.61762e-14
-8.87595e-14
-9.13866e-14
-9.40447e-14
-9.67157e-14
-9.93776e-14
-1.02009e-13
-1.04597e-13
-1.07139e-13
-1.09657e-13
-1.12204e-13
-1.14873e-13
-1.17809e-13
-1.21214e-13
-1.25301e-13
-1.30147e-13
-1.35407e-13
-1.40101e-13
-1.43039e-13
-1.44018e-13
-1.44136e-13
-1.44151e-13
2.58655e-12
5.55127e-12
7.17828e-12
7.6326e-12
7.39644e-12
5.309e-12
-5.75167e-08
-1.0883e-07
-1.43825e-07
-1.70105e-07
-1.91532e-07
-2.09958e-07
-2.26345e-07
-2.41243e-07
-2.54994e-07
-2.67829e-07
-2.79909e-07
-2.91353e-07
-3.02253e-07
-3.12679e-07
-3.2269e-07
-3.32332e-07
-3.41643e-07
-3.50655e-07
-3.59396e-07
-3.67889e-07
-3.76153e-07
-3.84206e-07
-3.92064e-07
-3.99738e-07
-4.07241e-07
-4.14584e-07
-4.21774e-07
-4.28821e-07
-4.35731e-07
-4.42511e-07
-4.49167e-07
-4.55702e-07
-4.62122e-07
-4.68431e-07
-4.7463e-07
-4.80723e-07
-4.86711e-07
-4.92597e-07
-4.9838e-07
-5.04062e-07
-5.09642e-07
-5.15119e-07
-5.20494e-07
-5.25763e-07
-5.30927e-07
-5.35981e-07
-5.40926e-07
-5.45757e-07
-5.50471e-07
-5.55067e-07
-5.59542e-07
)
;
    }
    inandouthalf22
    {
        type            cyclic;
        value           nonuniform List<scalar> 
100
(
4.05327e-14
4.24558e-14
4.43999e-14
4.63649e-14
4.8351e-14
5.0358e-14
5.23864e-14
5.44365e-14
5.65087e-14
5.86038e-14
6.07226e-14
6.28661e-14
6.50358e-14
6.72333e-14
6.94609e-14
7.17213e-14
7.40177e-14
7.63541e-14
7.87346e-14
8.11633e-14
8.36434e-14
8.61762e-14
8.87595e-14
9.13866e-14
9.40447e-14
9.67157e-14
9.93776e-14
1.02009e-13
1.04597e-13
1.07139e-13
1.09657e-13
1.12204e-13
1.14873e-13
1.17809e-13
1.21214e-13
1.25301e-13
1.30147e-13
1.35407e-13
1.40101e-13
1.43039e-13
1.44018e-13
1.44136e-13
1.44151e-13
-2.58655e-12
-5.55127e-12
-7.17828e-12
-7.6326e-12
-7.39644e-12
-5.309e-12
5.75167e-08
1.0883e-07
1.43825e-07
1.70105e-07
1.91532e-07
2.09958e-07
2.26345e-07
2.41243e-07
2.54994e-07
2.67829e-07
2.79909e-07
2.91353e-07
3.02253e-07
3.12679e-07
3.2269e-07
3.32332e-07
3.41643e-07
3.50655e-07
3.59396e-07
3.67889e-07
3.76153e-07
3.84206e-07
3.92064e-07
3.99738e-07
4.07241e-07
4.14584e-07
4.21774e-07
4.28821e-07
4.35731e-07
4.42511e-07
4.49167e-07
4.55702e-07
4.62122e-07
4.68431e-07
4.7463e-07
4.80723e-07
4.86711e-07
4.92597e-07
4.9838e-07
5.04062e-07
5.09642e-07
5.15119e-07
5.20494e-07
5.25763e-07
5.30927e-07
5.35981e-07
5.40926e-07
5.45757e-07
5.50471e-07
5.55067e-07
5.59542e-07
)
;
    }
    inandouthalf31
    {
        type            cyclic;
        value           nonuniform List<scalar> 
110
(
-5.63893e-07
-5.79691e-07
-5.9585e-07
-6.12373e-07
-6.29261e-07
-6.46517e-07
-6.64142e-07
-6.82136e-07
-7.00499e-07
-7.19228e-07
-7.38322e-07
-7.57776e-07
-7.77585e-07
-7.97745e-07
-8.18249e-07
-8.3909e-07
-8.60264e-07
-8.81766e-07
-9.03592e-07
-9.25743e-07
-9.48219e-07
-9.71023e-07
-9.94159e-07
-1.01763e-06
-1.04144e-06
-1.0656e-06
-1.0901e-06
-1.11494e-06
-1.14014e-06
-1.16569e-06
-1.19159e-06
-1.21783e-06
-1.24441e-06
-1.27131e-06
-1.2985e-06
-1.32594e-06
-1.35401e-06
-1.53506e-06
-1.56995e-06
-1.60366e-06
-1.63743e-06
-1.67137e-06
-1.70546e-06
-1.73979e-06
-1.77437e-06
-1.80921e-06
-1.84443e-06
-1.87987e-06
-1.91584e-06
-1.95194e-06
-1.98871e-06
-2.02435e-06
-2.05735e-06
-2.09527e-06
-2.13367e-06
-2.17282e-06
-2.21253e-06
-2.25286e-06
-2.29385e-06
-2.33553e-06
-2.37795e-06
-2.42115e-06
-2.4652e-06
-2.51016e-06
-2.55609e-06
-2.60307e-06
-2.65121e-06
-2.7006e-06
-2.75136e-06
-2.80362e-06
-2.85753e-06
-2.91339e-06
-2.9717e-06
-3.03193e-06
-3.09347e-06
-3.15626e-06
-3.22033e-06
-3.28569e-06
-3.35238e-06
-3.42042e-06
-3.48985e-06
-3.56068e-06
-3.63296e-06
-3.7067e-06
-3.78193e-06
-3.8587e-06
-3.93702e-06
-4.01693e-06
-4.09846e-06
-4.18165e-06
-4.26653e-06
-4.35312e-06
-4.44148e-06
-4.53163e-06
-4.62361e-06
-4.71746e-06
-4.81321e-06
-4.91091e-06
-5.01058e-06
-5.11229e-06
-5.21605e-06
-5.32192e-06
-5.42994e-06
-5.54016e-06
-5.65261e-06
-5.76734e-06
-5.8844e-06
-6.00384e-06
-6.1257e-06
-6.25004e-06
)
;
    }
    inandouthalf32
    {
        type            cyclic;
        value           nonuniform List<scalar> 
110
(
5.63893e-07
5.79691e-07
5.9585e-07
6.12373e-07
6.29261e-07
6.46517e-07
6.64142e-07
6.82136e-07
7.00499e-07
7.19228e-07
7.38322e-07
7.57776e-07
7.77585e-07
7.97745e-07
8.18249e-07
8.3909e-07
8.60264e-07
8.81766e-07
9.03592e-07
9.25743e-07
9.48219e-07
9.71023e-07
9.94159e-07
1.01763e-06
1.04144e-06
1.0656e-06
1.0901e-06
1.11494e-06
1.14014e-06
1.16569e-06
1.19159e-06
1.21783e-06
1.24441e-06
1.27131e-06
1.2985e-06
1.32594e-06
1.35401e-06
1.53506e-06
1.56995e-06
1.60366e-06
1.63743e-06
1.67137e-06
1.70546e-06
1.73979e-06
1.77437e-06
1.80921e-06
1.84443e-06
1.87987e-06
1.91584e-06
1.95194e-06
1.98871e-06
2.02435e-06
2.05735e-06
2.09527e-06
2.13367e-06
2.17282e-06
2.21253e-06
2.25286e-06
2.29385e-06
2.33553e-06
2.37795e-06
2.42115e-06
2.4652e-06
2.51016e-06
2.55609e-06
2.60307e-06
2.65121e-06
2.7006e-06
2.75136e-06
2.80362e-06
2.85753e-06
2.91339e-06
2.9717e-06
3.03193e-06
3.09347e-06
3.15626e-06
3.22033e-06
3.28569e-06
3.35238e-06
3.42042e-06
3.48985e-06
3.56068e-06
3.63296e-06
3.7067e-06
3.78193e-06
3.8587e-06
3.93702e-06
4.01693e-06
4.09846e-06
4.18165e-06
4.26653e-06
4.35312e-06
4.44148e-06
4.53163e-06
4.62361e-06
4.71746e-06
4.81321e-06
4.91091e-06
5.01058e-06
5.11229e-06
5.21605e-06
5.32192e-06
5.42994e-06
5.54016e-06
5.65261e-06
5.76734e-06
5.8844e-06
6.00384e-06
6.1257e-06
6.25004e-06
)
;
    }
    inandouthalf41
    {
        type            cyclic;
        value           nonuniform List<scalar> 
50
(
-5.59442e-06
-5.59442e-06
-5.59442e-06
-5.59442e-06
-5.59442e-06
-5.59442e-06
-5.59442e-06
-5.59442e-06
-5.59442e-06
-5.59442e-06
-5.59442e-06
-5.59442e-06
-5.59442e-06
-5.59442e-06
-5.59442e-06
-5.59442e-06
-5.59442e-06
-5.59442e-06
-5.59442e-06
-5.59442e-06
-5.59442e-06
-5.59442e-06
-5.59442e-06
-5.59442e-06
-5.59442e-06
-5.59442e-06
-5.59442e-06
-5.59442e-06
-5.59442e-06
-5.59442e-06
-5.59442e-06
-5.59442e-06
-5.59442e-06
-5.59442e-06
-5.59442e-06
-5.59442e-06
-5.59442e-06
-5.59442e-06
-5.59442e-06
-5.59442e-06
-5.59442e-06
-5.59442e-06
-5.59442e-06
-5.59442e-06
-5.59442e-06
-5.59442e-06
-5.59442e-06
-5.59443e-06
-5.59471e-06
-5.60113e-06
)
;
    }
    inandouthalf42
    {
        type            cyclic;
        value           nonuniform List<scalar> 
50
(
5.59442e-06
5.59442e-06
5.59442e-06
5.59442e-06
5.59442e-06
5.59442e-06
5.59442e-06
5.59442e-06
5.59442e-06
5.59442e-06
5.59442e-06
5.59442e-06
5.59442e-06
5.59442e-06
5.59442e-06
5.59442e-06
5.59442e-06
5.59442e-06
5.59442e-06
5.59442e-06
5.59442e-06
5.59442e-06
5.59442e-06
5.59442e-06
5.59442e-06
5.59442e-06
5.59442e-06
5.59442e-06
5.59442e-06
5.59442e-06
5.59442e-06
5.59442e-06
5.59442e-06
5.59442e-06
5.59442e-06
5.59442e-06
5.59442e-06
5.59442e-06
5.59442e-06
5.59442e-06
5.59442e-06
5.59442e-06
5.59442e-06
5.59442e-06
5.59442e-06
5.59442e-06
5.59442e-06
5.59443e-06
5.59471e-06
5.60113e-06
)
;
    }
    top
    {
        type            symmetryPlane;
        value           uniform 0;
    }
    walls
    {
        type            fixedValue;
        value           uniform 0;
    }
    frontAndBackPlanes
    {
        type            empty;
        value           nonuniform 0();
    }
}


// ************************************************************************* //
