/*--------------------------------*- C++ -*----------------------------------*\
| =========                 |                                                 |
| \\      /  F ield         | OpenFOAM: The Open Source CFD Toolbox           |
|  \\    /   O peration     | Version:  2.4.x                                 |
|   \\  /    A nd           | Web:      www.OpenFOAM.org                      |
|    \\/     M anipulation  |                                                 |
\*---------------------------------------------------------------------------*/
FoamFile
{
    version     2.0;
    format      ascii;
    class       surfaceScalarField;
    location    "10.15";
    object      phib;
}
// * * * * * * * * * * * * * * * * * * * * * * * * * * * * * * * * * * * * * //

dimensions      [0 3 -1 0 0 0 0];

internalField   nonuniform List<scalar> 
359
(
5.08999e-14
1.2681e-13
1.9421e-13
2.56041e-13
3.17357e-13
3.7808e-13
4.37434e-13
4.9543e-13
5.52392e-13
6.08655e-13
6.64461e-13
7.19974e-13
7.75343e-13
8.30695e-13
8.86157e-13
9.41852e-13
9.97889e-13
1.05436e-12
1.11134e-12
1.16892e-12
1.22714e-12
1.28608e-12
1.34579e-12
1.4063e-12
1.46767e-12
1.52993e-12
1.59309e-12
1.65718e-12
1.72224e-12
1.78825e-12
1.85523e-12
1.9232e-12
1.99213e-12
2.06206e-12
2.13295e-12
2.20481e-12
2.27762e-12
2.35136e-12
2.42605e-12
2.50163e-12
2.57811e-12
2.65546e-12
2.73364e-12
2.81266e-12
2.89248e-12
2.97307e-12
3.05441e-12
3.13644e-12
3.21914e-12
3.30253e-12
3.38652e-12
3.4711e-12
3.55622e-12
3.64188e-12
3.72799e-12
3.81458e-12
3.90154e-12
3.98889e-12
4.07656e-12
4.16448e-12
4.25267e-12
4.34105e-12
4.42962e-12
4.51832e-12
4.60711e-12
4.69594e-12
4.78476e-12
4.87355e-12
4.96223e-12
5.05075e-12
5.1391e-12
5.22727e-12
5.31515e-12
5.40276e-12
5.49003e-12
5.57695e-12
5.66345e-12
5.74947e-12
5.83497e-12
5.91992e-12
6.00426e-12
6.08797e-12
6.17102e-12
6.25338e-12
6.33503e-12
6.41592e-12
6.49603e-12
6.5753e-12
6.6537e-12
6.73117e-12
6.80769e-12
6.88322e-12
6.95775e-12
7.03126e-12
7.10373e-12
7.17513e-12
7.24546e-12
7.31468e-12
7.38278e-12
7.44974e-12
7.51555e-12
7.58018e-12
7.64365e-12
7.70593e-12
7.76704e-12
7.82696e-12
7.88571e-12
7.94329e-12
7.9997e-12
8.05494e-12
8.10902e-12
8.16195e-12
8.21374e-12
8.26441e-12
8.31398e-12
8.36247e-12
8.40992e-12
8.45635e-12
8.50178e-12
8.54622e-12
8.58963e-12
8.63193e-12
8.67296e-12
8.71248e-12
8.75022e-12
8.78582e-12
8.819e-12
8.84952e-12
8.87736e-12
8.90271e-12
8.92604e-12
8.94811e-12
8.97001e-12
8.99305e-12
9.0186e-12
9.04719e-12
9.0769e-12
9.10216e-12
9.11583e-12
9.11516e-12
9.10417e-12
9.02854e-12
4.27811e-11
1.02648e-10
1.53046e-10
1.85759e-10
2.01268e-10
1.39234e-10
4.60366e-09
4.71358e-09
4.25397e-09
3.7664e-09
3.31807e-09
2.91358e-09
2.55622e-09
2.24566e-09
1.97796e-09
1.74767e-09
1.54924e-09
1.37764e-09
1.22852e-09
1.09829e-09
9.83975e-10
8.83146e-10
7.93824e-10
7.14381e-10
6.43478e-10
5.80003e-10
5.23029e-10
4.71773e-10
4.25572e-10
3.83861e-10
3.46154e-10
3.12027e-10
2.81116e-10
2.53098e-10
2.27691e-10
2.04645e-10
1.83737e-10
1.64772e-10
1.4757e-10
1.31975e-10
1.17842e-10
1.05044e-10
9.34642e-11
8.29969e-11
7.35466e-11
6.50263e-11
5.73569e-11
5.04664e-11
4.4289e-11
3.87649e-11
3.38395e-11
2.94629e-11
2.55893e-11
2.21758e-11
1.91819e-11
1.65682e-11
1.42954e-11
1.23241e-11
1.06146e-11
9.10084e-12
7.75698e-12
6.55836e-12
5.48397e-12
4.51819e-12
3.65046e-12
2.87359e-12
2.18233e-12
1.57257e-12
1.04101e-12
5.85127e-13
2.03136e-13
-1.06144e-13
-3.43853e-13
-5.12104e-13
-6.15295e-13
-6.61125e-13
-6.60616e-13
-6.26793e-13
-5.72588e-13
-5.08877e-13
-4.43504e-13
-3.81275e-13
-3.24625e-13
-2.74421e-13
-2.30594e-13
-1.92692e-13
-1.60076e-13
-1.32082e-13
-1.08236e-13
-8.78472e-14
-7.07298e-14
-5.60439e-14
-4.42683e-14
-3.51751e-14
-2.03931e-14
-1.53155e-14
-8.96281e-15
-5.01466e-15
-2.41823e-15
-1.05209e-15
-2.52911e-16
7.38044e-17
1.81926e-16
2.23104e-16
1.64836e-16
1.42719e-16
8.71458e-17
6.21006e-17
4.20734e-17
5.88053e-17
1.91523e-17
1.86645e-17
1.80717e-17
1.75336e-17
1.69083e-17
1.63355e-17
1.56825e-17
1.50854e-17
1.4445e-17
1.38784e-17
1.33054e-17
1.28619e-17
1.25061e-17
1.22733e-17
1.20705e-17
1.19202e-17
1.18015e-17
1.16944e-17
1.15679e-17
1.1446e-17
1.13938e-17
1.13176e-17
1.12073e-17
1.10156e-17
1.08472e-17
1.05795e-17
1.02854e-17
9.9313e-18
9.75779e-18
9.51879e-18
9.26881e-18
8.88198e-18
8.56116e-18
8.09032e-18
7.65567e-18
7.02218e-18
6.54646e-18
5.95798e-18
5.35554e-18
4.62608e-18
3.97754e-18
3.24118e-18
2.54322e-18
1.87523e-18
1.50894e-18
1.34362e-18
1.24154e-18
1.20008e-18
1.14352e-18
1.06757e-18
9.97326e-19
9.10982e-19
8.76246e-19
8.3177e-19
7.91235e-19
7.39014e-19
6.95937e-19
6.44714e-19
6.00086e-19
5.52168e-19
5.26023e-19
4.9599e-19
4.66741e-19
4.3082e-19
4.01025e-19
3.63048e-19
3.24954e-19
2.78785e-19
2.46436e-19
2.03398e-19
1.6059e-19
1.04407e-19
5.77397e-20
-3.94979e-21
-6.46599e-20
-1.40664e-19
-1.85837e-19
-2.73193e-19
-3.63179e-19
-5.30661e-19
-6.36049e-19
-8.51209e-19
-1.06828e-18
-1.38667e-18
-1.56411e-18
-1.84703e-18
-2.13411e-18
-2.53172e-18
-2.89032e-18
-3.3053e-18
-3.74397e-18
-4.19021e-18
-4.89832e-18
-5.48574e-18
-6.08117e-18
-6.43055e-18
-7.01494e-18
-7.20322e-18
-7.41413e-18
-7.41872e-18
-7.77796e-18
-7.74263e-18
-7.70463e-18
-7.483e-18
-6.49063e-18
-6.79212e-18
-8.56971e-18
)
;

boundaryField
{
    inandouthalf11
    {
        type            cyclic;
        value           nonuniform List<scalar> 
100
(
2.70738e-10
2.69238e-10
2.69034e-10
2.69237e-10
2.69333e-10
2.69364e-10
2.69403e-10
2.69453e-10
2.69505e-10
2.69557e-10
2.69609e-10
2.69661e-10
2.69714e-10
2.69767e-10
2.69821e-10
2.69875e-10
2.6993e-10
2.69986e-10
2.70042e-10
2.70099e-10
2.70156e-10
2.70213e-10
2.70272e-10
2.70331e-10
2.70391e-10
2.70451e-10
2.70512e-10
2.70573e-10
2.70635e-10
2.70698e-10
2.70762e-10
2.70826e-10
2.70891e-10
2.70957e-10
2.71023e-10
2.7109e-10
2.71158e-10
2.71226e-10
2.71296e-10
2.71365e-10
2.71437e-10
2.71508e-10
2.7158e-10
2.71654e-10
2.71728e-10
2.71803e-10
2.71879e-10
2.71955e-10
2.72032e-10
2.72111e-10
2.7219e-10
2.7227e-10
2.72352e-10
2.72434e-10
2.72517e-10
2.72601e-10
2.72686e-10
2.72773e-10
2.7286e-10
2.72948e-10
2.73038e-10
2.73128e-10
2.73221e-10
2.73314e-10
2.73408e-10
2.73503e-10
2.736e-10
2.73699e-10
2.73798e-10
2.73899e-10
2.74001e-10
2.74106e-10
2.7421e-10
2.74318e-10
2.74426e-10
2.74536e-10
2.74648e-10
2.74761e-10
2.74877e-10
2.74994e-10
2.75112e-10
2.75233e-10
2.75356e-10
2.75481e-10
2.75608e-10
2.75737e-10
2.75869e-10
2.76002e-10
2.76138e-10
2.76277e-10
2.76418e-10
2.76562e-10
2.76708e-10
2.76858e-10
2.7701e-10
2.77166e-10
2.77324e-10
2.77486e-10
2.77651e-10
2.7782e-10
)
;
    }
    inandouthalf12
    {
        type            cyclic;
        value           nonuniform List<scalar> 
100
(
-2.70738e-10
-2.69238e-10
-2.69034e-10
-2.69237e-10
-2.69333e-10
-2.69364e-10
-2.69403e-10
-2.69453e-10
-2.69505e-10
-2.69557e-10
-2.69609e-10
-2.69661e-10
-2.69714e-10
-2.69767e-10
-2.69821e-10
-2.69875e-10
-2.6993e-10
-2.69986e-10
-2.70042e-10
-2.70099e-10
-2.70156e-10
-2.70213e-10
-2.70272e-10
-2.70331e-10
-2.70391e-10
-2.70451e-10
-2.70512e-10
-2.70573e-10
-2.70635e-10
-2.70698e-10
-2.70762e-10
-2.70826e-10
-2.70891e-10
-2.70957e-10
-2.71023e-10
-2.7109e-10
-2.71158e-10
-2.71226e-10
-2.71296e-10
-2.71365e-10
-2.71437e-10
-2.71508e-10
-2.7158e-10
-2.71654e-10
-2.71728e-10
-2.71803e-10
-2.71879e-10
-2.71955e-10
-2.72032e-10
-2.72111e-10
-2.7219e-10
-2.7227e-10
-2.72352e-10
-2.72434e-10
-2.72517e-10
-2.72601e-10
-2.72686e-10
-2.72773e-10
-2.7286e-10
-2.72948e-10
-2.73038e-10
-2.73128e-10
-2.73221e-10
-2.73314e-10
-2.73408e-10
-2.73503e-10
-2.736e-10
-2.73699e-10
-2.73798e-10
-2.73899e-10
-2.74001e-10
-2.74106e-10
-2.7421e-10
-2.74318e-10
-2.74426e-10
-2.74536e-10
-2.74648e-10
-2.74761e-10
-2.74877e-10
-2.74994e-10
-2.75112e-10
-2.75233e-10
-2.75356e-10
-2.75481e-10
-2.75608e-10
-2.75737e-10
-2.75869e-10
-2.76002e-10
-2.76138e-10
-2.76277e-10
-2.76418e-10
-2.76562e-10
-2.76708e-10
-2.76858e-10
-2.7701e-10
-2.77166e-10
-2.77324e-10
-2.77486e-10
-2.77651e-10
-2.7782e-10
)
;
    }
    inandouthalf21
    {
        type            cyclic;
        value           nonuniform List<scalar> 
100
(
2.77992e-10
2.78169e-10
2.78349e-10
2.78533e-10
2.78722e-10
2.78915e-10
2.79112e-10
2.79315e-10
2.79522e-10
2.79735e-10
2.79954e-10
2.80178e-10
2.80408e-10
2.80644e-10
2.80887e-10
2.81136e-10
2.81393e-10
2.81657e-10
2.81929e-10
2.8221e-10
2.82499e-10
2.82798e-10
2.83106e-10
2.83425e-10
2.83756e-10
2.84098e-10
2.84453e-10
2.84822e-10
2.85206e-10
2.85606e-10
2.86024e-10
2.86459e-10
2.86915e-10
2.87395e-10
2.87905e-10
2.88446e-10
2.89016e-10
2.89624e-10
2.903e-10
2.91079e-10
2.91926e-10
2.92908e-10
3.01788e-10
3.04772e-10
3.09479e-10
3.14252e-10
3.18197e-10
3.2214e-10
-1.84753e-10
-6.13446e-08
-1.089e-07
-1.41304e-07
-1.66192e-07
-1.86814e-07
-2.04734e-07
-2.20782e-07
-2.35441e-07
-2.49019e-07
-2.61722e-07
-2.737e-07
-2.85064e-07
-2.95901e-07
-3.06277e-07
-3.16248e-07
-3.25859e-07
-3.35146e-07
-3.44141e-07
-3.52871e-07
-3.61357e-07
-3.6962e-07
-3.77677e-07
-3.85541e-07
-3.93226e-07
-4.00743e-07
-4.08103e-07
-4.15314e-07
-4.22384e-07
-4.29321e-07
-4.36132e-07
-4.42821e-07
-4.49395e-07
-4.55858e-07
-4.62214e-07
-4.68468e-07
-4.74624e-07
-4.80684e-07
-4.86651e-07
-4.9253e-07
-4.98321e-07
-5.04028e-07
-5.09653e-07
-5.15198e-07
-5.20664e-07
-5.26053e-07
-5.31367e-07
-5.36607e-07
-5.41775e-07
-5.46871e-07
-5.51897e-07
-5.56854e-07
)
;
    }
    inandouthalf22
    {
        type            cyclic;
        value           nonuniform List<scalar> 
100
(
-2.77992e-10
-2.78169e-10
-2.78349e-10
-2.78533e-10
-2.78722e-10
-2.78915e-10
-2.79112e-10
-2.79315e-10
-2.79522e-10
-2.79735e-10
-2.79954e-10
-2.80178e-10
-2.80408e-10
-2.80644e-10
-2.80887e-10
-2.81136e-10
-2.81393e-10
-2.81657e-10
-2.81929e-10
-2.8221e-10
-2.82499e-10
-2.82798e-10
-2.83106e-10
-2.83425e-10
-2.83756e-10
-2.84098e-10
-2.84453e-10
-2.84822e-10
-2.85206e-10
-2.85606e-10
-2.86024e-10
-2.86459e-10
-2.86915e-10
-2.87395e-10
-2.87905e-10
-2.88446e-10
-2.89016e-10
-2.89624e-10
-2.903e-10
-2.91079e-10
-2.91926e-10
-2.92908e-10
-3.01788e-10
-3.04772e-10
-3.09479e-10
-3.14252e-10
-3.18197e-10
-3.2214e-10
1.84753e-10
6.13446e-08
1.089e-07
1.41304e-07
1.66192e-07
1.86814e-07
2.04734e-07
2.20782e-07
2.35441e-07
2.49019e-07
2.61722e-07
2.737e-07
2.85064e-07
2.95901e-07
3.06277e-07
3.16248e-07
3.25859e-07
3.35146e-07
3.44141e-07
3.52871e-07
3.61357e-07
3.6962e-07
3.77677e-07
3.85541e-07
3.93226e-07
4.00743e-07
4.08103e-07
4.15314e-07
4.22384e-07
4.29321e-07
4.36132e-07
4.42821e-07
4.49395e-07
4.55858e-07
4.62214e-07
4.68468e-07
4.74624e-07
4.80684e-07
4.86651e-07
4.9253e-07
4.98321e-07
5.04028e-07
5.09653e-07
5.15198e-07
5.20664e-07
5.26053e-07
5.31367e-07
5.36607e-07
5.41775e-07
5.46871e-07
5.51897e-07
5.56854e-07
)
;
    }
    inandouthalf31
    {
        type            cyclic;
        value           nonuniform List<scalar> 
110
(
-5.61744e-07
-5.78114e-07
-5.94948e-07
-6.12256e-07
-6.3005e-07
-6.48342e-07
-6.67143e-07
-6.86465e-07
-7.06319e-07
-7.26716e-07
-7.47667e-07
-7.69182e-07
-7.9127e-07
-8.13942e-07
-8.37205e-07
-8.61066e-07
-8.85531e-07
-9.10606e-07
-9.36291e-07
-9.62589e-07
-9.89497e-07
-1.01701e-06
-1.04512e-06
-1.07382e-06
-1.10308e-06
-1.1329e-06
-1.16324e-06
-1.19407e-06
-1.22536e-06
-1.25706e-06
-1.28913e-06
-1.32151e-06
-1.35415e-06
-1.38699e-06
-1.42e-06
-1.45311e-06
-1.48632e-06
-1.51958e-06
-1.55292e-06
-1.58633e-06
-1.61984e-06
-1.65348e-06
-1.6873e-06
-1.72133e-06
-1.7556e-06
-1.79015e-06
-1.82502e-06
-1.86024e-06
-1.89582e-06
-1.9318e-06
-1.96819e-06
-2.00503e-06
-2.04233e-06
-2.08013e-06
-2.11843e-06
-2.15728e-06
-2.19671e-06
-2.23673e-06
-2.2774e-06
-2.31875e-06
-2.36082e-06
-2.40366e-06
-2.44733e-06
-2.49189e-06
-2.53741e-06
-2.58397e-06
-2.63165e-06
-2.68056e-06
-2.73082e-06
-2.78256e-06
-2.83595e-06
-2.89116e-06
-2.94881e-06
-3.00855e-06
-3.06961e-06
-3.13192e-06
-3.19549e-06
-3.26035e-06
-3.32652e-06
-3.39404e-06
-3.46293e-06
-3.53322e-06
-3.60494e-06
-3.67811e-06
-3.75276e-06
-3.82893e-06
-3.90665e-06
-3.98594e-06
-4.06685e-06
-4.14939e-06
-4.23362e-06
-4.31955e-06
-4.40722e-06
-4.49668e-06
-4.58795e-06
-4.68107e-06
-4.77608e-06
-4.87303e-06
-4.97194e-06
-5.07285e-06
-5.17582e-06
-5.28087e-06
-5.38806e-06
-5.49742e-06
-5.60901e-06
-5.72286e-06
-5.83901e-06
-5.95753e-06
-6.07845e-06
-6.20183e-06
)
;
    }
    inandouthalf32
    {
        type            cyclic;
        value           nonuniform List<scalar> 
110
(
5.61744e-07
5.78114e-07
5.94948e-07
6.12256e-07
6.3005e-07
6.48342e-07
6.67143e-07
6.86465e-07
7.06319e-07
7.26716e-07
7.47667e-07
7.69182e-07
7.9127e-07
8.13942e-07
8.37205e-07
8.61066e-07
8.85531e-07
9.10606e-07
9.36291e-07
9.62589e-07
9.89497e-07
1.01701e-06
1.04512e-06
1.07382e-06
1.10308e-06
1.1329e-06
1.16324e-06
1.19407e-06
1.22536e-06
1.25706e-06
1.28913e-06
1.32151e-06
1.35415e-06
1.38699e-06
1.42e-06
1.45311e-06
1.48632e-06
1.51958e-06
1.55292e-06
1.58633e-06
1.61984e-06
1.65348e-06
1.6873e-06
1.72133e-06
1.7556e-06
1.79015e-06
1.82502e-06
1.86024e-06
1.89582e-06
1.9318e-06
1.96819e-06
2.00503e-06
2.04233e-06
2.08013e-06
2.11843e-06
2.15728e-06
2.19671e-06
2.23673e-06
2.2774e-06
2.31875e-06
2.36082e-06
2.40366e-06
2.44733e-06
2.49189e-06
2.53741e-06
2.58397e-06
2.63165e-06
2.68056e-06
2.73082e-06
2.78256e-06
2.83595e-06
2.89116e-06
2.94881e-06
3.00855e-06
3.06961e-06
3.13192e-06
3.19549e-06
3.26035e-06
3.32652e-06
3.39404e-06
3.46293e-06
3.53322e-06
3.60494e-06
3.67811e-06
3.75276e-06
3.82893e-06
3.90665e-06
3.98594e-06
4.06685e-06
4.14939e-06
4.23362e-06
4.31955e-06
4.40722e-06
4.49668e-06
4.58795e-06
4.68107e-06
4.77608e-06
4.87303e-06
4.97194e-06
5.07285e-06
5.17582e-06
5.28087e-06
5.38806e-06
5.49742e-06
5.60901e-06
5.72286e-06
5.83901e-06
5.95753e-06
6.07845e-06
6.20183e-06
)
;
    }
    inandouthalf41
    {
        type            cyclic;
        value           nonuniform List<scalar> 
50
(
-5.55127e-06
-5.55127e-06
-5.55127e-06
-5.55127e-06
-5.55127e-06
-5.55127e-06
-5.55127e-06
-5.55127e-06
-5.55127e-06
-5.55127e-06
-5.55127e-06
-5.55127e-06
-5.55127e-06
-5.55127e-06
-5.55127e-06
-5.55127e-06
-5.55127e-06
-5.55127e-06
-5.55127e-06
-5.55127e-06
-5.55127e-06
-5.55127e-06
-5.55127e-06
-5.55127e-06
-5.55127e-06
-5.55127e-06
-5.55127e-06
-5.55127e-06
-5.55127e-06
-5.55127e-06
-5.55127e-06
-5.55127e-06
-5.55127e-06
-5.55127e-06
-5.55127e-06
-5.55127e-06
-5.55127e-06
-5.55127e-06
-5.55127e-06
-5.55127e-06
-5.55127e-06
-5.55127e-06
-5.55127e-06
-5.55127e-06
-5.55127e-06
-5.55127e-06
-5.55127e-06
-5.55127e-06
-5.55127e-06
-5.55127e-06
)
;
    }
    inandouthalf42
    {
        type            cyclic;
        value           nonuniform List<scalar> 
50
(
5.55127e-06
5.55127e-06
5.55127e-06
5.55127e-06
5.55127e-06
5.55127e-06
5.55127e-06
5.55127e-06
5.55127e-06
5.55127e-06
5.55127e-06
5.55127e-06
5.55127e-06
5.55127e-06
5.55127e-06
5.55127e-06
5.55127e-06
5.55127e-06
5.55127e-06
5.55127e-06
5.55127e-06
5.55127e-06
5.55127e-06
5.55127e-06
5.55127e-06
5.55127e-06
5.55127e-06
5.55127e-06
5.55127e-06
5.55127e-06
5.55127e-06
5.55127e-06
5.55127e-06
5.55127e-06
5.55127e-06
5.55127e-06
5.55127e-06
5.55127e-06
5.55127e-06
5.55127e-06
5.55127e-06
5.55127e-06
5.55127e-06
5.55127e-06
5.55127e-06
5.55127e-06
5.55127e-06
5.55127e-06
5.55127e-06
5.55127e-06
)
;
    }
    top
    {
        type            symmetryPlane;
        value           uniform 0;
    }
    walls
    {
        type            fixedValue;
        value           uniform 0;
    }
    frontAndBackPlanes
    {
        type            empty;
        value           nonuniform 0();
    }
}


// ************************************************************************* //
