/*--------------------------------*- C++ -*----------------------------------*\
| =========                 |                                                 |
| \\      /  F ield         | OpenFOAM: The Open Source CFD Toolbox           |
|  \\    /   O peration     | Version:  2.4.x                                 |
|   \\  /    A nd           | Web:      www.OpenFOAM.org                      |
|    \\/     M anipulation  |                                                 |
\*---------------------------------------------------------------------------*/
FoamFile
{
    version     2.0;
    format      ascii;
    class       surfaceScalarField;
    location    "10.15";
    object      phib_0;
}
// * * * * * * * * * * * * * * * * * * * * * * * * * * * * * * * * * * * * * //

dimensions      [0 3 -1 0 0 0 0];

internalField   nonuniform List<scalar> 
359
(
5.09038e-14
1.2682e-13
1.94225e-13
2.56061e-13
3.17381e-13
3.78109e-13
4.37468e-13
4.9547e-13
5.52438e-13
6.08707e-13
6.6452e-13
7.20041e-13
7.75418e-13
8.30778e-13
8.86249e-13
9.41954e-13
9.98001e-13
1.05448e-12
1.11147e-12
1.16906e-12
1.2273e-12
1.28625e-12
1.34597e-12
1.4065e-12
1.46788e-12
1.53015e-12
1.59333e-12
1.65744e-12
1.72251e-12
1.78853e-12
1.85553e-12
1.92352e-12
1.99247e-12
2.06241e-12
2.13332e-12
2.2052e-12
2.27802e-12
2.35178e-12
2.42649e-12
2.50209e-12
2.57859e-12
2.65596e-12
2.73416e-12
2.8132e-12
2.89303e-12
2.97364e-12
3.055e-12
3.13705e-12
3.21977e-12
3.30318e-12
3.38719e-12
3.47179e-12
3.55694e-12
3.64261e-12
3.72874e-12
3.81535e-12
3.90234e-12
3.98971e-12
4.0774e-12
4.16533e-12
4.25354e-12
4.34194e-12
4.43054e-12
4.51926e-12
4.60807e-12
4.69691e-12
4.78576e-12
4.87456e-12
4.96327e-12
5.0518e-12
5.14018e-12
5.22836e-12
5.31626e-12
5.40388e-12
5.49117e-12
5.57811e-12
5.66462e-12
5.75066e-12
5.83618e-12
5.92114e-12
6.0055e-12
6.08922e-12
6.17229e-12
6.25467e-12
6.33633e-12
6.41724e-12
6.49736e-12
6.57665e-12
6.65505e-12
6.73254e-12
6.80907e-12
6.88462e-12
6.95916e-12
7.03268e-12
7.10515e-12
7.17657e-12
7.2469e-12
7.31614e-12
7.38425e-12
7.45122e-12
7.51703e-12
7.58167e-12
7.64514e-12
7.70743e-12
7.76855e-12
7.82848e-12
7.88724e-12
7.94482e-12
8.00123e-12
8.05647e-12
8.11056e-12
8.16349e-12
8.21529e-12
8.26596e-12
8.31553e-12
8.36402e-12
8.41147e-12
8.4579e-12
8.50334e-12
8.54778e-12
8.59119e-12
8.63349e-12
8.67451e-12
8.71404e-12
8.75177e-12
8.78737e-12
8.82054e-12
8.85107e-12
8.8789e-12
8.90424e-12
8.92756e-12
8.94963e-12
8.97151e-12
8.99453e-12
9.02006e-12
9.04864e-12
9.07832e-12
9.10357e-12
9.11723e-12
9.11656e-12
9.10557e-12
9.0299e-12
4.31777e-11
1.03725e-10
1.54573e-10
1.87411e-10
2.02877e-10
1.40195e-10
4.59865e-09
4.712e-09
4.25553e-09
3.76924e-09
3.32097e-09
2.916e-09
2.55809e-09
2.24707e-09
1.97903e-09
1.7485e-09
1.5499e-09
1.37817e-09
1.22897e-09
1.09867e-09
9.84294e-10
8.83422e-10
7.94062e-10
7.14588e-10
6.43658e-10
5.8016e-10
5.23165e-10
4.7189e-10
4.25674e-10
3.83949e-10
3.46228e-10
3.12091e-10
2.8117e-10
2.53143e-10
2.27728e-10
2.04675e-10
1.83762e-10
1.64791e-10
1.47585e-10
1.31986e-10
1.1785e-10
1.05049e-10
9.34668e-11
8.29975e-11
7.35455e-11
6.50238e-11
5.73533e-11
5.04619e-11
4.42839e-11
3.87593e-11
3.38337e-11
2.94569e-11
2.55833e-11
2.21699e-11
1.91762e-11
1.65628e-11
1.42904e-11
1.23193e-11
1.06102e-11
9.09678e-12
7.7532e-12
6.5548e-12
5.48059e-12
4.51496e-12
3.64737e-12
2.87064e-12
2.17952e-12
1.56991e-12
1.03851e-12
5.82789e-13
2.00978e-13
-1.08109e-13
-3.45609e-13
-5.1364e-13
-6.16605e-13
-6.62215e-13
-6.615e-13
-6.27497e-13
-5.73141e-13
-5.0931e-13
-4.43843e-13
-3.81542e-13
-3.24837e-13
-2.74591e-13
-2.30731e-13
-1.92803e-13
-1.60167e-13
-1.32158e-13
-1.08298e-13
-8.78995e-14
-7.07736e-14
-5.60813e-14
-4.42998e-14
-3.52046e-14
-2.04099e-14
-1.53269e-14
-8.97202e-15
-5.02345e-15
-2.42693e-15
-1.06143e-15
-2.61819e-16
6.44192e-17
1.73016e-16
2.14194e-16
1.56341e-16
1.3433e-16
7.91158e-17
5.42291e-17
3.39669e-17
5.14554e-17
1.20311e-17
1.17413e-17
1.14043e-17
1.10819e-17
1.07222e-17
1.03769e-17
1.00013e-17
9.64587e-18
9.28152e-18
8.95328e-18
8.64451e-18
8.40551e-18
8.22865e-18
8.1236e-18
8.05501e-18
8.0189e-18
8.00197e-18
7.99112e-18
7.97512e-18
7.96344e-18
7.98012e-18
7.98262e-18
7.95902e-18
7.88014e-18
7.80236e-18
7.65808e-18
7.49417e-18
7.30282e-18
7.20353e-18
7.07193e-18
6.92779e-18
6.68456e-18
6.47173e-18
6.14189e-18
5.84976e-18
5.3958e-18
5.03767e-18
4.59899e-18
4.14318e-18
3.58405e-18
3.06863e-18
2.4914e-18
1.94096e-18
1.50224e-18
1.07864e-18
9.39736e-19
8.49692e-19
8.35059e-19
7.7676e-19
7.04659e-19
6.35846e-19
5.55769e-19
5.08939e-19
4.56583e-19
4.06136e-19
3.42395e-19
2.87552e-19
2.20893e-19
1.62199e-19
9.87885e-20
4.73222e-20
-7.10714e-21
-6.12039e-20
-1.21598e-19
-1.78727e-19
-2.41783e-19
-3.06923e-19
-3.84211e-19
-4.64786e-19
-5.57424e-19
-6.55543e-19
-7.70917e-19
-9.00667e-19
-1.06294e-18
-1.28527e-18
-1.79803e-18
-2.47101e-18
-3.43659e-18
-4.46278e-18
-5.52148e-18
-6.60841e-18
-7.69259e-18
-8.78933e-18
-9.8542e-18
-1.10768e-17
-1.22054e-17
-1.33374e-17
-1.42939e-17
-1.54771e-17
-1.63319e-17
-1.72651e-17
-1.80042e-17
-1.99889e-17
-2.14519e-17
-2.2942e-17
-2.33345e-17
-2.4651e-17
-2.44143e-17
-2.41887e-17
-2.26685e-17
-2.34965e-17
-2.23548e-17
-2.10722e-17
-1.71719e-17
-1.41967e-17
-9.23892e-18
-4.87885e-18
)
;

boundaryField
{
    inandouthalf11
    {
        type            cyclic;
        value           nonuniform List<scalar> 
100
(
2.70723e-10
2.69223e-10
2.69018e-10
2.69222e-10
2.69318e-10
2.69349e-10
2.69388e-10
2.69438e-10
2.6949e-10
2.69542e-10
2.69594e-10
2.69646e-10
2.69699e-10
2.69752e-10
2.69806e-10
2.6986e-10
2.69915e-10
2.69971e-10
2.70027e-10
2.70083e-10
2.7014e-10
2.70198e-10
2.70257e-10
2.70316e-10
2.70375e-10
2.70436e-10
2.70496e-10
2.70558e-10
2.7062e-10
2.70683e-10
2.70747e-10
2.70811e-10
2.70875e-10
2.70942e-10
2.71008e-10
2.71075e-10
2.71142e-10
2.71211e-10
2.71281e-10
2.7135e-10
2.71421e-10
2.71493e-10
2.71565e-10
2.71639e-10
2.71712e-10
2.71787e-10
2.71863e-10
2.71939e-10
2.72017e-10
2.72096e-10
2.72175e-10
2.72255e-10
2.72336e-10
2.72419e-10
2.72501e-10
2.72586e-10
2.72671e-10
2.72757e-10
2.72845e-10
2.72933e-10
2.73023e-10
2.73113e-10
2.73205e-10
2.73298e-10
2.73393e-10
2.73488e-10
2.73585e-10
2.73683e-10
2.73783e-10
2.73883e-10
2.73986e-10
2.7409e-10
2.74195e-10
2.74302e-10
2.7441e-10
2.74521e-10
2.74632e-10
2.74746e-10
2.74861e-10
2.74978e-10
2.75097e-10
2.75218e-10
2.75341e-10
2.75465e-10
2.75592e-10
2.75722e-10
2.75853e-10
2.75987e-10
2.76123e-10
2.76261e-10
2.76403e-10
2.76546e-10
2.76693e-10
2.76842e-10
2.76995e-10
2.7715e-10
2.77309e-10
2.7747e-10
2.77636e-10
2.77804e-10
)
;
    }
    inandouthalf12
    {
        type            cyclic;
        value           nonuniform List<scalar> 
100
(
-2.70723e-10
-2.69223e-10
-2.69018e-10
-2.69222e-10
-2.69318e-10
-2.69349e-10
-2.69388e-10
-2.69438e-10
-2.6949e-10
-2.69542e-10
-2.69594e-10
-2.69646e-10
-2.69699e-10
-2.69752e-10
-2.69806e-10
-2.6986e-10
-2.69915e-10
-2.69971e-10
-2.70027e-10
-2.70083e-10
-2.7014e-10
-2.70198e-10
-2.70257e-10
-2.70316e-10
-2.70375e-10
-2.70436e-10
-2.70496e-10
-2.70558e-10
-2.7062e-10
-2.70683e-10
-2.70747e-10
-2.70811e-10
-2.70875e-10
-2.70942e-10
-2.71008e-10
-2.71075e-10
-2.71142e-10
-2.71211e-10
-2.71281e-10
-2.7135e-10
-2.71421e-10
-2.71493e-10
-2.71565e-10
-2.71639e-10
-2.71712e-10
-2.71787e-10
-2.71863e-10
-2.71939e-10
-2.72017e-10
-2.72096e-10
-2.72175e-10
-2.72255e-10
-2.72336e-10
-2.72419e-10
-2.72501e-10
-2.72586e-10
-2.72671e-10
-2.72757e-10
-2.72845e-10
-2.72933e-10
-2.73023e-10
-2.73113e-10
-2.73205e-10
-2.73298e-10
-2.73393e-10
-2.73488e-10
-2.73585e-10
-2.73683e-10
-2.73783e-10
-2.73883e-10
-2.73986e-10
-2.7409e-10
-2.74195e-10
-2.74302e-10
-2.7441e-10
-2.74521e-10
-2.74632e-10
-2.74746e-10
-2.74861e-10
-2.74978e-10
-2.75097e-10
-2.75218e-10
-2.75341e-10
-2.75465e-10
-2.75592e-10
-2.75722e-10
-2.75853e-10
-2.75987e-10
-2.76123e-10
-2.76261e-10
-2.76403e-10
-2.76546e-10
-2.76693e-10
-2.76842e-10
-2.76995e-10
-2.7715e-10
-2.77309e-10
-2.7747e-10
-2.77636e-10
-2.77804e-10
)
;
    }
    inandouthalf21
    {
        type            cyclic;
        value           nonuniform List<scalar> 
100
(
2.77977e-10
2.78153e-10
2.78333e-10
2.78517e-10
2.78706e-10
2.78899e-10
2.79097e-10
2.79299e-10
2.79507e-10
2.79719e-10
2.79938e-10
2.80162e-10
2.80392e-10
2.80628e-10
2.80871e-10
2.8112e-10
2.81377e-10
2.81641e-10
2.81913e-10
2.82194e-10
2.82483e-10
2.82782e-10
2.8309e-10
2.83409e-10
2.8374e-10
2.84082e-10
2.84437e-10
2.84806e-10
2.8519e-10
2.8559e-10
2.86008e-10
2.86443e-10
2.86898e-10
2.87378e-10
2.87889e-10
2.8843e-10
2.89e-10
2.89607e-10
2.90284e-10
2.91062e-10
2.91909e-10
2.92891e-10
3.01774e-10
3.04786e-10
3.09512e-10
3.14285e-10
3.18222e-10
3.22139e-10
-1.91228e-10
-6.14858e-08
-1.09057e-07
-1.41467e-07
-1.66362e-07
-1.8699e-07
-2.04917e-07
-2.20972e-07
-2.35638e-07
-2.49221e-07
-2.61929e-07
-2.73912e-07
-2.8528e-07
-2.9612e-07
-3.06499e-07
-3.16473e-07
-3.26086e-07
-3.35376e-07
-3.44374e-07
-3.53105e-07
-3.61594e-07
-3.69859e-07
-3.77917e-07
-3.85783e-07
-3.93469e-07
-4.00988e-07
-4.08349e-07
-4.15561e-07
-4.22633e-07
-4.29572e-07
-4.36383e-07
-4.43073e-07
-4.49648e-07
-4.56112e-07
-4.62469e-07
-4.68725e-07
-4.74881e-07
-4.80942e-07
-4.8691e-07
-4.9279e-07
-4.98582e-07
-5.0429e-07
-5.09915e-07
-5.1546e-07
-5.20927e-07
-5.26317e-07
-5.31632e-07
-5.36873e-07
-5.42041e-07
-5.47138e-07
-5.52165e-07
-5.57122e-07
)
;
    }
    inandouthalf22
    {
        type            cyclic;
        value           nonuniform List<scalar> 
100
(
-2.77977e-10
-2.78153e-10
-2.78333e-10
-2.78517e-10
-2.78706e-10
-2.78899e-10
-2.79097e-10
-2.79299e-10
-2.79507e-10
-2.79719e-10
-2.79938e-10
-2.80162e-10
-2.80392e-10
-2.80628e-10
-2.80871e-10
-2.8112e-10
-2.81377e-10
-2.81641e-10
-2.81913e-10
-2.82194e-10
-2.82483e-10
-2.82782e-10
-2.8309e-10
-2.83409e-10
-2.8374e-10
-2.84082e-10
-2.84437e-10
-2.84806e-10
-2.8519e-10
-2.8559e-10
-2.86008e-10
-2.86443e-10
-2.86898e-10
-2.87378e-10
-2.87889e-10
-2.8843e-10
-2.89e-10
-2.89607e-10
-2.90284e-10
-2.91062e-10
-2.91909e-10
-2.92891e-10
-3.01774e-10
-3.04786e-10
-3.09512e-10
-3.14285e-10
-3.18222e-10
-3.22139e-10
1.91228e-10
6.14858e-08
1.09057e-07
1.41467e-07
1.66362e-07
1.8699e-07
2.04917e-07
2.20972e-07
2.35638e-07
2.49221e-07
2.61929e-07
2.73912e-07
2.8528e-07
2.9612e-07
3.06499e-07
3.16473e-07
3.26086e-07
3.35376e-07
3.44374e-07
3.53105e-07
3.61594e-07
3.69859e-07
3.77917e-07
3.85783e-07
3.93469e-07
4.00988e-07
4.08349e-07
4.15561e-07
4.22633e-07
4.29572e-07
4.36383e-07
4.43073e-07
4.49648e-07
4.56112e-07
4.62469e-07
4.68725e-07
4.74881e-07
4.80942e-07
4.8691e-07
4.9279e-07
4.98582e-07
5.0429e-07
5.09915e-07
5.1546e-07
5.20927e-07
5.26317e-07
5.31632e-07
5.36873e-07
5.42041e-07
5.47138e-07
5.52165e-07
5.57122e-07
)
;
    }
    inandouthalf31
    {
        type            cyclic;
        value           nonuniform List<scalar> 
110
(
-5.62012e-07
-5.78388e-07
-5.95228e-07
-6.12542e-07
-6.30343e-07
-6.48641e-07
-6.67449e-07
-6.86778e-07
-7.06639e-07
-7.27043e-07
-7.48001e-07
-7.69523e-07
-7.91619e-07
-8.14298e-07
-8.37568e-07
-8.61437e-07
-8.85911e-07
-9.10993e-07
-9.36687e-07
-9.62992e-07
-9.89908e-07
-1.01743e-06
-1.04555e-06
-1.07425e-06
-1.10353e-06
-1.13335e-06
-1.1637e-06
-1.19454e-06
-1.22584e-06
-1.25755e-06
-1.28962e-06
-1.32201e-06
-1.35466e-06
-1.38752e-06
-1.42053e-06
-1.45365e-06
-1.48686e-06
-1.52014e-06
-1.55348e-06
-1.5869e-06
-1.62042e-06
-1.65408e-06
-1.6879e-06
-1.72194e-06
-1.75622e-06
-1.79079e-06
-1.82567e-06
-1.8609e-06
-1.89649e-06
-1.93248e-06
-1.96889e-06
-2.00574e-06
-2.04306e-06
-2.08086e-06
-2.11919e-06
-2.15805e-06
-2.19749e-06
-2.23753e-06
-2.27822e-06
-2.31958e-06
-2.36167e-06
-2.40453e-06
-2.44821e-06
-2.49279e-06
-2.53833e-06
-2.5849e-06
-2.6326e-06
-2.68154e-06
-2.73182e-06
-2.78358e-06
-2.83699e-06
-2.89222e-06
-2.94989e-06
-3.00965e-06
-3.07074e-06
-3.13307e-06
-3.19666e-06
-3.26154e-06
-3.32774e-06
-3.39529e-06
-3.4642e-06
-3.53452e-06
-3.60626e-06
-3.67946e-06
-3.75414e-06
-3.83034e-06
-3.90808e-06
-3.98741e-06
-4.06834e-06
-4.15092e-06
-4.23517e-06
-4.32113e-06
-4.40884e-06
-4.49833e-06
-4.58963e-06
-4.68279e-06
-4.77784e-06
-4.87482e-06
-4.97376e-06
-5.07472e-06
-5.17772e-06
-5.28281e-06
-5.39004e-06
-5.49944e-06
-5.61107e-06
-5.72496e-06
-5.84116e-06
-5.95972e-06
-6.08069e-06
-6.20411e-06
)
;
    }
    inandouthalf32
    {
        type            cyclic;
        value           nonuniform List<scalar> 
110
(
5.62012e-07
5.78388e-07
5.95228e-07
6.12542e-07
6.30343e-07
6.48641e-07
6.67449e-07
6.86778e-07
7.06639e-07
7.27043e-07
7.48001e-07
7.69523e-07
7.91619e-07
8.14298e-07
8.37568e-07
8.61437e-07
8.85911e-07
9.10993e-07
9.36687e-07
9.62992e-07
9.89908e-07
1.01743e-06
1.04555e-06
1.07425e-06
1.10353e-06
1.13335e-06
1.1637e-06
1.19454e-06
1.22584e-06
1.25755e-06
1.28962e-06
1.32201e-06
1.35466e-06
1.38752e-06
1.42053e-06
1.45365e-06
1.48686e-06
1.52014e-06
1.55348e-06
1.5869e-06
1.62042e-06
1.65408e-06
1.6879e-06
1.72194e-06
1.75622e-06
1.79079e-06
1.82567e-06
1.8609e-06
1.89649e-06
1.93248e-06
1.96889e-06
2.00574e-06
2.04306e-06
2.08086e-06
2.11919e-06
2.15805e-06
2.19749e-06
2.23753e-06
2.27822e-06
2.31958e-06
2.36167e-06
2.40453e-06
2.44821e-06
2.49279e-06
2.53833e-06
2.5849e-06
2.6326e-06
2.68154e-06
2.73182e-06
2.78358e-06
2.83699e-06
2.89222e-06
2.94989e-06
3.00965e-06
3.07074e-06
3.13307e-06
3.19666e-06
3.26154e-06
3.32774e-06
3.39529e-06
3.4642e-06
3.53452e-06
3.60626e-06
3.67946e-06
3.75414e-06
3.83034e-06
3.90808e-06
3.98741e-06
4.06834e-06
4.15092e-06
4.23517e-06
4.32113e-06
4.40884e-06
4.49833e-06
4.58963e-06
4.68279e-06
4.77784e-06
4.87482e-06
4.97376e-06
5.07472e-06
5.17772e-06
5.28281e-06
5.39004e-06
5.49944e-06
5.61107e-06
5.72496e-06
5.84116e-06
5.95972e-06
6.08069e-06
6.20411e-06
)
;
    }
    inandouthalf41
    {
        type            cyclic;
        value           nonuniform List<scalar> 
50
(
-5.55331e-06
-5.55331e-06
-5.55331e-06
-5.55331e-06
-5.55331e-06
-5.55331e-06
-5.55331e-06
-5.55331e-06
-5.55331e-06
-5.55331e-06
-5.55331e-06
-5.55331e-06
-5.55331e-06
-5.55331e-06
-5.55331e-06
-5.55331e-06
-5.55331e-06
-5.55331e-06
-5.55331e-06
-5.55331e-06
-5.55331e-06
-5.55331e-06
-5.55331e-06
-5.55331e-06
-5.55331e-06
-5.55331e-06
-5.55331e-06
-5.55331e-06
-5.55331e-06
-5.55331e-06
-5.55331e-06
-5.55331e-06
-5.55331e-06
-5.55331e-06
-5.55331e-06
-5.55331e-06
-5.55331e-06
-5.55331e-06
-5.55331e-06
-5.55331e-06
-5.55331e-06
-5.55331e-06
-5.55331e-06
-5.55331e-06
-5.55331e-06
-5.55331e-06
-5.55331e-06
-5.55331e-06
-5.55331e-06
-5.55331e-06
)
;
    }
    inandouthalf42
    {
        type            cyclic;
        value           nonuniform List<scalar> 
50
(
5.55331e-06
5.55331e-06
5.55331e-06
5.55331e-06
5.55331e-06
5.55331e-06
5.55331e-06
5.55331e-06
5.55331e-06
5.55331e-06
5.55331e-06
5.55331e-06
5.55331e-06
5.55331e-06
5.55331e-06
5.55331e-06
5.55331e-06
5.55331e-06
5.55331e-06
5.55331e-06
5.55331e-06
5.55331e-06
5.55331e-06
5.55331e-06
5.55331e-06
5.55331e-06
5.55331e-06
5.55331e-06
5.55331e-06
5.55331e-06
5.55331e-06
5.55331e-06
5.55331e-06
5.55331e-06
5.55331e-06
5.55331e-06
5.55331e-06
5.55331e-06
5.55331e-06
5.55331e-06
5.55331e-06
5.55331e-06
5.55331e-06
5.55331e-06
5.55331e-06
5.55331e-06
5.55331e-06
5.55331e-06
5.55331e-06
5.55331e-06
)
;
    }
    top
    {
        type            symmetryPlane;
        value           uniform 0;
    }
    walls
    {
        type            fixedValue;
        value           uniform 0;
    }
    frontAndBackPlanes
    {
        type            empty;
        value           nonuniform 0();
    }
}


// ************************************************************************* //
