/*--------------------------------*- C++ -*----------------------------------*\
| =========                 |                                                 |
| \\      /  F ield         | OpenFOAM: The Open Source CFD Toolbox           |
|  \\    /   O peration     | Version:  2.4.x                                 |
|   \\  /    A nd           | Web:      www.OpenFOAM.org                      |
|    \\/     M anipulation  |                                                 |
\*---------------------------------------------------------------------------*/
FoamFile
{
    version     2.0;
    format      ascii;
    class       volScalarField;
    location    "10.15";
    object      Theta_0;
}
// * * * * * * * * * * * * * * * * * * * * * * * * * * * * * * * * * * * * * //

dimensions      [0 2 -2 0 0 0 0];

internalField   nonuniform List<scalar> 
360
(
6.66141e-21
6.66149e-21
6.66146e-21
6.66145e-21
6.66145e-21
6.66145e-21
6.66144e-21
6.66144e-21
6.66144e-21
6.66144e-21
6.66144e-21
6.66144e-21
6.66144e-21
6.66143e-21
6.66143e-21
6.66143e-21
6.66143e-21
6.66143e-21
6.66143e-21
6.66144e-21
6.66144e-21
6.66144e-21
6.66144e-21
6.66144e-21
6.66144e-21
6.66144e-21
6.66144e-21
6.66144e-21
6.66144e-21
6.66144e-21
6.66145e-21
6.66145e-21
6.66145e-21
6.66145e-21
6.66145e-21
6.66145e-21
6.66145e-21
6.66145e-21
6.66146e-21
6.66146e-21
6.66146e-21
6.66146e-21
6.66146e-21
6.66146e-21
6.66146e-21
6.66146e-21
6.66146e-21
6.66147e-21
6.66147e-21
6.66147e-21
6.66147e-21
6.66147e-21
6.66147e-21
6.66147e-21
6.66147e-21
6.66147e-21
6.66147e-21
6.66147e-21
6.66147e-21
6.66147e-21
6.66147e-21
6.66147e-21
6.66147e-21
6.66147e-21
6.66147e-21
6.66147e-21
6.66147e-21
6.66147e-21
6.66146e-21
6.66146e-21
6.66146e-21
6.66146e-21
6.66146e-21
6.66146e-21
6.66146e-21
6.66145e-21
6.66145e-21
6.66145e-21
6.66145e-21
6.66145e-21
6.66144e-21
6.66144e-21
6.66144e-21
6.66143e-21
6.66143e-21
6.66143e-21
6.66143e-21
6.66142e-21
6.66142e-21
6.66142e-21
6.66141e-21
6.66141e-21
6.66141e-21
6.6614e-21
6.6614e-21
6.6614e-21
6.66139e-21
6.66139e-21
6.66139e-21
6.66138e-21
6.66138e-21
6.66137e-21
6.66137e-21
6.66137e-21
6.66136e-21
6.66136e-21
6.66136e-21
6.66135e-21
6.66135e-21
6.66134e-21
6.66134e-21
6.66134e-21
6.66133e-21
6.66133e-21
6.66133e-21
6.66132e-21
6.66132e-21
6.66131e-21
6.66131e-21
6.66131e-21
6.6613e-21
6.6613e-21
6.66129e-21
6.66129e-21
6.66128e-21
6.66129e-21
1.6615e-20
5.62236e-20
1.88061e-19
6.08901e-19
1.91224e-18
5.84938e-18
1.75135e-17
5.16315e-17
1.50992e-16
4.41944e-16
1.31062e-15
4.02238e-15
1.324e-14
4.90006e-14
2.14815e-13
1.18921e-12
9.48683e-12
8.68438e-11
9.29729e-10
1.4911e-08
4.64776e-07
1.17767e-05
0.000212886
0.00100182
0.00166482
0.00216592
0.00258789
0.00295686
0.00328423
0.00357745
0.00384179
0.00408131
0.00429908
0.00449763
0.00467899
0.0048448
0.00499649
0.00513526
0.0052622
0.00537815
0.00548395
0.00558025
0.00566769
0.00574679
0.00581808
0.00588198
0.00593889
0.0059892
0.00603323
0.00607129
0.00610367
0.00613065
0.00615246
0.00616934
0.00618149
0.0061891
0.00619236
0.00619144
0.00618649
0.00617767
0.00616509
0.0061489
0.00612921
0.00610613
0.00607976
0.00605022
0.00601758
0.00598195
0.00594341
0.00590204
0.00585794
0.00581118
0.00576184
0.00571
0.00565575
0.0055986
0.00553794
0.00547368
0.00540577
0.00533415
0.00525879
0.00517966
0.00509674
0.00501004
0.00491955
0.00482527
0.0047272
0.00462535
0.00451968
0.00441018
0.00429677
0.00417939
0.00405789
0.0039321
0.00380179
0.0036667
0.00352647
0.00338072
0.00322897
0.00307063
0.00290503
0.00273132
0.00254843
0.002355
0.00214926
0.00192876
0.00168997
0.00142741
0.00113144
0.000781161
0
0
0
0
0
0
0
0
0
0
0
0
0
0
0
0
0
0
0
0
0
0
0
0
0
0
0
0
0
0
0
0
0
0
0
0
0
0
0
0
0
0
0
0
0
0
0
0
0
0
0
0
0
0
0
0
0
0
0
0
0
0
0
0
0
0
0
0
0
0
0
0
0
0
0
0
0
0
0
0
0
0
0
0
0
0
0
0
0
0
0
0
0
0
0
0
0
0
0
0
0
0
0
0
0
0
0
0
0
0
0
0
0
0
0
0
0
0
0
0
0
0
0
0
)
;

boundaryField
{
    inandouthalf11
    {
        type            cyclic;
    }
    inandouthalf12
    {
        type            cyclic;
    }
    inandouthalf21
    {
        type            cyclic;
    }
    inandouthalf22
    {
        type            cyclic;
    }
    inandouthalf31
    {
        type            cyclic;
    }
    inandouthalf32
    {
        type            cyclic;
    }
    inandouthalf41
    {
        type            cyclic;
    }
    inandouthalf42
    {
        type            cyclic;
    }
    top
    {
        type            symmetryPlane;
    }
    walls
    {
        type            zeroGradient;
    }
    frontAndBackPlanes
    {
        type            empty;
    }
}


// ************************************************************************* //
