/*--------------------------------*- C++ -*----------------------------------*\
| =========                 |                                                 |
| \\      /  F ield         | OpenFOAM: The Open Source CFD Toolbox           |
|  \\    /   O peration     | Version:  2.4.x                                 |
|   \\  /    A nd           | Web:      www.OpenFOAM.org                      |
|    \\/     M anipulation  |                                                 |
\*---------------------------------------------------------------------------*/
FoamFile
{
    version     2.0;
    format      ascii;
    class       volVectorField;
    location    "10.15";
    object      Ua;
}
// * * * * * * * * * * * * * * * * * * * * * * * * * * * * * * * * * * * * * //

dimensions      [0 1 -1 0 0 0 0];

internalField   nonuniform List<vector> 
360
(
(-4.96473e-33 -1.04673e-31 0)
(-9.77306e-10 -1.49243e-08 0)
(-1.95819e-09 -2.62436e-08 0)
(-2.77578e-09 -3.57736e-08 0)
(-3.55347e-09 -4.54495e-08 0)
(-4.31285e-09 -5.52241e-08 0)
(-5.03748e-09 -6.47806e-08 0)
(-5.72337e-09 -7.40838e-08 0)
(-6.37508e-09 -8.31989e-08 0)
(-6.99755e-09 -9.21834e-08 0)
(-7.59452e-09 -1.01081e-07 0)
(-8.16863e-09 -1.09923e-07 0)
(-8.72185e-09 -1.18732e-07 0)
(-9.2558e-09 -1.27531e-07 0)
(-9.77187e-09 -1.36339e-07 0)
(-1.02713e-08 -1.45177e-07 0)
(-1.0755e-08 -1.54062e-07 0)
(-1.12238e-08 -1.63012e-07 0)
(-1.16782e-08 -1.72039e-07 0)
(-1.21185e-08 -1.81157e-07 0)
(-1.2545e-08 -1.90375e-07 0)
(-1.29576e-08 -1.99705e-07 0)
(-1.33564e-08 -2.09154e-07 0)
(-1.37412e-08 -2.18732e-07 0)
(-1.41117e-08 -2.28445e-07 0)
(-1.44677e-08 -2.38298e-07 0)
(-1.48085e-08 -2.48296e-07 0)
(-1.51338e-08 -2.58444e-07 0)
(-1.5443e-08 -2.68745e-07 0)
(-1.57355e-08 -2.79201e-07 0)
(-1.60105e-08 -2.89814e-07 0)
(-1.62675e-08 -3.00585e-07 0)
(-1.65057e-08 -3.11515e-07 0)
(-1.67243e-08 -3.22603e-07 0)
(-1.69226e-08 -3.33852e-07 0)
(-1.70997e-08 -3.45256e-07 0)
(-1.72549e-08 -3.56817e-07 0)
(-1.73873e-08 -3.68531e-07 0)
(-1.74962e-08 -3.80399e-07 0)
(-1.75808e-08 -3.92416e-07 0)
(-1.76402e-08 -4.0458e-07 0)
(-1.76736e-08 -4.1689e-07 0)
(-1.76802e-08 -4.29338e-07 0)
(-1.76593e-08 -4.41923e-07 0)
(-1.76101e-08 -4.54643e-07 0)
(-1.75318e-08 -4.67492e-07 0)
(-1.74238e-08 -4.80468e-07 0)
(-1.72852e-08 -4.93562e-07 0)
(-1.71155e-08 -5.06769e-07 0)
(-1.69139e-08 -5.2009e-07 0)
(-1.66798e-08 -5.33519e-07 0)
(-1.64126e-08 -5.47047e-07 0)
(-1.61117e-08 -5.6067e-07 0)
(-1.57765e-08 -5.74385e-07 0)
(-1.54065e-08 -5.88183e-07 0)
(-1.50012e-08 -6.02062e-07 0)
(-1.45601e-08 -6.16014e-07 0)
(-1.40829e-08 -6.30033e-07 0)
(-1.35691e-08 -6.44114e-07 0)
(-1.30185e-08 -6.58245e-07 0)
(-1.24307e-08 -6.72424e-07 0)
(-1.18054e-08 -6.86647e-07 0)
(-1.11423e-08 -7.00906e-07 0)
(-1.04411e-08 -7.15198e-07 0)
(-9.70173e-09 -7.29514e-07 0)
(-8.92416e-09 -7.43845e-07 0)
(-8.10826e-09 -7.58187e-07 0)
(-7.25398e-09 -7.72533e-07 0)
(-6.36145e-09 -7.86875e-07 0)
(-5.4309e-09 -8.01201e-07 0)
(-4.4623e-09 -8.15509e-07 0)
(-3.45551e-09 -8.29797e-07 0)
(-2.41088e-09 -8.44055e-07 0)
(-1.32866e-09 -8.58274e-07 0)
(-2.08866e-10 -8.72453e-07 0)
(9.48351e-10 -8.86588e-07 0)
(2.14251e-09 -9.00668e-07 0)
(3.37297e-09 -9.14684e-07 0)
(4.63924e-09 -9.28629e-07 0)
(5.94086e-09 -9.42497e-07 0)
(7.27722e-09 -9.56281e-07 0)
(8.64781e-09 -9.69974e-07 0)
(1.00522e-08 -9.83573e-07 0)
(1.14901e-08 -9.97075e-07 0)
(1.2961e-08 -1.01047e-06 0)
(1.44643e-08 -1.02376e-06 0)
(1.59994e-08 -1.03694e-06 0)
(1.75654e-08 -1.05e-06 0)
(1.91616e-08 -1.06293e-06 0)
(2.07868e-08 -1.07573e-06 0)
(2.24403e-08 -1.08839e-06 0)
(2.41212e-08 -1.1009e-06 0)
(2.58288e-08 -1.11327e-06 0)
(2.75624e-08 -1.12549e-06 0)
(2.93217e-08 -1.13755e-06 0)
(3.11059e-08 -1.14945e-06 0)
(3.29145e-08 -1.1612e-06 0)
(3.47468e-08 -1.17278e-06 0)
(3.66022e-08 -1.1842e-06 0)
(3.848e-08 -1.19545e-06 0)
(4.03797e-08 -1.20653e-06 0)
(4.23007e-08 -1.21743e-06 0)
(4.42429e-08 -1.22817e-06 0)
(4.62061e-08 -1.23873e-06 0)
(4.81902e-08 -1.24911e-06 0)
(5.01954e-08 -1.25932e-06 0)
(5.22219e-08 -1.26936e-06 0)
(5.42701e-08 -1.27923e-06 0)
(5.63405e-08 -1.28892e-06 0)
(5.84338e-08 -1.29845e-06 0)
(6.05507e-08 -1.3078e-06 0)
(6.26925e-08 -1.31699e-06 0)
(6.48603e-08 -1.32602e-06 0)
(6.70561e-08 -1.33488e-06 0)
(6.92819e-08 -1.34359e-06 0)
(7.15405e-08 -1.35214e-06 0)
(7.38352e-08 -1.36054e-06 0)
(7.61698e-08 -1.3688e-06 0)
(7.85485e-08 -1.37693e-06 0)
(8.09754e-08 -1.38492e-06 0)
(8.34538e-08 -1.39278e-06 0)
(8.59847e-08 -1.4005e-06 0)
(8.85663e-08 -1.40806e-06 0)
(9.11915e-08 -1.41543e-06 0)
(9.38479e-08 -1.42256e-06 0)
(9.65171e-08 -1.42942e-06 0)
(9.91773e-08 -1.43594e-06 0)
(1.01807e-07 -1.44208e-06 0)
(1.04393e-07 -1.44783e-06 0)
(1.06934e-07 -1.45318e-06 0)
(1.09451e-07 -1.45821e-06 0)
(1.11997e-07 -1.463e-06 0)
(1.14664e-07 -1.46772e-06 0)
(1.176e-07 -1.47258e-06 0)
(1.21004e-07 -1.47784e-06 0)
(1.2509e-07 -1.48369e-06 0)
(1.29935e-07 -1.49011e-06 0)
(1.35193e-07 -1.49652e-06 0)
(1.39885e-07 -1.50178e-06 0)
(1.42822e-07 -1.50482e-06 0)
(1.438e-07 -1.50575e-06 0)
(1.43918e-07 -1.50584e-06 0)
(1.43933e-07 -1.50593e-06 0)
(-2.56133e-06 -1.21929e-05 0)
(-5.50554e-06 -2.26461e-05 0)
(-7.13064e-06 -2.96839e-05 0)
(-7.59043e-06 -3.33593e-05 0)
(-7.35747e-06 -3.48295e-05 0)
(-5.26331e-06 -3.62054e-05 0)
(0.0573876 -0.00494064 0)
(0.108671 -0.00678875 0)
(0.143659 -0.00914255 0)
(0.169934 -0.0109972 0)
(0.191355 -0.0123826 0)
(0.209775 -0.0133448 0)
(0.226155 -0.0139739 0)
(0.241046 -0.0143608 0)
(0.254793 -0.0145769 0)
(0.267623 -0.0146723 0)
(0.279698 -0.014681 0)
(0.291138 -0.0146258 0)
(0.302034 -0.0145222 0)
(0.312458 -0.0143808 0)
(0.322465 -0.0142093 0)
(0.332104 -0.0140131 0)
(0.341413 -0.0137962 0)
(0.350423 -0.0135618 0)
(0.359162 -0.0133124 0)
(0.367652 -0.0130501 0)
(0.375915 -0.0127765 0)
(0.383967 -0.0124932 0)
(0.391822 -0.0122013 0)
(0.399495 -0.011902 0)
(0.406997 -0.0115964 0)
(0.414338 -0.0112851 0)
(0.421527 -0.0109691 0)
(0.428573 -0.0106489 0)
(0.435482 -0.0103254 0)
(0.442261 -0.00999889 0)
(0.448915 -0.00967009 0)
(0.45545 -0.00933946 0)
(0.461869 -0.0090075 0)
(0.468176 -0.00867469 0)
(0.474374 -0.00834151 0)
(0.480466 -0.00800844 0)
(0.486454 -0.00767602 0)
(0.492339 -0.00734478 0)
(0.498122 -0.00701533 0)
(0.503802 -0.00668836 0)
(0.509382 -0.00636461 0)
(0.514859 -0.00604498 0)
(0.520232 -0.00573049 0)
(0.525501 -0.00542237 0)
(0.530664 -0.00512206 0)
(0.535719 -0.00483119 0)
(0.540662 -0.00455156 0)
(0.545493 -0.00428494 0)
(0.550207 -0.00403284 0)
(0.554803 -0.00379615 0)
(0.559277 -0.00357479 0)
(0.563626 -0.00336735 0)
(0.567891 -0.00316905 0)
(0.572111 -0.00297407 0)
(0.57628 -0.00277725 0)
(0.580394 -0.00257299 0)
(0.584449 -0.00235635 0)
(0.588439 -0.00212395 0)
(0.592361 -0.00187403 0)
(0.596207 -0.00160613 0)
(0.599971 -0.00132065 0)
(0.603648 -0.0010188 0)
(0.607229 -0.000702632 0)
(0.610709 -0.00037532 0)
(0.614079 -4.14228e-05 0)
(0.617334 0.000292894 0)
(0.620465 0.000619902 0)
(0.623469 0.00093081 0)
(0.62634 0.00121678 0)
(0.629077 0.00147031 0)
(0.631678 0.00168646 0)
(0.634144 0.00186357 0)
(0.636477 0.0020031 0)
(0.638679 0.00210879 0)
(0.640753 0.0021856 0)
(0.642701 0.00223874 0)
(0.644526 0.00227292 0)
(0.646229 0.00229228 0)
(0.647812 0.00229959 0)
(0.649275 0.00229752 0)
(0.650619 0.00228653 0)
(0.651843 0.00226845 0)
(0.652947 0.00224108 0)
(0.653923 0.00220633 0)
(0.654771 0.00215714 0)
(0.655469 0.00209678 0)
(0.656009 0.0020027 0)
(0.65657 0.00185781 0)
(0.729585 0.000238717 0)
(0.731327 0.00175525 0)
(0.732171 0.000544809 0)
(0.732715 0.00105101 0)
(0.733026 4.74392e-05 0)
(0.733098 0.000942633 0)
(0.732978 -0.000804397 0)
(0.732675 0.000860005 0)
(0.732202 -0.00156881 0)
(0.731606 0.00124381 0)
(0.730832 -0.00273867 0)
(0.729999 0.00231407 0)
(0.728955 -0.00438664 0)
(0.727915 0.00418621 0)
(0.726218 -0.00725822 0)
(0.723374 -0.0370964 0)
(0.722052 -0.039569 0)
(0.720656 -0.0395015 0)
(0.719278 -0.039507 0)
(0.717854 -0.0395077 0)
(0.716399 -0.0395087 0)
(0.714921 -0.0395097 0)
(0.71343 -0.0395105 0)
(0.711936 -0.0395111 0)
(0.710451 -0.0395115 0)
(0.708985 -0.0395117 0)
(0.707552 -0.0395115 0)
(0.706165 -0.039511 0)
(0.704839 -0.0395101 0)
(0.703591 -0.0395087 0)
(0.70244 -0.0395068 0)
(0.701405 -0.0395042 0)
(0.700511 -0.0395008 0)
(0.699776 -0.0394961 0)
(0.699262 -0.0394872 0)
(0.699067 -0.0394777 0)
(0.699048 -0.0394737 0)
(0.699048 -0.0394733 0)
(0.699048 -0.0394733 0)
(0.699048 -0.0394733 0)
(0.699048 -0.0394733 0)
(0.699048 -0.0394733 0)
(0.699048 -0.0394733 0)
(0.699048 -0.0394733 0)
(0.699048 -0.0394733 0)
(0.699048 -0.0394733 0)
(0.699048 -0.0394733 0)
(0.699048 -0.0394733 0)
(0.699048 -0.0394733 0)
(0.699048 -0.0394733 0)
(0.699048 -0.0394733 0)
(0.699048 -0.0394733 0)
(0.699048 -0.0394733 0)
(0.699048 -0.0394733 0)
(0.699048 -0.0394733 0)
(0.699048 -0.0394733 0)
(0.699048 -0.0394733 0)
(0.699048 -0.0394733 0)
(0.699048 -0.0394733 0)
(0.699048 -0.0394733 0)
(0.699048 -0.0394733 0)
(0.699048 -0.0394733 0)
(0.699048 -0.0394733 0)
(0.699048 -0.0394733 0)
(0.699048 -0.0394733 0)
(0.699048 -0.0394733 0)
(0.699048 -0.0394733 0)
(0.699048 -0.0394733 0)
(0.699048 -0.0394733 0)
(0.699048 -0.0394733 0)
(0.699048 -0.0394733 0)
(0.699048 -0.0394733 0)
(0.699048 -0.0394733 0)
(0.699048 -0.0394733 0)
(0.699048 -0.0394733 0)
(0.699048 -0.0394733 0)
(0.699048 -0.0394733 0)
(0.699048 -0.0394733 0)
(0.699048 -0.0394733 0)
(0.699048 -0.0394733 0)
(0.699048 -0.0394733 0)
(0.699048 -0.0394733 0)
(0.699048 -0.0394733 0)
(0.699048 -0.0394733 0)
(0.699048 -0.0394733 0)
(0.699048 -0.0394733 0)
(0.699048 -0.0394733 0)
(0.699048 -0.0394733 0)
(0.699048 -0.0394733 0)
(0.699048 -0.0394733 0)
(0.699048 -0.0394733 0)
(0.699048 -0.0394733 0)
(0.699048 -0.0394733 0)
(0.699048 -0.0394733 0)
(0.699048 -0.0394733 0)
(0.699048 -0.0394733 0)
(0.699048 -0.0394733 0)
(0.699048 -0.0394733 0)
(0.699048 -0.0394733 0)
(0.699048 -0.0394733 0)
(0.699048 -0.0394733 0)
(0.699048 -0.0394733 0)
(0.699048 -0.0394733 0)
(0.699048 -0.0394733 0)
(0.699048 -0.0394733 0)
(0.699048 -0.0394733 0)
(0.699048 -0.0394733 0)
(0.699048 -0.0394733 0)
(0.699048 -0.0394733 0)
(0.699048 -0.0394733 0)
(0.699048 -0.0394733 0)
(0.699048 -0.0394733 0)
(0.699048 -0.0394733 0)
(0.699048 -0.0394733 0)
(0.699048 -0.0394733 0)
(0.699048 -0.0394733 0)
(0.699048 -0.0394733 0)
(0.699048 -0.0394733 0)
(0.699048 -0.0394733 0)
(0.699048 -0.0394731 0)
(0.699049 -0.0394646 0)
(0.699084 -0.0391182 0)
(0.699887 -0.0223507 0)
)
;

boundaryField
{
    inandouthalf11
    {
        type            cyclic;
    }
    inandouthalf12
    {
        type            cyclic;
    }
    inandouthalf21
    {
        type            cyclic;
    }
    inandouthalf22
    {
        type            cyclic;
    }
    inandouthalf31
    {
        type            cyclic;
    }
    inandouthalf32
    {
        type            cyclic;
    }
    inandouthalf41
    {
        type            cyclic;
    }
    inandouthalf42
    {
        type            cyclic;
    }
    top
    {
        type            symmetryPlane;
    }
    walls
    {
        type            fixedValue;
        value           uniform (0 0 0);
    }
    frontAndBackPlanes
    {
        type            empty;
    }
}


// ************************************************************************* //
