/*--------------------------------*- C++ -*----------------------------------*\
| =========                 |                                                 |
| \\      /  F ield         | OpenFOAM: The Open Source CFD Toolbox           |
|  \\    /   O peration     | Version:  2.4.x                                 |
|   \\  /    A nd           | Web:      www.OpenFOAM.org                      |
|    \\/     M anipulation  |                                                 |
\*---------------------------------------------------------------------------*/
FoamFile
{
    version     2.0;
    format      ascii;
    class       volScalarField;
    location    "2.65";
    object      alpha_0;
}
// * * * * * * * * * * * * * * * * * * * * * * * * * * * * * * * * * * * * * //

dimensions      [0 0 0 0 0 0 0];

internalField   nonuniform List<scalar> 
360
(
0.609996
0.609996
0.610016
0.610082
0.610153
0.610177
0.610154
0.610112
0.610074
0.610047
0.610032
0.610025
0.610021
0.610018
0.610017
0.610016
0.610015
0.610014
0.610013
0.610012
0.610011
0.610009
0.610007
0.610005
0.610003
0.610001
0.61
0.609997
0.609994
0.609991
0.609988
0.609985
0.609982
0.609977
0.609974
0.609969
0.609964
0.609959
0.609953
0.609947
0.60994
0.609932
0.609925
0.609916
0.609907
0.609897
0.609886
0.609876
0.609863
0.609849
0.609835
0.60982
0.609804
0.609786
0.609767
0.609747
0.609726
0.609703
0.609679
0.609655
0.609628
0.609602
0.609574
0.609545
0.609516
0.609487
0.609456
0.609424
0.609391
0.609357
0.609321
0.609283
0.609244
0.609204
0.609163
0.609121
0.609079
0.609036
0.608992
0.608947
0.608902
0.608855
0.608807
0.608758
0.608707
0.608655
0.608602
0.608547
0.608492
0.608436
0.608378
0.60832
0.60826
0.608199
0.608137
0.608073
0.608008
0.607941
0.607873
0.607803
0.607731
0.607658
0.607583
0.607507
0.607428
0.607348
0.607266
0.607181
0.607095
0.607006
0.606915
0.606822
0.606725
0.606627
0.606525
0.606421
0.606313
0.606203
0.606088
0.60597
0.605849
0.605723
0.605593
0.605458
0.605319
0.605174
0.605024
0.604867
0.604704
0.604534
0.604357
0.604172
0.60398
0.603778
0.603565
0.603341
0.603109
0.602867
0.602602
0.602301
0.601979
0.60168
0.601318
0.600836
0.60024
0.599363
0.592391
0.573076
0.344536
0.214592
0.15497
0.120051
0.0969537
0.0804113
0.0679243
0.0581437
0.0502706
0.0437967
0.0383835
0.0337948
0.029861
0.0264571
0.023488
0.0208806
0.0185771
0.016532
0.014708
0.013075
0.0116078
0.0102853
0.00908959
0.00800528
0.00701945
0.0061222
0.00530857
0.00458379
0.00395928
0.00342262
0.00295579
0.00254746
0.00218832
0.00186997
0.00158359
0.00131907
0.00106661
0.000822388
0.000594405
0.000400467
0.000255129
0.000159339
0.00010208
6.93683e-05
5.04597e-05
3.88622e-05
3.12123e-05
2.57217e-05
2.15497e-05
1.82807e-05
1.56773e-05
1.35694e-05
1.17955e-05
1.02401e-05
8.92045e-06
7.84825e-06
6.90479e-06
5.98419e-06
5.20335e-06
4.61281e-06
4.054e-06
3.50193e-06
3.05955e-06
2.69049e-06
2.33182e-06
2.02462e-06
1.77366e-06
1.52935e-06
1.31166e-06
1.15114e-06
9.97467e-07
8.47082e-07
7.30786e-07
6.29992e-07
5.37662e-07
4.61796e-07
3.90605e-07
3.28259e-07
2.81234e-07
2.36055e-07
1.96071e-07
1.6599e-07
1.3727e-07
1.1383e-07
9.40547e-08
7.76647e-08
6.33671e-08
5.12388e-08
4.15019e-08
3.3314e-08
2.60059e-08
2.08399e-08
1.5821e-08
5.98137e-08
4.4897e-12
1.91511e-12
1.68579e-12
1.27186e-12
1.07589e-12
8.20368e-13
7.12385e-13
5.65768e-13
4.91682e-13
3.50727e-13
2.67244e-13
1.9821e-13
1.73063e-13
1.47784e-13
1.134e-13
7.63886e-14
5.42906e-14
4.59281e-14
3.96174e-14
2.96514e-14
1.84486e-14
1.39082e-14
1.1757e-14
9.54564e-15
6.06767e-15
4.03118e-15
3.22564e-15
2.63628e-15
1.71097e-15
1.03906e-15
7.8657e-16
6.27321e-16
4.00277e-16
2.3958e-16
1.77139e-16
1.31414e-16
7.71806e-17
5.39711e-17
4.0187e-17
2.25006e-17
1.44497e-17
8.79024e-18
3.54449e-18
1.56664e-18
6.21563e-19
2.67667e-19
1.13744e-19
4.78277e-20
1.97087e-20
7.87972e-21
3.03816e-21
1.12335e-21
3.96221e-22
1.32633e-22
4.19248e-23
1.24481e-23
3.45149e-24
8.8766e-25
2.10077e-25
4.53173e-26
8.80668e-27
1.51906e-27
2.28076e-28
2.90157e-29
3.0058e-30
2.37545e-31
1.26033e-32
3.03915e-34
2.68575e-36
6.56924e-38
7.95563e-40
1.06512e-50
7.14565e-62
3.48057e-73
1.25496e-84
3.93506e-96
1.22924e-107
6.22383e-119
8.89988e-127
1.77072e-137
3.06222e-145
6.01606e-156
1.05336e-163
2.56314e-174
3.62246e-182
1.16126e-192
1.24655e-200
7.88034e-211
4.31788e-219
5.23195e-229
1.51159e-237
2.67163e-247
5.34849e-256
1.27094e-265
1.91658e-274
5.63293e-284
6.94725e-293
2.4166e-302
2.54965e-311
5.13828e-322
6.08689e-321
8.5424e-321
0
0
0
0
0
0
0
0
0
0
0
0
0
0
0
0
)
;

boundaryField
{
    inandouthalf11
    {
        type            cyclic;
    }
    inandouthalf12
    {
        type            cyclic;
    }
    inandouthalf21
    {
        type            cyclic;
    }
    inandouthalf22
    {
        type            cyclic;
    }
    inandouthalf31
    {
        type            cyclic;
    }
    inandouthalf32
    {
        type            cyclic;
    }
    inandouthalf41
    {
        type            cyclic;
    }
    inandouthalf42
    {
        type            cyclic;
    }
    top
    {
        type            symmetryPlane;
    }
    walls
    {
        type            zeroGradient;
    }
    frontAndBackPlanes
    {
        type            empty;
    }
}


// ************************************************************************* //
