/*--------------------------------*- C++ -*----------------------------------*\
| =========                 |                                                 |
| \\      /  F ield         | OpenFOAM: The Open Source CFD Toolbox           |
|  \\    /   O peration     | Version:  2.4.x                                 |
|   \\  /    A nd           | Web:      www.OpenFOAM.org                      |
|    \\/     M anipulation  |                                                 |
\*---------------------------------------------------------------------------*/
FoamFile
{
    version     2.0;
    format      ascii;
    class       surfaceScalarField;
    location    "2.65";
    object      ddt0(phia);
}
// * * * * * * * * * * * * * * * * * * * * * * * * * * * * * * * * * * * * * //

dimensions      [0 3 -2 0 0 0 0];

internalField   nonuniform List<scalar> 
359
(
-6.37567e-29
-2.84602e-27
1.27062e-12
1.24724e-11
3.77723e-11
6.05726e-11
6.32276e-11
4.51757e-11
1.95586e-11
-7.94059e-13
-1.20966e-11
-1.69761e-11
-1.87534e-11
-1.92848e-11
-1.93261e-11
-1.91478e-11
-1.885e-11
-1.84847e-11
-1.80966e-11
-1.77274e-11
-1.741e-11
-1.71589e-11
-1.69725e-11
-1.68386e-11
-1.67422e-11
-1.667e-11
-1.66131e-11
-1.65664e-11
-1.65281e-11
-1.64983e-11
-1.6478e-11
-1.64684e-11
-1.64706e-11
-1.6485e-11
-1.65118e-11
-1.65508e-11
-1.66014e-11
-1.66633e-11
-1.6736e-11
-1.68191e-11
-1.69124e-11
-1.70158e-11
-1.71291e-11
-1.72526e-11
-1.73863e-11
-1.75304e-11
-1.7685e-11
-1.78502e-11
-1.80265e-11
-1.82144e-11
-1.8414e-11
-1.86255e-11
-1.8849e-11
-1.90844e-11
-1.93314e-11
-1.95898e-11
-1.98582e-11
-2.01354e-11
-2.04187e-11
-2.07044e-11
-2.09884e-11
-2.12646e-11
-2.15267e-11
-2.17669e-11
-2.19772e-11
-2.21489e-11
-2.22726e-11
-2.2337e-11
-2.23288e-11
-2.22313e-11
-2.20247e-11
-2.1687e-11
-2.11972e-11
-2.05379e-11
-1.97014e-11
-1.86922e-11
-1.75299e-11
-1.62445e-11
-1.48704e-11
-1.34399e-11
-1.19778e-11
-1.04979e-11
-9.00403e-12
-7.49188e-12
-5.95227e-12
-4.37456e-12
-2.74923e-12
-1.07041e-12
6.63458e-13
2.44966e-12
4.28203e-12
6.15236e-12
8.05199e-12
9.97256e-12
1.19066e-11
1.38473e-11
1.57889e-11
1.77258e-11
1.96528e-11
2.15652e-11
2.34588e-11
2.53297e-11
2.7175e-11
2.89923e-11
3.07799e-11
3.25367e-11
3.4262e-11
3.5956e-11
3.7619e-11
3.92519e-11
4.08555e-11
4.24313e-11
4.39804e-11
4.55038e-11
4.70021e-11
4.84754e-11
4.9923e-11
5.13434e-11
5.2734e-11
5.40915e-11
5.54113e-11
5.66882e-11
5.79164e-11
5.90898e-11
6.02028e-11
6.12504e-11
6.22292e-11
6.31366e-11
6.39707e-11
6.47291e-11
6.54095e-11
6.60094e-11
6.6528e-11
6.69641e-11
6.73108e-11
6.75482e-11
6.76373e-11
6.7511e-11
6.70515e-11
6.60833e-11
6.44785e-11
6.24368e-11
6.04014e-11
5.89878e-11
5.85295e-11
5.85236e-11
3.12368e-09
2.28085e-08
-1.50791e-08
-1.05352e-07
-1.80003e-07
-2.21691e-07
-2.42376e-07
-2.50933e-07
-2.5271e-07
-2.50601e-07
-2.46263e-07
-2.40716e-07
-2.34596e-07
-2.2831e-07
-2.22128e-07
-2.16225e-07
-2.10715e-07
-2.05661e-07
-2.01092e-07
-1.97002e-07
-1.93355e-07
-1.90078e-07
-1.87047e-07
-1.84093e-07
-1.81024e-07
-1.77675e-07
-1.74225e-07
-1.72934e-07
-1.74047e-07
-1.90554e-07
-2.08483e-07
-2.26158e-07
-2.43493e-07
-2.59892e-07
-2.75127e-07
-2.88379e-07
-2.97506e-07
-2.98724e-07
-2.87645e-07
-2.62722e-07
-2.28647e-07
-1.94802e-07
-1.68743e-07
-1.52209e-07
-1.42888e-07
-1.37993e-07
-1.35659e-07
-1.34805e-07
-1.34951e-07
-1.35511e-07
-1.36086e-07
-1.36595e-07
-1.3704e-07
-1.37414e-07
-1.37712e-07
-1.3795e-07
-1.38163e-07
-1.38357e-07
-1.3849e-07
-1.38559e-07
-1.38632e-07
-1.38709e-07
-1.38725e-07
-1.38696e-07
-1.38672e-07
-1.38628e-07
-1.38544e-07
-1.38453e-07
-1.38341e-07
-1.38181e-07
-1.38024e-07
-1.3788e-07
-1.37681e-07
-1.37443e-07
-1.37215e-07
-1.36971e-07
-1.36703e-07
-1.36405e-07
-1.36058e-07
-1.35701e-07
-1.35334e-07
-1.34908e-07
-1.34454e-07
-1.33982e-07
-1.3346e-07
-1.32904e-07
-1.32326e-07
-1.31711e-07
-1.31048e-07
-1.30353e-07
-1.2964e-07
-1.28893e-07
-1.2813e-07
-1.27466e-07
-1.26947e-07
-6.39136e-08
1.8305e-10
1.83097e-10
1.83134e-10
1.83079e-10
1.83132e-10
1.8307e-10
1.83132e-10
1.83063e-10
1.83134e-10
1.83056e-10
1.83136e-10
1.83052e-10
1.83137e-10
1.8305e-10
1.83135e-10
1.83055e-10
1.83125e-10
1.83077e-10
1.83114e-10
1.83073e-10
1.83114e-10
1.83069e-10
1.83125e-10
1.8306e-10
1.83128e-10
1.83057e-10
1.83134e-10
1.83051e-10
1.8314e-10
1.83045e-10
1.83147e-10
1.83038e-10
1.83154e-10
1.83031e-10
1.83161e-10
1.83024e-10
1.83169e-10
1.83017e-10
1.83176e-10
1.8301e-10
1.83183e-10
1.83003e-10
1.83191e-10
1.82995e-10
1.83198e-10
1.82988e-10
1.83206e-10
1.82981e-10
1.83213e-10
1.82974e-10
1.83218e-10
1.82972e-10
1.83213e-10
1.8298e-10
1.83208e-10
1.82984e-10
1.83203e-10
1.82989e-10
1.83199e-10
1.82993e-10
1.83195e-10
1.82998e-10
1.8319e-10
1.83003e-10
1.83185e-10
1.83007e-10
1.83181e-10
1.83013e-10
1.83175e-10
1.83017e-10
1.83171e-10
1.83021e-10
1.83167e-10
1.83026e-10
1.83163e-10
1.8303e-10
1.83159e-10
1.83034e-10
1.83155e-10
1.83037e-10
1.83151e-10
1.83041e-10
1.83147e-10
1.83044e-10
1.83144e-10
1.83048e-10
1.83141e-10
1.83051e-10
1.83137e-10
1.83054e-10
1.83134e-10
1.83057e-10
1.83133e-10
1.83064e-10
1.83127e-10
1.83065e-10
1.83123e-10
1.83068e-10
1.83119e-10
1.83071e-10
1.83116e-10
1.83074e-10
1.83112e-10
1.83077e-10
1.83109e-10
1.8308e-10
1.83106e-10
1.83083e-10
1.83103e-10
1.83086e-10
1.83101e-10
1.83089e-10
1.83099e-10
1.83096e-10
1.83201e-10
1.85308e-10
2.81148e-10
)
;

boundaryField
{
    inandouthalf11
    {
        type            cyclic;
        value           nonuniform List<scalar> 
100
(
6.73295e-39
5.87122e-30
2.61316e-28
-1.49822e-13
-1.1179e-12
-2.56386e-12
-3.25527e-12
-2.6824e-12
-1.35092e-12
-9.1783e-14
6.79087e-13
1.03029e-12
1.16211e-12
1.20378e-12
1.21054e-12
1.20221e-12
1.18562e-12
1.16366e-12
1.1386e-12
1.113e-12
1.0893e-12
1.06916e-12
1.05312e-12
1.0408e-12
1.03137e-12
1.02396e-12
1.01788e-12
1.01269e-12
1.0082e-12
1.00438e-12
1.0013e-12
9.99078e-13
9.97819e-13
9.97613e-13
9.98513e-13
1.00054e-12
1.00371e-12
1.00801e-12
1.01343e-12
1.01997e-12
1.02765e-12
1.03647e-12
1.04647e-12
1.05767e-12
1.07013e-12
1.08389e-12
1.099e-12
1.1155e-12
1.13348e-12
1.15303e-12
1.17423e-12
1.19715e-12
1.22188e-12
1.24847e-12
1.27701e-12
1.30755e-12
1.34013e-12
1.37473e-12
1.41127e-12
1.44957e-12
1.48936e-12
1.53025e-12
1.57172e-12
1.61313e-12
1.65379e-12
1.69297e-12
1.72995e-12
1.76396e-12
1.79413e-12
1.81946e-12
1.83868e-12
1.85036e-12
1.85288e-12
1.84477e-12
1.82501e-12
1.79337e-12
1.75068e-12
1.6988e-12
1.64023e-12
1.57763e-12
1.51332e-12
1.44895e-12
1.38541e-12
1.32293e-12
1.26123e-12
1.19979e-12
1.13802e-12
1.07545e-12
1.01184e-12
9.47227e-13
8.81895e-13
8.16335e-13
7.51137e-13
6.86913e-13
6.24253e-13
5.63698e-13
5.05732e-13
4.50796e-13
3.99286e-13
3.5156e-13
)
;
    }
    inandouthalf12
    {
        type            cyclic;
        value           nonuniform List<scalar> 
100
(
-6.73295e-39
-5.87122e-30
-2.61316e-28
1.49822e-13
1.1179e-12
2.56386e-12
3.25527e-12
2.6824e-12
1.35092e-12
9.1783e-14
-6.79087e-13
-1.03029e-12
-1.16211e-12
-1.20378e-12
-1.21054e-12
-1.20221e-12
-1.18562e-12
-1.16366e-12
-1.1386e-12
-1.113e-12
-1.0893e-12
-1.06916e-12
-1.05312e-12
-1.0408e-12
-1.03137e-12
-1.02396e-12
-1.01788e-12
-1.01269e-12
-1.0082e-12
-1.00438e-12
-1.0013e-12
-9.99078e-13
-9.97819e-13
-9.97613e-13
-9.98513e-13
-1.00054e-12
-1.00371e-12
-1.00801e-12
-1.01343e-12
-1.01997e-12
-1.02765e-12
-1.03647e-12
-1.04647e-12
-1.05767e-12
-1.07013e-12
-1.08389e-12
-1.099e-12
-1.1155e-12
-1.13348e-12
-1.15303e-12
-1.17423e-12
-1.19715e-12
-1.22188e-12
-1.24847e-12
-1.27701e-12
-1.30755e-12
-1.34013e-12
-1.37473e-12
-1.41127e-12
-1.44957e-12
-1.48936e-12
-1.53025e-12
-1.57172e-12
-1.61313e-12
-1.65379e-12
-1.69297e-12
-1.72995e-12
-1.76396e-12
-1.79413e-12
-1.81946e-12
-1.83868e-12
-1.85036e-12
-1.85288e-12
-1.84477e-12
-1.82501e-12
-1.79337e-12
-1.75068e-12
-1.6988e-12
-1.64023e-12
-1.57763e-12
-1.51332e-12
-1.44895e-12
-1.38541e-12
-1.32293e-12
-1.26123e-12
-1.19979e-12
-1.13802e-12
-1.07545e-12
-1.01184e-12
-9.47227e-13
-8.81895e-13
-8.16335e-13
-7.51137e-13
-6.86913e-13
-6.24253e-13
-5.63698e-13
-5.05732e-13
-4.50796e-13
-3.99286e-13
-3.5156e-13
)
;
    }
    inandouthalf21
    {
        type            cyclic;
        value           nonuniform List<scalar> 
100
(
3.07931e-13
2.68666e-13
2.3398e-13
2.04037e-13
1.78946e-13
1.58773e-13
1.43536e-13
1.33214e-13
1.27748e-13
1.27049e-13
1.31004e-13
1.39483e-13
1.52349e-13
1.6947e-13
1.9073e-13
2.16036e-13
2.45334e-13
2.78613e-13
3.15915e-13
3.57332e-13
4.0301e-13
4.53143e-13
5.07963e-13
5.67736e-13
6.32754e-13
7.0335e-13
7.79912e-13
8.62905e-13
9.52877e-13
1.0504e-12
1.15601e-12
1.27013e-12
1.39321e-12
1.52599e-12
1.66965e-12
1.82537e-12
1.994e-12
2.1767e-12
2.37581e-12
2.59091e-12
2.8053e-12
2.97909e-12
3.07793e-12
3.10218e-12
3.09331e-12
3.09557e-12
3.09685e-12
4.09342e-11
2.75849e-07
3.79232e-07
4.47264e-07
5.22755e-07
5.95232e-07
6.61013e-07
7.20152e-07
7.73645e-07
8.22538e-07
8.67713e-07
9.09867e-07
9.4954e-07
9.87145e-07
1.023e-06
1.05734e-06
1.09036e-06
1.12217e-06
1.15287e-06
1.1825e-06
1.21107e-06
1.23858e-06
1.26497e-06
1.29017e-06
1.31408e-06
1.33663e-06
1.35773e-06
1.37734e-06
1.39547e-06
1.41224e-06
1.42726e-06
1.44019e-06
1.45067e-06
1.45835e-06
1.4629e-06
1.46404e-06
1.46163e-06
1.45585e-06
1.44742e-06
1.43762e-06
1.42801e-06
1.4198e-06
1.41351e-06
1.40892e-06
1.40547e-06
1.40255e-06
1.39977e-06
1.39694e-06
1.39405e-06
1.39132e-06
1.38888e-06
1.38669e-06
1.38471e-06
)
;
    }
    inandouthalf22
    {
        type            cyclic;
        value           nonuniform List<scalar> 
100
(
-3.07931e-13
-2.68666e-13
-2.3398e-13
-2.04037e-13
-1.78946e-13
-1.58773e-13
-1.43536e-13
-1.33214e-13
-1.27748e-13
-1.27049e-13
-1.31004e-13
-1.39483e-13
-1.52349e-13
-1.6947e-13
-1.9073e-13
-2.16036e-13
-2.45334e-13
-2.78613e-13
-3.15915e-13
-3.57332e-13
-4.0301e-13
-4.53143e-13
-5.07963e-13
-5.67736e-13
-6.32754e-13
-7.0335e-13
-7.79912e-13
-8.62905e-13
-9.52877e-13
-1.0504e-12
-1.15601e-12
-1.27013e-12
-1.39321e-12
-1.52599e-12
-1.66965e-12
-1.82537e-12
-1.994e-12
-2.1767e-12
-2.37581e-12
-2.59091e-12
-2.8053e-12
-2.97909e-12
-3.07793e-12
-3.10218e-12
-3.09331e-12
-3.09557e-12
-3.09685e-12
-4.09342e-11
-2.75849e-07
-3.79232e-07
-4.47264e-07
-5.22755e-07
-5.95232e-07
-6.61013e-07
-7.20152e-07
-7.73645e-07
-8.22538e-07
-8.67713e-07
-9.09867e-07
-9.4954e-07
-9.87145e-07
-1.023e-06
-1.05734e-06
-1.09036e-06
-1.12217e-06
-1.15287e-06
-1.1825e-06
-1.21107e-06
-1.23858e-06
-1.26497e-06
-1.29017e-06
-1.31408e-06
-1.33663e-06
-1.35773e-06
-1.37734e-06
-1.39547e-06
-1.41224e-06
-1.42726e-06
-1.44019e-06
-1.45067e-06
-1.45835e-06
-1.4629e-06
-1.46404e-06
-1.46163e-06
-1.45585e-06
-1.44742e-06
-1.43762e-06
-1.42801e-06
-1.4198e-06
-1.41351e-06
-1.40892e-06
-1.40547e-06
-1.40255e-06
-1.39977e-06
-1.39694e-06
-1.39405e-06
-1.39132e-06
-1.38888e-06
-1.38669e-06
-1.38471e-06
)
;
    }
    inandouthalf31
    {
        type            cyclic;
        value           nonuniform List<scalar> 
110
(
1.38294e-06
1.4094e-06
1.43646e-06
1.46408e-06
1.49233e-06
1.52136e-06
1.55101e-06
1.58116e-06
1.61199e-06
1.64364e-06
1.67591e-06
1.70879e-06
1.74243e-06
1.77677e-06
1.81178e-06
1.8476e-06
1.88417e-06
1.92133e-06
1.95927e-06
1.99813e-06
2.03771e-06
2.078e-06
2.11912e-06
2.16106e-06
2.20391e-06
2.24763e-06
2.29211e-06
2.33752e-06
2.38388e-06
2.43108e-06
2.47922e-06
2.52833e-06
2.57835e-06
2.62931e-06
2.68128e-06
2.73425e-06
2.78818e-06
2.84313e-06
2.8991e-06
2.95606e-06
3.01373e-06
3.07176e-06
2.97226e-06
3.03259e-06
3.09414e-06
3.15695e-06
3.22102e-06
3.2864e-06
3.35311e-06
3.42117e-06
3.49061e-06
3.56146e-06
3.63374e-06
3.7075e-06
3.78275e-06
3.85953e-06
3.93787e-06
4.0178e-06
4.09935e-06
4.18255e-06
4.26745e-06
4.35407e-06
4.44244e-06
4.53261e-06
4.62461e-06
4.71848e-06
4.81425e-06
4.91197e-06
5.01167e-06
5.11339e-06
5.21718e-06
5.32308e-06
5.43112e-06
5.54136e-06
5.65383e-06
5.76859e-06
5.88568e-06
6.00514e-06
6.12703e-06
6.25139e-06
6.37828e-06
6.50774e-06
6.63983e-06
6.7746e-06
6.91211e-06
7.0524e-06
7.19555e-06
7.3416e-06
7.49061e-06
7.64265e-06
7.79778e-06
7.95605e-06
8.11754e-06
8.2823e-06
8.45041e-06
8.62193e-06
8.79694e-06
8.97549e-06
9.15767e-06
9.34355e-06
9.53319e-06
9.72669e-06
9.92412e-06
1.01256e-05
1.03311e-05
1.05408e-05
1.07547e-05
1.0973e-05
1.11957e-05
1.1423e-05
)
;
    }
    inandouthalf32
    {
        type            cyclic;
        value           nonuniform List<scalar> 
110
(
-1.38294e-06
-1.4094e-06
-1.43646e-06
-1.46408e-06
-1.49233e-06
-1.52136e-06
-1.55101e-06
-1.58116e-06
-1.61199e-06
-1.64364e-06
-1.67591e-06
-1.70879e-06
-1.74243e-06
-1.77677e-06
-1.81178e-06
-1.8476e-06
-1.88417e-06
-1.92133e-06
-1.95927e-06
-1.99813e-06
-2.03771e-06
-2.078e-06
-2.11912e-06
-2.16106e-06
-2.20391e-06
-2.24763e-06
-2.29211e-06
-2.33752e-06
-2.38388e-06
-2.43108e-06
-2.47922e-06
-2.52833e-06
-2.57835e-06
-2.62931e-06
-2.68128e-06
-2.73425e-06
-2.78818e-06
-2.84313e-06
-2.8991e-06
-2.95606e-06
-3.01373e-06
-3.07176e-06
-2.97226e-06
-3.03259e-06
-3.09414e-06
-3.15695e-06
-3.22102e-06
-3.2864e-06
-3.35311e-06
-3.42117e-06
-3.49061e-06
-3.56146e-06
-3.63374e-06
-3.7075e-06
-3.78275e-06
-3.85953e-06
-3.93787e-06
-4.0178e-06
-4.09935e-06
-4.18255e-06
-4.26745e-06
-4.35407e-06
-4.44244e-06
-4.53261e-06
-4.62461e-06
-4.71848e-06
-4.81425e-06
-4.91197e-06
-5.01167e-06
-5.11339e-06
-5.21718e-06
-5.32308e-06
-5.43112e-06
-5.54136e-06
-5.65383e-06
-5.76859e-06
-5.88568e-06
-6.00514e-06
-6.12703e-06
-6.25139e-06
-6.37828e-06
-6.50774e-06
-6.63983e-06
-6.7746e-06
-6.91211e-06
-7.0524e-06
-7.19555e-06
-7.3416e-06
-7.49061e-06
-7.64265e-06
-7.79778e-06
-7.95605e-06
-8.11754e-06
-8.2823e-06
-8.45041e-06
-8.62193e-06
-8.79694e-06
-8.97549e-06
-9.15767e-06
-9.34355e-06
-9.53319e-06
-9.72669e-06
-9.92412e-06
-1.01256e-05
-1.03311e-05
-1.05408e-05
-1.07547e-05
-1.0973e-05
-1.11957e-05
-1.1423e-05
)
;
    }
    inandouthalf41
    {
        type            cyclic;
        value           nonuniform List<scalar> 
50
(
1.02247e-05
1.02247e-05
1.02247e-05
1.02247e-05
1.02247e-05
1.02247e-05
1.02247e-05
1.02247e-05
1.02247e-05
1.02247e-05
1.02247e-05
1.02247e-05
1.02247e-05
1.02247e-05
1.02247e-05
1.02247e-05
1.02247e-05
1.02247e-05
1.02247e-05
1.02247e-05
1.02247e-05
1.02247e-05
1.02247e-05
1.02247e-05
1.02247e-05
1.02247e-05
1.02247e-05
1.02247e-05
1.02247e-05
1.02247e-05
1.02247e-05
1.02247e-05
1.02247e-05
1.02247e-05
1.02247e-05
1.02247e-05
1.02247e-05
1.02247e-05
1.02247e-05
1.02247e-05
1.02247e-05
1.02247e-05
1.02247e-05
1.02247e-05
1.02247e-05
1.02247e-05
1.02247e-05
1.02247e-05
1.02246e-05
1.02228e-05
)
;
    }
    inandouthalf42
    {
        type            cyclic;
        value           nonuniform List<scalar> 
50
(
-1.02247e-05
-1.02247e-05
-1.02247e-05
-1.02247e-05
-1.02247e-05
-1.02247e-05
-1.02247e-05
-1.02247e-05
-1.02247e-05
-1.02247e-05
-1.02247e-05
-1.02247e-05
-1.02247e-05
-1.02247e-05
-1.02247e-05
-1.02247e-05
-1.02247e-05
-1.02247e-05
-1.02247e-05
-1.02247e-05
-1.02247e-05
-1.02247e-05
-1.02247e-05
-1.02247e-05
-1.02247e-05
-1.02247e-05
-1.02247e-05
-1.02247e-05
-1.02247e-05
-1.02247e-05
-1.02247e-05
-1.02247e-05
-1.02247e-05
-1.02247e-05
-1.02247e-05
-1.02247e-05
-1.02247e-05
-1.02247e-05
-1.02247e-05
-1.02247e-05
-1.02247e-05
-1.02247e-05
-1.02247e-05
-1.02247e-05
-1.02247e-05
-1.02247e-05
-1.02247e-05
-1.02247e-05
-1.02246e-05
-1.02228e-05
)
;
    }
    top
    {
        type            symmetryPlane;
        value           uniform 0;
    }
    walls
    {
        type            calculated;
        value           uniform 0;
    }
    frontAndBackPlanes
    {
        type            empty;
        value           nonuniform 0();
    }
}


// ************************************************************************* //
