/*--------------------------------*- C++ -*----------------------------------*\
| =========                 |                                                 |
| \\      /  F ield         | OpenFOAM: The Open Source CFD Toolbox           |
|  \\    /   O peration     | Version:  2.4.x                                 |
|   \\  /    A nd           | Web:      www.OpenFOAM.org                      |
|    \\/     M anipulation  |                                                 |
\*---------------------------------------------------------------------------*/
FoamFile
{
    version     2.0;
    format      ascii;
    class       volScalarField;
    location    "2.65";
    object      ddt0(alpha);
}
// * * * * * * * * * * * * * * * * * * * * * * * * * * * * * * * * * * * * * //

dimensions      [0 0 -1 0 0 0 0];

internalField   nonuniform List<scalar> 
360
(
1.97683e-16
4.70679e-13
0.000302929
0.00109154
0.00175067
0.00186381
0.00159704
0.001177
0.0007431
0.000400151
0.000189001
8.44293e-05
3.98442e-05
2.19372e-05
1.48663e-05
1.23351e-05
1.19439e-05
1.26652e-05
1.3889e-05
1.52094e-05
1.6228e-05
1.68301e-05
1.69914e-05
1.68281e-05
1.64889e-05
1.61151e-05
1.5795e-05
1.55985e-05
1.55179e-05
1.55287e-05
1.55959e-05
1.57346e-05
1.58743e-05
1.60664e-05
1.62538e-05
1.6462e-05
1.66838e-05
1.69356e-05
1.72421e-05
1.75406e-05
1.78925e-05
1.82875e-05
1.87032e-05
1.92024e-05
1.97549e-05
2.03684e-05
2.10655e-05
2.1828e-05
2.2714e-05
2.37688e-05
2.49261e-05
2.62379e-05
2.76936e-05
2.93511e-05
3.11851e-05
3.32939e-05
3.56085e-05
3.81901e-05
4.09938e-05
4.3956e-05
4.71315e-05
5.03441e-05
5.36121e-05
5.6832e-05
6.00747e-05
6.34318e-05
6.7129e-05
7.13726e-05
7.63821e-05
8.23215e-05
8.93963e-05
9.75441e-05
0.000106404
0.000115767
0.000124967
0.000133487
0.000140647
0.00014624
0.000150306
0.000153169
0.000155273
0.000157218
0.000159455
0.000162269
0.000165778
0.000169892
0.000174418
0.000179042
0.000183483
0.000187525
0.000191032
0.000193973
0.00019641
0.000198427
0.000200113
0.000201537
0.000202735
0.000203724
0.000204505
0.000205083
0.000205466
0.000205668
0.000205709
0.000205607
0.000205376
0.000205025
0.00020456
0.000203982
0.00020329
0.000202481
0.000201548
0.000200479
0.000199261
0.000197875
0.000196302
0.000194525
0.000192528
0.000190301
0.000187841
0.000185154
0.000182254
0.000179172
0.000175955
0.000172684
0.000169478
0.000166507
0.00016397
0.000162057
0.000160872
0.000160377
0.000160419
0.000160894
0.000161961
0.000164037
0.000167344
0.000171452
0.000176081
0.000182619
0.000193014
0.000204151
0.000202252
0.000167547
0.000113958
5.10491e-05
-8.07849e-06
-0.000307874
0.0062146
1.66763
1.10774
0.00669174
-0.290613
-0.333854
-0.310802
-0.272956
-0.23509
-0.201246
-0.172152
-0.147482
-0.126645
-0.109019
-0.0940541
-0.0812913
-0.0703477
-0.0609116
-0.0527284
-0.0455941
-0.0393395
-0.0338274
-0.0289436
-0.0245905
-0.0206883
-0.0171707
-0.014014
-0.0112577
-0.00889576
-0.00742177
-0.00639099
-0.00528543
-0.00418586
-0.00313936
-0.00214673
-0.0011817
-0.000171644
0.000970198
0.0022323
0.00335686
0.00390276
0.00362768
0.00277077
0.00181223
0.00107493
0.000616914
0.000363534
0.000228297
0.000154754
0.000112666
8.58102e-05
6.6996e-05
5.32057e-05
4.33801e-05
3.66055e-05
3.08285e-05
2.49621e-05
2.0456e-05
1.82869e-05
1.61763e-05
1.2737e-05
1.03885e-05
9.6894e-06
8.42486e-06
6.70882e-06
5.83207e-06
5.17301e-06
4.22604e-06
3.63563e-06
3.28067e-06
2.62244e-06
2.1202e-06
1.97552e-06
1.68228e-06
1.33433e-06
1.14829e-06
9.6939e-07
8.19656e-07
7.17671e-07
5.71726e-07
4.66315e-07
4.13309e-07
3.29786e-07
2.67057e-07
2.27352e-07
1.8169e-07
1.46297e-07
1.18953e-07
9.7762e-08
7.74116e-08
6.06049e-08
4.94485e-08
3.78895e-08
2.92386e-08
1.55606e-08
6.5185e-08
-3.18273e-11
-1.13207e-11
-1.09434e-11
-9.306e-12
-7.75675e-12
-4.92235e-12
-3.84699e-12
-3.24366e-12
-3.09831e-12
-3.1875e-12
-2.39727e-12
-1.01539e-12
-6.72511e-13
-7.787e-13
-9.14348e-13
-8.16785e-13
-3.05335e-13
-1.7724e-13
-1.91991e-13
-2.71906e-13
-1.57101e-13
-7.10344e-14
-4.75855e-14
-6.06953e-14
-6.28011e-14
-2.45529e-14
-1.40638e-14
-1.4911e-14
-1.72002e-14
-7.10504e-15
-3.83341e-15
-3.51075e-15
-3.81159e-15
-1.62128e-15
-9.28614e-16
-9.12795e-16
-5.67963e-16
-2.99314e-16
-2.63688e-16
-1.855e-16
-1.04356e-16
-9.15258e-17
-4.37975e-17
-2.19076e-17
-7.73614e-18
-3.31287e-18
-1.39192e-18
-5.84132e-19
-2.4257e-19
-9.81477e-20
-3.84159e-20
-1.44492e-20
-5.19095e-21
-1.77095e-21
-5.70655e-22
-1.72733e-22
-4.88241e-23
-1.27999e-23
-3.0877e-24
-6.78868e-25
-1.34455e-25
-2.36369e-26
-3.61743e-27
-4.69238e-28
-4.95951e-29
-4.00425e-30
-2.17724e-31
-5.4461e-33
-5.10763e-35
-1.27304e-36
-1.57023e-38
-2.10436e-49
-1.41319e-60
-6.86595e-72
-2.47693e-83
-7.73748e-95
-2.42599e-106
-1.22839e-117
-1.75655e-125
-3.48744e-136
-6.04384e-144
-1.18819e-154
-2.079e-162
-5.05823e-173
-7.14958e-181
-2.28127e-191
-2.46026e-199
-1.54383e-209
-8.52114e-218
-1.02421e-227
-2.98223e-236
-5.23053e-246
-1.05474e-254
-2.48765e-264
-3.77729e-273
-1.10246e-282
-1.36818e-291
-4.72846e-301
-5.01686e-310
3.36261e-320
0
0
0
0
0
0
0
0
0
0
0
0
0
0
0
0
0
0
)
;

boundaryField
{
    inandouthalf11
    {
        type            cyclic;
    }
    inandouthalf12
    {
        type            cyclic;
    }
    inandouthalf21
    {
        type            cyclic;
    }
    inandouthalf22
    {
        type            cyclic;
    }
    inandouthalf31
    {
        type            cyclic;
    }
    inandouthalf32
    {
        type            cyclic;
    }
    inandouthalf41
    {
        type            cyclic;
    }
    inandouthalf42
    {
        type            cyclic;
    }
    top
    {
        type            symmetryPlane;
    }
    walls
    {
        type            calculated;
        value           uniform 1.97683e-16;
    }
    frontAndBackPlanes
    {
        type            empty;
    }
}


// ************************************************************************* //
