/*--------------------------------*- C++ -*----------------------------------*\
| =========                 |                                                 |
| \\      /  F ield         | OpenFOAM: The Open Source CFD Toolbox           |
|  \\    /   O peration     | Version:  2.4.x                                 |
|   \\  /    A nd           | Web:      www.OpenFOAM.org                      |
|    \\/     M anipulation  |                                                 |
\*---------------------------------------------------------------------------*/
FoamFile
{
    version     2.0;
    format      ascii;
    class       volScalarField;
    location    "2.65";
    object      ddt0(k);
}
// * * * * * * * * * * * * * * * * * * * * * * * * * * * * * * * * * * * * * //

dimensions      [0 2 -3 0 0 0 0];

internalField   nonuniform List<scalar> 
360
(
0
0
0
0
0
0
0
0
0
0
0
0
0
0
0
0
0
0
0
0
0
0
0
0
0
0
0
0
0
0
0
0
0
0
0
0
0
0
0
0
0
0
0
0
0
0
0
0
0
0
0
0
0
0
0
0
0
0
0
0
0
0
0
0
0
0
0
0
0
0
0
0
0
0
0
0
0
0
0
0
0
0
0
0
0
0
0
0
0
0
0
0
0
0
0
0
0
0
0
0
0
0
0
0
0
0
0
0
0
0
0
0
0
0
0
0
0
0
0
0
0
0
0
0
0
0
0
0
0
0
0
2.86322e-19
3.11344e-18
2.81985e-17
2.28474e-16
1.60519e-15
9.01662e-15
2.96592e-14
-1.25928e-13
-3.46652e-12
-4.06062e-11
-3.73193e-10
-3.13409e-09
-2.67803e-08
-2.56168e-07
-3.0598e-06
-5.17792e-05
-0.00121556
-0.0112981
-0.0187302
-0.0194077
-0.0201853
-0.0210081
-0.021815
-0.0225608
-0.0232169
-0.0237651
-0.0241934
-0.0244936
-0.0246601
-0.0246889
-0.0245775
-0.0243241
-0.023928
-0.023389
-0.0227077
-0.021885
-0.0209222
-0.0198213
-0.0185845
-0.017214
-0.015713
-0.0140845
-0.0123315
-0.0104572
-0.00846286
-0.0063504
-0.00412653
-0.00179971
0.000621498
0.00312782
0.00570847
0.00835022
0.0110362
0.0137448
0.0164491
0.0191158
0.0217019
0.0241476
0.026367
0.028237
0.0295743
0.0300711
0.0291314
0.0262762
0.0112407
0.000790988
1.4262e-05
2.2303e-07
3.46024e-09
5.34192e-11
7.96888e-13
1.13726e-14
1.55248e-16
2.01838e-18
1.53571e-20
0
0
0
0
0
0
0
0
0
0
0
0
0
0
0
0
0
0
0
0
0
0
0
0
0
0
0
0
0
0
0
0
0
0
0
0
0
0
0
0
0
0
0
0
0
0
0
0
0
0
0
0
0
0
0
0
0
0
0
0
0
0
0
0
0
0
0
0
0
0
0
0
0
0
0
0
0
0
0
0
0
0
0
0
0
0
0
0
0
0
0
0
0
0
0
0
0
0
0
0
0
0
0
0
0
0
0
0
0
0
0
0
0
0
0
0
0
0
0
0
0
0
0
0
0
0
0
0
0
0
0
0
0
0
0
0
0
0
0
0
0
0
0
0
0
0
0
0
0
0
0
0
0
0
)
;

boundaryField
{
    inandouthalf11
    {
        type            cyclic;
    }
    inandouthalf12
    {
        type            cyclic;
    }
    inandouthalf21
    {
        type            cyclic;
    }
    inandouthalf22
    {
        type            cyclic;
    }
    inandouthalf31
    {
        type            cyclic;
    }
    inandouthalf32
    {
        type            cyclic;
    }
    inandouthalf41
    {
        type            cyclic;
    }
    inandouthalf42
    {
        type            cyclic;
    }
    top
    {
        type            symmetryPlane;
    }
    walls
    {
        type            calculated;
        value           uniform 0;
    }
    frontAndBackPlanes
    {
        type            empty;
    }
}


// ************************************************************************* //
