/*--------------------------------*- C++ -*----------------------------------*\
| =========                 |                                                 |
| \\      /  F ield         | OpenFOAM: The Open Source CFD Toolbox           |
|  \\    /   O peration     | Version:  2.4.x                                 |
|   \\  /    A nd           | Web:      www.OpenFOAM.org                      |
|    \\/     M anipulation  |                                                 |
\*---------------------------------------------------------------------------*/
FoamFile
{
    version     2.0;
    format      ascii;
    class       volVectorField;
    location    "2.65";
    object      ddt0(Ua);
}
// * * * * * * * * * * * * * * * * * * * * * * * * * * * * * * * * * * * * * //

dimensions      [0 1 -2 0 0 0 0];

internalField   nonuniform List<vector> 
360
(
(-6.73295e-33 -4.80442e-32 0)
(-5.87122e-24 -3.20339e-23 0)
(-2.61316e-22 -1.40682e-21 0)
(1.49822e-07 6.46336e-07 0)
(1.1179e-06 5.65312e-06 0)
(2.56386e-06 1.32156e-05 0)
(3.25527e-06 1.70455e-05 0)
(2.6824e-06 1.45329e-05 0)
(1.35092e-06 8.03787e-06 0)
(9.1783e-08 1.74754e-06 0)
(-6.79087e-07 -2.13534e-06 0)
(-1.03029e-06 -3.90859e-06 0)
(-1.16211e-06 -4.57864e-06 0)
(-1.20378e-06 -4.79788e-06 0)
(-1.21054e-06 -4.84447e-06 0)
(-1.20221e-06 -4.81858e-06 0)
(-1.18562e-06 -4.75531e-06 0)
(-1.16366e-06 -4.66967e-06 0)
(-1.1386e-06 -4.57271e-06 0)
(-1.113e-06 -4.47555e-06 0)
(-1.0893e-06 -4.38819e-06 0)
(-1.06916e-06 -4.31678e-06 0)
(-1.05312e-06 -4.26266e-06 0)
(-1.0408e-06 -4.22358e-06 0)
(-1.03137e-06 -4.19573e-06 0)
(-1.02396e-06 -4.17536e-06 0)
(-1.01788e-06 -4.15965e-06 0)
(-1.01269e-06 -4.1469e-06 0)
(-1.0082e-06 -4.13631e-06 0)
(-1.00438e-06 -4.12774e-06 0)
(-1.0013e-06 -4.1214e-06 0)
(-9.99078e-07 -4.11759e-06 0)
(-9.97819e-07 -4.11661e-06 0)
(-9.97613e-07 -4.11867e-06 0)
(-9.98513e-07 -4.12383e-06 0)
(-1.00054e-06 -4.13208e-06 0)
(-1.00371e-06 -4.14331e-06 0)
(-1.00801e-06 -4.1574e-06 0)
(-1.01343e-06 -4.17425e-06 0)
(-1.01997e-06 -4.19375e-06 0)
(-1.02765e-06 -4.21581e-06 0)
(-1.03647e-06 -4.2404e-06 0)
(-1.04647e-06 -4.26748e-06 0)
(-1.05767e-06 -4.29707e-06 0)
(-1.07013e-06 -4.32922e-06 0)
(-1.08389e-06 -4.36393e-06 0)
(-1.099e-06 -4.40126e-06 0)
(-1.1155e-06 -4.44122e-06 0)
(-1.13348e-06 -4.48387e-06 0)
(-1.15303e-06 -4.52938e-06 0)
(-1.17423e-06 -4.57781e-06 0)
(-1.19715e-06 -4.6292e-06 0)
(-1.22188e-06 -4.68356e-06 0)
(-1.24847e-06 -4.74093e-06 0)
(-1.27701e-06 -4.80125e-06 0)
(-1.30755e-06 -4.86446e-06 0)
(-1.34013e-06 -4.9304e-06 0)
(-1.37473e-06 -4.99874e-06 0)
(-1.41127e-06 -5.06898e-06 0)
(-1.44957e-06 -5.14034e-06 0)
(-1.48936e-06 -5.21187e-06 0)
(-1.53025e-06 -5.2823e-06 0)
(-1.57172e-06 -5.35004e-06 0)
(-1.61313e-06 -5.41332e-06 0)
(-1.65379e-06 -5.47015e-06 0)
(-1.69297e-06 -5.51846e-06 0)
(-1.72995e-06 -5.55601e-06 0)
(-1.76396e-06 -5.58029e-06 0)
(-1.79413e-06 -5.58824e-06 0)
(-1.81946e-06 -5.57616e-06 0)
(-1.83868e-06 -5.53948e-06 0)
(-1.85036e-06 -5.47285e-06 0)
(-1.85288e-06 -5.37068e-06 0)
(-1.84477e-06 -5.22791e-06 0)
(-1.82501e-06 -5.04107e-06 0)
(-1.79337e-06 -4.80958e-06 0)
(-1.75068e-06 -4.53653e-06 0)
(-1.6988e-06 -4.22844e-06 0)
(-1.64023e-06 -3.89381e-06 0)
(-1.57763e-06 -3.54139e-06 0)
(-1.51332e-06 -3.17859e-06 0)
(-1.44895e-06 -2.81031e-06 0)
(-1.38541e-06 -2.43866e-06 0)
(-1.32293e-06 -2.06337e-06 0)
(-1.26123e-06 -1.68256e-06 0)
(-1.19979e-06 -1.29357e-06 0)
(-1.13802e-06 -8.93693e-07 0)
(-1.07545e-06 -4.80916e-07 0)
(-1.01184e-06 -5.42848e-08 0)
(-9.47227e-07 3.86019e-07 0)
(-8.81895e-07 8.38809e-07 0)
(-8.16335e-07 1.30219e-06 0)
(-7.51137e-07 1.77398e-06 0)
(-6.86913e-07 2.25201e-06 0)
(-6.24253e-07 2.73427e-06 0)
(-5.63698e-07 3.21901e-06 0)
(-5.05732e-07 3.70466e-06 0)
(-4.50796e-07 4.18979e-06 0)
(-3.99286e-07 4.67309e-06 0)
(-3.5156e-07 5.15331e-06 0)
(-3.07931e-07 5.6293e-06 0)
(-2.68666e-07 6.10008e-06 0)
(-2.3398e-07 6.56478e-06 0)
(-2.04037e-07 7.02273e-06 0)
(-1.78946e-07 7.47343e-06 0)
(-1.58773e-07 7.91652e-06 0)
(-1.43536e-07 8.35181e-06 0)
(-1.33214e-07 8.77922e-06 0)
(-1.27748e-07 9.1988e-06 0)
(-1.27049e-07 9.61072e-06 0)
(-1.31004e-07 1.00152e-05 0)
(-1.39483e-07 1.04126e-05 0)
(-1.52349e-07 1.08031e-05 0)
(-1.6947e-07 1.11871e-05 0)
(-1.9073e-07 1.15648e-05 0)
(-2.16036e-07 1.19363e-05 0)
(-2.45334e-07 1.23014e-05 0)
(-2.78613e-07 1.26601e-05 0)
(-3.15915e-07 1.30116e-05 0)
(-3.57332e-07 1.33554e-05 0)
(-4.0301e-07 1.36904e-05 0)
(-4.53143e-07 1.40153e-05 0)
(-5.07963e-07 1.43288e-05 0)
(-5.67736e-07 1.46294e-05 0)
(-6.32754e-07 1.49155e-05 0)
(-7.0335e-07 1.51859e-05 0)
(-7.79912e-07 1.54394e-05 0)
(-8.62905e-07 1.56753e-05 0)
(-9.52877e-07 1.58931e-05 0)
(-1.0504e-06 1.60923e-05 0)
(-1.15601e-06 1.62723e-05 0)
(-1.27013e-06 1.64324e-05 0)
(-1.39321e-06 1.65723e-05 0)
(-1.52599e-06 1.66917e-05 0)
(-1.66965e-06 1.67903e-05 0)
(-1.82537e-06 1.68651e-05 0)
(-1.994e-06 1.6909e-05 0)
(-2.1767e-06 1.69097e-05 0)
(-2.37581e-06 1.68461e-05 0)
(-2.59091e-06 1.66796e-05 0)
(-2.8053e-06 1.636e-05 0)
(-2.97909e-06 1.58838e-05 0)
(-3.07793e-06 1.53369e-05 0)
(-3.10218e-06 1.48602e-05 0)
(-3.09331e-06 1.46324e-05 0)
(-3.09557e-06 1.46319e-05 0)
(-3.09685e-06 1.46323e-05 0)
(-4.09342e-05 0.00161968 0)
(-0.275849 0.00868632 0)
(-0.379232 -0.0161551 0)
(-0.447264 -0.0372234 0)
(-0.522755 -0.051046 0)
(-0.595232 -0.0585502 0)
(-0.661013 -0.0620058 0)
(-0.720152 -0.0631643 0)
(-0.773645 -0.0630404 0)
(-0.822538 -0.0621842 0)
(-0.867713 -0.0609154 0)
(-0.909867 -0.059434 0)
(-0.94954 -0.0578671 0)
(-0.987145 -0.0562973 0)
(-1.023 -0.0547788 0)
(-1.05734 -0.053347 0)
(-1.09036 -0.0520234 0)
(-1.12217 -0.0508193 0)
(-1.15287 -0.0497376 0)
(-1.1825 -0.0487733 0)
(-1.21107 -0.0479133 0)
(-1.23858 -0.047134 0)
(-1.26497 -0.0463982 0)
(-1.29017 -0.0456505 0)
(-1.31408 -0.0448179 0)
(-1.33663 -0.04388 0)
(-1.35773 -0.0430828 0)
(-1.37734 -0.0429901 0)
(-1.39547 -0.0451044 0)
(-1.41224 -0.0494626 0)
(-1.42726 -0.054292 0)
(-1.44019 -0.0587705 0)
(-1.45067 -0.0629989 0)
(-1.45835 -0.0670042 0)
(-1.4629 -0.0706927 0)
(-1.46404 -0.0737012 0)
(-1.46163 -0.0752221 0)
(-1.45585 -0.0740733 0)
(-1.44742 -0.0693572 0)
(-1.43762 -0.0615148 0)
(-1.42801 -0.0525988 0)
(-1.4198 -0.0449592 0)
(-1.41351 -0.039701 0)
(-1.40892 -0.0365858 0)
(-1.40547 -0.0349062 0)
(-1.40255 -0.0340747 0)
(-1.39977 -0.0337289 0)
(-1.39694 -0.0336773 0)
(-1.39405 -0.0337892 0)
(-1.39132 -0.0339462 0)
(-1.38888 -0.0340883 0)
(-1.38669 -0.0342087 0)
(-1.38471 -0.0343111 0)
(-1.38294 -0.0343951 0)
(-1.38136 -0.0344608 0)
(-1.37988 -0.0345155 0)
(-1.37842 -0.0345673 0)
(-1.37707 -0.0346101 0)
(-1.37593 -0.0346334 0)
(-1.37484 -0.0346482 0)
(-1.37368 -0.0346693 0)
(-1.37261 -0.0346834 0)
(-1.37171 -0.0346787 0)
(-1.37082 -0.0346708 0)
(-1.36991 -0.0346648 0)
(-1.36909 -0.034648 0)
(-1.36831 -0.0346246 0)
(-1.36751 -0.0346018 0)
(-1.3668 -0.0345672 0)
(-1.36613 -0.0345237 0)
(-1.36535 -0.0344889 0)
(-1.36462 -0.0344492 0)
(-1.364 -0.0343907 0)
(-1.36334 -0.0343315 0)
(-1.36264 -0.0342746 0)
(-1.36196 -0.0342102 0)
(-1.36129 -0.0341409 0)
(-1.36066 -0.03406 0)
(-1.36005 -0.0339687 0)
(-1.35937 -0.0338812 0)
(-1.35872 -0.0337836 0)
(-1.35811 -0.0336698 0)
(-1.35744 -0.0335562 0)
(-1.35679 -0.033433 0)
(-1.35613 -0.0332959 0)
(-1.35545 -0.0331547 0)
(-1.35475 -0.0330067 0)
(-1.35404 -0.0328471 0)
(-1.35332 -0.0326753 0)
(-1.35256 -0.0324998 0)
(-1.35178 -0.0323179 0)
(-1.35097 -0.0321268 0)
(-1.35011 -0.0319361 0)
(-1.34907 -0.0317967 0)
(-1.34769 -0.0316771 0)
(-1.27809 4.57157e-05 0)
(-1.27809 4.58015e-05 0)
(-1.27809 4.57581e-05 0)
(-1.27809 4.57966e-05 0)
(-1.27809 4.57562e-05 0)
(-1.27809 4.57957e-05 0)
(-1.27809 4.57547e-05 0)
(-1.27809 4.57951e-05 0)
(-1.27809 4.57536e-05 0)
(-1.27809 4.57949e-05 0)
(-1.27809 4.57528e-05 0)
(-1.27809 4.57947e-05 0)
(-1.27809 4.57523e-05 0)
(-1.27809 4.57947e-05 0)
(-1.27809 4.57521e-05 0)
(-1.27809 4.57946e-05 0)
(-1.27809 4.5752e-05 0)
(-1.27809 4.5795e-05 0)
(-1.27809 4.57552e-05 0)
(-1.27809 4.5791e-05 0)
(-1.27809 4.57575e-05 0)
(-1.27809 4.57865e-05 0)
(-1.27809 4.57617e-05 0)
(-1.27809 4.5786e-05 0)
(-1.27809 4.57594e-05 0)
(-1.27809 4.57875e-05 0)
(-1.27809 4.57594e-05 0)
(-1.27809 4.57876e-05 0)
(-1.27809 4.57594e-05 0)
(-1.27809 4.57876e-05 0)
(-1.27809 4.57594e-05 0)
(-1.27809 4.57877e-05 0)
(-1.27809 4.57595e-05 0)
(-1.27809 4.57877e-05 0)
(-1.27809 4.57595e-05 0)
(-1.27809 4.57878e-05 0)
(-1.27809 4.57595e-05 0)
(-1.27809 4.57878e-05 0)
(-1.27809 4.57596e-05 0)
(-1.27809 4.57878e-05 0)
(-1.27809 4.57596e-05 0)
(-1.27809 4.57878e-05 0)
(-1.27809 4.57597e-05 0)
(-1.27809 4.57877e-05 0)
(-1.27809 4.57598e-05 0)
(-1.27809 4.57876e-05 0)
(-1.27809 4.57599e-05 0)
(-1.27809 4.57875e-05 0)
(-1.27809 4.576e-05 0)
(-1.27809 4.57874e-05 0)
(-1.27809 4.57601e-05 0)
(-1.27809 4.57875e-05 0)
(-1.27809 4.57599e-05 0)
(-1.27809 4.57869e-05 0)
(-1.27809 4.57611e-05 0)
(-1.27809 4.5786e-05 0)
(-1.27809 4.5762e-05 0)
(-1.27809 4.57851e-05 0)
(-1.27809 4.57629e-05 0)
(-1.27809 4.57842e-05 0)
(-1.27809 4.57638e-05 0)
(-1.27809 4.57833e-05 0)
(-1.27809 4.57647e-05 0)
(-1.27809 4.57825e-05 0)
(-1.27809 4.57655e-05 0)
(-1.27809 4.57816e-05 0)
(-1.27809 4.57663e-05 0)
(-1.27809 4.57809e-05 0)
(-1.27809 4.5768e-05 0)
(-1.27809 4.5779e-05 0)
(-1.27809 4.57691e-05 0)
(-1.27809 4.5778e-05 0)
(-1.27809 4.577e-05 0)
(-1.27809 4.57771e-05 0)
(-1.27809 4.57709e-05 0)
(-1.27809 4.57762e-05 0)
(-1.27809 4.57718e-05 0)
(-1.27809 4.57753e-05 0)
(-1.27809 4.57726e-05 0)
(-1.27809 4.57745e-05 0)
(-1.27809 4.57734e-05 0)
(-1.27809 4.57738e-05 0)
(-1.27809 4.57741e-05 0)
(-1.27809 4.5773e-05 0)
(-1.27809 4.57748e-05 0)
(-1.27809 4.57724e-05 0)
(-1.27809 4.57754e-05 0)
(-1.27809 4.57718e-05 0)
(-1.27809 4.5776e-05 0)
(-1.27809 4.57712e-05 0)
(-1.27809 4.57765e-05 0)
(-1.27809 4.57707e-05 0)
(-1.27809 4.57772e-05 0)
(-1.27809 4.57709e-05 0)
(-1.27809 4.57777e-05 0)
(-1.27809 4.577e-05 0)
(-1.27809 4.57776e-05 0)
(-1.27809 4.57697e-05 0)
(-1.27809 4.57777e-05 0)
(-1.27809 4.57694e-05 0)
(-1.27809 4.57778e-05 0)
(-1.27809 4.57691e-05 0)
(-1.27809 4.5778e-05 0)
(-1.27809 4.57689e-05 0)
(-1.27809 4.57781e-05 0)
(-1.27809 4.57687e-05 0)
(-1.27809 4.57783e-05 0)
(-1.27809 4.57685e-05 0)
(-1.27809 4.57785e-05 0)
(-1.27809 4.57685e-05 0)
(-1.27809 4.57787e-05 0)
(-1.27809 4.57684e-05 0)
(-1.27809 4.57789e-05 0)
(-1.27809 4.57683e-05 0)
(-1.27809 4.57818e-05 0)
(-1.27809 4.5817e-05 0)
(-1.27808 4.6838e-05 0)
(-1.27785 8.80112e-05 0)
)
;

boundaryField
{
    inandouthalf11
    {
        type            cyclic;
    }
    inandouthalf12
    {
        type            cyclic;
    }
    inandouthalf21
    {
        type            cyclic;
    }
    inandouthalf22
    {
        type            cyclic;
    }
    inandouthalf31
    {
        type            cyclic;
    }
    inandouthalf32
    {
        type            cyclic;
    }
    inandouthalf41
    {
        type            cyclic;
    }
    inandouthalf42
    {
        type            cyclic;
    }
    top
    {
        type            symmetryPlane;
    }
    walls
    {
        type            calculated;
        value           uniform (0 0 0);
    }
    frontAndBackPlanes
    {
        type            empty;
    }
}


// ************************************************************************* //
