/*--------------------------------*- C++ -*----------------------------------*\
| =========                 |                                                 |
| \\      /  F ield         | OpenFOAM: The Open Source CFD Toolbox           |
|  \\    /   O peration     | Version:  2.4.x                                 |
|   \\  /    A nd           | Web:      www.OpenFOAM.org                      |
|    \\/     M anipulation  |                                                 |
\*---------------------------------------------------------------------------*/
FoamFile
{
    version     2.0;
    format      ascii;
    class       surfaceScalarField;
    location    "2.65";
    object      ddt0(phib);
}
// * * * * * * * * * * * * * * * * * * * * * * * * * * * * * * * * * * * * * //

dimensions      [0 3 -2 0 0 0 0];

internalField   nonuniform List<scalar> 
359
(
2.24061e-16
4.33107e-16
-1.98256e-12
-1.94741e-11
-5.8997e-11
-9.46194e-11
-9.87506e-11
-7.05241e-11
-3.04923e-11
1.30117e-12
1.8952e-11
2.657e-11
2.93439e-11
3.01725e-11
3.02363e-11
2.99572e-11
2.94915e-11
2.89206e-11
2.83138e-11
2.77368e-11
2.72405e-11
2.68479e-11
2.65564e-11
2.6347e-11
2.61962e-11
2.60833e-11
2.59943e-11
2.59212e-11
2.58613e-11
2.58146e-11
2.57828e-11
2.57678e-11
2.57712e-11
2.57937e-11
2.58355e-11
2.58963e-11
2.59753e-11
2.60719e-11
2.61853e-11
2.63149e-11
2.64605e-11
2.66217e-11
2.67984e-11
2.6991e-11
2.71995e-11
2.74241e-11
2.76651e-11
2.79226e-11
2.81972e-11
2.84899e-11
2.88007e-11
2.91301e-11
2.9478e-11
2.98444e-11
3.02287e-11
3.06307e-11
3.10483e-11
3.14792e-11
3.19196e-11
3.23635e-11
3.28045e-11
3.32333e-11
3.36397e-11
3.40118e-11
3.43371e-11
3.46021e-11
3.47919e-11
3.48893e-11
3.48734e-11
3.47182e-11
3.4393e-11
3.38636e-11
3.30973e-11
3.20669e-11
3.07605e-11
2.91852e-11
2.73717e-11
2.53666e-11
2.32238e-11
2.09936e-11
1.87149e-11
1.64094e-11
1.40829e-11
1.17293e-11
9.334e-12
6.88066e-12
4.35444e-12
1.74627e-12
-9.46286e-13
-3.71894e-12
-6.56212e-12
-9.46291e-12
-1.24078e-11
-1.53838e-11
-1.83789e-11
-2.1383e-11
-2.43865e-11
-2.7381e-11
-3.03584e-11
-3.33113e-11
-3.62331e-11
-3.91178e-11
-4.19608e-11
-4.47584e-11
-4.75079e-11
-5.02075e-11
-5.28564e-11
-5.54544e-11
-5.80023e-11
-6.05011e-11
-6.29525e-11
-6.53584e-11
-6.77206e-11
-7.00404e-11
-7.23189e-11
-7.4556e-11
-7.67508e-11
-7.89006e-11
-8.10016e-11
-8.30483e-11
-8.50338e-11
-8.695e-11
-8.87877e-11
-9.05376e-11
-9.21908e-11
-9.37397e-11
-9.51787e-11
-9.65038e-11
-9.77118e-11
-9.87993e-11
-9.97627e-11
-1.00599e-10
-1.01305e-10
-1.0188e-10
-1.02312e-10
-1.02573e-10
-1.02603e-10
-1.02298e-10
-1.01475e-10
-9.98749e-11
-9.73282e-11
-9.41337e-11
-9.09299e-11
-8.86309e-11
-8.77611e-11
-8.48233e-11
-3.872e-09
2.31144e-08
2.78128e-08
1.73757e-08
1.32976e-08
1.06181e-08
8.70191e-09
7.27802e-09
6.20285e-09
5.36826e-09
4.70277e-09
4.1611e-09
3.71303e-09
3.33758e-09
3.0196e-09
2.7477e-09
2.51287e-09
2.30784e-09
2.12652e-09
1.96378e-09
1.81522e-09
1.67696e-09
1.54556e-09
1.418e-09
1.29196e-09
1.16601e-09
1.04164e-09
9.32909e-10
8.37684e-10
8.14785e-10
7.90124e-10
7.56045e-10
7.12149e-10
6.57675e-10
5.92921e-10
5.15766e-10
4.20432e-10
3.00936e-10
1.62162e-10
3.06163e-11
-5.69384e-11
-8.53993e-11
-7.28502e-11
-4.77647e-11
-2.69927e-11
-1.41766e-11
-7.30033e-12
-3.80307e-12
-2.0316e-12
-1.10168e-12
-5.65195e-13
-2.29072e-13
-2.25897e-14
8.07497e-14
1.28851e-13
1.82938e-13
2.39468e-13
2.4364e-13
2.071e-13
2.04175e-13
2.2712e-13
2.10649e-13
1.74326e-13
1.64402e-13
1.59184e-13
1.39123e-13
1.23954e-13
1.14569e-13
9.83964e-14
8.52381e-14
8.02592e-14
7.04536e-14
5.7441e-14
5.02924e-14
4.46421e-14
3.76254e-14
3.16063e-14
2.57039e-14
2.05748e-14
1.70828e-14
1.32855e-14
9.53645e-15
6.97832e-15
4.45631e-15
2.14761e-15
3.18681e-16
-1.23798e-15
-2.68963e-15
-3.89154e-15
-4.90899e-15
-5.73982e-15
-6.50568e-15
-7.05692e-15
-7.4808e-15
-5.28675e-15
-5.07673e-15
-9.18773e-15
-9.12452e-15
-8.99055e-15
-8.88789e-15
-8.71448e-15
-8.58721e-15
-8.37932e-15
-8.22067e-15
-7.9783e-15
-7.77021e-15
-7.48299e-15
-7.22014e-15
-6.89864e-15
-6.6061e-15
-6.24578e-15
-5.92145e-15
-5.5459e-15
-5.17907e-15
-4.7812e-15
-4.41556e-15
-4.02527e-15
-3.68312e-15
-3.36273e-15
-3.07858e-15
-2.79119e-15
-2.53615e-15
-2.29587e-15
-2.0645e-15
-1.83325e-15
-1.61225e-15
-1.41832e-15
-1.24066e-15
-1.05706e-15
-8.90242e-16
-7.43886e-16
-6.09672e-16
-4.80417e-16
-3.57699e-16
-2.38695e-16
-1.24574e-16
-2.71325e-17
4.65509e-17
1.15079e-16
1.49051e-16
1.93462e-16
1.954e-16
2.27219e-16
2.2478e-16
2.15937e-16
1.85306e-16
1.63092e-16
1.25368e-16
8.35434e-17
7.60898e-17
8.10891e-17
1.21116e-16
1.57868e-16
1.82876e-16
2.27414e-16
2.47139e-16
2.73444e-16
2.86795e-16
3.35476e-16
3.56e-16
3.74967e-16
3.61363e-16
3.72818e-16
3.46494e-16
3.34069e-16
2.94787e-16
3.08181e-16
3.02947e-16
2.99186e-16
2.72409e-16
2.626e-16
2.30258e-16
1.99371e-16
1.53918e-16
1.41223e-16
1.02377e-16
6.70803e-17
1.11804e-17
-2.32541e-17
-7.81566e-17
-1.29394e-16
-2.49961e-16
-1.07851e-16
-7.52821e-17
-3.09742e-17
-7.4137e-17
-5.14536e-17
-1.50947e-16
-2.54191e-16
-4.67246e-16
-5.0816e-16
-6.74577e-16
-8.43099e-16
-1.13879e-15
-1.38559e-15
-1.6885e-15
-2.0101e-15
-2.32418e-15
-2.86722e-15
-3.23473e-15
-3.60017e-15
-3.64049e-15
-3.93739e-15
-3.75432e-15
-3.56972e-15
-3.23413e-15
-2.64551e-15
-1.90114e-15
-1.13434e-15
-9.73888e-16
1.41745e-15
8.67681e-17
-3.59791e-15
)
;

boundaryField
{
    inandouthalf11
    {
        type            cyclic;
        value           nonuniform List<scalar> 
100
(
7.68986e-11
7.70291e-11
7.63204e-11
7.4321e-11
7.17995e-11
7.00839e-11
7.00253e-11
7.15935e-11
7.39431e-11
7.6e-11
7.72592e-11
7.78515e-11
7.80869e-11
7.81706e-11
7.81943e-11
7.81922e-11
7.81769e-11
7.81536e-11
7.81261e-11
7.80984e-11
7.80728e-11
7.80523e-11
7.80369e-11
7.8026e-11
7.80185e-11
7.8013e-11
7.80088e-11
7.80057e-11
7.80031e-11
7.8001e-11
7.79995e-11
7.79992e-11
7.79994e-11
7.80016e-11
7.80044e-11
7.80089e-11
7.80144e-11
7.80216e-11
7.80304e-11
7.80397e-11
7.80513e-11
7.80639e-11
7.80775e-11
7.80934e-11
7.81104e-11
7.81291e-11
7.81496e-11
7.81712e-11
7.81951e-11
7.82213e-11
7.82488e-11
7.82787e-11
7.83106e-11
7.83448e-11
7.8381e-11
7.842e-11
7.84607e-11
7.85042e-11
7.85497e-11
7.8597e-11
7.86468e-11
7.86976e-11
7.87498e-11
7.88021e-11
7.88542e-11
7.89049e-11
7.89533e-11
7.89983e-11
7.90384e-11
7.90723e-11
7.90989e-11
7.91166e-11
7.91238e-11
7.91204e-11
7.91062e-11
7.90824e-11
7.90507e-11
7.90139e-11
7.89743e-11
7.89341e-11
7.88945e-11
7.88561e-11
7.88187e-11
7.87819e-11
7.87452e-11
7.87082e-11
7.86707e-11
7.86328e-11
7.8595e-11
7.85578e-11
7.85219e-11
7.84877e-11
7.8456e-11
7.8427e-11
7.84013e-11
7.83793e-11
7.83614e-11
7.83479e-11
7.83394e-11
7.83362e-11
)
;
    }
    inandouthalf12
    {
        type            cyclic;
        value           nonuniform List<scalar> 
100
(
-7.68986e-11
-7.70291e-11
-7.63204e-11
-7.4321e-11
-7.17995e-11
-7.00839e-11
-7.00253e-11
-7.15935e-11
-7.39431e-11
-7.6e-11
-7.72592e-11
-7.78515e-11
-7.80869e-11
-7.81706e-11
-7.81943e-11
-7.81922e-11
-7.81769e-11
-7.81536e-11
-7.81261e-11
-7.80984e-11
-7.80728e-11
-7.80523e-11
-7.80369e-11
-7.8026e-11
-7.80185e-11
-7.8013e-11
-7.80088e-11
-7.80057e-11
-7.80031e-11
-7.8001e-11
-7.79995e-11
-7.79992e-11
-7.79994e-11
-7.80016e-11
-7.80044e-11
-7.80089e-11
-7.80144e-11
-7.80216e-11
-7.80304e-11
-7.80397e-11
-7.80513e-11
-7.80639e-11
-7.80775e-11
-7.80934e-11
-7.81104e-11
-7.81291e-11
-7.81496e-11
-7.81712e-11
-7.81951e-11
-7.82213e-11
-7.82488e-11
-7.82787e-11
-7.83106e-11
-7.83448e-11
-7.8381e-11
-7.842e-11
-7.84607e-11
-7.85042e-11
-7.85497e-11
-7.8597e-11
-7.86468e-11
-7.86976e-11
-7.87498e-11
-7.88021e-11
-7.88542e-11
-7.89049e-11
-7.89533e-11
-7.89983e-11
-7.90384e-11
-7.90723e-11
-7.90989e-11
-7.91166e-11
-7.91238e-11
-7.91204e-11
-7.91062e-11
-7.90824e-11
-7.90507e-11
-7.90139e-11
-7.89743e-11
-7.89341e-11
-7.88945e-11
-7.88561e-11
-7.88187e-11
-7.87819e-11
-7.87452e-11
-7.87082e-11
-7.86707e-11
-7.86328e-11
-7.8595e-11
-7.85578e-11
-7.85219e-11
-7.84877e-11
-7.8456e-11
-7.8427e-11
-7.84013e-11
-7.83793e-11
-7.83614e-11
-7.83479e-11
-7.83394e-11
-7.83362e-11
)
;
    }
    inandouthalf21
    {
        type            cyclic;
        value           nonuniform List<scalar> 
100
(
7.83386e-11
7.83469e-11
7.83614e-11
7.83821e-11
7.84091e-11
7.84427e-11
7.84829e-11
7.85296e-11
7.85828e-11
7.86427e-11
7.8709e-11
7.87818e-11
7.88611e-11
7.89469e-11
7.90391e-11
7.91379e-11
7.92433e-11
7.93554e-11
7.94744e-11
7.96006e-11
7.97342e-11
7.98755e-11
8.00247e-11
8.01822e-11
8.03481e-11
8.05226e-11
8.07059e-11
8.08983e-11
8.11006e-11
8.13137e-11
8.15385e-11
8.17757e-11
8.2026e-11
8.22902e-11
8.25703e-11
8.28678e-11
8.31824e-11
8.35139e-11
8.38683e-11
8.42616e-11
8.47003e-11
8.51626e-11
8.564e-11
8.615e-11
8.67036e-11
8.80188e-11
7.3228e-11
-2.09068e-09
2.9546e-07
3.9306e-07
4.6361e-07
5.42035e-07
6.14875e-07
6.79916e-07
7.37916e-07
7.90143e-07
8.37756e-07
8.8169e-07
9.22672e-07
9.61263e-07
9.97895e-07
1.0329e-06
1.06655e-06
1.09903e-06
1.13051e-06
1.16112e-06
1.19095e-06
1.22008e-06
1.24859e-06
1.2765e-06
1.30388e-06
1.33073e-06
1.35709e-06
1.38295e-06
1.40833e-06
1.43323e-06
1.45762e-06
1.48151e-06
1.5049e-06
1.52775e-06
1.55001e-06
1.57164e-06
1.59255e-06
1.61263e-06
1.6317e-06
1.64953e-06
1.66578e-06
1.68001e-06
1.69167e-06
1.70011e-06
1.70442e-06
1.70325e-06
1.69417e-06
1.67236e-06
1.63699e-06
1.45496e-06
1.29766e-06
1.2812e-06
1.28055e-06
1.2804e-06
)
;
    }
    inandouthalf22
    {
        type            cyclic;
        value           nonuniform List<scalar> 
100
(
-7.83386e-11
-7.83469e-11
-7.83614e-11
-7.83821e-11
-7.84091e-11
-7.84427e-11
-7.84829e-11
-7.85296e-11
-7.85828e-11
-7.86427e-11
-7.8709e-11
-7.87818e-11
-7.88611e-11
-7.89469e-11
-7.90391e-11
-7.91379e-11
-7.92433e-11
-7.93554e-11
-7.94744e-11
-7.96006e-11
-7.97342e-11
-7.98755e-11
-8.00247e-11
-8.01822e-11
-8.03481e-11
-8.05226e-11
-8.07059e-11
-8.08983e-11
-8.11006e-11
-8.13137e-11
-8.15385e-11
-8.17757e-11
-8.2026e-11
-8.22902e-11
-8.25703e-11
-8.28678e-11
-8.31824e-11
-8.35139e-11
-8.38683e-11
-8.42616e-11
-8.47003e-11
-8.51626e-11
-8.564e-11
-8.615e-11
-8.67036e-11
-8.80188e-11
-7.3228e-11
2.09068e-09
-2.9546e-07
-3.9306e-07
-4.6361e-07
-5.42035e-07
-6.14875e-07
-6.79916e-07
-7.37916e-07
-7.90143e-07
-8.37756e-07
-8.8169e-07
-9.22672e-07
-9.61263e-07
-9.97895e-07
-1.0329e-06
-1.06655e-06
-1.09903e-06
-1.13051e-06
-1.16112e-06
-1.19095e-06
-1.22008e-06
-1.24859e-06
-1.2765e-06
-1.30388e-06
-1.33073e-06
-1.35709e-06
-1.38295e-06
-1.40833e-06
-1.43323e-06
-1.45762e-06
-1.48151e-06
-1.5049e-06
-1.52775e-06
-1.55001e-06
-1.57164e-06
-1.59255e-06
-1.61263e-06
-1.6317e-06
-1.64953e-06
-1.66578e-06
-1.68001e-06
-1.69167e-06
-1.70011e-06
-1.70442e-06
-1.70325e-06
-1.69417e-06
-1.67236e-06
-1.63699e-06
-1.45496e-06
-1.29766e-06
-1.2812e-06
-1.28055e-06
-1.2804e-06
)
;
    }
    inandouthalf31
    {
        type            cyclic;
        value           nonuniform List<scalar> 
110
(
1.28029e-06
1.30618e-06
1.33261e-06
1.35958e-06
1.38712e-06
1.41521e-06
1.44389e-06
1.47315e-06
1.50301e-06
1.53348e-06
1.56458e-06
1.59631e-06
1.62868e-06
1.66172e-06
1.69543e-06
1.72982e-06
1.76491e-06
1.80072e-06
1.83726e-06
1.87454e-06
1.91258e-06
1.95139e-06
1.99099e-06
2.0314e-06
2.07262e-06
2.11469e-06
2.15761e-06
2.20139e-06
2.24607e-06
2.29166e-06
2.33817e-06
2.38563e-06
2.43405e-06
2.48345e-06
2.53386e-06
2.58529e-06
2.63776e-06
2.6913e-06
2.74592e-06
2.80166e-06
2.85852e-06
2.91654e-06
2.97574e-06
3.03614e-06
3.09776e-06
3.16064e-06
3.22479e-06
3.29025e-06
3.35703e-06
3.42517e-06
3.49469e-06
3.56562e-06
3.638e-06
3.71184e-06
3.78718e-06
3.86405e-06
3.94248e-06
4.0225e-06
4.10415e-06
4.18745e-06
4.27244e-06
4.35916e-06
4.44764e-06
4.53792e-06
4.63003e-06
4.724e-06
4.81989e-06
4.91772e-06
5.01753e-06
5.11938e-06
5.22329e-06
5.32931e-06
5.43748e-06
5.54784e-06
5.66045e-06
5.77534e-06
5.89257e-06
6.01217e-06
6.1342e-06
6.25871e-06
6.38574e-06
6.51536e-06
6.6476e-06
6.78253e-06
6.9202e-06
7.06066e-06
7.20397e-06
7.35019e-06
7.49938e-06
7.6516e-06
7.80691e-06
7.96537e-06
8.12704e-06
8.292e-06
8.4603e-06
8.63203e-06
8.80723e-06
8.986e-06
9.16839e-06
9.35448e-06
9.54435e-06
9.73808e-06
9.93573e-06
1.01374e-05
1.03432e-05
1.05531e-05
1.07673e-05
1.09859e-05
1.12088e-05
1.14363e-05
)
;
    }
    inandouthalf32
    {
        type            cyclic;
        value           nonuniform List<scalar> 
110
(
-1.28029e-06
-1.30618e-06
-1.33261e-06
-1.35958e-06
-1.38712e-06
-1.41521e-06
-1.44389e-06
-1.47315e-06
-1.50301e-06
-1.53348e-06
-1.56458e-06
-1.59631e-06
-1.62868e-06
-1.66172e-06
-1.69543e-06
-1.72982e-06
-1.76491e-06
-1.80072e-06
-1.83726e-06
-1.87454e-06
-1.91258e-06
-1.95139e-06
-1.99099e-06
-2.0314e-06
-2.07262e-06
-2.11469e-06
-2.15761e-06
-2.20139e-06
-2.24607e-06
-2.29166e-06
-2.33817e-06
-2.38563e-06
-2.43405e-06
-2.48345e-06
-2.53386e-06
-2.58529e-06
-2.63776e-06
-2.6913e-06
-2.74592e-06
-2.80166e-06
-2.85852e-06
-2.91654e-06
-2.97574e-06
-3.03614e-06
-3.09776e-06
-3.16064e-06
-3.22479e-06
-3.29025e-06
-3.35703e-06
-3.42517e-06
-3.49469e-06
-3.56562e-06
-3.638e-06
-3.71184e-06
-3.78718e-06
-3.86405e-06
-3.94248e-06
-4.0225e-06
-4.10415e-06
-4.18745e-06
-4.27244e-06
-4.35916e-06
-4.44764e-06
-4.53792e-06
-4.63003e-06
-4.724e-06
-4.81989e-06
-4.91772e-06
-5.01753e-06
-5.11938e-06
-5.22329e-06
-5.32931e-06
-5.43748e-06
-5.54784e-06
-5.66045e-06
-5.77534e-06
-5.89257e-06
-6.01217e-06
-6.1342e-06
-6.25871e-06
-6.38574e-06
-6.51536e-06
-6.6476e-06
-6.78253e-06
-6.9202e-06
-7.06066e-06
-7.20397e-06
-7.35019e-06
-7.49938e-06
-7.6516e-06
-7.80691e-06
-7.96537e-06
-8.12704e-06
-8.292e-06
-8.4603e-06
-8.63203e-06
-8.80723e-06
-8.986e-06
-9.16839e-06
-9.35448e-06
-9.54435e-06
-9.73808e-06
-9.93573e-06
-1.01374e-05
-1.03432e-05
-1.05531e-05
-1.07673e-05
-1.09859e-05
-1.12088e-05
-1.14363e-05
)
;
    }
    inandouthalf41
    {
        type            cyclic;
        value           nonuniform List<scalar> 
50
(
1.02367e-05
1.02367e-05
1.02367e-05
1.02367e-05
1.02367e-05
1.02367e-05
1.02367e-05
1.02367e-05
1.02367e-05
1.02367e-05
1.02367e-05
1.02367e-05
1.02367e-05
1.02367e-05
1.02367e-05
1.02367e-05
1.02367e-05
1.02367e-05
1.02367e-05
1.02367e-05
1.02367e-05
1.02367e-05
1.02367e-05
1.02367e-05
1.02367e-05
1.02367e-05
1.02367e-05
1.02367e-05
1.02367e-05
1.02367e-05
1.02367e-05
1.02367e-05
1.02367e-05
1.02367e-05
1.02367e-05
1.02367e-05
1.02367e-05
1.02367e-05
1.02367e-05
1.02367e-05
1.02367e-05
1.02367e-05
1.02367e-05
1.02367e-05
1.02367e-05
1.02367e-05
1.02367e-05
1.02367e-05
1.02367e-05
1.02367e-05
)
;
    }
    inandouthalf42
    {
        type            cyclic;
        value           nonuniform List<scalar> 
50
(
-1.02367e-05
-1.02367e-05
-1.02367e-05
-1.02367e-05
-1.02367e-05
-1.02367e-05
-1.02367e-05
-1.02367e-05
-1.02367e-05
-1.02367e-05
-1.02367e-05
-1.02367e-05
-1.02367e-05
-1.02367e-05
-1.02367e-05
-1.02367e-05
-1.02367e-05
-1.02367e-05
-1.02367e-05
-1.02367e-05
-1.02367e-05
-1.02367e-05
-1.02367e-05
-1.02367e-05
-1.02367e-05
-1.02367e-05
-1.02367e-05
-1.02367e-05
-1.02367e-05
-1.02367e-05
-1.02367e-05
-1.02367e-05
-1.02367e-05
-1.02367e-05
-1.02367e-05
-1.02367e-05
-1.02367e-05
-1.02367e-05
-1.02367e-05
-1.02367e-05
-1.02367e-05
-1.02367e-05
-1.02367e-05
-1.02367e-05
-1.02367e-05
-1.02367e-05
-1.02367e-05
-1.02367e-05
-1.02367e-05
-1.02367e-05
)
;
    }
    top
    {
        type            symmetryPlane;
        value           uniform 0;
    }
    walls
    {
        type            calculated;
        value           uniform 0;
    }
    frontAndBackPlanes
    {
        type            empty;
        value           nonuniform 0();
    }
}


// ************************************************************************* //
