/*--------------------------------*- C++ -*----------------------------------*\
| =========                 |                                                 |
| \\      /  F ield         | OpenFOAM: The Open Source CFD Toolbox           |
|  \\    /   O peration     | Version:  2.4.x                                 |
|   \\  /    A nd           | Web:      www.OpenFOAM.org                      |
|    \\/     M anipulation  |                                                 |
\*---------------------------------------------------------------------------*/
FoamFile
{
    version     2.0;
    format      ascii;
    class       volVectorField;
    location    "2.65";
    object      gradPf;
}
// * * * * * * * * * * * * * * * * * * * * * * * * * * * * * * * * * * * * * //

dimensions      [0 1 -2 0 0 0 0];

internalField   nonuniform List<vector> 
360
(
(0 -1.5392e-09 0)
(0 1.13543 0)
(0 4.83731 0)
(0 7.81233 0)
(-1.67633e-14 5.51815 0)
(-3.35252e-14 0.0932646 0)
(-1.67632e-14 -3.78154 0)
(0 -4.64293 0)
(-3.35309e-14 -3.68266 0)
(0 -2.36821 0)
(-1.67666e-14 -1.26171 0)
(0 -0.641467 0)
(-3.35338e-14 -0.378997 0)
(0 -0.225332 0)
(0 -0.150051 0)
(0 -0.112616 0)
(0 -0.0940455 0)
(-3.35342e-14 -0.0860231 0)
(0 -0.138309 0)
(0 -0.140364 0)
(0 -0.144349 0)
(-1.67672e-14 -0.202791 0)
(0 -0.206865 0)
(0 -0.21002 0)
(0 -0.211359 0)
(-1.67674e-14 -0.210118 0)
(0 -0.260843 0)
(0 -0.311404 0)
(0 -0.309231 0)
(0 -0.308354 0)
(0 -0.360915 0)
(0 -0.359163 0)
(0 -0.410162 0)
(0 -0.460909 0)
(0 -0.457712 0)
(1.67683e-14 -0.506887 0)
(0 -0.555239 0)
(0 -0.656297 0)
(0 -0.652096 0)
(0 -0.70113 0)
(0 -0.801939 0)
(0 -0.795695 0)
(1.67695e-14 -0.892383 0)
(0 -0.987156 0)
(0 -1.02839 0)
(0 -1.12003 0)
(0 -1.15626 0)
(0 -1.23858 0)
(0 -1.41779 0)
(0 -1.49159 0)
(1.6772e-14 -1.56265 0)
(0 -1.67997 0)
(0 -1.78841 0)
(0 -1.88703 0)
(0 -2.02172 0)
(0 -2.14291 0)
(0 -2.24786 0)
(0 -2.38201 0)
(0 -2.44565 0)
(0 -2.57119 0)
(0 -2.66189 0)
(0 -2.71261 0)
(0 -2.77047 0)
(0 -2.79284 0)
(0 -2.82949 0)
(0 -2.88501 0)
(0 -2.9691 0)
(0 -3.05184 0)
(0 -3.13103 0)
(0 -3.25362 0)
(0 -3.39465 0)
(0 -3.45544 0)
(0 -3.52428 0)
(0 -3.59677 0)
(0 -3.63226 0)
(0 -3.64219 0)
(0 -3.63019 0)
(0 -3.64379 0)
(0 -3.66517 0)
(0 -3.68748 0)
(0 -3.72614 0)
(0 -3.78433 0)
(0 -3.83947 0)
(0 -3.89198 0)
(0 -3.93718 0)
(0 -3.97287 0)
(0 -3.99675 0)
(0 -4.00892 0)
(0 -4.01978 0)
(0 -4.02992 0)
(0 -4.03984 0)
(0 -4.05446 0)
(0 -4.07327 0)
(0 -4.09277 0)
(0 -4.11252 0)
(0 -4.13139 0)
(0 -4.14824 0)
(0 -4.16307 0)
(0 -4.17657 0)
(0 -4.18908 0)
(0 -4.20079 0)
(0 -4.21217 0)
(0 -4.22312 0)
(0 -4.23332 0)
(0 -4.24271 0)
(0 -4.25128 0)
(0 -4.259 0)
(0 -4.26597 0)
(0 -4.27227 0)
(0 -4.27791 0)
(0 -4.28293 0)
(0 -4.28731 0)
(0 -4.29108 0)
(0 -4.29426 0)
(0 -4.29688 0)
(0 -4.299 0)
(0 -4.30066 0)
(0 -4.30192 0)
(0 -4.3028 0)
(0 -4.30325 0)
(0 -4.3031 0)
(0 -4.30209 0)
(0 -4.29991 0)
(0 -4.29646 0)
(0 -4.29211 0)
(0 -4.2878 0)
(0 -4.28467 0)
(0 -4.28266 0)
(0 -4.27885 0)
(0 -4.26717 0)
(0 -4.24293 0)
(0 -4.21209 0)
(0 -4.19342 0)
(0 -4.19414 0)
(0 -4.18043 0)
(0 -4.11353 0)
(0 -4.03268 0)
(0 -4.05361 0)
(0 -4.22453 0)
(0 -4.31812 0)
(0 -3.98892 0)
(0 -3.89705 0)
(0 -4.52338 0)
(0 -5.14111 0)
(0 -5.95956 0)
(0 -14.6374 0)
(0 -14.0257 0)
(0 -2.63069 0)
(0 -0.00244389 0)
(0 0 0)
(0 0 0)
(0 0 0)
(0 0 0)
(0 0 0)
(0 0 0)
(0 0 0)
(0 0 0)
(0 0 0)
(0 0 0)
(0 0 0)
(0 0 0)
(0 0 0)
(0 0 0)
(0 0 0)
(0 0 0)
(0 0 0)
(0 0 0)
(0 0 0)
(0 0 0)
(0 0 0)
(0 0 0)
(0 0 0)
(0 0 0)
(0 0 0)
(0 0 0)
(0 0 0)
(0 0 0)
(0 0 0)
(0 0 0)
(0 0 0)
(0 0 0)
(0 0 0)
(0 0 0)
(0 0 0)
(0 0 0)
(0 0 0)
(0 0 0)
(0 0 0)
(0 0 0)
(0 0 0)
(0 0 0)
(0 0 0)
(0 0 0)
(0 0 0)
(0 0 0)
(0 0 0)
(0 0 0)
(0 0 0)
(0 0 0)
(0 0 0)
(0 0 0)
(0 0 0)
(0 0 0)
(0 0 0)
(0 0 0)
(0 0 0)
(0 0 0)
(0 0 0)
(0 0 0)
(0 0 0)
(0 0 0)
(0 0 0)
(0 0 0)
(0 0 0)
(0 0 0)
(0 0 0)
(0 0 0)
(0 0 0)
(0 0 0)
(0 0 0)
(0 0 0)
(0 0 0)
(0 0 0)
(0 0 0)
(0 0 0)
(0 0 0)
(0 0 0)
(0 0 0)
(0 0 0)
(0 0 0)
(0 0 0)
(0 0 0)
(0 0 0)
(0 0 0)
(0 0 0)
(0 0 0)
(0 0 0)
(0 0 0)
(0 0 0)
(0 0 0)
(0 0 0)
(0 0 0)
(0 0 0)
(0 0 0)
(0 0 0)
(0 0 0)
(0 0 0)
(0 0 0)
(0 0 0)
(0 0 0)
(0 0 0)
(0 0 0)
(0 0 0)
(0 0 0)
(0 0 0)
(0 0 0)
(0 0 0)
(0 0 0)
(0 0 0)
(0 0 0)
(0 0 0)
(0 0 0)
(0 0 0)
(0 0 0)
(0 0 0)
(0 0 0)
(0 0 0)
(0 0 0)
(0 0 0)
(0 0 0)
(0 0 0)
(0 0 0)
(0 0 0)
(0 0 0)
(0 0 0)
(0 0 0)
(0 0 0)
(0 0 0)
(0 0 0)
(0 0 0)
(0 0 0)
(0 0 0)
(0 0 0)
(0 0 0)
(0 0 0)
(0 0 0)
(0 0 0)
(0 0 0)
(0 0 0)
(0 0 0)
(0 0 0)
(0 0 0)
(0 0 0)
(0 0 0)
(0 0 0)
(0 0 0)
(0 0 0)
(0 0 0)
(0 0 0)
(0 0 0)
(0 0 0)
(0 0 0)
(0 0 0)
(0 0 0)
(0 0 0)
(0 0 0)
(0 0 0)
(0 0 0)
(0 0 0)
(0 0 0)
(0 0 0)
(0 0 0)
(0 0 0)
(0 0 0)
(0 0 0)
(0 0 0)
(0 0 0)
(0 0 0)
(0 0 0)
(0 0 0)
(0 0 0)
(0 0 0)
(0 0 0)
(0 0 0)
(0 0 0)
(0 0 0)
(0 0 0)
(0 0 0)
(0 0 0)
(0 0 0)
(0 0 0)
(0 0 0)
(0 0 0)
(0 0 0)
(0 0 0)
(0 0 0)
(0 0 0)
(0 0 0)
(0 0 0)
(0 0 0)
(0 0 0)
(0 0 0)
(0 0 0)
(0 0 0)
(0 0 0)
(0 0 0)
(0 0 0)
(0 0 0)
(0 0 0)
(0 0 0)
(0 0 0)
(0 0 0)
(0 0 0)
(0 0 0)
(0 0 0)
(0 0 0)
(0 0 0)
(0 0 0)
(0 0 0)
(0 0 0)
)
;

boundaryField
{
    inandouthalf11
    {
        type            cyclic;
    }
    inandouthalf12
    {
        type            cyclic;
    }
    inandouthalf21
    {
        type            cyclic;
    }
    inandouthalf22
    {
        type            cyclic;
    }
    inandouthalf31
    {
        type            cyclic;
    }
    inandouthalf32
    {
        type            cyclic;
    }
    inandouthalf41
    {
        type            cyclic;
    }
    inandouthalf42
    {
        type            cyclic;
    }
    top
    {
        type            symmetryPlane;
    }
    walls
    {
        type            calculated;
        value           uniform (0 0 0);
    }
    frontAndBackPlanes
    {
        type            empty;
    }
}


// ************************************************************************* //
