/*--------------------------------*- C++ -*----------------------------------*\
| =========                 |                                                 |
| \\      /  F ield         | OpenFOAM: The Open Source CFD Toolbox           |
|  \\    /   O peration     | Version:  2.4.x                                 |
|   \\  /    A nd           | Web:      www.OpenFOAM.org                      |
|    \\/     M anipulation  |                                                 |
\*---------------------------------------------------------------------------*/
FoamFile
{
    version     2.0;
    format      ascii;
    class       volVectorField;
    location    "2.65";
    object      gradPs;
}
// * * * * * * * * * * * * * * * * * * * * * * * * * * * * * * * * * * * * * //

dimensions      [0 1 -2 0 0 0 0];

internalField   nonuniform List<vector> 
360
(
(0 1.38242e-25 0)
(0 9.36424e-19 0)
(0 1.20344e-17 0)
(0 3.22164e-17 0)
(-1.45398e-32 2.59984e-17 0)
(-2.90785e-32 -6.09377e-18 0)
(-1.45398e-32 -2.37921e-17 0)
(0 -2.14376e-17 0)
(-2.90834e-32 -1.25739e-17 0)
(0 -5.20498e-18 0)
(-1.45427e-32 -1.54442e-18 0)
(0 -3.55082e-19 0)
(-1.4543e-32 -7.72426e-20 0)
(0 -2.05462e-20 0)
(0 -7.98113e-21 0)
(0 -4.32932e-21 0)
(0 -2.88749e-21 0)
(-1.45431e-32 -2.21418e-21 0)
(0 -3.66677e-21 0)
(0 -3.73644e-21 0)
(0 -4.04411e-21 0)
(-2.90865e-32 -6.16142e-21 0)
(0 -6.54493e-21 0)
(0 -6.81608e-21 0)
(0 -6.92911e-21 0)
(-1.45434e-32 -6.87944e-21 0)
(0 -8.43245e-21 0)
(0 -9.97004e-21 0)
(0 -9.84549e-21 0)
(0 -9.77588e-21 0)
(0 -1.14209e-20 0)
(0 -1.13479e-20 0)
(0 -1.29692e-20 0)
(0 -1.45883e-20 0)
(0 -1.44962e-20 0)
(1.45442e-32 -1.60737e-20 0)
(0 -1.76248e-20 0)
(0 -2.08725e-20 0)
(0 -2.07487e-20 0)
(0 -2.23439e-20 0)
(0 -2.56066e-20 0)
(0 -2.54218e-20 0)
(1.45452e-32 -2.85676e-20 0)
(0 -3.16555e-20 0)
(0 -3.30235e-20 0)
(0 -3.60428e-20 0)
(0 -3.72511e-20 0)
(0 -3.99615e-20 0)
(0 -4.58604e-20 0)
(0 -4.83075e-20 0)
(1.45474e-32 -5.069e-20 0)
(0 -5.46031e-20 0)
(0 -5.823e-20 0)
(0 -6.15087e-20 0)
(0 -6.60028e-20 0)
(0 -7.00206e-20 0)
(0 -7.35071e-20 0)
(0 -7.80101e-20 0)
(0 -8.0125e-20 0)
(0 -8.44603e-20 0)
(0 -8.76876e-20 0)
(0 -8.9703e-20 0)
(0 -9.211e-20 0)
(0 -9.3312e-20 0)
(0 -9.48654e-20 0)
(0 -9.67021e-20 0)
(0 -9.89751e-20 0)
(0 -1.00448e-19 0)
(0 -1.00851e-19 0)
(0 -1.01839e-19 0)
(0 -1.02745e-19 0)
(0 -1.00426e-19 0)
(0 -9.90297e-20 0)
(0 -9.94016e-20 0)
(0 -1.01329e-19 0)
(0 -1.06078e-19 0)
(0 -1.13358e-19 0)
(0 -1.23435e-19 0)
(0 -1.33664e-19 0)
(0 -1.42136e-19 0)
(0 -1.48432e-19 0)
(0 -1.52541e-19 0)
(0 -1.54214e-19 0)
(0 -1.54513e-19 0)
(0 -1.54307e-19 0)
(0 -1.54527e-19 0)
(0 -1.55893e-19 0)
(0 -1.58817e-19 0)
(0 -1.6369e-19 0)
(0 -1.70107e-19 0)
(0 -1.77449e-19 0)
(0 -1.85252e-19 0)
(0 -1.93009e-19 0)
(0 -2.0038e-19 0)
(0 -2.07395e-19 0)
(0 -2.14165e-19 0)
(0 -2.20831e-19 0)
(0 -2.27523e-19 0)
(0 -2.36358e-19 0)
(0 -1.75382e-16 0)
(0 -1.75281e-16 0)
(0 0 0)
(0 0 0)
(0 0 0)
(0 0 0)
(0 0 0)
(0 0 0)
(0 0 0)
(0 0 0)
(0 0 0)
(0 0 0)
(0 0 0)
(0 0 0)
(0 0 0)
(0 1.73207e-16 0)
(0 1.73045e-16 0)
(0 -3.88807e-19 0)
(0 -4.01278e-19 0)
(0 -4.14282e-19 0)
(0 -4.27798e-19 0)
(0 -4.41786e-19 0)
(0 -4.5618e-19 0)
(0 -4.70867e-19 0)
(0 -4.85703e-19 0)
(0 -5.00572e-19 0)
(0 -5.15501e-19 0)
(0 -5.30768e-19 0)
(0 -5.46905e-19 0)
(0 -5.64447e-19 0)
(0 -5.82298e-19 0)
(0 1.46358e-16 0)
(0 2.65269e-15 0)
(0 2.95775e-14 0)
(0 2.98444e-13 0)
(0 2.81679e-12 0)
(0 2.47748e-11 0)
(0 2.02095e-10 0)
(0 1.52503e-09 0)
(0 1.06627e-08 0)
(0 6.95989e-08 0)
(0 4.3223e-07 0)
(0 2.67856e-06 0)
(0 1.7969e-05 0)
(0 0.00014602 0)
(0 0.00181838 0)
(0 0.0399322 0)
(0 0.595353 0)
(0 0.916625 0)
(0 0.602172 0)
(0 -0.198144 0)
(0 -0.686061 0)
(0 -0.798654 0)
(0 -0.842156 0)
(0 -0.884056 0)
(0 -0.92945 0)
(0 -0.978411 0)
(0 -1.03005 0)
(0 -1.0837 0)
(0 -1.13891 0)
(0 -1.19513 0)
(0 -1.25242 0)
(0 -1.31061 0)
(0 -1.36946 0)
(0 -1.42885 0)
(0 -1.4889 0)
(0 -1.54973 0)
(0 -1.61148 0)
(0 -1.67446 0)
(0 -1.73913 0)
(0 -1.80624 0)
(0 -1.877 0)
(0 -1.95288 0)
(0 -2.03425 0)
(0 -2.11773 0)
(0 -2.18664 0)
(0 -2.20775 0)
(0 -2.18336 0)
(0 -2.15958 0)
(0 -2.14887 0)
(0 -2.14539 0)
(0 -2.15321 0)
(0 -2.18489 0)
(0 -2.26891 0)
(0 -2.45203 0)
(0 -2.78492 0)
(0 -3.28764 0)
(0 -3.90986 0)
(0 -4.50805 0)
(0 -4.86176 0)
(0 -4.75994 0)
(0 -4.18183 0)
(0 -3.36174 0)
(0 -2.59323 0)
(0 -2.0152 0)
(0 -1.62333 0)
(0 -1.36903 0)
(0 -1.18597 0)
(0 -1.03748 0)
(0 -0.911066 0)
(0 -0.812028 0)
(0 -0.742995 0)
(0 -0.67535 0)
(-2.47556e-16 -0.586322 0)
(0 -0.51024 0)
(0 -0.48155 0)
(1.37953e-16 -0.450397 0)
(0 -0.373481 0)
(-1.44964e-16 -0.317046 0)
(0 -0.306422 0)
(7.53568e-17 -0.276843 0)
(0 -0.227942 0)
(0 -0.203233 0)
(0 -0.184755 0)
(7.80843e-17 -0.154554 0)
(0 -0.135159 0)
(0 -0.123675 0)
(0 -0.100613 0)
(0 -0.0822669 0)
(0 -0.0768826 0)
(-1.91831e-17 -0.0659584 0)
(0 -0.052687 0)
(-1.88039e-17 -0.0453727 0)
(0 -0.0383477 0)
(-9.17687e-18 -0.0323372 0)
(0 -0.0281324 0)
(0 -0.0224032 0)
(0 -0.0181629 0)
(0 -0.0158788 0)
(4.25803e-18 -0.0125984 0)
(0 -0.0100845 0)
(0 -0.00844706 0)
(0 -0.0066606 0)
(0 -0.00528108 0)
(0 -0.00420798 0)
(0 -0.00337167 0)
(0 -0.00260977 0)
(0 -0.00199305 0)
(0 -0.00155977 0)
(0 -0.00116736 0)
(0 -0.000865813 0)
(0 -0.000807174 0)
(0 -0.000417108 0)
(0 0 0)
(0 0 0)
(0 0 0)
(0 0 0)
(0 0 0)
(0 0 0)
(0 0 0)
(0 0 0)
(0 0 0)
(0 0 0)
(0 0 0)
(0 0 0)
(0 0 0)
(0 0 0)
(0 0 0)
(0 0 0)
(0 0 0)
(0 0 0)
(0 0 0)
(0 0 0)
(0 0 0)
(0 0 0)
(0 0 0)
(0 0 0)
(0 0 0)
(0 0 0)
(0 0 0)
(0 0 0)
(0 0 0)
(0 0 0)
(0 0 0)
(0 0 0)
(0 0 0)
(0 0 0)
(0 0 0)
(0 0 0)
(0 0 0)
(0 0 0)
(0 0 0)
(0 0 0)
(0 0 0)
(0 0 0)
(0 0 0)
(0 0 0)
(0 0 0)
(0 0 0)
(0 0 0)
(0 0 0)
(0 0 0)
(0 0 0)
(0 0 0)
(0 0 0)
(0 0 0)
(0 0 0)
(0 0 0)
(0 0 0)
(0 0 0)
(0 0 0)
(0 0 0)
(0 0 0)
(0 0 0)
(0 0 0)
(0 0 0)
(0 0 0)
(0 0 0)
(0 0 0)
(0 0 0)
(0 0 0)
(0 0 0)
(0 0 0)
(0 0 0)
(0 0 0)
(0 0 0)
(0 0 0)
(0 0 0)
(0 0 0)
(0 0 0)
(0 0 0)
(0 0 0)
(0 0 0)
(0 0 0)
(0 0 0)
(0 0 0)
(0 0 0)
(0 0 0)
(0 0 0)
(0 0 0)
(0 0 0)
(0 0 0)
(0 0 0)
(0 0 0)
(0 0 0)
(0 0 0)
(0 0 0)
(0 0 0)
(0 0 0)
(0 0 0)
(0 0 0)
(0 0 0)
(0 0 0)
(0 0 0)
(0 0 0)
(0 0 0)
(0 0 0)
(0 0 0)
(0 0 0)
(0 0 0)
(0 0 0)
(0 0 0)
(0 0 0)
(0 0 0)
(0 0 0)
(0 0 0)
(0 0 0)
(0 0 0)
(0 0 0)
(0 0 0)
(0 0 0)
)
;

boundaryField
{
    inandouthalf11
    {
        type            cyclic;
    }
    inandouthalf12
    {
        type            cyclic;
    }
    inandouthalf21
    {
        type            cyclic;
    }
    inandouthalf22
    {
        type            cyclic;
    }
    inandouthalf31
    {
        type            cyclic;
    }
    inandouthalf32
    {
        type            cyclic;
    }
    inandouthalf41
    {
        type            cyclic;
    }
    inandouthalf42
    {
        type            cyclic;
    }
    top
    {
        type            symmetryPlane;
    }
    walls
    {
        type            calculated;
        value           uniform (0 0 0);
    }
    frontAndBackPlanes
    {
        type            empty;
    }
}


// ************************************************************************* //
