/*--------------------------------*- C++ -*----------------------------------*\
| =========                 |                                                 |
| \\      /  F ield         | OpenFOAM: The Open Source CFD Toolbox           |
|  \\    /   O peration     | Version:  2.4.x                                 |
|   \\  /    A nd           | Web:      www.OpenFOAM.org                      |
|    \\/     M anipulation  |                                                 |
\*---------------------------------------------------------------------------*/
FoamFile
{
    version     2.0;
    format      ascii;
    class       volScalarField;
    location    "2.65";
    object      pa;
}
// * * * * * * * * * * * * * * * * * * * * * * * * * * * * * * * * * * * * * //

dimensions      [1 -1 -2 0 0 0 0];

internalField   nonuniform List<scalar> 
360
(
2.87809e-16
2.87809e-16
2.89323e-16
3.07264e-16
3.41408e-16
3.49301e-16
3.31555e-16
3.10831e-16
2.96894e-16
2.90502e-16
2.88479e-16
2.88006e-16
2.87905e-16
2.87881e-16
2.87872e-16
2.87868e-16
2.87865e-16
2.87863e-16
2.87862e-16
2.87857e-16
2.87855e-16
2.87851e-16
2.87846e-16
2.8784e-16
2.87834e-16
2.87829e-16
2.87823e-16
2.87815e-16
2.87807e-16
2.87799e-16
2.87791e-16
2.87781e-16
2.87773e-16
2.8776e-16
2.8775e-16
2.87736e-16
2.87724e-16
2.87708e-16
2.8769e-16
2.87674e-16
2.87654e-16
2.87633e-16
2.87613e-16
2.87587e-16
2.87561e-16
2.87534e-16
2.87503e-16
2.87473e-16
2.87439e-16
2.87399e-16
2.87361e-16
2.87317e-16
2.87272e-16
2.87223e-16
2.87173e-16
2.87117e-16
2.8706e-16
2.86998e-16
2.86934e-16
2.86868e-16
2.86797e-16
2.86727e-16
2.86652e-16
2.86578e-16
2.86502e-16
2.86425e-16
2.86345e-16
2.86265e-16
2.86183e-16
2.86102e-16
2.86019e-16
2.85936e-16
2.85857e-16
2.85776e-16
2.85696e-16
2.85613e-16
2.85525e-16
2.8543e-16
2.85326e-16
2.85214e-16
2.85096e-16
2.84974e-16
2.8485e-16
2.84726e-16
2.84601e-16
2.84477e-16
2.84352e-16
2.84225e-16
2.84096e-16
2.83961e-16
2.83821e-16
2.83675e-16
2.83523e-16
2.83364e-16
2.832e-16
2.8303e-16
2.82855e-16
2.82674e-16
2.82488e-16
2.82293e-16
0
0
0
0
0
0
0
0
0
0
0
0
0
0
0
2.78399e-16
2.78091e-16
2.77774e-16
2.77447e-16
2.77109e-16
2.7676e-16
2.76399e-16
2.76027e-16
2.75644e-16
2.75248e-16
2.74841e-16
2.74421e-16
2.7399e-16
2.73545e-16
2.73085e-16
2.72612e-16
5.07487e-16
4.51978e-15
4.78485e-14
4.82042e-13
4.55323e-12
4.0094e-11
3.27555e-10
2.47652e-09
1.73551e-08
1.13565e-07
7.06879e-07
4.38447e-06
2.93409e-05
0.000236883
0.00292178
0.0636627
0.937545
1.45653
1.48771
1.34384
1.20605
1.08988
0.989796
0.901604
0.822587
0.750928
0.685432
0.625208
0.569633
0.518214
0.470556
0.426347
0.385331
0.347292
0.312035
0.279395
0.249217
0.221363
0.1957
0.172107
0.150459
0.130645
0.11258
0.0962436
0.0817714
0.0693762
0.0588129
0.0497377
0.041929
0.0352014
0.0293879
0.0243178
0.0198064
0.0156804
0.0118577
0.00842262
0.00558738
0.00351042
0.00216444
0.00136984
0.000920013
0.000661684
0.000504032
0.000400503
0.000326612
0.000270826
0.000227403
0.000193036
0.000165384
0.000142299
0.000122255
0.000105361
9.16755e-05
7.97401e-05
6.82975e-05
5.86596e-05
5.13428e-05
4.45311e-05
3.79408e-05
3.26738e-05
2.83046e-05
2.41498e-05
2.06262e-05
1.77609e-05
1.50403e-05
1.26562e-05
1.08867e-05
9.23627e-06
7.67043e-06
6.46237e-06
5.43285e-06
4.51434e-06
3.76838e-06
3.0918e-06
2.51467e-06
2.07988e-06
1.68062e-06
1.33945e-06
1.08397e-06
8.53151e-07
6.69798e-07
5.20676e-07
4.01381e-07
3.0278e-07
2.23524e-07
1.62518e-07
1.14326e-07
7.53857e-08
4.7883e-08
2.50924e-08
0
0
0
0
0
0
0
0
0
0
0
0
0
0
0
0
0
0
0
0
0
0
0
0
0
0
0
0
0
0
0
0
0
0
0
0
0
0
0
0
0
0
0
0
0
0
0
0
0
0
0
0
0
0
0
0
0
0
0
0
0
0
0
0
0
0
0
0
0
0
0
0
0
0
0
0
0
0
0
0
0
0
0
0
0
0
0
0
0
0
0
0
0
0
0
0
0
0
0
0
0
0
0
0
0
0
0
0
0
0
0
0
0
0
0
0
0
0
0
)
;

boundaryField
{
    inandouthalf11
    {
        type            cyclic;
    }
    inandouthalf12
    {
        type            cyclic;
    }
    inandouthalf21
    {
        type            cyclic;
    }
    inandouthalf22
    {
        type            cyclic;
    }
    inandouthalf31
    {
        type            cyclic;
    }
    inandouthalf32
    {
        type            cyclic;
    }
    inandouthalf41
    {
        type            cyclic;
    }
    inandouthalf42
    {
        type            cyclic;
    }
    top
    {
        type            symmetryPlane;
    }
    walls
    {
        type            calculated;
        value           uniform 2.87809e-16;
    }
    frontAndBackPlanes
    {
        type            empty;
    }
}


// ************************************************************************* //
