/*--------------------------------*- C++ -*----------------------------------*\
| =========                 |                                                 |
| \\      /  F ield         | OpenFOAM: The Open Source CFD Toolbox           |
|  \\    /   O peration     | Version:  2.4.x                                 |
|   \\  /    A nd           | Web:      www.OpenFOAM.org                      |
|    \\/     M anipulation  |                                                 |
\*---------------------------------------------------------------------------*/
FoamFile
{
    version     2.0;
    format      ascii;
    class       surfaceScalarField;
    location    "2.65";
    object      phia;
}
// * * * * * * * * * * * * * * * * * * * * * * * * * * * * * * * * * * * * * //

dimensions      [0 3 -1 0 0 0 0];

internalField   nonuniform List<scalar> 
359
(
-5.84006e-32
-2.53381e-30
-9.92592e-13
-4.5661e-12
-1.02939e-11
-1.63947e-11
-2.16291e-11
-2.54961e-11
-2.79438e-11
-2.92648e-11
-2.98895e-11
-3.01685e-11
-3.03e-11
-3.03722e-11
-3.04211e-11
-3.04615e-11
-3.05006e-11
-3.0542e-11
-3.05874e-11
-3.06372e-11
-3.06904e-11
-3.07455e-11
-3.08013e-11
-3.08565e-11
-3.09106e-11
-3.09635e-11
-3.10154e-11
-3.10666e-11
-3.11177e-11
-3.11687e-11
-3.122e-11
-3.12717e-11
-3.1324e-11
-3.13769e-11
-3.14304e-11
-3.14846e-11
-3.15396e-11
-3.15955e-11
-3.16523e-11
-3.17102e-11
-3.17693e-11
-3.18297e-11
-3.18915e-11
-3.1955e-11
-3.20203e-11
-3.20877e-11
-3.21574e-11
-3.22297e-11
-3.23049e-11
-3.23837e-11
-3.24663e-11
-3.25533e-11
-3.26451e-11
-3.27425e-11
-3.28459e-11
-3.29563e-11
-3.30744e-11
-3.3201e-11
-3.3337e-11
-3.34827e-11
-3.36389e-11
-3.38057e-11
-3.39832e-11
-3.41714e-11
-3.43703e-11
-3.45802e-11
-3.48023e-11
-3.50384e-11
-3.5291e-11
-3.55632e-11
-3.58587e-11
-3.61811e-11
-3.65325e-11
-3.69148e-11
-3.73273e-11
-3.77678e-11
-3.82318e-11
-3.87143e-11
-3.92101e-11
-3.97156e-11
-4.0228e-11
-4.0747e-11
-4.12735e-11
-4.18094e-11
-4.23571e-11
-4.29184e-11
-4.34947e-11
-4.40864e-11
-4.46929e-11
-4.53128e-11
-4.59444e-11
-4.65859e-11
-4.72356e-11
-4.78922e-11
-4.85545e-11
-4.92218e-11
-4.98933e-11
-5.05683e-11
-5.12462e-11
-5.19263e-11
-5.26079e-11
-5.32905e-11
-5.39736e-11
-5.46567e-11
-5.53394e-11
-5.60213e-11
-5.67021e-11
-5.73813e-11
-5.80587e-11
-5.87339e-11
-5.94064e-11
-6.00758e-11
-6.07418e-11
-6.14036e-11
-6.20608e-11
-6.27127e-11
-6.33585e-11
-6.39976e-11
-6.46292e-11
-6.52526e-11
-6.58672e-11
-6.64722e-11
-6.70674e-11
-6.76527e-11
-6.82281e-11
-6.87947e-11
-6.93539e-11
-6.99078e-11
-7.04588e-11
-7.10094e-11
-7.15614e-11
-7.21162e-11
-7.26759e-11
-7.32442e-11
-7.38252e-11
-7.44215e-11
-7.50347e-11
-7.56723e-11
-7.63489e-11
-7.70669e-11
-7.77794e-11
-7.838e-11
-7.8815e-11
-7.90564e-11
-7.91267e-11
-7.91258e-11
-1.01199e-10
-8.95509e-09
-2.04613e-08
-3.04747e-08
-3.67394e-08
-4.04052e-08
-4.24145e-08
-4.33391e-08
-4.3518e-08
-4.3162e-08
-4.24077e-08
-4.1347e-08
-4.00423e-08
-3.85378e-08
-3.68644e-08
-3.50442e-08
-3.30936e-08
-3.10251e-08
-2.88485e-08
-2.6572e-08
-2.42032e-08
-2.17503e-08
-1.92228e-08
-1.66336e-08
-1.40003e-08
-1.13466e-08
-8.69548e-09
-6.04663e-09
-3.37967e-09
-4.34077e-10
2.96548e-09
6.75263e-09
1.08763e-08
1.52997e-08
1.9981e-08
2.48623e-08
2.98356e-08
3.46996e-08
3.9132e-08
4.2745e-08
4.52395e-08
4.65783e-08
4.69914e-08
4.68196e-08
4.63459e-08
4.57443e-08
4.51073e-08
4.44805e-08
4.38865e-08
4.33344e-08
4.28223e-08
4.23452e-08
4.18983e-08
4.14775e-08
4.10784e-08
4.06893e-08
4.03084e-08
3.9936e-08
3.95703e-08
3.9207e-08
3.88447e-08
3.84863e-08
3.81293e-08
3.77691e-08
3.74063e-08
3.70416e-08
3.66715e-08
3.62952e-08
3.59136e-08
3.55227e-08
3.51204e-08
3.47112e-08
3.42924e-08
3.38581e-08
3.34102e-08
3.29493e-08
3.24729e-08
3.19808e-08
3.1468e-08
3.09322e-08
3.03771e-08
2.9797e-08
2.91872e-08
2.85505e-08
2.78813e-08
2.71764e-08
2.64352e-08
2.56559e-08
2.4833e-08
2.3962e-08
2.30423e-08
2.2067e-08
2.10256e-08
1.98987e-08
1.87007e-08
-6.90604e-08
-1.57893e-07
-1.57893e-07
-1.57893e-07
-1.57893e-07
-1.57893e-07
-1.57893e-07
-1.57893e-07
-1.57893e-07
-1.57893e-07
-1.57893e-07
-1.57893e-07
-1.57893e-07
-1.57893e-07
-1.57893e-07
-1.57893e-07
-1.57893e-07
-1.57893e-07
-1.57893e-07
-1.57893e-07
-1.57893e-07
-1.57893e-07
-1.57893e-07
-1.57893e-07
-1.57893e-07
-1.57893e-07
-1.57893e-07
-1.57893e-07
-1.57893e-07
-1.57893e-07
-1.57893e-07
-1.57893e-07
-1.57893e-07
-1.57893e-07
-1.57893e-07
-1.57893e-07
-1.57893e-07
-1.57893e-07
-1.57893e-07
-1.57893e-07
-1.57893e-07
-1.57893e-07
-1.57893e-07
-1.57893e-07
-1.57893e-07
-1.57893e-07
-1.57893e-07
-1.57893e-07
-1.57893e-07
-1.57893e-07
-1.57893e-07
-1.57893e-07
-1.57893e-07
-1.57893e-07
-1.57893e-07
-1.57893e-07
-1.57893e-07
-1.57893e-07
-1.57893e-07
-1.57893e-07
-1.57893e-07
-1.57893e-07
-1.57893e-07
-1.57893e-07
-1.57893e-07
-1.57893e-07
-1.57893e-07
-1.57893e-07
-1.57893e-07
-1.57893e-07
-1.57893e-07
-1.57893e-07
-1.57893e-07
-1.57893e-07
-1.57893e-07
-1.57893e-07
-1.57893e-07
-1.57893e-07
-1.57893e-07
-1.57893e-07
-1.57893e-07
-1.57893e-07
-1.57893e-07
-1.57893e-07
-1.57893e-07
-1.57893e-07
-1.57893e-07
-1.57893e-07
-1.57893e-07
-1.57893e-07
-1.57893e-07
-1.57893e-07
-1.57893e-07
-1.57893e-07
-1.57893e-07
-1.57893e-07
-1.57893e-07
-1.57893e-07
-1.57893e-07
-1.57893e-07
-1.57893e-07
-1.57893e-07
-1.57893e-07
-1.57893e-07
-1.57893e-07
-1.57893e-07
-1.57893e-07
-1.57893e-07
-1.57893e-07
-1.57893e-07
-1.57893e-07
-1.57893e-07
-1.57893e-07
-1.57893e-07
-1.57893e-07
-1.57875e-07
-1.57166e-07
-1.32132e-07
)
;

boundaryField
{
    inandouthalf11
    {
        type            cyclic;
        value           nonuniform List<scalar> 
100
(
8.5796e-39
5.3791e-33
2.32527e-31
9.55635e-14
3.55071e-13
6.93443e-13
1.00867e-12
1.2536e-12
1.41668e-12
1.50872e-12
1.55344e-12
1.57343e-12
1.58257e-12
1.58733e-12
1.59034e-12
1.59268e-12
1.59487e-12
1.59715e-12
1.5997e-12
1.60256e-12
1.60571e-12
1.60909e-12
1.61261e-12
1.61617e-12
1.61972e-12
1.62325e-12
1.62674e-12
1.63024e-12
1.63375e-12
1.6373e-12
1.64091e-12
1.6446e-12
1.64836e-12
1.65222e-12
1.65617e-12
1.66021e-12
1.66436e-12
1.66861e-12
1.67299e-12
1.67749e-12
1.68212e-12
1.6869e-12
1.69183e-12
1.69694e-12
1.70224e-12
1.70774e-12
1.71348e-12
1.71947e-12
1.72574e-12
1.73233e-12
1.73929e-12
1.74666e-12
1.75447e-12
1.76279e-12
1.77167e-12
1.78118e-12
1.79139e-12
1.80238e-12
1.81421e-12
1.82696e-12
1.84067e-12
1.8554e-12
1.87114e-12
1.88792e-12
1.90571e-12
1.92454e-12
1.94449e-12
1.96568e-12
1.98831e-12
2.01264e-12
2.03899e-12
2.06767e-12
2.09896e-12
2.13303e-12
2.16994e-12
2.20953e-12
2.25148e-12
2.29531e-12
2.34053e-12
2.3867e-12
2.43352e-12
2.48082e-12
2.52862e-12
2.57703e-12
2.62624e-12
2.67641e-12
2.72768e-12
2.78011e-12
2.83365e-12
2.88819e-12
2.94357e-12
2.9996e-12
3.05611e-12
3.11293e-12
3.16993e-12
3.22702e-12
3.28409e-12
3.34107e-12
3.39788e-12
3.45443e-12
)
;
    }
    inandouthalf12
    {
        type            cyclic;
        value           nonuniform List<scalar> 
100
(
-8.5796e-39
-5.3791e-33
-2.32527e-31
-9.55635e-14
-3.55071e-13
-6.93443e-13
-1.00867e-12
-1.2536e-12
-1.41668e-12
-1.50872e-12
-1.55344e-12
-1.57343e-12
-1.58257e-12
-1.58733e-12
-1.59034e-12
-1.59268e-12
-1.59487e-12
-1.59715e-12
-1.5997e-12
-1.60256e-12
-1.60571e-12
-1.60909e-12
-1.61261e-12
-1.61617e-12
-1.61972e-12
-1.62325e-12
-1.62674e-12
-1.63024e-12
-1.63375e-12
-1.6373e-12
-1.64091e-12
-1.6446e-12
-1.64836e-12
-1.65222e-12
-1.65617e-12
-1.66021e-12
-1.66436e-12
-1.66861e-12
-1.67299e-12
-1.67749e-12
-1.68212e-12
-1.6869e-12
-1.69183e-12
-1.69694e-12
-1.70224e-12
-1.70774e-12
-1.71348e-12
-1.71947e-12
-1.72574e-12
-1.73233e-12
-1.73929e-12
-1.74666e-12
-1.75447e-12
-1.76279e-12
-1.77167e-12
-1.78118e-12
-1.79139e-12
-1.80238e-12
-1.81421e-12
-1.82696e-12
-1.84067e-12
-1.8554e-12
-1.87114e-12
-1.88792e-12
-1.90571e-12
-1.92454e-12
-1.94449e-12
-1.96568e-12
-1.98831e-12
-2.01264e-12
-2.03899e-12
-2.06767e-12
-2.09896e-12
-2.13303e-12
-2.16994e-12
-2.20953e-12
-2.25148e-12
-2.29531e-12
-2.34053e-12
-2.3867e-12
-2.43352e-12
-2.48082e-12
-2.52862e-12
-2.57703e-12
-2.62624e-12
-2.67641e-12
-2.72768e-12
-2.78011e-12
-2.83365e-12
-2.88819e-12
-2.94357e-12
-2.9996e-12
-3.05611e-12
-3.11293e-12
-3.16993e-12
-3.22702e-12
-3.28409e-12
-3.34107e-12
-3.39788e-12
-3.45443e-12
)
;
    }
    inandouthalf21
    {
        type            cyclic;
        value           nonuniform List<scalar> 
100
(
3.51066e-12
3.56648e-12
3.62183e-12
3.67665e-12
3.73089e-12
3.78448e-12
3.83737e-12
3.88952e-12
3.94086e-12
3.99136e-12
4.04095e-12
4.08958e-12
4.13719e-12
4.18372e-12
4.22911e-12
4.27327e-12
4.31613e-12
4.35763e-12
4.39769e-12
4.43622e-12
4.47317e-12
4.50846e-12
4.54203e-12
4.57385e-12
4.60388e-12
4.6321e-12
4.65854e-12
4.6832e-12
4.70612e-12
4.72729e-12
4.74665e-12
4.7641e-12
4.77947e-12
4.79261e-12
4.80328e-12
4.81111e-12
4.81562e-12
4.81618e-12
4.8119e-12
4.80142e-12
4.78362e-12
4.75981e-12
4.7343e-12
4.71321e-12
4.70327e-12
4.70293e-12
4.70285e-12
4.93081e-12
-2.09999e-08
-6.02343e-08
-9.32396e-08
-1.20495e-07
-1.44137e-07
-1.65423e-07
-1.8507e-07
-2.03508e-07
-2.21018e-07
-2.3779e-07
-2.5396e-07
-2.69628e-07
-2.84868e-07
-2.99736e-07
-3.14275e-07
-3.28517e-07
-3.42484e-07
-3.56192e-07
-3.6965e-07
-3.82859e-07
-3.95817e-07
-4.08513e-07
-4.20933e-07
-4.33058e-07
-4.44866e-07
-4.56334e-07
-4.67437e-07
-4.78157e-07
-4.8848e-07
-4.9839e-07
-5.07863e-07
-5.16864e-07
-5.25357e-07
-5.33297e-07
-5.40642e-07
-5.47351e-07
-5.5339e-07
-5.58749e-07
-5.63453e-07
-5.6757e-07
-5.71198e-07
-5.74449e-07
-5.77422e-07
-5.80188e-07
-5.82792e-07
-5.85254e-07
-5.87586e-07
-5.89792e-07
-5.91881e-07
-5.93859e-07
-5.95737e-07
-5.97518e-07
)
;
    }
    inandouthalf22
    {
        type            cyclic;
        value           nonuniform List<scalar> 
100
(
-3.51066e-12
-3.56648e-12
-3.62183e-12
-3.67665e-12
-3.73089e-12
-3.78448e-12
-3.83737e-12
-3.88952e-12
-3.94086e-12
-3.99136e-12
-4.04095e-12
-4.08958e-12
-4.13719e-12
-4.18372e-12
-4.22911e-12
-4.27327e-12
-4.31613e-12
-4.35763e-12
-4.39769e-12
-4.43622e-12
-4.47317e-12
-4.50846e-12
-4.54203e-12
-4.57385e-12
-4.60388e-12
-4.6321e-12
-4.65854e-12
-4.6832e-12
-4.70612e-12
-4.72729e-12
-4.74665e-12
-4.7641e-12
-4.77947e-12
-4.79261e-12
-4.80328e-12
-4.81111e-12
-4.81562e-12
-4.81618e-12
-4.8119e-12
-4.80142e-12
-4.78362e-12
-4.75981e-12
-4.7343e-12
-4.71321e-12
-4.70327e-12
-4.70293e-12
-4.70285e-12
-4.93081e-12
2.09999e-08
6.02343e-08
9.32396e-08
1.20495e-07
1.44137e-07
1.65423e-07
1.8507e-07
2.03508e-07
2.21018e-07
2.3779e-07
2.5396e-07
2.69628e-07
2.84868e-07
2.99736e-07
3.14275e-07
3.28517e-07
3.42484e-07
3.56192e-07
3.6965e-07
3.82859e-07
3.95817e-07
4.08513e-07
4.20933e-07
4.33058e-07
4.44866e-07
4.56334e-07
4.67437e-07
4.78157e-07
4.8848e-07
4.9839e-07
5.07863e-07
5.16864e-07
5.25357e-07
5.33297e-07
5.40642e-07
5.47351e-07
5.5339e-07
5.58749e-07
5.63453e-07
5.6757e-07
5.71198e-07
5.74449e-07
5.77422e-07
5.80188e-07
5.82792e-07
5.85254e-07
5.87586e-07
5.89792e-07
5.91881e-07
5.93859e-07
5.95737e-07
5.97518e-07
)
;
    }
    inandouthalf31
    {
        type            cyclic;
        value           nonuniform List<scalar> 
110
(
-5.99209e-07
-6.13025e-07
-6.27107e-07
-6.41456e-07
-6.56078e-07
-6.70987e-07
-6.86198e-07
-7.01708e-07
-7.17517e-07
-7.33649e-07
-7.50113e-07
-7.66907e-07
-7.84043e-07
-8.01537e-07
-8.19387e-07
-8.37607e-07
-8.56218e-07
-8.75214e-07
-8.94594e-07
-9.14388e-07
-9.34606e-07
-9.55244e-07
-9.76314e-07
-9.97825e-07
-1.01979e-06
-1.04223e-06
-1.06514e-06
-1.08852e-06
-1.11241e-06
-1.1368e-06
-1.1617e-06
-1.18713e-06
-1.21308e-06
-1.23957e-06
-1.26658e-06
-1.29414e-06
-1.32222e-06
-1.35083e-06
-1.37997e-06
-1.4096e-06
-1.43974e-06
-1.4706e-06
-1.62562e-06
-1.65863e-06
-1.6923e-06
-1.72666e-06
-1.76171e-06
-1.79747e-06
-1.83396e-06
-1.87118e-06
-1.90917e-06
-1.94792e-06
-1.98746e-06
-2.0278e-06
-2.06896e-06
-2.11096e-06
-2.1538e-06
-2.19752e-06
-2.24212e-06
-2.28763e-06
-2.33407e-06
-2.38144e-06
-2.42978e-06
-2.4791e-06
-2.52942e-06
-2.58076e-06
-2.63314e-06
-2.68659e-06
-2.74112e-06
-2.79675e-06
-2.85352e-06
-2.91144e-06
-2.97053e-06
-3.03083e-06
-3.09235e-06
-3.15511e-06
-3.21915e-06
-3.28449e-06
-3.35116e-06
-3.41918e-06
-3.48858e-06
-3.55939e-06
-3.63163e-06
-3.70535e-06
-3.78056e-06
-3.85729e-06
-3.93558e-06
-4.01547e-06
-4.09697e-06
-4.18013e-06
-4.26497e-06
-4.35154e-06
-4.43986e-06
-4.52998e-06
-4.62193e-06
-4.71574e-06
-4.81146e-06
-4.90912e-06
-5.00876e-06
-5.11042e-06
-5.21415e-06
-5.31999e-06
-5.42797e-06
-5.53814e-06
-5.65055e-06
-5.76524e-06
-5.88226e-06
-6.00165e-06
-6.12347e-06
-6.24776e-06
)
;
    }
    inandouthalf32
    {
        type            cyclic;
        value           nonuniform List<scalar> 
110
(
5.99209e-07
6.13025e-07
6.27107e-07
6.41456e-07
6.56078e-07
6.70987e-07
6.86198e-07
7.01708e-07
7.17517e-07
7.33649e-07
7.50113e-07
7.66907e-07
7.84043e-07
8.01537e-07
8.19387e-07
8.37607e-07
8.56218e-07
8.75214e-07
8.94594e-07
9.14388e-07
9.34606e-07
9.55244e-07
9.76314e-07
9.97825e-07
1.01979e-06
1.04223e-06
1.06514e-06
1.08852e-06
1.11241e-06
1.1368e-06
1.1617e-06
1.18713e-06
1.21308e-06
1.23957e-06
1.26658e-06
1.29414e-06
1.32222e-06
1.35083e-06
1.37997e-06
1.4096e-06
1.43974e-06
1.4706e-06
1.62562e-06
1.65863e-06
1.6923e-06
1.72666e-06
1.76171e-06
1.79747e-06
1.83396e-06
1.87118e-06
1.90917e-06
1.94792e-06
1.98746e-06
2.0278e-06
2.06896e-06
2.11096e-06
2.1538e-06
2.19752e-06
2.24212e-06
2.28763e-06
2.33407e-06
2.38144e-06
2.42978e-06
2.4791e-06
2.52942e-06
2.58076e-06
2.63314e-06
2.68659e-06
2.74112e-06
2.79675e-06
2.85352e-06
2.91144e-06
2.97053e-06
3.03083e-06
3.09235e-06
3.15511e-06
3.21915e-06
3.28449e-06
3.35116e-06
3.41918e-06
3.48858e-06
3.55939e-06
3.63163e-06
3.70535e-06
3.78056e-06
3.85729e-06
3.93558e-06
4.01547e-06
4.09697e-06
4.18013e-06
4.26497e-06
4.35154e-06
4.43986e-06
4.52998e-06
4.62193e-06
4.71574e-06
4.81146e-06
4.90912e-06
5.00876e-06
5.11042e-06
5.21415e-06
5.31999e-06
5.42797e-06
5.53814e-06
5.65055e-06
5.76524e-06
5.88226e-06
6.00165e-06
6.12347e-06
6.24776e-06
)
;
    }
    inandouthalf41
    {
        type            cyclic;
        value           nonuniform List<scalar> 
50
(
-5.59238e-06
-5.59238e-06
-5.59238e-06
-5.59238e-06
-5.59238e-06
-5.59238e-06
-5.59238e-06
-5.59238e-06
-5.59238e-06
-5.59238e-06
-5.59238e-06
-5.59238e-06
-5.59238e-06
-5.59238e-06
-5.59238e-06
-5.59238e-06
-5.59238e-06
-5.59238e-06
-5.59238e-06
-5.59238e-06
-5.59238e-06
-5.59238e-06
-5.59238e-06
-5.59238e-06
-5.59238e-06
-5.59238e-06
-5.59238e-06
-5.59238e-06
-5.59238e-06
-5.59238e-06
-5.59238e-06
-5.59238e-06
-5.59238e-06
-5.59238e-06
-5.59238e-06
-5.59238e-06
-5.59238e-06
-5.59238e-06
-5.59238e-06
-5.59238e-06
-5.59238e-06
-5.59238e-06
-5.59238e-06
-5.59238e-06
-5.59238e-06
-5.59238e-06
-5.59238e-06
-5.5924e-06
-5.59267e-06
-5.59909e-06
)
;
    }
    inandouthalf42
    {
        type            cyclic;
        value           nonuniform List<scalar> 
50
(
5.59238e-06
5.59238e-06
5.59238e-06
5.59238e-06
5.59238e-06
5.59238e-06
5.59238e-06
5.59238e-06
5.59238e-06
5.59238e-06
5.59238e-06
5.59238e-06
5.59238e-06
5.59238e-06
5.59238e-06
5.59238e-06
5.59238e-06
5.59238e-06
5.59238e-06
5.59238e-06
5.59238e-06
5.59238e-06
5.59238e-06
5.59238e-06
5.59238e-06
5.59238e-06
5.59238e-06
5.59238e-06
5.59238e-06
5.59238e-06
5.59238e-06
5.59238e-06
5.59238e-06
5.59238e-06
5.59238e-06
5.59238e-06
5.59238e-06
5.59238e-06
5.59238e-06
5.59238e-06
5.59238e-06
5.59238e-06
5.59238e-06
5.59238e-06
5.59238e-06
5.59238e-06
5.59238e-06
5.5924e-06
5.59267e-06
5.59909e-06
)
;
    }
    top
    {
        type            symmetryPlane;
        value           uniform 0;
    }
    walls
    {
        type            fixedValue;
        value           uniform 0;
    }
    frontAndBackPlanes
    {
        type            empty;
        value           nonuniform 0();
    }
}


// ************************************************************************* //
