/*--------------------------------*- C++ -*----------------------------------*\
| =========                 |                                                 |
| \\      /  F ield         | OpenFOAM: The Open Source CFD Toolbox           |
|  \\    /   O peration     | Version:  2.4.x                                 |
|   \\  /    A nd           | Web:      www.OpenFOAM.org                      |
|    \\/     M anipulation  |                                                 |
\*---------------------------------------------------------------------------*/
FoamFile
{
    version     2.0;
    format      ascii;
    class       volScalarField;
    location    "2.65";
    object      Theta_0;
}
// * * * * * * * * * * * * * * * * * * * * * * * * * * * * * * * * * * * * * //

dimensions      [0 2 -2 0 0 0 0];

internalField   nonuniform List<scalar> 
360
(
6.66136e-21
6.66136e-21
6.69506e-21
7.10616e-21
7.89192e-21
8.07235e-21
7.66198e-21
7.1849e-21
6.86544e-21
6.71989e-21
6.67438e-21
6.66396e-21
6.66194e-21
6.66154e-21
6.66144e-21
6.66142e-21
6.66141e-21
6.66142e-21
6.66143e-21
6.66145e-21
6.66146e-21
6.66146e-21
6.66147e-21
6.66146e-21
6.66146e-21
6.66146e-21
6.66145e-21
6.66145e-21
6.66145e-21
6.66145e-21
6.66145e-21
6.66145e-21
6.66145e-21
6.66146e-21
6.66146e-21
6.66146e-21
6.66146e-21
6.66147e-21
6.66147e-21
6.66147e-21
6.66148e-21
6.66148e-21
6.66149e-21
6.6615e-21
6.66151e-21
6.66152e-21
6.66153e-21
6.66154e-21
6.66155e-21
6.66157e-21
6.66159e-21
6.66162e-21
6.66165e-21
6.66169e-21
6.66173e-21
6.66178e-21
6.66184e-21
6.66192e-21
6.662e-21
6.6621e-21
6.66221e-21
6.66233e-21
6.66246e-21
6.66259e-21
6.66274e-21
6.6629e-21
6.66308e-21
6.66331e-21
6.66359e-21
6.66396e-21
6.66442e-21
6.665e-21
6.6657e-21
6.66649e-21
6.66734e-21
6.66818e-21
6.66893e-21
6.66954e-21
6.67001e-21
6.67034e-21
6.67059e-21
6.67082e-21
6.67109e-21
6.67144e-21
6.67187e-21
6.6724e-21
6.67299e-21
6.67361e-21
6.67423e-21
6.67479e-21
6.6753e-21
6.67573e-21
6.67609e-21
6.67639e-21
6.67664e-21
6.67685e-21
6.67703e-21
6.67718e-21
6.6773e-21
6.67731e-21
0
0
0
0
0
0
0
0
0
0
0
0
0
0
0
6.67574e-21
6.67545e-21
6.67513e-21
6.67478e-21
6.67441e-21
6.67401e-21
6.67359e-21
6.67317e-21
6.67275e-21
6.67234e-21
6.67197e-21
6.67167e-21
6.67145e-21
6.67132e-21
6.67127e-21
6.67134e-21
1.24038e-20
1.10606e-19
1.17389e-18
1.18585e-17
1.12332e-16
9.92089e-16
8.13021e-15
6.16762e-14
4.33839e-13
2.85022e-12
1.78089e-11
1.10961e-10
7.46839e-10
6.07091e-09
7.56155e-08
1.76322e-06
3.11097e-05
0.000344051
0.00108133
0.00176896
0.00237881
0.00292805
0.0034273
0.0038832
0.00429998
0.00468031
0.00502657
0.00534012
0.00562252
0.00587483
0.0060978
0.00629229
0.00645907
0.00659904
0.00671279
0.00680123
0.00686505
0.00690528
0.00692281
0.00691894
0.0068948
0.00685178
0.00679142
0.0067152
0.00662471
0.00652163
0.00640772
0.00628511
0.00615632
0.00602417
0.00589171
0.00576216
0.0056387
0.00552418
0.00542063
0.00532882
0.00524804
0.0051764
0.00511159
0.00505157
0.00499485
0.00494051
0.00488798
0.00483695
0.0047872
0.0047385
0.00469059
0.00464324
0.00459628
0.00454957
0.00450253
0.00445461
0.00440568
0.00435569
0.00430454
0.00425214
0.00419838
0.00414321
0.00408654
0.00402826
0.0039683
0.00390655
0.00384293
0.00377733
0.00370965
0.00363977
0.00356759
0.00349297
0.00341578
0.00333589
0.00325314
0.00316735
0.00307836
0.00298594
0.00288989
0.00278993
0.00268579
0.00257712
0.00246355
0.00234462
0.0022198
0.00208843
0.0019497
0.00180259
0.00164574
0.00147732
0.00129466
0.0010936
0.000866822
0.000598396
0
0
0
0
0
0
0
0
0
0
0
0
0
0
0
0
0
0
0
0
0
0
0
0
0
0
0
0
0
0
0
0
0
0
0
0
0
0
0
0
0
0
0
0
0
0
0
0
0
0
0
0
0
0
0
0
0
0
0
0
0
0
0
0
0
0
0
0
0
0
0
0
0
0
0
0
0
0
0
0
0
0
0
0
0
0
0
0
0
0
0
0
0
0
0
0
0
0
0
0
0
0
0
0
0
0
0
0
0
0
0
0
0
0
0
0
0
0
0
)
;

boundaryField
{
    inandouthalf11
    {
        type            cyclic;
    }
    inandouthalf12
    {
        type            cyclic;
    }
    inandouthalf21
    {
        type            cyclic;
    }
    inandouthalf22
    {
        type            cyclic;
    }
    inandouthalf31
    {
        type            cyclic;
    }
    inandouthalf32
    {
        type            cyclic;
    }
    inandouthalf41
    {
        type            cyclic;
    }
    inandouthalf42
    {
        type            cyclic;
    }
    top
    {
        type            symmetryPlane;
    }
    walls
    {
        type            zeroGradient;
    }
    frontAndBackPlanes
    {
        type            empty;
    }
}


// ************************************************************************* //
