/*--------------------------------*- C++ -*----------------------------------*\
| =========                 |                                                 |
| \\      /  F ield         | OpenFOAM: The Open Source CFD Toolbox           |
|  \\    /   O peration     | Version:  2.4.x                                 |
|   \\  /    A nd           | Web:      www.OpenFOAM.org                      |
|    \\/     M anipulation  |                                                 |
\*---------------------------------------------------------------------------*/
FoamFile
{
    version     2.0;
    format      ascii;
    class       volScalarField;
    location    "2.65";
    object      tmf;
}
// * * * * * * * * * * * * * * * * * * * * * * * * * * * * * * * * * * * * * //

dimensions      [0 0 0 0 0 0 0];

internalField   nonuniform List<scalar> 
360
(
0.999204
0.999204
0.999204
0.999204
0.999204
0.999204
0.999204
0.999204
0.999204
0.999204
0.999204
0.999204
0.999204
0.999204
0.999204
0.999204
0.999204
0.999204
0.999204
0.999204
0.999204
0.999204
0.999204
0.999204
0.999204
0.999204
0.999204
0.999204
0.999204
0.999204
0.999204
0.999204
0.999204
0.999204
0.999204
0.999204
0.999204
0.999204
0.999204
0.999204
0.999204
0.999204
0.999204
0.999204
0.999203
0.999203
0.999203
0.999203
0.999203
0.999203
0.999203
0.999203
0.999203
0.999203
0.999203
0.999203
0.999203
0.999203
0.999203
0.999203
0.999203
0.999202
0.999202
0.999202
0.999202
0.999202
0.999202
0.999202
0.999202
0.999202
0.999202
0.999201
0.999201
0.999201
0.999201
0.999201
0.999201
0.999201
0.9992
0.9992
0.9992
0.9992
0.9992
0.9992
0.999199
0.999199
0.999199
0.999199
0.999199
0.999199
0.999198
0.999198
0.999198
0.999198
0.999198
0.999197
0.999197
0.999197
0.999197
0.999196
0.999196
0.999196
0.999196
0.999195
0.999195
0.999195
0.999195
0.999194
0.999194
0.999194
0.999193
0.999193
0.999193
0.999192
0.999192
0.999192
0.999191
0.999191
0.999191
0.99919
0.99919
0.999189
0.999189
0.999189
0.999188
0.999188
0.999187
0.999187
0.999186
0.999185
0.999185
0.998655
0.998486
0.998425
0.998359
0.998281
0.998183
0.998059
0.997896
0.997676
0.997366
0.996907
0.996211
0.995154
0.993558
0.991278
0.988331
0.984152
0.959601
0.935765
0.931357
0.932998
0.934754
0.936272
0.937539
0.938591
0.939467
0.940199
0.940813
0.941329
0.941762
0.942124
0.942424
0.942666
0.942852
0.942981
0.94305
0.943047
0.942957
0.942757
0.942412
0.941871
0.941057
0.939832
0.937926
0.935453
0.939663
0.943729
0.947279
0.950512
0.953523
0.956363
0.959063
0.961641
0.964108
0.96647
0.968733
0.970909
0.973014
0.975071
0.977116
0.979205
0.981421
0.983908
0.986978
0.989975
0.99141
0.991458
0.991368
0.991278
0.99119
0.991104
0.991018
0.991003
0.993485
0.995522
0.995512
0.995488
0.995464
0.99544
0.995415
0.995391
0.995366
0.995342
0.995317
0.995291
0.995266
0.99524
0.995214
0.995188
0.995161
0.995135
0.995107
0.99508
0.995052
0.995024
0.994996
0.994967
0.994938
0.994908
0.994878
0.994848
0.994818
0.994787
0.994757
0.994727
0.994697
0.994668
0.99464
0.994614
0.994589
0.994562
0.994201
0.994201
0.994201
0.994201
0.994201
0.994201
0.994201
0.994201
0.994201
0.994201
0.994201
0.994201
0.994201
0.994201
0.994201
0.994201
0.994201
0.994201
0.994201
0.994201
0.994201
0.994201
0.994201
0.994201
0.994201
0.994201
0.994201
0.994201
0.994201
0.994201
0.994201
0.994201
0.994201
0.994201
0.994201
0.994201
0.994201
0.994201
0.994201
0.994201
0.994201
0.994201
0.994201
0.994201
0.994201
0.994201
0.994201
0.994201
0.994201
0.994201
0.994201
0.994201
0.994201
0.994201
0.994201
0.994201
0.994201
0.994201
0.994201
0.994201
0.994201
0.994201
0.994201
0.994201
0.994201
0.994201
0.994201
0.994201
0.994201
0.994201
0.994201
0.994201
0.994201
0.994201
0.994201
0.994201
0.994201
0.994201
0.994201
0.994201
0.994201
0.994201
0.994201
0.994201
0.994201
0.994201
0.994201
0.994201
0.994201
0.994201
0.994201
0.994201
0.994201
0.994201
0.994201
0.994201
0.994201
0.994201
0.994201
0.994201
0.994201
0.994201
0.994201
0.994201
0.994201
0.994201
0.994201
0.994201
0.994201
0.994201
0.994201
0.994201
0.994201
0.994201
0.994201
0.9942
0.994185
0.993284
)
;

boundaryField
{
    inandouthalf11
    {
        type            cyclic;
    }
    inandouthalf12
    {
        type            cyclic;
    }
    inandouthalf21
    {
        type            cyclic;
    }
    inandouthalf22
    {
        type            cyclic;
    }
    inandouthalf31
    {
        type            cyclic;
    }
    inandouthalf32
    {
        type            cyclic;
    }
    inandouthalf41
    {
        type            cyclic;
    }
    inandouthalf42
    {
        type            cyclic;
    }
    top
    {
        type            symmetryPlane;
    }
    walls
    {
        type            calculated;
        value           uniform 0;
    }
    frontAndBackPlanes
    {
        type            empty;
    }
}


// ************************************************************************* //
