/*--------------------------------*- C++ -*----------------------------------*\
| =========                 |                                                 |
| \\      /  F ield         | OpenFOAM: The Open Source CFD Toolbox           |
|  \\    /   O peration     | Version:  2.4.x                                 |
|   \\  /    A nd           | Web:      www.OpenFOAM.org                      |
|    \\/     M anipulation  |                                                 |
\*---------------------------------------------------------------------------*/
FoamFile
{
    version     2.0;
    format      ascii;
    class       volVectorField;
    location    "2.65";
    object      U;
}
// * * * * * * * * * * * * * * * * * * * * * * * * * * * * * * * * * * * * * //

dimensions      [0 1 -1 0 0 0 0];

internalField   nonuniform List<vector> 
360
(
(-0.00010638 2.71614e-09 0)
(-0.000106561 -9.54437e-09 0)
(-0.000106537 3.99974e-08 0)
(-0.000106557 9.24145e-08 0)
(-0.000106733 4.47778e-08 0)
(-0.000107044 -2.06109e-08 0)
(-0.000107385 -4.89815e-08 0)
(-0.000107679 -5.62008e-08 0)
(-0.000107887 -4.9899e-08 0)
(-0.000108009 -3.39765e-08 0)
(-0.000108072 -1.79553e-08 0)
(-0.0001081 -7.91121e-09 0)
(-0.000108114 -3.1858e-09 0)
(-0.000108122 -1.26728e-09 0)
(-0.000108127 -4.88763e-10 0)
(-0.00010813 -1.38025e-10 0)
(-0.000108134 4.31141e-11 0)
(-0.000108137 1.38617e-10 0)
(-0.00010814 1.5809e-10 0)
(-0.000108145 1.69356e-10 0)
(-0.000108149 9.14108e-11 0)
(-0.000108155 4.68718e-11 0)
(-0.00010816 -2.98101e-12 0)
(-0.000108166 -3.48376e-11 0)
(-0.000108172 -4.68603e-11 0)
(-0.000108178 -4.31695e-11 0)
(-0.000108183 -4.44138e-11 0)
(-0.00010819 -1.48177e-11 0)
(-0.000108197 -1.99095e-12 0)
(-0.000108204 7.79823e-12 0)
(-0.00010821 8.88512e-13 0)
(-0.000108218 3.47901e-11 0)
(-0.000108225 -5.00702e-12 0)
(-0.000108235 4.04984e-11 0)
(-0.000108243 1.28848e-11 0)
(-0.000108252 2.95192e-11 0)
(-0.000108262 1.90544e-11 0)
(-0.000108273 2.30703e-11 0)
(-0.000108284 5.52053e-11 0)
(-0.000108295 1.50657e-11 0)
(-0.000108309 4.90947e-11 0)
(-0.000108322 5.44249e-11 0)
(-0.000108335 3.21134e-11 0)
(-0.000108351 6.97434e-11 0)
(-0.000108367 6.28662e-11 0)
(-0.000108384 7.08819e-11 0)
(-0.000108402 9.56402e-11 0)
(-0.000108421 8.05222e-11 0)
(-0.000108442 9.8543e-11 0)
(-0.000108465 1.45105e-10 0)
(-0.000108488 1.31854e-10 0)
(-0.000108513 1.6566e-10 0)
(-0.00010854 1.73408e-10 0)
(-0.000108569 2.13733e-10 0)
(-0.0001086 2.14003e-10 0)
(-0.000108633 2.75436e-10 0)
(-0.000108668 2.78722e-10 0)
(-0.000108706 3.25084e-10 0)
(-0.000108745 3.54627e-10 0)
(-0.000108787 3.52589e-10 0)
(-0.000108832 4.02873e-10 0)
(-0.000108878 3.85299e-10 0)
(-0.000108926 4.02755e-10 0)
(-0.000108976 3.90033e-10 0)
(-0.000109028 3.99696e-10 0)
(-0.000109081 4.16177e-10 0)
(-0.000109137 4.70977e-10 0)
(-0.000109196 5.51307e-10 0)
(-0.000109257 6.60289e-10 0)
(-0.000109322 7.74335e-10 0)
(-0.000109391 9.23054e-10 0)
(-0.000109464 1.05999e-09 0)
(-0.000109541 1.11411e-09 0)
(-0.000109622 1.15872e-09 0)
(-0.000109708 1.09773e-09 0)
(-0.000109797 9.81194e-10 0)
(-0.000109889 7.80975e-10 0)
(-0.000109983 5.75537e-10 0)
(-0.00011008 3.96083e-10 0)
(-0.000110179 2.71898e-10 0)
(-0.000110279 2.05766e-10 0)
(-0.000110381 2.15895e-10 0)
(-0.000110486 2.76194e-10 0)
(-0.000110593 3.58607e-10 0)
(-0.000110702 4.46502e-10 0)
(-0.000110814 5.12001e-10 0)
(-0.000110928 5.48291e-10 0)
(-0.000111045 5.41641e-10 0)
(-0.000111164 5.00849e-10 0)
(-0.000111285 4.38633e-10 0)
(-0.000111409 3.6543e-10 0)
(-0.000111534 2.92804e-10 0)
(-0.000111662 2.32566e-10 0)
(-0.000111791 1.84115e-10 0)
(-0.000111922 1.45829e-10 0)
(-0.000112055 1.1468e-10 0)
(-0.00011219 8.68074e-11 0)
(-0.000112327 5.94434e-11 0)
(-0.000112465 3.19021e-11 0)
(-0.000112605 4.96832e-12 0)
(-0.000112746 -2.0847e-11 0)
(-0.000112889 -4.46762e-11 0)
(-0.000113034 -6.59589e-11 0)
(-0.00011318 -8.52618e-11 0)
(-0.000113328 -1.0326e-10 0)
(-0.000113478 -1.20458e-10 0)
(-0.00011363 -1.3742e-10 0)
(-0.000113783 -1.54558e-10 0)
(-0.000113938 -1.72174e-10 0)
(-0.000114096 -1.90668e-10 0)
(-0.000114255 -2.10518e-10 0)
(-0.000114416 -2.32215e-10 0)
(-0.000114579 -2.56217e-10 0)
(-0.000114745 -2.82835e-10 0)
(-0.000114913 -3.12155e-10 0)
(-0.000115083 -3.44003e-10 0)
(-0.000115256 -3.77922e-10 0)
(-0.000115432 -4.13181e-10 0)
(-0.00011561 -4.48818e-10 0)
(-0.000115792 -4.83676e-10 0)
(-0.000115977 -5.16313e-10 0)
(-0.000116165 -5.44732e-10 0)
(-0.000116357 -5.65982e-10 0)
(-0.000116553 -5.75859e-10 0)
(-0.000116753 -5.69134e-10 0)
(-0.000116959 -5.40932e-10 0)
(-0.000117169 -4.89419e-10 0)
(-0.000117386 -4.18879e-10 0)
(-0.000117609 -3.40819e-10 0)
(-0.000117839 -2.70552e-10 0)
(-0.000118077 -2.18342e-10 0)
(-0.000118322 -1.81416e-10 0)
(-0.000118575 -1.39172e-10 0)
(-0.000118839 -5.14015e-11 0)
(-0.000119114 1.00138e-10 0)
(-0.000119401 2.31551e-10 0)
(-0.000119694 2.81751e-10 0)
(-0.000119997 3.51276e-10 0)
(-0.000120325 4.36116e-10 0)
(-0.000120693 1.55814e-10 0)
(-0.000121081 -1.32174e-09 0)
(-0.000121434 -7.57125e-09 0)
(-0.000121867 -1.15068e-08 0)
(-0.00012246 -2.34739e-09 0)
(-0.000123213 -7.70919e-07 0)
(-0.000124348 7.28069e-06 0)
(-0.00013366 -2.86988e-05 0)
(-0.000133125 0.000111832 0)
(0.0210151 0.00027379 0)
(0.0606118 9.31313e-05 0)
(0.092453 5.40736e-05 0)
(0.118619 2.10568e-05 0)
(0.14143 9.09479e-06 0)
(0.162069 4.11967e-06 0)
(0.181186 1.83717e-06 0)
(0.199179 7.1787e-07 0)
(0.216305 1.57306e-07 0)
(0.232741 -1.15127e-07 0)
(0.248616 -2.48964e-07 0)
(0.264024 -3.07999e-07 0)
(0.279037 -3.28439e-07 0)
(0.293712 -3.29882e-07 0)
(0.308092 -3.20654e-07 0)
(0.322215 -3.06444e-07 0)
(0.336108 -2.89255e-07 0)
(0.349795 -2.71911e-07 0)
(0.363296 -2.54155e-07 0)
(0.376627 -2.36979e-07 0)
(0.389801 -2.19881e-07 0)
(0.40283 -2.03008e-07 0)
(0.415723 -1.8602e-07 0)
(0.428487 -1.70452e-07 0)
(0.441128 -1.60191e-07 0)
(0.453652 -1.58539e-07 0)
(0.466061 -1.5624e-07 0)
(0.478358 -1.31734e-07 0)
(0.490543 -1.10587e-07 0)
(0.502616 -1.08913e-07 0)
(0.514577 -1.08679e-07 0)
(0.526424 -1.05234e-07 0)
(0.538154 -1.00194e-07 0)
(0.549764 -9.33113e-08 0)
(0.561248 -8.01089e-08 0)
(0.572598 -5.65725e-08 0)
(0.583805 -3.17866e-08 0)
(0.594853 -2.75622e-08 0)
(0.605722 -4.89622e-08 0)
(0.616383 -6.10358e-08 0)
(0.6268 -4.0374e-08 0)
(0.636928 -5.83401e-09 0)
(0.646711 1.43113e-08 0)
(0.65608 1.52665e-08 0)
(0.66494 9.67554e-09 0)
(0.673152 5.0234e-09 0)
(0.680504 2.70551e-09 0)
(0.685995 3.76746e-09 0)
(0.687863 2.74792e-09 0)
(0.688425 -2.18852e-10 0)
(0.688864 7.47022e-11 0)
(0.689266 -3.74091e-10 0)
(0.689634 4.10836e-10 0)
(0.689976 -4.42025e-10 0)
(0.690296 2.79414e-10 0)
(0.690595 -6.49978e-10 0)
(0.690874 9.65012e-10 0)
(0.691135 -8.73965e-10 0)
(0.691377 9.18162e-10 0)
(0.691602 -1.31168e-09 0)
(0.691811 1.68707e-09 0)
(0.692005 -1.89433e-09 0)
(0.692184 2.20818e-09 0)
(0.692349 -2.59374e-09 0)
(0.692501 3.06594e-09 0)
(0.692641 -3.53246e-09 0)
(0.69277 4.056e-09 0)
(0.692887 -4.60635e-09 0)
(0.692995 5.23402e-09 0)
(0.693092 -5.89247e-09 0)
(0.693182 6.60202e-09 0)
(0.693262 -7.33056e-09 0)
(0.693336 8.10113e-09 0)
(0.693402 -8.89323e-09 0)
(0.693461 9.71486e-09 0)
(0.693515 -1.05489e-08 0)
(0.693563 1.13992e-08 0)
(0.693606 -1.22517e-08 0)
(0.693644 1.31095e-08 0)
(0.693678 -1.3969e-08 0)
(0.693709 1.48237e-08 0)
(0.693735 -1.56752e-08 0)
(0.693759 1.65184e-08 0)
(0.69378 -1.73565e-08 0)
(0.693798 1.81827e-08 0)
(0.693814 -1.90065e-08 0)
(0.693828 1.98181e-08 0)
(0.69384 -2.06292e-08 0)
(0.69385 2.1429e-08 0)
(0.693859 -2.22329e-08 0)
(0.693867 2.30276e-08 0)
(0.693874 -2.38305e-08 0)
(0.693879 2.46272e-08 0)
(0.693884 -2.54925e-08 0)
(0.693888 2.78053e-08 0)
(0.693892 -2.86444e-08 0)
(0.693895 2.94892e-08 0)
(0.693897 -3.036e-08 0)
(0.693899 3.1235e-08 0)
(0.693901 -3.21348e-08 0)
(0.693903 3.30372e-08 0)
(0.693904 -3.39626e-08 0)
(0.693905 3.48891e-08 0)
(0.693906 -3.58365e-08 0)
(0.693906 3.6783e-08 0)
(0.693907 -3.77479e-08 0)
(0.693907 3.87093e-08 0)
(0.693907 -3.96856e-08 0)
(0.693908 4.06549e-08 0)
(0.693908 -4.16337e-08 0)
(0.693908 4.25993e-08 0)
(0.693908 -4.35641e-08 0)
(0.693908 4.44987e-08 0)
(0.693908 -4.53631e-08 0)
(0.693908 4.6204e-08 0)
(0.693908 -4.70476e-08 0)
(0.693908 4.78818e-08 0)
(0.693908 -4.87231e-08 0)
(0.693909 4.9558e-08 0)
(0.693909 -5.04014e-08 0)
(0.693909 5.12399e-08 0)
(0.693909 -5.20875e-08 0)
(0.693909 5.29312e-08 0)
(0.693909 -5.37846e-08 0)
(0.693909 5.46348e-08 0)
(0.693909 -5.5495e-08 0)
(0.693909 5.63527e-08 0)
(0.693909 -5.72208e-08 0)
(0.693909 5.80872e-08 0)
(0.693909 -5.89642e-08 0)
(0.693909 5.98402e-08 0)
(0.693909 -6.0727e-08 0)
(0.693909 6.16138e-08 0)
(0.693909 -6.25116e-08 0)
(0.693909 6.34101e-08 0)
(0.693909 -6.43198e-08 0)
(0.693909 6.52313e-08 0)
(0.693909 -6.61541e-08 0)
(0.693909 6.70796e-08 0)
(0.693909 -6.80165e-08 0)
(0.693909 6.89575e-08 0)
(0.693909 -6.99099e-08 0)
(0.693909 7.08674e-08 0)
(0.693909 -7.18365e-08 0)
(0.693909 7.28122e-08 0)
(0.693909 -7.37993e-08 0)
(0.693909 7.47944e-08 0)
(0.693909 -7.57944e-08 0)
(0.693909 7.67941e-08 0)
(0.693909 -7.77964e-08 0)
(0.693909 7.88005e-08 0)
(0.693909 -7.98089e-08 0)
(0.693909 8.08212e-08 0)
(0.693909 -8.18397e-08 0)
(0.693909 8.2864e-08 0)
(0.693909 -8.38965e-08 0)
(0.693909 8.49367e-08 0)
(0.693909 -8.59871e-08 0)
(0.693909 8.70474e-08 0)
(0.693909 -8.81198e-08 0)
(0.693909 8.92042e-08 0)
(0.693909 -9.03028e-08 0)
(0.693909 8.01552e-08 0)
(0.693909 -7.94395e-08 0)
(0.693909 7.8721e-08 0)
(0.693909 -7.80021e-08 0)
(0.693909 7.72828e-08 0)
(0.693909 -7.65653e-08 0)
(0.693909 7.58497e-08 0)
(0.693909 -7.51381e-08 0)
(0.693909 7.44304e-08 0)
(0.693909 -7.37286e-08 0)
(0.693909 7.30328e-08 0)
(0.693909 -7.23448e-08 0)
(0.693909 7.16645e-08 0)
(0.693909 -7.09938e-08 0)
(0.693909 7.03326e-08 0)
(0.693909 -6.96826e-08 0)
(0.693909 6.90437e-08 0)
(0.693909 -6.84176e-08 0)
(0.693909 6.78038e-08 0)
(0.693909 -6.72046e-08 0)
(0.693909 6.66188e-08 0)
(0.693909 -6.60493e-08 0)
(0.693909 6.54938e-08 0)
(0.693909 -6.49566e-08 0)
(0.693909 6.4434e-08 0)
(0.693909 -6.39312e-08 0)
(0.693909 6.34364e-08 0)
(0.693909 -6.29539e-08 0)
(0.693909 6.24775e-08 0)
(0.693909 -6.20146e-08 0)
(0.693909 6.15581e-08 0)
(0.693909 -6.11163e-08 0)
(0.693909 6.06812e-08 0)
(0.693909 -6.02619e-08 0)
(0.693909 5.98498e-08 0)
(0.693909 -5.94549e-08 0)
(0.693909 5.90674e-08 0)
(0.693909 -5.8699e-08 0)
(0.693909 5.83385e-08 0)
(0.693909 -5.79989e-08 0)
(0.693909 5.76683e-08 0)
(0.693909 -5.73605e-08 0)
(0.693909 5.70635e-08 0)
(0.693909 -5.67917e-08 0)
(0.693909 5.65331e-08 0)
(0.693909 -5.63031e-08 0)
(0.693909 5.60908e-08 0)
(0.693909 -5.59123e-08 0)
(0.693909 5.57602e-08 0)
(0.693909 -5.56555e-08 0)
)
;

boundaryField
{
    inandouthalf11
    {
        type            cyclic;
    }
    inandouthalf12
    {
        type            cyclic;
    }
    inandouthalf21
    {
        type            cyclic;
    }
    inandouthalf22
    {
        type            cyclic;
    }
    inandouthalf31
    {
        type            cyclic;
    }
    inandouthalf32
    {
        type            cyclic;
    }
    inandouthalf41
    {
        type            cyclic;
    }
    inandouthalf42
    {
        type            cyclic;
    }
    top
    {
        type            symmetryPlane;
    }
    walls
    {
        type            calculated;
        value           uniform (0 0 0);
    }
    frontAndBackPlanes
    {
        type            empty;
    }
}


// ************************************************************************* //
