/*--------------------------------*- C++ -*----------------------------------*\
| =========                 |                                                 |
| \\      /  F ield         | OpenFOAM: The Open Source CFD Toolbox           |
|  \\    /   O peration     | Version:  2.4.x                                 |
|   \\  /    A nd           | Web:      www.OpenFOAM.org                      |
|    \\/     M anipulation  |                                                 |
\*---------------------------------------------------------------------------*/
FoamFile
{
    version     2.0;
    format      ascii;
    class       volVectorField;
    location    "2.65";
    object      Ua_0;
}
// * * * * * * * * * * * * * * * * * * * * * * * * * * * * * * * * * * * * * //

dimensions      [0 1 -1 0 0 0 0];

internalField   nonuniform List<vector> 
360
(
(-8.5783e-33 -4.31175e-32 0)
(-3.91673e-27 -2.13623e-26 0)
(-1.66831e-25 -8.97885e-25 0)
(-9.55935e-08 -4.97105e-07 0)
(-3.55295e-07 -1.7769e-06 0)
(-6.93954e-07 -3.37245e-06 0)
(-1.00932e-06 -4.83787e-06 0)
(-1.25414e-06 -5.98771e-06 0)
(-1.41695e-06 -6.76517e-06 0)
(-1.50874e-06 -7.20819e-06 0)
(-1.55331e-06 -7.42379e-06 0)
(-1.57323e-06 -7.5196e-06 0)
(-1.58234e-06 -7.56295e-06 0)
(-1.58709e-06 -7.58519e-06 0)
(-1.5901e-06 -7.59902e-06 0)
(-1.59244e-06 -7.60959e-06 0)
(-1.59463e-06 -7.61924e-06 0)
(-1.59692e-06 -7.62917e-06 0)
(-1.59947e-06 -7.63999e-06 0)
(-1.60234e-06 -7.65194e-06 0)
(-1.6055e-06 -7.6649e-06 0)
(-1.60888e-06 -7.67855e-06 0)
(-1.6124e-06 -7.69251e-06 0)
(-1.61596e-06 -7.70643e-06 0)
(-1.61951e-06 -7.72013e-06 0)
(-1.62304e-06 -7.7335e-06 0)
(-1.62654e-06 -7.74658e-06 0)
(-1.63004e-06 -7.75945e-06 0)
(-1.63355e-06 -7.77222e-06 0)
(-1.6371e-06 -7.78496e-06 0)
(-1.64071e-06 -7.79774e-06 0)
(-1.6444e-06 -7.81062e-06 0)
(-1.64816e-06 -7.82361e-06 0)
(-1.65202e-06 -7.83675e-06 0)
(-1.65597e-06 -7.85005e-06 0)
(-1.66001e-06 -7.86351e-06 0)
(-1.66416e-06 -7.87715e-06 0)
(-1.66841e-06 -7.891e-06 0)
(-1.67279e-06 -7.90508e-06 0)
(-1.67728e-06 -7.91942e-06 0)
(-1.68191e-06 -7.93403e-06 0)
(-1.68669e-06 -7.94895e-06 0)
(-1.69162e-06 -7.9642e-06 0)
(-1.69673e-06 -7.97985e-06 0)
(-1.70202e-06 -7.99593e-06 0)
(-1.70753e-06 -8.0125e-06 0)
(-1.71326e-06 -8.02962e-06 0)
(-1.71924e-06 -8.04733e-06 0)
(-1.72551e-06 -8.06573e-06 0)
(-1.7321e-06 -8.08495e-06 0)
(-1.73906e-06 -8.10508e-06 0)
(-1.74642e-06 -8.12624e-06 0)
(-1.75423e-06 -8.14855e-06 0)
(-1.76254e-06 -8.17214e-06 0)
(-1.77142e-06 -8.19718e-06 0)
(-1.78092e-06 -8.22385e-06 0)
(-1.79112e-06 -8.25235e-06 0)
(-1.8021e-06 -8.28288e-06 0)
(-1.81393e-06 -8.31564e-06 0)
(-1.82667e-06 -8.35079e-06 0)
(-1.84038e-06 -8.38849e-06 0)
(-1.85509e-06 -8.42884e-06 0)
(-1.87083e-06 -8.47188e-06 0)
(-1.88759e-06 -8.51759e-06 0)
(-1.90538e-06 -8.56595e-06 0)
(-1.92421e-06 -8.61699e-06 0)
(-1.94415e-06 -8.67089e-06 0)
(-1.96533e-06 -8.72803e-06 0)
(-1.98796e-06 -8.78894e-06 0)
(-2.01228e-06 -8.85433e-06 0)
(-2.03862e-06 -8.92507e-06 0)
(-2.0673e-06 -9.00212e-06 0)
(-2.09859e-06 -9.08623e-06 0)
(-2.13267e-06 -9.17793e-06 0)
(-2.16958e-06 -9.2774e-06 0)
(-2.20918e-06 -9.38429e-06 0)
(-2.25113e-06 -9.49772e-06 0)
(-2.29497e-06 -9.61643e-06 0)
(-2.3402e-06 -9.73908e-06 0)
(-2.38639e-06 -9.86452e-06 0)
(-2.43321e-06 -9.99191e-06 0)
(-2.48053e-06 -1.01209e-05 0)
(-2.52834e-06 -1.02516e-05 0)
(-2.57677e-06 -1.03843e-05 0)
(-2.62599e-06 -1.05197e-05 0)
(-2.67617e-06 -1.06583e-05 0)
(-2.72746e-06 -1.08005e-05 0)
(-2.7799e-06 -1.09466e-05 0)
(-2.83345e-06 -1.10965e-05 0)
(-2.888e-06 -1.125e-05 0)
(-2.9434e-06 -1.14066e-05 0)
(-2.99944e-06 -1.1566e-05 0)
(-3.05596e-06 -1.17276e-05 0)
(-3.11279e-06 -1.1891e-05 0)
(-3.16981e-06 -1.20561e-05 0)
(-3.22691e-06 -1.22224e-05 0)
(-3.28399e-06 -1.23899e-05 0)
(-3.34099e-06 -1.25583e-05 0)
(-3.3978e-06 -1.27276e-05 0)
(-3.45436e-06 -1.28975e-05 0)
(-3.5106e-06 -1.30678e-05 0)
(-3.56643e-06 -1.32385e-05 0)
(-3.62179e-06 -1.34093e-05 0)
(-3.67661e-06 -1.35802e-05 0)
(-3.73085e-06 -1.3751e-05 0)
(-3.78444e-06 -1.39217e-05 0)
(-3.83734e-06 -1.40922e-05 0)
(-3.88949e-06 -1.42623e-05 0)
(-3.94084e-06 -1.4432e-05 0)
(-3.99133e-06 -1.46011e-05 0)
(-4.04093e-06 -1.47697e-05 0)
(-4.08956e-06 -1.49376e-05 0)
(-4.13716e-06 -1.51046e-05 0)
(-4.18369e-06 -1.52707e-05 0)
(-4.22907e-06 -1.54357e-05 0)
(-4.27322e-06 -1.55994e-05 0)
(-4.31608e-06 -1.57618e-05 0)
(-4.35758e-06 -1.59225e-05 0)
(-4.39762e-06 -1.60814e-05 0)
(-4.43615e-06 -1.62384e-05 0)
(-4.47309e-06 -1.63933e-05 0)
(-4.50837e-06 -1.65458e-05 0)
(-4.54193e-06 -1.66959e-05 0)
(-4.57374e-06 -1.68436e-05 0)
(-4.60375e-06 -1.69887e-05 0)
(-4.63196e-06 -1.71314e-05 0)
(-4.65838e-06 -1.72721e-05 0)
(-4.68303e-06 -1.74111e-05 0)
(-4.70593e-06 -1.75491e-05 0)
(-4.72708e-06 -1.76867e-05 0)
(-4.74642e-06 -1.78245e-05 0)
(-4.76384e-06 -1.79627e-05 0)
(-4.7792e-06 -1.81019e-05 0)
(-4.79231e-06 -1.82427e-05 0)
(-4.80294e-06 -1.83862e-05 0)
(-4.81075e-06 -1.85332e-05 0)
(-4.81522e-06 -1.86842e-05 0)
(-4.81574e-06 -1.88397e-05 0)
(-4.81142e-06 -1.9003e-05 0)
(-4.8009e-06 -1.91786e-05 0)
(-4.78306e-06 -1.93625e-05 0)
(-4.75922e-06 -1.95317e-05 0)
(-4.73369e-06 -1.96641e-05 0)
(-4.71259e-06 -1.97502e-05 0)
(-4.70266e-06 -1.97841e-05 0)
(-4.70231e-06 -1.97849e-05 0)
(-4.70223e-06 -1.9785e-05 0)
(-4.92339e-06 -3.19946e-05 0)
(0.0210549 -0.00432828 0)
(0.0603098 -0.00653626 0)
(0.0933288 -0.00860268 0)
(0.120599 -0.00972771 0)
(0.144255 -0.0104008 0)
(0.165555 -0.0107488 0)
(0.185213 -0.0108756 0)
(0.203662 -0.0108462 0)
(0.221181 -0.0107025 0)
(0.237962 -0.0104723 0)
(0.254141 -0.0101744 0)
(0.269817 -0.00982168 0)
(0.285064 -0.00942339 0)
(0.29994 -0.00898597 0)
(0.314486 -0.00851414 0)
(0.328734 -0.00801141 0)
(0.342707 -0.0074805 0)
(0.356422 -0.00692361 0)
(0.369885 -0.00634267 0)
(0.3831 -0.00573958 0)
(0.396063 -0.00511646 0)
(0.408765 -0.00447599 0)
(0.42119 -0.00382199 0)
(0.43332 -0.00316003 0)
(0.445133 -0.00249739 0)
(0.456604 -0.00184008 0)
(0.467711 -0.00118367 0)
(0.478435 -0.000487463 0)
(0.488761 0.000303836 0)
(0.498675 0.00120326 0)
(0.50815 0.00219557 0)
(0.517153 0.00326768 0)
(0.525647 0.00441027 0)
(0.533589 0.00561293 0)
(0.540934 0.00685722 0)
(0.547642 0.00810531 0)
(0.55368 0.00928872 0)
(0.559037 0.0103109 0)
(0.56374 0.0110775 0)
(0.567854 0.0115452 0)
(0.571481 0.0117456 0)
(0.574731 0.0117587 0)
(0.577703 0.011666 0)
(0.580468 0.011524 0)
(0.583071 0.0113646 0)
(0.585533 0.0112042 0)
(0.587864 0.0110505 0)
(0.59007 0.010907 0)
(0.592158 0.0107741 0)
(0.594136 0.0106507 0)
(0.596013 0.0105355 0)
(0.597793 0.0104273 0)
(0.599482 0.0103251 0)
(0.601103 0.0102268 0)
(0.602677 0.0101306 0)
(0.604203 0.0100365 0)
(0.605681 0.00994443 0)
(0.607121 0.00985353 0)
(0.608531 0.00976276 0)
(0.609905 0.00967262 0)
(0.611239 0.00958347 0)
(0.612547 0.00949398 0)
(0.613834 0.00940348 0)
(0.615091 0.00931264 0)
(0.616325 0.00922097 0)
(0.617541 0.00912759 0)
(0.618735 0.00903293 0)
(0.61991 0.00893665 0)
(0.621076 0.00883734 0)
(0.622225 0.00873571 0)
(0.623351 0.00863262 0)
(0.624468 0.00852609 0)
(0.625577 0.00841557 0)
(0.62667 0.0083021 0)
(0.627751 0.00818496 0)
(0.628818 0.00806396 0)
(0.629873 0.00793872 0)
(0.630926 0.00780744 0)
(0.631967 0.00767096 0)
(0.632993 0.00752961 0)
(0.634016 0.0073807 0)
(0.635028 0.00722484 0)
(0.636027 0.00706202 0)
(0.637018 0.0068902 0)
(0.637995 0.00670942 0)
(0.638953 0.00651946 0)
(0.639889 0.00631956 0)
(0.640803 0.00610785 0)
(0.641686 0.0058839 0)
(0.642529 0.00564779 0)
(0.643328 0.00539589 0)
(0.644069 0.00512707 0)
(0.644752 0.00483187 0)
(0.645473 0.00452211 0)
(0.699283 -0.0394734 0)
(0.699287 -0.0394733 0)
(0.699289 -0.0394733 0)
(0.699292 -0.0394733 0)
(0.699294 -0.0394733 0)
(0.699295 -0.0394733 0)
(0.699297 -0.0394733 0)
(0.699298 -0.0394733 0)
(0.699299 -0.0394733 0)
(0.6993 -0.0394733 0)
(0.6993 -0.0394733 0)
(0.699301 -0.0394733 0)
(0.699301 -0.0394733 0)
(0.699301 -0.0394733 0)
(0.699302 -0.0394733 0)
(0.699302 -0.0394733 0)
(0.699302 -0.0394733 0)
(0.699302 -0.0394733 0)
(0.699302 -0.0394733 0)
(0.699302 -0.0394733 0)
(0.699302 -0.0394733 0)
(0.699302 -0.0394733 0)
(0.699302 -0.0394733 0)
(0.699302 -0.0394733 0)
(0.699302 -0.0394733 0)
(0.699303 -0.0394733 0)
(0.699303 -0.0394733 0)
(0.699303 -0.0394733 0)
(0.699303 -0.0394733 0)
(0.699303 -0.0394733 0)
(0.699303 -0.0394733 0)
(0.699303 -0.0394733 0)
(0.699303 -0.0394733 0)
(0.699303 -0.0394733 0)
(0.699303 -0.0394733 0)
(0.699303 -0.0394733 0)
(0.699303 -0.0394733 0)
(0.699303 -0.0394733 0)
(0.699303 -0.0394733 0)
(0.699303 -0.0394733 0)
(0.699303 -0.0394733 0)
(0.699303 -0.0394733 0)
(0.699303 -0.0394733 0)
(0.699303 -0.0394733 0)
(0.699303 -0.0394733 0)
(0.699303 -0.0394733 0)
(0.699303 -0.0394733 0)
(0.699303 -0.0394733 0)
(0.699303 -0.0394733 0)
(0.699303 -0.0394733 0)
(0.699303 -0.0394733 0)
(0.699303 -0.0394733 0)
(0.699303 -0.0394733 0)
(0.699303 -0.0394733 0)
(0.699303 -0.0394733 0)
(0.699303 -0.0394733 0)
(0.699303 -0.0394733 0)
(0.699303 -0.0394733 0)
(0.699303 -0.0394733 0)
(0.699303 -0.0394733 0)
(0.699303 -0.0394733 0)
(0.699303 -0.0394733 0)
(0.699303 -0.0394733 0)
(0.699303 -0.0394733 0)
(0.699303 -0.0394733 0)
(0.699303 -0.0394733 0)
(0.699303 -0.0394733 0)
(0.699303 -0.0394733 0)
(0.699303 -0.0394733 0)
(0.699303 -0.0394733 0)
(0.699303 -0.0394733 0)
(0.699303 -0.0394733 0)
(0.699303 -0.0394733 0)
(0.699303 -0.0394733 0)
(0.699303 -0.0394733 0)
(0.699303 -0.0394733 0)
(0.699303 -0.0394733 0)
(0.699303 -0.0394733 0)
(0.699303 -0.0394733 0)
(0.699303 -0.0394733 0)
(0.699303 -0.0394733 0)
(0.699303 -0.0394733 0)
(0.699303 -0.0394733 0)
(0.699303 -0.0394733 0)
(0.699303 -0.0394733 0)
(0.699303 -0.0394733 0)
(0.699303 -0.0394733 0)
(0.699303 -0.0394733 0)
(0.699303 -0.0394733 0)
(0.699303 -0.0394733 0)
(0.699303 -0.0394733 0)
(0.699303 -0.0394733 0)
(0.699303 -0.0394733 0)
(0.699303 -0.0394733 0)
(0.699303 -0.0394733 0)
(0.699303 -0.0394733 0)
(0.699303 -0.0394733 0)
(0.699303 -0.0394733 0)
(0.699303 -0.0394733 0)
(0.699303 -0.0394733 0)
(0.699303 -0.0394733 0)
(0.699303 -0.0394733 0)
(0.699303 -0.0394733 0)
(0.699303 -0.0394733 0)
(0.699303 -0.0394733 0)
(0.699303 -0.0394733 0)
(0.699303 -0.0394733 0)
(0.699303 -0.0394733 0)
(0.699303 -0.0394733 0)
(0.699303 -0.0394733 0)
(0.699303 -0.0394733 0)
(0.699303 -0.0394733 0)
(0.699303 -0.0394733 0)
(0.699303 -0.0394733 0)
(0.699303 -0.0394731 0)
(0.699304 -0.0394646 0)
(0.699339 -0.0391182 0)
(0.700141 -0.0223507 0)
)
;

boundaryField
{
    inandouthalf11
    {
        type            cyclic;
    }
    inandouthalf12
    {
        type            cyclic;
    }
    inandouthalf21
    {
        type            cyclic;
    }
    inandouthalf22
    {
        type            cyclic;
    }
    inandouthalf31
    {
        type            cyclic;
    }
    inandouthalf32
    {
        type            cyclic;
    }
    inandouthalf41
    {
        type            cyclic;
    }
    inandouthalf42
    {
        type            cyclic;
    }
    top
    {
        type            symmetryPlane;
    }
    walls
    {
        type            fixedValue;
        value           uniform (0 0 0);
    }
    frontAndBackPlanes
    {
        type            empty;
    }
}


// ************************************************************************* //
