/*--------------------------------*- C++ -*----------------------------------*\
| =========                 |                                                 |
| \\      /  F ield         | OpenFOAM: The Open Source CFD Toolbox           |
|  \\    /   O peration     | Version:  2.4.x                                 |
|   \\  /    A nd           | Web:      www.OpenFOAM.org                      |
|    \\/     M anipulation  |                                                 |
\*---------------------------------------------------------------------------*/
FoamFile
{
    version     2.0;
    format      ascii;
    class       volVectorField;
    location    "2.65";
    object      Ur;
}
// * * * * * * * * * * * * * * * * * * * * * * * * * * * * * * * * * * * * * //

dimensions      [0 1 -1 0 0 0 0];

internalField   nonuniform List<vector> 
360
(
(-0.000272765 6.9644e-09 0)
(-0.00027323 -2.44725e-08 0)
(-0.000273184 1.02562e-07 0)
(-0.000273034 1.51157e-06 0)
(-0.000272872 4.66992e-06 0)
(-0.000272817 8.59161e-06 0)
(-0.000272868 1.22753e-05 0)
(-0.000272965 1.52059e-05 0)
(-0.000273052 1.72178e-05 0)
(-0.000273112 1.83968e-05 0)
(-0.000273147 1.8992e-05 0)
(-0.000273163 1.9264e-05 0)
(-0.000273173 1.93874e-05 0)
(-0.000273178 1.94493e-05 0)
(-0.000273182 1.94867e-05 0)
(-0.000273185 1.95147e-05 0)
(-0.000273187 1.95398e-05 0)
(-0.000273188 1.95654e-05 0)
(-0.00027319 1.95931e-05 0)
(-0.000273194 1.96237e-05 0)
(-0.000273196 1.96566e-05 0)
(-0.0002732 1.96914e-05 0)
(-0.000273204 1.97269e-05 0)
(-0.000273209 1.97624e-05 0)
(-0.000273213 1.97974e-05 0)
(-0.000273217 1.98316e-05 0)
(-0.000273222 1.9865e-05 0)
(-0.000273228 1.9898e-05 0)
(-0.000273234 1.99306e-05 0)
(-0.000273241 1.99631e-05 0)
(-0.000273247 1.99957e-05 0)
(-0.000273256 2.00286e-05 0)
(-0.000273262 2.00617e-05 0)
(-0.000273273 2.00953e-05 0)
(-0.000273281 2.01291e-05 0)
(-0.000273292 2.01634e-05 0)
(-0.000273302 2.01982e-05 0)
(-0.000273315 2.02334e-05 0)
(-0.000273329 2.02693e-05 0)
(-0.000273342 2.03056e-05 0)
(-0.000273359 2.03428e-05 0)
(-0.000273376 2.03807e-05 0)
(-0.000273392 2.04194e-05 0)
(-0.000273413 2.04591e-05 0)
(-0.000273434 2.04999e-05 0)
(-0.000273457 2.05419e-05 0)
(-0.000273481 2.05853e-05 0)
(-0.000273506 2.06301e-05 0)
(-0.000273534 2.06767e-05 0)
(-0.000273567 2.07253e-05 0)
(-0.000273599 2.07762e-05 0)
(-0.000273634 2.08297e-05 0)
(-0.000273672 2.0886e-05 0)
(-0.000273713 2.09457e-05 0)
(-0.000273755 2.10089e-05 0)
(-0.000273802 2.10763e-05 0)
(-0.00027385 2.11482e-05 0)
(-0.000273902 2.12254e-05 0)
(-0.000273957 2.13081e-05 0)
(-0.000274013 2.13969e-05 0)
(-0.000274074 2.14922e-05 0)
(-0.000274136 2.15941e-05 0)
(-0.0002742 2.17028e-05 0)
(-0.000274265 2.18183e-05 0)
(-0.000274332 2.19406e-05 0)
(-0.0002744 2.20697e-05 0)
(-0.000274471 2.22061e-05 0)
(-0.000274544 2.23508e-05 0)
(-0.00027462 2.25052e-05 0)
(-0.000274699 2.26709e-05 0)
(-0.000274783 2.28502e-05 0)
(-0.00027487 2.30455e-05 0)
(-0.000274959 2.32586e-05 0)
(-0.000275052 2.34909e-05 0)
(-0.000275147 2.37426e-05 0)
(-0.000275245 2.40131e-05 0)
(-0.000275342 2.43e-05 0)
(-0.000275441 2.46003e-05 0)
(-0.000275542 2.49106e-05 0)
(-0.000275645 2.5228e-05 0)
(-0.00027575 2.55505e-05 0)
(-0.000275858 2.58771e-05 0)
(-0.00027597 2.62079e-05 0)
(-0.000276084 2.65438e-05 0)
(-0.000276202 2.68864e-05 0)
(-0.000276322 2.72369e-05 0)
(-0.000276446 2.75965e-05 0)
(-0.000276572 2.79657e-05 0)
(-0.0002767 2.83443e-05 0)
(-0.000276831 2.87318e-05 0)
(-0.000276964 2.91272e-05 0)
(-0.0002771 2.95293e-05 0)
(-0.000277239 2.99369e-05 0)
(-0.000277381 3.0349e-05 0)
(-0.000277526 3.0765e-05 0)
(-0.000277675 3.11841e-05 0)
(-0.000277827 3.16058e-05 0)
(-0.000277982 3.20298e-05 0)
(-0.000278141 3.24555e-05 0)
(-0.000278304 3.28826e-05 0)
(-0.000278471 3.33105e-05 0)
(-0.000278641 3.3739e-05 0)
(-0.000278816 3.41676e-05 0)
(-0.000278995 3.45961e-05 0)
(-0.000279178 3.50241e-05 0)
(-0.000279366 3.54513e-05 0)
(-0.000279559 3.58776e-05 0)
(-0.000279757 3.63027e-05 0)
(-0.00027996 3.67263e-05 0)
(-0.000280168 3.71483e-05 0)
(-0.000280381 3.75682e-05 0)
(-0.000280601 3.79859e-05 0)
(-0.000280827 3.84011e-05 0)
(-0.000281059 3.88134e-05 0)
(-0.000281298 3.92225e-05 0)
(-0.000281544 3.96279e-05 0)
(-0.000281797 4.00291e-05 0)
(-0.000282059 4.04257e-05 0)
(-0.000282329 4.08173e-05 0)
(-0.000282607 4.12032e-05 0)
(-0.000282895 4.15831e-05 0)
(-0.000283193 4.19565e-05 0)
(-0.000283501 4.23231e-05 0)
(-0.000283821 4.26826e-05 0)
(-0.000284152 4.3035e-05 0)
(-0.000284496 4.33807e-05 0)
(-0.000284854 4.37203e-05 0)
(-0.000285227 4.40549e-05 0)
(-0.000285616 4.43859e-05 0)
(-0.000286022 4.47149e-05 0)
(-0.000286446 4.50431e-05 0)
(-0.000286888 4.53715e-05 0)
(-0.000287349 4.57009e-05 0)
(-0.000287834 4.6033e-05 0)
(-0.000288347 4.63705e-05 0)
(-0.000288887 4.67155e-05 0)
(-0.000289446 4.70686e-05 0)
(-0.000290032 4.74316e-05 0)
(-0.000290674 4.78111e-05 0)
(-0.000291405 4.82159e-05 0)
(-0.000292188 4.86353e-05 0)
(-0.000292917 4.90083e-05 0)
(-0.000293801 4.92864e-05 0)
(-0.000294984 4.94657e-05 0)
(-0.000296453 4.75541e-05 0)
(-0.000298637 6.7549e-05 0)
(-0.000316376 -2.18758e-05 0)
(-0.000300508 0.000336402 0)
(2.31905e-05 0.00702072 0)
(0.000480656 0.0084448 0)
(-0.000930879 0.0102524 0)
(-0.00213194 0.0110895 0)
(-0.00299657 0.0115396 0)
(-0.00364796 0.0117059 0)
(-0.00416638 0.011683 0)
(-0.00459605 0.0115293 0)
(-0.00496221 0.0112818 0)
(-0.00527969 0.0109642 0)
(-0.00555734 0.0105923 0)
(-0.00580018 0.0101766 0)
(-0.00601037 0.00972447 0)
(-0.00618797 0.00924089 0)
(-0.00633114 0.00872936 0)
(-0.00643604 0.00819243 0)
(-0.00649662 0.00763203 0)
(-0.00650449 0.00704973 0)
(-0.00644857 0.0064469 0)
(-0.00631486 0.00582501 0)
(-0.0060861 0.00518579 0)
(-0.00574175 0.00453162 0)
(-0.00525802 0.00386602 0)
(-0.00460837 0.00319435 0)
(-0.00376458 0.00252367 0)
(-0.00269827 0.00185988 0)
(-0.00138316 0.00119842 0)
(0.000202121 0.000498584 0)
(0.00207129 -0.00029528 0)
(0.00424028 -0.00119667 0)
(0.00673416 -0.00219046 0)
(0.00958416 -0.00326357 0)
(0.012826 -0.00440668 0)
(0.0164979 -0.00560945 0)
(0.0206384 -0.00685348 0)
(0.0252812 -0.00810108 0)
(0.0304478 -0.00928391 0)
(0.0361336 -0.0103056 0)
(0.0422935 -0.0110719 0)
(0.0488331 -0.0115394 0)
(0.0556166 -0.0117397 0)
(0.0624887 -0.0117527 0)
(0.069296 -0.0116599 0)
(0.075897 -0.0115178 0)
(0.0821526 -0.0113584 0)
(0.0879017 -0.0111979 0)
(0.0929212 -0.0110442 0)
(0.0962047 -0.0109005 0)
(0.0959847 -0.0107675 0)
(0.0945673 -0.0106441 0)
(0.0931291 -0.0105289 0)
(0.0917492 -0.0104206 0)
(0.0904281 -0.0103184 0)
(0.0891488 -0.01022 0)
(0.0878945 -0.0101238 0)
(0.086667 -0.0100297 0)
(0.0854681 -0.0099376 0)
(0.0842884 -0.00984669 0)
(0.0831199 -0.00975591 0)
(0.0819711 -0.00966576 0)
(0.0808458 -0.0095766 0)
(0.0797311 -0.00948711 0)
(0.0786235 -0.00939661 0)
(0.077531 -0.00930576 0)
(0.0764493 -0.00921409 0)
(0.0753729 -0.00912072 0)
(0.0743074 -0.00902605 0)
(0.07325 -0.00892979 0)
(0.0721904 -0.00883047 0)
(0.071139 -0.00872886 0)
(0.0701026 -0.00862576 0)
(0.0690665 -0.00851926 0)
(0.0680302 -0.00840873 0)
(0.0670028 -0.00829529 0)
(0.0659817 -0.00817815 0)
(0.0649682 -0.00805718 0)
(0.0639607 -0.00793193 0)
(0.062951 -0.00780069 0)
(0.0619485 -0.0076642 0)
(0.0609563 -0.0075229 0)
(0.0599633 -0.00737399 0)
(0.0589778 -0.00721817 0)
(0.0580021 -0.00705535 0)
(0.0570323 -0.00688359 0)
(0.0560736 -0.0067028 0)
(0.0551313 -0.00651291 0)
(0.0542086 -0.006313 0)
(0.0533066 -0.00610137 0)
(0.0524335 -0.00587741 0)
(0.0515995 -0.00564138 0)
(0.0508088 -0.00538947 0)
(0.0500735 -0.00512074 0)
(0.0493962 -0.00482551 0)
(0.0486798 -0.00451583 0)
(-0.00513996 0.0394734 0)
(-0.00514006 0.0394732 0)
(-0.00513992 0.0394733 0)
(-0.00513982 0.0394733 0)
(-0.00513974 0.0394733 0)
(-0.00513967 0.0394733 0)
(-0.00513961 0.0394733 0)
(-0.00513956 0.0394733 0)
(-0.00513952 0.0394733 0)
(-0.00513949 0.0394733 0)
(-0.00513947 0.0394733 0)
(-0.00513945 0.0394733 0)
(-0.00513943 0.0394733 0)
(-0.00513942 0.0394733 0)
(-0.00513941 0.0394733 0)
(-0.0051394 0.0394733 0)
(-0.00513939 0.0394733 0)
(-0.00513939 0.0394733 0)
(-0.00513938 0.0394733 0)
(-0.00513938 0.0394733 0)
(-0.00513938 0.0394733 0)
(-0.00513938 0.0394733 0)
(-0.00513937 0.0394733 0)
(-0.00513937 0.0394732 0)
(-0.00513937 0.0394733 0)
(-0.00513937 0.0394732 0)
(-0.00513937 0.0394733 0)
(-0.00513937 0.0394732 0)
(-0.00513937 0.0394733 0)
(-0.00513937 0.0394732 0)
(-0.00513937 0.0394733 0)
(-0.00513937 0.0394732 0)
(-0.00513937 0.0394733 0)
(-0.00513937 0.0394732 0)
(-0.00513937 0.0394733 0)
(-0.00513937 0.0394732 0)
(-0.00513937 0.0394733 0)
(-0.00513937 0.0394732 0)
(-0.00513937 0.0394733 0)
(-0.00513937 0.0394732 0)
(-0.00513937 0.0394733 0)
(-0.00513937 0.0394732 0)
(-0.00513937 0.0394733 0)
(-0.00513937 0.0394732 0)
(-0.00513937 0.0394733 0)
(-0.00513937 0.0394732 0)
(-0.00513937 0.0394733 0)
(-0.00513937 0.0394732 0)
(-0.00513937 0.0394733 0)
(-0.00513937 0.0394732 0)
(-0.00513937 0.0394733 0)
(-0.00513937 0.0394732 0)
(-0.00513937 0.0394733 0)
(-0.00513937 0.0394732 0)
(-0.00513937 0.0394733 0)
(-0.00513937 0.0394732 0)
(-0.00513937 0.0394734 0)
(-0.00513937 0.0394732 0)
(-0.00513937 0.0394734 0)
(-0.00513937 0.0394732 0)
(-0.00513937 0.0394734 0)
(-0.00513937 0.0394732 0)
(-0.00513937 0.0394734 0)
(-0.00513937 0.0394732 0)
(-0.00513937 0.0394734 0)
(-0.00513937 0.0394732 0)
(-0.00513937 0.0394734 0)
(-0.00513937 0.0394732 0)
(-0.00513937 0.0394734 0)
(-0.00513937 0.0394732 0)
(-0.00513937 0.0394734 0)
(-0.00513937 0.0394732 0)
(-0.00513937 0.0394733 0)
(-0.00513937 0.0394732 0)
(-0.00513937 0.0394733 0)
(-0.00513937 0.0394732 0)
(-0.00513937 0.0394733 0)
(-0.00513937 0.0394732 0)
(-0.00513937 0.0394733 0)
(-0.00513937 0.0394732 0)
(-0.00513937 0.0394733 0)
(-0.00513937 0.0394732 0)
(-0.00513937 0.0394733 0)
(-0.00513937 0.0394732 0)
(-0.00513937 0.0394733 0)
(-0.00513937 0.0394732 0)
(-0.00513937 0.0394733 0)
(-0.00513937 0.0394732 0)
(-0.00513937 0.0394733 0)
(-0.00513937 0.0394732 0)
(-0.00513937 0.0394733 0)
(-0.00513937 0.0394732 0)
(-0.00513937 0.0394733 0)
(-0.00513937 0.0394732 0)
(-0.00513937 0.0394733 0)
(-0.00513937 0.0394732 0)
(-0.00513937 0.0394733 0)
(-0.00513937 0.0394732 0)
(-0.00513937 0.0394733 0)
(-0.00513937 0.0394732 0)
(-0.00513937 0.0394733 0)
(-0.00513937 0.0394732 0)
(-0.00513937 0.0394733 0)
(-0.00513937 0.0394732 0)
(-0.00513937 0.0394733 0)
(-0.00513937 0.0394732 0)
(-0.00513937 0.0394733 0)
(-0.00513937 0.0394732 0)
(-0.00513937 0.0394733 0)
(-0.00513937 0.0394732 0)
(-0.00513937 0.0394733 0)
(-0.00513937 0.0394732 0)
(-0.00513937 0.0394733 0)
(-0.00513937 0.0394732 0)
(-0.00513942 0.0394731 0)
(-0.00514084 0.0394645 0)
(-0.00517549 0.0391183 0)
(-0.00597797 0.0223507 0)
)
;

boundaryField
{
    inandouthalf11
    {
        type            cyclic;
    }
    inandouthalf12
    {
        type            cyclic;
    }
    inandouthalf21
    {
        type            cyclic;
    }
    inandouthalf22
    {
        type            cyclic;
    }
    inandouthalf31
    {
        type            cyclic;
    }
    inandouthalf32
    {
        type            cyclic;
    }
    inandouthalf41
    {
        type            cyclic;
    }
    inandouthalf42
    {
        type            cyclic;
    }
    top
    {
        type            symmetryPlane;
    }
    walls
    {
        type            calculated;
        value           uniform (0 0 0);
    }
    frontAndBackPlanes
    {
        type            empty;
    }
}


// ************************************************************************* //
