/*--------------------------------*- C++ -*----------------------------------*\
| =========                 |                                                 |
| \\      /  F ield         | OpenFOAM: The Open Source CFD Toolbox           |
|  \\    /   O peration     | Version:  2.4.x                                 |
|   \\  /    A nd           | Web:      www.OpenFOAM.org                      |
|    \\/     M anipulation  |                                                 |
\*---------------------------------------------------------------------------*/
FoamFile
{
    version     2.0;
    format      ascii;
    class       volVectorField;
    location    "8.8";
    object      gradPs;
}
// * * * * * * * * * * * * * * * * * * * * * * * * * * * * * * * * * * * * * //

dimensions      [0 1 -2 0 0 0 0];

internalField   nonuniform List<vector> 
360
(
(0 1.54395e-18 0)
(0 1.70325e-18 0)
(0 2.06322e-21 0)
(0 -2.3464e-19 0)
(-1.45036e-32 -9.89834e-20 0)
(-1.45039e-32 -5.38993e-20 0)
(-1.45043e-32 -6.93182e-20 0)
(0 -7.94361e-20 0)
(-1.45054e-32 -8.108e-20 0)
(0 -8.2054e-20 0)
(-2.9013e-32 -8.2513e-20 0)
(0 -8.29585e-20 0)
(-1.45076e-32 -8.37705e-20 0)
(0 -8.45995e-20 0)
(0 -8.56658e-20 0)
(0 -8.6745e-20 0)
(0 -8.76171e-20 0)
(-1.45105e-32 -8.84071e-20 0)
(0 -8.95725e-20 0)
(0 -9.04062e-20 0)
(0 -9.12706e-20 0)
(-1.45129e-32 -9.2484e-20 0)
(0 -9.33724e-20 0)
(0 -9.43954e-20 0)
(0 -9.54374e-20 0)
(-2.90308e-32 -9.62765e-20 0)
(0 -9.74102e-20 0)
(0 -9.85788e-20 0)
(0 -9.94075e-20 0)
(0 -1.00363e-19 0)
(0 -1.01705e-19 0)
(0 -1.02376e-19 0)
(0 -1.03596e-19 0)
(0 -1.04832e-19 0)
(0 -1.05578e-19 0)
(1.45221e-32 -1.06675e-19 0)
(0 -1.07697e-19 0)
(0 -1.09272e-19 0)
(0 -1.09699e-19 0)
(0 -1.10933e-19 0)
(0 -1.12653e-19 0)
(0 -1.12892e-19 0)
(1.45272e-32 -1.14429e-19 0)
(0 -1.15819e-19 0)
(0 -1.16642e-19 0)
(0 -1.1833e-19 0)
(0 -1.18948e-19 0)
(0 -1.19983e-19 0)
(0 -1.22322e-19 0)
(0 -1.23044e-19 0)
(1.45336e-32 -1.2403e-19 0)
(0 -1.25797e-19 0)
(0 -1.27201e-19 0)
(0 -1.283e-19 0)
(0 -1.30061e-19 0)
(0 -1.31488e-19 0)
(0 -1.32833e-19 0)
(0 -1.34819e-19 0)
(0 -1.3555e-19 0)
(0 -1.37789e-19 0)
(0 -1.3953e-19 0)
(0 -1.40976e-19 0)
(0 -1.43048e-19 0)
(0 -1.44571e-19 0)
(0 -1.46339e-19 0)
(0 -1.48265e-19 0)
(0 -1.50492e-19 0)
(0 -1.52308e-19 0)
(0 -1.53734e-19 0)
(0 -1.56177e-19 0)
(0 -1.59117e-19 0)
(0 -1.60355e-19 0)
(0 -1.62527e-19 0)
(0 -1.65344e-19 0)
(0 -1.67758e-19 0)
(0 -1.70043e-19 0)
(0 -1.72091e-19 0)
(0 -1.74907e-19 0)
(0 -1.77676e-19 0)
(0 -1.80141e-19 0)
(0 -1.82841e-19 0)
(0 -1.85918e-19 0)
(0 -1.88834e-19 0)
(0 -1.91846e-19 0)
(0 -1.94957e-19 0)
(0 -1.98184e-19 0)
(0 -2.01449e-19 0)
(0 -2.04705e-19 0)
(0 -2.08209e-19 0)
(0 -2.11835e-19 0)
(0 -2.15516e-19 0)
(0 -2.19399e-19 0)
(0 -2.23453e-19 0)
(0 -2.27588e-19 0)
(0 -2.31857e-19 0)
(0 -2.36264e-19 0)
(0 -2.40802e-19 0)
(0 -2.45488e-19 0)
(0 -2.50356e-19 0)
(0 -2.5541e-19 0)
(0 -2.60657e-19 0)
(0 -2.66116e-19 0)
(0 -2.7179e-19 0)
(0 -2.77675e-19 0)
(0 -2.83784e-19 0)
(0 -2.90128e-19 0)
(0 -2.96718e-19 0)
(0 -3.03568e-19 0)
(0 -3.10695e-19 0)
(0 -3.1811e-19 0)
(0 -3.2583e-19 0)
(0 -3.33869e-19 0)
(0 -3.42247e-19 0)
(0 -3.50984e-19 0)
(0 -3.60105e-19 0)
(0 -3.69639e-19 0)
(0 -3.79619e-19 0)
(0 -3.90083e-19 0)
(0 -4.01077e-19 0)
(0 -4.12647e-19 0)
(0 -4.24842e-19 0)
(0 -4.37704e-19 0)
(0 -4.51273e-19 0)
(0 -4.65603e-19 0)
(0 -4.80794e-19 0)
(0 -4.97031e-19 0)
(0 -5.14587e-19 0)
(0 -5.33722e-19 0)
(0 -5.54323e-19 0)
(0 8.27011e-17 0)
(0 2.10062e-15 0)
(0 2.71879e-14 0)
(0 3.50684e-13 0)
(0 4.82255e-12 0)
(0 7.15783e-11 0)
(0 1.15732e-09 0)
(0 2.05834e-08 0)
(0 4.08155e-07 0)
(0 9.45885e-06 0)
(0 0.000477154 0)
(0 0.0385514 0)
(0 0.974138 0)
(0 7.95201 0)
(0 8.22982 0)
(0 1.75335 0)
(0 -0.529402 0)
(0 -2.30309 0)
(0 -3.0967 0)
(0 -3.49423 0)
(0 -3.71932 0)
(0 -3.85599 0)
(0 -3.87725 0)
(0 -3.83427 0)
(0 -3.81073 0)
(0 -3.78657 0)
(0 -3.75645 0)
(0 -3.72144 0)
(0 -3.68337 0)
(0 -3.64383 0)
(0 -3.60403 0)
(0 -3.56472 0)
(0 -3.52638 0)
(0 -3.48941 0)
(0 -3.45358 0)
(0 -3.4186 0)
(0 -3.38431 0)
(0 -3.35032 0)
(0 -3.31622 0)
(0 -3.28153 0)
(0 -3.24578 0)
(0 -3.20849 0)
(0 -3.16922 0)
(0 -3.12748 0)
(0 -3.08291 0)
(0 -3.03519 0)
(0 -2.98402 0)
(0 -2.92918 0)
(0 -2.87061 0)
(0 -2.8084 0)
(0 -2.7428 0)
(0 -2.67425 0)
(0 -2.60344 0)
(0 -2.53156 0)
(0 -2.46098 0)
(0 -2.39558 0)
(0 -2.33909 0)
(0 -2.291 0)
(0 -2.24267 0)
(0 -2.17827 0)
(0 -2.08202 0)
(0 -1.94764 0)
(0 -1.78261 0)
(0 -1.60393 0)
(0 -1.42923 0)
(0 -1.27036 0)
(0 -1.13222 0)
(0 -1.0148 0)
(0 -0.915823 0)
(0 -0.832296 0)
(0 -0.761478 0)
(0 -0.700883 0)
(0 -0.648218 0)
(-2.27263e-16 -0.601804 0)
(0 -0.560645 0)
(0 -0.524014 0)
(1.4095e-16 -0.49133 0)
(0 -0.462066 0)
(-1.60716e-16 -0.435759 0)
(0 -0.412039 0)
(1.82013e-16 -0.390574 0)
(0 -0.371073 0)
(0 -0.35328 0)
(0 -0.336771 0)
(1.15364e-16 -0.32114 0)
(0 -0.306176 0)
(0 -0.291531 0)
(0 -0.276701 0)
(0 -0.261299 0)
(0 -0.245218 0)
(-8.09044e-17 -0.228359 0)
(0 -0.210482 0)
(-4.47531e-17 -0.191785 0)
(0 -0.172762 0)
(-4.88702e-17 -0.153662 0)
(0 -0.134841 0)
(0 -0.116701 0)
(0 -0.0996729 0)
(0 -0.0839106 0)
(1.40788e-17 -0.069702 0)
(1.42807e-17 -0.0570066 0)
(0 -0.0461069 0)
(0 -0.0367983 0)
(0 -0.0286453 0)
(0 -0.0225516 0)
(0 -0.0177179 0)
(0 -0.0165824 0)
(0 -0.00887829 0)
(0 0 0)
(0 0 0)
(0 0 0)
(0 0 0)
(0 0 0)
(0 0 0)
(0 0 0)
(0 0 0)
(0 0 0)
(0 0 0)
(0 0 0)
(0 0 0)
(0 0 0)
(0 0 0)
(0 0 0)
(0 0 0)
(0 0 0)
(0 0 0)
(0 0 0)
(0 0 0)
(0 0 0)
(0 0 0)
(0 0 0)
(0 0 0)
(0 0 0)
(0 0 0)
(0 0 0)
(0 0 0)
(0 0 0)
(0 0 0)
(0 0 0)
(0 0 0)
(0 0 0)
(0 0 0)
(0 0 0)
(0 0 0)
(0 0 0)
(0 0 0)
(0 0 0)
(0 0 0)
(0 0 0)
(0 0 0)
(0 0 0)
(0 0 0)
(0 0 0)
(0 0 0)
(0 0 0)
(0 0 0)
(0 0 0)
(0 0 0)
(0 0 0)
(0 0 0)
(0 0 0)
(0 0 0)
(0 0 0)
(0 0 0)
(0 0 0)
(0 0 0)
(0 0 0)
(0 0 0)
(0 0 0)
(0 0 0)
(0 0 0)
(0 0 0)
(0 0 0)
(0 0 0)
(0 0 0)
(0 0 0)
(0 0 0)
(0 0 0)
(0 0 0)
(0 0 0)
(0 0 0)
(0 0 0)
(0 0 0)
(0 0 0)
(0 0 0)
(0 0 0)
(0 0 0)
(0 0 0)
(0 0 0)
(0 0 0)
(0 0 0)
(0 0 0)
(0 0 0)
(0 0 0)
(0 0 0)
(0 0 0)
(0 0 0)
(0 0 0)
(0 0 0)
(0 0 0)
(0 0 0)
(0 0 0)
(0 0 0)
(0 0 0)
(0 0 0)
(0 0 0)
(0 0 0)
(0 0 0)
(0 0 0)
(0 0 0)
(0 0 0)
(0 0 0)
(0 0 0)
(0 0 0)
(0 0 0)
(0 0 0)
(0 0 0)
(0 0 0)
(0 0 0)
(0 0 0)
(0 0 0)
(0 0 0)
(0 0 0)
(0 0 0)
(0 0 0)
(0 0 0)
(0 0 0)
(0 0 0)
(0 0 0)
(0 0 0)
(0 0 0)
)
;

boundaryField
{
    inandouthalf11
    {
        type            cyclic;
    }
    inandouthalf12
    {
        type            cyclic;
    }
    inandouthalf21
    {
        type            cyclic;
    }
    inandouthalf22
    {
        type            cyclic;
    }
    inandouthalf31
    {
        type            cyclic;
    }
    inandouthalf32
    {
        type            cyclic;
    }
    inandouthalf41
    {
        type            cyclic;
    }
    inandouthalf42
    {
        type            cyclic;
    }
    top
    {
        type            symmetryPlane;
    }
    walls
    {
        type            calculated;
        value           uniform (0 0 0);
    }
    frontAndBackPlanes
    {
        type            empty;
    }
}


// ************************************************************************* //
