/*--------------------------------*- C++ -*----------------------------------*\
| =========                 |                                                 |
| \\      /  F ield         | OpenFOAM: The Open Source CFD Toolbox           |
|  \\    /   O peration     | Version:  2.4.x                                 |
|   \\  /    A nd           | Web:      www.OpenFOAM.org                      |
|    \\/     M anipulation  |                                                 |
\*---------------------------------------------------------------------------*/
FoamFile
{
    version     2.0;
    format      ascii;
    class       volVectorField;
    location    "8.8";
    object      gradPf;
}
// * * * * * * * * * * * * * * * * * * * * * * * * * * * * * * * * * * * * * //

dimensions      [0 1 -2 0 0 0 0];

internalField   nonuniform List<vector> 
360
(
(0 70.3255 0)
(0 79.0939 0)
(0 0.473087 0)
(0 -12.4042 0)
(-3.3443e-14 -5.30592 0)
(-3.34438e-14 -2.87238 0)
(-3.34447e-14 -3.59526 0)
(0 -4.08322 0)
(-3.34472e-14 -4.14502 0)
(0 -4.16937 0)
(-3.34497e-14 -4.16386 0)
(0 -4.15463 0)
(-3.34523e-14 -4.16219 0)
(0 -4.16991 0)
(0 -4.18866 0)
(0 -4.20696 0)
(0 -4.21379 0)
(-3.34589e-14 -4.2155 0)
(0 -4.23388 0)
(0 -4.23574 0)
(0 -4.23815 0)
(-3.34645e-14 -4.25631 0)
(0 -4.25868 0)
(0 -4.2664 0)
(0 -4.27429 0)
(-3.34703e-14 -4.27263 0)
(0 -4.28379 0)
(0 -4.29599 0)
(0 -4.29252 0)
(0 -4.29439 0)
(0 -4.31246 0)
(0 -4.3017 0)
(0 -4.31363 0)
(0 -4.32618 0)
(0 -4.31726 0)
(3.34857e-14 -4.32299 0)
(0 -4.32547 0)
(0 -4.34967 0)
(0 -4.32717 0)
(0 -4.33636 0)
(0 -4.36445 0)
(0 -4.3336 0)
(1.67488e-14 -4.35283 0)
(0 -4.36614 0)
(0 -4.35656 0)
(0 -4.37867 0)
(0 -4.36006 0)
(0 -4.35663 0)
(0 -4.40035 0)
(0 -4.38393 0)
(3.35121e-14 -4.37569 0)
(0 -4.395 0)
(0 -4.40004 0)
(0 -4.39373 0)
(0 -4.40883 0)
(0 -4.41181 0)
(0 -4.41024 0)
(0 -4.42921 0)
(0 -4.4056 0)
(0 -4.43023 0)
(0 -4.43794 0)
(0 -4.43415 0)
(0 -4.4492 0)
(0 -4.44527 0)
(0 -4.44787 0)
(0 -4.45386 0)
(0 -4.46743 0)
(0 -4.46702 0)
(0 -4.4541 0)
(0 -4.46952 0)
(0 -4.49743 0)
(0 -4.47524 0)
(0 -4.47764 0)
(0 -4.49677 0)
(0 -4.50241 0)
(0 -4.50286 0)
(0 -4.49517 0)
(0 -4.50615 0)
(0 -4.51396 0)
(0 -4.51214 0)
(0 -4.51438 0)
(0 -4.52406 0)
(0 -4.52761 0)
(0 -4.53128 0)
(0 -4.53506 0)
(0 -4.53915 0)
(0 -4.54177 0)
(0 -4.54183 0)
(0 -4.54503 0)
(0 -4.54845 0)
(0 -4.5505 0)
(0 -4.55418 0)
(0 -4.55866 0)
(0 -4.56187 0)
(0 -4.56474 0)
(0 -4.56728 0)
(0 -4.56915 0)
(0 -4.57059 0)
(0 -4.57206 0)
(0 -4.57351 0)
(0 -4.57482 0)
(0 -4.57617 0)
(0 -4.57737 0)
(0 -4.57813 0)
(0 -4.57845 0)
(0 -4.5783 0)
(0 -4.57759 0)
(0 -4.57631 0)
(0 -4.57444 0)
(0 -4.57187 0)
(0 -4.56854 0)
(0 -4.56437 0)
(0 -4.55927 0)
(0 -4.55322 0)
(0 -4.54617 0)
(0 -4.53809 0)
(0 -4.52902 0)
(0 -4.51901 0)
(0 -4.50812 0)
(0 -4.49643 0)
(0 -4.48398 0)
(0 -4.47071 0)
(0 -4.4565 0)
(0 -4.44131 0)
(0 -4.42546 0)
(0 -4.40983 0)
(0 -4.39576 0)
(0 -4.3841 0)
(0 -4.37352 0)
(0 -4.35979 0)
(0 -4.33908 0)
(0 -4.31646 0)
(0 -4.30877 0)
(0 -4.32401 0)
(0 -4.3356 0)
(0 -4.31203 0)
(0 -4.28716 0)
(0 -4.3637 0)
(0 -4.58337 0)
(0 -4.7181 0)
(0 -4.44716 0)
(0 -4.50267 0)
(0 -23.5203 0)
(0 -22.4529 0)
(0 -1.25609 0)
(0 0 0)
(0 0 0)
(0 0 0)
(0 0 0)
(0 0 0)
(0 0 0)
(0 0 0)
(0 0 0)
(0 0 0)
(0 0 0)
(0 0 0)
(0 0 0)
(0 0 0)
(0 0 0)
(0 0 0)
(0 0 0)
(0 0 0)
(0 0 0)
(0 0 0)
(0 0 0)
(0 0 0)
(0 0 0)
(0 0 0)
(0 0 0)
(0 0 0)
(0 0 0)
(0 0 0)
(0 0 0)
(0 0 0)
(0 0 0)
(0 0 0)
(0 0 0)
(0 0 0)
(0 0 0)
(0 0 0)
(0 0 0)
(0 0 0)
(0 0 0)
(0 0 0)
(0 0 0)
(0 0 0)
(0 0 0)
(0 0 0)
(0 0 0)
(0 0 0)
(0 0 0)
(0 0 0)
(0 0 0)
(0 0 0)
(0 0 0)
(0 0 0)
(0 0 0)
(0 0 0)
(0 0 0)
(0 0 0)
(0 0 0)
(0 0 0)
(0 0 0)
(0 0 0)
(0 0 0)
(0 0 0)
(0 0 0)
(0 0 0)
(0 0 0)
(0 0 0)
(0 0 0)
(0 0 0)
(0 0 0)
(0 0 0)
(0 0 0)
(0 0 0)
(0 0 0)
(0 0 0)
(0 0 0)
(0 0 0)
(0 0 0)
(0 0 0)
(0 0 0)
(0 0 0)
(0 0 0)
(0 0 0)
(0 0 0)
(0 0 0)
(0 0 0)
(0 0 0)
(0 0 0)
(0 0 0)
(0 0 0)
(0 0 0)
(0 0 0)
(0 0 0)
(0 0 0)
(0 0 0)
(0 0 0)
(0 0 0)
(0 0 0)
(0 0 0)
(0 0 0)
(0 0 0)
(0 0 0)
(0 0 0)
(0 0 0)
(0 0 0)
(0 0 0)
(0 0 0)
(0 0 0)
(0 0 0)
(0 0 0)
(0 0 0)
(0 0 0)
(0 0 0)
(0 0 0)
(0 0 0)
(0 0 0)
(0 0 0)
(0 0 0)
(0 0 0)
(0 0 0)
(0 0 0)
(0 0 0)
(0 0 0)
(0 0 0)
(0 0 0)
(0 0 0)
(0 0 0)
(0 0 0)
(0 0 0)
(0 0 0)
(0 0 0)
(0 0 0)
(0 0 0)
(0 0 0)
(0 0 0)
(0 0 0)
(0 0 0)
(0 0 0)
(0 0 0)
(0 0 0)
(0 0 0)
(0 0 0)
(0 0 0)
(0 0 0)
(0 0 0)
(0 0 0)
(0 0 0)
(0 0 0)
(0 0 0)
(0 0 0)
(0 0 0)
(0 0 0)
(0 0 0)
(0 0 0)
(0 0 0)
(0 0 0)
(0 0 0)
(0 0 0)
(0 0 0)
(0 0 0)
(0 0 0)
(0 0 0)
(0 0 0)
(0 0 0)
(0 0 0)
(0 0 0)
(0 0 0)
(0 0 0)
(0 0 0)
(0 0 0)
(0 0 0)
(0 0 0)
(0 0 0)
(0 0 0)
(0 0 0)
(0 0 0)
(0 0 0)
(0 0 0)
(0 0 0)
(0 0 0)
(0 0 0)
(0 0 0)
(0 0 0)
(0 0 0)
(0 0 0)
(0 0 0)
(0 0 0)
(0 0 0)
(0 0 0)
(0 0 0)
(0 0 0)
(0 0 0)
(0 0 0)
(0 0 0)
(0 0 0)
(0 0 0)
(0 0 0)
(0 0 0)
(0 0 0)
(0 0 0)
(0 0 0)
(0 0 0)
(0 0 0)
(0 0 0)
(0 0 0)
(0 0 0)
(0 0 0)
(0 0 0)
(0 0 0)
(0 0 0)
(0 0 0)
(0 0 0)
(0 0 0)
(0 0 0)
(0 0 0)
(0 0 0)
(0 0 0)
)
;

boundaryField
{
    inandouthalf11
    {
        type            cyclic;
    }
    inandouthalf12
    {
        type            cyclic;
    }
    inandouthalf21
    {
        type            cyclic;
    }
    inandouthalf22
    {
        type            cyclic;
    }
    inandouthalf31
    {
        type            cyclic;
    }
    inandouthalf32
    {
        type            cyclic;
    }
    inandouthalf41
    {
        type            cyclic;
    }
    inandouthalf42
    {
        type            cyclic;
    }
    top
    {
        type            symmetryPlane;
    }
    walls
    {
        type            calculated;
        value           uniform (0 0 0);
    }
    frontAndBackPlanes
    {
        type            empty;
    }
}


// ************************************************************************* //
