/*--------------------------------*- C++ -*----------------------------------*\
| =========                 |                                                 |
| \\      /  F ield         | OpenFOAM: The Open Source CFD Toolbox           |
|  \\    /   O peration     | Version:  2.4.x                                 |
|   \\  /    A nd           | Web:      www.OpenFOAM.org                      |
|    \\/     M anipulation  |                                                 |
\*---------------------------------------------------------------------------*/
FoamFile
{
    version     2.0;
    format      ascii;
    class       volScalarField;
    location    "8.8";
    object      k;
}
// * * * * * * * * * * * * * * * * * * * * * * * * * * * * * * * * * * * * * //

dimensions      [0 2 -2 0 0 0 0];

internalField   nonuniform List<scalar> 
360
(
1e-20
1e-20
1e-20
1e-20
1e-20
1e-20
1e-20
1e-20
1e-20
1e-20
1e-20
1e-20
1e-20
1e-20
1e-20
1e-20
1e-20
1e-20
1e-20
1e-20
1e-20
1e-20
1e-20
1e-20
1e-20
1e-20
1e-20
1e-20
1e-20
1e-20
1e-20
1e-20
1e-20
1e-20
1e-20
1e-20
1e-20
1e-20
1e-20
1e-20
1e-20
1e-20
1e-20
1e-20
1e-20
1e-20
1e-20
1e-20
1e-20
1e-20
1e-20
1e-20
1e-20
1e-20
1e-20
1e-20
1e-20
1e-20
1e-20
1e-20
1e-20
1e-20
1e-20
1e-20
1e-20
1e-20
1e-20
1e-20
1e-20
1e-20
1e-20
1e-20
1e-20
1e-20
1e-20
1e-20
1e-20
1e-20
1e-20
1e-20
1e-20
1e-20
1e-20
1e-20
1e-20
1e-20
1e-20
1e-20
1e-20
1e-20
1e-20
1e-20
1e-20
1e-20
1e-20
1e-20
1e-20
1e-20
1e-20
1e-20
1e-20
1e-20
1e-20
1e-20
1e-20
1e-20
1e-20
1e-20
1e-20
1e-20
1e-20
1e-20
1e-20
1e-20
1e-20
1e-20
1e-20
1e-20
1e-20
1e-20
1e-20
1e-20
1e-20
1e-20
1e-20
1e-20
1e-20
1e-20
1e-20
1e-20
1.49548e-20
1.3451e-19
1.62837e-18
2.09865e-17
2.89014e-16
4.29662e-15
6.95936e-14
1.24e-12
2.46077e-11
5.53204e-10
1.43651e-08
4.37731e-07
1.53307e-05
0.000397817
0.00366662
0.00867821
0.0120661
0.0144293
0.0161316
0.0173688
0.0182576
0.018874
0.0192751
0.0195045
0.0195934
0.0195668
0.0194443
0.0192425
0.0189743
0.0186506
0.0182801
0.01787
0.017426
0.0169533
0.0164557
0.0159368
0.0153997
0.0148469
0.0142811
0.0137043
0.0131187
0.0125264
0.0119294
0.0113298
0.0107297
0.0101311
0.00953651
0.00894818
0.00836869
0.00780075
0.00724723
0.00671117
0.00619575
0.00570422
0.00523988
0.00480586
0.00440502
0.0040397
0.00371147
0.00342095
0.00316767
0.00295008
0.00276572
0.0026114
0.00248361
0.0023787
0.0022932
0.00222393
0.00216808
0.00212329
0.00208755
0.00205892
0.00203606
0.0020181
0.0020043
0.00199402
0.00198671
0.00198189
0.00197913
0.00197808
0.00197842
0.00197984
0.0019821
0.00198494
0.00198815
0.00199151
0.00199483
0.00199791
0.00200058
0.00200265
0.00200395
0.0020043
0.00200355
0.00200153
0.00199807
0.00199301
0.0019862
0.00197748
0.00196669
0.0019537
0.00193835
0.00192051
0.00190004
0.00187682
0.00185071
0.00182162
0.00178942
0.00175404
0.00171539
0.00167341
0.00162804
0.00157926
0.00152705
0.00147143
0.00141245
0.00135017
0.00128472
0.00121623
0.00114491
0.00107102
0.000994846
0.000916774
0.000837248
0.00075679
0.000676009
0.000595603
0.000516359
0.000439154
0.000364943
0.000294736
0.000229567
0.000170444
0.000118292
7.3914e-05
3.8061e-05
1.17373e-05
1.04499e-06
2.14918e-08
3.07031e-10
4.32885e-12
6.09781e-14
8.59313e-16
1.21013e-17
1.75224e-19
1.07769e-20
1e-20
1e-20
1e-20
1e-20
1e-20
1e-20
1e-20
1e-20
1e-20
1e-20
1e-20
1e-20
1e-20
1e-20
1e-20
1e-20
1e-20
1e-20
1e-20
1e-20
1e-20
1e-20
1e-20
1e-20
1e-20
1e-20
1e-20
1e-20
1e-20
1e-20
1e-20
1e-20
1e-20
1e-20
1e-20
1e-20
1e-20
1e-20
1e-20
1e-20
1e-20
1e-20
1e-20
1e-20
1e-20
1e-20
1e-20
1e-20
1e-20
1e-20
1e-20
1e-20
1e-20
1e-20
1e-20
1e-20
1e-20
1e-20
1e-20
1e-20
1e-20
1e-20
1e-20
1e-20
1e-20
1e-20
1e-20
1e-20
1e-20
1e-20
1e-20
1e-20
1e-20
1e-20
1e-20
1e-20
1e-20
1e-20
1e-20
1e-20
1e-20
1e-20
1e-20
1e-20
1e-20
)
;

boundaryField
{
    inandouthalf11
    {
        type            cyclic;
    }
    inandouthalf12
    {
        type            cyclic;
    }
    inandouthalf21
    {
        type            cyclic;
    }
    inandouthalf22
    {
        type            cyclic;
    }
    inandouthalf31
    {
        type            cyclic;
    }
    inandouthalf32
    {
        type            cyclic;
    }
    inandouthalf41
    {
        type            cyclic;
    }
    inandouthalf42
    {
        type            cyclic;
    }
    top
    {
        type            symmetryPlane;
    }
    walls
    {
        type            zeroGradient;
    }
    frontAndBackPlanes
    {
        type            empty;
    }
}


// ************************************************************************* //
