/*--------------------------------*- C++ -*----------------------------------*\
| =========                 |                                                 |
| \\      /  F ield         | OpenFOAM: The Open Source CFD Toolbox           |
|  \\    /   O peration     | Version:  2.4.x                                 |
|   \\  /    A nd           | Web:      www.OpenFOAM.org                      |
|    \\/     M anipulation  |                                                 |
\*---------------------------------------------------------------------------*/
FoamFile
{
    version     2.0;
    format      ascii;
    class       volScalarField;
    location    "8.8";
    object      mua;
}
// * * * * * * * * * * * * * * * * * * * * * * * * * * * * * * * * * * * * * //

dimensions      [1 -1 -1 0 0 0 0];

internalField   nonuniform List<scalar> 
360
(
3.83288e+06
2.68237e+06
3.2162e+06
3.20528e+06
2.97757e+06
2.85146e+06
2.78971e+06
2.7365e+06
2.68028e+06
2.62237e+06
2.56527e+06
2.51118e+06
2.46057e+06
2.41332e+06
2.36896e+06
2.32714e+06
2.28801e+06
2.25183e+06
2.21848e+06
2.18781e+06
2.16009e+06
2.13477e+06
2.11183e+06
2.09127e+06
2.07294e+06
2.05686e+06
2.04286e+06
2.03056e+06
2.02013e+06
2.01158e+06
2.00458e+06
1.999e+06
1.99505e+06
1.99196e+06
1.99031e+06
1.98977e+06
1.99024e+06
1.99119e+06
1.99283e+06
1.99554e+06
1.99813e+06
2.00131e+06
2.00508e+06
2.00841e+06
2.01188e+06
2.01523e+06
2.0186e+06
2.02235e+06
2.02511e+06
2.02699e+06
2.02914e+06
2.03064e+06
2.03152e+06
2.03183e+06
2.03173e+06
2.03066e+06
2.02942e+06
2.02741e+06
2.02524e+06
2.02272e+06
2.01884e+06
2.01454e+06
2.00936e+06
2.00386e+06
1.9981e+06
1.99209e+06
1.98554e+06
1.97877e+06
1.97224e+06
1.9656e+06
1.95777e+06
1.94958e+06
1.94183e+06
1.93335e+06
1.92443e+06
1.91536e+06
1.9069e+06
1.89873e+06
1.89051e+06
1.88238e+06
1.87442e+06
1.86621e+06
1.85765e+06
1.84887e+06
1.83992e+06
1.83097e+06
1.82216e+06
1.81374e+06
1.80571e+06
1.79797e+06
1.79044e+06
1.78297e+06
1.77538e+06
1.76762e+06
1.75971e+06
1.75171e+06
1.74372e+06
1.73582e+06
1.72804e+06
1.72034e+06
1.71264e+06
1.7048e+06
1.69664e+06
1.68798e+06
1.67859e+06
1.66826e+06
1.65672e+06
1.64372e+06
1.629e+06
1.61232e+06
1.59352e+06
1.57252e+06
1.54939e+06
1.52433e+06
1.49776e+06
1.47026e+06
1.4426e+06
1.41567e+06
1.39043e+06
1.36781e+06
1.34859e+06
1.33317e+06
1.32137e+06
1.31214e+06
1.3031e+06
1.29033e+06
1.26831e+06
1.23068e+06
1.17194e+06
1.0898e+06
987097
871734
754949
649429
568350
525180
536726
637587
931048
1.80184e+06
5.00353e+06
1.63622e+07
1.43082e+07
0.0624319
0.0270199
0.0202818
0.0176153
0.0159173
0.0146203
0.0135523
0.01264
0.0118448
0.0111686
0.0105921
0.0100989
0.00967673
0.00931531
0.00900563
0.00873962
0.00850991
0.00830986
0.00813355
0.00797571
0.00783168
0.00769762
0.00757022
0.00744678
0.00732509
0.00720347
0.0070806
0.0069556
0.00682785
0.00669707
0.00656326
0.00642663
0.00628762
0.00614688
0.00600527
0.0058638
0.00572362
0.00558598
0.00545217
0.00532345
0.00520099
0.00508575
0.0049784
0.00487927
0.00478835
0.00470522
0.00462923
0.00455958
0.00449544
0.00443603
0.00438067
0.00432878
0.00427988
0.00423356
0.00418946
0.0041473
0.00410681
0.00406777
0.0040296
0.00399179
0.00395422
0.00391676
0.0038793
0.00384172
0.00380389
0.0037657
0.00372701
0.00368769
0.00364761
0.00360663
0.00356458
0.0035213
0.00347663
0.00343037
0.00338232
0.00333225
0.00327991
0.00322503
0.00316728
0.00310631
0.0030417
0.00297294
0.00289945
0.00282048
0.00273512
0.00264218
0.00254011
0.00242672
0.00229892
0.00215189
0.00197761
0.00176057
0.00146275
0
0
0
0
0
0
0
0
0
0
0
0
0
0
0
0
0
0
0
0
0
0
0
0
0
0
0
0
0
0
0
0
0
0
0
0
0
0
0
0
0
0
0
0
0
0
0
0
0
0
0
0
0
0
0
0
0
0
0
0
0
0
0
0
0
0
0
0
0
0
0
0
0
0
0
0
0
0
0
0
0
0
0
0
0
0
0
0
0
0
0
0
0
0
0
0
0
0
0
0
0
0
0
0
0
0
0
0
0
0
0
0
0
0
0
0
0
0
0
0
0
0
0
0
)
;

boundaryField
{
    inandouthalf11
    {
        type            cyclic;
    }
    inandouthalf12
    {
        type            cyclic;
    }
    inandouthalf21
    {
        type            cyclic;
    }
    inandouthalf22
    {
        type            cyclic;
    }
    inandouthalf31
    {
        type            cyclic;
    }
    inandouthalf32
    {
        type            cyclic;
    }
    inandouthalf41
    {
        type            cyclic;
    }
    inandouthalf42
    {
        type            cyclic;
    }
    top
    {
        type            symmetryPlane;
    }
    walls
    {
        type            calculated;
        value           uniform 1e+30;
    }
    frontAndBackPlanes
    {
        type            empty;
    }
}


// ************************************************************************* //
