/*--------------------------------*- C++ -*----------------------------------*\
| =========                 |                                                 |
| \\      /  F ield         | OpenFOAM: The Open Source CFD Toolbox           |
|  \\    /   O peration     | Version:  2.4.x                                 |
|   \\  /    A nd           | Web:      www.OpenFOAM.org                      |
|    \\/     M anipulation  |                                                 |
\*---------------------------------------------------------------------------*/
FoamFile
{
    version     2.0;
    format      ascii;
    class       volScalarField;
    location    "8.8";
    object      pa;
}
// * * * * * * * * * * * * * * * * * * * * * * * * * * * * * * * * * * * * * //

dimensions      [1 -1 -2 0 0 0 0];

internalField   nonuniform List<scalar> 
360
(
2.90309e-16
2.92809e-16
2.9307e-16
2.92812e-16
2.9269e-16
2.92652e-16
2.92603e-16
2.92539e-16
2.92474e-16
2.92408e-16
2.92341e-16
2.92274e-16
2.92207e-16
2.92138e-16
2.92069e-16
2.92e-16
2.91929e-16
2.91858e-16
2.91786e-16
2.91712e-16
2.91639e-16
2.91565e-16
2.91489e-16
2.91413e-16
2.91336e-16
2.91259e-16
2.91181e-16
2.91101e-16
2.91021e-16
2.9094e-16
2.90858e-16
2.90775e-16
2.90693e-16
2.90608e-16
2.90523e-16
2.90437e-16
2.9035e-16
2.90262e-16
2.90173e-16
2.90085e-16
2.89994e-16
2.89902e-16
2.89811e-16
2.89717e-16
2.89624e-16
2.89529e-16
2.89432e-16
2.89336e-16
2.89238e-16
2.89138e-16
2.89039e-16
2.88938e-16
2.88835e-16
2.88732e-16
2.88628e-16
2.88521e-16
2.88415e-16
2.88307e-16
2.88197e-16
2.88087e-16
2.87975e-16
2.87862e-16
2.87747e-16
2.87631e-16
2.87513e-16
2.87394e-16
2.87273e-16
2.87151e-16
2.87027e-16
2.86903e-16
2.86775e-16
2.86646e-16
2.86516e-16
2.86383e-16
2.86249e-16
2.86112e-16
2.85974e-16
2.85834e-16
2.85692e-16
2.85547e-16
2.85401e-16
2.85252e-16
2.85101e-16
2.84947e-16
2.84791e-16
2.84633e-16
2.84472e-16
2.84308e-16
2.84141e-16
2.83972e-16
2.838e-16
2.83624e-16
2.83446e-16
2.83264e-16
2.83079e-16
2.8289e-16
2.82698e-16
2.82502e-16
2.82302e-16
2.82099e-16
2.81891e-16
2.81679e-16
2.81462e-16
2.81241e-16
2.81015e-16
2.80784e-16
2.80548e-16
2.80307e-16
2.80059e-16
2.79807e-16
2.79548e-16
2.79282e-16
2.79011e-16
2.78732e-16
2.78446e-16
2.78153e-16
2.77852e-16
2.77543e-16
2.77225e-16
2.76899e-16
2.76563e-16
2.76216e-16
2.7586e-16
2.75492e-16
2.75113e-16
2.74721e-16
2.74315e-16
2.73895e-16
2.7346e-16
2.73007e-16
4.05977e-16
3.638e-15
4.39451e-14
5.65051e-13
7.76184e-12
1.15077e-10
1.85857e-09
3.30193e-08
6.54057e-07
1.51405e-05
0.000762348
0.0615204
1.55404
12.7322
14.384
14.6454
13.9277
12.9102
11.8148
10.7202
9.66004
8.65
7.73085
6.88927
6.11963
5.41869
4.7831
4.2091
3.69267
3.22961
2.81574
2.44697
2.11933
1.82907
1.57271
1.34697
1.14886
0.975577
0.824582
0.693529
0.580279
0.482872
0.399515
0.328575
0.268557
0.2181
0.175967
0.141037
0.112294
0.0888264
0.0698194
0.0545489
0.0423778
0.0327493
0.0251797
0.0192565
0.0146403
0.0110656
0.00832977
0.00627147
0.00475151
0.00364504
0.0028439
0.00226103
0.0018313
0.00150864
0.00126142
0.00106821
0.000914402
0.000789935
0.000687693
0.00060181
0.000528334
0.000465011
0.000410073
0.000362119
0.000320025
0.000282889
0.00024998
0.000220695
0.000194543
0.000171111
0.000150063
0.000131135
0.000114104
9.87809e-05
8.50212e-05
7.27111e-05
6.17539e-05
5.2052e-05
4.35252e-05
3.61005e-05
2.96885e-05
2.41957e-05
1.95372e-05
1.56189e-05
1.23574e-05
9.65862e-06
7.45727e-06
5.66346e-06
4.23635e-06
3.08251e-06
2.18914e-06
1.49129e-06
9.34017e-07
5.01551e-07
0
0
0
0
0
0
0
0
0
0
0
0
0
0
0
0
0
0
0
0
0
0
0
0
0
0
0
0
0
0
0
0
0
0
0
0
0
0
0
0
0
0
0
0
0
0
0
0
0
0
0
0
0
0
0
0
0
0
0
0
0
0
0
0
0
0
0
0
0
0
0
0
0
0
0
0
0
0
0
0
0
0
0
0
0
0
0
0
0
0
0
0
0
0
0
0
0
0
0
0
0
0
0
0
0
0
0
0
0
0
0
0
0
0
0
0
0
0
0
0
0
0
0
0
)
;

boundaryField
{
    inandouthalf11
    {
        type            cyclic;
    }
    inandouthalf12
    {
        type            cyclic;
    }
    inandouthalf21
    {
        type            cyclic;
    }
    inandouthalf22
    {
        type            cyclic;
    }
    inandouthalf31
    {
        type            cyclic;
    }
    inandouthalf32
    {
        type            cyclic;
    }
    inandouthalf41
    {
        type            cyclic;
    }
    inandouthalf42
    {
        type            cyclic;
    }
    top
    {
        type            symmetryPlane;
    }
    walls
    {
        type            calculated;
        value           uniform 2.90309e-16;
    }
    frontAndBackPlanes
    {
        type            empty;
    }
}


// ************************************************************************* //
