/*--------------------------------*- C++ -*----------------------------------*\
| =========                 |                                                 |
| \\      /  F ield         | OpenFOAM: The Open Source CFD Toolbox           |
|  \\    /   O peration     | Version:  2.4.x                                 |
|   \\  /    A nd           | Web:      www.OpenFOAM.org                      |
|    \\/     M anipulation  |                                                 |
\*---------------------------------------------------------------------------*/
FoamFile
{
    version     2.0;
    format      ascii;
    class       surfaceScalarField;
    location    "8.8";
    object      phia;
}
// * * * * * * * * * * * * * * * * * * * * * * * * * * * * * * * * * * * * * //

dimensions      [0 3 -1 0 0 0 0];

internalField   nonuniform List<scalar> 
359
(
-9.3442e-14
-2.35008e-13
-3.68313e-13
-4.98909e-13
-6.35185e-13
-7.76313e-13
-9.2006e-13
-1.06575e-12
-1.21345e-12
-1.36338e-12
-1.51561e-12
-1.67003e-12
-1.82655e-12
-1.98501e-12
-2.1453e-12
-2.30731e-12
-2.4709e-12
-2.63593e-12
-2.8022e-12
-2.96957e-12
-3.13782e-12
-3.3068e-12
-3.47631e-12
-3.64619e-12
-3.81625e-12
-3.98632e-12
-4.1562e-12
-4.32577e-12
-4.49485e-12
-4.66329e-12
-4.83094e-12
-4.9977e-12
-5.16339e-12
-5.32798e-12
-5.49129e-12
-5.65329e-12
-5.81385e-12
-5.97294e-12
-6.13054e-12
-6.2865e-12
-6.4409e-12
-6.59368e-12
-6.74476e-12
-6.89424e-12
-7.04207e-12
-7.18827e-12
-7.33287e-12
-7.47581e-12
-7.61718e-12
-7.75706e-12
-7.8954e-12
-8.03228e-12
-8.16771e-12
-8.30177e-12
-8.43443e-12
-8.56582e-12
-8.69587e-12
-8.82469e-12
-8.95227e-12
-9.07859e-12
-9.20381e-12
-9.32786e-12
-9.45085e-12
-9.57276e-12
-9.69362e-12
-9.81343e-12
-9.93221e-12
-1.005e-11
-1.01667e-11
-1.02824e-11
-1.0397e-11
-1.05108e-11
-1.06235e-11
-1.07352e-11
-1.0846e-11
-1.09558e-11
-1.10646e-11
-1.11724e-11
-1.12792e-11
-1.13849e-11
-1.14895e-11
-1.15931e-11
-1.16956e-11
-1.1797e-11
-1.18974e-11
-1.19967e-11
-1.20949e-11
-1.2192e-11
-1.22879e-11
-1.23827e-11
-1.24762e-11
-1.25685e-11
-1.26596e-11
-1.27495e-11
-1.28382e-11
-1.29256e-11
-1.30117e-11
-1.30966e-11
-1.31802e-11
-1.32625e-11
-1.33435e-11
-1.34231e-11
-1.35015e-11
-1.35785e-11
-1.36542e-11
-1.37287e-11
-1.38019e-11
-1.38739e-11
-1.39448e-11
-1.40146e-11
-1.40835e-11
-1.41514e-11
-1.42184e-11
-1.42846e-11
-1.43501e-11
-1.44148e-11
-1.44787e-11
-1.45418e-11
-1.46039e-11
-1.46649e-11
-1.47247e-11
-1.47829e-11
-1.48394e-11
-1.48941e-11
-1.49469e-11
-1.49979e-11
-1.50475e-11
-1.50962e-11
-1.51447e-11
-1.51942e-11
-1.52458e-11
-1.53008e-11
-1.53604e-11
-1.54251e-11
-1.54938e-11
-1.55627e-11
-1.56246e-11
-1.56721e-11
-1.57014e-11
-1.57147e-11
-1.57186e-11
-1.57193e-11
-1.57162e-11
8.46516e-10
4.44743e-09
6.763e-09
8.17061e-09
9.15458e-09
9.94477e-09
1.06625e-08
1.138e-08
1.21544e-08
1.30224e-08
1.39781e-08
1.50213e-08
1.615e-08
1.73611e-08
1.86509e-08
2.00151e-08
2.1449e-08
2.29475e-08
2.45045e-08
2.61143e-08
2.77695e-08
2.94624e-08
3.11849e-08
3.29283e-08
3.46837e-08
3.6443e-08
3.81983e-08
3.99432e-08
4.16723e-08
4.33815e-08
4.50672e-08
4.67261e-08
4.83546e-08
4.99479e-08
5.15001e-08
5.30032e-08
5.44469e-08
5.58183e-08
5.71012e-08
5.82763e-08
5.93183e-08
6.01895e-08
6.08348e-08
6.11866e-08
6.11872e-08
6.08159e-08
6.01042e-08
5.91249e-08
5.79687e-08
5.67207e-08
5.54481e-08
5.41977e-08
5.2999e-08
5.18687e-08
5.08147e-08
4.98394e-08
4.89425e-08
4.81212e-08
4.73576e-08
4.66516e-08
4.60026e-08
4.54097e-08
4.48717e-08
4.43872e-08
4.39546e-08
4.35722e-08
4.32379e-08
4.29493e-08
4.27037e-08
4.24981e-08
4.23289e-08
4.21927e-08
4.20852e-08
4.20021e-08
4.19393e-08
4.18927e-08
4.18581e-08
4.18317e-08
4.18104e-08
4.17916e-08
4.17726e-08
4.17514e-08
4.17261e-08
4.16957e-08
4.16575e-08
4.16127e-08
4.15558e-08
4.14936e-08
4.14138e-08
4.13244e-08
4.12284e-08
4.11248e-08
4.07892e-08
3.71176e-08
3.61148e-08
3.5645e-08
3.51652e-08
3.48331e-08
3.49077e-08
3.47559e-08
3.70883e-08
3.39018e-08
4.74504e-08
-1.41916e-08
-1.33367e-07
-1.58461e-07
-1.584e-07
-1.58408e-07
-1.58408e-07
-1.58407e-07
-1.58403e-07
-1.58398e-07
-1.5839e-07
-1.5838e-07
-1.58368e-07
-1.58353e-07
-1.58336e-07
-1.58316e-07
-1.58295e-07
-1.58273e-07
-1.58249e-07
-1.58221e-07
-1.58176e-07
-1.58152e-07
-1.58151e-07
-1.58151e-07
-1.58151e-07
-1.58151e-07
-1.58151e-07
-1.58151e-07
-1.58151e-07
-1.58151e-07
-1.58151e-07
-1.58151e-07
-1.58151e-07
-1.58151e-07
-1.58151e-07
-1.58151e-07
-1.58151e-07
-1.58151e-07
-1.58151e-07
-1.58151e-07
-1.58151e-07
-1.58151e-07
-1.58151e-07
-1.58151e-07
-1.58151e-07
-1.58151e-07
-1.58151e-07
-1.58151e-07
-1.58151e-07
-1.58151e-07
-1.58151e-07
-1.58151e-07
-1.58151e-07
-1.58151e-07
-1.58151e-07
-1.58151e-07
-1.58151e-07
-1.58151e-07
-1.58151e-07
-1.58151e-07
-1.58151e-07
-1.58151e-07
-1.58151e-07
-1.58151e-07
-1.58151e-07
-1.58151e-07
-1.58151e-07
-1.58151e-07
-1.58151e-07
-1.58151e-07
-1.58151e-07
-1.58151e-07
-1.58151e-07
-1.58151e-07
-1.58151e-07
-1.58151e-07
-1.58151e-07
-1.58151e-07
-1.58151e-07
-1.58151e-07
-1.58151e-07
-1.58151e-07
-1.58151e-07
-1.58151e-07
-1.58151e-07
-1.58151e-07
-1.58151e-07
-1.58151e-07
-1.58151e-07
-1.58151e-07
-1.58151e-07
-1.58151e-07
-1.58151e-07
-1.58151e-07
-1.58151e-07
-1.58151e-07
-1.58151e-07
-1.58151e-07
-1.58151e-07
-1.58151e-07
-1.58151e-07
-1.58151e-07
-1.58151e-07
-1.58151e-07
-1.58151e-07
-1.58151e-07
-1.58151e-07
-1.58151e-07
-1.58151e-07
-1.58151e-07
-1.58151e-07
-1.58133e-07
-1.57427e-07
-1.3253e-07
)
;

boundaryField
{
    inandouthalf11
    {
        type            cyclic;
        value           nonuniform List<scalar> 
100
(
-1.96111e-38
-1.20003e-14
-2.52137e-14
-3.73097e-14
-4.9828e-14
-6.30573e-14
-7.66754e-14
-9.05223e-14
-1.04592e-13
-1.18904e-13
-1.33471e-13
-1.48291e-13
-1.63355e-13
-1.78651e-13
-1.94166e-13
-2.09889e-13
-2.25809e-13
-2.41913e-13
-2.58183e-13
-2.74603e-13
-2.91157e-13
-3.07824e-13
-3.2459e-13
-3.41435e-13
-3.58341e-13
-3.75292e-13
-3.92268e-13
-4.09255e-13
-4.26235e-13
-4.43193e-13
-4.60114e-13
-4.76983e-13
-4.93788e-13
-5.10517e-13
-5.2716e-13
-5.43705e-13
-5.60142e-13
-5.76467e-13
-5.92672e-13
-6.08752e-13
-6.24701e-13
-6.40519e-13
-6.562e-13
-6.71744e-13
-6.87153e-13
-7.02425e-13
-7.17563e-13
-7.32564e-13
-7.4743e-13
-7.62169e-13
-7.76783e-13
-7.91273e-13
-8.05643e-13
-8.19898e-13
-8.3404e-13
-8.48073e-13
-8.62002e-13
-8.75829e-13
-8.89557e-13
-9.03186e-13
-9.16723e-13
-9.30172e-13
-9.43536e-13
-9.56819e-13
-9.70023e-13
-9.83147e-13
-9.96194e-13
-1.00917e-12
-1.02206e-12
-1.03488e-12
-1.04762e-12
-1.06029e-12
-1.07289e-12
-1.08542e-12
-1.09788e-12
-1.11027e-12
-1.12259e-12
-1.13484e-12
-1.14701e-12
-1.15911e-12
-1.17112e-12
-1.18306e-12
-1.19492e-12
-1.2067e-12
-1.2184e-12
-1.23002e-12
-1.24157e-12
-1.25303e-12
-1.26441e-12
-1.2757e-12
-1.28689e-12
-1.298e-12
-1.30901e-12
-1.31992e-12
-1.33074e-12
-1.34147e-12
-1.35211e-12
-1.36264e-12
-1.37309e-12
-1.38343e-12
)
;
    }
    inandouthalf12
    {
        type            cyclic;
        value           nonuniform List<scalar> 
100
(
1.96111e-38
1.20003e-14
2.52137e-14
3.73097e-14
4.9828e-14
6.30573e-14
7.66754e-14
9.05223e-14
1.04592e-13
1.18904e-13
1.33471e-13
1.48291e-13
1.63355e-13
1.78651e-13
1.94166e-13
2.09889e-13
2.25809e-13
2.41913e-13
2.58183e-13
2.74603e-13
2.91157e-13
3.07824e-13
3.2459e-13
3.41435e-13
3.58341e-13
3.75292e-13
3.92268e-13
4.09255e-13
4.26235e-13
4.43193e-13
4.60114e-13
4.76983e-13
4.93788e-13
5.10517e-13
5.2716e-13
5.43705e-13
5.60142e-13
5.76467e-13
5.92672e-13
6.08752e-13
6.24701e-13
6.40519e-13
6.562e-13
6.71744e-13
6.87153e-13
7.02425e-13
7.17563e-13
7.32564e-13
7.4743e-13
7.62169e-13
7.76783e-13
7.91273e-13
8.05643e-13
8.19898e-13
8.3404e-13
8.48073e-13
8.62002e-13
8.75829e-13
8.89557e-13
9.03186e-13
9.16723e-13
9.30172e-13
9.43536e-13
9.56819e-13
9.70023e-13
9.83147e-13
9.96194e-13
1.00917e-12
1.02206e-12
1.03488e-12
1.04762e-12
1.06029e-12
1.07289e-12
1.08542e-12
1.09788e-12
1.11027e-12
1.12259e-12
1.13484e-12
1.14701e-12
1.15911e-12
1.17112e-12
1.18306e-12
1.19492e-12
1.2067e-12
1.2184e-12
1.23002e-12
1.24157e-12
1.25303e-12
1.26441e-12
1.2757e-12
1.28689e-12
1.298e-12
1.30901e-12
1.31992e-12
1.33074e-12
1.34147e-12
1.35211e-12
1.36264e-12
1.37309e-12
1.38343e-12
)
;
    }
    inandouthalf21
    {
        type            cyclic;
        value           nonuniform List<scalar> 
100
(
-1.39367e-12
-1.40381e-12
-1.41385e-12
-1.4238e-12
-1.43365e-12
-1.44341e-12
-1.45308e-12
-1.46268e-12
-1.4722e-12
-1.48167e-12
-1.49109e-12
-1.50047e-12
-1.50984e-12
-1.51919e-12
-1.52855e-12
-1.53792e-12
-1.54731e-12
-1.55672e-12
-1.56615e-12
-1.57557e-12
-1.58498e-12
-1.59435e-12
-1.60366e-12
-1.61287e-12
-1.62199e-12
-1.63102e-12
-1.64001e-12
-1.64905e-12
-1.65828e-12
-1.66791e-12
-1.67821e-12
-1.68951e-12
-1.70219e-12
-1.71664e-12
-1.73301e-12
-1.75094e-12
-1.76908e-12
-1.78519e-12
-1.797e-12
-1.8036e-12
-1.80613e-12
-1.80684e-12
-1.80723e-12
-1.80785e-12
-7.14894e-08
-1.82065e-07
-2.83503e-07
-3.73149e-07
-4.53086e-07
-5.25169e-07
-5.90753e-07
-6.50836e-07
-7.06281e-07
-7.57532e-07
-8.05037e-07
-8.49192e-07
-8.90342e-07
-9.28787e-07
-9.64788e-07
-9.98574e-07
-1.03035e-06
-1.06028e-06
-1.08853e-06
-1.11524e-06
-1.14052e-06
-1.16449e-06
-1.18722e-06
-1.20881e-06
-1.22931e-06
-1.2488e-06
-1.2673e-06
-1.28487e-06
-1.30154e-06
-1.31732e-06
-1.33223e-06
-1.34627e-06
-1.35945e-06
-1.37177e-06
-1.38322e-06
-1.3938e-06
-1.4035e-06
-1.41232e-06
-1.42027e-06
-1.42736e-06
-1.43362e-06
-1.43908e-06
-1.44381e-06
-1.44785e-06
-1.45129e-06
-1.4542e-06
-1.45666e-06
-1.45874e-06
-1.46051e-06
-1.46201e-06
-1.46329e-06
-1.46439e-06
-1.46532e-06
-1.46612e-06
-1.46681e-06
-1.46739e-06
)
;
    }
    inandouthalf22
    {
        type            cyclic;
        value           nonuniform List<scalar> 
100
(
1.39367e-12
1.40381e-12
1.41385e-12
1.4238e-12
1.43365e-12
1.44341e-12
1.45308e-12
1.46268e-12
1.4722e-12
1.48167e-12
1.49109e-12
1.50047e-12
1.50984e-12
1.51919e-12
1.52855e-12
1.53792e-12
1.54731e-12
1.55672e-12
1.56615e-12
1.57557e-12
1.58498e-12
1.59435e-12
1.60366e-12
1.61287e-12
1.62199e-12
1.63102e-12
1.64001e-12
1.64905e-12
1.65828e-12
1.66791e-12
1.67821e-12
1.68951e-12
1.70219e-12
1.71664e-12
1.73301e-12
1.75094e-12
1.76908e-12
1.78519e-12
1.797e-12
1.8036e-12
1.80613e-12
1.80684e-12
1.80723e-12
1.80785e-12
7.14894e-08
1.82065e-07
2.83503e-07
3.73149e-07
4.53086e-07
5.25169e-07
5.90753e-07
6.50836e-07
7.06281e-07
7.57532e-07
8.05037e-07
8.49192e-07
8.90342e-07
9.28787e-07
9.64788e-07
9.98574e-07
1.03035e-06
1.06028e-06
1.08853e-06
1.11524e-06
1.14052e-06
1.16449e-06
1.18722e-06
1.20881e-06
1.22931e-06
1.2488e-06
1.2673e-06
1.28487e-06
1.30154e-06
1.31732e-06
1.33223e-06
1.34627e-06
1.35945e-06
1.37177e-06
1.38322e-06
1.3938e-06
1.4035e-06
1.41232e-06
1.42027e-06
1.42736e-06
1.43362e-06
1.43908e-06
1.44381e-06
1.44785e-06
1.45129e-06
1.4542e-06
1.45666e-06
1.45874e-06
1.46051e-06
1.46201e-06
1.46329e-06
1.46439e-06
1.46532e-06
1.46612e-06
1.46681e-06
1.46739e-06
)
;
    }
    inandouthalf31
    {
        type            cyclic;
        value           nonuniform List<scalar> 
110
(
-1.4679e-06
-1.49813e-06
-1.52892e-06
-1.56029e-06
-1.59226e-06
-1.62482e-06
-1.658e-06
-1.69182e-06
-1.72629e-06
-1.76142e-06
-1.79723e-06
-1.83374e-06
-1.87096e-06
-1.90891e-06
-1.9476e-06
-1.98706e-06
-2.0273e-06
-2.06833e-06
-2.11019e-06
-2.15288e-06
-2.19642e-06
-2.24084e-06
-2.28616e-06
-2.33238e-06
-2.37954e-06
-2.42765e-06
-2.47674e-06
-2.52683e-06
-2.57793e-06
-2.63008e-06
-2.68329e-06
-2.73759e-06
-2.79302e-06
-2.84959e-06
-2.90734e-06
-2.9663e-06
-3.02652e-06
-3.09331e-06
-3.1523e-06
-3.21125e-06
-3.27135e-06
-3.33254e-06
-3.39471e-06
-3.45816e-06
-3.52247e-06
-3.58875e-06
-3.65535e-06
-3.72346e-06
-3.79418e-06
-3.86451e-06
-3.9369e-06
-4.01071e-06
-4.08609e-06
-4.16311e-06
-4.24186e-06
-4.32244e-06
-4.40497e-06
-4.48957e-06
-4.57637e-06
-4.66553e-06
-4.7572e-06
-4.8515e-06
-4.94867e-06
-5.04869e-06
-5.15155e-06
-5.25712e-06
-5.36436e-06
-5.4733e-06
-5.5844e-06
-5.69774e-06
-5.81339e-06
-5.93139e-06
-6.05178e-06
-6.17462e-06
-6.29994e-06
-6.42782e-06
-6.55828e-06
-6.6914e-06
-6.82722e-06
-6.96579e-06
-7.10718e-06
-7.25144e-06
-7.39862e-06
-7.54879e-06
-7.70201e-06
-7.85834e-06
-8.01785e-06
-8.18059e-06
-8.34663e-06
-8.51605e-06
-8.6889e-06
-8.86526e-06
-9.0452e-06
-9.2288e-06
-9.41611e-06
-9.60724e-06
-9.80224e-06
-1.00012e-05
-1.02042e-05
-1.04113e-05
-1.06226e-05
-1.08382e-05
-1.10582e-05
-1.12827e-05
-1.15117e-05
-1.17454e-05
-1.19838e-05
-1.2227e-05
-1.24752e-05
-1.27284e-05
)
;
    }
    inandouthalf32
    {
        type            cyclic;
        value           nonuniform List<scalar> 
110
(
1.4679e-06
1.49813e-06
1.52892e-06
1.56029e-06
1.59226e-06
1.62482e-06
1.658e-06
1.69182e-06
1.72629e-06
1.76142e-06
1.79723e-06
1.83374e-06
1.87096e-06
1.90891e-06
1.9476e-06
1.98706e-06
2.0273e-06
2.06833e-06
2.11019e-06
2.15288e-06
2.19642e-06
2.24084e-06
2.28616e-06
2.33238e-06
2.37954e-06
2.42765e-06
2.47674e-06
2.52683e-06
2.57793e-06
2.63008e-06
2.68329e-06
2.73759e-06
2.79302e-06
2.84959e-06
2.90734e-06
2.9663e-06
3.02652e-06
3.09331e-06
3.1523e-06
3.21125e-06
3.27135e-06
3.33254e-06
3.39471e-06
3.45816e-06
3.52247e-06
3.58875e-06
3.65535e-06
3.72346e-06
3.79418e-06
3.86451e-06
3.9369e-06
4.01071e-06
4.08609e-06
4.16311e-06
4.24186e-06
4.32244e-06
4.40497e-06
4.48957e-06
4.57637e-06
4.66553e-06
4.7572e-06
4.8515e-06
4.94867e-06
5.04869e-06
5.15155e-06
5.25712e-06
5.36436e-06
5.4733e-06
5.5844e-06
5.69774e-06
5.81339e-06
5.93139e-06
6.05178e-06
6.17462e-06
6.29994e-06
6.42782e-06
6.55828e-06
6.6914e-06
6.82722e-06
6.96579e-06
7.10718e-06
7.25144e-06
7.39862e-06
7.54879e-06
7.70201e-06
7.85834e-06
8.01785e-06
8.18059e-06
8.34663e-06
8.51605e-06
8.6889e-06
8.86526e-06
9.0452e-06
9.2288e-06
9.41611e-06
9.60724e-06
9.80224e-06
1.00012e-05
1.02042e-05
1.04113e-05
1.06226e-05
1.08382e-05
1.10582e-05
1.12827e-05
1.15117e-05
1.17454e-05
1.19838e-05
1.2227e-05
1.24752e-05
1.27284e-05
)
;
    }
    inandouthalf41
    {
        type            cyclic;
        value           nonuniform List<scalar> 
50
(
-1.13932e-05
-1.13932e-05
-1.13932e-05
-1.13932e-05
-1.13932e-05
-1.13932e-05
-1.13932e-05
-1.13932e-05
-1.13932e-05
-1.13932e-05
-1.13932e-05
-1.13932e-05
-1.13932e-05
-1.13932e-05
-1.13932e-05
-1.13932e-05
-1.13932e-05
-1.13932e-05
-1.13932e-05
-1.13932e-05
-1.13932e-05
-1.13932e-05
-1.13932e-05
-1.13932e-05
-1.13932e-05
-1.13932e-05
-1.13932e-05
-1.13932e-05
-1.13932e-05
-1.13932e-05
-1.13932e-05
-1.13932e-05
-1.13932e-05
-1.13932e-05
-1.13932e-05
-1.13932e-05
-1.13932e-05
-1.13932e-05
-1.13932e-05
-1.13932e-05
-1.13932e-05
-1.13932e-05
-1.13932e-05
-1.13932e-05
-1.13932e-05
-1.13932e-05
-1.13932e-05
-1.13932e-05
-1.13931e-05
-1.13904e-05
)
;
    }
    inandouthalf42
    {
        type            cyclic;
        value           nonuniform List<scalar> 
50
(
1.13932e-05
1.13932e-05
1.13932e-05
1.13932e-05
1.13932e-05
1.13932e-05
1.13932e-05
1.13932e-05
1.13932e-05
1.13932e-05
1.13932e-05
1.13932e-05
1.13932e-05
1.13932e-05
1.13932e-05
1.13932e-05
1.13932e-05
1.13932e-05
1.13932e-05
1.13932e-05
1.13932e-05
1.13932e-05
1.13932e-05
1.13932e-05
1.13932e-05
1.13932e-05
1.13932e-05
1.13932e-05
1.13932e-05
1.13932e-05
1.13932e-05
1.13932e-05
1.13932e-05
1.13932e-05
1.13932e-05
1.13932e-05
1.13932e-05
1.13932e-05
1.13932e-05
1.13932e-05
1.13932e-05
1.13932e-05
1.13932e-05
1.13932e-05
1.13932e-05
1.13932e-05
1.13932e-05
1.13932e-05
1.13931e-05
1.13904e-05
)
;
    }
    top
    {
        type            symmetryPlane;
        value           uniform 0;
    }
    walls
    {
        type            fixedValue;
        value           uniform 0;
    }
    frontAndBackPlanes
    {
        type            empty;
        value           nonuniform 0();
    }
}


// ************************************************************************* //
