/*--------------------------------*- C++ -*----------------------------------*\
| =========                 |                                                 |
| \\      /  F ield         | OpenFOAM: The Open Source CFD Toolbox           |
|  \\    /   O peration     | Version:  2.4.x                                 |
|   \\  /    A nd           | Web:      www.OpenFOAM.org                      |
|    \\/     M anipulation  |                                                 |
\*---------------------------------------------------------------------------*/
FoamFile
{
    version     2.0;
    format      ascii;
    class       volScalarField;
    location    "8.8";
    object      Theta;
}
// * * * * * * * * * * * * * * * * * * * * * * * * * * * * * * * * * * * * * //

dimensions      [0 2 -2 0 0 0 0];

internalField   nonuniform List<scalar> 
360
(
6.66163e-21
6.66224e-21
6.66201e-21
6.66198e-21
6.66206e-21
6.66211e-21
6.66213e-21
6.66215e-21
6.66217e-21
6.6622e-21
6.66222e-21
6.66224e-21
6.66227e-21
6.66229e-21
6.66231e-21
6.66233e-21
6.66235e-21
6.66236e-21
6.66238e-21
6.66239e-21
6.6624e-21
6.66241e-21
6.66241e-21
6.66242e-21
6.66242e-21
6.66242e-21
6.66242e-21
6.66241e-21
6.66241e-21
6.6624e-21
6.66239e-21
6.66238e-21
6.66236e-21
6.66235e-21
6.66233e-21
6.66232e-21
6.6623e-21
6.66228e-21
6.66227e-21
6.66225e-21
6.66223e-21
6.66221e-21
6.66219e-21
6.66217e-21
6.66216e-21
6.66214e-21
6.66212e-21
6.6621e-21
6.66209e-21
6.66207e-21
6.66205e-21
6.66204e-21
6.66202e-21
6.66201e-21
6.662e-21
6.66198e-21
6.66197e-21
6.66196e-21
6.66195e-21
6.66193e-21
6.66192e-21
6.66191e-21
6.6619e-21
6.66189e-21
6.66188e-21
6.66187e-21
6.66186e-21
6.66185e-21
6.66184e-21
6.66183e-21
6.66182e-21
6.66181e-21
6.66181e-21
6.6618e-21
6.66179e-21
6.66178e-21
6.66177e-21
6.66176e-21
6.66175e-21
6.66174e-21
6.66173e-21
6.66173e-21
6.66172e-21
6.66171e-21
6.6617e-21
6.66169e-21
6.66168e-21
6.66167e-21
6.66166e-21
6.66165e-21
6.66164e-21
6.66163e-21
6.66162e-21
6.66162e-21
6.66161e-21
6.6616e-21
6.66159e-21
6.66158e-21
6.66157e-21
6.66156e-21
6.66155e-21
6.66154e-21
6.66153e-21
6.66152e-21
6.66151e-21
6.66151e-21
6.6615e-21
6.66149e-21
6.66148e-21
6.66147e-21
6.66147e-21
6.66146e-21
6.66145e-21
6.66145e-21
6.66144e-21
6.66144e-21
6.66143e-21
6.66142e-21
6.66142e-21
6.66141e-21
6.6614e-21
6.66139e-21
6.66138e-21
6.66137e-21
6.66136e-21
6.66135e-21
6.66135e-21
6.66134e-21
6.66134e-21
6.66134e-21
9.92292e-21
8.90803e-20
1.07807e-18
1.38893e-17
1.91192e-16
2.8409e-15
4.59894e-14
8.19072e-13
1.6269e-11
3.7779e-10
1.90873e-08
1.5454e-06
3.92012e-05
0.000364311
0.00194324
0.00405372
0.00544466
0.00636564
0.00701702
0.00749443
0.00784832
0.00811309
0.00838315
0.00862046
0.00882095
0.0089867
0.00912018
0.00922325
0.009297
0.00934204
0.00935864
0.00934705
0.00930742
0.00923992
0.00914533
0.00902446
0.00887847
0.00870873
0.00851696
0.00830502
0.00807511
0.00782951
0.00757073
0.00730145
0.00702444
0.00674257
0.00645879
0.00617614
0.00589756
0.00562597
0.0053641
0.00511444
0.00487911
0.00465977
0.00445754
0.00427289
0.00410563
0.00395496
0.00381954
0.0036977
0.00358767
0.00348773
0.00339636
0.00331227
0.00323438
0.00316179
0.00309378
0.00302972
0.00296908
0.00291142
0.00285636
0.00280303
0.00275069
0.00269917
0.00264829
0.00259788
0.0025478
0.00249788
0.00244798
0.00239795
0.00234763
0.00229688
0.00224555
0.0021935
0.00214057
0.00208661
0.00203145
0.00197494
0.0019169
0.00185716
0.00179553
0.00173181
0.00166578
0.0015972
0.00152581
0.0014513
0.00137333
0.00129146
0.00120519
0.00111387
0.00101665
0.00091238
0.000799413
0.000675163
0.000535102
0.000369375
0
0
0
0
0
0
0
0
0
0
0
0
0
0
0
0
0
0
0
0
0
0
0
0
0
0
0
0
0
0
0
0
0
0
0
0
0
0
0
0
0
0
0
0
0
0
0
0
0
0
0
0
0
0
0
0
0
0
0
0
0
0
0
0
0
0
0
0
0
0
0
0
0
0
0
0
0
0
0
0
0
0
0
0
0
0
0
0
0
0
0
0
0
0
0
0
0
0
0
0
0
0
0
0
0
0
0
0
0
0
0
0
0
0
0
0
0
0
0
0
0
0
0
0
)
;

boundaryField
{
    inandouthalf11
    {
        type            cyclic;
    }
    inandouthalf12
    {
        type            cyclic;
    }
    inandouthalf21
    {
        type            cyclic;
    }
    inandouthalf22
    {
        type            cyclic;
    }
    inandouthalf31
    {
        type            cyclic;
    }
    inandouthalf32
    {
        type            cyclic;
    }
    inandouthalf41
    {
        type            cyclic;
    }
    inandouthalf42
    {
        type            cyclic;
    }
    top
    {
        type            symmetryPlane;
    }
    walls
    {
        type            zeroGradient;
    }
    frontAndBackPlanes
    {
        type            empty;
    }
}


// ************************************************************************* //
