/*--------------------------------*- C++ -*----------------------------------*\
| =========                 |                                                 |
| \\      /  F ield         | OpenFOAM: The Open Source CFD Toolbox           |
|  \\    /   O peration     | Version:  2.4.x                                 |
|   \\  /    A nd           | Web:      www.OpenFOAM.org                      |
|    \\/     M anipulation  |                                                 |
\*---------------------------------------------------------------------------*/
FoamFile
{
    version     2.0;
    format      ascii;
    class       volVectorField;
    location    "8.8";
    object      Ua;
}
// * * * * * * * * * * * * * * * * * * * * * * * * * * * * * * * * * * * * * //

dimensions      [0 1 -1 0 0 0 0];

internalField   nonuniform List<vector> 
360
(
(1.96111e-32 -1.00251e-31 0)
(1.20003e-08 -4.29169e-08 0)
(2.52137e-08 -7.7325e-08 0)
(3.73097e-08 -1.08163e-07 0)
(4.9828e-08 -1.412e-07 0)
(6.30573e-08 -1.76201e-07 0)
(7.66754e-08 -2.11944e-07 0)
(9.05223e-08 -2.48113e-07 0)
(1.04592e-07 -2.84765e-07 0)
(1.18904e-07 -3.21961e-07 0)
(1.33471e-07 -3.59732e-07 0)
(1.48291e-07 -3.9807e-07 0)
(1.63355e-07 -4.36946e-07 0)
(1.78651e-07 -4.76326e-07 0)
(1.94166e-07 -5.16177e-07 0)
(2.09889e-07 -5.56472e-07 0)
(2.25809e-07 -5.97182e-07 0)
(2.41913e-07 -6.38269e-07 0)
(2.58183e-07 -6.79692e-07 0)
(2.74603e-07 -7.21409e-07 0)
(2.91157e-07 -7.63373e-07 0)
(3.07824e-07 -8.05537e-07 0)
(3.2459e-07 -8.4786e-07 0)
(3.41435e-07 -8.90296e-07 0)
(3.58341e-07 -9.328e-07 0)
(3.75292e-07 -9.75327e-07 0)
(3.92268e-07 -1.01783e-06 0)
(4.09255e-07 -1.06027e-06 0)
(4.26235e-07 -1.10261e-06 0)
(4.43193e-07 -1.14481e-06 0)
(4.60114e-07 -1.18683e-06 0)
(4.76983e-07 -1.22864e-06 0)
(4.93788e-07 -1.2702e-06 0)
(5.10517e-07 -1.31149e-06 0)
(5.2716e-07 -1.35249e-06 0)
(5.43705e-07 -1.39316e-06 0)
(5.60142e-07 -1.43348e-06 0)
(5.76467e-07 -1.47344e-06 0)
(5.92672e-07 -1.51303e-06 0)
(6.08752e-07 -1.55223e-06 0)
(6.24701e-07 -1.59103e-06 0)
(6.40519e-07 -1.62943e-06 0)
(6.562e-07 -1.66741e-06 0)
(6.71744e-07 -1.70498e-06 0)
(6.87153e-07 -1.74214e-06 0)
(7.02425e-07 -1.77889e-06 0)
(7.17563e-07 -1.81524e-06 0)
(7.32564e-07 -1.85118e-06 0)
(7.4743e-07 -1.88672e-06 0)
(7.62169e-07 -1.92187e-06 0)
(7.76783e-07 -1.95665e-06 0)
(7.91273e-07 -1.99105e-06 0)
(8.05643e-07 -2.02509e-06 0)
(8.19898e-07 -2.05877e-06 0)
(8.3404e-07 -2.09211e-06 0)
(8.48073e-07 -2.12511e-06 0)
(8.62002e-07 -2.15779e-06 0)
(8.75829e-07 -2.19015e-06 0)
(8.89557e-07 -2.2222e-06 0)
(9.03186e-07 -2.25393e-06 0)
(9.16723e-07 -2.28537e-06 0)
(9.30172e-07 -2.31653e-06 0)
(9.43536e-07 -2.34741e-06 0)
(9.56819e-07 -2.37802e-06 0)
(9.70023e-07 -2.40836e-06 0)
(9.83147e-07 -2.43845e-06 0)
(9.96194e-07 -2.46827e-06 0)
(1.00917e-06 -2.49784e-06 0)
(1.02206e-06 -2.52715e-06 0)
(1.03488e-06 -2.55619e-06 0)
(1.04762e-06 -2.58499e-06 0)
(1.06029e-06 -2.61354e-06 0)
(1.07289e-06 -2.64184e-06 0)
(1.08542e-06 -2.6699e-06 0)
(1.09788e-06 -2.69771e-06 0)
(1.11027e-06 -2.72529e-06 0)
(1.12259e-06 -2.75262e-06 0)
(1.13484e-06 -2.7797e-06 0)
(1.14701e-06 -2.80651e-06 0)
(1.15911e-06 -2.83307e-06 0)
(1.17112e-06 -2.85936e-06 0)
(1.18306e-06 -2.88539e-06 0)
(1.19492e-06 -2.91114e-06 0)
(1.2067e-06 -2.93663e-06 0)
(1.2184e-06 -2.96186e-06 0)
(1.23002e-06 -2.98682e-06 0)
(1.24157e-06 -3.01151e-06 0)
(1.25303e-06 -3.03593e-06 0)
(1.26441e-06 -3.06006e-06 0)
(1.2757e-06 -3.0839e-06 0)
(1.28689e-06 -3.10744e-06 0)
(1.298e-06 -3.13067e-06 0)
(1.30901e-06 -3.1536e-06 0)
(1.31992e-06 -3.17622e-06 0)
(1.33074e-06 -3.19854e-06 0)
(1.34147e-06 -3.22055e-06 0)
(1.35211e-06 -3.24224e-06 0)
(1.36264e-06 -3.26362e-06 0)
(1.37309e-06 -3.28469e-06 0)
(1.38343e-06 -3.30542e-06 0)
(1.39367e-06 -3.32583e-06 0)
(1.40381e-06 -3.34591e-06 0)
(1.41385e-06 -3.36566e-06 0)
(1.4238e-06 -3.38508e-06 0)
(1.43365e-06 -3.40417e-06 0)
(1.44341e-06 -3.42294e-06 0)
(1.45308e-06 -3.44139e-06 0)
(1.46268e-06 -3.45955e-06 0)
(1.4722e-06 -3.47741e-06 0)
(1.48167e-06 -3.495e-06 0)
(1.49109e-06 -3.51233e-06 0)
(1.50047e-06 -3.52941e-06 0)
(1.50984e-06 -3.54628e-06 0)
(1.51919e-06 -3.56293e-06 0)
(1.52855e-06 -3.57939e-06 0)
(1.53792e-06 -3.59566e-06 0)
(1.54731e-06 -3.61174e-06 0)
(1.55672e-06 -3.62762e-06 0)
(1.56615e-06 -3.64328e-06 0)
(1.57557e-06 -3.65868e-06 0)
(1.58498e-06 -3.67379e-06 0)
(1.59435e-06 -3.68855e-06 0)
(1.60366e-06 -3.7029e-06 0)
(1.61287e-06 -3.71681e-06 0)
(1.62199e-06 -3.73024e-06 0)
(1.63102e-06 -3.74321e-06 0)
(1.64001e-06 -3.75576e-06 0)
(1.64905e-06 -3.768e-06 0)
(1.65828e-06 -3.7801e-06 0)
(1.66791e-06 -3.79228e-06 0)
(1.67821e-06 -3.80483e-06 0)
(1.68951e-06 -3.81808e-06 0)
(1.70219e-06 -3.83233e-06 0)
(1.71664e-06 -3.84786e-06 0)
(1.73301e-06 -3.86468e-06 0)
(1.75094e-06 -3.88224e-06 0)
(1.76908e-06 -3.8991e-06 0)
(1.78519e-06 -3.91319e-06 0)
(1.797e-06 -3.92285e-06 0)
(1.8036e-06 -3.92785e-06 0)
(1.80613e-06 -3.92951e-06 0)
(1.80684e-06 -3.92979e-06 0)
(1.80723e-06 -3.92966e-06 0)
(1.80785e-06 -3.9293e-06 0)
(0.0714894 0.000499522 0)
(0.182065 0.00147313 0)
(0.283503 0.00190345 0)
(0.373149 0.00218685 0)
(0.453086 0.00239565 0)
(0.525169 0.00257805 0)
(0.590753 0.00275279 0)
(0.650836 0.00295269 0)
(0.706281 0.00314546 0)
(0.757532 0.00337135 0)
(0.805037 0.00362132 0)
(0.849192 0.00389307 0)
(0.890342 0.00418568 0)
(0.928787 0.00449843 0)
(0.964788 0.00483035 0)
(0.998574 0.00518031 0)
(1.03035 0.00554709 0)
(1.06028 0.00592929 0)
(1.08853 0.00632544 0)
(1.11524 0.00673389 0)
(1.14052 0.00715278 0)
(1.16449 0.0075801 0)
(1.18722 0.00801373 0)
(1.20881 0.00845149 0)
(1.22931 0.00889121 0)
(1.2488 0.00933088 0)
(1.2673 0.00976871 0)
(1.28487 0.0102032 0)
(1.30154 0.0106332 0)
(1.31732 0.0110578 0)
(1.33223 0.0114761 0)
(1.34627 0.0118873 0)
(1.35945 0.0122904 0)
(1.37177 0.012684 0)
(1.38322 0.0130665 0)
(1.3938 0.0134356 0)
(1.4035 0.0137883 0)
(1.41232 0.0141212 0)
(1.42027 0.01443 0)
(1.42736 0.0147095 0)
(1.43362 0.0149518 0)
(1.43908 0.015145 0)
(1.44381 0.0152728 0)
(1.44785 0.0153182 0)
(1.45129 0.0152709 0)
(1.4542 0.0151323 0)
(1.45666 0.0149163 0)
(1.45874 0.0146446 0)
(1.46051 0.0143398 0)
(1.46201 0.0140214 0)
(1.46329 0.0137037 0)
(1.46439 0.0133961 0)
(1.46532 0.0131041 0)
(1.46612 0.0128307 0)
(1.46681 0.012577 0)
(1.46739 0.012343 0)
(1.46789 0.0121284 0)
(1.46832 0.0119303 0)
(1.46869 0.0117467 0)
(1.46901 0.0115775 0)
(1.46928 0.0114223 0)
(1.4695 0.0112811 0)
(1.46968 0.0111535 0)
(1.46983 0.011039 0)
(1.46994 0.0109373 0)
(1.47001 0.0108479 0)
(1.47006 0.0107703 0)
(1.47008 0.0107037 0)
(1.47008 0.0106476 0)
(1.47006 0.010601 0)
(1.47002 0.0105631 0)
(1.46997 0.0105329 0)
(1.4699 0.0105094 0)
(1.46982 0.0104915 0)
(1.46973 0.0104781 0)
(1.46964 0.0104681 0)
(1.46953 0.0104607 0)
(1.46943 0.010455 0)
(1.46932 0.0104501 0)
(1.46921 0.0104456 0)
(1.46909 0.0104406 0)
(1.46898 0.0104349 0)
(1.46887 0.0104281 0)
(1.46876 0.0104196 0)
(1.46866 0.0104092 0)
(1.46856 0.0103966 0)
(1.46847 0.0103817 0)
(1.46838 0.010364 0)
(1.4683 0.010343 0)
(1.46824 0.0103202 0)
(1.4682 0.0102932 0)
(1.46817 0.0102547 0)
(1.46818 0.0102003 0)
(1.47073 0.00829798 0)
(1.46896 0.00916651 0)
(1.46666 0.00884608 0)
(1.46438 0.00872502 0)
(1.4621 0.00882171 0)
(1.45975 0.00834348 0)
(1.45745 0.00964865 0)
(1.45502 0.00790481 0)
(1.45291 0.0102793 0)
(1.45043 0.0125351 0)
(1.44807 -0.0219157 0)
(1.44621 -0.039632 0)
(1.44372 -0.039598 0)
(1.4415 -0.0396019 0)
(1.43932 -0.0396019 0)
(1.4372 -0.0396018 0)
(1.43516 -0.0396012 0)
(1.43321 -0.0396001 0)
(1.43139 -0.0395985 0)
(1.42969 -0.0395963 0)
(1.42816 -0.0395935 0)
(1.42682 -0.0395901 0)
(1.42568 -0.0395861 0)
(1.42477 -0.0395815 0)
(1.42411 -0.0395762 0)
(1.42373 -0.0395709 0)
(1.42361 -0.0395655 0)
(1.42372 -0.0395586 0)
(1.42399 -0.0395494 0)
(1.42413 -0.0395412 0)
(1.42415 -0.0395381 0)
(1.42415 -0.0395378 0)
(1.42415 -0.0395378 0)
(1.42415 -0.0395378 0)
(1.42415 -0.0395378 0)
(1.42415 -0.0395378 0)
(1.42415 -0.0395378 0)
(1.42415 -0.0395378 0)
(1.42415 -0.0395378 0)
(1.42415 -0.0395378 0)
(1.42415 -0.0395378 0)
(1.42415 -0.0395378 0)
(1.42415 -0.0395378 0)
(1.42415 -0.0395378 0)
(1.42415 -0.0395378 0)
(1.42415 -0.0395378 0)
(1.42415 -0.0395378 0)
(1.42415 -0.0395378 0)
(1.42415 -0.0395378 0)
(1.42415 -0.0395378 0)
(1.42415 -0.0395378 0)
(1.42415 -0.0395378 0)
(1.42415 -0.0395378 0)
(1.42415 -0.0395378 0)
(1.42415 -0.0395378 0)
(1.42415 -0.0395378 0)
(1.42415 -0.0395378 0)
(1.42415 -0.0395378 0)
(1.42415 -0.0395378 0)
(1.42415 -0.0395378 0)
(1.42415 -0.0395378 0)
(1.42415 -0.0395378 0)
(1.42415 -0.0395378 0)
(1.42415 -0.0395378 0)
(1.42415 -0.0395378 0)
(1.42415 -0.0395378 0)
(1.42415 -0.0395378 0)
(1.42415 -0.0395378 0)
(1.42415 -0.0395378 0)
(1.42415 -0.0395378 0)
(1.42415 -0.0395378 0)
(1.42415 -0.0395378 0)
(1.42415 -0.0395378 0)
(1.42415 -0.0395378 0)
(1.42415 -0.0395378 0)
(1.42415 -0.0395378 0)
(1.42415 -0.0395378 0)
(1.42415 -0.0395378 0)
(1.42415 -0.0395378 0)
(1.42415 -0.0395378 0)
(1.42415 -0.0395378 0)
(1.42415 -0.0395378 0)
(1.42415 -0.0395378 0)
(1.42415 -0.0395378 0)
(1.42415 -0.0395378 0)
(1.42415 -0.0395378 0)
(1.42415 -0.0395378 0)
(1.42415 -0.0395378 0)
(1.42415 -0.0395378 0)
(1.42415 -0.0395378 0)
(1.42415 -0.0395378 0)
(1.42415 -0.0395378 0)
(1.42415 -0.0395378 0)
(1.42415 -0.0395378 0)
(1.42415 -0.0395378 0)
(1.42415 -0.0395378 0)
(1.42415 -0.0395378 0)
(1.42415 -0.0395378 0)
(1.42415 -0.0395378 0)
(1.42415 -0.0395378 0)
(1.42415 -0.0395378 0)
(1.42415 -0.0395378 0)
(1.42415 -0.0395378 0)
(1.42415 -0.0395378 0)
(1.42415 -0.0395378 0)
(1.42415 -0.0395378 0)
(1.42415 -0.0395378 0)
(1.42415 -0.0395378 0)
(1.42415 -0.0395378 0)
(1.42415 -0.0395378 0)
(1.42415 -0.0395378 0)
(1.42415 -0.0395378 0)
(1.42415 -0.0395378 0)
(1.42415 -0.0395378 0)
(1.42415 -0.0395378 0)
(1.42415 -0.0395378 0)
(1.42415 -0.0395378 0)
(1.42415 -0.0395378 0)
(1.42415 -0.0395378 0)
(1.42415 -0.0395376 0)
(1.42415 -0.0395291 0)
(1.42413 -0.0391842 0)
(1.4238 -0.0224755 0)
)
;

boundaryField
{
    inandouthalf11
    {
        type            cyclic;
    }
    inandouthalf12
    {
        type            cyclic;
    }
    inandouthalf21
    {
        type            cyclic;
    }
    inandouthalf22
    {
        type            cyclic;
    }
    inandouthalf31
    {
        type            cyclic;
    }
    inandouthalf32
    {
        type            cyclic;
    }
    inandouthalf41
    {
        type            cyclic;
    }
    inandouthalf42
    {
        type            cyclic;
    }
    top
    {
        type            symmetryPlane;
    }
    walls
    {
        type            fixedValue;
        value           uniform (0 0 0);
    }
    frontAndBackPlanes
    {
        type            empty;
    }
}


// ************************************************************************* //
