/*--------------------------------*- C++ -*----------------------------------*\
| =========                 |                                                 |
| \\      /  F ield         | OpenFOAM: The Open Source CFD Toolbox           |
|  \\    /   O peration     | Version:  2.4.x                                 |
|   \\  /    A nd           | Web:      www.OpenFOAM.org                      |
|    \\/     M anipulation  |                                                 |
\*---------------------------------------------------------------------------*/
FoamFile
{
    version     2.0;
    format      ascii;
    class       volVectorField;
    location    "8.8";
    object      Ua_0;
}
// * * * * * * * * * * * * * * * * * * * * * * * * * * * * * * * * * * * * * //

dimensions      [0 1 -1 0 0 0 0];

internalField   nonuniform List<vector> 
360
(
(1.9612e-32 -1.0025e-31 0)
(1.20032e-08 -4.29251e-08 0)
(2.52199e-08 -7.734e-08 0)
(3.73189e-08 -1.08184e-07 0)
(4.98403e-08 -1.41227e-07 0)
(6.30729e-08 -1.76236e-07 0)
(7.66944e-08 -2.11986e-07 0)
(9.05446e-08 -2.48162e-07 0)
(1.04617e-07 -2.84822e-07 0)
(1.18933e-07 -3.22026e-07 0)
(1.33503e-07 -3.59803e-07 0)
(1.48327e-07 -3.98149e-07 0)
(1.63394e-07 -4.37032e-07 0)
(1.78693e-07 -4.76419e-07 0)
(1.94211e-07 -5.16276e-07 0)
(2.09937e-07 -5.56578e-07 0)
(2.2586e-07 -5.97294e-07 0)
(2.41966e-07 -6.38388e-07 0)
(2.58239e-07 -6.79817e-07 0)
(2.74663e-07 -7.2154e-07 0)
(2.91218e-07 -7.6351e-07 0)
(3.07889e-07 -8.05679e-07 0)
(3.24656e-07 -8.48007e-07 0)
(3.41503e-07 -8.90448e-07 0)
(3.58412e-07 -9.32956e-07 0)
(3.75365e-07 -9.75487e-07 0)
(3.92343e-07 -1.018e-06 0)
(4.09331e-07 -1.06044e-06 0)
(4.26313e-07 -1.10279e-06 0)
(4.43273e-07 -1.14499e-06 0)
(4.60194e-07 -1.18701e-06 0)
(4.77065e-07 -1.22882e-06 0)
(4.93871e-07 -1.27039e-06 0)
(5.10601e-07 -1.31168e-06 0)
(5.27245e-07 -1.35268e-06 0)
(5.43791e-07 -1.39335e-06 0)
(5.60229e-07 -1.43368e-06 0)
(5.76554e-07 -1.47364e-06 0)
(5.92761e-07 -1.51323e-06 0)
(6.08841e-07 -1.55243e-06 0)
(6.24791e-07 -1.59123e-06 0)
(6.40609e-07 -1.62963e-06 0)
(6.56291e-07 -1.66761e-06 0)
(6.71836e-07 -1.70519e-06 0)
(6.87244e-07 -1.74235e-06 0)
(7.02518e-07 -1.77911e-06 0)
(7.17656e-07 -1.81546e-06 0)
(7.32657e-07 -1.8514e-06 0)
(7.47524e-07 -1.88694e-06 0)
(7.62264e-07 -1.92209e-06 0)
(7.76878e-07 -1.95687e-06 0)
(7.91369e-07 -1.99127e-06 0)
(8.05739e-07 -2.02531e-06 0)
(8.19995e-07 -2.059e-06 0)
(8.34137e-07 -2.09234e-06 0)
(8.48172e-07 -2.12535e-06 0)
(8.62101e-07 -2.15803e-06 0)
(8.75929e-07 -2.19039e-06 0)
(8.89658e-07 -2.22244e-06 0)
(9.03288e-07 -2.25418e-06 0)
(9.16825e-07 -2.28562e-06 0)
(9.30275e-07 -2.31678e-06 0)
(9.4364e-07 -2.34766e-06 0)
(9.56924e-07 -2.37828e-06 0)
(9.70129e-07 -2.40862e-06 0)
(9.83254e-07 -2.43871e-06 0)
(9.96303e-07 -2.46854e-06 0)
(1.00928e-06 -2.49811e-06 0)
(1.02217e-06 -2.52742e-06 0)
(1.03499e-06 -2.55647e-06 0)
(1.04773e-06 -2.58527e-06 0)
(1.06041e-06 -2.61382e-06 0)
(1.07301e-06 -2.64213e-06 0)
(1.08554e-06 -2.67019e-06 0)
(1.098e-06 -2.69801e-06 0)
(1.11039e-06 -2.72559e-06 0)
(1.12271e-06 -2.75292e-06 0)
(1.13496e-06 -2.78e-06 0)
(1.14714e-06 -2.80683e-06 0)
(1.15923e-06 -2.83339e-06 0)
(1.17125e-06 -2.85968e-06 0)
(1.18319e-06 -2.88571e-06 0)
(1.19504e-06 -2.91147e-06 0)
(1.20682e-06 -2.93696e-06 0)
(1.21853e-06 -2.9622e-06 0)
(1.23015e-06 -2.98716e-06 0)
(1.2417e-06 -3.01186e-06 0)
(1.25316e-06 -3.03628e-06 0)
(1.26454e-06 -3.06041e-06 0)
(1.27583e-06 -3.08425e-06 0)
(1.28703e-06 -3.10779e-06 0)
(1.29813e-06 -3.13103e-06 0)
(1.30914e-06 -3.15396e-06 0)
(1.32006e-06 -3.17659e-06 0)
(1.33088e-06 -3.19891e-06 0)
(1.34161e-06 -3.22092e-06 0)
(1.35225e-06 -3.24262e-06 0)
(1.36278e-06 -3.26401e-06 0)
(1.37323e-06 -3.28507e-06 0)
(1.38357e-06 -3.30581e-06 0)
(1.39381e-06 -3.32622e-06 0)
(1.40395e-06 -3.34631e-06 0)
(1.414e-06 -3.36606e-06 0)
(1.42394e-06 -3.38548e-06 0)
(1.43379e-06 -3.40457e-06 0)
(1.44355e-06 -3.42335e-06 0)
(1.45322e-06 -3.44181e-06 0)
(1.46282e-06 -3.45996e-06 0)
(1.47234e-06 -3.47783e-06 0)
(1.48181e-06 -3.49542e-06 0)
(1.49123e-06 -3.51275e-06 0)
(1.50061e-06 -3.52984e-06 0)
(1.50998e-06 -3.54671e-06 0)
(1.51933e-06 -3.56337e-06 0)
(1.52869e-06 -3.57983e-06 0)
(1.53806e-06 -3.5961e-06 0)
(1.54745e-06 -3.61219e-06 0)
(1.55686e-06 -3.62807e-06 0)
(1.56628e-06 -3.64374e-06 0)
(1.57571e-06 -3.65914e-06 0)
(1.58512e-06 -3.67425e-06 0)
(1.59448e-06 -3.68901e-06 0)
(1.60379e-06 -3.70337e-06 0)
(1.613e-06 -3.71729e-06 0)
(1.62212e-06 -3.73073e-06 0)
(1.63115e-06 -3.7437e-06 0)
(1.64014e-06 -3.75625e-06 0)
(1.64918e-06 -3.7685e-06 0)
(1.65841e-06 -3.78061e-06 0)
(1.66804e-06 -3.7928e-06 0)
(1.67834e-06 -3.80537e-06 0)
(1.68964e-06 -3.81863e-06 0)
(1.70233e-06 -3.8329e-06 0)
(1.71678e-06 -3.84845e-06 0)
(1.73316e-06 -3.86529e-06 0)
(1.7511e-06 -3.88288e-06 0)
(1.76925e-06 -3.89977e-06 0)
(1.78538e-06 -3.9139e-06 0)
(1.79721e-06 -3.92359e-06 0)
(1.80382e-06 -3.9286e-06 0)
(1.80636e-06 -3.93028e-06 0)
(1.80708e-06 -3.93056e-06 0)
(1.80746e-06 -3.93043e-06 0)
(1.80808e-06 -3.93007e-06 0)
(0.0713931 0.000496897 0)
(0.181955 0.00147315 0)
(0.2834 0.00190352 0)
(0.373057 0.00218695 0)
(0.453006 0.00239568 0)
(0.525101 0.00257803 0)
(0.590695 0.00275279 0)
(0.650788 0.00295283 0)
(0.706241 0.00314586 0)
(0.7575 0.00337211 0)
(0.805011 0.00362251 0)
(0.849171 0.00389474 0)
(0.890325 0.00418787 0)
(0.928773 0.00450116 0)
(0.964777 0.00483361 0)
(0.998565 0.0051841 0)
(1.03034 0.00555139 0)
(1.06027 0.00593407 0)
(1.08853 0.00633066 0)
(1.11524 0.00673948 0)
(1.14052 0.00715867 0)
(1.16448 0.00758621 0)
(1.18722 0.00801998 0)
(1.2088 0.00845777 0)
(1.22931 0.00889744 0)
(1.24879 0.00933696 0)
(1.2673 0.00977458 0)
(1.28487 0.0102088 0)
(1.30153 0.0106385 0)
(1.31731 0.0110628 0)
(1.33222 0.0114808 0)
(1.34626 0.0118918 0)
(1.35944 0.0122946 0)
(1.37176 0.0126879 0)
(1.3832 0.0130702 0)
(1.39378 0.013439 0)
(1.40347 0.0137916 0)
(1.41229 0.0141242 0)
(1.42023 0.0144328 0)
(1.42732 0.0147119 0)
(1.43357 0.0149539 0)
(1.43903 0.0151466 0)
(1.44375 0.0152738 0)
(1.44779 0.0153185 0)
(1.45123 0.0152704 0)
(1.45413 0.015131 0)
(1.45659 0.0149145 0)
(1.45867 0.0146423 0)
(1.46044 0.0143373 0)
(1.46194 0.0140187 0)
(1.46322 0.013701 0)
(1.46431 0.0133934 0)
(1.46524 0.0131015 0)
(1.46604 0.0128282 0)
(1.46673 0.0125745 0)
(1.46731 0.0123407 0)
(1.46781 0.0121261 0)
(1.46824 0.0119282 0)
(1.46861 0.0117446 0)
(1.46893 0.0115755 0)
(1.46919 0.0114205 0)
(1.46942 0.0112793 0)
(1.4696 0.0111518 0)
(1.46974 0.0110374 0)
(1.46985 0.0109358 0)
(1.46992 0.0108464 0)
(1.46997 0.0107688 0)
(1.47 0.0107024 0)
(1.46999 0.0106463 0)
(1.46997 0.0105997 0)
(1.46993 0.0105619 0)
(1.46988 0.0105318 0)
(1.46981 0.0105083 0)
(1.46973 0.0104904 0)
(1.46964 0.010477 0)
(1.46954 0.0104671 0)
(1.46944 0.0104597 0)
(1.46934 0.010454 0)
(1.46923 0.0104491 0)
(1.46911 0.0104446 0)
(1.469 0.0104397 0)
(1.46889 0.010434 0)
(1.46878 0.0104271 0)
(1.46867 0.0104186 0)
(1.46857 0.0104083 0)
(1.46847 0.0103957 0)
(1.46837 0.0103808 0)
(1.46829 0.010363 0)
(1.46821 0.0103421 0)
(1.46815 0.0103193 0)
(1.4681 0.0102923 0)
(1.46808 0.0102538 0)
(1.46808 0.0101995 0)
(1.47063 0.00829833 0)
(1.46886 0.00916579 0)
(1.46656 0.0088452 0)
(1.46428 0.00872314 0)
(1.462 0.00882007 0)
(1.45964 0.00833651 0)
(1.45735 0.00965003 0)
(1.45491 0.0078885 0)
(1.4528 0.0103032 0)
(1.45032 0.0124965 0)
(1.44796 -0.0219764 0)
(1.44611 -0.0396321 0)
(1.44361 -0.039598 0)
(1.4414 -0.0396019 0)
(1.43921 -0.0396019 0)
(1.43709 -0.0396018 0)
(1.43505 -0.0396012 0)
(1.43311 -0.0396001 0)
(1.43128 -0.0395985 0)
(1.42959 -0.0395963 0)
(1.42806 -0.0395935 0)
(1.42672 -0.0395901 0)
(1.42558 -0.0395861 0)
(1.42467 -0.0395815 0)
(1.42401 -0.0395762 0)
(1.42363 -0.0395709 0)
(1.42351 -0.0395655 0)
(1.42362 -0.0395585 0)
(1.42389 -0.0395494 0)
(1.42403 -0.0395412 0)
(1.42405 -0.0395381 0)
(1.42405 -0.0395378 0)
(1.42405 -0.0395378 0)
(1.42405 -0.0395378 0)
(1.42405 -0.0395378 0)
(1.42405 -0.0395378 0)
(1.42405 -0.0395378 0)
(1.42405 -0.0395378 0)
(1.42405 -0.0395378 0)
(1.42405 -0.0395378 0)
(1.42405 -0.0395378 0)
(1.42405 -0.0395378 0)
(1.42405 -0.0395378 0)
(1.42405 -0.0395378 0)
(1.42405 -0.0395378 0)
(1.42405 -0.0395378 0)
(1.42405 -0.0395378 0)
(1.42405 -0.0395378 0)
(1.42405 -0.0395378 0)
(1.42405 -0.0395378 0)
(1.42405 -0.0395378 0)
(1.42405 -0.0395378 0)
(1.42405 -0.0395378 0)
(1.42405 -0.0395378 0)
(1.42405 -0.0395378 0)
(1.42405 -0.0395378 0)
(1.42405 -0.0395378 0)
(1.42405 -0.0395378 0)
(1.42405 -0.0395378 0)
(1.42405 -0.0395378 0)
(1.42405 -0.0395378 0)
(1.42405 -0.0395378 0)
(1.42405 -0.0395378 0)
(1.42405 -0.0395378 0)
(1.42405 -0.0395378 0)
(1.42405 -0.0395378 0)
(1.42405 -0.0395378 0)
(1.42405 -0.0395378 0)
(1.42405 -0.0395378 0)
(1.42405 -0.0395378 0)
(1.42405 -0.0395378 0)
(1.42405 -0.0395378 0)
(1.42405 -0.0395378 0)
(1.42405 -0.0395378 0)
(1.42405 -0.0395378 0)
(1.42405 -0.0395378 0)
(1.42405 -0.0395378 0)
(1.42405 -0.0395378 0)
(1.42405 -0.0395378 0)
(1.42405 -0.0395378 0)
(1.42405 -0.0395378 0)
(1.42405 -0.0395378 0)
(1.42405 -0.0395378 0)
(1.42405 -0.0395378 0)
(1.42405 -0.0395378 0)
(1.42405 -0.0395378 0)
(1.42405 -0.0395378 0)
(1.42405 -0.0395378 0)
(1.42405 -0.0395378 0)
(1.42405 -0.0395378 0)
(1.42405 -0.0395378 0)
(1.42405 -0.0395378 0)
(1.42405 -0.0395378 0)
(1.42405 -0.0395378 0)
(1.42405 -0.0395378 0)
(1.42405 -0.0395378 0)
(1.42405 -0.0395378 0)
(1.42405 -0.0395378 0)
(1.42405 -0.0395378 0)
(1.42405 -0.0395378 0)
(1.42405 -0.0395378 0)
(1.42405 -0.0395378 0)
(1.42405 -0.0395378 0)
(1.42405 -0.0395378 0)
(1.42405 -0.0395378 0)
(1.42405 -0.0395378 0)
(1.42405 -0.0395378 0)
(1.42405 -0.0395378 0)
(1.42405 -0.0395378 0)
(1.42405 -0.0395378 0)
(1.42405 -0.0395378 0)
(1.42405 -0.0395378 0)
(1.42405 -0.0395378 0)
(1.42405 -0.0395378 0)
(1.42405 -0.0395378 0)
(1.42405 -0.0395378 0)
(1.42405 -0.0395378 0)
(1.42405 -0.0395378 0)
(1.42405 -0.0395378 0)
(1.42405 -0.0395376 0)
(1.42405 -0.0395291 0)
(1.42404 -0.0391842 0)
(1.4237 -0.0224754 0)
)
;

boundaryField
{
    inandouthalf11
    {
        type            cyclic;
    }
    inandouthalf12
    {
        type            cyclic;
    }
    inandouthalf21
    {
        type            cyclic;
    }
    inandouthalf22
    {
        type            cyclic;
    }
    inandouthalf31
    {
        type            cyclic;
    }
    inandouthalf32
    {
        type            cyclic;
    }
    inandouthalf41
    {
        type            cyclic;
    }
    inandouthalf42
    {
        type            cyclic;
    }
    top
    {
        type            symmetryPlane;
    }
    walls
    {
        type            fixedValue;
        value           uniform (0 0 0);
    }
    frontAndBackPlanes
    {
        type            empty;
    }
}


// ************************************************************************* //
