/*--------------------------------*- C++ -*----------------------------------*\
| =========                 |                                                 |
| \\      /  F ield         | OpenFOAM: The Open Source CFD Toolbox           |
|  \\    /   O peration     | Version:  2.4.x                                 |
|   \\  /    A nd           | Web:      www.OpenFOAM.org                      |
|    \\/     M anipulation  |                                                 |
\*---------------------------------------------------------------------------*/
FoamFile
{
    version     2.0;
    format      ascii;
    class       volScalarField;
    location    "4.25";
    object      ddt0(alpha);
}
// * * * * * * * * * * * * * * * * * * * * * * * * * * * * * * * * * * * * * //

dimensions      [0 0 -1 0 0 0 0];

internalField   nonuniform List<scalar> 
360
(
0.000188543
0.000347857
0.000329968
0.000301758
0.000297996
0.000305624
0.000313734
0.000318927
0.000321329
0.000323208
0.000326012
0.000329926
0.000334773
0.000339921
0.000345183
0.000350491
0.000355617
0.000360061
0.000363125
0.000364357
0.000362953
0.000359517
0.000354759
0.000350471
0.00034927
0.000354598
0.000370673
0.000402752
0.000455624
0.000531541
0.000621736
0.000694365
0.000690559
0.000570269
0.000367132
0.000178711
6.61555e-05
1.97765e-05
5.36106e-06
1.49585e-06
4.51847e-07
1.51792e-07
3.65712e-08
-4.4228e-09
-2.51277e-10
1.45165e-08
5.24076e-08
8.31789e-08
8.98371e-08
1.0791e-07
1.12673e-07
9.7086e-08
7.56211e-08
5.2688e-08
2.12732e-08
-4.94789e-09
-2.60628e-08
-5.01087e-08
-5.72933e-08
-7.6783e-08
-8.74396e-08
-9.10483e-08
-9.73888e-08
-9.82453e-08
-1.03698e-07
-1.1408e-07
-1.30023e-07
-1.43959e-07
-1.54884e-07
-1.73551e-07
-1.93424e-07
-1.93136e-07
-1.95863e-07
-2.00211e-07
-1.98733e-07
-1.94299e-07
-1.8871e-07
-1.92121e-07
-1.9868e-07
-2.05403e-07
-2.15572e-07
-2.29068e-07
-2.40211e-07
-2.49852e-07
-2.57613e-07
-2.64062e-07
-2.69377e-07
-2.74388e-07
-2.82159e-07
-2.92565e-07
-3.0534e-07
-3.21424e-07
-3.40151e-07
-3.60269e-07
-3.81664e-07
-4.04126e-07
-4.27547e-07
-4.52189e-07
-4.78513e-07
-5.06784e-07
-5.37222e-07
-5.70106e-07
-6.05518e-07
-6.43474e-07
-6.84117e-07
-7.27566e-07
-7.73948e-07
-8.23404e-07
-8.76035e-07
-9.3189e-07
-9.90985e-07
-1.0533e-06
-1.11878e-06
-1.18733e-06
-1.25885e-06
-1.33321e-06
-1.41031e-06
-1.49009e-06
-1.5726e-06
-1.65797e-06
-1.74656e-06
-1.83892e-06
-1.93592e-06
-2.03891e-06
-2.14989e-06
-2.27166e-06
-2.40764e-06
-2.56104e-06
-2.73334e-06
-2.9232e-06
-3.12879e-06
-3.35563e-06
-3.62147e-06
-3.9373e-06
-4.27535e-06
-4.59534e-06
-4.93569e-06
-5.44936e-06
-6.25694e-06
-7.07219e-06
-7.25898e-06
-7.84808e-06
-9.8844e-06
-1.24774e-05
-1.84734e-05
-5.93614e-05
-0.0271173
-0.386194
-0.117631
-0.0167037
0.00978396
0.0234521
0.0324938
0.0386093
0.0421788
0.0434303
0.0427781
0.0406721
0.0376285
0.0340672
0.0303148
0.0266013
0.0230683
0.0198013
0.0168427
0.0142119
0.0119207
0.00998468
0.00838538
0.00700884
0.00568495
0.00435616
0.0031369
0.00216387
0.00147027
0.00100555
0.000700149
0.000498364
0.000362955
0.000270527
0.000206536
0.000161865
0.000130707
0.000109274
9.49923e-05
8.58895e-05
7.99659e-05
7.46944e-05
6.73574e-05
5.67932e-05
4.49427e-05
3.52802e-05
2.91999e-05
2.51164e-05
2.1235e-05
1.7589e-05
1.48276e-05
1.27587e-05
1.08789e-05
9.1045e-06
7.68362e-06
6.77155e-06
6.00335e-06
4.9579e-06
3.99296e-06
3.6019e-06
3.34401e-06
2.67722e-06
2.10386e-06
1.97613e-06
1.74285e-06
1.34929e-06
1.1748e-06
1.04343e-06
8.11358e-07
6.98961e-07
6.47446e-07
4.91081e-07
3.79466e-07
3.67352e-07
3.00548e-07
2.22059e-07
1.96295e-07
1.56999e-07
1.2538e-07
1.0881e-07
7.87099e-08
6.41182e-08
5.67014e-08
3.96538e-08
2.90689e-08
1.94229e-08
1.07621e-08
8.50752e-09
9.31009e-09
1.15192e-08
1.17358e-08
-4.61332e-14
-5.76117e-16
-7.36854e-16
-1.08517e-15
-1.13868e-15
-5.12063e-16
-2.04409e-16
-1.02153e-16
-6.18903e-17
-7.15903e-17
-1.15953e-16
-1.71678e-16
-2.15045e-16
-1.55246e-16
-5.45216e-17
-2.47439e-17
-1.31922e-17
-1.08016e-17
-1.47664e-17
-1.85524e-17
-7.00548e-18
-2.21966e-18
-8.44185e-19
-3.7706e-19
-1.85858e-19
-9.53235e-20
-5.60605e-20
-4.18996e-20
-3.6288e-20
-2.13574e-20
-8.89317e-21
-4.32552e-21
-2.22458e-21
-1.32391e-21
-9.16913e-22
-4.19769e-22
-2.01209e-22
-1.01043e-22
-5.08841e-23
-2.50668e-23
-1.20842e-23
-5.69349e-24
-2.61888e-24
-1.17478e-24
-5.13344e-25
-2.18244e-25
-9.01579e-26
-3.61405e-26
-1.40371e-26
-5.27424e-27
-1.91382e-27
-6.69408e-28
-2.2524e-28
-7.27434e-29
-2.24941e-29
-6.64181e-30
-1.86691e-30
-4.97848e-31
-1.25466e-31
-2.97507e-32
-6.60386e-33
-1.36412e-33
-2.6039e-34
-4.55467e-35
-7.2259e-36
-1.02646e-36
-1.28415e-37
-1.3838e-38
-1.24494e-39
-8.91709e-41
-4.68949e-42
-1.52562e-43
-1.58685e-45
-2.47431e-48
-3.88362e-50
-3.02424e-52
-4.85043e-63
-3.93685e-74
-2.42364e-85
-1.09328e-96
-4.36129e-108
-1.45059e-119
-5.55329e-131
-3.38185e-139
-8.54319e-150
-1.16494e-157
-2.77527e-168
-4.00755e-176
-1.19097e-186
-1.37837e-194
-5.3688e-205
-4.74472e-213
-3.65253e-223
-1.64885e-231
-2.4336e-241
-5.81606e-250
-1.22689e-259
-2.08133e-268
-5.80747e-278
-7.55284e-287
-2.56004e-296
-2.78378e-305
-1.12668e-314
-9.79238e-321
0
0
0
0
0
0
0
0
0
0
0
0
0
0
0
0
0
0
0
)
;

boundaryField
{
    inandouthalf11
    {
        type            cyclic;
    }
    inandouthalf12
    {
        type            cyclic;
    }
    inandouthalf21
    {
        type            cyclic;
    }
    inandouthalf22
    {
        type            cyclic;
    }
    inandouthalf31
    {
        type            cyclic;
    }
    inandouthalf32
    {
        type            cyclic;
    }
    inandouthalf41
    {
        type            cyclic;
    }
    inandouthalf42
    {
        type            cyclic;
    }
    top
    {
        type            symmetryPlane;
    }
    walls
    {
        type            calculated;
        value           uniform 0.000188543;
    }
    frontAndBackPlanes
    {
        type            empty;
    }
}


// ************************************************************************* //
