/*--------------------------------*- C++ -*----------------------------------*\
| =========                 |                                                 |
| \\      /  F ield         | OpenFOAM: The Open Source CFD Toolbox           |
|  \\    /   O peration     | Version:  2.4.x                                 |
|   \\  /    A nd           | Web:      www.OpenFOAM.org                      |
|    \\/     M anipulation  |                                                 |
\*---------------------------------------------------------------------------*/
FoamFile
{
    version     2.0;
    format      ascii;
    class       volVectorField;
    location    "4.25";
    object      ddt0(Ub);
}
// * * * * * * * * * * * * * * * * * * * * * * * * * * * * * * * * * * * * * //

dimensions      [0 1 -2 0 0 0 0];

internalField   nonuniform List<vector> 
360
(
(0.000156295 -5.39335e-08 0)
(0.000155958 -2.53975e-07 0)
(0.00015581 -5.42715e-07 0)
(0.000155904 -8.12026e-07 0)
(0.000156017 -1.05592e-06 0)
(0.00015611 -1.29063e-06 0)
(0.000156199 -1.52888e-06 0)
(0.000156286 -1.774e-06 0)
(0.000156371 -2.02331e-06 0)
(0.000156457 -2.27375e-06 0)
(0.000156544 -2.52508e-06 0)
(0.000156634 -2.7792e-06 0)
(0.000156725 -3.03849e-06 0)
(0.000156817 -3.30386e-06 0)
(0.000156909 -3.57377e-06 0)
(0.000157002 -3.84391e-06 0)
(0.000157094 -4.10706e-06 0)
(0.000157183 -4.35324e-06 0)
(0.000157266 -4.57067e-06 0)
(0.000157341 -4.74846e-06 0)
(0.000157407 -4.88028e-06 0)
(0.000157463 -4.9694e-06 0)
(0.000157512 -5.03278e-06 0)
(0.000157562 -5.10319e-06 0)
(0.000157622 -5.22914e-06 0)
(0.000157704 -5.47365e-06 0)
(0.000157825 -5.91317e-06 0)
(0.000158004 -6.63559e-06 0)
(0.000158261 -7.72472e-06 0)
(0.000158604 -9.2012e-06 0)
(0.000159005 -1.08744e-05 0)
(0.000159344 -1.21375e-05 0)
(0.000159392 -1.20194e-05 0)
(0.000158974 -9.89785e-06 0)
(0.00015823 -6.41317e-06 0)
(0.00015756 -3.14201e-06 0)
(0.000157191 -1.12345e-06 0)
(0.000157056 -2.55152e-07 0)
(0.000157024 2.32867e-08 0)
(0.000157021 9.70259e-08 0)
(0.000157027 1.15301e-07 0)
(0.000157036 1.19787e-07 0)
(0.000157045 1.2054e-07 0)
(0.000157057 1.19976e-07 0)
(0.000157069 1.18689e-07 0)
(0.000157082 1.1686e-07 0)
(0.000157097 1.14604e-07 0)
(0.000157111 1.12075e-07 0)
(0.000157128 1.09457e-07 0)
(0.000157147 1.06895e-07 0)
(0.000157165 1.04494e-07 0)
(0.000157185 1.02282e-07 0)
(0.000157207 1.00219e-07 0)
(0.00015723 9.82493e-08 0)
(0.000157254 9.63064e-08 0)
(0.000157281 9.4338e-08 0)
(0.000157308 9.2297e-08 0)
(0.000157337 9.01619e-08 0)
(0.000157368 8.79064e-08 0)
(0.0001574 8.55332e-08 0)
(0.000157435 8.30435e-08 0)
(0.00015747 8.04451e-08 0)
(0.000157507 7.77607e-08 0)
(0.000157544 7.50048e-08 0)
(0.000157583 7.2197e-08 0)
(0.000157622 6.93517e-08 0)
(0.000157663 6.64792e-08 0)
(0.000157705 6.35787e-08 0)
(0.000157748 6.06466e-08 0)
(0.000157793 5.76664e-08 0)
(0.00015784 5.46157e-08 0)
(0.000157889 5.14756e-08 0)
(0.000157939 4.8237e-08 0)
(0.000157991 4.4893e-08 0)
(0.000158045 4.14276e-08 0)
(0.0001581 3.78477e-08 0)
(0.000158155 3.41607e-08 0)
(0.000158212 3.03655e-08 0)
(0.00015827 2.64757e-08 0)
(0.00015833 2.24985e-08 0)
(0.000158391 1.84395e-08 0)
(0.000158454 1.43032e-08 0)
(0.000158518 1.00809e-08 0)
(0.000158585 5.76399e-09 0)
(0.000158653 1.34907e-09 0)
(0.000158722 -3.16256e-09 0)
(0.000158794 -7.77343e-09 0)
(0.000158867 -1.24865e-08 0)
(0.000158941 -1.72944e-08 0)
(0.000159017 -2.21877e-08 0)
(0.000159094 -2.71572e-08 0)
(0.000159174 -3.21934e-08 0)
(0.000159255 -3.72928e-08 0)
(0.000159338 -4.24516e-08 0)
(0.000159423 -4.7664e-08 0)
(0.000159511 -5.29298e-08 0)
(0.0001596 -5.82491e-08 0)
(0.000159691 -6.36166e-08 0)
(0.000159785 -6.90262e-08 0)
(0.00015988 -7.44745e-08 0)
(0.000159978 -7.99546e-08 0)
(0.000160079 -8.54664e-08 0)
(0.000160182 -9.10054e-08 0)
(0.000160287 -9.65664e-08 0)
(0.000160395 -1.02142e-07 0)
(0.000160506 -1.07724e-07 0)
(0.000160619 -1.13311e-07 0)
(0.000160736 -1.18887e-07 0)
(0.000160855 -1.2445e-07 0)
(0.000160978 -1.29999e-07 0)
(0.000161104 -1.35525e-07 0)
(0.000161234 -1.41029e-07 0)
(0.000161367 -1.46507e-07 0)
(0.000161504 -1.51945e-07 0)
(0.000161645 -1.57347e-07 0)
(0.00016179 -1.62717e-07 0)
(0.000161939 -1.68055e-07 0)
(0.000162094 -1.73359e-07 0)
(0.000162252 -1.78632e-07 0)
(0.000162416 -1.8388e-07 0)
(0.000162585 -1.89108e-07 0)
(0.00016276 -1.94315e-07 0)
(0.00016294 -1.99499e-07 0)
(0.000163127 -2.0466e-07 0)
(0.00016332 -2.0978e-07 0)
(0.00016352 -2.14832e-07 0)
(0.000163726 -2.1979e-07 0)
(0.000163941 -2.24622e-07 0)
(0.000164164 -2.29279e-07 0)
(0.000164396 -2.33715e-07 0)
(0.000164638 -2.3789e-07 0)
(0.00016489 -2.41767e-07 0)
(0.000165152 -2.45322e-07 0)
(0.000165429 -2.48549e-07 0)
(0.000165723 -2.51462e-07 0)
(0.000166035 -2.54059e-07 0)
(0.000166362 -2.56304e-07 0)
(0.000166708 -2.5813e-07 0)
(0.000167092 -2.5942e-07 0)
(0.000167533 -2.60072e-07 0)
(0.000168011 -2.60125e-07 0)
(0.000168465 -2.5962e-07 0)
(0.000169005 -2.5879e-07 0)
(0.000169708 -2.59334e-07 0)
(0.000170573 -2.75455e-07 0)
(0.000171746 -2.52854e-05 0)
(-0.000121139 0.00039447 0)
(-0.176039 -0.000749034 0)
(-0.121406 -0.0022601 0)
(-0.031693 0.00291815 0)
(0.00686073 0.0012045 0)
(0.0278826 0.000787607 0)
(0.0404517 0.000535855 0)
(0.0482046 0.000371421 0)
(0.0529721 0.000254603 0)
(0.0558154 0.000167215 0)
(0.0573846 9.95739e-05 0)
(0.0580796 4.71261e-05 0)
(0.0581342 7.29761e-06 0)
(0.0576648 -2.22139e-05 0)
(0.056703 -4.29335e-05 0)
(0.0552165 -5.64306e-05 0)
(0.0531225 -6.40814e-05 0)
(0.050297 -6.71623e-05 0)
(0.0465811 -6.68922e-05 0)
(0.0417863 -6.43762e-05 0)
(0.0357012 -6.06747e-05 0)
(0.028102 -5.67606e-05 0)
(0.0187693 -5.30907e-05 0)
(0.00751761 -4.90484e-05 0)
(-0.00575618 -4.33514e-05 0)
(-0.0210095 -3.55754e-05 0)
(-0.0380018 -2.69471e-05 0)
(-0.0562816 -1.92618e-05 0)
(-0.0752263 -1.34747e-05 0)
(-0.0941276 -9.51604e-06 0)
(-0.112304 -6.88371e-06 0)
(-0.129209 -5.1104e-06 0)
(-0.144495 -3.88524e-06 0)
(-0.158025 -3.01798e-06 0)
(-0.169832 -2.39075e-06 0)
(-0.18006 -1.92854e-06 0)
(-0.188911 -1.58272e-06 0)
(-0.196598 -1.3212e-06 0)
(-0.203323 -1.12205e-06 0)
(-0.209264 -9.68888e-07 0)
(-0.214569 -8.46833e-07 0)
(-0.219359 -7.40991e-07 0)
(-0.223732 -6.38994e-07 0)
(-0.227763 -5.37136e-07 0)
(-0.231514 -4.42535e-07 0)
(-0.235031 -3.6534e-07 0)
(-0.238351 -3.07939e-07 0)
(-0.241505 -2.63859e-07 0)
(-0.244515 -2.26238e-07 0)
(-0.2474 -1.93414e-07 0)
(-0.250174 -1.66141e-07 0)
(-0.252849 -1.43679e-07 0)
(-0.255436 -1.24341e-07 0)
(-0.257942 -1.07518e-07 0)
(-0.260373 -9.35636e-08 0)
(-0.26276 -8.211e-08 0)
(-0.265128 -7.18408e-08 0)
(-0.267479 -6.20925e-08 0)
(-0.269815 -5.37403e-08 0)
(-0.272137 -4.72899e-08 0)
(-0.274446 -4.15546e-08 0)
(-0.276742 -3.57708e-08 0)
(-0.279027 -3.08037e-08 0)
(-0.2813 -2.6989e-08 0)
(-0.283562 -2.3502e-08 0)
(-0.285812 -2.0191e-08 0)
(-0.28805 -1.74417e-08 0)
(-0.290276 -1.50813e-08 0)
(-0.29249 -1.29581e-08 0)
(-0.294688 -1.11982e-08 0)
(-0.296871 -9.64092e-09 0)
(-0.299037 -8.17075e-09 0)
(-0.301183 -6.97264e-09 0)
(-0.303306 -6.00841e-09 0)
(-0.305402 -5.10019e-09 0)
(-0.307468 -4.30644e-09 0)
(-0.309498 -3.67416e-09 0)
(-0.311486 -3.14273e-09 0)
(-0.313423 -2.69667e-09 0)
(-0.315301 -2.31383e-09 0)
(-0.317108 -1.99388e-09 0)
(-0.318829 -1.74329e-09 0)
(-0.320446 -1.52624e-09 0)
(-0.321938 -1.33676e-09 0)
(-0.323276 -1.19067e-09 0)
(-0.324423 -1.09892e-09 0)
(-0.325332 -1.06497e-09 0)
(-0.325937 -9.28632e-10 0)
(-0.326145 -1.20537e-09 0)
(-0.325816 -4.12258e-10 0)
(-0.324724 -1.4684e-09 0)
(-0.322513 6.2751e-10 0)
(-0.31877 -2.43366e-09 0)
(-0.306238 1.36538e-09 0)
(-0.292951 -3.04836e-09 0)
(-0.291485 1.84887e-09 0)
(-0.291458 -3.48385e-09 0)
(-0.291458 2.24168e-09 0)
(-0.291457 -3.84535e-09 0)
(-0.291457 2.5721e-09 0)
(-0.291457 -4.13105e-09 0)
(-0.291457 2.84003e-09 0)
(-0.291457 -4.36883e-09 0)
(-0.291457 3.0896e-09 0)
(-0.291457 -4.59633e-09 0)
(-0.291457 3.35017e-09 0)
(-0.291457 -4.83501e-09 0)
(-0.291457 3.63895e-09 0)
(-0.291457 -5.08834e-09 0)
(-0.291457 3.95653e-09 0)
(-0.291457 -5.3594e-09 0)
(-0.291457 4.29955e-09 0)
(-0.291457 -5.64645e-09 0)
(-0.291457 4.67201e-09 0)
(-0.291457 -5.94869e-09 0)
(-0.291457 5.06494e-09 0)
(-0.291457 -6.27342e-09 0)
(-0.291457 5.47165e-09 0)
(-0.291457 -6.62348e-09 0)
(-0.291457 5.88392e-09 0)
(-0.291457 -7.00872e-09 0)
(-0.291457 6.30603e-09 0)
(-0.291457 -7.4201e-09 0)
(-0.291457 6.74597e-09 0)
(-0.291457 -7.85786e-09 0)
(-0.291457 7.20341e-09 0)
(-0.291457 -8.31478e-09 0)
(-0.291457 7.67734e-09 0)
(-0.291457 -8.79443e-09 0)
(-0.291457 8.17928e-09 0)
(-0.291457 -9.28486e-09 0)
(-0.291457 8.70723e-09 0)
(-0.291457 -9.78856e-09 0)
(-0.291457 9.26456e-09 0)
(-0.291457 -1.03036e-08 0)
(-0.291457 9.82966e-09 0)
(-0.291457 -1.08496e-08 0)
(-0.291457 1.04256e-08 0)
(-0.291457 -1.14046e-08 0)
(-0.291457 1.10508e-08 0)
(-0.291457 -1.19718e-08 0)
(-0.291457 1.17101e-08 0)
(-0.291457 -1.25485e-08 0)
(-0.291457 1.23838e-08 0)
(-0.291457 -1.3151e-08 0)
(-0.291457 1.30868e-08 0)
(-0.291457 -1.37618e-08 0)
(-0.291457 1.38134e-08 0)
(-0.291457 -1.43893e-08 0)
(-0.291457 1.45605e-08 0)
(-0.291457 -1.50338e-08 0)
(-0.291457 1.52924e-08 0)
(-0.291457 -1.57373e-08 0)
(-0.291457 1.60403e-08 0)
(-0.291457 -1.64663e-08 0)
(-0.291457 1.68072e-08 0)
(-0.291457 -1.72147e-08 0)
(-0.291457 1.75976e-08 0)
(-0.291457 -1.79748e-08 0)
(-0.291457 1.83963e-08 0)
(-0.291457 -1.87496e-08 0)
(-0.291457 1.92067e-08 0)
(-0.291457 -1.95242e-08 0)
(-0.291457 2.00228e-08 0)
(-0.291457 -1.78002e-08 0)
(-0.291457 1.79382e-08 0)
(-0.291457 -1.77452e-08 0)
(-0.291457 1.79309e-08 0)
(-0.291457 -1.76787e-08 0)
(-0.291457 1.79139e-08 0)
(-0.291457 -1.75986e-08 0)
(-0.291457 1.78878e-08 0)
(-0.291457 -1.75073e-08 0)
(-0.291457 1.78524e-08 0)
(-0.291457 -1.73956e-08 0)
(-0.291457 1.78141e-08 0)
(-0.291457 -1.72592e-08 0)
(-0.291457 1.77634e-08 0)
(-0.291457 -1.71002e-08 0)
(-0.291457 1.77134e-08 0)
(-0.291457 -1.68856e-08 0)
(-0.291457 1.77379e-08 0)
(-0.291457 -1.64357e-08 0)
(-0.291457 1.80697e-08 0)
(-0.291457 -1.5686e-08 0)
(-0.291457 1.85259e-08 0)
(-0.291457 -1.48971e-08 0)
(-0.291457 1.89313e-08 0)
(-0.291457 -1.41673e-08 0)
(-0.291457 1.91895e-08 0)
(-0.291457 -1.35053e-08 0)
(-0.291457 1.94214e-08 0)
(-0.291457 -1.28181e-08 0)
(-0.291457 1.95546e-08 0)
(-0.291457 -1.22211e-08 0)
(-0.291457 1.95794e-08 0)
(-0.291457 -1.15715e-08 0)
(-0.291457 1.97078e-08 0)
(-0.291457 -1.07764e-08 0)
(-0.291457 1.97831e-08 0)
(-0.291457 -9.71476e-09 0)
(-0.291457 2.05503e-08 0)
(-0.291457 -7.70272e-09 0)
(-0.291457 2.20321e-08 0)
(-0.291457 -4.70373e-09 0)
(-0.291457 2.39778e-08 0)
(-0.291457 -2.50394e-10 0)
(-0.291457 2.95973e-08 0)
(-0.291457 8.50538e-09 0)
(-0.291457 3.36166e-08 0)
(-0.291457 1.45603e-08 0)
(-0.291457 3.84563e-08 0)
(-0.291457 5.03726e-11 0)
(-0.291457 1.24337e-08 0)
)
;

boundaryField
{
    inandouthalf11
    {
        type            cyclic;
    }
    inandouthalf12
    {
        type            cyclic;
    }
    inandouthalf21
    {
        type            cyclic;
    }
    inandouthalf22
    {
        type            cyclic;
    }
    inandouthalf31
    {
        type            cyclic;
    }
    inandouthalf32
    {
        type            cyclic;
    }
    inandouthalf41
    {
        type            cyclic;
    }
    inandouthalf42
    {
        type            cyclic;
    }
    top
    {
        type            symmetryPlane;
    }
    walls
    {
        type            calculated;
        value           uniform (0 0 0);
    }
    frontAndBackPlanes
    {
        type            empty;
    }
}


// ************************************************************************* //
