/*--------------------------------*- C++ -*----------------------------------*\
| =========                 |                                                 |
| \\      /  F ield         | OpenFOAM: The Open Source CFD Toolbox           |
|  \\    /   O peration     | Version:  2.4.x                                 |
|   \\  /    A nd           | Web:      www.OpenFOAM.org                      |
|    \\/     M anipulation  |                                                 |
\*---------------------------------------------------------------------------*/
FoamFile
{
    version     2.0;
    format      ascii;
    class       surfaceScalarField;
    location    "4.25";
    object      ddt0(phia);
}
// * * * * * * * * * * * * * * * * * * * * * * * * * * * * * * * * * * * * * //

dimensions      [0 3 -2 0 0 0 0];

internalField   nonuniform List<scalar> 
359
(
3.09543e-13
1.02109e-12
1.74911e-12
2.39455e-12
2.99435e-12
3.5936e-12
4.21177e-12
4.84631e-12
5.48621e-12
6.12685e-12
6.77161e-12
7.42708e-12
8.09863e-12
8.78564e-12
9.48081e-12
1.01695e-11
1.08295e-11
1.1432e-11
1.19456e-11
1.23458e-11
1.26249e-11
1.28069e-11
1.29545e-11
1.31726e-11
1.36048e-11
1.44305e-11
1.58626e-11
1.81391e-11
2.14522e-11
2.57143e-11
3.00344e-11
3.2199e-11
2.94333e-11
2.13331e-11
1.16009e-11
4.57091e-12
1.22868e-12
9.65961e-14
-2.09233e-13
-2.84941e-13
-3.03949e-13
-3.08276e-13
-3.07947e-13
-3.05449e-13
-3.01425e-13
-2.96144e-13
-2.89936e-13
-2.83263e-13
-2.7659e-13
-2.70251e-13
-2.64401e-13
-2.59005e-13
-2.5393e-13
-2.49004e-13
-2.44073e-13
-2.39004e-13
-2.33715e-13
-2.28145e-13
-2.2227e-13
-2.16091e-13
-2.09616e-13
-2.02888e-13
-1.95948e-13
-1.88851e-13
-1.81643e-13
-1.74356e-13
-1.67e-13
-1.59567e-13
-1.5203e-13
-1.4435e-13
-1.36475e-13
-1.28356e-13
-1.19965e-13
-1.11271e-13
-1.02268e-13
-9.29595e-14
-8.33722e-14
-7.35308e-14
-6.3458e-14
-5.31688e-14
-4.26701e-14
-3.19548e-14
-2.10084e-14
-9.81518e-15
1.63944e-15
1.33619e-14
2.53509e-14
3.75939e-14
5.00725e-14
6.27654e-14
7.56515e-14
8.87127e-14
1.01936e-13
1.15313e-13
1.28836e-13
1.42501e-13
1.56302e-13
1.7023e-13
1.84277e-13
1.98431e-13
2.1268e-13
2.27012e-13
2.41411e-13
2.55864e-13
2.70355e-13
2.8487e-13
2.99392e-13
3.13906e-13
3.28396e-13
3.42849e-13
3.57251e-13
3.71592e-13
3.85864e-13
4.00062e-13
4.14184e-13
4.28233e-13
4.42215e-13
4.56138e-13
4.70012e-13
4.8385e-13
4.9766e-13
5.11442e-13
5.25188e-13
5.38871e-13
5.52446e-13
5.65845e-13
5.78981e-13
5.91748e-13
6.04032e-13
6.15713e-13
6.26683e-13
6.36863e-13
6.4622e-13
6.54769e-13
6.62539e-13
6.69495e-13
6.75498e-13
6.80318e-13
6.83681e-13
6.85355e-13
6.85365e-13
6.84365e-13
6.83312e-13
6.8256e-13
6.8162e-13
6.79516e-13
-2.78105e-10
1.67514e-08
-1.4115e-08
-2.08337e-08
-1.87751e-08
-1.65176e-08
-1.53773e-08
-1.50049e-08
-1.50441e-08
-1.52555e-08
-1.54636e-08
-1.56147e-08
-1.56052e-08
-1.54156e-08
-1.50294e-08
-1.44481e-08
-1.36915e-08
-1.27312e-08
-1.14921e-08
-9.79374e-09
-7.25361e-09
-3.07216e-09
3.89876e-09
1.41362e-08
2.61166e-08
3.6916e-08
4.44814e-08
4.85938e-08
5.00448e-08
4.9752e-08
4.84331e-08
4.65741e-08
4.44804e-08
4.2338e-08
4.0261e-08
3.8324e-08
3.65827e-08
3.50864e-08
3.38834e-08
3.30195e-08
3.25255e-08
3.23903e-08
3.25289e-08
3.27861e-08
3.3021e-08
3.32049e-08
3.33975e-08
3.36337e-08
3.38838e-08
3.4121e-08
3.43601e-08
3.46149e-08
3.4875e-08
3.51246e-08
3.53624e-08
3.56195e-08
3.59099e-08
3.61913e-08
3.64375e-08
3.671e-08
3.70448e-08
3.73551e-08
3.76164e-08
3.79307e-08
3.82712e-08
3.85548e-08
3.88438e-08
3.91481e-08
3.93824e-08
3.95888e-08
3.97985e-08
3.98953e-08
3.98802e-08
3.9861e-08
3.98725e-08
3.9842e-08
3.98809e-08
3.99733e-08
4.00764e-08
4.02975e-08
4.05396e-08
4.08155e-08
4.12683e-08
4.17566e-08
4.22875e-08
4.2811e-08
4.32131e-08
4.35771e-08
4.39371e-08
4.46023e-08
7.33948e-08
3.42395e-08
-3.59326e-09
-1.99596e-09
-1.55426e-10
-7.28795e-11
-8.15443e-11
-8.53284e-11
-8.511e-11
-8.51511e-11
-8.51084e-11
-8.51411e-11
-8.50997e-11
-8.51348e-11
-8.50935e-11
-8.51308e-11
-8.50892e-11
-8.51284e-11
-8.5086e-11
-8.51272e-11
-8.50837e-11
-8.51267e-11
-8.50819e-11
-8.51266e-11
-8.50804e-11
-8.51269e-11
-8.50791e-11
-8.51273e-11
-8.5078e-11
-8.51279e-11
-8.50772e-11
-8.51282e-11
-8.50767e-11
-8.51286e-11
-8.50764e-11
-8.51284e-11
-8.50761e-11
-8.51291e-11
-8.50754e-11
-8.51296e-11
-8.50748e-11
-8.51301e-11
-8.50742e-11
-8.51305e-11
-8.50737e-11
-8.51308e-11
-8.50734e-11
-8.5131e-11
-8.50731e-11
-8.5131e-11
-8.5073e-11
-8.51309e-11
-8.5073e-11
-8.51307e-11
-8.50731e-11
-8.51303e-11
-8.50734e-11
-8.51297e-11
-8.50738e-11
-8.51291e-11
-8.50743e-11
-8.51284e-11
-8.50749e-11
-8.51277e-11
-8.50757e-11
-8.51267e-11
-8.50766e-11
-8.51257e-11
-8.50777e-11
-8.51245e-11
-8.50789e-11
-8.51233e-11
-8.508e-11
-8.51218e-11
-8.50814e-11
-8.51206e-11
-8.50826e-11
-8.51194e-11
-8.50837e-11
-8.51182e-11
-8.50847e-11
-8.51171e-11
-8.50858e-11
-8.5116e-11
-8.50867e-11
-8.51149e-11
-8.50877e-11
-8.51138e-11
-8.50886e-11
-8.51127e-11
-8.50894e-11
-8.51114e-11
-8.50897e-11
-8.51096e-11
-8.50897e-11
-8.51078e-11
-8.50896e-11
-8.5106e-11
-8.50897e-11
-8.51045e-11
-8.50899e-11
-8.51029e-11
-8.50901e-11
-8.51015e-11
-8.50905e-11
-8.51002e-11
-8.50908e-11
-8.50986e-11
-8.5091e-11
-8.50971e-11
-8.50905e-11
-8.50942e-11
-8.50888e-11
-8.50901e-11
-8.50854e-11
-8.50859e-11
-8.50791e-11
-8.50728e-11
-8.50678e-11
-8.50836e-11
-8.67782e-11
-2.19787e-10
1.94384e-09
)
;

boundaryField
{
    inandouthalf11
    {
        type            cyclic;
        value           nonuniform List<scalar> 
100
(
-1.40802e-39
-4.07168e-14
-1.0065e-13
-1.54979e-13
-2.04187e-13
-2.52139e-13
-3.0079e-13
-3.50462e-13
-4.00579e-13
-4.50556e-13
-5.00328e-13
-5.50245e-13
-6.00713e-13
-6.51888e-13
-7.03512e-13
-7.54863e-13
-8.04723e-13
-8.51383e-13
-8.92799e-13
-9.27006e-13
-9.5279e-13
-9.70554e-13
-9.83078e-13
-9.95898e-13
-1.01727e-12
-1.05789e-12
-1.13069e-12
-1.25062e-12
-1.43275e-12
-1.68356e-12
-1.97645e-12
-2.20834e-12
-2.18632e-12
-1.76357e-12
-1.07425e-12
-4.69736e-13
-1.40947e-13
-1.95985e-14
1.47928e-14
2.35103e-14
2.57444e-14
2.6311e-14
2.63717e-14
2.62156e-14
2.59115e-14
2.54741e-14
2.49178e-14
2.42744e-14
2.3588e-14
2.29003e-14
2.22384e-14
2.16108e-14
2.10106e-14
2.04229e-14
1.98309e-14
1.92193e-14
1.85756e-14
1.78909e-14
1.71594e-14
1.63782e-14
1.55471e-14
1.46682e-14
1.37457e-14
1.27856e-14
1.17941e-14
1.07763e-14
9.73486e-15
8.66983e-15
7.57858e-15
6.45621e-15
5.29572e-15
4.08942e-15
2.83079e-15
1.51472e-15
1.37758e-16
-1.301e-15
-2.79986e-15
-4.35547e-15
-5.96444e-15
-7.62423e-15
-9.33357e-15
-1.1093e-14
-1.29047e-14
-1.4772e-14
-1.66982e-14
-1.86857e-14
-2.07358e-14
-2.28482e-14
-2.50211e-14
-2.72516e-14
-2.95367e-14
-3.18736e-14
-3.42602e-14
-3.66951e-14
-3.91776e-14
-4.17073e-14
-4.42839e-14
-4.69069e-14
-4.95755e-14
-5.22885e-14
)
;
    }
    inandouthalf12
    {
        type            cyclic;
        value           nonuniform List<scalar> 
100
(
1.40802e-39
4.07168e-14
1.0065e-13
1.54979e-13
2.04187e-13
2.52139e-13
3.0079e-13
3.50462e-13
4.00579e-13
4.50556e-13
5.00328e-13
5.50245e-13
6.00713e-13
6.51888e-13
7.03512e-13
7.54863e-13
8.04723e-13
8.51383e-13
8.92799e-13
9.27006e-13
9.5279e-13
9.70554e-13
9.83078e-13
9.95898e-13
1.01727e-12
1.05789e-12
1.13069e-12
1.25062e-12
1.43275e-12
1.68356e-12
1.97645e-12
2.20834e-12
2.18632e-12
1.76357e-12
1.07425e-12
4.69736e-13
1.40947e-13
1.95985e-14
-1.47928e-14
-2.35103e-14
-2.57444e-14
-2.6311e-14
-2.63717e-14
-2.62156e-14
-2.59115e-14
-2.54741e-14
-2.49178e-14
-2.42744e-14
-2.3588e-14
-2.29003e-14
-2.22384e-14
-2.16108e-14
-2.10106e-14
-2.04229e-14
-1.98309e-14
-1.92193e-14
-1.85756e-14
-1.78909e-14
-1.71594e-14
-1.63782e-14
-1.55471e-14
-1.46682e-14
-1.37457e-14
-1.27856e-14
-1.17941e-14
-1.07763e-14
-9.73486e-15
-8.66983e-15
-7.57858e-15
-6.45621e-15
-5.29572e-15
-4.08942e-15
-2.83079e-15
-1.51472e-15
-1.37758e-16
1.301e-15
2.79986e-15
4.35547e-15
5.96444e-15
7.62423e-15
9.33357e-15
1.1093e-14
1.29047e-14
1.4772e-14
1.66982e-14
1.86857e-14
2.07358e-14
2.28482e-14
2.50211e-14
2.72516e-14
2.95367e-14
3.18736e-14
3.42602e-14
3.66951e-14
3.91776e-14
4.17073e-14
4.42839e-14
4.69069e-14
4.95755e-14
5.22885e-14
)
;
    }
    inandouthalf21
    {
        type            cyclic;
        value           nonuniform List<scalar> 
100
(
-5.50446e-14
-5.78421e-14
-6.06794e-14
-6.35545e-14
-6.64657e-14
-6.94107e-14
-7.23875e-14
-7.5394e-14
-7.84282e-14
-8.14882e-14
-8.45725e-14
-8.76801e-14
-9.08103e-14
-9.39637e-14
-9.71413e-14
-1.00346e-13
-1.0358e-13
-1.06849e-13
-1.10159e-13
-1.13517e-13
-1.1693e-13
-1.20406e-13
-1.23951e-13
-1.27568e-13
-1.31257e-13
-1.35012e-13
-1.38824e-13
-1.42673e-13
-1.46539e-13
-1.50392e-13
-1.54202e-13
-1.57943e-13
-1.61597e-13
-1.65164e-13
-1.68656e-13
-1.72076e-13
-1.75399e-13
-1.78544e-13
-1.81365e-13
-1.83592e-13
-1.8492e-13
-1.85229e-13
-1.84993e-13
-1.84772e-13
-1.84959e-13
-1.85458e-13
-1.8748e-13
1.80975e-07
1.32228e-07
4.33523e-08
1.49057e-09
-2.12724e-08
-3.45919e-08
-4.25078e-08
-4.70307e-08
-4.92861e-08
-4.99185e-08
-4.92754e-08
-4.75053e-08
-4.4621e-08
-4.05517e-08
-3.51831e-08
-2.83959e-08
-2.0101e-08
-1.02696e-08
1.04231e-09
1.36727e-08
2.7335e-08
4.15986e-08
5.58837e-08
6.95356e-08
8.20124e-08
9.30689e-08
1.02762e-07
1.11304e-07
1.18921e-07
1.25793e-07
1.32047e-07
1.37773e-07
1.43033e-07
1.47876e-07
1.52337e-07
1.56445e-07
1.60223e-07
1.63689e-07
1.6686e-07
1.69752e-07
1.72381e-07
1.74771e-07
1.7695e-07
1.7895e-07
1.808e-07
1.82516e-07
1.84116e-07
1.85613e-07
1.8702e-07
1.88345e-07
1.89598e-07
1.90785e-07
1.91912e-07
)
;
    }
    inandouthalf22
    {
        type            cyclic;
        value           nonuniform List<scalar> 
100
(
5.50446e-14
5.78421e-14
6.06794e-14
6.35545e-14
6.64657e-14
6.94107e-14
7.23875e-14
7.5394e-14
7.84282e-14
8.14882e-14
8.45725e-14
8.76801e-14
9.08103e-14
9.39637e-14
9.71413e-14
1.00346e-13
1.0358e-13
1.06849e-13
1.10159e-13
1.13517e-13
1.1693e-13
1.20406e-13
1.23951e-13
1.27568e-13
1.31257e-13
1.35012e-13
1.38824e-13
1.42673e-13
1.46539e-13
1.50392e-13
1.54202e-13
1.57943e-13
1.61597e-13
1.65164e-13
1.68656e-13
1.72076e-13
1.75399e-13
1.78544e-13
1.81365e-13
1.83592e-13
1.8492e-13
1.85229e-13
1.84993e-13
1.84772e-13
1.84959e-13
1.85458e-13
1.8748e-13
-1.80975e-07
-1.32228e-07
-4.33523e-08
-1.49057e-09
2.12724e-08
3.45919e-08
4.25078e-08
4.70307e-08
4.92861e-08
4.99185e-08
4.92754e-08
4.75053e-08
4.4621e-08
4.05517e-08
3.51831e-08
2.83959e-08
2.0101e-08
1.02696e-08
-1.04231e-09
-1.36727e-08
-2.7335e-08
-4.15986e-08
-5.58837e-08
-6.95356e-08
-8.20124e-08
-9.30689e-08
-1.02762e-07
-1.11304e-07
-1.18921e-07
-1.25793e-07
-1.32047e-07
-1.37773e-07
-1.43033e-07
-1.47876e-07
-1.52337e-07
-1.56445e-07
-1.60223e-07
-1.63689e-07
-1.6686e-07
-1.69752e-07
-1.72381e-07
-1.74771e-07
-1.7695e-07
-1.7895e-07
-1.808e-07
-1.82516e-07
-1.84116e-07
-1.85613e-07
-1.8702e-07
-1.88345e-07
-1.89598e-07
-1.90785e-07
-1.91912e-07
)
;
    }
    inandouthalf31
    {
        type            cyclic;
        value           nonuniform List<scalar> 
110
(
1.92981e-07
1.97943e-07
2.02999e-07
2.08155e-07
2.13408e-07
2.18758e-07
2.24221e-07
2.29806e-07
2.35504e-07
2.41315e-07
2.47263e-07
2.53348e-07
2.59561e-07
2.65921e-07
2.72436e-07
2.79095e-07
2.85926e-07
2.92954e-07
3.00154e-07
3.07548e-07
3.15201e-07
3.23096e-07
3.31225e-07
3.39632e-07
3.48307e-07
3.57276e-07
3.66575e-07
3.7615e-07
3.86077e-07
3.96422e-07
4.07104e-07
4.18092e-07
4.29201e-07
4.40186e-07
4.50988e-07
4.61618e-07
4.72952e-07
6.79774e-07
6.85312e-07
6.65973e-07
6.59702e-07
6.71145e-07
6.84735e-07
6.98635e-07
7.12815e-07
7.27283e-07
7.42045e-07
7.57106e-07
7.72474e-07
7.88153e-07
8.0415e-07
8.20472e-07
8.37125e-07
8.54117e-07
8.71453e-07
8.89141e-07
9.07188e-07
9.25602e-07
9.44389e-07
9.63558e-07
9.83115e-07
1.00307e-06
1.02343e-06
1.0442e-06
1.0654e-06
1.08702e-06
1.10909e-06
1.1316e-06
1.15457e-06
1.178e-06
1.20191e-06
1.22631e-06
1.2512e-06
1.27659e-06
1.3025e-06
1.32894e-06
1.35591e-06
1.38344e-06
1.41152e-06
1.44017e-06
1.4694e-06
1.49922e-06
1.52965e-06
1.5607e-06
1.59238e-06
1.6247e-06
1.65768e-06
1.69132e-06
1.72565e-06
1.76068e-06
1.79642e-06
1.83288e-06
1.87008e-06
1.90804e-06
1.94677e-06
1.98628e-06
2.0266e-06
2.06773e-06
2.1097e-06
2.15252e-06
2.19621e-06
2.24079e-06
2.28627e-06
2.33268e-06
2.38002e-06
2.42833e-06
2.47762e-06
2.52791e-06
2.57922e-06
2.63157e-06
)
;
    }
    inandouthalf32
    {
        type            cyclic;
        value           nonuniform List<scalar> 
110
(
-1.92981e-07
-1.97943e-07
-2.02999e-07
-2.08155e-07
-2.13408e-07
-2.18758e-07
-2.24221e-07
-2.29806e-07
-2.35504e-07
-2.41315e-07
-2.47263e-07
-2.53348e-07
-2.59561e-07
-2.65921e-07
-2.72436e-07
-2.79095e-07
-2.85926e-07
-2.92954e-07
-3.00154e-07
-3.07548e-07
-3.15201e-07
-3.23096e-07
-3.31225e-07
-3.39632e-07
-3.48307e-07
-3.57276e-07
-3.66575e-07
-3.7615e-07
-3.86077e-07
-3.96422e-07
-4.07104e-07
-4.18092e-07
-4.29201e-07
-4.40186e-07
-4.50988e-07
-4.61618e-07
-4.72952e-07
-6.79774e-07
-6.85312e-07
-6.65973e-07
-6.59702e-07
-6.71145e-07
-6.84735e-07
-6.98635e-07
-7.12815e-07
-7.27283e-07
-7.42045e-07
-7.57106e-07
-7.72474e-07
-7.88153e-07
-8.0415e-07
-8.20472e-07
-8.37125e-07
-8.54117e-07
-8.71453e-07
-8.89141e-07
-9.07188e-07
-9.25602e-07
-9.44389e-07
-9.63558e-07
-9.83115e-07
-1.00307e-06
-1.02343e-06
-1.0442e-06
-1.0654e-06
-1.08702e-06
-1.10909e-06
-1.1316e-06
-1.15457e-06
-1.178e-06
-1.20191e-06
-1.22631e-06
-1.2512e-06
-1.27659e-06
-1.3025e-06
-1.32894e-06
-1.35591e-06
-1.38344e-06
-1.41152e-06
-1.44017e-06
-1.4694e-06
-1.49922e-06
-1.52965e-06
-1.5607e-06
-1.59238e-06
-1.6247e-06
-1.65768e-06
-1.69132e-06
-1.72565e-06
-1.76068e-06
-1.79642e-06
-1.83288e-06
-1.87008e-06
-1.90804e-06
-1.94677e-06
-1.98628e-06
-2.0266e-06
-2.06773e-06
-2.1097e-06
-2.15252e-06
-2.19621e-06
-2.24079e-06
-2.28627e-06
-2.33268e-06
-2.38002e-06
-2.42833e-06
-2.47762e-06
-2.52791e-06
-2.57922e-06
-2.63157e-06
)
;
    }
    inandouthalf41
    {
        type            cyclic;
        value           nonuniform List<scalar> 
50
(
2.35553e-06
2.35553e-06
2.35553e-06
2.35553e-06
2.35553e-06
2.35553e-06
2.35553e-06
2.35553e-06
2.35553e-06
2.35553e-06
2.35553e-06
2.35553e-06
2.35553e-06
2.35553e-06
2.35553e-06
2.35553e-06
2.35553e-06
2.35553e-06
2.35553e-06
2.35553e-06
2.35553e-06
2.35553e-06
2.35553e-06
2.35553e-06
2.35553e-06
2.35553e-06
2.35553e-06
2.35553e-06
2.35553e-06
2.35553e-06
2.35553e-06
2.35553e-06
2.35553e-06
2.35553e-06
2.35553e-06
2.35553e-06
2.35553e-06
2.35553e-06
2.35553e-06
2.35553e-06
2.35553e-06
2.35553e-06
2.35553e-06
2.35553e-06
2.35553e-06
2.35553e-06
2.35553e-06
2.35553e-06
2.35571e-06
2.35959e-06
)
;
    }
    inandouthalf42
    {
        type            cyclic;
        value           nonuniform List<scalar> 
50
(
-2.35553e-06
-2.35553e-06
-2.35553e-06
-2.35553e-06
-2.35553e-06
-2.35553e-06
-2.35553e-06
-2.35553e-06
-2.35553e-06
-2.35553e-06
-2.35553e-06
-2.35553e-06
-2.35553e-06
-2.35553e-06
-2.35553e-06
-2.35553e-06
-2.35553e-06
-2.35553e-06
-2.35553e-06
-2.35553e-06
-2.35553e-06
-2.35553e-06
-2.35553e-06
-2.35553e-06
-2.35553e-06
-2.35553e-06
-2.35553e-06
-2.35553e-06
-2.35553e-06
-2.35553e-06
-2.35553e-06
-2.35553e-06
-2.35553e-06
-2.35553e-06
-2.35553e-06
-2.35553e-06
-2.35553e-06
-2.35553e-06
-2.35553e-06
-2.35553e-06
-2.35553e-06
-2.35553e-06
-2.35553e-06
-2.35553e-06
-2.35553e-06
-2.35553e-06
-2.35553e-06
-2.35553e-06
-2.35571e-06
-2.35959e-06
)
;
    }
    top
    {
        type            symmetryPlane;
        value           uniform 0;
    }
    walls
    {
        type            calculated;
        value           uniform 0;
    }
    frontAndBackPlanes
    {
        type            empty;
        value           nonuniform 0();
    }
}


// ************************************************************************* //
