/*--------------------------------*- C++ -*----------------------------------*\
| =========                 |                                                 |
| \\      /  F ield         | OpenFOAM: The Open Source CFD Toolbox           |
|  \\    /   O peration     | Version:  2.4.x                                 |
|   \\  /    A nd           | Web:      www.OpenFOAM.org                      |
|    \\/     M anipulation  |                                                 |
\*---------------------------------------------------------------------------*/
FoamFile
{
    version     2.0;
    format      ascii;
    class       volVectorField;
    location    "4.25";
    object      gradPs;
}
// * * * * * * * * * * * * * * * * * * * * * * * * * * * * * * * * * * * * * //

dimensions      [0 1 -2 0 0 0 0];

internalField   nonuniform List<vector> 
360
(
(0 1.95712e-18 0)
(0 2.03855e-18 0)
(0 -2.05092e-19 0)
(0 -3.81387e-19 0)
(-1.45193e-32 -9.53948e-20 0)
(-1.452e-32 -2.1956e-21 0)
(-1.45207e-32 -1.62715e-20 0)
(0 -4.53107e-20 0)
(-1.45219e-32 -6.38364e-20 0)
(0 -6.69032e-20 0)
(-2.90464e-32 -5.69225e-20 0)
(0 -4.46727e-20 0)
(-1.45246e-32 -3.63795e-20 0)
(0 -3.21671e-20 0)
(0 -3.10967e-20 0)
(0 -3.27931e-20 0)
(0 -3.95604e-20 0)
(-1.45281e-32 -5.41642e-20 0)
(0 -7.89422e-20 0)
(0 -1.1076e-19 0)
(0 -1.43427e-19 0)
(-1.4531e-32 -1.67395e-19 0)
(0 -1.70762e-19 0)
(0 -1.43946e-19 0)
(0 -7.57471e-20 0)
(-1.45339e-32 4.90556e-20 0)
(0 2.55367e-19 0)
(0 5.85323e-19 0)
(0 1.07868e-18 0)
(0 1.65845e-18 0)
(0 1.84429e-18 0)
(0 7.14549e-19 0)
(0 -1.79989e-18 0)
(0 -3.61834e-18 0)
(0 -3.04124e-18 0)
(1.45436e-32 -1.36408e-18 0)
(0 -3.5188e-19 0)
(0 -7.07962e-20 0)
(0 -2.6283e-20 0)
(0 -2.28907e-20 0)
(0 -2.54456e-20 0)
(0 -2.51562e-20 0)
(2.90898e-32 -2.82908e-20 0)
(0 -3.13137e-20 0)
(0 -3.2685e-20 0)
(0 -3.56826e-20 0)
(0 -3.68893e-20 0)
(0 -3.96464e-20 0)
(0 -4.54582e-20 0)
(0 -4.78438e-20 0)
(2.9094e-32 -5.02728e-20 0)
(0 -5.42395e-20 0)
(0 -5.79232e-20 0)
(0 -6.13343e-20 0)
(0 -6.59936e-20 0)
(0 -7.02387e-20 0)
(0 -7.40854e-20 0)
(0 -7.89919e-20 0)
(0 -8.16911e-20 0)
(0 -8.6664e-20 0)
(0 -9.05609e-20 0)
(0 -9.32967e-20 0)
(0 -9.63878e-20 0)
(0 -9.82951e-20 0)
(0 -1.00651e-19 0)
(0 -1.03543e-19 0)
(0 -1.07276e-19 0)
(0 -1.10806e-19 0)
(0 -1.14139e-19 0)
(0 -1.19082e-19 0)
(0 -1.24776e-19 0)
(0 -1.27788e-19 0)
(0 -1.31541e-19 0)
(0 -1.35848e-19 0)
(0 -1.39231e-19 0)
(0 -1.4205e-19 0)
(0 -1.44326e-19 0)
(0 -1.47676e-19 0)
(0 -1.51221e-19 0)
(0 -1.54603e-19 0)
(0 -1.58434e-19 0)
(0 -1.62878e-19 0)
(0 -1.67128e-19 0)
(0 -1.71345e-19 0)
(0 -1.75448e-19 0)
(0 -1.79432e-19 0)
(0 -1.8323e-19 0)
(0 -1.86839e-19 0)
(0 -1.90661e-19 0)
(0 -1.94642e-19 0)
(0 -1.9874e-19 0)
(0 -2.03135e-19 0)
(0 -2.07783e-19 0)
(0 -2.12532e-19 0)
(0 -2.17396e-19 0)
(0 -2.22351e-19 0)
(0 -2.27374e-19 0)
(0 -2.32483e-19 0)
(0 -2.39482e-19 0)
(0 -1.75055e-16 0)
(0 -1.74954e-16 0)
(0 0 0)
(0 0 0)
(0 0 0)
(0 0 0)
(0 0 0)
(0 0 0)
(0 0 0)
(0 0 0)
(0 0 0)
(0 0 0)
(0 0 0)
(0 0 0)
(0 0 0)
(0 1.72925e-16 0)
(0 1.72771e-16 0)
(0 -3.73977e-19 0)
(0 -3.84902e-19 0)
(0 -3.96317e-19 0)
(0 -4.08251e-19 0)
(0 -4.20729e-19 0)
(0 -4.3377e-19 0)
(0 -4.47397e-19 0)
(0 -4.6165e-19 0)
(0 -4.76629e-19 0)
(0 -4.9253e-19 0)
(0 -5.09638e-19 0)
(0 -5.28215e-19 0)
(0 -5.48285e-19 0)
(0 -5.69493e-19 0)
(0 -5.9152e-19 0)
(0 -6.15357e-19 0)
(0 -6.96653e-19 0)
(0 4.05847e-16 0)
(0 4.38011e-15 0)
(0 4.12723e-14 0)
(0 4.11124e-13 0)
(0 4.48121e-12 0)
(0 5.46536e-11 0)
(0 7.5979e-10 0)
(0 1.2218e-08 0)
(0 2.30255e-07 0)
(0 5.22993e-06 0)
(0 0.000224086 0)
(0 0.0195193 0)
(0 0.591093 0)
(0 4.25736 0)
(0 3.62776 0)
(0 -1.61161 0)
(0 -2.61893 0)
(0 -3.69676 0)
(0 -3.91324 0)
(0 -3.91335 0)
(0 -3.84271 0)
(0 -3.74588 0)
(0 -3.64203 0)
(0 -3.53903 0)
(0 -3.43922 0)
(0 -3.34279 0)
(0 -3.24865 0)
(0 -3.1552 0)
(0 -3.06139 0)
(0 -2.96643 0)
(0 -2.86997 0)
(0 -2.77221 0)
(0 -2.67428 0)
(0 -2.57963 0)
(0 -2.49571 0)
(0 -2.43156 0)
(0 -2.3856 0)
(0 -2.33229 0)
(0 -2.23071 0)
(0 -2.059 0)
(0 -1.83651 0)
(0 -1.60462 0)
(0 -1.39473 0)
(0 -1.21858 0)
(0 -1.07556 0)
(0 -0.961006 0)
(0 -0.870139 0)
(0 -0.799223 0)
(0 -0.745745 0)
(0 -0.708345 0)
(0 -0.68664 0)
(0 -0.681055 0)
(0 -0.691973 0)
(0 -0.716852 0)
(0 -0.744719 0)
(0 -0.752476 0)
(0 -0.715769 0)
(0 -0.637719 0)
(0 -0.557834 0)
(0 -0.508634 0)
(0 -0.478874 0)
(0 -0.441618 0)
(0 -0.396666 0)
(0 -0.359864 0)
(0 -0.331225 0)
(0 -0.300724 0)
(0 -0.266608 0)
(0 -0.236855 0)
(0 -0.21852 0)
(-3.78897e-17 -0.202277 0)
(0 -0.174147 0)
(0 -0.145588 0)
(4.03243e-17 -0.135379 0)
(0 -0.129183 0)
(-4.16302e-17 -0.106382 0)
(0 -0.0857668 0)
(2.1027e-17 -0.0820102 0)
(0 -0.0735286 0)
(0 -0.057951 0)
(0 -0.051149 0)
(1.05284e-17 -0.0458707 0)
(0 -0.0360896 0)
(0 -0.0313975 0)
(0 -0.0292041 0)
(0 -0.0223052 0)
(0 -0.0174191 0)
(-4.97851e-18 -0.0168962 0)
(0 -0.0138326 0)
(-2.42298e-18 -0.010284 0)
(0 -0.00907904 0)
(-2.3499e-18 -0.00724124 0)
(0 -0.00578283 0)
(0 -0.00497078 0)
(0 -0.00357953 0)
(0 -0.00290916 0)
(0 -0.00252937 0)
(0 -0.00175244 0)
(0 -0.00128163 0)
(0 -0.000870848 0)
(0 -0.000531431 0)
(0 -0.000476913 0)
(0 -0.000507705 0)
(0 -0.000496509 0)
(0 -0.000234867 0)
(0 0 0)
(0 0 0)
(0 0 0)
(0 0 0)
(0 0 0)
(0 0 0)
(0 0 0)
(0 0 0)
(0 0 0)
(0 0 0)
(0 0 0)
(0 0 0)
(0 0 0)
(0 0 0)
(0 0 0)
(0 0 0)
(0 0 0)
(0 0 0)
(0 0 0)
(0 0 0)
(0 0 0)
(0 0 0)
(0 0 0)
(0 0 0)
(0 0 0)
(0 0 0)
(0 0 0)
(0 0 0)
(0 0 0)
(0 0 0)
(0 0 0)
(0 0 0)
(0 0 0)
(0 0 0)
(0 0 0)
(0 0 0)
(0 0 0)
(0 0 0)
(0 0 0)
(0 0 0)
(0 0 0)
(0 0 0)
(0 0 0)
(0 0 0)
(0 0 0)
(0 0 0)
(0 0 0)
(0 0 0)
(0 0 0)
(0 0 0)
(0 0 0)
(0 0 0)
(0 0 0)
(0 0 0)
(0 0 0)
(0 0 0)
(0 0 0)
(0 0 0)
(0 0 0)
(0 0 0)
(0 0 0)
(0 0 0)
(0 0 0)
(0 0 0)
(0 0 0)
(0 0 0)
(0 0 0)
(0 0 0)
(0 0 0)
(0 0 0)
(0 0 0)
(0 0 0)
(0 0 0)
(0 0 0)
(0 0 0)
(0 0 0)
(0 0 0)
(0 0 0)
(0 0 0)
(0 0 0)
(0 0 0)
(0 0 0)
(0 0 0)
(0 0 0)
(0 0 0)
(0 0 0)
(0 0 0)
(0 0 0)
(0 0 0)
(0 0 0)
(0 0 0)
(0 0 0)
(0 0 0)
(0 0 0)
(0 0 0)
(0 0 0)
(0 0 0)
(0 0 0)
(0 0 0)
(0 0 0)
(0 0 0)
(0 0 0)
(0 0 0)
(0 0 0)
(0 0 0)
(0 0 0)
(0 0 0)
(0 0 0)
(0 0 0)
(0 0 0)
(0 0 0)
(0 0 0)
(0 0 0)
(0 0 0)
(0 0 0)
(0 0 0)
(0 0 0)
(0 0 0)
(0 0 0)
(0 0 0)
(0 0 0)
(0 0 0)
(0 0 0)
)
;

boundaryField
{
    inandouthalf11
    {
        type            cyclic;
    }
    inandouthalf12
    {
        type            cyclic;
    }
    inandouthalf21
    {
        type            cyclic;
    }
    inandouthalf22
    {
        type            cyclic;
    }
    inandouthalf31
    {
        type            cyclic;
    }
    inandouthalf32
    {
        type            cyclic;
    }
    inandouthalf41
    {
        type            cyclic;
    }
    inandouthalf42
    {
        type            cyclic;
    }
    top
    {
        type            symmetryPlane;
    }
    walls
    {
        type            calculated;
        value           uniform (0 0 0);
    }
    frontAndBackPlanes
    {
        type            empty;
    }
}


// ************************************************************************* //
