/*--------------------------------*- C++ -*----------------------------------*\
| =========                 |                                                 |
| \\      /  F ield         | OpenFOAM: The Open Source CFD Toolbox           |
|  \\    /   O peration     | Version:  2.4.x                                 |
|   \\  /    A nd           | Web:      www.OpenFOAM.org                      |
|    \\/     M anipulation  |                                                 |
\*---------------------------------------------------------------------------*/
FoamFile
{
    version     2.0;
    format      ascii;
    class       volScalarField;
    location    "4.25";
    object      nutb;
}
// * * * * * * * * * * * * * * * * * * * * * * * * * * * * * * * * * * * * * //

dimensions      [0 2 -1 0 0 0 0];

internalField   nonuniform List<scalar> 
360
(
9e-22
9e-22
9e-22
9e-22
9e-22
9e-22
9e-22
9e-22
9e-22
9e-22
9e-22
9e-22
9e-22
9e-22
9e-22
9e-22
9e-22
9e-22
9e-22
9e-22
9e-22
9e-22
9e-22
9e-22
9e-22
9e-22
9e-22
9e-22
9e-22
9e-22
9e-22
9e-22
9e-22
9e-22
9e-22
9e-22
9e-22
9e-22
9e-22
9e-22
9e-22
9e-22
9e-22
9e-22
9e-22
9e-22
9e-22
9e-22
9e-22
9e-22
9e-22
9e-22
9e-22
9e-22
9e-22
9e-22
9e-22
9e-22
9e-22
9e-22
9e-22
9e-22
9e-22
9e-22
9e-22
9e-22
9e-22
9e-22
9e-22
9e-22
9e-22
9e-22
9e-22
9e-22
9e-22
9e-22
9e-22
9e-22
9e-22
9e-22
9e-22
9e-22
9e-22
9e-22
9e-22
9e-22
9e-22
9e-22
9e-22
9e-22
9e-22
9e-22
9e-22
9e-22
9e-22
9e-22
9e-22
9e-22
9e-22
9e-22
9e-22
9e-22
9e-22
9e-22
9e-22
9e-22
9e-22
9e-22
9e-22
9e-22
9e-22
9e-22
9e-22
9e-22
9e-22
9e-22
9e-22
9e-22
9e-22
9e-22
9e-22
9e-22
9e-22
9e-22
9e-22
9e-22
9e-22
9e-22
9e-22
9e-22
9e-22
9e-22
9e-22
6.44824e-22
1.36129e-21
9.17427e-21
7.33707e-20
6.25777e-19
5.76968e-18
5.88659e-17
6.78186e-16
8.95672e-15
1.37536e-13
2.4866e-12
5.34874e-11
1.38387e-09
4.25724e-08
1.07746e-06
8.07536e-06
1.67243e-05
2.34727e-05
2.91056e-05
3.39983e-05
3.83382e-05
4.2237e-05
4.57556e-05
4.89228e-05
5.17461e-05
5.42217e-05
5.63424e-05
5.81038e-05
5.95071e-05
6.05619e-05
6.12872e-05
6.1712e-05
6.18762e-05
6.18312e-05
6.1641e-05
6.13835e-05
6.11504e-05
6.10456e-05
6.11813e-05
6.16712e-05
6.26225e-05
6.41251e-05
6.62396e-05
6.89856e-05
7.23365e-05
7.62212e-05
8.05349e-05
8.51532e-05
8.99472e-05
9.47966e-05
9.95973e-05
0.000104266
0.00010874
0.000112977
0.00011695
0.000120646
0.00012406
0.000127197
0.000130062
0.000132668
0.000135027
0.000137151
0.000139056
0.000140754
0.000142256
0.000143574
0.000144718
0.000145697
0.000146527
0.000147216
0.000147762
0.000148161
0.00014841
0.000148504
0.00014844
0.00014821
0.00014781
0.000147231
0.000146468
0.000145511
0.000144352
0.000142983
0.000141392
0.000139571
0.000137508
0.000135192
0.00013261
0.000129752
0.000126603
0.000123151
0.000119383
0.000115283
0.000110839
0.000106035
0.000100856
9.52874e-05
8.93145e-05
8.29222e-05
7.6096e-05
6.88219e-05
6.10867e-05
5.28789e-05
4.41888e-05
3.50079e-05
2.53267e-05
1.51604e-05
4.69749e-06
3.09701e-07
4.97753e-09
6.35777e-11
7.67565e-13
8.7921e-15
9.55872e-17
9.85227e-19
9.06146e-21
9.12546e-22
9e-22
9e-22
9e-22
9e-22
9e-22
9e-22
9e-22
9e-22
9e-22
9e-22
9e-22
9e-22
9e-22
9e-22
9e-22
9e-22
9e-22
9e-22
9e-22
9e-22
9e-22
9e-22
9e-22
9e-22
9e-22
9e-22
9e-22
9e-22
9e-22
9e-22
9e-22
9e-22
9e-22
9e-22
9e-22
9e-22
9e-22
9e-22
9e-22
9e-22
9e-22
9e-22
9e-22
9e-22
9e-22
9e-22
9e-22
9e-22
9e-22
9e-22
9e-22
9e-22
9e-22
9e-22
9e-22
9e-22
9e-22
9e-22
9e-22
9e-22
9e-22
9e-22
9e-22
9e-22
9e-22
9e-22
9e-22
9e-22
9e-22
9e-22
9e-22
9e-22
9e-22
9e-22
9e-22
9e-22
9e-22
9e-22
9e-22
9e-22
9e-22
9e-22
9e-22
9e-22
9e-22
9e-22
9e-22
9e-22
9e-22
9e-22
9e-22
9e-22
9e-22
9e-22
9e-22
9e-22
9e-22
9e-22
9e-22
9e-22
9e-22
9e-22
9e-22
9e-22
9e-22
9e-22
9e-22
9e-22
9e-22
9e-22
9e-22
)
;

boundaryField
{
    inandouthalf11
    {
        type            cyclic;
    }
    inandouthalf12
    {
        type            cyclic;
    }
    inandouthalf21
    {
        type            cyclic;
    }
    inandouthalf22
    {
        type            cyclic;
    }
    inandouthalf31
    {
        type            cyclic;
    }
    inandouthalf32
    {
        type            cyclic;
    }
    inandouthalf41
    {
        type            cyclic;
    }
    inandouthalf42
    {
        type            cyclic;
    }
    top
    {
        type            symmetryPlane;
    }
    walls
    {
        type            calculated;
        value           uniform 0;
    }
    frontAndBackPlanes
    {
        type            empty;
    }
}


// ************************************************************************* //
