/*--------------------------------*- C++ -*----------------------------------*\
| =========                 |                                                 |
| \\      /  F ield         | OpenFOAM: The Open Source CFD Toolbox           |
|  \\    /   O peration     | Version:  2.4.x                                 |
|   \\  /    A nd           | Web:      www.OpenFOAM.org                      |
|    \\/     M anipulation  |                                                 |
\*---------------------------------------------------------------------------*/
FoamFile
{
    version     2.0;
    format      ascii;
    class       volScalarField;
    location    "4.25";
    object      pa;
}
// * * * * * * * * * * * * * * * * * * * * * * * * * * * * * * * * * * * * * //

dimensions      [1 -1 -2 0 0 0 0];

internalField   nonuniform List<scalar> 
360
(
2.89482e-16
2.92647e-16
2.92782e-16
2.92315e-16
2.92165e-16
2.92161e-16
2.92161e-16
2.92134e-16
2.92088e-16
2.92031e-16
2.91979e-16
2.91939e-16
2.91907e-16
2.9188e-16
2.91855e-16
2.9183e-16
2.91802e-16
2.91766e-16
2.91714e-16
2.91638e-16
2.91535e-16
2.91406e-16
2.91264e-16
2.9113e-16
2.91031e-16
2.91007e-16
2.91111e-16
2.9142e-16
2.92057e-16
2.93165e-16
2.94739e-16
2.96147e-16
2.95895e-16
2.93237e-16
2.90045e-16
2.88321e-16
2.8784e-16
2.87752e-16
2.87726e-16
2.87709e-16
2.87689e-16
2.87668e-16
2.87648e-16
2.87623e-16
2.87597e-16
2.8757e-16
2.8754e-16
2.8751e-16
2.87476e-16
2.87437e-16
2.87398e-16
2.87355e-16
2.87311e-16
2.87262e-16
2.87212e-16
2.87155e-16
2.87098e-16
2.87035e-16
2.8697e-16
2.86903e-16
2.8683e-16
2.86757e-16
2.8668e-16
2.86601e-16
2.86521e-16
2.86439e-16
2.86354e-16
2.86266e-16
2.86175e-16
2.86081e-16
2.85982e-16
2.8588e-16
2.85776e-16
2.85667e-16
2.85557e-16
2.85443e-16
2.85327e-16
2.8521e-16
2.85089e-16
2.84966e-16
2.84839e-16
2.8471e-16
2.84577e-16
2.8444e-16
2.843e-16
2.84157e-16
2.84011e-16
2.83862e-16
2.83709e-16
2.83554e-16
2.83396e-16
2.83234e-16
2.83068e-16
2.82899e-16
2.82725e-16
2.82548e-16
2.82367e-16
2.82182e-16
2.81993e-16
2.81796e-16
0
0
0
0
0
0
0
0
0
0
0
0
0
0
0
2.77976e-16
2.77679e-16
2.77375e-16
2.77061e-16
2.76738e-16
2.76405e-16
2.76063e-16
2.75709e-16
2.75344e-16
2.74968e-16
2.7458e-16
2.74178e-16
2.73763e-16
2.73331e-16
2.72884e-16
2.72419e-16
2.71936e-16
2.71434e-16
2.70821e-16
9.20906e-16
7.27783e-15
6.69212e-14
6.6447e-13
7.22729e-12
8.7954e-11
1.22009e-09
1.95807e-08
3.68373e-07
8.35361e-06
0.000357159
0.0310554
0.938922
6.7578
6.04934
5.41096
4.42946
3.52644
2.76378
2.14129
1.64424
1.25354
0.950017
0.716318
0.537646
0.4018
0.299032
0.221646
0.163635
0.120344
0.0881859
0.0644072
0.0468962
0.0340327
0.0245788
0.0176222
0.0125377
0.00890339
0.00638533
0.00467964
0.00352652
0.0027334
0.00217256
0.00176367
0.00145669
0.00121989
0.00103261
0.000880964
0.000755356
0.00064894
0.000556724
0.000475025
0.000401304
0.000334392
0.000274864
0.000224675
0.000185204
0.000155207
0.000131409
0.000111239
9.41219e-05
8.01078e-05
6.85743e-05
5.87496e-05
5.03581e-05
4.33421e-05
3.75449e-05
3.25342e-05
2.79372e-05
2.39151e-05
2.07218e-05
1.79971e-05
1.52981e-05
1.29129e-05
1.11761e-05
9.60535e-06
8.02544e-06
6.80106e-06
5.81633e-06
4.84339e-06
4.0585e-06
3.45332e-06
2.83707e-06
2.30954e-06
1.95665e-06
1.61183e-06
1.27132e-06
1.04502e-06
8.4299e-07
6.61074e-07
5.32372e-07
4.08427e-07
3.11786e-07
2.46924e-07
1.77804e-07
1.28571e-07
9.42876e-08
6.62764e-08
5.12314e-08
3.94316e-08
2.66187e-08
1.27099e-08
0
0
0
0
0
0
0
0
0
0
0
0
0
0
0
0
0
0
0
0
0
0
0
0
0
0
0
0
0
0
0
0
0
0
0
0
0
0
0
0
0
0
0
0
0
0
0
0
0
0
0
0
0
0
0
0
0
0
0
0
0
0
0
0
0
0
0
0
0
0
0
0
0
0
0
0
0
0
0
0
0
0
0
0
0
0
0
0
0
0
0
0
0
0
0
0
0
0
0
0
0
0
0
0
0
0
0
0
0
0
0
0
0
0
0
0
0
0
0
0
0
0
0
0
)
;

boundaryField
{
    inandouthalf11
    {
        type            cyclic;
    }
    inandouthalf12
    {
        type            cyclic;
    }
    inandouthalf21
    {
        type            cyclic;
    }
    inandouthalf22
    {
        type            cyclic;
    }
    inandouthalf31
    {
        type            cyclic;
    }
    inandouthalf32
    {
        type            cyclic;
    }
    inandouthalf41
    {
        type            cyclic;
    }
    inandouthalf42
    {
        type            cyclic;
    }
    top
    {
        type            symmetryPlane;
    }
    walls
    {
        type            calculated;
        value           uniform 2.89482e-16;
    }
    frontAndBackPlanes
    {
        type            empty;
    }
}


// ************************************************************************* //
