/*--------------------------------*- C++ -*----------------------------------*\
| =========                 |                                                 |
| \\      /  F ield         | OpenFOAM: The Open Source CFD Toolbox           |
|  \\    /   O peration     | Version:  2.4.x                                 |
|   \\  /    A nd           | Web:      www.OpenFOAM.org                      |
|    \\/     M anipulation  |                                                 |
\*---------------------------------------------------------------------------*/
FoamFile
{
    version     2.0;
    format      ascii;
    class       surfaceScalarField;
    location    "4.25";
    object      phia_0;
}
// * * * * * * * * * * * * * * * * * * * * * * * * * * * * * * * * * * * * * //

dimensions      [0 3 -1 0 0 0 0];

internalField   nonuniform List<scalar> 
359
(
-6.16864e-13
-1.75531e-12
-2.83532e-12
-3.82295e-12
-4.79853e-12
-5.7991e-12
-6.82629e-12
-7.87055e-12
-8.92276e-12
-9.98124e-12
-1.1049e-11
-1.21297e-11
-1.32264e-11
-1.434e-11
-1.5471e-11
-1.66194e-11
-1.77848e-11
-1.89649e-11
-2.01552e-11
-2.13496e-11
-2.25396e-11
-2.37184e-11
-2.48818e-11
-2.60312e-11
-2.71768e-11
-2.83398e-11
-2.95556e-11
-3.08766e-11
-3.2371e-11
-3.41146e-11
-3.61544e-11
-3.84332e-11
-4.0701e-11
-4.25752e-11
-4.37829e-11
-4.43716e-11
-4.45899e-11
-4.46555e-11
-4.46736e-11
-4.4679e-11
-4.4681e-11
-4.4682e-11
-4.46827e-11
-4.46834e-11
-4.46841e-11
-4.46848e-11
-4.46858e-11
-4.46869e-11
-4.46881e-11
-4.46894e-11
-4.46909e-11
-4.46923e-11
-4.46938e-11
-4.46952e-11
-4.46966e-11
-4.46981e-11
-4.46995e-11
-4.4701e-11
-4.47025e-11
-4.47041e-11
-4.47057e-11
-4.47073e-11
-4.4709e-11
-4.47107e-11
-4.47125e-11
-4.47143e-11
-4.47161e-11
-4.47179e-11
-4.47198e-11
-4.47217e-11
-4.47237e-11
-4.47257e-11
-4.47278e-11
-4.473e-11
-4.47322e-11
-4.47346e-11
-4.4737e-11
-4.47394e-11
-4.47419e-11
-4.47445e-11
-4.47471e-11
-4.47498e-11
-4.47525e-11
-4.47553e-11
-4.47581e-11
-4.4761e-11
-4.4764e-11
-4.47671e-11
-4.47702e-11
-4.47733e-11
-4.47765e-11
-4.47797e-11
-4.4783e-11
-4.47863e-11
-4.47897e-11
-4.4793e-11
-4.47965e-11
-4.47999e-11
-4.48034e-11
-4.48069e-11
-4.48104e-11
-4.4814e-11
-4.48175e-11
-4.48211e-11
-4.48247e-11
-4.48283e-11
-4.48319e-11
-4.48355e-11
-4.48391e-11
-4.48426e-11
-4.48462e-11
-4.48497e-11
-4.48533e-11
-4.48568e-11
-4.48603e-11
-4.48637e-11
-4.48672e-11
-4.48706e-11
-4.4874e-11
-4.48775e-11
-4.48809e-11
-4.48843e-11
-4.48877e-11
-4.4891e-11
-4.48944e-11
-4.48977e-11
-4.4901e-11
-4.49041e-11
-4.49072e-11
-4.49101e-11
-4.49129e-11
-4.49155e-11
-4.49178e-11
-4.492e-11
-4.49219e-11
-4.49237e-11
-4.49252e-11
-4.49266e-11
-4.49277e-11
-4.49287e-11
-4.49294e-11
-4.49298e-11
-4.49299e-11
-4.493e-11
-4.49299e-11
-4.49298e-11
4.6166e-11
1.64092e-09
3.76958e-09
5.01521e-09
5.93979e-09
6.80944e-09
7.69403e-09
8.62361e-09
9.61035e-09
1.0658e-08
1.1764e-08
1.2923e-08
1.41265e-08
1.53645e-08
1.66257e-08
1.78973e-08
1.9165e-08
2.04122e-08
2.16191e-08
2.27606e-08
2.38015e-08
2.46819e-08
2.5298e-08
2.551e-08
2.52171e-08
2.44458e-08
2.33444e-08
2.20963e-08
2.08487e-08
1.96956e-08
1.86877e-08
1.78463e-08
1.71751e-08
1.66674e-08
1.6311e-08
1.60896e-08
1.59843e-08
1.59737e-08
1.60335e-08
1.61365e-08
1.62531e-08
1.63543e-08
1.6417e-08
1.64335e-08
1.64137e-08
1.63745e-08
1.6324e-08
1.62603e-08
1.61822e-08
1.6094e-08
1.59989e-08
1.58961e-08
1.57852e-08
1.56676e-08
1.55464e-08
1.54198e-08
1.5283e-08
1.51339e-08
1.49799e-08
1.4824e-08
1.46548e-08
1.44672e-08
1.42776e-08
1.40831e-08
1.38671e-08
1.364e-08
1.34089e-08
1.31583e-08
1.28941e-08
1.26288e-08
1.23447e-08
1.20385e-08
1.1737e-08
1.143e-08
1.1094e-08
1.07554e-08
1.04047e-08
1.00244e-08
9.638e-09
9.21394e-09
8.74971e-09
8.28094e-09
7.74132e-09
7.14183e-09
6.50492e-09
5.82381e-09
5.20851e-09
4.71612e-09
4.36123e-09
4.08863e-09
-6.77525e-08
-1.55034e-07
-1.58604e-07
-1.58242e-07
-1.58181e-07
-1.58182e-07
-1.58183e-07
-1.58183e-07
-1.58183e-07
-1.58183e-07
-1.58183e-07
-1.58183e-07
-1.58183e-07
-1.58183e-07
-1.58183e-07
-1.58183e-07
-1.58183e-07
-1.58183e-07
-1.58183e-07
-1.58183e-07
-1.58183e-07
-1.58183e-07
-1.58183e-07
-1.58183e-07
-1.58183e-07
-1.58183e-07
-1.58183e-07
-1.58183e-07
-1.58183e-07
-1.58183e-07
-1.58183e-07
-1.58183e-07
-1.58183e-07
-1.58183e-07
-1.58183e-07
-1.58183e-07
-1.58183e-07
-1.58183e-07
-1.58183e-07
-1.58183e-07
-1.58183e-07
-1.58183e-07
-1.58183e-07
-1.58183e-07
-1.58183e-07
-1.58183e-07
-1.58183e-07
-1.58183e-07
-1.58183e-07
-1.58183e-07
-1.58183e-07
-1.58183e-07
-1.58183e-07
-1.58183e-07
-1.58183e-07
-1.58183e-07
-1.58183e-07
-1.58183e-07
-1.58183e-07
-1.58183e-07
-1.58183e-07
-1.58183e-07
-1.58183e-07
-1.58183e-07
-1.58183e-07
-1.58183e-07
-1.58183e-07
-1.58183e-07
-1.58183e-07
-1.58183e-07
-1.58183e-07
-1.58183e-07
-1.58183e-07
-1.58183e-07
-1.58183e-07
-1.58183e-07
-1.58183e-07
-1.58183e-07
-1.58183e-07
-1.58183e-07
-1.58183e-07
-1.58183e-07
-1.58183e-07
-1.58183e-07
-1.58183e-07
-1.58183e-07
-1.58183e-07
-1.58183e-07
-1.58183e-07
-1.58183e-07
-1.58183e-07
-1.58183e-07
-1.58183e-07
-1.58183e-07
-1.58183e-07
-1.58183e-07
-1.58183e-07
-1.58183e-07
-1.58183e-07
-1.58183e-07
-1.58183e-07
-1.58183e-07
-1.58183e-07
-1.58183e-07
-1.58183e-07
-1.58183e-07
-1.58183e-07
-1.58183e-07
-1.58183e-07
-1.58183e-07
-1.58183e-07
-1.58183e-07
-1.58183e-07
-1.58183e-07
-1.58183e-07
-1.58183e-07
-1.58183e-07
-1.58183e-07
-1.58183e-07
-1.58183e-07
-1.58165e-07
-1.5746e-07
-1.32386e-07
)
;

boundaryField
{
    inandouthalf11
    {
        type            cyclic;
        value           nonuniform List<scalar> 
100
(
1.07981e-38
5.44982e-14
1.24017e-13
1.86238e-13
2.45771e-13
3.06601e-13
3.69421e-13
4.3381e-13
4.99205e-13
5.65281e-13
6.32076e-13
6.99823e-13
7.68746e-13
8.3898e-13
9.10577e-13
9.83563e-13
1.05794e-12
1.13362e-12
1.21041e-12
1.28797e-12
1.36582e-12
1.44347e-12
1.52052e-12
1.59687e-12
1.67291e-12
1.74964e-12
1.82895e-12
1.91374e-12
2.00804e-12
2.11681e-12
2.24473e-12
2.39238e-12
2.54975e-12
2.69309e-12
2.79643e-12
2.85235e-12
2.87487e-12
2.88199e-12
2.88399e-12
2.88458e-12
2.88479e-12
2.88488e-12
2.88495e-12
2.885e-12
2.88505e-12
2.88512e-12
2.88519e-12
2.88529e-12
2.8854e-12
2.88552e-12
2.88566e-12
2.88581e-12
2.88596e-12
2.88611e-12
2.88626e-12
2.88642e-12
2.88658e-12
2.88675e-12
2.88692e-12
2.8871e-12
2.88728e-12
2.88748e-12
2.88768e-12
2.88789e-12
2.88811e-12
2.88833e-12
2.88856e-12
2.8888e-12
2.88904e-12
2.88929e-12
2.88955e-12
2.88983e-12
2.89011e-12
2.89041e-12
2.89072e-12
2.89104e-12
2.89138e-12
2.89173e-12
2.89209e-12
2.89246e-12
2.89285e-12
2.89324e-12
2.89365e-12
2.89407e-12
2.8945e-12
2.89494e-12
2.8954e-12
2.89587e-12
2.89636e-12
2.89686e-12
2.89737e-12
2.8979e-12
2.89843e-12
2.89898e-12
2.89953e-12
2.9001e-12
2.90068e-12
2.90127e-12
2.90187e-12
2.90248e-12
)
;
    }
    inandouthalf12
    {
        type            cyclic;
        value           nonuniform List<scalar> 
100
(
-1.07981e-38
-5.44982e-14
-1.24017e-13
-1.86238e-13
-2.45771e-13
-3.06601e-13
-3.69421e-13
-4.3381e-13
-4.99205e-13
-5.65281e-13
-6.32076e-13
-6.99823e-13
-7.68746e-13
-8.3898e-13
-9.10577e-13
-9.83563e-13
-1.05794e-12
-1.13362e-12
-1.21041e-12
-1.28797e-12
-1.36582e-12
-1.44347e-12
-1.52052e-12
-1.59687e-12
-1.67291e-12
-1.74964e-12
-1.82895e-12
-1.91374e-12
-2.00804e-12
-2.11681e-12
-2.24473e-12
-2.39238e-12
-2.54975e-12
-2.69309e-12
-2.79643e-12
-2.85235e-12
-2.87487e-12
-2.88199e-12
-2.88399e-12
-2.88458e-12
-2.88479e-12
-2.88488e-12
-2.88495e-12
-2.885e-12
-2.88505e-12
-2.88512e-12
-2.88519e-12
-2.88529e-12
-2.8854e-12
-2.88552e-12
-2.88566e-12
-2.88581e-12
-2.88596e-12
-2.88611e-12
-2.88626e-12
-2.88642e-12
-2.88658e-12
-2.88675e-12
-2.88692e-12
-2.8871e-12
-2.88728e-12
-2.88748e-12
-2.88768e-12
-2.88789e-12
-2.88811e-12
-2.88833e-12
-2.88856e-12
-2.8888e-12
-2.88904e-12
-2.88929e-12
-2.88955e-12
-2.88983e-12
-2.89011e-12
-2.89041e-12
-2.89072e-12
-2.89104e-12
-2.89138e-12
-2.89173e-12
-2.89209e-12
-2.89246e-12
-2.89285e-12
-2.89324e-12
-2.89365e-12
-2.89407e-12
-2.8945e-12
-2.89494e-12
-2.8954e-12
-2.89587e-12
-2.89636e-12
-2.89686e-12
-2.89737e-12
-2.8979e-12
-2.89843e-12
-2.89898e-12
-2.89953e-12
-2.9001e-12
-2.90068e-12
-2.90127e-12
-2.90187e-12
-2.90248e-12
)
;
    }
    inandouthalf21
    {
        type            cyclic;
        value           nonuniform List<scalar> 
100
(
2.9031e-12
2.90373e-12
2.90437e-12
2.90502e-12
2.90567e-12
2.90634e-12
2.90701e-12
2.90769e-12
2.90837e-12
2.90906e-12
2.90976e-12
2.91046e-12
2.91117e-12
2.91188e-12
2.9126e-12
2.91332e-12
2.91406e-12
2.91479e-12
2.91554e-12
2.9163e-12
2.91707e-12
2.91785e-12
2.91864e-12
2.91946e-12
2.92028e-12
2.92112e-12
2.92198e-12
2.92284e-12
2.9237e-12
2.92456e-12
2.92541e-12
2.92624e-12
2.92704e-12
2.92782e-12
2.92856e-12
2.92927e-12
2.92996e-12
2.93061e-12
2.93125e-12
2.93184e-12
2.93237e-12
2.93276e-12
2.93301e-12
2.93314e-12
2.93321e-12
2.93325e-12
2.93333e-12
1.0403e-09
8.78315e-08
1.98134e-07
2.86811e-07
3.59961e-07
4.21613e-07
4.74441e-07
5.20272e-07
5.60426e-07
5.95893e-07
6.27434e-07
6.55638e-07
6.80961e-07
7.03758e-07
7.24297e-07
7.42788e-07
7.59392e-07
7.74237e-07
7.87431e-07
7.99071e-07
8.09251e-07
8.18072e-07
8.25648e-07
8.32109e-07
8.37599e-07
8.42265e-07
8.4624e-07
8.49637e-07
8.52544e-07
8.55033e-07
8.57162e-07
8.58979e-07
8.60523e-07
8.61828e-07
8.62923e-07
8.63835e-07
8.64585e-07
8.65195e-07
8.65683e-07
8.66067e-07
8.66365e-07
8.66591e-07
8.66759e-07
8.66882e-07
8.66967e-07
8.67022e-07
8.67052e-07
8.67061e-07
8.67052e-07
8.6703e-07
8.66997e-07
8.66954e-07
8.66903e-07
)
;
    }
    inandouthalf22
    {
        type            cyclic;
        value           nonuniform List<scalar> 
100
(
-2.9031e-12
-2.90373e-12
-2.90437e-12
-2.90502e-12
-2.90567e-12
-2.90634e-12
-2.90701e-12
-2.90769e-12
-2.90837e-12
-2.90906e-12
-2.90976e-12
-2.91046e-12
-2.91117e-12
-2.91188e-12
-2.9126e-12
-2.91332e-12
-2.91406e-12
-2.91479e-12
-2.91554e-12
-2.9163e-12
-2.91707e-12
-2.91785e-12
-2.91864e-12
-2.91946e-12
-2.92028e-12
-2.92112e-12
-2.92198e-12
-2.92284e-12
-2.9237e-12
-2.92456e-12
-2.92541e-12
-2.92624e-12
-2.92704e-12
-2.92782e-12
-2.92856e-12
-2.92927e-12
-2.92996e-12
-2.93061e-12
-2.93125e-12
-2.93184e-12
-2.93237e-12
-2.93276e-12
-2.93301e-12
-2.93314e-12
-2.93321e-12
-2.93325e-12
-2.93333e-12
-1.0403e-09
-8.78315e-08
-1.98134e-07
-2.86811e-07
-3.59961e-07
-4.21613e-07
-4.74441e-07
-5.20272e-07
-5.60426e-07
-5.95893e-07
-6.27434e-07
-6.55638e-07
-6.80961e-07
-7.03758e-07
-7.24297e-07
-7.42788e-07
-7.59392e-07
-7.74237e-07
-7.87431e-07
-7.99071e-07
-8.09251e-07
-8.18072e-07
-8.25648e-07
-8.32109e-07
-8.37599e-07
-8.42265e-07
-8.4624e-07
-8.49637e-07
-8.52544e-07
-8.55033e-07
-8.57162e-07
-8.58979e-07
-8.60523e-07
-8.61828e-07
-8.62923e-07
-8.63835e-07
-8.64585e-07
-8.65195e-07
-8.65683e-07
-8.66067e-07
-8.66365e-07
-8.66591e-07
-8.66759e-07
-8.66882e-07
-8.66967e-07
-8.67022e-07
-8.67052e-07
-8.67061e-07
-8.67052e-07
-8.6703e-07
-8.66997e-07
-8.66954e-07
-8.66903e-07
)
;
    }
    inandouthalf31
    {
        type            cyclic;
        value           nonuniform List<scalar> 
110
(
8.6685e-07
8.84383e-07
9.02264e-07
9.20502e-07
9.39103e-07
9.58075e-07
9.77426e-07
9.97161e-07
1.01729e-06
1.03782e-06
1.05876e-06
1.08011e-06
1.10189e-06
1.12409e-06
1.14674e-06
1.16984e-06
1.19339e-06
1.21741e-06
1.2419e-06
1.26687e-06
1.29233e-06
1.31828e-06
1.34473e-06
1.37169e-06
1.39917e-06
1.42717e-06
1.45569e-06
1.48476e-06
1.51437e-06
1.54452e-06
1.57522e-06
1.60649e-06
1.63839e-06
1.67098e-06
1.70433e-06
1.73845e-06
1.77309e-06
1.69849e-06
1.72898e-06
1.76079e-06
1.79578e-06
1.83218e-06
1.86935e-06
1.90729e-06
1.94599e-06
1.98548e-06
2.02578e-06
2.06689e-06
2.10884e-06
2.15164e-06
2.19531e-06
2.23987e-06
2.28533e-06
2.33172e-06
2.37904e-06
2.42733e-06
2.4766e-06
2.52686e-06
2.57815e-06
2.63048e-06
2.68387e-06
2.73835e-06
2.79393e-06
2.85064e-06
2.9085e-06
2.96753e-06
3.02777e-06
3.08922e-06
3.15192e-06
3.2159e-06
3.28117e-06
3.34777e-06
3.41572e-06
3.48505e-06
3.55579e-06
3.62797e-06
3.7016e-06
3.77674e-06
3.85339e-06
3.93161e-06
4.01141e-06
4.09283e-06
4.1759e-06
4.26066e-06
4.34714e-06
4.43538e-06
4.5254e-06
4.61726e-06
4.71098e-06
4.8066e-06
4.90416e-06
5.0037e-06
5.10526e-06
5.20888e-06
5.31461e-06
5.42248e-06
5.53254e-06
5.64484e-06
5.75942e-06
5.87632e-06
5.99559e-06
6.11728e-06
6.24145e-06
6.36813e-06
6.49739e-06
6.62927e-06
6.76383e-06
6.90111e-06
7.04119e-06
7.18411e-06
)
;
    }
    inandouthalf32
    {
        type            cyclic;
        value           nonuniform List<scalar> 
110
(
-8.6685e-07
-8.84383e-07
-9.02264e-07
-9.20502e-07
-9.39103e-07
-9.58075e-07
-9.77426e-07
-9.97161e-07
-1.01729e-06
-1.03782e-06
-1.05876e-06
-1.08011e-06
-1.10189e-06
-1.12409e-06
-1.14674e-06
-1.16984e-06
-1.19339e-06
-1.21741e-06
-1.2419e-06
-1.26687e-06
-1.29233e-06
-1.31828e-06
-1.34473e-06
-1.37169e-06
-1.39917e-06
-1.42717e-06
-1.45569e-06
-1.48476e-06
-1.51437e-06
-1.54452e-06
-1.57522e-06
-1.60649e-06
-1.63839e-06
-1.67098e-06
-1.70433e-06
-1.73845e-06
-1.77309e-06
-1.69849e-06
-1.72898e-06
-1.76079e-06
-1.79578e-06
-1.83218e-06
-1.86935e-06
-1.90729e-06
-1.94599e-06
-1.98548e-06
-2.02578e-06
-2.06689e-06
-2.10884e-06
-2.15164e-06
-2.19531e-06
-2.23987e-06
-2.28533e-06
-2.33172e-06
-2.37904e-06
-2.42733e-06
-2.4766e-06
-2.52686e-06
-2.57815e-06
-2.63048e-06
-2.68387e-06
-2.73835e-06
-2.79393e-06
-2.85064e-06
-2.9085e-06
-2.96753e-06
-3.02777e-06
-3.08922e-06
-3.15192e-06
-3.2159e-06
-3.28117e-06
-3.34777e-06
-3.41572e-06
-3.48505e-06
-3.55579e-06
-3.62797e-06
-3.7016e-06
-3.77674e-06
-3.85339e-06
-3.93161e-06
-4.01141e-06
-4.09283e-06
-4.1759e-06
-4.26066e-06
-4.34714e-06
-4.43538e-06
-4.5254e-06
-4.61726e-06
-4.71098e-06
-4.8066e-06
-4.90416e-06
-5.0037e-06
-5.10526e-06
-5.20888e-06
-5.31461e-06
-5.42248e-06
-5.53254e-06
-5.64484e-06
-5.75942e-06
-5.87632e-06
-5.99559e-06
-6.11728e-06
-6.24145e-06
-6.36813e-06
-6.49739e-06
-6.62927e-06
-6.76383e-06
-6.90111e-06
-7.04119e-06
-7.18411e-06
)
;
    }
    inandouthalf41
    {
        type            cyclic;
        value           nonuniform List<scalar> 
50
(
6.43051e-06
6.43051e-06
6.43051e-06
6.43051e-06
6.43051e-06
6.43051e-06
6.43051e-06
6.43051e-06
6.43051e-06
6.43051e-06
6.43051e-06
6.43051e-06
6.43051e-06
6.43051e-06
6.43051e-06
6.43051e-06
6.43051e-06
6.43051e-06
6.43051e-06
6.43051e-06
6.43051e-06
6.43051e-06
6.43051e-06
6.43051e-06
6.43051e-06
6.43051e-06
6.43051e-06
6.43051e-06
6.43051e-06
6.43051e-06
6.43051e-06
6.43051e-06
6.43051e-06
6.43051e-06
6.43051e-06
6.43051e-06
6.43051e-06
6.43051e-06
6.43051e-06
6.43051e-06
6.43051e-06
6.43051e-06
6.43051e-06
6.43051e-06
6.43051e-06
6.43051e-06
6.43051e-06
6.4305e-06
6.43043e-06
6.42886e-06
)
;
    }
    inandouthalf42
    {
        type            cyclic;
        value           nonuniform List<scalar> 
50
(
-6.43051e-06
-6.43051e-06
-6.43051e-06
-6.43051e-06
-6.43051e-06
-6.43051e-06
-6.43051e-06
-6.43051e-06
-6.43051e-06
-6.43051e-06
-6.43051e-06
-6.43051e-06
-6.43051e-06
-6.43051e-06
-6.43051e-06
-6.43051e-06
-6.43051e-06
-6.43051e-06
-6.43051e-06
-6.43051e-06
-6.43051e-06
-6.43051e-06
-6.43051e-06
-6.43051e-06
-6.43051e-06
-6.43051e-06
-6.43051e-06
-6.43051e-06
-6.43051e-06
-6.43051e-06
-6.43051e-06
-6.43051e-06
-6.43051e-06
-6.43051e-06
-6.43051e-06
-6.43051e-06
-6.43051e-06
-6.43051e-06
-6.43051e-06
-6.43051e-06
-6.43051e-06
-6.43051e-06
-6.43051e-06
-6.43051e-06
-6.43051e-06
-6.43051e-06
-6.43051e-06
-6.4305e-06
-6.43043e-06
-6.42886e-06
)
;
    }
    top
    {
        type            symmetryPlane;
        value           uniform 0;
    }
    walls
    {
        type            fixedValue;
        value           uniform 0;
    }
    frontAndBackPlanes
    {
        type            empty;
        value           nonuniform 0();
    }
}


// ************************************************************************* //
