/*--------------------------------*- C++ -*----------------------------------*\
| =========                 |                                                 |
| \\      /  F ield         | OpenFOAM: The Open Source CFD Toolbox           |
|  \\    /   O peration     | Version:  2.4.x                                 |
|   \\  /    A nd           | Web:      www.OpenFOAM.org                      |
|    \\/     M anipulation  |                                                 |
\*---------------------------------------------------------------------------*/
FoamFile
{
    version     2.0;
    format      ascii;
    class       surfaceScalarField;
    location    "4.25";
    object      phib;
}
// * * * * * * * * * * * * * * * * * * * * * * * * * * * * * * * * * * * * * //

dimensions      [0 3 -1 0 0 0 0];

internalField   nonuniform List<scalar> 
359
(
9.67504e-13
2.75711e-12
4.45452e-12
6.00499e-12
7.53612e-12
9.10641e-12
1.07182e-11
1.23565e-11
1.40069e-11
1.56667e-11
1.73406e-11
1.90344e-11
2.07528e-11
2.24974e-11
2.42687e-11
2.60671e-11
2.78914e-11
2.97383e-11
3.16007e-11
3.34692e-11
3.53303e-11
3.71735e-11
3.89921e-11
4.07883e-11
4.2578e-11
4.43945e-11
4.62928e-11
4.83545e-11
5.06861e-11
5.34055e-11
5.65862e-11
6.01391e-11
6.36746e-11
6.65967e-11
6.84798e-11
6.93971e-11
6.97364e-11
6.98371e-11
6.98636e-11
6.98702e-11
6.98713e-11
6.98708e-11
6.98695e-11
6.98679e-11
6.98662e-11
6.98645e-11
6.98629e-11
6.98613e-11
6.98595e-11
6.98576e-11
6.98556e-11
6.98534e-11
6.98508e-11
6.9848e-11
6.98447e-11
6.98411e-11
6.98372e-11
6.9833e-11
6.98285e-11
6.98237e-11
6.98187e-11
6.98135e-11
6.98081e-11
6.98026e-11
6.9797e-11
6.97911e-11
6.9785e-11
6.97786e-11
6.9772e-11
6.97651e-11
6.97577e-11
6.97503e-11
6.97426e-11
6.97346e-11
6.97265e-11
6.97183e-11
6.971e-11
6.97015e-11
6.96928e-11
6.96838e-11
6.96747e-11
6.96652e-11
6.96555e-11
6.96454e-11
6.96352e-11
6.96247e-11
6.9614e-11
6.9603e-11
6.95918e-11
6.95804e-11
6.95687e-11
6.95567e-11
6.95443e-11
6.95316e-11
6.95186e-11
6.95052e-11
6.94914e-11
6.94772e-11
6.94625e-11
6.94475e-11
6.94321e-11
6.94161e-11
6.93997e-11
6.93827e-11
6.93653e-11
6.93472e-11
6.93286e-11
6.93093e-11
6.92893e-11
6.92687e-11
6.92474e-11
6.92253e-11
6.92024e-11
6.91787e-11
6.91541e-11
6.91286e-11
6.91022e-11
6.90748e-11
6.90464e-11
6.9017e-11
6.89864e-11
6.89547e-11
6.89218e-11
6.88876e-11
6.88521e-11
6.88152e-11
6.87766e-11
6.87363e-11
6.86941e-11
6.86498e-11
6.86034e-11
6.85545e-11
6.85028e-11
6.84476e-11
6.83887e-11
6.83262e-11
6.826e-11
6.81877e-11
6.81058e-11
6.80141e-11
6.79208e-11
6.7821e-11
6.76963e-11
6.75396e-11
6.73086e-11
6.67529e-11
-5.95761e-11
-1.2076e-09
-1.42434e-09
-1.35528e-09
-1.27217e-09
-1.17374e-09
-1.06614e-09
-9.54416e-10
-8.43056e-10
-7.35812e-10
-6.35369e-10
-5.43461e-10
-4.60884e-10
-3.87774e-10
-3.23815e-10
-2.68414e-10
-2.20843e-10
-1.80313e-10
-1.46034e-10
-1.17234e-10
-9.31568e-11
-7.30406e-11
-5.61794e-11
-4.2106e-11
-3.07005e-11
-2.19644e-11
-1.56746e-11
-1.13361e-11
-8.38859e-12
-6.37293e-12
-4.96961e-12
-3.97082e-12
-3.24347e-12
-2.70138e-12
-2.28754e-12
-1.96324e-12
-1.70139e-12
-1.4825e-12
-1.29225e-12
-1.12026e-12
-9.60147e-13
-8.10604e-13
-6.75748e-13
-5.62036e-13
-4.72046e-13
-4.01406e-13
-3.42945e-13
-2.92661e-13
-2.50147e-13
-2.14932e-13
-1.85247e-13
-1.59703e-13
-1.37923e-13
-1.19695e-13
-1.04313e-13
-9.04811e-14
-7.79695e-14
-6.74262e-14
-5.87629e-14
-5.07903e-14
-4.32378e-14
-3.70678e-14
-3.21212e-14
-2.7381e-14
-2.31151e-14
-1.97453e-14
-1.6752e-14
-1.40394e-14
-1.18872e-14
-9.99565e-15
-8.20788e-15
-6.82425e-15
-5.73355e-15
-4.65623e-15
-3.7569e-15
-3.07901e-15
-2.46768e-15
-1.96882e-15
-1.56242e-15
-1.20258e-15
-9.37097e-16
-7.1648e-16
-5.17455e-16
-3.7552e-16
-2.69451e-16
-1.9724e-16
-1.56585e-16
-1.2384e-16
-8.72184e-17
-4.08437e-17
2.05696e-16
7.07755e-18
6.74085e-18
6.41578e-18
6.08801e-18
5.77258e-18
5.45771e-18
5.14731e-18
4.8536e-18
4.56133e-18
4.27577e-18
3.98383e-18
3.7141e-18
3.45139e-18
3.1748e-18
2.92822e-18
2.69408e-18
2.46458e-18
2.24847e-18
2.03623e-18
1.83856e-18
1.64447e-18
1.46548e-18
1.29086e-18
1.13025e-18
9.75265e-19
8.34948e-19
6.99243e-19
5.74311e-19
4.56025e-19
3.8276e-19
2.8503e-19
1.96809e-19
1.18494e-19
5.09609e-20
-8.27015e-21
-6.62332e-20
-1.14863e-19
-1.54309e-19
-1.81291e-19
-2.07404e-19
-2.20703e-19
-2.27594e-19
-2.25949e-19
-2.365e-19
-2.39997e-19
-2.41581e-19
-2.3264e-19
-2.28084e-19
-2.14792e-19
-1.75303e-19
-1.53987e-19
-1.3836e-19
-1.2005e-19
-1.01464e-19
-8.15104e-20
-6.24215e-20
-4.37727e-20
-2.46814e-20
-5.06317e-21
1.13985e-20
3.29069e-20
5.37179e-20
1.65808e-19
1.88167e-19
2.02278e-19
2.16362e-19
2.22548e-19
2.43578e-19
2.53504e-19
2.64235e-19
2.60117e-19
2.67073e-19
2.58614e-19
2.52238e-19
2.37983e-19
2.40151e-19
2.35948e-19
2.32993e-19
2.22777e-19
2.17292e-19
2.06305e-19
1.95406e-19
1.7979e-19
1.69273e-19
1.5556e-19
1.42274e-19
1.28023e-19
1.1221e-19
9.69265e-20
7.94945e-20
5.67851e-20
1.58579e-20
-2.37939e-20
-6.50487e-20
-9.01114e-20
-1.32969e-19
-1.48458e-19
-1.65332e-19
-1.50415e-19
-1.94314e-19
-1.93971e-19
-1.93642e-19
-1.33066e-19
-1.21326e-19
-3.50352e-20
4.9434e-20
2.06591e-19
2.39231e-19
3.64646e-19
4.91108e-19
7.27753e-19
9.17454e-19
1.20329e-18
1.50576e-18
1.67872e-18
2.47206e-18
3.03169e-18
3.61349e-18
3.36416e-18
4.90963e-18
3.42601e-18
4.17659e-19
)
;

boundaryField
{
    inandouthalf11
    {
        type            cyclic;
        value           nonuniform List<scalar> 
100
(
6.19487e-11
6.18205e-11
6.1811e-11
6.18947e-11
6.19804e-11
6.20575e-11
6.21345e-11
6.22129e-11
6.22915e-11
6.23712e-11
6.24526e-11
6.25351e-11
6.26191e-11
6.27044e-11
6.27911e-11
6.28794e-11
6.29694e-11
6.30608e-11
6.31535e-11
6.32473e-11
6.3341e-11
6.34345e-11
6.35273e-11
6.36192e-11
6.37106e-11
6.38028e-11
6.38978e-11
6.39994e-11
6.41121e-11
6.42417e-11
6.43937e-11
6.45691e-11
6.47552e-11
6.49258e-11
6.50494e-11
6.51182e-11
6.51476e-11
6.51591e-11
6.51648e-11
6.51683e-11
6.51723e-11
6.51761e-11
6.51799e-11
6.51846e-11
6.51893e-11
6.51944e-11
6.52e-11
6.52055e-11
6.5212e-11
6.52193e-11
6.52264e-11
6.52345e-11
6.52428e-11
6.5252e-11
6.52614e-11
6.52719e-11
6.52826e-11
6.52943e-11
6.53064e-11
6.53189e-11
6.53326e-11
6.53463e-11
6.53608e-11
6.53754e-11
6.53905e-11
6.54059e-11
6.54219e-11
6.54384e-11
6.54555e-11
6.54731e-11
6.54916e-11
6.5511e-11
6.55305e-11
6.5551e-11
6.55719e-11
6.55934e-11
6.56152e-11
6.56375e-11
6.56603e-11
6.56837e-11
6.57077e-11
6.57323e-11
6.57576e-11
6.57836e-11
6.58103e-11
6.58376e-11
6.58655e-11
6.5894e-11
6.59231e-11
6.59529e-11
6.59833e-11
6.60144e-11
6.60462e-11
6.60788e-11
6.61122e-11
6.61464e-11
6.61813e-11
6.62171e-11
6.62538e-11
6.62913e-11
)
;
    }
    inandouthalf12
    {
        type            cyclic;
        value           nonuniform List<scalar> 
100
(
-6.19487e-11
-6.18205e-11
-6.1811e-11
-6.18947e-11
-6.19804e-11
-6.20575e-11
-6.21345e-11
-6.22129e-11
-6.22915e-11
-6.23712e-11
-6.24526e-11
-6.25351e-11
-6.26191e-11
-6.27044e-11
-6.27911e-11
-6.28794e-11
-6.29694e-11
-6.30608e-11
-6.31535e-11
-6.32473e-11
-6.3341e-11
-6.34345e-11
-6.35273e-11
-6.36192e-11
-6.37106e-11
-6.38028e-11
-6.38978e-11
-6.39994e-11
-6.41121e-11
-6.42417e-11
-6.43937e-11
-6.45691e-11
-6.47552e-11
-6.49258e-11
-6.50494e-11
-6.51182e-11
-6.51476e-11
-6.51591e-11
-6.51648e-11
-6.51683e-11
-6.51723e-11
-6.51761e-11
-6.51799e-11
-6.51846e-11
-6.51893e-11
-6.51944e-11
-6.52e-11
-6.52055e-11
-6.5212e-11
-6.52193e-11
-6.52264e-11
-6.52345e-11
-6.52428e-11
-6.5252e-11
-6.52614e-11
-6.52719e-11
-6.52826e-11
-6.52943e-11
-6.53064e-11
-6.53189e-11
-6.53326e-11
-6.53463e-11
-6.53608e-11
-6.53754e-11
-6.53905e-11
-6.54059e-11
-6.54219e-11
-6.54384e-11
-6.54555e-11
-6.54731e-11
-6.54916e-11
-6.5511e-11
-6.55305e-11
-6.5551e-11
-6.55719e-11
-6.55934e-11
-6.56152e-11
-6.56375e-11
-6.56603e-11
-6.56837e-11
-6.57077e-11
-6.57323e-11
-6.57576e-11
-6.57836e-11
-6.58103e-11
-6.58376e-11
-6.58655e-11
-6.5894e-11
-6.59231e-11
-6.59529e-11
-6.59833e-11
-6.60144e-11
-6.60462e-11
-6.60788e-11
-6.61122e-11
-6.61464e-11
-6.61813e-11
-6.62171e-11
-6.62538e-11
-6.62913e-11
)
;
    }
    inandouthalf21
    {
        type            cyclic;
        value           nonuniform List<scalar> 
100
(
6.63297e-11
6.63691e-11
6.64094e-11
6.64507e-11
6.6493e-11
6.65365e-11
6.6581e-11
6.66268e-11
6.66737e-11
6.67219e-11
6.67714e-11
6.68223e-11
6.68746e-11
6.69285e-11
6.69839e-11
6.7041e-11
6.70998e-11
6.71603e-11
6.72228e-11
6.72873e-11
6.73538e-11
6.74226e-11
6.74936e-11
6.7567e-11
6.76429e-11
6.77215e-11
6.7803e-11
6.78875e-11
6.79754e-11
6.8067e-11
6.81623e-11
6.82615e-11
6.83652e-11
6.84744e-11
6.85905e-11
6.87135e-11
6.88427e-11
6.89799e-11
6.91318e-11
6.93065e-11
6.94963e-11
6.96771e-11
6.98921e-11
7.01719e-11
7.05165e-11
7.1104e-11
7.60744e-11
2.16207e-09
9.87353e-08
2.0949e-07
2.96478e-07
3.68132e-07
4.28755e-07
4.80909e-07
5.26347e-07
5.66349e-07
6.01888e-07
6.33717e-07
6.62429e-07
6.8849e-07
7.12273e-07
7.34072e-07
7.54124e-07
7.72612e-07
7.89681e-07
8.05443e-07
8.19979e-07
8.3335e-07
8.45594e-07
8.56736e-07
8.6679e-07
8.75763e-07
8.8367e-07
8.90533e-07
8.96392e-07
9.01308e-07
9.05359e-07
9.08634e-07
9.1123e-07
9.13245e-07
9.14766e-07
9.15874e-07
9.16634e-07
9.17102e-07
9.17324e-07
9.17337e-07
9.17169e-07
9.16844e-07
9.16383e-07
9.15799e-07
9.15106e-07
9.14315e-07
9.13435e-07
9.12474e-07
9.11438e-07
9.10334e-07
9.09166e-07
9.0794e-07
9.06658e-07
9.05327e-07
)
;
    }
    inandouthalf22
    {
        type            cyclic;
        value           nonuniform List<scalar> 
100
(
-6.63297e-11
-6.63691e-11
-6.64094e-11
-6.64507e-11
-6.6493e-11
-6.65365e-11
-6.6581e-11
-6.66268e-11
-6.66737e-11
-6.67219e-11
-6.67714e-11
-6.68223e-11
-6.68746e-11
-6.69285e-11
-6.69839e-11
-6.7041e-11
-6.70998e-11
-6.71603e-11
-6.72228e-11
-6.72873e-11
-6.73538e-11
-6.74226e-11
-6.74936e-11
-6.7567e-11
-6.76429e-11
-6.77215e-11
-6.7803e-11
-6.78875e-11
-6.79754e-11
-6.8067e-11
-6.81623e-11
-6.82615e-11
-6.83652e-11
-6.84744e-11
-6.85905e-11
-6.87135e-11
-6.88427e-11
-6.89799e-11
-6.91318e-11
-6.93065e-11
-6.94963e-11
-6.96771e-11
-6.98921e-11
-7.01719e-11
-7.05165e-11
-7.1104e-11
-7.60744e-11
-2.16207e-09
-9.87353e-08
-2.0949e-07
-2.96478e-07
-3.68132e-07
-4.28755e-07
-4.80909e-07
-5.26347e-07
-5.66349e-07
-6.01888e-07
-6.33717e-07
-6.62429e-07
-6.8849e-07
-7.12273e-07
-7.34072e-07
-7.54124e-07
-7.72612e-07
-7.89681e-07
-8.05443e-07
-8.19979e-07
-8.3335e-07
-8.45594e-07
-8.56736e-07
-8.6679e-07
-8.75763e-07
-8.8367e-07
-8.90533e-07
-8.96392e-07
-9.01308e-07
-9.05359e-07
-9.08634e-07
-9.1123e-07
-9.13245e-07
-9.14766e-07
-9.15874e-07
-9.16634e-07
-9.17102e-07
-9.17324e-07
-9.17337e-07
-9.17169e-07
-9.16844e-07
-9.16383e-07
-9.15799e-07
-9.15106e-07
-9.14315e-07
-9.13435e-07
-9.12474e-07
-9.11438e-07
-9.10334e-07
-9.09166e-07
-9.0794e-07
-9.06658e-07
-9.05327e-07
)
;
    }
    inandouthalf31
    {
        type            cyclic;
        value           nonuniform List<scalar> 
110
(
9.03951e-07
9.20832e-07
9.37951e-07
9.55308e-07
9.72905e-07
9.90742e-07
1.00882e-06
1.02714e-06
1.04571e-06
1.06451e-06
1.08356e-06
1.10286e-06
1.1224e-06
1.14219e-06
1.16222e-06
1.18251e-06
1.20304e-06
1.22382e-06
1.24486e-06
1.26615e-06
1.28769e-06
1.30949e-06
1.33156e-06
1.3539e-06
1.3765e-06
1.39939e-06
1.42257e-06
1.44604e-06
1.46983e-06
1.49395e-06
1.51842e-06
1.54327e-06
1.56852e-06
1.59424e-06
1.62047e-06
1.64729e-06
1.67481e-06
1.7032e-06
1.73271e-06
1.764e-06
1.7986e-06
1.83503e-06
1.87226e-06
1.91025e-06
1.94902e-06
1.98857e-06
2.02893e-06
2.07011e-06
2.11212e-06
2.15499e-06
2.19873e-06
2.24335e-06
2.28888e-06
2.33534e-06
2.38274e-06
2.4311e-06
2.48045e-06
2.53079e-06
2.58216e-06
2.63457e-06
2.68805e-06
2.74261e-06
2.79827e-06
2.85507e-06
2.91302e-06
2.97215e-06
3.03247e-06
3.09402e-06
3.15682e-06
3.2209e-06
3.28628e-06
3.35298e-06
3.42103e-06
3.49047e-06
3.56132e-06
3.63361e-06
3.70736e-06
3.78261e-06
3.85938e-06
3.93772e-06
4.01764e-06
4.09919e-06
4.18239e-06
4.26729e-06
4.3539e-06
4.44227e-06
4.53244e-06
4.62444e-06
4.7183e-06
4.81407e-06
4.91178e-06
5.01148e-06
5.1132e-06
5.21698e-06
5.32287e-06
5.43091e-06
5.54115e-06
5.65362e-06
5.76837e-06
5.88545e-06
6.00491e-06
6.12679e-06
6.25115e-06
6.37803e-06
6.50749e-06
6.63958e-06
6.77434e-06
6.91184e-06
7.05213e-06
7.19527e-06
)
;
    }
    inandouthalf32
    {
        type            cyclic;
        value           nonuniform List<scalar> 
110
(
-9.03951e-07
-9.20832e-07
-9.37951e-07
-9.55308e-07
-9.72905e-07
-9.90742e-07
-1.00882e-06
-1.02714e-06
-1.04571e-06
-1.06451e-06
-1.08356e-06
-1.10286e-06
-1.1224e-06
-1.14219e-06
-1.16222e-06
-1.18251e-06
-1.20304e-06
-1.22382e-06
-1.24486e-06
-1.26615e-06
-1.28769e-06
-1.30949e-06
-1.33156e-06
-1.3539e-06
-1.3765e-06
-1.39939e-06
-1.42257e-06
-1.44604e-06
-1.46983e-06
-1.49395e-06
-1.51842e-06
-1.54327e-06
-1.56852e-06
-1.59424e-06
-1.62047e-06
-1.64729e-06
-1.67481e-06
-1.7032e-06
-1.73271e-06
-1.764e-06
-1.7986e-06
-1.83503e-06
-1.87226e-06
-1.91025e-06
-1.94902e-06
-1.98857e-06
-2.02893e-06
-2.07011e-06
-2.11212e-06
-2.15499e-06
-2.19873e-06
-2.24335e-06
-2.28888e-06
-2.33534e-06
-2.38274e-06
-2.4311e-06
-2.48045e-06
-2.53079e-06
-2.58216e-06
-2.63457e-06
-2.68805e-06
-2.74261e-06
-2.79827e-06
-2.85507e-06
-2.91302e-06
-2.97215e-06
-3.03247e-06
-3.09402e-06
-3.15682e-06
-3.2209e-06
-3.28628e-06
-3.35298e-06
-3.42103e-06
-3.49047e-06
-3.56132e-06
-3.63361e-06
-3.70736e-06
-3.78261e-06
-3.85938e-06
-3.93772e-06
-4.01764e-06
-4.09919e-06
-4.18239e-06
-4.26729e-06
-4.3539e-06
-4.44227e-06
-4.53244e-06
-4.62444e-06
-4.7183e-06
-4.81407e-06
-4.91178e-06
-5.01148e-06
-5.1132e-06
-5.21698e-06
-5.32287e-06
-5.43091e-06
-5.54115e-06
-5.65362e-06
-5.76837e-06
-5.88545e-06
-6.00491e-06
-6.12679e-06
-6.25115e-06
-6.37803e-06
-6.50749e-06
-6.63958e-06
-6.77434e-06
-6.91184e-06
-7.05213e-06
-7.19527e-06
)
;
    }
    inandouthalf41
    {
        type            cyclic;
        value           nonuniform List<scalar> 
50
(
6.4405e-06
6.4405e-06
6.4405e-06
6.4405e-06
6.4405e-06
6.4405e-06
6.4405e-06
6.4405e-06
6.4405e-06
6.4405e-06
6.4405e-06
6.4405e-06
6.4405e-06
6.4405e-06
6.4405e-06
6.4405e-06
6.4405e-06
6.4405e-06
6.4405e-06
6.4405e-06
6.4405e-06
6.4405e-06
6.4405e-06
6.4405e-06
6.4405e-06
6.4405e-06
6.4405e-06
6.4405e-06
6.4405e-06
6.4405e-06
6.4405e-06
6.4405e-06
6.4405e-06
6.4405e-06
6.4405e-06
6.4405e-06
6.4405e-06
6.4405e-06
6.4405e-06
6.4405e-06
6.4405e-06
6.4405e-06
6.4405e-06
6.4405e-06
6.4405e-06
6.4405e-06
6.4405e-06
6.4405e-06
6.4405e-06
6.4405e-06
)
;
    }
    inandouthalf42
    {
        type            cyclic;
        value           nonuniform List<scalar> 
50
(
-6.4405e-06
-6.4405e-06
-6.4405e-06
-6.4405e-06
-6.4405e-06
-6.4405e-06
-6.4405e-06
-6.4405e-06
-6.4405e-06
-6.4405e-06
-6.4405e-06
-6.4405e-06
-6.4405e-06
-6.4405e-06
-6.4405e-06
-6.4405e-06
-6.4405e-06
-6.4405e-06
-6.4405e-06
-6.4405e-06
-6.4405e-06
-6.4405e-06
-6.4405e-06
-6.4405e-06
-6.4405e-06
-6.4405e-06
-6.4405e-06
-6.4405e-06
-6.4405e-06
-6.4405e-06
-6.4405e-06
-6.4405e-06
-6.4405e-06
-6.4405e-06
-6.4405e-06
-6.4405e-06
-6.4405e-06
-6.4405e-06
-6.4405e-06
-6.4405e-06
-6.4405e-06
-6.4405e-06
-6.4405e-06
-6.4405e-06
-6.4405e-06
-6.4405e-06
-6.4405e-06
-6.4405e-06
-6.4405e-06
-6.4405e-06
)
;
    }
    top
    {
        type            symmetryPlane;
        value           uniform 0;
    }
    walls
    {
        type            fixedValue;
        value           uniform 0;
    }
    frontAndBackPlanes
    {
        type            empty;
        value           nonuniform 0();
    }
}


// ************************************************************************* //
