/*--------------------------------*- C++ -*----------------------------------*\
| =========                 |                                                 |
| \\      /  F ield         | OpenFOAM: The Open Source CFD Toolbox           |
|  \\    /   O peration     | Version:  2.4.x                                 |
|   \\  /    A nd           | Web:      www.OpenFOAM.org                      |
|    \\/     M anipulation  |                                                 |
\*---------------------------------------------------------------------------*/
FoamFile
{
    version     2.0;
    format      ascii;
    class       volVectorField;
    location    "4.25";
    object      susb;
}
// * * * * * * * * * * * * * * * * * * * * * * * * * * * * * * * * * * * * * //

dimensions      [0 1 -2 0 0 0 0];

internalField   nonuniform List<vector> 
360
(
(0 3.83446e-18 0)
(0 4.90536e-18 0)
(0 7.68745e-19 0)
(0 -6.38342e-19 0)
(-3.68164e-31 -5.67359e-19 0)
(-3.68086e-31 -4.08325e-19 0)
(-7.36034e-31 -3.77005e-19 0)
(0 -3.62788e-19 0)
(-3.67887e-31 -3.59315e-19 0)
(0 -3.77e-19 0)
(-3.67752e-31 -3.91856e-19 0)
(0 -3.99267e-19 0)
(-3.67609e-31 -4.01799e-19 0)
(0 -4.01745e-19 0)
(0 -4.05724e-19 0)
(0 -4.12457e-19 0)
(0 -4.18467e-19 0)
(-3.67242e-31 -4.22353e-19 0)
(0 -4.27218e-19 0)
(0 -4.2627e-19 0)
(0 -4.23206e-19 0)
(-7.33875e-31 -4.2166e-19 0)
(0 -4.15868e-19 0)
(0 -4.11185e-19 0)
(0 -4.09508e-19 0)
(-3.66642e-31 -4.13387e-19 0)
(0 -4.32054e-19 0)
(0 -4.67297e-19 0)
(0 -5.1989e-19 0)
(0 -5.94946e-19 0)
(0 -6.85905e-19 0)
(0 -7.48436e-19 0)
(0 -7.43031e-19 0)
(0 -6.30766e-19 0)
(0 -4.397e-19 0)
(3.65634e-31 -2.61962e-19 0)
(0 -1.49183e-19 0)
(0 -1.06805e-19 0)
(0 -8.72517e-20 0)
(0 -8.82214e-20 0)
(0 -9.92817e-20 0)
(0 -9.82479e-20 0)
(7.30994e-31 -1.10508e-19 0)
(0 -1.22321e-19 0)
(0 -1.27683e-19 0)
(0 -1.39398e-19 0)
(0 -1.44117e-19 0)
(0 -1.54895e-19 0)
(0 -1.77607e-19 0)
(0 -1.86933e-19 0)
(3.65281e-31 -1.96433e-19 0)
(0 -2.1194e-19 0)
(0 -2.26346e-19 0)
(0 -2.39686e-19 0)
(0 -2.57911e-19 0)
(0 -2.74516e-19 0)
(0 -2.89571e-19 0)
(0 -3.08768e-19 0)
(0 -3.19342e-19 0)
(0 -3.38809e-19 0)
(0 -3.54068e-19 0)
(0 -3.64797e-19 0)
(0 -3.76912e-19 0)
(0 -3.84405e-19 0)
(0 -3.93651e-19 0)
(0 -4.05002e-19 0)
(0 -4.19642e-19 0)
(0 -4.33492e-19 0)
(0 -4.46576e-19 0)
(0 -4.65964e-19 0)
(0 -4.88299e-19 0)
(0 -5.00137e-19 0)
(0 -5.14891e-19 0)
(0 -5.31811e-19 0)
(0 -5.4512e-19 0)
(0 -5.56225e-19 0)
(0 -5.65208e-19 0)
(0 -5.78403e-19 0)
(0 -5.92369e-19 0)
(0 -6.05696e-19 0)
(0 -6.20795e-19 0)
(0 -6.38297e-19 0)
(0 -6.5505e-19 0)
(0 -6.71677e-19 0)
(0 -6.87866e-19 0)
(0 -7.03599e-19 0)
(0 -7.18608e-19 0)
(0 -7.32882e-19 0)
(0 -7.47998e-19 0)
(0 -7.63749e-19 0)
(0 -7.79965e-19 0)
(0 -7.97355e-19 0)
(0 -8.15748e-19 0)
(0 -8.34551e-19 0)
(0 -8.53812e-19 0)
(0 -8.73446e-19 0)
(0 -8.93354e-19 0)
(0 -9.13616e-19 0)
(0 -9.34427e-19 0)
(0 -9.55873e-19 0)
(0 -9.78025e-19 0)
(0 -1.00101e-18 0)
(0 -1.02486e-18 0)
(0 -1.04954e-18 0)
(0 -1.07513e-18 0)
(0 -1.10166e-18 0)
(0 -1.12922e-18 0)
(0 -1.15786e-18 0)
(0 -1.18769e-18 0)
(0 -1.21876e-18 0)
(0 -1.25115e-18 0)
(0 -1.28492e-18 0)
(0 -1.32014e-18 0)
(0 -1.35689e-18 0)
(0 -1.39523e-18 0)
(0 -1.43526e-18 0)
(0 -1.47705e-18 0)
(0 -1.52072e-18 0)
(0 -1.56637e-18 0)
(0 -1.61413e-18 0)
(0 -1.66408e-18 0)
(0 -1.71633e-18 0)
(0 -1.77095e-18 0)
(0 -1.82811e-18 0)
(0 -1.88823e-18 0)
(0 -1.95208e-18 0)
(0 -2.02081e-18 0)
(0 -2.09546e-18 0)
(0 -2.17613e-18 0)
(0 -2.26146e-18 0)
(0 -2.35016e-18 0)
(0 -2.44621e-18 0)
(0 -2.56193e-18 0)
(0 -1.93896e-18 0)
(0 -4.33268e-18 0)
(0 -3.07114e-17 0)
(0 -2.58671e-16 0)
(0 -2.38814e-15 0)
(0 -2.47929e-14 0)
(0 -2.81218e-13 0)
(0 -3.28084e-12 0)
(0 -4.60905e-11 0)
(0 -8.80458e-10 0)
(0 -1.99507e-08 0)
(0 -6.31926e-07 0)
(0 -3.93286e-05 0)
(0 -0.0201411 0)
(0 -1.40712 0)
(0 -3.33994 0)
(0 -1.75495 0)
(0 -1.07747 0)
(0 -0.922596 0)
(0 -0.817982 0)
(0 -0.723237 0)
(0 -0.629879 0)
(0 -0.539162 0)
(0 -0.454203 0)
(0 -0.37754 0)
(0 -0.310471 0)
(0 -0.253203 0)
(0 -0.205207 0)
(0 -0.165496 0)
(0 -0.132943 0)
(0 -0.106429 0)
(0 -0.0849341 0)
(0 -0.0675796 0)
(0 -0.0536538 0)
(0 -0.0425909 0)
(0 -0.0338603 0)
(0 -0.0268504 0)
(0 -0.0209615 0)
(0 -0.0158854 0)
(0 -0.0116687 0)
(0 -0.00843382 0)
(0 -0.00613384 0)
(0 -0.00456967 0)
(0 -0.00351662 0)
(0 -0.00279808 0)
(0 -0.0022957 0)
(0 -0.00193513 0)
(0 -0.00167044 0)
(0 -0.00147321 0)
(0 -0.00132576 0)
(0 -0.00121672 0)
(0 -0.00113825 0)
(0 -0.00108283 0)
(0 -0.00103842 0)
(0 -0.00098376 0)
(0 -0.000892862 0)
(0 -0.000756716 0)
(0 -0.000603207 0)
(0 -0.000478363 0)
(0 -0.000400358 0)
(0 -0.000347501 0)
(0 -0.000295711 0)
(0 -0.000246315 0)
(0 -0.000208784 0)
(0 -0.00018042 0)
(0 -0.000154169 0)
(0 -0.000129043 0)
(0 -0.00010891 0)
(0 -9.61297e-05 0)
(-4.48992e-20 -8.5136e-05 0)
(0 -6.97723e-05 0)
(0 -5.57257e-05 0)
(2.04553e-20 -5.0277e-05 0)
(0 -4.65083e-05 0)
(-9.51163e-21 -3.65549e-05 0)
(0 -2.82687e-05 0)
(8.75953e-21 -2.64922e-05 0)
(0 -2.29825e-05 0)
(0 -1.73114e-05 0)
(0 -1.48587e-05 0)
(3.57922e-21 -1.29225e-05 0)
(0 -9.67581e-06 0)
(0 -8.14758e-06 0)
(0 -7.36474e-06 0)
(0 -5.27733e-06 0)
(0 -3.89676e-06 0)
(-1.18724e-21 -3.81342e-06 0)
(0 -3.19831e-06 0)
(-1.17805e-21 -2.4421e-06 0)
(0 -2.28449e-06 0)
(-5.82144e-22 -1.87858e-06 0)
(0 -1.55413e-06 0)
(0 -1.39772e-06 0)
(0 -1.00366e-06 0)
(0 -8.47742e-07 0)
(2.48362e-22 -7.722e-07 0)
(1.17233e-22 -5.27225e-07 0)
(0 -3.83963e-07 0)
(0 -2.37756e-07 0)
(0 -1.06882e-07 0)
(0 -9.53402e-08 0)
(0 -1.38158e-07 0)
(0 -1.8561e-07 0)
(0 -1.31693e-07 0)
(0 -2.79457e-08 0)
(0 -4.52672e-15 0)
(0 -3.535e-17 0)
(0 -3.478e-18 0)
(0 -5.28561e-20 0)
(0 -3.89253e-22 0)
(-7.78225e-40 -1.81678e-24 0)
(8.73687e-42 -9.26395e-27 0)
(0 -6.11389e-29 0)
(0 -7.31672e-31 0)
(-8.47776e-48 -1.09024e-32 0)
(0 -1.6242e-33 0)
(0 -1.90817e-33 0)
(-1.98192e-49 -1.42025e-33 0)
(0 -6.04781e-34 0)
(0 -2.41278e-34 0)
(0 -1.22551e-34 0)
(0 -1.00656e-34 0)
(0 -1.37732e-34 0)
(0 -1.46966e-34 0)
(0 -8.33106e-35 0)
(0 -2.57878e-35 0)
(0 -8.94787e-36 0)
(0 -3.70195e-36 0)
(0 -1.73823e-36 0)
(0 -8.85342e-37 0)
(0 -5.2116e-37 0)
(0 -3.89921e-37 0)
(0 -3.21352e-37 0)
(3.5083e-53 -2.05713e-37 0)
(0 -9.04687e-38 0)
(0 -4.0745e-38 0)
(0 -2.06698e-38 0)
(0 -1.231e-38 0)
(0 -8.06222e-39 0)
(0 -4.312e-39 0)
(0 -1.90939e-39 0)
(0 -9.37491e-40 0)
(0 -4.7068e-40 0)
(0 -2.32964e-40 0)
(0 -1.13142e-40 0)
(0 -5.37479e-41 0)
(0 -2.49459e-41 0)
(0 -1.13002e-41 0)
(0 -4.99059e-42 0)
(0 -2.14635e-42 0)
(0 -8.97856e-43 0)
(0 -3.64848e-43 0)
(0 -1.4382e-43 0)
(1.11926e-59 -5.4915e-44 0)
(0 -2.02784e-44 0)
(0 -7.22934e-45 0)
(0 -2.48356e-45 0)
(0 -8.20496e-46 0)
(0 -2.60093e-46 0)
(0 -7.89149e-47 0)
(0 -2.28548e-47 0)
(0 -6.29879e-48 0)
(0 -1.6463e-48 0)
(6.98481e-65 -4.06483e-49 0)
(0 -9.43923e-50 0)
(0 -2.05103e-50 0)
(0 -4.14534e-51 0)
(0 -7.73837e-52 0)
(0 -1.32304e-52 0)
(0 -2.05045e-53 0)
(0 -2.84359e-54 0)
(0 -3.47058e-55 0)
(0 -3.64566e-56 0)
(0 -3.19409e-57 0)
(0 -2.22532e-58 0)
(0 -1.13637e-59 0)
(0 -3.58006e-61 0)
(0 -3.79021e-63 0)
(0 -5.87614e-66 0)
(0 -9.11576e-68 0)
(0 -7.01633e-70 0)
(0 -1.15224e-80 0)
(0 -9.56467e-92 0)
(0 -5.98929e-103 0)
(0 -2.7536e-114 0)
(0 -1.11182e-125 0)
(0 -3.73412e-137 0)
(0 -1.40489e-148 0)
(0 -7.84513e-157 0)
(0 -2.00639e-167 0)
(0 -2.70272e-175 0)
(0 -6.49477e-186 0)
(0 -9.29778e-194 0)
(0 -2.77875e-204 0)
(0 -3.19793e-212 0)
(0 -1.24916e-222 0)
(0 -1.10081e-230 0)
(0 -8.47586e-241 0)
(0 -3.82548e-249 0)
(0 -5.64826e-259 0)
(0 -1.34937e-267 0)
(0 -2.84633e-277 0)
(0 -4.82889e-286 0)
(0 -1.34753e-295 0)
(0 -1.75232e-304 0)
(0 -5.93951e-314 0)
(0 -6.42285e-323 0)
(0 -0 0)
(0 0 0)
(0 0 0)
(0 0 0)
(0 0 0)
(0 0 0)
(0 0 0)
(0 0 0)
(0 0 0)
(0 0 0)
(0 0 0)
(0 0 0)
(0 0 0)
(0 0 0)
(0 0 0)
(0 0 0)
(0 0 0)
(0 0 0)
(0 0 0)
(0 0 0)
)
;

boundaryField
{
    inandouthalf11
    {
        type            cyclic;
    }
    inandouthalf12
    {
        type            cyclic;
    }
    inandouthalf21
    {
        type            cyclic;
    }
    inandouthalf22
    {
        type            cyclic;
    }
    inandouthalf31
    {
        type            cyclic;
    }
    inandouthalf32
    {
        type            cyclic;
    }
    inandouthalf41
    {
        type            cyclic;
    }
    inandouthalf42
    {
        type            cyclic;
    }
    top
    {
        type            symmetryPlane;
    }
    walls
    {
        type            zeroGradient;
    }
    frontAndBackPlanes
    {
        type            empty;
    }
}


// ************************************************************************* //
