/*--------------------------------*- C++ -*----------------------------------*\
| =========                 |                                                 |
| \\      /  F ield         | OpenFOAM: The Open Source CFD Toolbox           |
|  \\    /   O peration     | Version:  2.4.x                                 |
|   \\  /    A nd           | Web:      www.OpenFOAM.org                      |
|    \\/     M anipulation  |                                                 |
\*---------------------------------------------------------------------------*/
FoamFile
{
    version     2.0;
    format      ascii;
    class       volScalarField;
    location    "4.25";
    object      Theta;
}
// * * * * * * * * * * * * * * * * * * * * * * * * * * * * * * * * * * * * * //

dimensions      [0 2 -2 0 0 0 0];

internalField   nonuniform List<scalar> 
360
(
6.67314e-21
6.7091e-21
6.70205e-21
6.69412e-21
6.69402e-21
6.69602e-21
6.69785e-21
6.69903e-21
6.69964e-21
6.7001e-21
6.70077e-21
6.70174e-21
6.70294e-21
6.70425e-21
6.7056e-21
6.70699e-21
6.70835e-21
6.70954e-21
6.71039e-21
6.71071e-21
6.71037e-21
6.70944e-21
6.70819e-21
6.70707e-21
6.70678e-21
6.70819e-21
6.71259e-21
6.72188e-21
6.73893e-21
6.76717e-21
6.80663e-21
6.84275e-21
6.84066e-21
6.78274e-21
6.71151e-21
6.67324e-21
6.66299e-21
6.6615e-21
6.66137e-21
6.66136e-21
6.66136e-21
6.66136e-21
6.66136e-21
6.66135e-21
6.66135e-21
6.66135e-21
6.66135e-21
6.66135e-21
6.66135e-21
6.66135e-21
6.66135e-21
6.66135e-21
6.66135e-21
6.66135e-21
6.66135e-21
6.66135e-21
6.66135e-21
6.66135e-21
6.66135e-21
6.66135e-21
6.66135e-21
6.66135e-21
6.66135e-21
6.66135e-21
6.66135e-21
6.66135e-21
6.66134e-21
6.66134e-21
6.66134e-21
6.66134e-21
6.66134e-21
6.66134e-21
6.66134e-21
6.66134e-21
6.66134e-21
6.66134e-21
6.66134e-21
6.66134e-21
6.66134e-21
6.66133e-21
6.66133e-21
6.66133e-21
6.66133e-21
6.66133e-21
6.66133e-21
6.66133e-21
6.66133e-21
6.66133e-21
6.66132e-21
6.66132e-21
6.66132e-21
6.66132e-21
6.66132e-21
6.66132e-21
6.66132e-21
6.66132e-21
6.66131e-21
6.66131e-21
6.66131e-21
6.66124e-21
0
0
0
0
0
0
0
0
0
0
0
0
0
0
0
6.66128e-21
6.66128e-21
6.66127e-21
6.66127e-21
6.66127e-21
6.66127e-21
6.66126e-21
6.66126e-21
6.66126e-21
6.66125e-21
6.66125e-21
6.66125e-21
6.66124e-21
6.66124e-21
6.66124e-21
6.66123e-21
6.66123e-21
6.66122e-21
6.65915e-21
2.26908e-20
1.79716e-19
1.65632e-18
1.64858e-17
1.79796e-16
2.19482e-15
3.05483e-14
4.91817e-13
9.28755e-12
2.11647e-10
9.10335e-09
7.99566e-07
2.48789e-05
0.000327017
0.00181891
0.00330461
0.0039713
0.00436261
0.00462113
0.00480296
0.00493041
0.00501219
0.00505189
0.00505165
0.00501441
0.00494334
0.00484314
0.00471898
0.0045763
0.00442065
0.00425743
0.0040918
0.00392836
0.00377107
0.00362293
0.0034859
0.00336079
0.00324738
0.00314481
0.00305194
0.00296767
0.00289102
0.00282116
0.00275734
0.0026989
0.00264525
0.00259586
0.00255025
0.00250798
0.00246862
0.00243182
0.00239722
0.0023645
0.00233333
0.00230345
0.00227458
0.00224651
0.00221906
0.0021921
0.00216554
0.00213927
0.00211323
0.00208734
0.00206158
0.00203588
0.00201021
0.00198454
0.00195859
0.00193207
0.00190493
0.00187714
0.00184867
0.00181948
0.00178952
0.00175877
0.00172718
0.0016947
0.00166129
0.00162691
0.00159149
0.00155499
0.00151734
0.00147848
0.00143834
0.00139683
0.00135387
0.00130936
0.00126319
0.00121522
0.00116531
0.00111329
0.00105895
0.00100206
0.000942309
0.000879341
0.000812684
0.000741724
0.00066562
0.000583165
0.000492482
0.000390279
0.000269382
0
0
0
0
0
0
0
0
0
0
0
0
0
0
0
0
0
0
0
0
0
0
0
0
0
0
0
0
0
0
0
0
0
0
0
0
0
0
0
0
0
0
0
0
0
0
0
0
0
0
0
0
0
0
0
0
0
0
0
0
0
0
0
0
0
0
0
0
0
0
0
0
0
0
0
0
0
0
0
0
0
0
0
0
0
0
0
0
0
0
0
0
0
0
0
0
0
0
0
0
0
0
0
0
0
0
0
0
0
0
0
0
0
0
0
0
0
0
0
0
0
0
0
0
)
;

boundaryField
{
    inandouthalf11
    {
        type            cyclic;
    }
    inandouthalf12
    {
        type            cyclic;
    }
    inandouthalf21
    {
        type            cyclic;
    }
    inandouthalf22
    {
        type            cyclic;
    }
    inandouthalf31
    {
        type            cyclic;
    }
    inandouthalf32
    {
        type            cyclic;
    }
    inandouthalf41
    {
        type            cyclic;
    }
    inandouthalf42
    {
        type            cyclic;
    }
    top
    {
        type            symmetryPlane;
    }
    walls
    {
        type            zeroGradient;
    }
    frontAndBackPlanes
    {
        type            empty;
    }
}


// ************************************************************************* //
