/*--------------------------------*- C++ -*----------------------------------*\
| =========                 |                                                 |
| \\      /  F ield         | OpenFOAM: The Open Source CFD Toolbox           |
|  \\    /   O peration     | Version:  2.4.x                                 |
|   \\  /    A nd           | Web:      www.OpenFOAM.org                      |
|    \\/     M anipulation  |                                                 |
\*---------------------------------------------------------------------------*/
FoamFile
{
    version     2.0;
    format      ascii;
    class       volVectorField;
    location    "4.25";
    object      U;
}
// * * * * * * * * * * * * * * * * * * * * * * * * * * * * * * * * * * * * * //

dimensions      [0 1 -1 0 0 0 0];

internalField   nonuniform List<vector> 
360
(
(-2.41351e-05 4.45792e-08 0)
(-2.40842e-05 -1.11275e-09 0)
(-2.41136e-05 -9.61525e-09 0)
(-2.41868e-05 -2.63278e-09 0)
(-2.42596e-05 1.01916e-09 0)
(-2.43287e-05 1.2689e-09 0)
(-2.43987e-05 8.19887e-10 0)
(-2.44702e-05 4.27898e-10 0)
(-2.45423e-05 2.09772e-10 0)
(-2.46153e-05 2.36322e-10 0)
(-2.46894e-05 3.9822e-10 0)
(-2.47647e-05 5.4071e-10 0)
(-2.48413e-05 6.18877e-10 0)
(-2.49192e-05 6.40884e-10 0)
(-2.49984e-05 6.46242e-10 0)
(-2.50792e-05 6.41887e-10 0)
(-2.51615e-05 5.94457e-10 0)
(-2.52452e-05 4.74516e-10 0)
(-2.53301e-05 2.61708e-10 0)
(-2.54158e-05 -1.68551e-11 0)
(-2.55017e-05 -3.34897e-10 0)
(-2.55875e-05 -5.67878e-10 0)
(-2.56725e-05 -6.41921e-10 0)
(-2.57568e-05 -4.48758e-10 0)
(-2.58407e-05 1.22107e-10 0)
(-2.59252e-05 1.17354e-09 0)
(-2.60125e-05 2.7988e-09 0)
(-2.61059e-05 5.09652e-09 0)
(-2.62095e-05 7.96161e-09 0)
(-2.63288e-05 1.07796e-08 0)
(-2.6469e-05 1.14656e-08 0)
(-2.66307e-05 6.20477e-09 0)
(-2.68027e-05 -7.35921e-09 0)
(-2.696e-05 -2.25981e-08 0)
(-2.70737e-05 -2.71644e-08 0)
(-2.71362e-05 -1.90208e-08 0)
(-2.71623e-05 -8.63783e-09 0)
(-2.71717e-05 -2.81674e-09 0)
(-2.71756e-05 -7.27062e-10 0)
(-2.71776e-05 -2.30678e-10 0)
(-2.71798e-05 -4.88509e-11 0)
(-2.71818e-05 -1.1703e-11 0)
(-2.71837e-05 -3.84317e-11 0)
(-2.71862e-05 8.06658e-12 0)
(-2.71886e-05 -9.57601e-12 0)
(-2.71912e-05 -6.36939e-12 0)
(-2.71941e-05 1.51621e-11 0)
(-2.7197e-05 -2.43727e-11 0)
(-2.72003e-05 -2.30826e-11 0)
(-2.72041e-05 1.46576e-11 0)
(-2.72078e-05 -2.66856e-11 0)
(-2.72119e-05 -6.73165e-12 0)
(-2.72163e-05 -2.50779e-11 0)
(-2.7221e-05 -4.26202e-12 0)
(-2.72259e-05 -4.02798e-11 0)
(-2.72313e-05 1.29e-12 0)
(-2.72368e-05 -3.46709e-11 0)
(-2.72428e-05 -1.07396e-11 0)
(-2.72491e-05 -7.11001e-12 0)
(-2.72556e-05 -3.78048e-11 0)
(-2.72626e-05 6.31494e-12 0)
(-2.72697e-05 -2.36486e-11 0)
(-2.72772e-05 1.74619e-12 0)
(-2.72847e-05 -9.71323e-12 0)
(-2.72925e-05 -4.21087e-12 0)
(-2.73005e-05 -1.66391e-11 0)
(-2.73087e-05 -1.4572e-11 0)
(-2.73173e-05 -1.40311e-11 0)
(-2.73261e-05 -1.17881e-11 0)
(-2.73352e-05 -3.30407e-11 0)
(-2.73448e-05 -2.02051e-11 0)
(-2.73547e-05 3.682e-13 0)
(-2.73648e-05 -2.87783e-11 0)
(-2.73754e-05 -6.11804e-12 0)
(-2.73862e-05 -1.74966e-11 0)
(-2.73974e-05 4.56395e-13 0)
(-2.74086e-05 -1.14252e-11 0)
(-2.74202e-05 -1.33127e-11 0)
(-2.7432e-05 -1.4372e-11 0)
(-2.74441e-05 -1.16948e-11 0)
(-2.74565e-05 -2.007e-11 0)
(-2.74693e-05 -1.91501e-11 0)
(-2.74824e-05 -1.75171e-11 0)
(-2.74959e-05 -1.84916e-11 0)
(-2.75097e-05 -1.5941e-11 0)
(-2.75238e-05 -1.69786e-11 0)
(-2.75383e-05 -1.37751e-11 0)
(-2.75531e-05 -1.49554e-11 0)
(-2.75682e-05 -1.68203e-11 0)
(-2.75836e-05 -1.74164e-11 0)
(-2.75994e-05 -1.87365e-11 0)
(-2.76155e-05 -2.14993e-11 0)
(-2.76321e-05 -2.22013e-11 0)
(-2.7649e-05 -2.30277e-11 0)
(-2.76663e-05 -2.38281e-11 0)
(-2.7684e-05 -2.43728e-11 0)
(-2.77022e-05 -2.48762e-11 0)
(-2.77208e-05 -2.57005e-11 0)
(-2.77398e-05 -2.68448e-11 0)
(-2.77593e-05 -2.79791e-11 0)
(-2.77792e-05 -2.93641e-11 0)
(-2.77996e-05 -3.09198e-11 0)
(-2.78206e-05 -3.23825e-11 0)
(-2.7842e-05 -3.39046e-11 0)
(-2.7864e-05 -3.55466e-11 0)
(-2.78866e-05 -3.72565e-11 0)
(-2.79097e-05 -3.90873e-11 0)
(-2.79334e-05 -4.10579e-11 0)
(-2.79578e-05 -4.31323e-11 0)
(-2.79828e-05 -4.53037e-11 0)
(-2.80085e-05 -4.75694e-11 0)
(-2.80349e-05 -4.99182e-11 0)
(-2.80621e-05 -5.23529e-11 0)
(-2.809e-05 -5.48769e-11 0)
(-2.81188e-05 -5.74896e-11 0)
(-2.81484e-05 -6.02005e-11 0)
(-2.81789e-05 -6.30321e-11 0)
(-2.82104e-05 -6.60102e-11 0)
(-2.82428e-05 -6.91553e-11 0)
(-2.82762e-05 -7.24812e-11 0)
(-2.83108e-05 -7.59927e-11 0)
(-2.83464e-05 -7.96941e-11 0)
(-2.83833e-05 -8.36594e-11 0)
(-2.84214e-05 -8.81563e-11 0)
(-2.84609e-05 -9.37251e-11 0)
(-2.85017e-05 -1.01075e-10 0)
(-2.8544e-05 -1.10625e-10 0)
(-2.85879e-05 -1.21686e-10 0)
(-2.86335e-05 -1.31894e-10 0)
(-2.86811e-05 -1.38774e-10 0)
(-2.87306e-05 -1.44997e-10 0)
(-2.87821e-05 -1.64141e-10 0)
(-2.88359e-05 -2.08914e-10 0)
(-2.88926e-05 -2.5573e-10 0)
(-2.89529e-05 -2.52914e-10 0)
(-2.90167e-05 -2.23131e-10 0)
(-2.90837e-05 -2.89982e-10 0)
(-2.91549e-05 -5.47698e-10 0)
(-2.92337e-05 -8.39373e-10 0)
(-2.93243e-05 -5.48329e-10 0)
(-2.94228e-05 3.73814e-10 0)
(-2.95166e-05 -1.26316e-09 0)
(-2.96282e-05 -2.3742e-09 0)
(-2.97734e-05 -2.29641e-09 0)
(-2.99524e-05 -7.83911e-09 0)
(-3.02576e-05 6.62472e-08 0)
(-3.24657e-05 -1.59082e-06 0)
(-0.00158431 -9.17804e-06 0)
(-0.0953047 -5.75507e-05 0)
(-0.206842 -6.42132e-06 0)
(-0.294618 -3.31083e-06 0)
(-0.366819 -2.72966e-06 0)
(-0.4278 -2.23997e-06 0)
(-0.480197 -1.82526e-06 0)
(-0.525803 -1.49737e-06 0)
(-0.565922 -1.24411e-06 0)
(-0.601544 -1.03868e-06 0)
(-0.633433 -8.59488e-07 0)
(-0.662187 -7.03903e-07 0)
(-0.688281 -5.66815e-07 0)
(-0.712089 -4.50192e-07 0)
(-0.733909 -3.52901e-07 0)
(-0.753978 -2.72721e-07 0)
(-0.772481 -2.07703e-07 0)
(-0.789564 -1.5525e-07 0)
(-0.805338 -1.1183e-07 0)
(-0.819887 -7.25309e-08 0)
(-0.833269 -3.59906e-08 0)
(-0.845524 -8.88382e-09 0)
(-0.856677 2.67084e-10 0)
(-0.866741 -2.89991e-09 0)
(-0.875724 -2.03093e-09 0)
(-0.883638 6.72182e-09 0)
(-0.890507 1.37967e-08 0)
(-0.896371 1.40266e-08 0)
(-0.901291 1.03088e-08 0)
(-0.905344 6.48808e-09 0)
(-0.908621 3.87392e-09 0)
(-0.91122 2.29996e-09 0)
(-0.913236 1.36067e-09 0)
(-0.914758 7.87072e-10 0)
(-0.915867 4.34104e-10 0)
(-0.916628 2.17387e-10 0)
(-0.917097 9.26669e-11 0)
(-0.91732 4.91894e-11 0)
(-0.917333 8.6666e-11 0)
(-0.917166 1.57989e-10 0)
(-0.916842 1.31694e-10 0)
(-0.91638 -8.4631e-11 0)
(-0.915797 -3.1543e-10 0)
(-0.915105 -2.60109e-10 0)
(-0.914314 3.75004e-11 0)
(-0.913434 2.05897e-10 0)
(-0.912473 9.0446e-11 0)
(-0.911438 -5.06861e-11 0)
(-0.910333 -1.75004e-11 0)
(-0.909166 5.55038e-11 0)
(-0.907939 4.17893e-11 0)
(-0.906658 -5.75922e-13 0)
(-0.905326 -1.61494e-11 0)
(-0.903947 1.86549e-11 0)
(-0.90251 5.97786e-11 0)
(-0.901 1.39618e-11 0)
(-0.899418 -4.97592e-11 0)
(-0.897764 6.49799e-12 0)
(-0.896036 7.95314e-11 0)
(-0.894236 9.70833e-12 0)
(-0.892363 -6.22297e-11 0)
(-0.890418 3.12889e-11 0)
(-0.8884 5.59732e-11 0)
(-0.886309 -2.8318e-11 0)
(-0.884147 -5.93347e-12 0)
(-0.881913 3.85512e-11 0)
(-0.879607 -5.5213e-12 0)
(-0.87723 -8.68751e-12 0)
(-0.874784 2.90916e-11 0)
(-0.872268 5.08959e-12 0)
(-0.869685 -1.5526e-11 0)
(-0.867034 1.7355e-11 0)
(-0.864318 1.49105e-11 0)
(-0.861539 -1.01733e-11 0)
(-0.858698 8.68978e-12 0)
(-0.855798 8.04395e-12 0)
(-0.852843 -1.31e-12 0)
(-0.849834 8.27905e-12 0)
(-0.846778 2.57e-12 0)
(-0.843677 5.09848e-13 0)
(-0.840539 7.69195e-12 0)
(-0.83737 1.59179e-12 0)
(-0.834179 2.18857e-12 0)
(-0.830975 4.05797e-12 0)
(-0.827771 3.19559e-12 0)
(-0.824582 6.49862e-12 0)
(-0.821427 -2.97204e-11 0)
(-0.818331 9.45381e-11 0)
(-0.815327 -1.87873e-10 0)
(-0.812459 3.27904e-10 0)
(-0.809794 -4.04857e-10 0)
(-0.807436 6.09061e-10 0)
(-0.805664 -8.30091e-10 0)
(-0.805125 1.07336e-09 0)
(-0.805089 -1.31975e-09 0)
(-0.805084 1.57871e-09 0)
(-0.80508 -1.83834e-09 0)
(-0.805077 2.10985e-09 0)
(-0.805075 -2.38326e-09 0)
(-0.805072 2.66859e-09 0)
(-0.805071 -2.95704e-09 0)
(-0.805069 3.25746e-09 0)
(-0.805068 -3.56218e-09 0)
(-0.805067 3.8789e-09 0)
(-0.805066 -4.20102e-09 0)
(-0.805065 4.53517e-09 0)
(-0.805065 -4.87574e-09 0)
(-0.805064 5.22836e-09 0)
(-0.805064 -5.58833e-09 0)
(-0.805064 5.96039e-09 0)
(-0.805064 -6.34066e-09 0)
(-0.805063 6.73304e-09 0)
(-0.805063 -7.13443e-09 0)
(-0.805063 7.54797e-09 0)
(-0.805063 -7.97127e-09 0)
(-0.805063 8.40676e-09 0)
(-0.805063 -8.85269e-09 0)
(-0.805063 9.3109e-09 0)
(-0.805063 -9.78016e-09 0)
(-0.805063 1.02618e-08 0)
(-0.805063 -1.07551e-08 0)
(-0.805063 1.12609e-08 0)
(-0.805063 -1.17789e-08 0)
(-0.805063 1.23095e-08 0)
(-0.805063 -1.28528e-08 0)
(-0.805063 1.3409e-08 0)
(-0.805063 -1.39782e-08 0)
(-0.805063 1.45606e-08 0)
(-0.805063 -1.51564e-08 0)
(-0.805063 1.57655e-08 0)
(-0.805063 -1.63885e-08 0)
(-0.805063 1.70251e-08 0)
(-0.805063 -1.76759e-08 0)
(-0.805063 1.83406e-08 0)
(-0.805063 -1.90198e-08 0)
(-0.805063 1.97132e-08 0)
(-0.805063 -2.04214e-08 0)
(-0.805063 2.11441e-08 0)
(-0.805063 -2.18819e-08 0)
(-0.805063 2.26345e-08 0)
(-0.805063 -2.34024e-08 0)
(-0.805063 2.41856e-08 0)
(-0.805063 -2.49843e-08 0)
(-0.805063 2.57985e-08 0)
(-0.805063 -2.66286e-08 0)
(-0.805063 2.74744e-08 0)
(-0.805063 -2.83364e-08 0)
(-0.805063 2.92145e-08 0)
(-0.805063 -3.01088e-08 0)
(-0.805063 3.10196e-08 0)
(-0.805063 -3.19469e-08 0)
(-0.805063 3.28909e-08 0)
(-0.805063 -3.38516e-08 0)
(-0.805063 3.48293e-08 0)
(-0.805063 -3.58238e-08 0)
(-0.805063 3.68356e-08 0)
(-0.805063 -3.78643e-08 0)
(-0.805063 3.89104e-08 0)
(-0.805063 -3.99736e-08 0)
(-0.805063 4.10543e-08 0)
(-0.805063 -4.21521e-08 0)
(-0.805063 4.32675e-08 0)
(-0.805063 -4.44e-08 0)
(-0.805063 3.99762e-08 0)
(-0.805063 -4.02183e-08 0)
(-0.805063 4.04565e-08 0)
(-0.805063 -4.06902e-08 0)
(-0.805063 4.09201e-08 0)
(-0.805063 -4.11455e-08 0)
(-0.805063 4.13669e-08 0)
(-0.805063 -4.15837e-08 0)
(-0.805063 4.17965e-08 0)
(-0.805063 -4.20047e-08 0)
(-0.805063 4.22087e-08 0)
(-0.805063 -4.24081e-08 0)
(-0.805063 4.26032e-08 0)
(-0.805063 -4.27936e-08 0)
(-0.805063 4.29796e-08 0)
(-0.805063 -4.31608e-08 0)
(-0.805063 4.33375e-08 0)
(-0.805063 -4.35095e-08 0)
(-0.805063 4.36767e-08 0)
(-0.805063 -4.38392e-08 0)
(-0.805063 4.39968e-08 0)
(-0.805063 -4.41495e-08 0)
(-0.805063 4.42972e-08 0)
(-0.805063 -4.44401e-08 0)
(-0.805063 4.45777e-08 0)
(-0.805063 -4.47104e-08 0)
(-0.805063 4.48376e-08 0)
(-0.805063 -4.49598e-08 0)
(-0.805063 4.50765e-08 0)
(-0.805063 -4.51879e-08 0)
(-0.805063 4.52936e-08 0)
(-0.805063 -4.53938e-08 0)
(-0.805063 4.54882e-08 0)
(-0.805063 -4.55768e-08 0)
(-0.805063 4.56595e-08 0)
(-0.805063 -4.57359e-08 0)
(-0.805063 4.58063e-08 0)
(-0.805063 -4.58699e-08 0)
(-0.805063 4.59273e-08 0)
(-0.805063 -4.59768e-08 0)
(-0.805063 4.602e-08 0)
(-0.805063 -4.60538e-08 0)
(-0.805063 4.60804e-08 0)
(-0.805063 -4.6094e-08 0)
(-0.805063 4.60882e-08 0)
(-0.805063 -4.60727e-08 0)
(-0.805063 4.60578e-08 0)
(-0.805063 -4.60369e-08 0)
(-0.805063 4.60182e-08 0)
(-0.805063 -4.59996e-08 0)
)
;

boundaryField
{
    inandouthalf11
    {
        type            cyclic;
    }
    inandouthalf12
    {
        type            cyclic;
    }
    inandouthalf21
    {
        type            cyclic;
    }
    inandouthalf22
    {
        type            cyclic;
    }
    inandouthalf31
    {
        type            cyclic;
    }
    inandouthalf32
    {
        type            cyclic;
    }
    inandouthalf41
    {
        type            cyclic;
    }
    inandouthalf42
    {
        type            cyclic;
    }
    top
    {
        type            symmetryPlane;
    }
    walls
    {
        type            calculated;
        value           uniform (0 0 0);
    }
    frontAndBackPlanes
    {
        type            empty;
    }
}


// ************************************************************************* //
