/*--------------------------------*- C++ -*----------------------------------*\
| =========                 |                                                 |
| \\      /  F ield         | OpenFOAM: The Open Source CFD Toolbox           |
|  \\    /   O peration     | Version:  2.4.x                                 |
|   \\  /    A nd           | Web:      www.OpenFOAM.org                      |
|    \\/     M anipulation  |                                                 |
\*---------------------------------------------------------------------------*/
FoamFile
{
    version     2.0;
    format      ascii;
    class       volVectorField;
    location    "4.25";
    object      Ur;
}
// * * * * * * * * * * * * * * * * * * * * * * * * * * * * * * * * * * * * * //

dimensions      [0 1 -1 0 0 0 0];

internalField   nonuniform List<vector> 
360
(
(-6.19487e-05 1.14424e-07 0)
(-6.1766e-05 7.52877e-07 0)
(-6.1687e-05 1.49063e-06 0)
(-6.17085e-05 2.14389e-06 0)
(-6.17346e-05 2.76856e-06 0)
(-6.17509e-05 3.40274e-06 0)
(-6.17652e-05 4.05465e-06 0)
(-6.17791e-05 4.72047e-06 0)
(-6.17923e-05 5.39392e-06 0)
(-6.1806e-05 6.07144e-06 0)
(-6.18206e-05 6.75366e-06 0)
(-6.18354e-05 7.44291e-06 0)
(-6.18505e-05 8.14145e-06 0)
(-6.18655e-05 8.85053e-06 0)
(-6.18806e-05 9.57055e-06 0)
(-6.1896e-05 1.03017e-05 0)
(-6.19116e-05 1.10438e-05 0)
(-6.19274e-05 1.1796e-05 0)
(-6.19433e-05 1.25563e-05 0)
(-6.19595e-05 1.33212e-05 0)
(-6.19753e-05 1.4086e-05 0)
(-6.19913e-05 1.48455e-05 0)
(-6.2007e-05 1.55961e-05 0)
(-6.20225e-05 1.63367e-05 0)
(-6.20379e-05 1.70709e-05 0)
(-6.20534e-05 1.78084e-05 0)
(-6.20691e-05 1.85673e-05 0)
(-6.20859e-05 1.93754e-05 0)
(-6.21044e-05 2.02715e-05 0)
(-6.21252e-05 2.13027e-05 0)
(-6.21494e-05 2.25116e-05 0)
(-6.21771e-05 2.3902e-05 0)
(-6.22059e-05 2.53792e-05 0)
(-6.2233e-05 2.67305e-05 0)
(-6.22532e-05 2.77247e-05 0)
(-6.22659e-05 2.8286e-05 0)
(-6.22727e-05 2.85264e-05 0)
(-6.22771e-05 2.86071e-05 0)
(-6.22808e-05 2.86301e-05 0)
(-6.22837e-05 2.86361e-05 0)
(-6.22875e-05 2.86378e-05 0)
(-6.22912e-05 2.86382e-05 0)
(-6.2295e-05 2.86381e-05 0)
(-6.22996e-05 2.8638e-05 0)
(-6.23042e-05 2.86377e-05 0)
(-6.23093e-05 2.86374e-05 0)
(-6.23148e-05 2.86373e-05 0)
(-6.23203e-05 2.86371e-05 0)
(-6.23266e-05 2.86369e-05 0)
(-6.23337e-05 2.86368e-05 0)
(-6.23408e-05 2.86366e-05 0)
(-6.23487e-05 2.86365e-05 0)
(-6.23569e-05 2.86362e-05 0)
(-6.23659e-05 2.8636e-05 0)
(-6.23751e-05 2.86355e-05 0)
(-6.23855e-05 2.86351e-05 0)
(-6.2396e-05 2.86344e-05 0)
(-6.24075e-05 2.86338e-05 0)
(-6.24195e-05 2.86331e-05 0)
(-6.24318e-05 2.86323e-05 0)
(-6.24453e-05 2.86315e-05 0)
(-6.24588e-05 2.86306e-05 0)
(-6.24731e-05 2.86297e-05 0)
(-6.24875e-05 2.86288e-05 0)
(-6.25024e-05 2.86278e-05 0)
(-6.25176e-05 2.86268e-05 0)
(-6.25333e-05 2.86258e-05 0)
(-6.25496e-05 2.86247e-05 0)
(-6.25665e-05 2.86235e-05 0)
(-6.25838e-05 2.86223e-05 0)
(-6.26021e-05 2.8621e-05 0)
(-6.26211e-05 2.86197e-05 0)
(-6.26404e-05 2.86182e-05 0)
(-6.26606e-05 2.86168e-05 0)
(-6.26811e-05 2.86154e-05 0)
(-6.27024e-05 2.86139e-05 0)
(-6.27238e-05 2.86124e-05 0)
(-6.27458e-05 2.86109e-05 0)
(-6.27682e-05 2.86094e-05 0)
(-6.27913e-05 2.86079e-05 0)
(-6.28148e-05 2.86062e-05 0)
(-6.28391e-05 2.86046e-05 0)
(-6.2864e-05 2.86028e-05 0)
(-6.28895e-05 2.8601e-05 0)
(-6.29158e-05 2.85992e-05 0)
(-6.29426e-05 2.85973e-05 0)
(-6.29701e-05 2.85954e-05 0)
(-6.29981e-05 2.85935e-05 0)
(-6.30268e-05 2.85915e-05 0)
(-6.3056e-05 2.85894e-05 0)
(-6.30859e-05 2.85873e-05 0)
(-6.31165e-05 2.85851e-05 0)
(-6.31478e-05 2.85829e-05 0)
(-6.31798e-05 2.85806e-05 0)
(-6.32127e-05 2.85782e-05 0)
(-6.32463e-05 2.85757e-05 0)
(-6.32807e-05 2.85732e-05 0)
(-6.33159e-05 2.85705e-05 0)
(-6.33519e-05 2.85678e-05 0)
(-6.33888e-05 2.8565e-05 0)
(-6.34266e-05 2.8562e-05 0)
(-6.34653e-05 2.8559e-05 0)
(-6.3505e-05 2.85558e-05 0)
(-6.35457e-05 2.85526e-05 0)
(-6.35874e-05 2.85491e-05 0)
(-6.36302e-05 2.85456e-05 0)
(-6.3674e-05 2.85419e-05 0)
(-6.37191e-05 2.85381e-05 0)
(-6.37653e-05 2.8534e-05 0)
(-6.38128e-05 2.85299e-05 0)
(-6.38617e-05 2.85255e-05 0)
(-6.39119e-05 2.8521e-05 0)
(-6.39635e-05 2.85162e-05 0)
(-6.40166e-05 2.85113e-05 0)
(-6.40713e-05 2.85061e-05 0)
(-6.41277e-05 2.85007e-05 0)
(-6.41857e-05 2.84951e-05 0)
(-6.42456e-05 2.84892e-05 0)
(-6.43073e-05 2.84831e-05 0)
(-6.4371e-05 2.84767e-05 0)
(-6.44368e-05 2.84701e-05 0)
(-6.45047e-05 2.84631e-05 0)
(-6.4575e-05 2.84559e-05 0)
(-6.46476e-05 2.84483e-05 0)
(-6.47227e-05 2.84405e-05 0)
(-6.48004e-05 2.84322e-05 0)
(-6.4881e-05 2.84236e-05 0)
(-6.49647e-05 2.84145e-05 0)
(-6.50518e-05 2.8405e-05 0)
(-6.51424e-05 2.83949e-05 0)
(-6.52369e-05 2.83843e-05 0)
(-6.53353e-05 2.8373e-05 0)
(-6.54381e-05 2.8361e-05 0)
(-6.55466e-05 2.83481e-05 0)
(-6.5662e-05 2.83343e-05 0)
(-6.57843e-05 2.83197e-05 0)
(-6.59128e-05 2.83039e-05 0)
(-6.60493e-05 2.82865e-05 0)
(-6.62006e-05 2.82671e-05 0)
(-6.63747e-05 2.82461e-05 0)
(-6.6564e-05 2.82248e-05 0)
(-6.67443e-05 2.8198e-05 0)
(-6.69592e-05 2.81682e-05 0)
(-6.72387e-05 2.81332e-05 0)
(-6.75833e-05 2.80762e-05 0)
(-6.81708e-05 2.81888e-05 0)
(-7.31411e-05 2.38787e-05 0)
(-0.00108689 -0.000100975 0)
(-0.0108784 -0.00119792 0)
(-0.0113477 -0.00149614 0)
(-0.00966682 -0.00173533 0)
(-0.00817501 -0.00190634 0)
(-0.00714859 -0.00209364 0)
(-0.00647629 -0.00229154 0)
(-0.00608357 -0.00250252 0)
(-0.0059325 -0.00272898 0)
(-0.00600462 -0.00297195 0)
(-0.00629282 -0.00323099 0)
(-0.00679977 -0.00350468 0)
(-0.00753669 -0.00379078 0)
(-0.00852254 -0.00408658 0)
(-0.00978185 -0.00438897 0)
(-0.011341 -0.00469437 0)
(-0.0132236 -0.00499878 0)
(-0.0154459 -0.00529761 0)
(-0.0180114 -0.0055856 0)
(-0.020906 -0.00585596 0)
(-0.0240942 -0.00609704 0)
(-0.0275146 -0.00628673 0)
(-0.031078 -0.00639109 0)
(-0.0346676 -0.00637739 0)
(-0.0381484 -0.00623659 0)
(-0.0413867 -0.00599282 0)
(-0.0442727 -0.00568983 0)
(-0.0467347 -0.00537045 0)
(-0.0487424 -0.0050654 0)
(-0.0503019 -0.00479246 0)
(-0.0514463 -0.00456001 0)
(-0.0522251 -0.00437061 0)
(-0.0526947 -0.00422352 0)
(-0.0529102 -0.00411614 0)
(-0.0529212 -0.00404479 0)
(-0.052769 -0.00400506 0)
(-0.0524866 -0.00399188 0)
(-0.0520984 -0.00399954 0)
(-0.0516221 -0.00402155 0)
(-0.0510693 -0.00405065 0)
(-0.050447 -0.00407917 0)
(-0.0497587 -0.00410028 0)
(-0.049006 -0.00411013 0)
(-0.0481903 -0.0041093 0)
(-0.0473135 -0.00410144 0)
(-0.0463784 -0.00408988 0)
(-0.0453872 -0.00407543 0)
(-0.0443424 -0.00405764 0)
(-0.0432459 -0.0040368 0)
(-0.0421001 -0.00401381 0)
(-0.0409069 -0.00398902 0)
(-0.0396685 -0.00396225 0)
(-0.0383868 -0.00393363 0)
(-0.0370637 -0.00390377 0)
(-0.0356871 -0.00387283 0)
(-0.0342434 -0.00383992 0)
(-0.0327326 -0.00380416 0)
(-0.0311539 -0.00376624 0)
(-0.0295068 -0.00372757 0)
(-0.0277916 -0.00368703 0)
(-0.0260092 -0.00364245 0)
(-0.0241587 -0.00359523 0)
(-0.0222396 -0.00354726 0)
(-0.0202534 -0.0034961 0)
(-0.0182009 -0.0034407 0)
(-0.0160812 -0.00338336 0)
(-0.0138958 -0.00332322 0)
(-0.0116461 -0.00325879 0)
(-0.00933149 -0.00319261 0)
(-0.00695401 -0.00312415 0)
(-0.00451754 -0.00305011 0)
(-0.00202121 -0.0029738 0)
(0.000534279 -0.00289815 0)
(0.0031415 -0.00281798 0)
(0.00579798 -0.00273337 0)
(0.00850275 -0.00264745 0)
(0.0112487 -0.00255631 0)
(0.0140327 -0.00246064 0)
(0.0168486 -0.00235988 0)
(0.0196865 -0.00224865 0)
(0.022546 -0.00213235 0)
(0.0254153 -0.00200776 0)
(0.0282768 -0.00186506 0)
(0.0311267 -0.00170953 0)
(0.0339562 -0.0015419 0)
(0.0367704 -0.00137479 0)
(0.0395852 -0.00123436 0)
(0.0423922 -0.00112887 0)
(0.0451617 -0.00106069 0)
(0.0477166 -0.000948903 0)
(-0.00218004 0.03543 0)
(-0.00167792 0.0396994 0)
(-0.00140887 0.0395866 0)
(-0.00120873 0.0395556 0)
(-0.00119513 0.039546 0)
(-0.00119457 0.0395458 0)
(-0.0011944 0.0395458 0)
(-0.00119425 0.0395458 0)
(-0.00119414 0.0395458 0)
(-0.00119405 0.0395458 0)
(-0.00119398 0.0395458 0)
(-0.00119392 0.0395458 0)
(-0.00119387 0.0395458 0)
(-0.00119383 0.0395458 0)
(-0.0011938 0.0395458 0)
(-0.00119377 0.0395458 0)
(-0.00119375 0.0395458 0)
(-0.00119373 0.0395458 0)
(-0.00119372 0.0395458 0)
(-0.00119371 0.0395458 0)
(-0.0011937 0.0395458 0)
(-0.00119369 0.0395458 0)
(-0.00119369 0.0395458 0)
(-0.00119368 0.0395458 0)
(-0.00119368 0.0395458 0)
(-0.00119368 0.0395458 0)
(-0.00119367 0.0395458 0)
(-0.00119367 0.0395458 0)
(-0.00119367 0.0395458 0)
(-0.00119367 0.0395458 0)
(-0.00119367 0.0395458 0)
(-0.00119367 0.0395458 0)
(-0.00119367 0.0395458 0)
(-0.00119367 0.0395458 0)
(-0.00119367 0.0395458 0)
(-0.00119367 0.0395458 0)
(-0.00119367 0.0395458 0)
(-0.00119367 0.0395458 0)
(-0.00119367 0.0395458 0)
(-0.00119367 0.0395458 0)
(-0.00119367 0.0395458 0)
(-0.00119367 0.0395458 0)
(-0.00119367 0.0395458 0)
(-0.00119367 0.0395458 0)
(-0.00119367 0.0395458 0)
(-0.00119367 0.0395458 0)
(-0.00119367 0.0395458 0)
(-0.00119367 0.0395458 0)
(-0.00119367 0.0395458 0)
(-0.00119367 0.0395458 0)
(-0.00119367 0.0395458 0)
(-0.00119367 0.0395458 0)
(-0.00119367 0.0395458 0)
(-0.00119367 0.0395458 0)
(-0.00119367 0.0395458 0)
(-0.00119367 0.0395458 0)
(-0.00119367 0.0395458 0)
(-0.00119367 0.0395458 0)
(-0.00119367 0.0395458 0)
(-0.00119367 0.0395458 0)
(-0.00119367 0.0395458 0)
(-0.00119367 0.0395458 0)
(-0.00119367 0.0395458 0)
(-0.00119367 0.0395458 0)
(-0.00119367 0.0395458 0)
(-0.00119367 0.0395458 0)
(-0.00119367 0.0395458 0)
(-0.00119367 0.0395458 0)
(-0.00119367 0.0395458 0)
(-0.00119367 0.0395458 0)
(-0.00119367 0.0395458 0)
(-0.00119367 0.0395458 0)
(-0.00119367 0.0395458 0)
(-0.00119367 0.0395458 0)
(-0.00119367 0.0395458 0)
(-0.00119367 0.0395458 0)
(-0.00119367 0.0395458 0)
(-0.00119367 0.0395458 0)
(-0.00119367 0.0395458 0)
(-0.00119367 0.0395458 0)
(-0.00119367 0.0395458 0)
(-0.00119367 0.0395458 0)
(-0.00119367 0.0395458 0)
(-0.00119367 0.0395458 0)
(-0.00119367 0.0395458 0)
(-0.00119367 0.0395458 0)
(-0.00119367 0.0395458 0)
(-0.00119367 0.0395458 0)
(-0.00119367 0.0395458 0)
(-0.00119367 0.0395458 0)
(-0.00119367 0.0395458 0)
(-0.00119367 0.0395458 0)
(-0.00119367 0.0395458 0)
(-0.00119367 0.0395458 0)
(-0.00119367 0.0395458 0)
(-0.00119367 0.0395458 0)
(-0.00119367 0.0395458 0)
(-0.00119367 0.0395458 0)
(-0.00119367 0.0395458 0)
(-0.00119367 0.0395458 0)
(-0.00119367 0.0395458 0)
(-0.00119367 0.0395458 0)
(-0.00119367 0.0395458 0)
(-0.00119367 0.0395458 0)
(-0.00119367 0.0395458 0)
(-0.00119367 0.0395458 0)
(-0.00119367 0.0395458 0)
(-0.00119367 0.0395458 0)
(-0.00119367 0.0395458 0)
(-0.00119367 0.0395458 0)
(-0.00119367 0.0395458 0)
(-0.00119367 0.0395458 0)
(-0.00119367 0.0395458 0)
(-0.00119367 0.0395458 0)
(-0.00119367 0.0395458 0)
(-0.00119367 0.0395458 0)
(-0.00119367 0.0395458 0)
(-0.00119367 0.0395458 0)
(-0.00119367 0.0395458 0)
(-0.00119368 0.0395456 0)
(-0.00119404 0.0395371 0)
(-0.00120259 0.0391927 0)
(-0.00139924 0.0224918 0)
)
;

boundaryField
{
    inandouthalf11
    {
        type            cyclic;
    }
    inandouthalf12
    {
        type            cyclic;
    }
    inandouthalf21
    {
        type            cyclic;
    }
    inandouthalf22
    {
        type            cyclic;
    }
    inandouthalf31
    {
        type            cyclic;
    }
    inandouthalf32
    {
        type            cyclic;
    }
    inandouthalf41
    {
        type            cyclic;
    }
    inandouthalf42
    {
        type            cyclic;
    }
    top
    {
        type            symmetryPlane;
    }
    walls
    {
        type            calculated;
        value           uniform (0 0 0);
    }
    frontAndBackPlanes
    {
        type            empty;
    }
}


// ************************************************************************* //
