/*--------------------------------*- C++ -*----------------------------------*\
| =========                 |                                                 |
| \\      /  F ield         | OpenFOAM: The Open Source CFD Toolbox           |
|  \\    /   O peration     | Version:  2.4.x                                 |
|   \\  /    A nd           | Web:      www.OpenFOAM.org                      |
|    \\/     M anipulation  |                                                 |
\*---------------------------------------------------------------------------*/
FoamFile
{
    version     2.0;
    format      ascii;
    class       volScalarField;
    location    "4.85";
    object      alpha;
}
// * * * * * * * * * * * * * * * * * * * * * * * * * * * * * * * * * * * * * //

dimensions      [0 0 0 0 0 0 0];

internalField   nonuniform List<scalar> 
360
(
0.610503
0.611137
0.611278
0.611222
0.611172
0.611145
0.611121
0.611097
0.611073
0.611047
0.611021
0.610994
0.610967
0.610941
0.610914
0.610887
0.61086
0.610832
0.610804
0.610776
0.610747
0.610719
0.610689
0.61066
0.61063
0.610599
0.610569
0.610538
0.610508
0.610478
0.610448
0.610418
0.610389
0.610359
0.610329
0.610297
0.610262
0.610222
0.610175
0.610123
0.610066
0.610013
0.609971
0.609943
0.609925
0.609913
0.609902
0.609891
0.609879
0.609866
0.609852
0.609837
0.609821
0.609804
0.609787
0.609767
0.609747
0.609725
0.609702
0.609678
0.609653
0.609627
0.6096
0.609572
0.609544
0.609515
0.609485
0.609454
0.609422
0.609389
0.609354
0.609318
0.609282
0.609243
0.609204
0.609164
0.609123
0.609082
0.609039
0.608995
0.608951
0.608905
0.608857
0.608809
0.608759
0.608709
0.608657
0.608604
0.608549
0.608494
0.608438
0.60838
0.608321
0.608261
0.608199
0.608135
0.608071
0.608004
0.607936
0.607867
0.607796
0.607723
0.607649
0.607573
0.607494
0.607414
0.607332
0.607248
0.607161
0.607072
0.606981
0.606887
0.606791
0.606692
0.60659
0.606485
0.606377
0.606266
0.606151
0.606033
0.605911
0.605785
0.605655
0.605521
0.605382
0.605239
0.60509
0.604936
0.604776
0.60461
0.604437
0.604256
0.604068
0.60387
0.60366
0.603437
0.603203
0.602956
0.602681
0.602366
0.602025
0.601701
0.601315
0.600814
0.600198
0.599129
0.595431
0.489731
0.302123
0.231227
0.191458
0.159472
0.13223
0.108774
0.0887861
0.072038
0.0582331
0.0470031
0.0379508
0.0306923
0.0248847
0.0202372
0.0165113
0.0135159
0.0110994
0.00914254
0.00755177
0.00625359
0.00519024
0.00431611
0.00359511
0.00299854
0.00250345
0.00209148
0.00174779
0.00146031
0.00121904
0.00101558
0.000842933
0.000695637
0.000569947
0.000463646
0.000375343
0.000303613
0.000246515
0.000201648
0.000166518
0.000138863
0.000116832
9.89883e-05
8.41892e-05
7.15051e-05
6.03419e-05
5.05696e-05
4.23169e-05
3.55704e-05
3.00767e-05
2.5546e-05
2.17787e-05
1.86518e-05
1.6047e-05
1.38035e-05
1.18487e-05
1.02098e-05
8.83092e-06
7.57952e-06
6.48693e-06
5.61228e-06
4.84064e-06
4.13014e-06
3.54675e-06
3.04924e-06
2.59682e-06
2.22117e-06
1.89726e-06
1.60013e-06
1.3629e-06
1.164e-06
9.70325e-07
8.16273e-07
6.90866e-07
5.73306e-07
4.77542e-07
3.93762e-07
3.22493e-07
2.67207e-07
2.14337e-07
1.72841e-07
1.40279e-07
1.1e-07
8.61811e-08
6.56637e-08
4.99804e-08
4.06491e-08
3.56166e-08
2.87594e-08
3.30223e-08
1.88094e-09
1.14916e-18
4.94497e-19
1.8168e-19
7.11859e-20
3.28652e-20
1.77138e-20
1.10805e-20
7.87598e-21
6.24409e-21
5.32112e-21
4.62694e-21
3.91232e-21
3.06282e-21
2.07402e-21
1.03563e-21
4.45546e-22
2.3185e-22
1.40619e-22
9.64242e-23
7.32862e-23
5.74962e-23
4.12304e-23
2.21302e-23
8.94011e-24
4.26412e-24
2.30228e-24
1.34975e-24
8.5033e-25
5.24993e-25
2.59166e-25
1.20567e-25
6.12726e-26
3.18305e-26
1.64222e-26
8.10461e-27
3.98152e-27
1.91965e-27
9.06282e-28
4.18619e-28
1.89024e-28
8.33605e-29
3.587e-29
1.50447e-29
6.14382e-30
2.43999e-30
9.41203e-31
3.52157e-31
1.27618e-31
4.47223e-32
1.51295e-32
4.93172e-33
1.54581e-33
4.64857e-34
1.33785e-34
3.67463e-35
9.60284e-36
2.37933e-36
5.56759e-37
1.22484e-37
2.5202e-38
4.82054e-39
8.51022e-40
1.37474e-40
2.01067e-41
2.62745e-42
3.01547e-43
2.9703e-44
2.43052e-45
1.57181e-46
7.37134e-48
2.08154e-49
1.62281e-51
1.16921e-54
1.59505e-56
1.07996e-58
2.19326e-69
2.2434e-80
1.67656e-91
9.28582e-103
4.36941e-114
1.67705e-125
6.03415e-137
1.20671e-145
3.56962e-156
4.16114e-164
1.13052e-174
1.43149e-182
4.74402e-193
4.92404e-201
2.09599e-211
1.69522e-219
1.38946e-229
5.89775e-238
9.18308e-248
2.08541e-256
4.60145e-266
7.48972e-275
2.18031e-284
2.7303e-293
9.60963e-303
1.01174e-311
7.60662e-318
5.91397e-321
7.09478e-321
6.08689e-321
8.5424e-321
0
0
0
0
0
0
0
0
0
0
0
0
0
0
0
0
)
;

boundaryField
{
    inandouthalf11
    {
        type            cyclic;
    }
    inandouthalf12
    {
        type            cyclic;
    }
    inandouthalf21
    {
        type            cyclic;
    }
    inandouthalf22
    {
        type            cyclic;
    }
    inandouthalf31
    {
        type            cyclic;
    }
    inandouthalf32
    {
        type            cyclic;
    }
    inandouthalf41
    {
        type            cyclic;
    }
    inandouthalf42
    {
        type            cyclic;
    }
    top
    {
        type            symmetryPlane;
    }
    walls
    {
        type            zeroGradient;
    }
    frontAndBackPlanes
    {
        type            empty;
    }
}


// ************************************************************************* //
