/*--------------------------------*- C++ -*----------------------------------*\
| =========                 |                                                 |
| \\      /  F ield         | OpenFOAM: The Open Source CFD Toolbox           |
|  \\    /   O peration     | Version:  2.4.x                                 |
|   \\  /    A nd           | Web:      www.OpenFOAM.org                      |
|    \\/     M anipulation  |                                                 |
\*---------------------------------------------------------------------------*/
FoamFile
{
    version     2.0;
    format      ascii;
    class       volVectorField;
    location    "4.85";
    object      ddt0(Ua);
}
// * * * * * * * * * * * * * * * * * * * * * * * * * * * * * * * * * * * * * //

dimensions      [0 1 -2 0 0 0 0];

internalField   nonuniform List<vector> 
360
(
(5.18726e-34 -8.0498e-33 0)
(1.16795e-08 3.91766e-08 0)
(2.95308e-08 9.99096e-08 0)
(4.57617e-08 1.49639e-07 0)
(6.06489e-08 1.93309e-07 0)
(7.56752e-08 2.37628e-07 0)
(9.15814e-08 2.85789e-07 0)
(1.08414e-07 3.37851e-07 0)
(1.25916e-07 3.92504e-07 0)
(1.43877e-07 4.48739e-07 0)
(1.62267e-07 5.06482e-07 0)
(1.81181e-07 5.6616e-07 0)
(2.00722e-07 6.28221e-07 0)
(2.20966e-07 6.92938e-07 0)
(2.41972e-07 7.60497e-07 0)
(2.63836e-07 8.31251e-07 0)
(2.86719e-07 9.05831e-07 0)
(3.1084e-07 9.85096e-07 0)
(3.36445e-07 1.07e-06 0)
(3.63762e-07 1.16143e-06 0)
(3.92924e-07 1.25986e-06 0)
(4.23891e-07 1.36508e-06 0)
(4.56352e-07 1.47583e-06 0)
(4.89613e-07 1.58936e-06 0)
(5.22541e-07 1.7012e-06 0)
(5.53611e-07 1.80544e-06 0)
(5.81136e-07 1.89551e-06 0)
(6.0371e-07 1.96602e-06 0)
(6.208e-07 2.01494e-06 0)
(6.33394e-07 2.046e-06 0)
(6.4452e-07 2.07054e-06 0)
(6.59448e-07 2.10805e-06 0)
(6.85641e-07 2.18569e-06 0)
(7.32718e-07 2.33784e-06 0)
(8.12701e-07 2.60702e-06 0)
(9.40358e-07 3.04537e-06 0)
(1.13227e-06 3.71303e-06 0)
(1.39984e-06 4.6565e-06 0)
(1.72627e-06 5.83158e-06 0)
(2.02055e-06 6.93445e-06 0)
(2.09034e-06 7.27631e-06 0)
(1.7579e-06 6.1696e-06 0)
(1.11338e-06 3.89842e-06 0)
(5.06373e-07 1.74745e-06 0)
(1.64949e-07 5.54668e-07 0)
(4.04476e-08 1.30191e-07 0)
(7.89455e-09 2.22501e-08 0)
(8.35762e-10 -5.02242e-10 0)
(-6.60836e-10 -5.1984e-09 0)
(-1.00829e-09 -6.26352e-09 0)
(-1.09586e-09 -6.52707e-09 0)
(-1.1124e-09 -6.57674e-09 0)
(-1.1022e-09 -6.54814e-09 0)
(-1.07574e-09 -6.47349e-09 0)
(-1.0346e-09 -6.35862e-09 0)
(-9.78632e-10 -6.20456e-09 0)
(-9.08835e-10 -6.01566e-09 0)
(-8.28308e-10 -5.80188e-09 0)
(-7.4169e-10 -5.57668e-09 0)
(-6.53804e-10 -5.35326e-09 0)
(-5.68301e-10 -5.14078e-09 0)
(-4.87092e-10 -4.94341e-09 0)
(-4.10483e-10 -4.76103e-09 0)
(-3.37682e-10 -4.59078e-09 0)
(-2.67374e-10 -4.42875e-09 0)
(-1.98115e-10 -4.271e-09 0)
(-1.28551e-10 -4.11404e-09 0)
(-5.74808e-11 -3.95496e-09 0)
(1.61269e-11 -3.79139e-09 0)
(9.31834e-11 -3.62141e-09 0)
(1.74534e-10 -3.44325e-09 0)
(2.60916e-10 -3.25545e-09 0)
(3.52858e-10 -3.05712e-09 0)
(4.50687e-10 -2.84783e-09 0)
(5.5452e-10 -2.62758e-09 0)
(6.64217e-10 -2.39695e-09 0)
(7.79386e-10 -2.15706e-09 0)
(8.99485e-10 -1.90933e-09 0)
(1.02397e-09 -1.65507e-09 0)
(1.1524e-09 -1.39535e-09 0)
(1.28447e-09 -1.13094e-09 0)
(1.42004e-09 -8.62161e-10 0)
(1.55918e-09 -5.88952e-10 0)
(1.70206e-09 -3.1103e-10 0)
(1.8489e-09 -2.80574e-11 0)
(1.99987e-09 2.60235e-10 0)
(2.15509e-09 5.53945e-10 0)
(2.31454e-09 8.52939e-10 0)
(2.47811e-09 1.15688e-09 0)
(2.64565e-09 1.46533e-09 0)
(2.81696e-09 1.77785e-09 0)
(2.99188e-09 2.09404e-09 0)
(3.17032e-09 2.4136e-09 0)
(3.35222e-09 2.73637e-09 0)
(3.53759e-09 3.06228e-09 0)
(3.72646e-09 3.39126e-09 0)
(3.91884e-09 3.72326e-09 0)
(4.11474e-09 4.05818e-09 0)
(4.31416e-09 4.39586e-09 0)
(4.51704e-09 4.73611e-09 0)
(4.72332e-09 5.07867e-09 0)
(4.93291e-09 5.42326e-09 0)
(5.14571e-09 5.76959e-09 0)
(5.36162e-09 6.11733e-09 0)
(5.58052e-09 6.46617e-09 0)
(5.80228e-09 6.81574e-09 0)
(6.02677e-09 7.1657e-09 0)
(6.25385e-09 7.51567e-09 0)
(6.48339e-09 7.8653e-09 0)
(6.71525e-09 8.21422e-09 0)
(6.94934e-09 8.56211e-09 0)
(7.18555e-09 8.90867e-09 0)
(7.42384e-09 9.25363e-09 0)
(7.66421e-09 9.59682e-09 0)
(7.90671e-09 9.93809e-09 0)
(8.15147e-09 1.02774e-08 0)
(8.39869e-09 1.06147e-08 0)
(8.64867e-09 1.09503e-08 0)
(8.9018e-09 1.12842e-08 0)
(9.15856e-09 1.16167e-08 0)
(9.41948e-09 1.19481e-08 0)
(9.68512e-09 1.22786e-08 0)
(9.95596e-09 1.26083e-08 0)
(1.02324e-08 1.29369e-08 0)
(1.05145e-08 1.32638e-08 0)
(1.08021e-08 1.35882e-08 0)
(1.10945e-08 1.39084e-08 0)
(1.13905e-08 1.42225e-08 0)
(1.16885e-08 1.4528e-08 0)
(1.19859e-08 1.48218e-08 0)
(1.22798e-08 1.51007e-08 0)
(1.25668e-08 1.53611e-08 0)
(1.2844e-08 1.56007e-08 0)
(1.31099e-08 1.58183e-08 0)
(1.33641e-08 1.60143e-08 0)
(1.36073e-08 1.61901e-08 0)
(1.38407e-08 1.63465e-08 0)
(1.40657e-08 1.64847e-08 0)
(1.42844e-08 1.66065e-08 0)
(1.44949e-08 1.67127e-08 0)
(1.46853e-08 1.67988e-08 0)
(1.48337e-08 1.68555e-08 0)
(1.49283e-08 1.6883e-08 0)
(1.49775e-08 1.68922e-08 0)
(1.50006e-08 1.68926e-08 0)
(1.50149e-08 1.68882e-08 0)
(1.50361e-08 1.68807e-08 0)
(0.0317725 2.44751e-05 0)
(0.0603158 -0.000349968 0)
(0.0624032 -0.000442251 0)
(0.0670931 -0.000596679 0)
(0.0735225 -0.000665049 0)
(0.0806383 -0.000737322 0)
(0.0879255 -0.000809187 0)
(0.0951004 -0.000887567 0)
(0.101993 -0.000975853 0)
(0.108503 -0.00107652 0)
(0.114579 -0.00119194 0)
(0.120197 -0.0013288 0)
(0.125356 -0.00147767 0)
(0.130062 -0.00163988 0)
(0.134322 -0.00182248 0)
(0.138142 -0.00202068 0)
(0.141525 -0.0022326 0)
(0.144471 -0.00245644 0)
(0.146977 -0.00269004 0)
(0.149037 -0.00293099 0)
(0.150641 -0.0031767 0)
(0.151779 -0.00342427 0)
(0.152439 -0.00367036 0)
(0.152609 -0.00391095 0)
(0.152282 -0.00414109 0)
(0.151454 -0.00435492 0)
(0.150126 -0.00454558 0)
(0.148312 -0.00470427 0)
(0.146034 -0.00481633 0)
(0.143327 -0.00485354 0)
(0.140245 -0.00476718 0)
(0.13686 -0.00449295 0)
(0.133272 -0.00397678 0)
(0.129596 -0.00321348 0)
(0.125956 -0.00227004 0)
(0.122454 -0.00126872 0)
(0.119158 -0.000338116 0)
(0.116096 0.000431999 0)
(0.113261 0.00100618 0)
(0.110631 0.00139223 0)
(0.108178 0.00162104 0)
(0.105877 0.00173024 0)
(0.103712 0.00175647 0)
(0.101676 0.00173485 0)
(0.0997745 0.00169822 0)
(0.098018 0.0016698 0)
(0.0964142 0.00165452 0)
(0.0949569 0.00164266 0)
(0.0936292 0.00162445 0)
(0.0924136 0.00159915 0)
(0.0912976 0.00157131 0)
(0.0902706 0.0015442 0)
(0.0893216 0.00151834 0)
(0.0884418 0.00149481 0)
(0.0876179 0.00147644 0)
(0.086837 0.00146327 0)
(0.0860892 0.00145091 0)
(0.0853711 0.00143981 0)
(0.0846876 0.00143665 0)
(0.084031 0.00143906 0)
(0.0833878 0.00143928 0)
(0.0827631 0.00144225 0)
(0.0821606 0.00145361 0)
(0.0815679 0.00146675 0)
(0.0809827 0.00148067 0)
(0.0804083 0.00150016 0)
(0.0798379 0.0015219 0)
(0.0792719 0.00154641 0)
(0.0787112 0.00157756 0)
(0.0781441 0.00160795 0)
(0.0775749 0.00163827 0)
(0.0770125 0.00167902 0)
(0.0764429 0.00172228 0)
(0.0758643 0.00176257 0)
(0.075286 0.00180944 0)
(0.0747042 0.00186152 0)
(0.0741178 0.00191738 0)
(0.0735231 0.00197619 0)
(0.0729214 0.00203366 0)
(0.0723186 0.00209831 0)
(0.0717065 0.00216452 0)
(0.0710874 0.00222245 0)
(0.0704686 0.00228246 0)
(0.0698472 0.00234151 0)
(0.0692202 0.00239107 0)
(0.0685784 0.0024069 0)
(0.0679286 0.00232895 0)
(0.067323 0.0021427 0)
(0.0668 0.00185147 0)
(0.0661863 0.00110324 0)
(-0.0370165 0.0262805 0)
(-0.0332135 0.0695819 0)
(-0.0449449 -0.00129864 0)
(-0.0393281 0.000365397 0)
(-0.0397567 1.2765e-05 0)
(-0.0394131 3.16211e-05 0)
(-0.0385292 -7.04247e-06 0)
(-0.0371748 -8.18039e-05 0)
(-0.0308603 -0.000204705 0)
(-0.0229277 -0.000195824 0)
(-0.0202841 -5.58507e-05 0)
(-0.0201724 -2.59101e-06 0)
(-0.0201703 -2.95051e-07 0)
(-0.0201704 -3.92763e-07 0)
(-0.0201704 -3.85882e-07 0)
(-0.0201704 -3.87134e-07 0)
(-0.0201704 -3.85879e-07 0)
(-0.0201704 -3.87008e-07 0)
(-0.0201704 -3.85702e-07 0)
(-0.0201704 -3.86949e-07 0)
(-0.0201703 -3.85576e-07 0)
(-0.0201703 -3.86935e-07 0)
(-0.0201703 -3.85479e-07 0)
(-0.0201703 -3.8695e-07 0)
(-0.0201703 -3.85399e-07 0)
(-0.0201703 -3.86988e-07 0)
(-0.0201703 -3.8533e-07 0)
(-0.0201703 -3.87043e-07 0)
(-0.0201703 -3.85269e-07 0)
(-0.0201703 -3.87113e-07 0)
(-0.0201703 -3.85207e-07 0)
(-0.0201703 -3.87121e-07 0)
(-0.0201703 -3.85359e-07 0)
(-0.0201703 -3.86948e-07 0)
(-0.0201703 -3.8538e-07 0)
(-0.0201703 -3.87183e-07 0)
(-0.0201703 -3.85214e-07 0)
(-0.0201703 -3.87273e-07 0)
(-0.0201703 -3.85148e-07 0)
(-0.0201703 -3.87364e-07 0)
(-0.0201703 -3.85074e-07 0)
(-0.0201703 -3.87454e-07 0)
(-0.0201703 -3.84991e-07 0)
(-0.0201703 -3.87544e-07 0)
(-0.0201703 -3.84894e-07 0)
(-0.0201703 -3.87652e-07 0)
(-0.0201703 -3.8481e-07 0)
(-0.0201703 -3.87746e-07 0)
(-0.0201703 -3.84708e-07 0)
(-0.0201703 -3.8783e-07 0)
(-0.0201703 -3.84583e-07 0)
(-0.0201703 -3.87914e-07 0)
(-0.0201703 -3.84454e-07 0)
(-0.0201703 -3.88e-07 0)
(-0.0201703 -3.84313e-07 0)
(-0.0201703 -3.88082e-07 0)
(-0.0201703 -3.84158e-07 0)
(-0.0201703 -3.88163e-07 0)
(-0.0201703 -3.83998e-07 0)
(-0.0201703 -3.88257e-07 0)
(-0.0201703 -3.83847e-07 0)
(-0.0201703 -3.88373e-07 0)
(-0.0201703 -3.83707e-07 0)
(-0.0201703 -3.88501e-07 0)
(-0.0201703 -3.83562e-07 0)
(-0.0201703 -3.88632e-07 0)
(-0.0201703 -3.83412e-07 0)
(-0.0201703 -3.88765e-07 0)
(-0.0201703 -3.83258e-07 0)
(-0.0201703 -3.88901e-07 0)
(-0.0201703 -3.83102e-07 0)
(-0.0201703 -3.89036e-07 0)
(-0.0201703 -3.82924e-07 0)
(-0.0201703 -3.88758e-07 0)
(-0.0201703 -3.8326e-07 0)
(-0.0201703 -3.88755e-07 0)
(-0.0201703 -3.83235e-07 0)
(-0.0201703 -3.88752e-07 0)
(-0.0201703 -3.83211e-07 0)
(-0.0201703 -3.88749e-07 0)
(-0.0201703 -3.83188e-07 0)
(-0.0201703 -3.88746e-07 0)
(-0.0201703 -3.83165e-07 0)
(-0.0201703 -3.88741e-07 0)
(-0.0201703 -3.83137e-07 0)
(-0.0201703 -3.88729e-07 0)
(-0.0201703 -3.8311e-07 0)
(-0.0201703 -3.88714e-07 0)
(-0.0201703 -3.83076e-07 0)
(-0.0201703 -3.88688e-07 0)
(-0.0201703 -3.83031e-07 0)
(-0.0201703 -3.88594e-07 0)
(-0.0201703 -3.82836e-07 0)
(-0.0201703 -3.88358e-07 0)
(-0.0201703 -3.82581e-07 0)
(-0.0201703 -3.8811e-07 0)
(-0.0201703 -3.82324e-07 0)
(-0.0201703 -3.87864e-07 0)
(-0.0201703 -3.82085e-07 0)
(-0.0201703 -3.87624e-07 0)
(-0.0201703 -3.81827e-07 0)
(-0.0201703 -3.87373e-07 0)
(-0.0201703 -3.81601e-07 0)
(-0.0201703 -3.87167e-07 0)
(-0.0201703 -3.81402e-07 0)
(-0.0201703 -3.86986e-07 0)
(-0.0201703 -3.81247e-07 0)
(-0.0201703 -3.86792e-07 0)
(-0.0201703 -3.80975e-07 0)
(-0.0201703 -3.86487e-07 0)
(-0.0201703 -3.80697e-07 0)
(-0.0201703 -3.86226e-07 0)
(-0.0201703 -3.80434e-07 0)
(-0.0201703 -3.85918e-07 0)
(-0.0201703 -3.79972e-07 0)
(-0.0201703 -3.85388e-07 0)
(-0.0201703 -3.79511e-07 0)
(-0.0201703 -3.84635e-07 0)
(-0.0201703 -3.77932e-07 0)
(-0.0201703 -3.88151e-07 0)
(-0.0201706 -1.22497e-06 0)
(-0.0201761 -7.88432e-05 0)
(-0.0202998 -8.47423e-05 0)
)
;

boundaryField
{
    inandouthalf11
    {
        type            cyclic;
    }
    inandouthalf12
    {
        type            cyclic;
    }
    inandouthalf21
    {
        type            cyclic;
    }
    inandouthalf22
    {
        type            cyclic;
    }
    inandouthalf31
    {
        type            cyclic;
    }
    inandouthalf32
    {
        type            cyclic;
    }
    inandouthalf41
    {
        type            cyclic;
    }
    inandouthalf42
    {
        type            cyclic;
    }
    top
    {
        type            symmetryPlane;
    }
    walls
    {
        type            calculated;
        value           uniform (0 0 0);
    }
    frontAndBackPlanes
    {
        type            empty;
    }
}


// ************************************************************************* //
