/*--------------------------------*- C++ -*----------------------------------*\
| =========                 |                                                 |
| \\      /  F ield         | OpenFOAM: The Open Source CFD Toolbox           |
|  \\    /   O peration     | Version:  2.4.x                                 |
|   \\  /    A nd           | Web:      www.OpenFOAM.org                      |
|    \\/     M anipulation  |                                                 |
\*---------------------------------------------------------------------------*/
FoamFile
{
    version     2.0;
    format      ascii;
    class       volScalarField;
    location    "4.85";
    object      ddt0(((1.5*(alpha+1e-08))*rho),Theta);
}
// * * * * * * * * * * * * * * * * * * * * * * * * * * * * * * * * * * * * * //

dimensions      [1 -1 -3 0 0 0 0];

internalField   nonuniform List<scalar> 
360
(
-6.34099e-21
-3.14869e-20
-3.09909e-20
-2.38588e-20
-2.28318e-20
-2.47807e-20
-2.73907e-20
-2.94646e-20
-3.07974e-20
-3.18431e-20
-3.30714e-20
-3.46234e-20
-3.64211e-20
-3.83622e-20
-4.0471e-20
-4.29059e-20
-4.58483e-20
-4.94259e-20
-5.36888e-20
-5.85304e-20
-6.36377e-20
-6.84916e-20
-7.2244e-20
-7.37195e-20
-7.1651e-20
-6.50922e-20
-5.40776e-20
-4.01831e-20
-2.67071e-20
-1.83069e-20
-2.00419e-20
-3.65866e-20
-7.2819e-20
-1.36362e-19
-2.41863e-19
-4.16359e-19
-6.97929e-19
-1.09268e-18
-1.40523e-18
-1.01239e-18
5.6233e-19
2.02959e-18
1.71035e-18
6.24485e-19
1.08143e-19
9.75914e-21
5.5699e-22
2.79276e-23
1.76937e-24
7.37207e-26
-1.21501e-25
-1.63096e-25
-1.79345e-25
-1.90909e-25
-2.02959e-25
-2.15298e-25
-2.26926e-25
-2.36676e-25
-2.41865e-25
-2.43923e-25
-2.42693e-25
-2.39671e-25
-2.36535e-25
-2.33846e-25
-2.32401e-25
-2.32374e-25
-2.33641e-25
-2.35823e-25
-2.38827e-25
-2.43101e-25
-2.48479e-25
-2.53523e-25
-2.5928e-25
-2.65532e-25
-2.71641e-25
-2.77291e-25
-2.82411e-25
-2.87498e-25
-2.92101e-25
-2.96355e-25
-3.00574e-25
-3.04956e-25
-3.09399e-25
-3.14005e-25
-3.18899e-25
-3.23737e-25
-3.28643e-25
-3.33455e-25
-3.38029e-25
-3.42392e-25
-3.46647e-25
-3.5078e-25
-3.54777e-25
-3.58829e-25
-3.6292e-25
-3.66911e-25
-3.70997e-25
-3.74988e-25
-3.98646e-25
-3.98883e-21
0
0
0
0
0
0
0
0
0
0
0
0
0
0
0
-5.86575e-25
-4.37461e-25
-4.41231e-25
-4.45464e-25
-4.50141e-25
-4.55262e-25
-4.60784e-25
-4.66618e-25
-4.72562e-25
-4.78398e-25
-4.83906e-25
-4.88802e-25
-4.92916e-25
-4.95932e-25
-4.97479e-25
-4.96028e-25
2.97159e-22
5.86136e-17
2.83249e-16
1.21693e-15
4.67996e-15
1.3301e-14
-1.72802e-14
-9.30229e-13
-1.49094e-11
-2.21165e-10
-3.5406e-09
-6.51319e-08
-1.48745e-06
-7.87036e-05
-0.00515573
-0.0963612
-0.873616
-1.08629
-0.618497
-0.431837
-0.322951
-0.239404
-0.171731
-0.118053
-0.0768213
-0.0458942
-0.0230241
-0.00627879
0.00583658
0.0144049
0.020243
0.023961
0.0260471
0.0268783
0.0267625
0.0259508
0.0246428
0.0230012
0.021153
0.0191997
0.0172188
0.0152699
0.0133976
0.0116336
0.00999904
0.00850579
0.00715774
0.00595318
0.00488904
0.00396379
0.00317739
0.00252742
0.00200525
0.00159525
0.0012777
0.00103258
0.000842347
0.000693002
0.000573972
0.000477108
0.000396067
0.000326791
0.000267941
0.000219544
0.000180854
0.000149988
0.000125042
0.000104704
8.81276e-05
7.45527e-05
6.30748e-05
5.3254e-05
4.5134e-05
3.83928e-05
3.24017e-05
2.72612e-05
2.31778e-05
1.96373e-05
1.64508e-05
1.38623e-05
1.16866e-05
9.75238e-06
8.16662e-06
6.8228e-06
5.62253e-06
4.67342e-06
3.88983e-06
3.15613e-06
2.57983e-06
2.1176e-06
1.70127e-06
1.36881e-06
1.08769e-06
8.56211e-07
6.79379e-07
5.2054e-07
3.99152e-07
3.06281e-07
2.26126e-07
1.65479e-07
1.16864e-07
8.11914e-08
5.79161e-08
4.13473e-08
2.42536e-08
0
0
0
0
0
0
0
0
0
0
0
0
0
0
0
0
0
0
0
0
0
0
0
0
0
0
0
0
0
0
0
0
0
0
0
0
0
0
0
0
0
0
0
0
0
0
0
0
0
0
0
0
0
0
0
0
0
0
0
0
0
0
0
0
0
0
0
0
0
0
0
0
0
0
0
0
0
0
0
0
0
0
0
0
0
0
0
0
0
0
0
0
0
0
0
0
0
0
0
0
0
0
0
0
0
0
0
0
0
0
0
0
0
0
0
0
0
0
0
0
0
0
0
0
)
;

boundaryField
{
    inandouthalf11
    {
        type            cyclic;
    }
    inandouthalf12
    {
        type            cyclic;
    }
    inandouthalf21
    {
        type            cyclic;
    }
    inandouthalf22
    {
        type            cyclic;
    }
    inandouthalf31
    {
        type            cyclic;
    }
    inandouthalf32
    {
        type            cyclic;
    }
    inandouthalf41
    {
        type            cyclic;
    }
    inandouthalf42
    {
        type            cyclic;
    }
    top
    {
        type            symmetryPlane;
    }
    walls
    {
        type            calculated;
        value           uniform -6.34099e-21;
    }
    frontAndBackPlanes
    {
        type            empty;
    }
}


// ************************************************************************* //
