/*--------------------------------*- C++ -*----------------------------------*\
| =========                 |                                                 |
| \\      /  F ield         | OpenFOAM: The Open Source CFD Toolbox           |
|  \\    /   O peration     | Version:  2.4.x                                 |
|   \\  /    A nd           | Web:      www.OpenFOAM.org                      |
|    \\/     M anipulation  |                                                 |
\*---------------------------------------------------------------------------*/
FoamFile
{
    version     2.0;
    format      ascii;
    class       surfaceScalarField;
    location    "4.85";
    object      ddt0(phia);
}
// * * * * * * * * * * * * * * * * * * * * * * * * * * * * * * * * * * * * * //

dimensions      [0 3 -2 0 0 0 0];

internalField   nonuniform List<scalar> 
359
(
7.61932e-14
2.83646e-13
4.97024e-13
6.84683e-13
8.6168e-13
1.04685e-12
1.24733e-12
1.46084e-12
1.68252e-12
1.91041e-12
2.14527e-12
2.38873e-12
2.64232e-12
2.90689e-12
3.18351e-12
3.47417e-12
3.78186e-12
4.11022e-12
4.46283e-12
4.84264e-12
5.24986e-12
5.6818e-12
6.13034e-12
6.58107e-12
7.01323e-12
7.40187e-12
7.72301e-12
7.96194e-12
8.12196e-12
8.23323e-12
8.35731e-12
8.58782e-12
9.04723e-12
9.89038e-12
1.13055e-11
1.35181e-11
1.67394e-11
2.09717e-11
2.55224e-11
2.84146e-11
2.69058e-11
2.01498e-11
1.12894e-11
4.59786e-12
1.36818e-12
3.04741e-13
4.3477e-14
-1.13984e-14
-2.29229e-14
-2.55813e-14
-2.62076e-14
-2.62497e-14
-2.60433e-14
-2.56641e-14
-2.51264e-14
-2.44403e-14
-2.36352e-14
-2.27571e-14
-2.18598e-14
-2.09882e-14
-2.01683e-14
-1.9409e-14
-1.87036e-14
-1.80391e-14
-1.73995e-14
-1.67701e-14
-1.6138e-14
-1.54927e-14
-1.48255e-14
-1.41294e-14
-1.33975e-14
-1.2625e-14
-1.181e-14
-1.09508e-14
-1.00491e-14
-9.10799e-15
-8.13278e-15
-7.1288e-15
-6.10086e-15
-5.05254e-15
-3.9862e-15
-2.90223e-15
-1.79996e-15
-6.78189e-16
4.64359e-16
1.62834e-15
2.81377e-15
4.01964e-15
5.24443e-15
6.48638e-15
7.74379e-15
9.01526e-15
1.02999e-14
1.15973e-14
1.29071e-14
1.4229e-14
1.55629e-14
1.69081e-14
1.82639e-14
1.96295e-14
2.10039e-14
2.23857e-14
2.37738e-14
2.5167e-14
2.65638e-14
2.79629e-14
2.93627e-14
3.07619e-14
3.2159e-14
3.35527e-14
3.49415e-14
3.63246e-14
3.77009e-14
3.90698e-14
4.04309e-14
4.17843e-14
4.31301e-14
4.4469e-14
4.58019e-14
4.71298e-14
4.84536e-14
4.97738e-14
5.10903e-14
5.24013e-14
5.3704e-14
5.49932e-14
5.62619e-14
5.7501e-14
5.86996e-14
5.98449e-14
6.09236e-14
6.19238e-14
6.2838e-14
6.3665e-14
6.44086e-14
6.50732e-14
6.56631e-14
6.61831e-14
6.66372e-14
6.7021e-14
6.73114e-14
6.74771e-14
6.75495e-14
6.75706e-14
6.75662e-14
6.75064e-14
9.90333e-11
-9.02047e-10
-1.25473e-09
-2.17858e-09
-2.496e-09
-2.80491e-09
-3.0869e-09
-3.38766e-09
-3.72158e-09
-4.10125e-09
-4.53531e-09
-5.02599e-09
-5.56129e-09
-6.22028e-09
-6.92364e-09
-7.68497e-09
-8.50501e-09
-9.37654e-09
-1.02917e-08
-1.12408e-08
-1.22142e-08
-1.32007e-08
-1.4188e-08
-1.51612e-08
-1.61028e-08
-1.69906e-08
-1.77982e-08
-1.84925e-08
-1.90267e-08
-1.932e-08
-1.9228e-08
-1.85292e-08
-1.69774e-08
-1.44329e-08
-1.10062e-08
-7.08521e-09
-3.19414e-09
2.16994e-10
2.90087e-09
4.81159e-09
6.03321e-09
6.70579e-09
6.97625e-09
6.98243e-09
6.85841e-09
6.72393e-09
6.64264e-09
6.59833e-09
6.5401e-09
6.44839e-09
6.33905e-09
6.23005e-09
6.1266e-09
6.02667e-09
5.93905e-09
5.87881e-09
5.83478e-09
5.78108e-09
5.74395e-09
5.75586e-09
5.76488e-09
5.75438e-09
5.7887e-09
5.84908e-09
5.89066e-09
5.95811e-09
6.05052e-09
6.13095e-09
6.24396e-09
6.38196e-09
6.48576e-09
6.6251e-09
6.81489e-09
6.96572e-09
7.13745e-09
7.34684e-09
7.55068e-09
7.79175e-09
8.01948e-09
8.25168e-09
8.53699e-09
8.77003e-09
9.00258e-09
9.25098e-09
9.4542e-09
9.60228e-09
9.49578e-09
8.92421e-09
8.07143e-09
7.00604e-09
4.85303e-08
2.63376e-07
8.16095e-08
-1.89467e-09
7.69152e-10
9.76858e-11
7.07933e-11
-1.35322e-10
-3.88408e-10
-1.31814e-09
-4.08093e-10
9.2984e-12
1.47542e-13
-1.29786e-12
-1.53837e-12
-1.56416e-12
-1.52757e-12
-1.56449e-12
-1.52645e-12
-1.56452e-12
-1.52556e-12
-1.56479e-12
-1.52477e-12
-1.56522e-12
-1.52402e-12
-1.56578e-12
-1.5233e-12
-1.56642e-12
-1.5226e-12
-1.56713e-12
-1.52193e-12
-1.56775e-12
-1.52152e-12
-1.56813e-12
-1.5213e-12
-1.56839e-12
-1.52136e-12
-1.56872e-12
-1.52079e-12
-1.56937e-12
-1.52025e-12
-1.56995e-12
-1.51975e-12
-1.57044e-12
-1.51929e-12
-1.57082e-12
-1.51908e-12
-1.57108e-12
-1.51883e-12
-1.57127e-12
-1.51855e-12
-1.57134e-12
-1.51835e-12
-1.57133e-12
-1.51822e-12
-1.57117e-12
-1.51815e-12
-1.57089e-12
-1.51818e-12
-1.57049e-12
-1.5184e-12
-1.57003e-12
-1.51882e-12
-1.56947e-12
-1.51939e-12
-1.56878e-12
-1.52008e-12
-1.56794e-12
-1.52091e-12
-1.56698e-12
-1.52184e-12
-1.56592e-12
-1.5228e-12
-1.56467e-12
-1.5239e-12
-1.56368e-12
-1.52482e-12
-1.56266e-12
-1.5257e-12
-1.56169e-12
-1.52655e-12
-1.56074e-12
-1.52739e-12
-1.55981e-12
-1.5282e-12
-1.55886e-12
-1.52899e-12
-1.55791e-12
-1.52975e-12
-1.55695e-12
-1.53045e-12
-1.55592e-12
-1.53067e-12
-1.55419e-12
-1.53048e-12
-1.55237e-12
-1.53029e-12
-1.55053e-12
-1.53013e-12
-1.5488e-12
-1.52994e-12
-1.54693e-12
-1.52979e-12
-1.54528e-12
-1.52979e-12
-1.54368e-12
-1.52995e-12
-1.54228e-12
-1.52982e-12
-1.54021e-12
-1.52945e-12
-1.53834e-12
-1.52927e-12
-1.5364e-12
-1.52876e-12
-1.53318e-12
-1.52776e-12
-1.53047e-12
-1.52428e-12
-1.53266e-12
-3.22715e-12
-1.60139e-10
4.16041e-09
)
;

boundaryField
{
    inandouthalf11
    {
        type            cyclic;
        value           nonuniform List<scalar> 
100
(
-5.18726e-40
-1.16795e-14
-2.95308e-14
-4.57617e-14
-6.06489e-14
-7.56752e-14
-9.15814e-14
-1.08414e-13
-1.25916e-13
-1.43877e-13
-1.62267e-13
-1.81181e-13
-2.00722e-13
-2.20966e-13
-2.41972e-13
-2.63836e-13
-2.86719e-13
-3.1084e-13
-3.36445e-13
-3.63762e-13
-3.92924e-13
-4.23891e-13
-4.56352e-13
-4.89613e-13
-5.22541e-13
-5.53611e-13
-5.81136e-13
-6.0371e-13
-6.208e-13
-6.33394e-13
-6.4452e-13
-6.59448e-13
-6.85641e-13
-7.32718e-13
-8.12701e-13
-9.40358e-13
-1.13227e-12
-1.39984e-12
-1.72627e-12
-2.02055e-12
-2.09034e-12
-1.7579e-12
-1.11338e-12
-5.06373e-13
-1.64949e-13
-4.04476e-14
-7.89455e-15
-8.35762e-16
6.60836e-16
1.00829e-15
1.09586e-15
1.1124e-15
1.1022e-15
1.07574e-15
1.0346e-15
9.78632e-16
9.08835e-16
8.28308e-16
7.4169e-16
6.53804e-16
5.68301e-16
4.87092e-16
4.10483e-16
3.37682e-16
2.67374e-16
1.98115e-16
1.28551e-16
5.74808e-17
-1.6127e-17
-9.31834e-17
-1.74534e-16
-2.60916e-16
-3.52858e-16
-4.50687e-16
-5.5452e-16
-6.64217e-16
-7.79386e-16
-8.99485e-16
-1.02397e-15
-1.1524e-15
-1.28447e-15
-1.42004e-15
-1.55918e-15
-1.70206e-15
-1.8489e-15
-1.99987e-15
-2.15509e-15
-2.31454e-15
-2.47811e-15
-2.64565e-15
-2.81696e-15
-2.99188e-15
-3.17032e-15
-3.35222e-15
-3.53759e-15
-3.72646e-15
-3.91884e-15
-4.11474e-15
-4.31416e-15
-4.51704e-15
)
;
    }
    inandouthalf12
    {
        type            cyclic;
        value           nonuniform List<scalar> 
100
(
5.18726e-40
1.16795e-14
2.95308e-14
4.57617e-14
6.06489e-14
7.56752e-14
9.15814e-14
1.08414e-13
1.25916e-13
1.43877e-13
1.62267e-13
1.81181e-13
2.00722e-13
2.20966e-13
2.41972e-13
2.63836e-13
2.86719e-13
3.1084e-13
3.36445e-13
3.63762e-13
3.92924e-13
4.23891e-13
4.56352e-13
4.89613e-13
5.22541e-13
5.53611e-13
5.81136e-13
6.0371e-13
6.208e-13
6.33394e-13
6.4452e-13
6.59448e-13
6.85641e-13
7.32718e-13
8.12701e-13
9.40358e-13
1.13227e-12
1.39984e-12
1.72627e-12
2.02055e-12
2.09034e-12
1.7579e-12
1.11338e-12
5.06373e-13
1.64949e-13
4.04476e-14
7.89455e-15
8.35762e-16
-6.60836e-16
-1.00829e-15
-1.09586e-15
-1.1124e-15
-1.1022e-15
-1.07574e-15
-1.0346e-15
-9.78632e-16
-9.08835e-16
-8.28308e-16
-7.4169e-16
-6.53804e-16
-5.68301e-16
-4.87092e-16
-4.10483e-16
-3.37682e-16
-2.67374e-16
-1.98115e-16
-1.28551e-16
-5.74808e-17
1.6127e-17
9.31834e-17
1.74534e-16
2.60916e-16
3.52858e-16
4.50687e-16
5.5452e-16
6.64217e-16
7.79386e-16
8.99485e-16
1.02397e-15
1.1524e-15
1.28447e-15
1.42004e-15
1.55918e-15
1.70206e-15
1.8489e-15
1.99987e-15
2.15509e-15
2.31454e-15
2.47811e-15
2.64565e-15
2.81696e-15
2.99188e-15
3.17032e-15
3.35222e-15
3.53759e-15
3.72646e-15
3.91884e-15
4.11474e-15
4.31416e-15
4.51704e-15
)
;
    }
    inandouthalf21
    {
        type            cyclic;
        value           nonuniform List<scalar> 
100
(
-4.72332e-15
-4.93291e-15
-5.14571e-15
-5.36162e-15
-5.58052e-15
-5.80228e-15
-6.02677e-15
-6.25385e-15
-6.48339e-15
-6.71525e-15
-6.94934e-15
-7.18555e-15
-7.42384e-15
-7.66421e-15
-7.90671e-15
-8.15147e-15
-8.39869e-15
-8.64867e-15
-8.9018e-15
-9.15856e-15
-9.41948e-15
-9.68512e-15
-9.95596e-15
-1.02324e-14
-1.05145e-14
-1.08021e-14
-1.10945e-14
-1.13905e-14
-1.16885e-14
-1.19859e-14
-1.22798e-14
-1.25668e-14
-1.2844e-14
-1.31099e-14
-1.33641e-14
-1.36073e-14
-1.38407e-14
-1.40657e-14
-1.42844e-14
-1.44949e-14
-1.46853e-14
-1.48337e-14
-1.49283e-14
-1.49775e-14
-1.50006e-14
-1.50149e-14
-1.50361e-14
-3.17725e-08
-6.03158e-08
-6.24032e-08
-6.70931e-08
-7.35225e-08
-8.06383e-08
-8.79255e-08
-9.51004e-08
-1.01993e-07
-1.08503e-07
-1.14579e-07
-1.20197e-07
-1.25356e-07
-1.30062e-07
-1.34322e-07
-1.38142e-07
-1.41525e-07
-1.44471e-07
-1.46977e-07
-1.49037e-07
-1.50641e-07
-1.51779e-07
-1.52439e-07
-1.52609e-07
-1.52282e-07
-1.51454e-07
-1.50126e-07
-1.48312e-07
-1.46034e-07
-1.43327e-07
-1.40245e-07
-1.3686e-07
-1.33272e-07
-1.29596e-07
-1.25956e-07
-1.22454e-07
-1.19158e-07
-1.16096e-07
-1.13261e-07
-1.10631e-07
-1.08178e-07
-1.05877e-07
-1.03712e-07
-1.01676e-07
-9.97745e-08
-9.8018e-08
-9.64142e-08
-9.49569e-08
-9.36292e-08
-9.24136e-08
-9.12976e-08
-9.02706e-08
-8.93216e-08
)
;
    }
    inandouthalf22
    {
        type            cyclic;
        value           nonuniform List<scalar> 
100
(
4.72332e-15
4.93291e-15
5.14571e-15
5.36162e-15
5.58052e-15
5.80228e-15
6.02677e-15
6.25385e-15
6.48339e-15
6.71525e-15
6.94934e-15
7.18555e-15
7.42384e-15
7.66421e-15
7.90671e-15
8.15147e-15
8.39869e-15
8.64867e-15
8.9018e-15
9.15856e-15
9.41948e-15
9.68512e-15
9.95596e-15
1.02324e-14
1.05145e-14
1.08021e-14
1.10945e-14
1.13905e-14
1.16885e-14
1.19859e-14
1.22798e-14
1.25668e-14
1.2844e-14
1.31099e-14
1.33641e-14
1.36073e-14
1.38407e-14
1.40657e-14
1.42844e-14
1.44949e-14
1.46853e-14
1.48337e-14
1.49283e-14
1.49775e-14
1.50006e-14
1.50149e-14
1.50361e-14
3.17725e-08
6.03158e-08
6.24032e-08
6.70931e-08
7.35225e-08
8.06383e-08
8.79255e-08
9.51004e-08
1.01993e-07
1.08503e-07
1.14579e-07
1.20197e-07
1.25356e-07
1.30062e-07
1.34322e-07
1.38142e-07
1.41525e-07
1.44471e-07
1.46977e-07
1.49037e-07
1.50641e-07
1.51779e-07
1.52439e-07
1.52609e-07
1.52282e-07
1.51454e-07
1.50126e-07
1.48312e-07
1.46034e-07
1.43327e-07
1.40245e-07
1.3686e-07
1.33272e-07
1.29596e-07
1.25956e-07
1.22454e-07
1.19158e-07
1.16096e-07
1.13261e-07
1.10631e-07
1.08178e-07
1.05877e-07
1.03712e-07
1.01676e-07
9.97745e-08
9.8018e-08
9.64142e-08
9.49569e-08
9.36292e-08
9.24136e-08
9.12976e-08
9.02706e-08
8.93216e-08
)
;
    }
    inandouthalf31
    {
        type            cyclic;
        value           nonuniform List<scalar> 
110
(
-8.84421e-08
-8.93966e-08
-9.03982e-08
-9.14387e-08
-9.25165e-08
-9.36386e-08
-9.47984e-08
-9.59823e-08
-9.71968e-08
-9.84477e-08
-9.97214e-08
-1.01015e-07
-1.02335e-07
-1.03671e-07
-1.05026e-07
-1.06399e-07
-1.07777e-07
-1.09164e-07
-1.10572e-07
-1.11982e-07
-1.1339e-07
-1.14809e-07
-1.16235e-07
-1.17663e-07
-1.19088e-07
-1.20511e-07
-1.2194e-07
-1.23362e-07
-1.24779e-07
-1.26204e-07
-1.2763e-07
-1.29052e-07
-1.3045e-07
-1.31837e-07
-1.33314e-07
-1.34963e-07
-1.36437e-07
7.7855e-08
7.12743e-08
9.84069e-08
8.78566e-08
9.06169e-08
9.1657e-08
9.142e-08
8.99968e-08
7.62264e-08
5.7782e-08
5.21573e-08
5.29228e-08
5.39915e-08
5.50877e-08
5.62057e-08
5.73465e-08
5.85105e-08
5.9698e-08
6.09097e-08
6.2146e-08
6.34074e-08
6.46944e-08
6.60075e-08
6.73472e-08
6.87142e-08
7.01089e-08
7.15319e-08
7.29838e-08
7.44652e-08
7.59767e-08
7.75188e-08
7.90922e-08
8.06976e-08
8.23355e-08
8.40067e-08
8.57118e-08
8.74515e-08
8.92266e-08
9.10376e-08
9.28854e-08
9.47708e-08
9.66944e-08
9.8657e-08
1.00659e-07
1.02703e-07
1.04787e-07
1.06914e-07
1.09084e-07
1.11298e-07
1.13557e-07
1.15862e-07
1.18214e-07
1.20613e-07
1.23061e-07
1.25559e-07
1.28108e-07
1.30708e-07
1.33361e-07
1.36068e-07
1.3883e-07
1.41648e-07
1.44523e-07
1.47456e-07
1.50449e-07
1.53503e-07
1.56619e-07
1.59798e-07
1.63041e-07
1.6635e-07
1.69727e-07
1.73172e-07
1.76687e-07
1.80273e-07
)
;
    }
    inandouthalf32
    {
        type            cyclic;
        value           nonuniform List<scalar> 
110
(
8.84421e-08
8.93966e-08
9.03982e-08
9.14387e-08
9.25165e-08
9.36386e-08
9.47984e-08
9.59823e-08
9.71968e-08
9.84477e-08
9.97214e-08
1.01015e-07
1.02335e-07
1.03671e-07
1.05026e-07
1.06399e-07
1.07777e-07
1.09164e-07
1.10572e-07
1.11982e-07
1.1339e-07
1.14809e-07
1.16235e-07
1.17663e-07
1.19088e-07
1.20511e-07
1.2194e-07
1.23362e-07
1.24779e-07
1.26204e-07
1.2763e-07
1.29052e-07
1.3045e-07
1.31837e-07
1.33314e-07
1.34963e-07
1.36437e-07
-7.7855e-08
-7.12743e-08
-9.84069e-08
-8.78566e-08
-9.06169e-08
-9.1657e-08
-9.142e-08
-8.99968e-08
-7.62264e-08
-5.7782e-08
-5.21573e-08
-5.29228e-08
-5.39915e-08
-5.50877e-08
-5.62057e-08
-5.73465e-08
-5.85105e-08
-5.9698e-08
-6.09097e-08
-6.2146e-08
-6.34074e-08
-6.46944e-08
-6.60075e-08
-6.73472e-08
-6.87142e-08
-7.01089e-08
-7.15319e-08
-7.29838e-08
-7.44652e-08
-7.59767e-08
-7.75188e-08
-7.90922e-08
-8.06976e-08
-8.23355e-08
-8.40067e-08
-8.57118e-08
-8.74515e-08
-8.92266e-08
-9.10376e-08
-9.28854e-08
-9.47708e-08
-9.66944e-08
-9.8657e-08
-1.00659e-07
-1.02703e-07
-1.04787e-07
-1.06914e-07
-1.09084e-07
-1.11298e-07
-1.13557e-07
-1.15862e-07
-1.18214e-07
-1.20613e-07
-1.23061e-07
-1.25559e-07
-1.28108e-07
-1.30708e-07
-1.33361e-07
-1.36068e-07
-1.3883e-07
-1.41648e-07
-1.44523e-07
-1.47456e-07
-1.50449e-07
-1.53503e-07
-1.56619e-07
-1.59798e-07
-1.63041e-07
-1.6635e-07
-1.69727e-07
-1.73172e-07
-1.76687e-07
-1.80273e-07
)
;
    }
    inandouthalf41
    {
        type            cyclic;
        value           nonuniform List<scalar> 
50
(
1.61363e-07
1.61363e-07
1.61363e-07
1.61363e-07
1.61363e-07
1.61363e-07
1.61363e-07
1.61363e-07
1.61363e-07
1.61363e-07
1.61363e-07
1.61363e-07
1.61363e-07
1.61363e-07
1.61363e-07
1.61363e-07
1.61363e-07
1.61363e-07
1.61363e-07
1.61363e-07
1.61363e-07
1.61363e-07
1.61363e-07
1.61363e-07
1.61363e-07
1.61363e-07
1.61363e-07
1.61363e-07
1.61363e-07
1.61363e-07
1.61363e-07
1.61363e-07
1.61363e-07
1.61363e-07
1.61363e-07
1.61363e-07
1.61363e-07
1.61363e-07
1.61363e-07
1.61363e-07
1.61363e-07
1.61363e-07
1.61363e-07
1.61363e-07
1.61363e-07
1.61363e-07
1.61363e-07
1.61365e-07
1.61409e-07
1.62398e-07
)
;
    }
    inandouthalf42
    {
        type            cyclic;
        value           nonuniform List<scalar> 
50
(
-1.61363e-07
-1.61363e-07
-1.61363e-07
-1.61363e-07
-1.61363e-07
-1.61363e-07
-1.61363e-07
-1.61363e-07
-1.61363e-07
-1.61363e-07
-1.61363e-07
-1.61363e-07
-1.61363e-07
-1.61363e-07
-1.61363e-07
-1.61363e-07
-1.61363e-07
-1.61363e-07
-1.61363e-07
-1.61363e-07
-1.61363e-07
-1.61363e-07
-1.61363e-07
-1.61363e-07
-1.61363e-07
-1.61363e-07
-1.61363e-07
-1.61363e-07
-1.61363e-07
-1.61363e-07
-1.61363e-07
-1.61363e-07
-1.61363e-07
-1.61363e-07
-1.61363e-07
-1.61363e-07
-1.61363e-07
-1.61363e-07
-1.61363e-07
-1.61363e-07
-1.61363e-07
-1.61363e-07
-1.61363e-07
-1.61363e-07
-1.61363e-07
-1.61363e-07
-1.61363e-07
-1.61365e-07
-1.61409e-07
-1.62398e-07
)
;
    }
    top
    {
        type            symmetryPlane;
        value           uniform 0;
    }
    walls
    {
        type            calculated;
        value           uniform 0;
    }
    frontAndBackPlanes
    {
        type            empty;
        value           nonuniform 0();
    }
}


// ************************************************************************* //
