/*--------------------------------*- C++ -*----------------------------------*\
| =========                 |                                                 |
| \\      /  F ield         | OpenFOAM: The Open Source CFD Toolbox           |
|  \\    /   O peration     | Version:  2.4.x                                 |
|   \\  /    A nd           | Web:      www.OpenFOAM.org                      |
|    \\/     M anipulation  |                                                 |
\*---------------------------------------------------------------------------*/
FoamFile
{
    version     2.0;
    format      ascii;
    class       surfaceScalarField;
    location    "4.85";
    object      ddt0(phib);
}
// * * * * * * * * * * * * * * * * * * * * * * * * * * * * * * * * * * * * * //

dimensions      [0 3 -2 0 0 0 0];

internalField   nonuniform List<scalar> 
359
(
-1.18808e-13
-4.43357e-13
-7.77763e-13
-1.07153e-12
-1.34821e-12
-1.63762e-12
-1.951e-12
-2.2848e-12
-2.6314e-12
-2.9876e-12
-3.35463e-12
-3.73501e-12
-4.13117e-12
-4.54443e-12
-4.97644e-12
-5.43041e-12
-5.91091e-12
-6.42367e-12
-6.97427e-12
-7.56735e-12
-8.20315e-12
-8.87744e-12
-9.57746e-12
-1.02807e-11
-1.09547e-11
-1.15604e-11
-1.20603e-11
-1.24315e-11
-1.26793e-11
-1.2851e-11
-1.30428e-11
-1.3401e-11
-1.41168e-11
-1.54317e-11
-1.76392e-11
-2.10905e-11
-2.61142e-11
-3.27119e-11
-3.98012e-11
-4.42984e-11
-4.19314e-11
-3.139e-11
-1.75788e-11
-7.15509e-12
-2.12721e-12
-4.72844e-13
-6.66893e-14
1.85809e-14
3.64517e-14
4.05587e-14
4.15041e-14
4.1575e-14
4.12123e-14
4.05818e-14
3.97275e-14
3.85994e-14
3.73278e-14
3.59362e-14
3.45092e-14
3.31097e-14
3.18271e-14
3.06055e-14
2.94723e-14
2.83758e-14
2.73456e-14
2.63143e-14
2.53013e-14
2.42833e-14
2.32101e-14
2.20946e-14
2.09196e-14
1.97118e-14
1.83991e-14
1.7017e-14
1.55573e-14
1.40906e-14
1.25358e-14
1.09352e-14
9.28876e-15
7.64213e-15
5.95524e-15
4.25212e-15
2.49391e-15
7.37769e-16
-1.05106e-15
-2.91046e-15
-4.76368e-15
-6.64261e-15
-8.57229e-15
-1.05193e-14
-1.25027e-14
-1.44875e-14
-1.65033e-14
-1.85418e-14
-2.05893e-14
-2.26532e-14
-2.47363e-14
-2.68567e-14
-2.89822e-14
-3.11139e-14
-3.32597e-14
-3.54229e-14
-3.75598e-14
-3.97158e-14
-4.19044e-14
-4.4066e-14
-4.62397e-14
-4.84145e-14
-5.05801e-14
-5.27594e-14
-5.48992e-14
-5.70402e-14
-5.91571e-14
-6.12613e-14
-6.33778e-14
-6.54733e-14
-6.75459e-14
-6.95811e-14
-7.16472e-14
-7.37207e-14
-7.57364e-14
-7.775e-14
-7.97575e-14
-8.1746e-14
-8.37007e-14
-8.56495e-14
-8.75769e-14
-8.9481e-14
-9.13142e-14
-9.3028e-14
-9.4649e-14
-9.61516e-14
-9.75416e-14
-9.88031e-14
-9.99192e-14
-1.0095e-13
-1.01886e-13
-1.02725e-13
-1.03505e-13
-1.04073e-13
-1.04457e-13
-1.04909e-13
-1.05462e-13
-1.06532e-13
-1.15498e-13
7.96747e-15
-1.02994e-10
7.00469e-10
4.76942e-10
5.65677e-10
4.9969e-10
4.42351e-10
3.86476e-10
3.38929e-10
2.99665e-10
2.67636e-10
2.41175e-10
2.18517e-10
1.97946e-10
1.81179e-10
1.64795e-10
1.49171e-10
1.34308e-10
1.20136e-10
1.06654e-10
9.38825e-11
8.18605e-11
7.06163e-11
6.01709e-11
5.05289e-11
4.16821e-11
3.36115e-11
2.62911e-11
1.96853e-11
1.37304e-11
8.30566e-12
3.23237e-12
-1.63989e-12
-6.26303e-12
-1.02732e-11
-1.31098e-11
-1.43654e-11
-1.40773e-11
-1.26969e-11
-1.081e-11
-8.88072e-12
-7.16536e-12
-5.75249e-12
-4.64111e-12
-3.80024e-12
-3.18573e-12
-2.72795e-12
-2.34112e-12
-1.9707e-12
-1.62154e-12
-1.32345e-12
-1.08639e-12
-8.97995e-13
-7.44316e-13
-6.20535e-13
-5.23745e-13
-4.42041e-13
-3.67921e-13
-3.07636e-13
-2.63795e-13
-2.23854e-13
-1.84805e-13
-1.5633e-13
-1.35184e-13
-1.13649e-13
-9.53414e-14
-8.15627e-14
-6.88107e-14
-5.82074e-14
-4.97646e-14
-4.12884e-14
-3.45953e-14
-2.99778e-14
-2.50524e-14
-2.06162e-14
-1.75864e-14
-1.48288e-14
-1.2392e-14
-1.02969e-14
-8.50306e-15
-7.17676e-15
-5.93996e-15
-4.84734e-15
-4.07555e-15
-3.41466e-15
-2.81891e-15
-2.27324e-15
-1.79137e-15
-1.49779e-15
-1.31918e-15
-1.34917e-15
-1.94396e-15
1.10968e-15
-8.38418e-16
-8.48252e-16
-8.73562e-16
-8.79093e-16
-8.94843e-16
-9.12269e-16
-9.20623e-16
-9.21358e-16
-9.54634e-16
-9.58132e-16
-9.68445e-16
-9.87227e-16
-1.01258e-15
-1.03695e-15
-1.05233e-15
-1.06916e-15
-1.08905e-15
-1.10836e-15
-1.12589e-15
-1.15853e-15
-1.18294e-15
-1.20971e-15
-1.23338e-15
-1.26828e-15
-1.30477e-15
-1.36539e-15
-1.42617e-15
-1.50164e-15
-1.58011e-15
-1.65761e-15
-1.73774e-15
-1.82373e-15
-1.90336e-15
-1.976e-15
-2.06764e-15
-2.14453e-15
-2.21047e-15
-2.2642e-15
-2.31563e-15
-2.34079e-15
-2.35994e-15
-2.36495e-15
-2.41834e-15
-2.43066e-15
-2.45325e-15
-2.41738e-15
-2.4119e-15
-2.33482e-15
-2.23903e-15
-2.08187e-15
-2.01244e-15
-1.88082e-15
-1.74772e-15
-1.53133e-15
-1.35683e-15
-1.13258e-15
-9.07977e-16
-6.9484e-16
-6.19687e-16
-5.60591e-16
-5.33553e-16
-4.91208e-16
-4.63556e-16
-4.15425e-16
-3.69897e-16
-2.92731e-16
-2.65732e-16
-2.19193e-16
-1.68207e-16
-9.27771e-17
-4.22485e-17
4.15392e-17
1.09379e-16
1.85564e-16
2.62861e-16
3.36899e-16
4.03433e-16
4.71589e-16
5.47227e-16
6.10029e-16
6.7522e-16
7.35156e-16
8.52022e-16
9.54319e-16
1.06385e-15
1.1502e-15
1.31212e-15
1.45575e-15
1.67611e-15
1.85915e-15
3.17554e-15
4.43091e-15
5.76876e-15
7.00838e-15
8.40488e-15
9.656e-15
1.0924e-14
1.20228e-14
1.35226e-14
1.47592e-14
1.60135e-14
1.69027e-14
1.81109e-14
1.89195e-14
1.98001e-14
2.04018e-14
2.22017e-14
2.36713e-14
2.52216e-14
2.65162e-14
2.78344e-14
2.94981e-14
3.13658e-14
3.64793e-14
3.63322e-14
4.13807e-14
4.73649e-14
6.33156e-14
6.85322e-14
9.57044e-14
1.47462e-13
)
;

boundaryField
{
    inandouthalf11
    {
        type            cyclic;
        value           nonuniform List<scalar> 
100
(
-3.78802e-11
-3.77586e-11
-3.77311e-11
-3.77642e-11
-3.77952e-11
-3.78191e-11
-3.78426e-11
-3.78673e-11
-3.78926e-11
-3.79186e-11
-3.79455e-11
-3.79729e-11
-3.80011e-11
-3.80299e-11
-3.80594e-11
-3.809e-11
-3.81217e-11
-3.81547e-11
-3.81892e-11
-3.82257e-11
-3.82639e-11
-3.83043e-11
-3.83462e-11
-3.8389e-11
-3.84316e-11
-3.84724e-11
-3.85097e-11
-3.8542e-11
-3.85687e-11
-3.85907e-11
-3.86111e-11
-3.86353e-11
-3.86706e-11
-3.87274e-11
-3.88175e-11
-3.89567e-11
-3.91617e-11
-3.9445e-11
-3.97897e-11
-4.01031e-11
-4.01904e-11
-3.98701e-11
-3.92319e-11
-3.86282e-11
-3.82892e-11
-3.81674e-11
-3.81381e-11
-3.81343e-11
-3.81367e-11
-3.81407e-11
-3.81449e-11
-3.81498e-11
-3.81548e-11
-3.81603e-11
-3.8166e-11
-3.81724e-11
-3.81789e-11
-3.81861e-11
-3.81935e-11
-3.82012e-11
-3.82095e-11
-3.82178e-11
-3.82267e-11
-3.82356e-11
-3.82448e-11
-3.82541e-11
-3.82638e-11
-3.82739e-11
-3.82843e-11
-3.8295e-11
-3.83063e-11
-3.8318e-11
-3.83299e-11
-3.83423e-11
-3.8355e-11
-3.83682e-11
-3.83814e-11
-3.8395e-11
-3.84089e-11
-3.84231e-11
-3.84376e-11
-3.84526e-11
-3.8468e-11
-3.84838e-11
-3.85e-11
-3.85166e-11
-3.85336e-11
-3.85509e-11
-3.85686e-11
-3.85867e-11
-3.86052e-11
-3.86241e-11
-3.86434e-11
-3.86632e-11
-3.86835e-11
-3.87043e-11
-3.87255e-11
-3.87473e-11
-3.87696e-11
-3.87924e-11
)
;
    }
    inandouthalf12
    {
        type            cyclic;
        value           nonuniform List<scalar> 
100
(
3.78802e-11
3.77586e-11
3.77311e-11
3.77642e-11
3.77952e-11
3.78191e-11
3.78426e-11
3.78673e-11
3.78926e-11
3.79186e-11
3.79455e-11
3.79729e-11
3.80011e-11
3.80299e-11
3.80594e-11
3.809e-11
3.81217e-11
3.81547e-11
3.81892e-11
3.82257e-11
3.82639e-11
3.83043e-11
3.83462e-11
3.8389e-11
3.84316e-11
3.84724e-11
3.85097e-11
3.8542e-11
3.85687e-11
3.85907e-11
3.86111e-11
3.86353e-11
3.86706e-11
3.87274e-11
3.88175e-11
3.89567e-11
3.91617e-11
3.9445e-11
3.97897e-11
4.01031e-11
4.01904e-11
3.98701e-11
3.92319e-11
3.86282e-11
3.82892e-11
3.81674e-11
3.81381e-11
3.81343e-11
3.81367e-11
3.81407e-11
3.81449e-11
3.81498e-11
3.81548e-11
3.81603e-11
3.8166e-11
3.81724e-11
3.81789e-11
3.81861e-11
3.81935e-11
3.82012e-11
3.82095e-11
3.82178e-11
3.82267e-11
3.82356e-11
3.82448e-11
3.82541e-11
3.82638e-11
3.82739e-11
3.82843e-11
3.8295e-11
3.83063e-11
3.8318e-11
3.83299e-11
3.83423e-11
3.8355e-11
3.83682e-11
3.83814e-11
3.8395e-11
3.84089e-11
3.84231e-11
3.84376e-11
3.84526e-11
3.8468e-11
3.84838e-11
3.85e-11
3.85166e-11
3.85336e-11
3.85509e-11
3.85686e-11
3.85867e-11
3.86052e-11
3.86241e-11
3.86434e-11
3.86632e-11
3.86835e-11
3.87043e-11
3.87255e-11
3.87473e-11
3.87696e-11
3.87924e-11
)
;
    }
    inandouthalf21
    {
        type            cyclic;
        value           nonuniform List<scalar> 
100
(
-3.88157e-11
-3.88397e-11
-3.88642e-11
-3.88893e-11
-3.8915e-11
-3.89415e-11
-3.89686e-11
-3.89964e-11
-3.90249e-11
-3.90543e-11
-3.90844e-11
-3.91154e-11
-3.91472e-11
-3.918e-11
-3.92138e-11
-3.92485e-11
-3.92843e-11
-3.93212e-11
-3.93593e-11
-3.93986e-11
-3.94391e-11
-3.9481e-11
-3.95243e-11
-3.9569e-11
-3.96153e-11
-3.96632e-11
-3.97129e-11
-3.97645e-11
-3.98181e-11
-3.98739e-11
-3.99321e-11
-3.99926e-11
-4.00559e-11
-4.01227e-11
-4.01936e-11
-4.02688e-11
-4.03477e-11
-4.04316e-11
-4.05246e-11
-4.06315e-11
-4.07477e-11
-4.08584e-11
-4.09903e-11
-4.1162e-11
-4.13742e-11
-4.1821e-11
-1.22454e-10
-3.40545e-08
-6.18768e-08
-6.21466e-08
-6.72741e-08
-7.39135e-08
-8.11031e-08
-8.83934e-08
-9.55382e-08
-1.02398e-07
-1.08901e-07
-1.15017e-07
-1.20742e-07
-1.26088e-07
-1.31074e-07
-1.3572e-07
-1.40045e-07
-1.44068e-07
-1.47802e-07
-1.51257e-07
-1.54441e-07
-1.57356e-07
-1.60003e-07
-1.62378e-07
-1.64474e-07
-1.66282e-07
-1.67788e-07
-1.68976e-07
-1.69826e-07
-1.70316e-07
-1.70418e-07
-1.70104e-07
-1.6934e-07
-1.6809e-07
-1.66317e-07
-1.63983e-07
-1.61056e-07
-1.57509e-07
-1.53323e-07
-1.48495e-07
-1.43034e-07
-1.36969e-07
-1.30351e-07
-1.23257e-07
-1.15785e-07
-1.08057e-07
-1.00206e-07
-9.23751e-08
-8.46979e-08
-7.72946e-08
-7.02603e-08
-6.36612e-08
-5.75343e-08
-5.18899e-08
)
;
    }
    inandouthalf22
    {
        type            cyclic;
        value           nonuniform List<scalar> 
100
(
3.88157e-11
3.88397e-11
3.88642e-11
3.88893e-11
3.8915e-11
3.89415e-11
3.89686e-11
3.89964e-11
3.90249e-11
3.90543e-11
3.90844e-11
3.91154e-11
3.91472e-11
3.918e-11
3.92138e-11
3.92485e-11
3.92843e-11
3.93212e-11
3.93593e-11
3.93986e-11
3.94391e-11
3.9481e-11
3.95243e-11
3.9569e-11
3.96153e-11
3.96632e-11
3.97129e-11
3.97645e-11
3.98181e-11
3.98739e-11
3.99321e-11
3.99926e-11
4.00559e-11
4.01227e-11
4.01936e-11
4.02688e-11
4.03477e-11
4.04316e-11
4.05246e-11
4.06315e-11
4.07477e-11
4.08584e-11
4.09903e-11
4.1162e-11
4.13742e-11
4.1821e-11
1.22454e-10
3.40545e-08
6.18768e-08
6.21466e-08
6.72741e-08
7.39135e-08
8.11031e-08
8.83934e-08
9.55382e-08
1.02398e-07
1.08901e-07
1.15017e-07
1.20742e-07
1.26088e-07
1.31074e-07
1.3572e-07
1.40045e-07
1.44068e-07
1.47802e-07
1.51257e-07
1.54441e-07
1.57356e-07
1.60003e-07
1.62378e-07
1.64474e-07
1.66282e-07
1.67788e-07
1.68976e-07
1.69826e-07
1.70316e-07
1.70418e-07
1.70104e-07
1.6934e-07
1.6809e-07
1.66317e-07
1.63983e-07
1.61056e-07
1.57509e-07
1.53323e-07
1.48495e-07
1.43034e-07
1.36969e-07
1.30351e-07
1.23257e-07
1.15785e-07
1.08057e-07
1.00206e-07
9.23751e-08
8.46979e-08
7.72946e-08
7.02603e-08
6.36612e-08
5.75343e-08
5.18899e-08
)
;
    }
    inandouthalf31
    {
        type            cyclic;
        value           nonuniform List<scalar> 
110
(
-4.67177e-08
-4.27948e-08
-3.90419e-08
-3.54527e-08
-3.20139e-08
-2.87078e-08
-2.55142e-08
-2.24122e-08
-1.93815e-08
-1.64027e-08
-1.34585e-08
-1.05336e-08
-7.61441e-09
-4.68958e-09
-1.74935e-09
1.21447e-09
4.20875e-09
7.23925e-09
1.03108e-08
1.34276e-08
1.65931e-08
1.98101e-08
2.3081e-08
2.64078e-08
2.97918e-08
3.32336e-08
3.67332e-08
4.02895e-08
4.39003e-08
4.75619e-08
5.12688e-08
5.50129e-08
5.87835e-08
6.25657e-08
6.63399e-08
7.008e-08
7.37514e-08
7.73079e-08
8.06869e-08
8.38032e-08
8.65373e-08
8.87175e-08
9.00855e-08
9.01987e-08
8.80636e-08
8.21139e-08
5.94379e-08
5.04394e-08
5.09863e-08
5.20134e-08
5.30689e-08
5.4146e-08
5.5245e-08
5.63663e-08
5.75103e-08
5.86776e-08
5.98686e-08
6.10837e-08
6.23236e-08
6.35886e-08
6.48792e-08
6.61961e-08
6.75397e-08
6.89106e-08
7.03093e-08
7.17363e-08
7.31924e-08
7.4678e-08
7.61938e-08
7.77403e-08
7.93182e-08
8.09282e-08
8.25708e-08
8.42468e-08
8.59567e-08
8.77014e-08
8.94815e-08
9.12978e-08
9.31509e-08
9.50416e-08
9.69707e-08
9.89389e-08
1.00947e-07
1.02996e-07
1.05087e-07
1.0722e-07
1.09396e-07
1.11616e-07
1.13882e-07
1.16193e-07
1.18552e-07
1.20958e-07
1.23413e-07
1.25918e-07
1.28474e-07
1.31082e-07
1.33742e-07
1.36457e-07
1.39227e-07
1.42052e-07
1.44936e-07
1.47878e-07
1.50879e-07
1.53941e-07
1.57066e-07
1.60254e-07
1.63507e-07
1.66826e-07
1.70212e-07
1.73667e-07
)
;
    }
    inandouthalf32
    {
        type            cyclic;
        value           nonuniform List<scalar> 
110
(
4.67177e-08
4.27948e-08
3.90419e-08
3.54527e-08
3.20139e-08
2.87078e-08
2.55142e-08
2.24122e-08
1.93815e-08
1.64027e-08
1.34585e-08
1.05336e-08
7.61441e-09
4.68958e-09
1.74935e-09
-1.21447e-09
-4.20875e-09
-7.23925e-09
-1.03108e-08
-1.34276e-08
-1.65931e-08
-1.98101e-08
-2.3081e-08
-2.64078e-08
-2.97918e-08
-3.32336e-08
-3.67332e-08
-4.02895e-08
-4.39003e-08
-4.75619e-08
-5.12688e-08
-5.50129e-08
-5.87835e-08
-6.25657e-08
-6.63399e-08
-7.008e-08
-7.37514e-08
-7.73079e-08
-8.06869e-08
-8.38032e-08
-8.65373e-08
-8.87175e-08
-9.00855e-08
-9.01987e-08
-8.80636e-08
-8.21139e-08
-5.94379e-08
-5.04394e-08
-5.09863e-08
-5.20134e-08
-5.30689e-08
-5.4146e-08
-5.5245e-08
-5.63663e-08
-5.75103e-08
-5.86776e-08
-5.98686e-08
-6.10837e-08
-6.23236e-08
-6.35886e-08
-6.48792e-08
-6.61961e-08
-6.75397e-08
-6.89106e-08
-7.03093e-08
-7.17363e-08
-7.31924e-08
-7.4678e-08
-7.61938e-08
-7.77403e-08
-7.93182e-08
-8.09282e-08
-8.25708e-08
-8.42468e-08
-8.59567e-08
-8.77014e-08
-8.94815e-08
-9.12978e-08
-9.31509e-08
-9.50416e-08
-9.69707e-08
-9.89389e-08
-1.00947e-07
-1.02996e-07
-1.05087e-07
-1.0722e-07
-1.09396e-07
-1.11616e-07
-1.13882e-07
-1.16193e-07
-1.18552e-07
-1.20958e-07
-1.23413e-07
-1.25918e-07
-1.28474e-07
-1.31082e-07
-1.33742e-07
-1.36457e-07
-1.39227e-07
-1.42052e-07
-1.44936e-07
-1.47878e-07
-1.50879e-07
-1.53941e-07
-1.57066e-07
-1.60254e-07
-1.63507e-07
-1.66826e-07
-1.70212e-07
-1.73667e-07
)
;
    }
    inandouthalf41
    {
        type            cyclic;
        value           nonuniform List<scalar> 
50
(
1.55449e-07
1.55449e-07
1.55449e-07
1.55449e-07
1.55449e-07
1.55449e-07
1.55449e-07
1.55449e-07
1.55449e-07
1.55449e-07
1.55449e-07
1.55449e-07
1.55449e-07
1.55449e-07
1.55449e-07
1.55449e-07
1.55449e-07
1.55449e-07
1.55449e-07
1.55449e-07
1.55449e-07
1.55449e-07
1.55449e-07
1.55449e-07
1.55449e-07
1.55449e-07
1.55449e-07
1.55449e-07
1.55449e-07
1.55449e-07
1.55449e-07
1.55449e-07
1.55449e-07
1.55449e-07
1.55449e-07
1.55449e-07
1.55449e-07
1.55449e-07
1.55449e-07
1.55449e-07
1.55449e-07
1.55449e-07
1.55449e-07
1.55449e-07
1.55449e-07
1.55449e-07
1.55449e-07
1.55449e-07
1.55449e-07
1.55449e-07
)
;
    }
    inandouthalf42
    {
        type            cyclic;
        value           nonuniform List<scalar> 
50
(
-1.55449e-07
-1.55449e-07
-1.55449e-07
-1.55449e-07
-1.55449e-07
-1.55449e-07
-1.55449e-07
-1.55449e-07
-1.55449e-07
-1.55449e-07
-1.55449e-07
-1.55449e-07
-1.55449e-07
-1.55449e-07
-1.55449e-07
-1.55449e-07
-1.55449e-07
-1.55449e-07
-1.55449e-07
-1.55449e-07
-1.55449e-07
-1.55449e-07
-1.55449e-07
-1.55449e-07
-1.55449e-07
-1.55449e-07
-1.55449e-07
-1.55449e-07
-1.55449e-07
-1.55449e-07
-1.55449e-07
-1.55449e-07
-1.55449e-07
-1.55449e-07
-1.55449e-07
-1.55449e-07
-1.55449e-07
-1.55449e-07
-1.55449e-07
-1.55449e-07
-1.55449e-07
-1.55449e-07
-1.55449e-07
-1.55449e-07
-1.55449e-07
-1.55449e-07
-1.55449e-07
-1.55449e-07
-1.55449e-07
-1.55449e-07
)
;
    }
    top
    {
        type            symmetryPlane;
        value           uniform 0;
    }
    walls
    {
        type            calculated;
        value           uniform 0;
    }
    frontAndBackPlanes
    {
        type            empty;
        value           nonuniform 0();
    }
}


// ************************************************************************* //
