/*--------------------------------*- C++ -*----------------------------------*\
| =========                 |                                                 |
| \\      /  F ield         | OpenFOAM: The Open Source CFD Toolbox           |
|  \\    /   O peration     | Version:  2.4.x                                 |
|   \\  /    A nd           | Web:      www.OpenFOAM.org                      |
|    \\/     M anipulation  |                                                 |
\*---------------------------------------------------------------------------*/
FoamFile
{
    version     2.0;
    format      ascii;
    class       volScalarField;
    location    "4.85";
    object      epsilon;
}
// * * * * * * * * * * * * * * * * * * * * * * * * * * * * * * * * * * * * * //

dimensions      [0 2 -3 0 0 0 0];

internalField   nonuniform List<scalar> 
360
(
1e-20
1e-20
1e-20
1e-20
1e-20
1e-20
1e-20
1e-20
1e-20
1e-20
1e-20
1e-20
1e-20
1e-20
1e-20
1e-20
1e-20
1e-20
1e-20
1e-20
1e-20
1e-20
1e-20
1e-20
1e-20
1e-20
1e-20
1e-20
1e-20
1e-20
1e-20
1e-20
1e-20
1e-20
1e-20
1e-20
1e-20
1e-20
1e-20
1e-20
1e-20
1e-20
1e-20
1e-20
1e-20
1e-20
1e-20
1e-20
1e-20
1e-20
1e-20
1e-20
1e-20
1e-20
1e-20
1e-20
1e-20
1e-20
1e-20
1e-20
1e-20
1e-20
1e-20
1e-20
1e-20
1e-20
1e-20
1e-20
1e-20
1e-20
1e-20
1e-20
1e-20
1e-20
1e-20
1e-20
1e-20
1e-20
1e-20
1e-20
1e-20
1e-20
1e-20
1e-20
1e-20
1e-20
1e-20
1e-20
1e-20
1e-20
1e-20
1e-20
1e-20
1e-20
1e-20
1e-20
1e-20
1e-20
1e-20
1e-20
1e-20
1e-20
1e-20
1e-20
1e-20
1e-20
1e-20
1e-20
1e-20
1e-20
1e-20
1e-20
1e-20
1e-20
1e-20
1e-20
1e-20
1e-20
1e-20
1e-20
1e-20
1e-20
1e-20
1e-20
1e-20
1e-20
1e-20
1e-20
1e-20
1e-20
1e-20
1e-20
2.50364e-20
1.55148e-19
1.0841e-18
8.07211e-18
6.51246e-17
5.81769e-16
5.88108e-15
6.86311e-14
9.40719e-13
1.53798e-11
3.04204e-10
7.36353e-09
2.20036e-07
8.16935e-06
0.000369404
0.0134485
0.119764
0.188474
0.197043
0.189659
0.177273
0.163627
0.150218
0.137647
0.126123
0.11567
0.106231
0.0977145
0.0900202
0.0830509
0.0767171
0.0709395
0.0656489
0.0607857
0.0562988
0.0521445
0.0482857
0.0446908
0.0413328
0.0381891
0.0352403
0.0324701
0.0298648
0.0274129
0.025105
0.0229332
0.0208912
0.0189739
0.0171773
0.0154983
0.0139344
0.0124836
0.0111443
0.00991466
0.00879271
0.00777604
0.00686164
0.0060457
0.00532357
0.00468976
0.00413798
0.00366133
0.00325249
0.002904
0.00260851
0.002359
0.00214897
0.00197255
0.00182454
0.00169917
0.00159229
0.00150146
0.00142449
0.00135942
0.00130456
0.0012584
0.00121961
0.00118706
0.00115972
0.0011367
0.00111719
0.00110048
0.00108593
0.00107295
0.00106099
0.00104956
0.0010382
0.00102649
0.00101401
0.00100041
0.000985335
0.000968461
0.000949495
0.000928167
0.000904234
0.000877481
0.000847725
0.000814818
0.000778651
0.000739159
0.000696327
0.0006502
0.000600893
0.000548599
0.000493613
0.000436346
0.00037735
0.000317359
0.000257323
0.000198475
0.00014241
9.12223e-05
4.77202e-05
1.55375e-05
1.71113e-06
4.49765e-08
6.69711e-10
9.22998e-12
1.20284e-13
1.48308e-15
1.73147e-17
1.9932e-19
1.10168e-20
1e-20
1e-20
1e-20
1e-20
1e-20
1e-20
1e-20
1e-20
1e-20
1e-20
1e-20
1e-20
1e-20
1e-20
1e-20
1e-20
1e-20
1e-20
1e-20
1e-20
1e-20
1e-20
1e-20
1e-20
1e-20
1e-20
1e-20
1e-20
1e-20
1e-20
1e-20
1e-20
1e-20
1e-20
1e-20
1e-20
1e-20
1e-20
1e-20
1e-20
1e-20
1e-20
1e-20
1e-20
1e-20
1e-20
1e-20
1e-20
1e-20
1e-20
1e-20
1e-20
1e-20
1e-20
1e-20
1e-20
1e-20
1e-20
1e-20
1e-20
1e-20
1e-20
1e-20
1e-20
1e-20
1e-20
1e-20
1e-20
1e-20
1e-20
1e-20
1e-20
1e-20
1e-20
1e-20
1e-20
1e-20
1e-20
1e-20
1e-20
1e-20
1e-20
1e-20
1e-20
1e-20
1e-20
1e-20
1e-20
1e-20
1e-20
1e-20
1e-20
1e-20
1e-20
1e-20
1e-20
1e-20
1e-20
1e-20
1e-20
1e-20
1e-20
1e-20
1e-20
1e-20
)
;

boundaryField
{
    inandouthalf11
    {
        type            cyclic;
    }
    inandouthalf12
    {
        type            cyclic;
    }
    inandouthalf21
    {
        type            cyclic;
    }
    inandouthalf22
    {
        type            cyclic;
    }
    inandouthalf31
    {
        type            cyclic;
    }
    inandouthalf32
    {
        type            cyclic;
    }
    inandouthalf41
    {
        type            cyclic;
    }
    inandouthalf42
    {
        type            cyclic;
    }
    top
    {
        type            symmetryPlane;
    }
    walls
    {
        type            zeroGradient;
    }
    frontAndBackPlanes
    {
        type            empty;
    }
}


// ************************************************************************* //
