/*--------------------------------*- C++ -*----------------------------------*\
| =========                 |                                                 |
| \\      /  F ield         | OpenFOAM: The Open Source CFD Toolbox           |
|  \\    /   O peration     | Version:  2.4.x                                 |
|   \\  /    A nd           | Web:      www.OpenFOAM.org                      |
|    \\/     M anipulation  |                                                 |
\*---------------------------------------------------------------------------*/
FoamFile
{
    version     2.0;
    format      ascii;
    class       volScalarField;
    location    "4.85";
    object      k;
}
// * * * * * * * * * * * * * * * * * * * * * * * * * * * * * * * * * * * * * //

dimensions      [0 2 -2 0 0 0 0];

internalField   nonuniform List<scalar> 
360
(
1e-20
1e-20
1e-20
1e-20
1e-20
1e-20
1e-20
1e-20
1e-20
1e-20
1e-20
1e-20
1e-20
1e-20
1e-20
1e-20
1e-20
1e-20
1e-20
1e-20
1e-20
1e-20
1e-20
1e-20
1e-20
1e-20
1e-20
1e-20
1e-20
1e-20
1e-20
1e-20
1e-20
1e-20
1e-20
1e-20
1e-20
1e-20
1e-20
1e-20
1e-20
1e-20
1e-20
1e-20
1e-20
1e-20
1e-20
1e-20
1e-20
1e-20
1e-20
1e-20
1e-20
1e-20
1e-20
1e-20
1e-20
1e-20
1e-20
1e-20
1e-20
1e-20
1e-20
1e-20
1e-20
1e-20
1e-20
1e-20
1e-20
1e-20
1e-20
1e-20
1e-20
1e-20
1e-20
1e-20
1e-20
1e-20
1e-20
1e-20
1e-20
1e-20
1e-20
1e-20
1e-20
1e-20
1e-20
1e-20
1e-20
1e-20
1e-20
1e-20
1e-20
1e-20
1e-20
1e-20
1e-20
1e-20
1e-20
1e-20
1e-20
1e-20
1e-20
1e-20
1e-20
1e-20
1e-20
1e-20
1e-20
1e-20
1e-20
1e-20
1e-20
1e-20
1e-20
1e-20
1e-20
1e-20
1e-20
1e-20
1e-20
1e-20
1e-20
1e-20
1e-20
1e-20
1e-20
1e-20
1e-20
1e-20
1e-20
1e-20
1.63451e-20
8.75449e-20
5.4336e-19
3.54332e-18
2.46247e-17
1.86434e-16
1.57426e-15
1.51571e-14
1.69528e-13
2.23842e-12
3.54668e-11
6.83574e-10
1.6181e-08
4.73999e-07
1.67876e-05
0.000474271
0.00341739
0.00597047
0.00722721
0.00794628
0.00838353
0.00865191
0.0088116
0.00889664
0.00892701
0.00891488
0.00886813
0.00879219
0.00869108
0.00856802
0.00842565
0.00826626
0.0080918
0.00790404
0.00770454
0.0074947
0.0072758
0.00704903
0.00681548
0.00657619
0.00633216
0.00608436
0.00583373
0.00558124
0.00532783
0.0050745
0.00482227
0.0045722
0.00432539
0.00408297
0.00384609
0.00361595
0.00339371
0.00318055
0.00297759
0.00278588
0.00260636
0.00243977
0.00228667
0.00214734
0.0020218
0.0019098
0.00181083
0.00172414
0.00164882
0.00158385
0.00152816
0.0014807
0.00144043
0.00140605
0.00137661
0.00135155
0.00133036
0.00131252
0.00129758
0.00128509
0.00127464
0.00126587
0.0012584
0.00125191
0.00124609
0.00124063
0.00123523
0.00122964
0.00122357
0.00121676
0.00120897
0.00119993
0.00118942
0.0011772
0.00116304
0.00114671
0.001128
0.00110672
0.00108265
0.00105561
0.00102544
0.000991965
0.000955051
0.000914573
0.000870434
0.000822566
0.000770937
0.00071556
0.000656507
0.00059392
0.000528038
0.000459223
0.000388008
0.000315164
0.000241813
0.000169633
0.000101272
4.08303e-05
5.73151e-06
1.68541e-07
2.51118e-09
3.44237e-11
4.46287e-13
5.47513e-15
6.35904e-17
7.07398e-19
1.62966e-20
1e-20
1e-20
1e-20
1e-20
1e-20
1e-20
1e-20
1e-20
1e-20
1e-20
1e-20
1e-20
1e-20
1e-20
1e-20
1e-20
1e-20
1e-20
1e-20
1e-20
1e-20
1e-20
1e-20
1e-20
1e-20
1e-20
1e-20
1e-20
1e-20
1e-20
1e-20
1e-20
1e-20
1e-20
1e-20
1e-20
1e-20
1e-20
1e-20
1e-20
1e-20
1e-20
1e-20
1e-20
1e-20
1e-20
1e-20
1e-20
1e-20
1e-20
1e-20
1e-20
1e-20
1e-20
1e-20
1e-20
1e-20
1e-20
1e-20
1e-20
1e-20
1e-20
1e-20
1e-20
1e-20
1e-20
1e-20
1e-20
1e-20
1e-20
1e-20
1e-20
1e-20
1e-20
1e-20
1e-20
1e-20
1e-20
1e-20
1e-20
1e-20
1e-20
1e-20
1e-20
1e-20
1e-20
1e-20
1e-20
1e-20
1e-20
1e-20
1e-20
1e-20
1e-20
1e-20
1e-20
1e-20
1e-20
1e-20
1e-20
1e-20
1e-20
1e-20
1e-20
1e-20
)
;

boundaryField
{
    inandouthalf11
    {
        type            cyclic;
    }
    inandouthalf12
    {
        type            cyclic;
    }
    inandouthalf21
    {
        type            cyclic;
    }
    inandouthalf22
    {
        type            cyclic;
    }
    inandouthalf31
    {
        type            cyclic;
    }
    inandouthalf32
    {
        type            cyclic;
    }
    inandouthalf41
    {
        type            cyclic;
    }
    inandouthalf42
    {
        type            cyclic;
    }
    top
    {
        type            symmetryPlane;
    }
    walls
    {
        type            zeroGradient;
    }
    frontAndBackPlanes
    {
        type            empty;
    }
}


// ************************************************************************* //
