/*--------------------------------*- C++ -*----------------------------------*\
| =========                 |                                                 |
| \\      /  F ield         | OpenFOAM: The Open Source CFD Toolbox           |
|  \\    /   O peration     | Version:  2.4.x                                 |
|   \\  /    A nd           | Web:      www.OpenFOAM.org                      |
|    \\/     M anipulation  |                                                 |
\*---------------------------------------------------------------------------*/
FoamFile
{
    version     2.0;
    format      ascii;
    class       volScalarField;
    location    "4.85";
    object      k_0;
}
// * * * * * * * * * * * * * * * * * * * * * * * * * * * * * * * * * * * * * //

dimensions      [0 2 -2 0 0 0 0];

internalField   nonuniform List<scalar> 
360
(
1e-20
1e-20
1e-20
1e-20
1e-20
1e-20
1e-20
1e-20
1e-20
1e-20
1e-20
1e-20
1e-20
1e-20
1e-20
1e-20
1e-20
1e-20
1e-20
1e-20
1e-20
1e-20
1e-20
1e-20
1e-20
1e-20
1e-20
1e-20
1e-20
1e-20
1e-20
1e-20
1e-20
1e-20
1e-20
1e-20
1e-20
1e-20
1e-20
1e-20
1e-20
1e-20
1e-20
1e-20
1e-20
1e-20
1e-20
1e-20
1e-20
1e-20
1e-20
1e-20
1e-20
1e-20
1e-20
1e-20
1e-20
1e-20
1e-20
1e-20
1e-20
1e-20
1e-20
1e-20
1e-20
1e-20
1e-20
1e-20
1e-20
1e-20
1e-20
1e-20
1e-20
1e-20
1e-20
1e-20
1e-20
1e-20
1e-20
1e-20
1e-20
1e-20
1e-20
1e-20
1e-20
1e-20
1e-20
1e-20
1e-20
1e-20
1e-20
1e-20
1e-20
1e-20
1e-20
1e-20
1e-20
1e-20
1e-20
1e-20
1e-20
1e-20
1e-20
1e-20
1e-20
1e-20
1e-20
1e-20
1e-20
1e-20
1e-20
1e-20
1e-20
1e-20
1e-20
1e-20
1e-20
1e-20
1e-20
1e-20
1e-20
1e-20
1e-20
1e-20
1e-20
1e-20
1e-20
1e-20
1e-20
1e-20
1e-20
1e-20
1.63382e-20
8.75115e-20
5.43217e-19
3.54277e-18
2.46231e-17
1.86436e-16
1.57437e-15
1.51589e-14
1.69555e-13
2.23884e-12
3.54746e-11
6.83742e-10
1.61854e-08
4.74142e-07
1.67929e-05
0.000474392
0.00341775
0.00597074
0.00722746
0.00794652
0.00838376
0.00865212
0.00881178
0.0088968
0.00892713
0.00891497
0.00886818
0.0087922
0.00869105
0.00856795
0.00842554
0.00826609
0.0080916
0.00790379
0.00770424
0.00749435
0.00727541
0.00704859
0.00681499
0.00657566
0.00633159
0.00608374
0.00583307
0.00558054
0.0053271
0.00507374
0.00482148
0.00457139
0.00432455
0.00408212
0.00384524
0.00361509
0.00339286
0.00317972
0.00297679
0.00278512
0.00260563
0.00243909
0.00228604
0.00214676
0.00202129
0.00190935
0.00181044
0.00172381
0.00164854
0.00158362
0.00152799
0.00148057
0.00144034
0.00140599
0.00137658
0.00135155
0.00133038
0.00131257
0.00129764
0.00128517
0.00127474
0.00126597
0.00125852
0.00125204
0.00124622
0.00124076
0.00123538
0.00122978
0.00122371
0.00121691
0.00120911
0.00120007
0.00118956
0.00117733
0.00116316
0.00114683
0.00112812
0.00110682
0.00108274
0.0010557
0.00102551
0.00099203
0.000955104
0.000914614
0.000870463
0.000822581
0.000770938
0.000715547
0.00065648
0.000593879
0.000527983
0.000459155
0.000387928
0.000315073
0.000241713
0.000169529
0.00010117
4.07424e-05
5.7047e-06
1.67354e-07
2.49268e-09
3.41658e-11
4.42886e-13
5.43272e-15
6.30899e-17
7.0181e-19
1.62392e-20
1e-20
1e-20
1e-20
1e-20
1e-20
1e-20
1e-20
1e-20
1e-20
1e-20
1e-20
1e-20
1e-20
1e-20
1e-20
1e-20
1e-20
1e-20
1e-20
1e-20
1e-20
1e-20
1e-20
1e-20
1e-20
1e-20
1e-20
1e-20
1e-20
1e-20
1e-20
1e-20
1e-20
1e-20
1e-20
1e-20
1e-20
1e-20
1e-20
1e-20
1e-20
1e-20
1e-20
1e-20
1e-20
1e-20
1e-20
1e-20
1e-20
1e-20
1e-20
1e-20
1e-20
1e-20
1e-20
1e-20
1e-20
1e-20
1e-20
1e-20
1e-20
1e-20
1e-20
1e-20
1e-20
1e-20
1e-20
1e-20
1e-20
1e-20
1e-20
1e-20
1e-20
1e-20
1e-20
1e-20
1e-20
1e-20
1e-20
1e-20
1e-20
1e-20
1e-20
1e-20
1e-20
1e-20
1e-20
1e-20
1e-20
1e-20
1e-20
1e-20
1e-20
1e-20
1e-20
1e-20
1e-20
1e-20
1e-20
1e-20
1e-20
1e-20
1e-20
1e-20
1e-20
)
;

boundaryField
{
    inandouthalf11
    {
        type            cyclic;
    }
    inandouthalf12
    {
        type            cyclic;
    }
    inandouthalf21
    {
        type            cyclic;
    }
    inandouthalf22
    {
        type            cyclic;
    }
    inandouthalf31
    {
        type            cyclic;
    }
    inandouthalf32
    {
        type            cyclic;
    }
    inandouthalf41
    {
        type            cyclic;
    }
    inandouthalf42
    {
        type            cyclic;
    }
    top
    {
        type            symmetryPlane;
    }
    walls
    {
        type            zeroGradient;
    }
    frontAndBackPlanes
    {
        type            empty;
    }
}


// ************************************************************************* //
