/*--------------------------------*- C++ -*----------------------------------*\
| =========                 |                                                 |
| \\      /  F ield         | OpenFOAM: The Open Source CFD Toolbox           |
|  \\    /   O peration     | Version:  2.4.x                                 |
|   \\  /    A nd           | Web:      www.OpenFOAM.org                      |
|    \\/     M anipulation  |                                                 |
\*---------------------------------------------------------------------------*/
FoamFile
{
    version     2.0;
    format      ascii;
    class       volScalarField;
    location    "4.85";
    object      mua;
}
// * * * * * * * * * * * * * * * * * * * * * * * * * * * * * * * * * * * * * //

dimensions      [1 -1 -1 0 0 0 0];

internalField   nonuniform List<scalar> 
360
(
621027
383393
448443
485322
471062
452472
440406
432724
427148
421533
414937
407726
400483
393622
387098
380638
374059
367292
360252
352885
345304
337429
329456
321733
314701
308881
304730
302536
302523
304416
307162
308889
307009
298230
280295
252645
217890
181480
150189
129965
125940
147547
223126
453863
1.25535e+06
4.56419e+06
1.9877e+07
8.92482e+07
3.48344e+08
1.0386e+09
2.22616e+09
3.4278e+09
3.98739e+09
3.79649e+09
3.22016e+09
2.60589e+09
2.10938e+09
1.75248e+09
1.51252e+09
1.35894e+09
1.26616e+09
1.2174e+09
1.19925e+09
1.20211e+09
1.2172e+09
1.23637e+09
1.25192e+09
1.25808e+09
1.25124e+09
1.22964e+09
1.1935e+09
1.14678e+09
1.09446e+09
1.03984e+09
9.86633e+08
9.37387e+08
8.93729e+08
8.55455e+08
8.21641e+08
7.91249e+08
7.63192e+08
7.36312e+08
7.09972e+08
6.84038e+08
6.58669e+08
6.34242e+08
6.11163e+08
5.89788e+08
5.70222e+08
5.52357e+08
5.35974e+08
5.20768e+08
5.06407e+08
4.92648e+08
4.79337e+08
4.66404e+08
4.53843e+08
4.41679e+08
4.29942e+08
4.18649e+08
4.07803e+08
3.97393e+08
3.874e+08
3.77806e+08
3.68596e+08
3.59752e+08
3.51257e+08
3.43087e+08
3.3521e+08
3.2759e+08
3.20181e+08
3.12932e+08
3.05781e+08
2.98663e+08
2.91503e+08
2.84226e+08
2.76754e+08
2.69019e+08
2.60973e+08
2.526e+08
2.43927e+08
2.35042e+08
2.26095e+08
2.17288e+08
2.08862e+08
2.01073e+08
1.94175e+08
1.88425e+08
1.841e+08
1.81512e+08
1.80941e+08
1.82463e+08
1.857e+08
1.89775e+08
1.93724e+08
1.96974e+08
1.99e+08
1.9872e+08
1.96149e+08
1.97231e+08
2.18079e+08
2.87608e+08
4.57259e+08
8.50439e+08
1.53302e+09
1.27649e+09
0.407548
0.0232655
0.0115776
0.0092666
0.00802276
0.00717798
0.00660601
0.00622908
0.00599096
0.0058475
0.00576489
0.00571866
0.00569209
0.00567436
0.00565882
0.00564162
0.00562063
0.00559485
0.00556393
0.00552789
0.00548702
0.00544172
0.00539248
0.00533984
0.00528436
0.00522663
0.00516725
0.0051068
0.00504586
0.00498502
0.00492478
0.00486565
0.00480804
0.0047523
0.00469866
0.00464726
0.00459813
0.00455122
0.00450642
0.00446362
0.00442268
0.00438348
0.0043459
0.00430984
0.00427517
0.00424178
0.00420954
0.0041783
0.00414792
0.00411825
0.00408915
0.00406051
0.00403222
0.0040042
0.00397636
0.00394835
0.00391982
0.00389069
0.00386089
0.00383035
0.00379898
0.00376671
0.00373345
0.00369911
0.00366361
0.00362684
0.00358871
0.00354908
0.00350785
0.00346487
0.00342
0.00337306
0.00332387
0.00327221
0.00321784
0.00316046
0.00309975
0.00303531
0.00296667
0.00289324
0.00281432
0.002729
0.00263611
0.0025341
0.00242082
0.00229317
0.00214637
0.00197239
0.00175581
0.00145871
0
0
0
0
0
0
0
0
0
0
0
0
0
0
0
0
0
0
0
0
0
0
0
0
0
0
0
0
0
0
0
0
0
0
0
0
0
0
0
0
0
0
0
0
0
0
0
0
0
0
0
0
0
0
0
0
0
0
0
0
0
0
0
0
0
0
0
0
0
0
0
0
0
0
0
0
0
0
0
0
0
0
0
0
0
0
0
0
0
0
0
0
0
0
0
0
0
0
0
0
0
0
0
0
0
0
0
0
0
0
0
0
0
0
0
0
0
0
0
0
0
0
0
0
)
;

boundaryField
{
    inandouthalf11
    {
        type            cyclic;
    }
    inandouthalf12
    {
        type            cyclic;
    }
    inandouthalf21
    {
        type            cyclic;
    }
    inandouthalf22
    {
        type            cyclic;
    }
    inandouthalf31
    {
        type            cyclic;
    }
    inandouthalf32
    {
        type            cyclic;
    }
    inandouthalf41
    {
        type            cyclic;
    }
    inandouthalf42
    {
        type            cyclic;
    }
    top
    {
        type            symmetryPlane;
    }
    walls
    {
        type            calculated;
        value           uniform 1e+30;
    }
    frontAndBackPlanes
    {
        type            empty;
    }
}


// ************************************************************************* //
