/*--------------------------------*- C++ -*----------------------------------*\
| =========                 |                                                 |
| \\      /  F ield         | OpenFOAM: The Open Source CFD Toolbox           |
|  \\    /   O peration     | Version:  2.4.x                                 |
|   \\  /    A nd           | Web:      www.OpenFOAM.org                      |
|    \\/     M anipulation  |                                                 |
\*---------------------------------------------------------------------------*/
FoamFile
{
    version     2.0;
    format      ascii;
    class       volScalarField;
    location    "4.85";
    object      nutb;
}
// * * * * * * * * * * * * * * * * * * * * * * * * * * * * * * * * * * * * * //

dimensions      [0 2 -1 0 0 0 0];

internalField   nonuniform List<scalar> 
360
(
9e-22
9e-22
9e-22
9e-22
9e-22
9e-22
9e-22
9e-22
9e-22
9e-22
9e-22
9e-22
9e-22
9e-22
9e-22
9e-22
9e-22
9e-22
9e-22
9e-22
9e-22
9e-22
9e-22
9e-22
9e-22
9e-22
9e-22
9e-22
9e-22
9e-22
9e-22
9e-22
9e-22
9e-22
9e-22
9e-22
9e-22
9e-22
9e-22
9e-22
9e-22
9e-22
9e-22
9e-22
9e-22
9e-22
9e-22
9e-22
9e-22
9e-22
9e-22
9e-22
9e-22
9e-22
9e-22
9e-22
9e-22
9e-22
9e-22
9e-22
9e-22
9e-22
9e-22
9e-22
9e-22
9e-22
9e-22
9e-22
9e-22
9e-22
9e-22
9e-22
9e-22
9e-22
9e-22
9e-22
9e-22
9e-22
9e-22
9e-22
9e-22
9e-22
9e-22
9e-22
9e-22
9e-22
9e-22
9e-22
9e-22
9e-22
9e-22
9e-22
9e-22
9e-22
9e-22
9e-22
9e-22
9e-22
9e-22
9e-22
9e-22
9e-22
9e-22
9e-22
9e-22
9e-22
9e-22
9e-22
9e-22
9e-22
9e-22
9e-22
9e-22
9e-22
9e-22
9e-22
9e-22
9e-22
9e-22
9e-22
9e-22
9e-22
9e-22
9e-22
9e-22
9e-22
9e-22
9e-22
9e-22
9e-22
9e-22
9e-22
9.60389e-22
4.4459e-21
2.45103e-20
1.39984e-19
8.3799e-19
5.37703e-18
3.79262e-17
3.01268e-16
2.74959e-15
2.93209e-14
3.72153e-13
5.7112e-12
1.07092e-10
2.4752e-09
6.86621e-08
1.5053e-06
8.77622e-06
1.70219e-05
2.38574e-05
2.99639e-05
3.56823e-05
4.11729e-05
4.65191e-05
5.1752e-05
5.68669e-05
6.18376e-05
6.66278e-05
7.11996e-05
7.55179e-05
7.95534e-05
8.32832e-05
8.66906e-05
8.97646e-05
9.24995e-05
9.48936e-05
9.69488e-05
9.86701e-05
0.000100065
0.000101144
0.000101918
0.000102402
0.00010261
0.00010256
0.00010227
0.000101761
0.000101057
0.00010018
9.91601e-05
9.80253e-05
9.68079e-05
9.5542e-05
9.42639e-05
9.30118e-05
9.18265e-05
9.07506e-05
8.98276e-05
8.91011e-05
8.86124e-05
8.83985e-05
8.84895e-05
8.89059e-05
8.96565e-05
9.07366e-05
9.21277e-05
9.37983e-05
9.57064e-05
9.78029e-05
0.000100034
0.000102346
0.000104714
0.000107112
0.000109495
0.00011182
0.000114051
0.000116157
0.000118111
0.000119894
0.000121491
0.000122893
0.000124093
0.000125088
0.000125875
0.000126456
0.000126829
0.000126995
0.000126954
0.000126703
0.000126242
0.000125566
0.000124671
0.000123551
0.000122199
0.000120607
0.000118765
0.000116664
0.000114292
0.000111637
0.000108686
0.000105427
0.000101845
9.79267e-05
9.36563e-05
8.90191e-05
8.40001e-05
7.8584e-05
7.27558e-05
6.65009e-05
5.98052e-05
5.26558e-05
4.50414e-05
3.69538e-05
2.83899e-05
1.93427e-05
9.65667e-06
1.72782e-06
5.6842e-08
8.47446e-10
1.15547e-11
1.49026e-13
1.81914e-15
2.10189e-17
2.25954e-19
2.1696e-21
9e-22
9e-22
9e-22
9e-22
9e-22
9e-22
9e-22
9e-22
9e-22
9e-22
9e-22
9e-22
9e-22
9e-22
9e-22
9e-22
9e-22
9e-22
9e-22
9e-22
9e-22
9e-22
9e-22
9e-22
9e-22
9e-22
9e-22
9e-22
9e-22
9e-22
9e-22
9e-22
9e-22
9e-22
9e-22
9e-22
9e-22
9e-22
9e-22
9e-22
9e-22
9e-22
9e-22
9e-22
9e-22
9e-22
9e-22
9e-22
9e-22
9e-22
9e-22
9e-22
9e-22
9e-22
9e-22
9e-22
9e-22
9e-22
9e-22
9e-22
9e-22
9e-22
9e-22
9e-22
9e-22
9e-22
9e-22
9e-22
9e-22
9e-22
9e-22
9e-22
9e-22
9e-22
9e-22
9e-22
9e-22
9e-22
9e-22
9e-22
9e-22
9e-22
9e-22
9e-22
9e-22
9e-22
9e-22
9e-22
9e-22
9e-22
9e-22
9e-22
9e-22
9e-22
9e-22
9e-22
9e-22
9e-22
9e-22
9e-22
9e-22
9e-22
9e-22
9e-22
9e-22
)
;

boundaryField
{
    inandouthalf11
    {
        type            cyclic;
    }
    inandouthalf12
    {
        type            cyclic;
    }
    inandouthalf21
    {
        type            cyclic;
    }
    inandouthalf22
    {
        type            cyclic;
    }
    inandouthalf31
    {
        type            cyclic;
    }
    inandouthalf32
    {
        type            cyclic;
    }
    inandouthalf41
    {
        type            cyclic;
    }
    inandouthalf42
    {
        type            cyclic;
    }
    top
    {
        type            symmetryPlane;
    }
    walls
    {
        type            calculated;
        value           uniform 0;
    }
    frontAndBackPlanes
    {
        type            empty;
    }
}


// ************************************************************************* //
