/*--------------------------------*- C++ -*----------------------------------*\
| =========                 |                                                 |
| \\      /  F ield         | OpenFOAM: The Open Source CFD Toolbox           |
|  \\    /   O peration     | Version:  2.4.x                                 |
|   \\  /    A nd           | Web:      www.OpenFOAM.org                      |
|    \\/     M anipulation  |                                                 |
\*---------------------------------------------------------------------------*/
FoamFile
{
    version     2.0;
    format      ascii;
    class       volTensorField;
    location    "4.85";
    object      Tauf;
}
// * * * * * * * * * * * * * * * * * * * * * * * * * * * * * * * * * * * * * //

dimensions      [0 2 -2 0 0 0 0];

internalField   nonuniform List<tensor> 
360
(
(0 -8.28089e-09 0 -8.28089e-09 9.44046e-10 0 0 0 0)
(0 -6.94081e-11 0 -6.94081e-11 1.2456e-09 0 0 0 0)
(0 -8.93667e-11 0 -8.93667e-11 1.32095e-09 0 0 0 0)
(0 -8.96346e-11 0 -8.96346e-11 1.2367e-09 0 0 0 0)
(1.61559e-24 -8.91045e-11 0 -8.91045e-11 1.22083e-09 0 0 0 0)
(8.07794e-25 -9.11343e-11 0 -9.11343e-11 1.24523e-09 0 0 0 0)
(8.07794e-25 -9.35446e-11 0 -9.35446e-11 1.27053e-09 0 0 0 0)
(0 -9.52713e-11 0 -9.52713e-11 1.28577e-09 0 0 0 0)
(1.61559e-24 -9.6591e-11 0 -9.6591e-11 1.29448e-09 0 0 0 0)
(0 -9.79366e-11 0 -9.79366e-11 1.30245e-09 0 0 0 0)
(8.07794e-25 -9.94373e-11 0 -9.94373e-11 1.3126e-09 0 0 0 0)
(0 -1.01085e-10 0 -1.01085e-10 1.32474e-09 0 0 0 0)
(8.07794e-25 -1.02793e-10 0 -1.02793e-10 1.33759e-09 0 0 0 0)
(0 -1.04486e-10 0 -1.04486e-10 1.35003e-09 0 0 0 0)
(0 -1.06176e-10 0 -1.06176e-10 1.36197e-09 0 0 0 0)
(0 -1.07906e-10 0 -1.07906e-10 1.37404e-09 0 0 0 0)
(0 -1.09714e-10 0 -1.09714e-10 1.38685e-09 0 0 0 0)
(1.61559e-24 -1.11636e-10 0 -1.11636e-10 1.4008e-09 0 0 0 0)
(0 -1.13721e-10 0 -1.13721e-10 1.41636e-09 0 0 0 0)
(0 -1.15963e-10 0 -1.15963e-10 1.43368e-09 0 0 0 0)
(0 -1.18389e-10 0 -1.18389e-10 1.45278e-09 0 0 0 0)
(8.07794e-25 -1.21014e-10 0 -1.21014e-10 1.47374e-09 0 0 0 0)
(0 -1.23768e-10 0 -1.23768e-10 1.49587e-09 0 0 0 0)
(0 -1.26547e-10 0 -1.26547e-10 1.51771e-09 0 0 0 0)
(0 -1.2916e-10 0 -1.2916e-10 1.5371e-09 0 0 0 0)
(1.61559e-24 -1.3137e-10 0 -1.3137e-10 1.55129e-09 0 0 0 0)
(0 -1.3296e-10 0 -1.3296e-10 1.55771e-09 0 0 0 0)
(0 -1.33733e-10 0 -1.33733e-10 1.55445e-09 0 0 0 0)
(0 -1.33592e-10 0 -1.33592e-10 1.54081e-09 0 0 0 0)
(0 -1.32706e-10 0 -1.32706e-10 1.51873e-09 0 0 0 0)
(0 -1.31564e-10 0 -1.31564e-10 1.49397e-09 0 0 0 0)
(0 -1.30918e-10 0 -1.30918e-10 1.47527e-09 0 0 0 0)
(0 -1.31917e-10 0 -1.31917e-10 1.47512e-09 0 0 0 0)
(0 -1.35951e-10 0 -1.35951e-10 1.50912e-09 0 0 0 0)
(0 -1.44721e-10 0 -1.44721e-10 1.59586e-09 0 0 0 0)
(-8.07794e-25 -1.6037e-10 0 -1.6037e-10 1.75785e-09 0 0 0 0)
(0 -1.85168e-10 0 -1.85168e-10 2.01723e-09 0 0 0 0)
(0 -2.20332e-10 0 -2.20332e-10 2.38073e-09 0 0 0 0)
(0 -2.62275e-10 0 -2.62275e-10 2.79908e-09 0 0 0 0)
(0 -2.97188e-10 0 -2.97188e-10 3.12248e-09 0 0 0 0)
(0 -3.00061e-10 0 -3.00061e-10 3.1195e-09 0 0 0 0)
(0 -2.5164e-10 0 -2.5164e-10 2.63699e-09 0 0 0 0)
(-1.61559e-24 -1.65282e-10 0 -1.65282e-10 1.80049e-09 0 0 0 0)
(0 -8.18767e-11 0 -8.18767e-11 9.6084e-10 0 0 0 0)
(0 -3.04478e-11 0 -3.04478e-11 3.9325e-10 0 0 0 0)
(0 -9.07964e-12 0 -9.07964e-12 1.23021e-10 0 0 0 0)
(0 -2.70068e-12 0 -2.70068e-12 2.90571e-11 0 0 0 0)
(0 -1.23598e-12 0 -1.23598e-12 3.82494e-12 0 0 0 0)
(0 -1.01922e-12 0 -1.01922e-12 -1.84805e-12 0 0 0 0)
(0 -9.88704e-13 0 -9.88704e-13 -3.48487e-12 0 0 0 0)
(-8.07794e-25 -1.01612e-12 0 -1.01612e-12 -4.07636e-12 0 0 0 0)
(0 -1.08864e-12 0 -1.08864e-12 -4.3772e-12 0 0 0 0)
(0 -1.16029e-12 0 -1.16029e-12 -4.70827e-12 0 0 0 0)
(0 -1.22908e-12 0 -1.22908e-12 -5.08528e-12 0 0 0 0)
(0 -1.32414e-12 0 -1.32414e-12 -5.35393e-12 0 0 0 0)
(0 -1.41197e-12 0 -1.41197e-12 -5.68444e-12 0 0 0 0)
(0 -1.49298e-12 0 -1.49298e-12 -6.06399e-12 0 0 0 0)
(0 -1.5951e-12 0 -1.5951e-12 -6.23736e-12 0 0 0 0)
(0 -1.65354e-12 0 -1.65354e-12 -6.71183e-12 0 0 0 0)
(0 -1.75664e-12 0 -1.75664e-12 -6.89214e-12 0 0 0 0)
(0 -1.83712e-12 0 -1.83712e-12 -7.1961e-12 0 0 0 0)
(0 -1.89388e-12 0 -1.89388e-12 -7.50939e-12 0 0 0 0)
(0 -1.95686e-12 0 -1.95686e-12 -7.6694e-12 0 0 0 0)
(0 -1.99577e-12 0 -1.99577e-12 -7.93431e-12 0 0 0 0)
(0 -2.04349e-12 0 -2.04349e-12 -8.14314e-12 0 0 0 0)
(0 -2.10191e-12 0 -2.10191e-12 -8.41127e-12 0 0 0 0)
(0 -2.17713e-12 0 -2.17713e-12 -8.66463e-12 0 0 0 0)
(0 -2.24853e-12 0 -2.24853e-12 -8.96542e-12 0 0 0 0)
(0 -2.31672e-12 0 -2.31672e-12 -9.35916e-12 0 0 0 0)
(0 -2.4177e-12 0 -2.4177e-12 -9.71648e-12 0 0 0 0)
(0 -2.53369e-12 0 -2.53369e-12 -9.97415e-12 0 0 0 0)
(0 -2.5967e-12 0 -2.5967e-12 -1.04336e-11 0 0 0 0)
(0 -2.67543e-12 0 -2.67543e-12 -1.07256e-11 0 0 0 0)
(0 -2.76538e-12 0 -2.76538e-12 -1.09832e-11 0 0 0 0)
(0 -2.83704e-12 0 -2.83704e-12 -1.12778e-11 0 0 0 0)
(0 -2.89762e-12 0 -2.89762e-12 -1.15044e-11 0 0 0 0)
(0 -2.94761e-12 0 -2.94761e-12 -1.17863e-11 0 0 0 0)
(0 -3.01924e-12 0 -3.01924e-12 -1.2003e-11 0 0 0 0)
(0 -3.09468e-12 0 -3.09468e-12 -1.22703e-11 0 0 0 0)
(0 -3.16692e-12 0 -3.16692e-12 -1.25855e-11 0 0 0 0)
(0 -3.24843e-12 0 -3.24843e-12 -1.29102e-11 0 0 0 0)
(0 -3.34236e-12 0 -3.34236e-12 -1.32261e-11 0 0 0 0)
(0 -3.4326e-12 0 -3.4326e-12 -1.3586e-11 0 0 0 0)
(0 -3.52246e-12 0 -3.52246e-12 -1.39278e-11 0 0 0 0)
(0 -3.61032e-12 0 -3.61032e-12 -1.42648e-11 0 0 0 0)
(0 -3.69604e-12 0 -3.69604e-12 -1.45881e-11 0 0 0 0)
(0 -3.77821e-12 0 -3.77821e-12 -1.49005e-11 0 0 0 0)
(0 -3.85677e-12 0 -3.85677e-12 -1.52233e-11 0 0 0 0)
(0 -3.93982e-12 0 -3.93982e-12 -1.55365e-11 0 0 0 0)
(0 -4.02623e-12 0 -4.02623e-12 -1.58651e-11 0 0 0 0)
(0 -4.11515e-12 0 -4.11515e-12 -1.62185e-11 0 0 0 0)
(0 -4.2103e-12 0 -4.2103e-12 -1.65836e-11 0 0 0 0)
(0 -4.31079e-12 0 -4.31079e-12 -1.69641e-11 0 0 0 0)
(0 -4.41361e-12 0 -4.41361e-12 -1.7364e-11 0 0 0 0)
(0 -4.51905e-12 0 -4.51905e-12 -1.77719e-11 0 0 0 0)
(0 -4.6267e-12 0 -4.6267e-12 -1.81878e-11 0 0 0 0)
(0 -4.73606e-12 0 -4.73606e-12 -1.86128e-11 0 0 0 0)
(0 -4.84757e-12 0 -4.84757e-12 -1.90476e-11 0 0 0 0)
(0 -4.96223e-12 0 -4.96223e-12 -1.94929e-11 0 0 0 0)
(0 -5.08053e-12 0 -5.08053e-12 -1.99521e-11 0 0 0 0)
(0 -5.20282e-12 0 -5.20282e-12 -2.04279e-11 0 0 0 0)
(0 -5.32982e-12 0 -5.32982e-12 -2.09205e-11 0 0 0 0)
(0 -5.46165e-12 0 -5.46165e-12 -2.14315e-11 0 0 0 0)
(0 -5.59826e-12 0 -5.59826e-12 -2.19623e-11 0 0 0 0)
(0 -5.73998e-12 0 -5.73998e-12 -2.25131e-11 0 0 0 0)
(0 -5.88713e-12 0 -5.88713e-12 -2.3085e-11 0 0 0 0)
(0 -6.04006e-12 0 -6.04006e-12 -2.36798e-11 0 0 0 0)
(0 -6.19925e-12 0 -6.19925e-12 -2.42987e-11 0 0 0 0)
(0 -6.36517e-12 0 -6.36517e-12 -2.49435e-11 0 0 0 0)
(0 -6.53823e-12 0 -6.53823e-12 -2.56158e-11 0 0 0 0)
(0 -6.71887e-12 0 -6.71887e-12 -2.63169e-11 0 0 0 0)
(0 -6.9075e-12 0 -6.9075e-12 -2.70484e-11 0 0 0 0)
(0 -7.10458e-12 0 -7.10458e-12 -2.78117e-11 0 0 0 0)
(0 -7.31058e-12 0 -7.31058e-12 -2.86082e-11 0 0 0 0)
(0 -7.52599e-12 0 -7.52599e-12 -2.94396e-11 0 0 0 0)
(0 -7.75137e-12 0 -7.75137e-12 -3.03076e-11 0 0 0 0)
(0 -7.98731e-12 0 -7.98731e-12 -3.1214e-11 0 0 0 0)
(0 -8.23451e-12 0 -8.23451e-12 -3.2161e-11 0 0 0 0)
(0 -8.49371e-12 0 -8.49371e-12 -3.31507e-11 0 0 0 0)
(0 -8.76566e-12 0 -8.76566e-12 -3.41854e-11 0 0 0 0)
(0 -9.05108e-12 0 -9.05108e-12 -3.52674e-11 0 0 0 0)
(0 -9.35057e-12 0 -9.35057e-12 -3.6399e-11 0 0 0 0)
(0 -9.6647e-12 0 -9.6647e-12 -3.75837e-11 0 0 0 0)
(0 -9.99449e-12 0 -9.99449e-12 -3.88283e-11 0 0 0 0)
(0 -1.03422e-11 0 -1.03422e-11 -4.01445e-11 0 0 0 0)
(0 -1.07121e-11 0 -1.07121e-11 -4.15495e-11 0 0 0 0)
(0 -1.11105e-11 0 -1.11105e-11 -4.30616e-11 0 0 0 0)
(0 -1.1543e-11 0 -1.1543e-11 -4.46904e-11 0 0 0 0)
(0 -1.20104e-11 0 -1.20104e-11 -4.64302e-11 0 0 0 0)
(0 -1.2505e-11 0 -1.2505e-11 -4.82783e-11 0 0 0 0)
(0 -1.30203e-11 0 -1.30203e-11 -5.0291e-11 0 0 0 0)
(0 -1.3579e-11 0 -1.3579e-11 -5.26035e-11 0 0 0 0)
(0 -1.42502e-11 0 -1.42502e-11 -5.52889e-11 0 0 0 0)
(0 -1.50842e-11 0 -1.50842e-11 -5.82108e-11 0 0 0 0)
(0 -1.60012e-11 0 -1.60012e-11 -6.12884e-11 0 0 0 0)
(0 -1.68718e-11 0 -1.68718e-11 -6.48974e-11 0 0 0 0)
(0 -1.78224e-11 0 -1.78224e-11 -6.98661e-11 0 0 0 0)
(0 -1.93587e-11 0 -1.93587e-11 -7.66914e-11 0 0 0 0)
(0 -2.18706e-11 0 -2.18706e-11 -8.3287e-11 0 0 0 0)
(0 -2.43857e-11 0 -2.43857e-11 -8.66224e-11 0 0 0 0)
(0 -2.47928e-11 0 -2.47928e-11 -9.7654e-11 0 0 0 0)
(0 -2.65187e-11 0 -2.65187e-11 -1.13954e-10 0 0 0 0)
(0 -3.31683e-11 0 -3.31683e-11 -1.30135e-10 0 0 0 0)
(0 -4.19382e-11 0 -4.19382e-11 -1.91245e-10 0 0 0 0)
(0 -8.55605e-11 0 -8.55605e-11 1.89127e-10 0 0 0 0)
(0 -2.27728e-08 0 -2.27728e-08 -1.10055e-08 0 0 0 0)
(0 -1.25433e-05 0 -1.25433e-05 3.98784e-08 0 0 0 0)
(0 -0.000276839 0 -0.000276839 6.19818e-07 0 0 0 0)
(0 -0.00191782 0 -0.00191782 9.8522e-07 0 0 0 0)
(0 -0.00313746 0 -0.00313746 -1.85384e-06 0 0 0 0)
(0 -0.00347375 0 -0.00347375 -7.82197e-07 0 0 0 0)
(0 -0.00359728 0 -0.00359728 -1.65141e-06 0 0 0 0)
(0 -0.00361956 0 -0.00361956 -1.91186e-06 0 0 0 0)
(0 -0.00358848 0 -0.00358848 -2.04811e-06 0 0 0 0)
(0 -0.00353088 0 -0.00353088 -2.06141e-06 0 0 0 0)
(0 -0.00346103 0 -0.00346103 -1.96146e-06 0 0 0 0)
(0 -0.00338617 0 -0.00338617 -1.77539e-06 0 0 0 0)
(0 -0.00330972 0 -0.00330972 -1.53842e-06 0 0 0 0)
(0 -0.00323301 0 -0.00323301 -1.28025e-06 0 0 0 0)
(0 -0.0031564 0 -0.0031564 -1.02356e-06 0 0 0 0)
(0 -0.00307977 0 -0.00307977 -7.85667e-07 0 0 0 0)
(0 -0.00300288 0 -0.00300288 -5.74042e-07 0 0 0 0)
(0 -0.00292547 0 -0.00292547 -3.90407e-07 0 0 0 0)
(0 -0.00284732 0 -0.00284732 -2.35547e-07 0 0 0 0)
(0 -0.00276824 0 -0.00276824 -1.08136e-07 0 0 0 0)
(0 -0.00268814 0 -0.00268814 -5.66907e-09 0 0 0 0)
(0 -0.00260694 0 -0.00260694 7.48007e-08 0 0 0 0)
(0 -0.00252463 0 -0.00252463 1.36281e-07 0 0 0 0)
(0 -0.0024412 0 -0.0024412 1.81655e-07 0 0 0 0)
(0 -0.0023567 0 -0.0023567 2.13585e-07 0 0 0 0)
(0 -0.00227117 0 -0.00227117 2.34456e-07 0 0 0 0)
(0 -0.0021847 0 -0.0021847 2.46361e-07 0 0 0 0)
(0 -0.00209736 0 -0.00209736 2.51093e-07 0 0 0 0)
(0 -0.00200927 0 -0.00200927 2.50201e-07 0 0 0 0)
(0 -0.00192055 0 -0.00192055 2.45126e-07 0 0 0 0)
(0 -0.00183133 0 -0.00183133 2.37392e-07 0 0 0 0)
(0 -0.00174176 0 -0.00174176 2.28623e-07 0 0 0 0)
(0 -0.001652 0 -0.001652 2.20135e-07 0 0 0 0)
(0 -0.00156225 0 -0.00156225 2.12159e-07 0 0 0 0)
(0 -0.00147268 0 -0.00147268 2.03327e-07 0 0 0 0)
(0 -0.00138352 0 -0.00138352 1.91219e-07 0 0 0 0)
(0 -0.00129502 0 -0.00129502 1.73957e-07 0 0 0 0)
(0 -0.00120746 0 -0.00120746 1.51678e-07 0 0 0 0)
(0 -0.00112114 0 -0.00112114 1.26641e-07 0 0 0 0)
(0 -0.00103642 0 -0.00103642 1.01961e-07 0 0 0 0)
(0 -0.000953642 0 -0.000953642 8.01217e-08 0 0 0 0)
(0 -0.00087318 0 -0.00087318 6.22912e-08 0 0 0 0)
(0 -0.000795378 0 -0.000795378 4.84967e-08 0 0 0 0)
(0 -0.000720562 0 -0.000720562 3.81839e-08 0 0 0 0)
(0 -0.000649013 0 -0.000649013 3.06969e-08 0 0 0 0)
(0 -0.000580965 0 -0.000580965 2.54486e-08 0 0 0 0)
(0 -0.000516583 0 -0.000516583 2.1809e-08 0 0 0 0)
(0 -0.000455963 0 -0.000455963 1.90291e-08 0 0 0 0)
(0 -0.00039913 0 -0.00039913 1.64689e-08 0 0 0 0)
(0 -0.000346041 0 -0.000346041 1.39158e-08 0 0 0 0)
(0 -0.000296596 0 -0.000296596 1.15513e-08 0 0 0 0)
(0 -0.000250645 0 -0.000250645 9.591e-09 0 0 0 0)
(0 -0.000207998 0 -0.000207998 8.04893e-09 0 0 0 0)
(0 -0.00016844 0 -0.00016844 6.81092e-09 0 0 0 0)
(0 -0.000131745 0 -0.000131745 5.79618e-09 0 0 0 0)
(0 -9.76859e-05 0 -9.76859e-05 4.98026e-09 0 0 0 0)
(0 -6.57567e-05 0 -6.57567e-05 4.30486e-09 0 0 0 0)
(2.19918e-17 -3.55026e-05 0 -3.55026e-05 3.68863e-09 0 0 0 0)
(0 -6.84352e-06 0 -6.84352e-06 3.13933e-09 0 0 0 0)
(0 2.02962e-05 0 2.02962e-05 2.71208e-09 0 0 0 0)
(-2.20342e-17 4.59866e-05 0 4.59866e-05 2.36221e-09 0 0 0 0)
(0 7.02894e-05 0 7.02894e-05 2.0123e-09 0 0 0 0)
(2.19131e-17 9.32555e-05 0 9.32555e-05 1.70126e-09 0 0 0 0)
(0 0.000114926 0 0.000114926 1.47317e-09 0 0 0 0)
(-2.16473e-17 0.000135336 0 0.000135336 1.27527e-09 0 0 0 0)
(0 0.000154508 0 0.000154508 1.0814e-09 0 0 0 0)
(0 0.00017246 0 0.00017246 9.19681e-10 0 0 0 0)
(0 0.000189201 0 0.000189201 7.85729e-10 0 0 0 0)
(-2.06904e-17 0.000204736 0 0.000204736 6.67233e-10 0 0 0 0)
(0 0.000219064 0 0.000219064 5.68059e-10 0 0 0 0)
(0 0.000232179 0 0.000232179 4.77706e-10 0 0 0 0)
(0 0.000244073 0 0.000244073 3.95941e-10 0 0 0 0)
(0 0.000254734 0 0.000254734 3.35595e-10 0 0 0 0)
(0 0.000264147 0 0.000264147 2.84977e-10 0 0 0 0)
(1.83934e-17 0.000272297 0 0.000272297 2.33702e-10 0 0 0 0)
(0 0.000279165 0 0.000279165 1.92047e-10 0 0 0 0)
(1.74507e-17 0.000284732 0 0.000284732 1.60901e-10 0 0 0 0)
(0 0.000288976 0 0.000288976 1.33418e-10 0 0 0 0)
(1.64335e-17 0.000291876 0 0.000291876 1.08689e-10 0 0 0 0)
(0 0.00029341 0 0.00029341 8.73746e-11 0 0 0 0)
(0 0.000293555 0 0.000293555 7.06077e-11 0 0 0 0)
(0 0.000292288 0 0.000292288 5.70562e-11 0 0 0 0)
(0 0.000289587 0 0.000289587 4.47307e-11 0 0 0 0)
(-1.35884e-17 0.000285429 0 0.000285429 3.5017e-11 0 0 0 0)
(-1.29693e-17 0.000279796 0 0.000279796 2.79281e-11 0 0 0 0)
(0 0.00027267 0 0.00027267 2.18454e-11 0 0 0 0)
(0 0.000264037 0 0.000264037 1.6151e-11 0 0 0 0)
(0 0.000253888 0 0.000253888 1.06792e-11 0 0 0 0)
(0 0.000242221 0 0.000242221 6.17571e-12 0 0 0 0)
(0 0.000229041 0 0.000229041 3.07865e-12 0 0 0 0)
(0 0.000214365 0 0.000214365 4.25339e-12 0 0 0 0)
(0 0.000198227 0 0.000198227 8.63845e-12 0 0 0 0)
(0 0.000180679 0 0.000180679 6.12528e-12 0 0 0 0)
(0 0.000161801 0 0.000161801 -2.41512e-12 0 0 0 0)
(0 0.000141709 0 0.000141709 3.43108e-12 0 0 0 0)
(0 0.000120567 0 0.000120567 -5.99641e-12 0 0 0 0)
(0 9.86139e-05 0 9.86139e-05 7.52764e-12 0 0 0 0)
(0 7.61873e-05 0 7.61873e-05 -8.08725e-12 0 0 0 0)
(5.24586e-18 5.37966e-05 0 5.37966e-05 7.5804e-12 0 0 0 0)
(-3.55878e-18 3.23518e-05 0 3.23518e-05 -5.96655e-12 0 0 0 0)
(0 1.20841e-05 0 1.20841e-05 3.37493e-12 0 0 0 0)
(0 1.28895e-06 0 1.28895e-06 -8.91721e-13 0 0 0 0)
(1.74069e-19 7.05289e-08 0 7.05289e-08 3.46563e-13 0 0 0 0)
(0 2.95533e-09 0 2.95533e-09 -3.24362e-13 0 0 0 0)
(0 8.68678e-10 0 8.68678e-10 3.19517e-13 0 0 0 0)
(1.55071e-19 6.72868e-10 0 6.72868e-10 -3.14674e-13 0 0 0 0)
(0 5.3554e-10 0 5.3554e-10 3.10405e-13 0 0 0 0)
(0 4.24468e-10 0 4.24468e-10 -3.06024e-13 0 0 0 0)
(0 3.34994e-10 0 3.34994e-10 3.02162e-13 0 0 0 0)
(0 2.63365e-10 0 2.63365e-10 -2.98166e-13 0 0 0 0)
(0 2.06277e-10 0 2.06277e-10 2.94639e-13 0 0 0 0)
(0 1.6094e-10 0 1.6094e-10 -2.90943e-13 0 0 0 0)
(0 1.2507e-10 0 1.2507e-10 2.87661e-13 0 0 0 0)
(0 9.68012e-11 0 9.68012e-11 -2.8418e-13 0 0 0 0)
(0 7.46031e-11 0 7.46031e-11 2.81059e-13 0 0 0 0)
(0 5.72312e-11 0 5.72312e-11 -2.77718e-13 0 0 0 0)
(0 4.36858e-11 0 4.36858e-11 2.74687e-13 0 0 0 0)
(0 3.31702e-11 0 3.31702e-11 -2.71432e-13 0 0 0 0)
(0 2.50471e-11 0 2.50471e-11 2.68436e-13 0 0 0 0)
(0 1.88064e-11 0 1.88064e-11 -2.65232e-13 0 0 0 0)
(0 1.40387e-11 0 1.40387e-11 2.62224e-13 0 0 0 0)
(0 1.04177e-11 0 1.04177e-11 -2.59021e-13 0 0 0 0)
(0 7.68409e-12 0 7.68409e-12 2.55992e-13 0 0 0 0)
(0 5.63272e-12 0 5.63272e-12 -2.52793e-13 0 0 0 0)
(0 4.10306e-12 0 4.10306e-12 2.49704e-13 0 0 0 0)
(0 2.9697e-12 0 2.9697e-12 -2.4647e-13 0 0 0 0)
(0 2.13548e-12 0 2.13548e-12 2.43323e-13 0 0 0 0)
(0 1.52528e-12 0 1.52528e-12 -2.40043e-13 0 0 0 0)
(0 1.08193e-12 0 1.08193e-12 2.36829e-13 0 0 0 0)
(0 7.62191e-13 0 7.62191e-13 -2.33498e-13 0 0 0 0)
(0 5.33164e-13 0 5.33164e-13 2.30216e-13 0 0 0 0)
(0 3.70338e-13 0 3.70338e-13 -2.26827e-13 0 0 0 0)
(0 2.55331e-13 0 2.55331e-13 2.2348e-13 0 0 0 0)
(0 1.74546e-13 0 1.74546e-13 -2.20034e-13 0 0 0 0)
(0 1.1837e-13 0 1.1837e-13 2.16623e-13 0 0 0 0)
(0 7.97752e-14 0 7.97752e-14 -2.13121e-13 0 0 0 0)
(0 5.33528e-14 0 5.33528e-14 2.09655e-13 0 0 0 0)
(0 3.54197e-14 0 3.54197e-14 -2.06109e-13 0 0 0 0)
(0 2.3302e-14 0 2.3302e-14 2.02587e-13 0 0 0 0)
(0 1.52074e-14 0 1.52074e-14 -1.99001e-13 0 0 0 0)
(0 9.85887e-15 0 9.85887e-15 1.95431e-13 0 0 0 0)
(-1.50452e-19 6.27299e-15 0 6.27299e-15 -1.91811e-13 0 0 0 0)
(0 3.95998e-15 0 3.95998e-15 1.8818e-13 0 0 0 0)
(0 2.4556e-15 0 2.4556e-15 -1.8452e-13 0 0 0 0)
(0 1.46112e-15 0 1.46112e-15 1.80863e-13 0 0 0 0)
(0 9.08138e-16 0 9.08138e-16 -1.77172e-13 0 0 0 0)
(0 6.55928e-16 0 6.55928e-16 1.73473e-13 0 0 0 0)
(0 4.19195e-16 0 4.19195e-16 -1.69756e-13 0 0 0 0)
(0 1.90119e-16 0 1.90119e-16 1.66027e-13 0 0 0 0)
(0 2.4405e-17 0 2.4405e-17 -1.62288e-13 0 0 0 0)
(0 -2.96326e-17 0 -2.96326e-17 1.5853e-13 0 0 0 0)
(-1.23064e-19 5.42712e-17 0 5.42712e-17 -1.54767e-13 0 0 0 0)
(0 1.02463e-16 0 1.02463e-16 1.51005e-13 0 0 0 0)
(0 3.86863e-17 0 3.86863e-17 -1.47221e-13 0 0 0 0)
(1.15864e-19 -3.80615e-17 0 -3.80615e-17 1.43451e-13 0 0 0 0)
(0 3.43234e-17 0 3.43234e-17 -1.39642e-13 0 0 0 0)
(0 2.70738e-17 0 2.70738e-17 1.35841e-13 0 0 0 0)
(0 -4.70707e-17 0 -4.70707e-17 -1.32024e-13 0 0 0 0)
(0 1.88707e-17 0 1.88707e-17 1.28202e-13 0 0 0 0)
(0 -6.15375e-17 0 -6.15375e-17 -1.24368e-13 0 0 0 0)
(0 -1.02782e-16 0 -1.02782e-16 1.2053e-13 0 0 0 0)
(0 1.04889e-16 0 1.04889e-16 -1.16677e-13 0 0 0 0)
(0 1.51121e-16 0 1.51121e-16 1.12814e-13 0 0 0 0)
(0 -7.26914e-17 0 -7.26914e-17 -1.08939e-13 0 0 0 0)
(0 -1.51802e-16 0 -1.51802e-16 1.05107e-13 0 0 0 0)
(0 -3.42784e-17 0 -3.42784e-17 -1.15745e-13 0 0 0 0)
(0 -3.01226e-17 0 -3.01226e-17 1.14294e-13 0 0 0 0)
(0 -6.53804e-18 0 -6.53804e-18 -1.12894e-13 0 0 0 0)
(0 3.75871e-17 0 3.75871e-17 1.11483e-13 0 0 0 0)
(0 1.34466e-17 0 1.34466e-17 -1.10063e-13 0 0 0 0)
(0 3.81165e-18 0 3.81165e-18 1.0863e-13 0 0 0 0)
(0 -1.82641e-18 0 -1.82641e-18 -1.0719e-13 0 0 0 0)
(0 2.43522e-18 0 2.43522e-18 1.05735e-13 0 0 0 0)
(0 3.83812e-18 0 3.83812e-18 -1.04273e-13 0 0 0 0)
(0 -3.92547e-17 0 -3.92547e-17 1.02792e-13 0 0 0 0)
(0 6.35275e-19 0 6.35275e-19 -1.01305e-13 0 0 0 0)
(0 3.36431e-17 0 3.36431e-17 9.97991e-14 0 0 0 0)
(0 -1.45584e-18 0 -1.45584e-18 -9.82853e-14 0 0 0 0)
(0 1.93229e-18 0 1.93229e-18 9.67511e-14 0 0 0 0)
(0 7.94093e-19 0 7.94093e-19 -9.52092e-14 0 0 0 0)
(0 2.03817e-18 0 2.03817e-18 9.36457e-14 0 0 0 0)
(0 2.96462e-18 0 2.96462e-18 -9.20741e-14 0 0 0 0)
(0 2.0117e-18 0 2.0117e-18 9.0478e-14 0 0 0 0)
(0 -1.79995e-18 0 -1.79995e-18 -8.88732e-14 0 0 0 0)
(0 -5.77041e-18 0 -5.77041e-18 8.72489e-14 0 0 0 0)
(0 -7.64977e-18 0 -7.64977e-18 -8.56082e-14 0 0 0 0)
(0 3.07049e-18 0 3.07049e-18 8.39457e-14 0 0 0 0)
(0 1.0932e-17 0 1.0932e-17 -8.22648e-14 0 0 0 0)
(0 1.24408e-18 0 1.24408e-18 8.05601e-14 0 0 0 0)
(0 6.24687e-18 0 6.24687e-18 -7.8833e-14 0 0 0 0)
(0 5.61159e-18 0 5.61159e-18 7.70795e-14 0 0 0 0)
(0 -1.97994e-17 0 -1.97994e-17 -7.5301e-14 0 0 0 0)
(0 -1.35261e-17 0 -1.35261e-17 7.34942e-14 0 0 0 0)
(0 -3.17902e-17 0 -3.17902e-17 -7.16562e-14 0 0 0 0)
(0 -5.90276e-17 0 -5.90276e-17 6.97859e-14 0 0 0 0)
(0 -1.76924e-16 0 -1.76924e-16 -6.78777e-14 0 0 0 0)
(0 1.27055e-18 0 1.27055e-18 6.59357e-14 0 0 0 0)
(0 1.7036e-16 0 1.7036e-16 -6.39442e-14 0 0 0 0)
(0 4.5978e-17 0 4.5978e-17 6.19145e-14 0 0 0 0)
(0 2.47492e-17 0 2.47492e-17 -5.98259e-14 0 0 0 0)
(0 8.68209e-18 0 8.68209e-18 5.76928e-14 0 0 0 0)
(0 2.53845e-17 0 2.53845e-17 -5.54805e-14 0 0 0 0)
(0 1.2732e-17 0 1.2732e-17 5.32167e-14 0 0 0 0)
(0 -1.50348e-17 0 -1.50348e-17 -5.08424e-14 0 0 0 0)
(0 -6.05099e-17 0 -6.05099e-17 4.84103e-14 0 0 0 0)
(0 5.32043e-18 0 5.32043e-18 -4.5812e-14 0 0 0 0)
(0 1.13344e-16 0 1.13344e-16 4.3169e-14 0 0 0 0)
(0 5.37866e-17 0 5.37866e-17 -4.02709e-14 0 0 0 0)
(0 -5.08749e-17 0 -5.08749e-17 3.72713e-14 0 0 0 0)
(0 -4.21134e-17 0 -4.21134e-17 -3.38887e-14 0 0 0 0)
(0 -3.07049e-18 0 -3.07049e-18 3.0409e-14 0 0 0 0)
(0 1.29702e-18 0 1.29702e-18 -2.61589e-14 0 0 0 0)
(0 3.28225e-18 0 3.28225e-18 2.1595e-14 0 0 0 0)
(0 -3.90959e-17 0 -3.90959e-17 -1.54447e-14 0 0 0 0)
(0 -3.88841e-17 0 -3.88841e-17 5.49681e-15 0 0 0 0)
)
;

boundaryField
{
    inandouthalf11
    {
        type            cyclic;
    }
    inandouthalf12
    {
        type            cyclic;
    }
    inandouthalf21
    {
        type            cyclic;
    }
    inandouthalf22
    {
        type            cyclic;
    }
    inandouthalf31
    {
        type            cyclic;
    }
    inandouthalf32
    {
        type            cyclic;
    }
    inandouthalf41
    {
        type            cyclic;
    }
    inandouthalf42
    {
        type            cyclic;
    }
    top
    {
        type            symmetryPlane;
    }
    walls
    {
        type            zeroGradient;
    }
    frontAndBackPlanes
    {
        type            empty;
    }
}


// ************************************************************************* //
