/*--------------------------------*- C++ -*----------------------------------*\
| =========                 |                                                 |
| \\      /  F ield         | OpenFOAM: The Open Source CFD Toolbox           |
|  \\    /   O peration     | Version:  2.4.x                                 |
|   \\  /    A nd           | Web:      www.OpenFOAM.org                      |
|    \\/     M anipulation  |                                                 |
\*---------------------------------------------------------------------------*/
FoamFile
{
    version     2.0;
    format      ascii;
    class       volTensorField;
    location    "4.85";
    object      Taus;
}
// * * * * * * * * * * * * * * * * * * * * * * * * * * * * * * * * * * * * * //

dimensions      [0 2 -2 0 0 0 0];

internalField   nonuniform List<tensor> 
360
(
(0 -0.0155288 0 -0.0155288 -0.187359 0 0 0 0)
(0 -0.021139 0 -0.021139 -0.222861 0 0 0 0)
(0 -0.0255619 0 -0.0255619 -0.230756 0 0 0 0)
(0 -0.0257524 0 -0.0257524 -0.226992 0 0 0 0)
(1.46839e-17 -0.0251288 0 -0.0251288 -0.223853 0 0 0 0)
(1.41051e-17 -0.0249717 0 -0.0249717 -0.222153 0 0 0 0)
(1.37294e-17 -0.0249858 0 -0.0249858 -0.220634 0 0 0 0)
(0 -0.0250055 0 -0.0250055 -0.219059 0 0 0 0)
(2.66344e-17 -0.0250249 0 -0.0250249 -0.217513 0 0 0 0)
(0 -0.025027 0 -0.025027 -0.215915 0 0 0 0)
(2.58752e-17 -0.0250093 0 -0.0250093 -0.214265 0 0 0 0)
(0 -0.0249871 0 -0.0249871 -0.212619 0 0 0 0)
(2.4976e-17 -0.0249661 0 -0.0249661 -0.210971 0 0 0 0)
(0 -0.0249513 0 -0.0249513 -0.209343 0 0 0 0)
(0 -0.0249394 0 -0.0249394 -0.207722 0 0 0 0)
(0 -0.0249255 0 -0.0249255 -0.206094 0 0 0 0)
(0 -0.0249091 0 -0.0249091 -0.20446 0 0 0 0)
(4.58223e-17 -0.0248921 0 -0.0248921 -0.202826 0 0 0 0)
(0 -0.0248739 0 -0.0248739 -0.201195 0 0 0 0)
(0 -0.024852 0 -0.024852 -0.199545 0 0 0 0)
(0 -0.0248325 0 -0.0248325 -0.197917 0 0 0 0)
(4.21045e-17 -0.0248072 0 -0.0248072 -0.196266 0 0 0 0)
(0 -0.0247777 0 -0.0247777 -0.194612 0 0 0 0)
(0 -0.0247451 0 -0.0247451 -0.192953 0 0 0 0)
(0 -0.0247092 0 -0.0247092 -0.191288 0 0 0 0)
(3.85498e-17 -0.0246733 0 -0.0246733 -0.189624 0 0 0 0)
(0 -0.0246399 0 -0.0246399 -0.187971 0 0 0 0)
(0 -0.0246078 0 -0.0246078 -0.186311 0 0 0 0)
(0 -0.0245858 0 -0.0245858 -0.184675 0 0 0 0)
(0 -0.0245793 0 -0.0245793 -0.183066 0 0 0 0)
(0 -0.0245878 0 -0.0245878 -0.181485 0 0 0 0)
(0 -0.0246088 0 -0.0246088 -0.179907 0 0 0 0)
(0 -0.0246461 0 -0.0246461 -0.178379 0 0 0 0)
(0 -0.024675 0 -0.024675 -0.176798 0 0 0 0)
(0 -0.0246943 0 -0.0246943 -0.175227 0 0 0 0)
(-6.30937e-17 -0.024672 0 -0.024672 -0.173572 0 0 0 0)
(0 -0.0245785 0 -0.0245785 -0.171825 0 0 0 0)
(0 -0.0243702 0 -0.0243702 -0.169902 0 0 0 0)
(0 -0.0240274 0 -0.0240274 -0.167756 0 0 0 0)
(0 -0.0235787 0 -0.0235787 -0.165453 0 0 0 0)
(0 -0.0230855 0 -0.0230855 -0.163011 0 0 0 0)
(0 -0.0226936 0 -0.0226936 -0.16078 0 0 0 0)
(-1.11504e-16 -0.0225224 0 -0.0225224 -0.159056 0 0 0 0)
(0 -0.0226032 0 -0.0226032 -0.157849 0 0 0 0)
(0 -0.0229186 0 -0.0229186 -0.157059 0 0 0 0)
(0 -0.0233902 0 -0.0233902 -0.156389 0 0 0 0)
(0 -0.0239417 0 -0.0239417 -0.155674 0 0 0 0)
(0 -0.0245405 0 -0.0245405 -0.154881 0 0 0 0)
(0 -0.0251336 0 -0.0251336 -0.153936 0 0 0 0)
(0 -0.0256628 0 -0.0256628 -0.152898 0 0 0 0)
(-5.56352e-13 -0.0260757 0 -0.0260757 -0.151909 0 0 0 0)
(0 -0.0262964 0 -0.0262964 -0.15096 0 0 0 0)
(0 -0.026358 0 -0.026358 -0.150102 0 0 0 0)
(0 -0.0263543 0 -0.0263543 -0.149261 0 0 0 0)
(0 -0.02637 0 -0.02637 -0.148433 0 0 0 0)
(0 -0.0264217 0 -0.0264217 -0.147523 0 0 0 0)
(0 -0.0265229 0 -0.0265229 -0.146599 0 0 0 0)
(0 -0.0266449 0 -0.0266449 -0.145592 0 0 0 0)
(0 -0.0267847 0 -0.0267847 -0.144546 0 0 0 0)
(0 -0.0269302 0 -0.0269302 -0.143469 0 0 0 0)
(0 -0.027059 0 -0.027059 -0.142312 0 0 0 0)
(0 -0.0271852 0 -0.0271852 -0.141155 0 0 0 0)
(0 -0.0272954 0 -0.0272954 -0.139946 0 0 0 0)
(0 -0.0273968 0 -0.0273968 -0.138734 0 0 0 0)
(0 -0.0274854 0 -0.0274854 -0.137498 0 0 0 0)
(0 -0.0275592 0 -0.0275592 -0.136254 0 0 0 0)
(0 -0.0276103 0 -0.0276103 -0.134984 0 0 0 0)
(0 -0.0276388 0 -0.0276388 -0.133694 0 0 0 0)
(0 -0.0276481 0 -0.0276481 -0.132386 0 0 0 0)
(0 -0.0276377 0 -0.0276377 -0.131063 0 0 0 0)
(0 -0.0275966 0 -0.0275966 -0.129696 0 0 0 0)
(0 -0.0275373 0 -0.0275373 -0.128301 0 0 0 0)
(0 -0.0274742 0 -0.0274742 -0.126907 0 0 0 0)
(0 -0.0273948 0 -0.0273948 -0.125471 0 0 0 0)
(0 -0.027309 0 -0.027309 -0.124028 0 0 0 0)
(0 -0.0272171 0 -0.0272171 -0.122558 0 0 0 0)
(0 -0.0271281 0 -0.0271281 -0.121088 0 0 0 0)
(0 -0.0270362 0 -0.0270362 -0.119603 0 0 0 0)
(0 -0.0269374 0 -0.0269374 -0.118103 0 0 0 0)
(0 -0.0268315 0 -0.0268315 -0.116587 0 0 0 0)
(0 -0.0267189 0 -0.0267189 -0.115062 0 0 0 0)
(0 -0.0265944 0 -0.0265944 -0.113519 0 0 0 0)
(0 -0.0264581 0 -0.0264581 -0.111959 0 0 0 0)
(0 -0.0263117 0 -0.0263117 -0.110386 0 0 0 0)
(0 -0.0261559 0 -0.0261559 -0.108799 0 0 0 0)
(0 -0.0259928 0 -0.0259928 -0.107202 0 0 0 0)
(0 -0.0258236 0 -0.0258236 -0.105594 0 0 0 0)
(0 -0.0256505 0 -0.0256505 -0.103979 0 0 0 0)
(0 -0.0254739 0 -0.0254739 -0.102356 0 0 0 0)
(0 -0.0252927 0 -0.0252927 -0.100726 0 0 0 0)
(0 -0.0251068 0 -0.0251068 -0.0990878 0 0 0 0)
(0 -0.0249156 0 -0.0249156 -0.097443 0 0 0 0)
(0 -0.0247177 0 -0.0247177 -0.0957898 0 0 0 0)
(0 -0.0245132 0 -0.0245132 -0.0941291 0 0 0 0)
(0 -0.0243021 0 -0.0243021 -0.0924612 0 0 0 0)
(0 -0.0240849 0 -0.0240849 -0.0907864 0 0 0 0)
(0 -0.0238621 0 -0.0238621 -0.0891054 0 0 0 0)
(0 -0.0236344 0 -0.0236344 -0.0874187 0 0 0 0)
(0 -0.023402 0 -0.023402 -0.0857267 0 0 0 0)
(0 -0.0231652 0 -0.0231652 -0.0840295 0 0 0 0)
(0 -0.0229241 0 -0.0229241 -0.0823275 0 0 0 0)
(0 -0.0226789 0 -0.0226789 -0.0806207 0 0 0 0)
(0 -0.0224295 0 -0.0224295 -0.0789094 0 0 0 0)
(0 -0.022176 0 -0.022176 -0.0771937 0 0 0 0)
(0 -0.0219186 0 -0.0219186 -0.0754738 0 0 0 0)
(0 -0.0216574 0 -0.0216574 -0.0737499 0 0 0 0)
(0 -0.0213926 0 -0.0213926 -0.0720222 0 0 0 0)
(0 -0.0211242 0 -0.0211242 -0.0702908 0 0 0 0)
(0 -0.0208525 0 -0.0208525 -0.0685558 0 0 0 0)
(0 -0.0205776 0 -0.0205776 -0.0668175 0 0 0 0)
(0 -0.0202997 0 -0.0202997 -0.0650758 0 0 0 0)
(0 -0.0200188 0 -0.0200188 -0.0633308 0 0 0 0)
(0 -0.0197353 0 -0.0197353 -0.0615827 0 0 0 0)
(0 -0.0194495 0 -0.0194495 -0.0598315 0 0 0 0)
(0 -0.0191617 0 -0.0191617 -0.0580773 0 0 0 0)
(0 -0.0188722 0 -0.0188722 -0.05632 0 0 0 0)
(0 -0.0185815 0 -0.0185815 -0.0545597 0 0 0 0)
(0 -0.0182899 0 -0.0182899 -0.0527963 0 0 0 0)
(0 -0.017998 0 -0.017998 -0.0510298 0 0 0 0)
(0 -0.0177062 0 -0.0177062 -0.0492601 0 0 0 0)
(0 -0.0174149 0 -0.0174149 -0.047487 0 0 0 0)
(0 -0.0171247 0 -0.0171247 -0.0457103 0 0 0 0)
(0 -0.0168361 0 -0.0168361 -0.0439299 0 0 0 0)
(0 -0.0165496 0 -0.0165496 -0.0421455 0 0 0 0)
(0 -0.0162657 0 -0.0162657 -0.0403567 0 0 0 0)
(0 -0.0159844 0 -0.0159844 -0.0385631 0 0 0 0)
(0 -0.0157052 0 -0.0157052 -0.0367639 0 0 0 0)
(0 -0.0154268 0 -0.0154268 -0.0349582 0 0 0 0)
(0 -0.0151481 0 -0.0151481 -0.033145 0 0 0 0)
(0 -0.0148689 0 -0.0148689 -0.0313227 0 0 0 0)
(0 -0.0145909 0 -0.0145909 -0.0294891 0 0 0 0)
(0 -0.0143157 0 -0.0143157 -0.027642 0 0 0 0)
(0 -0.0140399 0 -0.0140399 -0.0257788 0 0 0 0)
(0 -0.0137515 0 -0.0137515 -0.0238976 0 0 0 0)
(0 -0.0134416 0 -0.0134416 -0.0219962 0 0 0 0)
(0 -0.0131179 0 -0.0131179 -0.0200715 0 0 0 0)
(0 -0.0127923 0 -0.0127923 -0.0181196 0 0 0 0)
(0 -0.0124422 0 -0.0124422 -0.016153 0 0 0 0)
(0 -0.0119987 0 -0.0119987 -0.0142181 0 0 0 0)
(0 -0.0114221 0 -0.0114221 -0.0123376 0 0 0 0)
(0 -0.0108264 0 -0.0108264 -0.0104236 0 0 0 0)
(0 -0.0103634 0 -0.0103634 -0.00841768 0 0 0 0)
(0 -0.00979015 0 -0.00979015 -0.00618876 0 0 0 0)
(0 -0.00900201 0 -0.00900201 -0.00353679 0 0 0 0)
(0 -0.00794479 0 -0.00794479 0.000625657 0 0 0 0)
(0 -0.00581848 0 -0.00581848 0.00343664 0 0 0 0)
(0 -0.00262748 0 -0.00262748 -1.02675e-05 0 0 0 0)
(0 -0.00180982 0 -0.00180982 -7.98971e-06 0 0 0 0)
(0 -0.00273297 0 -0.00273297 -8.00097e-06 0 0 0 0)
(0 -0.00266786 0 -0.00266786 -3.51327e-06 0 0 0 0)
(0 -0.00225407 0 -0.00225407 -1.82276e-06 0 0 0 0)
(0 -0.00201132 0 -0.00201132 -6.81781e-07 0 0 0 0)
(0 -0.00188998 0 -0.00188998 1.79273e-07 0 0 0 0)
(0 -0.00186191 0 -0.00186191 1.54434e-06 0 0 0 0)
(0 -0.00190896 0 -0.00190896 3.54832e-06 0 0 0 0)
(0 -0.00201988 0 -0.00201988 6.45761e-06 0 0 0 0)
(0 -0.00218795 0 -0.00218795 1.06156e-05 0 0 0 0)
(0 -0.00240951 0 -0.00240951 1.64307e-05 0 0 0 0)
(0 -0.00268305 0 -0.00268305 2.43917e-05 0 0 0 0)
(0 -0.00300856 0 -0.00300856 3.50546e-05 0 0 0 0)
(0 -0.00338715 0 -0.00338715 4.90268e-05 0 0 0 0)
(0 -0.00382063 0 -0.00382063 6.70428e-05 0 0 0 0)
(0 -0.00431126 0 -0.00431126 8.99616e-05 0 0 0 0)
(0 -0.00486154 0 -0.00486154 0.000118742 0 0 0 0)
(0 -0.00547393 0 -0.00547393 0.000154484 0 0 0 0)
(0 -0.00615072 0 -0.00615072 0.00019844 0 0 0 0)
(0 -0.00689379 0 -0.00689379 0.000252027 0 0 0 0)
(0 -0.00770445 0 -0.00770445 0.000316826 0 0 0 0)
(0 -0.00858327 0 -0.00858327 0.000394586 0 0 0 0)
(0 -0.00952997 0 -0.00952997 0.000487201 0 0 0 0)
(0 -0.0105432 0 -0.0105432 0.000596674 0 0 0 0)
(0 -0.0116206 0 -0.0116206 0.000725048 0 0 0 0)
(0 -0.0127587 0 -0.0127587 0.000874323 0 0 0 0)
(0 -0.0139529 0 -0.0139529 0.00104629 0 0 0 0)
(0 -0.015198 0 -0.015198 0.0012419 0 0 0 0)
(0 -0.0164895 0 -0.0164895 0.00145922 0 0 0 0)
(0 -0.0178271 0 -0.0178271 0.00168875 0 0 0 0)
(0 -0.0192219 0 -0.0192219 0.00190665 0 0 0 0)
(0 -0.0207051 0 -0.0207051 0.00206942 0 0 0 0)
(0 -0.0223305 0 -0.0223305 0.00211694 0 0 0 0)
(0 -0.0241638 0 -0.0241638 0.00198779 0 0 0 0)
(0 -0.0262562 0 -0.0262562 0.00164353 0 0 0 0)
(0 -0.0286121 0 -0.0286121 0.00109107 0 0 0 0)
(0 -0.0311693 0 -0.0311693 0.000390749 0 0 0 0)
(0 -0.0338059 0 -0.0338059 -0.000356514 0 0 0 0)
(0 -0.0363719 0 -0.0363719 -0.00103792 0 0 0 0)
(0 -0.0387276 0 -0.0387276 -0.00155917 0 0 0 0)
(0 -0.0407734 0 -0.0407734 -0.00186291 0 0 0 0)
(0 -0.0424591 0 -0.0424591 -0.00193189 0 0 0 0)
(0 -0.0437879 0 -0.0437879 -0.00179018 0 0 0 0)
(0 -0.0448515 0 -0.0448515 -0.00151938 0 0 0 0)
(0 -0.0458672 0 -0.0458672 -0.00126669 0 0 0 0)
(0 -0.047098 0 -0.047098 -0.00118953 0 0 0 0)
(0 -0.0486363 0 -0.0486363 -0.00134841 0 0 0 0)
(0 -0.0502943 0 -0.0502943 -0.00165991 0 0 0 0)
(0 -0.0518056 0 -0.0518056 -0.00198861 0 0 0 0)
(0 -0.0530753 0 -0.0530753 -0.0022739 0 0 0 0)
(0 -0.0541417 0 -0.0541417 -0.00253543 0 0 0 0)
(0 -0.055021 0 -0.055021 -0.00279184 0 0 0 0)
(0 -0.0556561 0 -0.0556561 -0.00302572 0 0 0 0)
(0 -0.0560399 0 -0.0560399 -0.003246 0 0 0 0)
(0 -0.0563327 0 -0.0563327 -0.00352837 0 0 0 0)
(1.37715e-14 -0.0565487 0 -0.0565487 -0.00387351 0 0 0 0)
(0 -0.0564207 0 -0.0564207 -0.00414227 0 0 0 0)
(0 -0.0559837 0 -0.0559837 -0.00436454 0 0 0 0)
(-1.57467e-14 -0.0556788 0 -0.0556788 -0.00477307 0 0 0 0)
(0 -0.055279 0 -0.055279 -0.00524729 0 0 0 0)
(1.67495e-14 -0.0543257 0 -0.0543257 -0.0055117 0 0 0 0)
(0 -0.0532926 0 -0.0532926 -0.00582043 0 0 0 0)
(-1.74584e-14 -0.05241 0 -0.05241 -0.006351 0 0 0 0)
(0 -0.051205 0 -0.051205 -0.00679962 0 0 0 0)
(0 -0.0498016 0 -0.0498016 -0.00720024 0 0 0 0)
(0 -0.0484393 0 -0.0484393 -0.00773369 0 0 0 0)
(-1.7871e-14 -0.0468609 0 -0.0468609 -0.0082097 0 0 0 0)
(0 -0.0452138 0 -0.0452138 -0.00873498 0 0 0 0)
(0 -0.0436379 0 -0.0436379 -0.00943009 0 0 0 0)
(0 -0.0417341 0 -0.0417341 -0.00987746 0 0 0 0)
(0 -0.0397094 0 -0.0397094 -0.010273 0 0 0 0)
(0 -0.0379333 0 -0.0379333 -0.01105 0 0 0 0)
(1.65025e-14 -0.0359722 0 -0.0359722 -0.01168 0 0 0 0)
(0 -0.0338121 0 -0.0338121 -0.0120857 0 0 0 0)
(1.56629e-14 -0.0317599 0 -0.0317599 -0.0126918 0 0 0 0)
(0 -0.0297173 0 -0.0297173 -0.013359 0 0 0 0)
(0 -0.027707 0 -0.027707 -0.014112 0 0 0 0)
(0 -0.0256563 0 -0.0256563 -0.0147872 0 0 0 0)
(0 -0.0235518 0 -0.0235518 -0.0153357 0 0 0 0)
(0 -0.0216054 0 -0.0216054 -0.0162026 0 0 0 0)
(0 -0.0196367 0 -0.0196367 -0.0169331 0 0 0 0)
(-1.18347e-14 -0.0176149 0 -0.0176149 -0.0174035 0 0 0 0)
(-1.11838e-14 -0.0157464 0 -0.0157464 -0.0181468 0 0 0 0)
(0 -0.0140118 0 -0.0140118 -0.0190836 0 0 0 0)
(0 -0.0123738 0 -0.0123738 -0.0201337 0 0 0 0)
(0 -0.0105993 0 -0.0105993 -0.0203052 0 0 0 0)
(0 -0.00837165 0 -0.00837165 -0.0176861 0 0 0 0)
(0 -0.00589565 0 -0.00589565 -0.0127887 0 0 0 0)
(0 -0.00429963 0 -0.00429963 -0.00562432 0 0 0 0)
(0 -0 0 -0 -0 0 0 0 0)
(0 -0 0 -0 -0 0 0 0 0)
(0 0 0 0 -0 0 0 0 0)
(0 0 0 0 -0 0 0 0 0)
(0 0 0 0 0 0 0 0 0)
(0 0 0 0 -0 0 0 0 0)
(0 0 0 0 0 0 0 0 0)
(0 0 0 0 0 0 0 0 0)
(-0 0 0 0 0 0 0 0 0)
(0 0 0 0 0 0 0 0 0)
(0 0 0 0 0 0 0 0 0)
(0 0 0 0 0 0 0 0 0)
(0 0 0 0 0 0 0 0 0)
(0 0 0 0 -0 0 0 0 0)
(0 0 0 0 0 0 0 0 0)
(0 0 0 0 -0 0 0 0 0)
(0 0 0 0 -0 0 0 0 0)
(0 0 0 0 0 0 0 0 0)
(0 0 0 0 -0 0 0 0 0)
(0 0 0 0 0 0 0 0 0)
(0 0 0 0 -0 0 0 0 0)
(0 0 0 0 0 0 0 0 0)
(0 0 0 0 -0 0 0 0 0)
(0 0 0 0 0 0 0 0 0)
(0 0 0 0 -0 0 0 0 0)
(0 0 0 0 0 0 0 0 0)
(0 0 0 0 -0 0 0 0 0)
(0 0 0 0 0 0 0 0 0)
(0 0 0 0 -0 0 0 0 0)
(0 0 0 0 0 0 0 0 0)
(-0 0 0 0 -0 0 0 0 0)
(0 0 0 0 0 0 0 0 0)
(0 0 0 0 -0 0 0 0 0)
(0 0 0 0 -0 0 0 0 0)
(0 0 0 0 0 0 0 0 0)
(0 0 0 0 -0 0 0 0 0)
(0 0 0 0 -0 0 0 0 0)
(0 0 0 0 0 0 0 0 0)
(0 0 0 0 -0 0 0 0 0)
(0 0 0 0 0 0 0 0 0)
(0 0 0 0 -0 0 0 0 0)
(0 0 0 0 0 0 0 0 0)
(0 0 0 0 -0 0 0 0 0)
(0 0 0 0 0 0 0 0 0)
(0 0 0 0 -0 0 0 0 0)
(0 0 0 0 0 0 0 0 0)
(0 0 0 0 -0 0 0 0 0)
(0 0 0 0 0 0 0 0 0)
(0 0 0 0 -0 0 0 0 0)
(0 0 0 0 0 0 0 0 0)
(-0 0 0 0 -0 0 0 0 0)
(0 0 0 0 0 0 0 0 0)
(0 0 0 0 -0 0 0 0 0)
(0 0 0 0 0 0 0 0 0)
(0 0 0 0 -0 0 0 0 0)
(0 0 0 0 0 0 0 0 0)
(0 0 0 0 -0 0 0 0 0)
(0 0 0 0 0 0 0 0 0)
(0 0 0 0 -0 0 0 0 0)
(0 -0 0 -0 0 0 0 0 0)
(-0 0 0 0 -0 0 0 0 0)
(0 0 0 0 0 0 0 0 0)
(0 0 0 0 -0 0 0 0 0)
(0 -0 0 -0 0 0 0 0 0)
(0 0 0 0 -0 0 0 0 0)
(0 -0 0 -0 0 0 0 0 0)
(0 -0 0 -0 -0 0 0 0 0)
(0 -0 0 -0 0 0 0 0 0)
(0 -0 0 -0 -0 0 0 0 0)
(0 -0 0 -0 0 0 0 0 0)
(0 0 0 0 -0 0 0 0 0)
(0 0 0 0 0 0 0 0 0)
(0 -0 0 -0 -0 0 0 0 0)
(0 -0 0 -0 0 0 0 0 0)
(0 -0 0 -0 -0 0 0 0 0)
(0 -0 0 -0 0 0 0 0 0)
(0 0 0 0 -0 0 0 0 0)
(0 0 0 0 0 0 0 0 0)
(0 0 0 0 -0 0 0 0 0)
(0 -0 0 -0 0 0 0 0 0)
(0 0 0 0 -0 0 0 0 0)
(0 -0 0 -0 0 0 0 0 0)
(0 0 0 0 -0 0 0 0 0)
(0 -0 0 -0 0 0 0 0 0)
(0 0 0 0 -0 0 0 0 0)
(0 0 0 0 0 0 0 0 0)
(0 0 0 0 -0 0 0 0 0)
(0 -0 0 -0 0 0 0 0 0)
(0 0 0 0 -0 0 0 0 0)
(0 -0 0 -0 0 0 0 0 0)
(0 0 0 0 -0 0 0 0 0)
(0 -0 0 -0 0 0 0 0 0)
(0 0 0 0 -0 0 0 0 0)
(0 -0 0 -0 0 0 0 0 0)
(0 0 0 0 -0 0 0 0 0)
(0 -0 0 -0 0 0 0 0 0)
(0 0 0 0 -0 0 0 0 0)
(0 -0 0 -0 0 0 0 0 0)
(0 0 0 0 -0 0 0 0 0)
(0 -0 0 -0 0 0 0 0 0)
(0 -0 0 -0 -0 0 0 0 0)
(0 -0 0 -0 0 0 0 0 0)
(0 -0 0 -0 -0 0 0 0 0)
(0 -0 0 -0 0 0 0 0 0)
(0 -0 0 -0 -0 0 0 0 0)
(0 -0 0 -0 0 0 0 0 0)
(0 0 0 0 -0 0 0 0 0)
(0 0 0 0 0 0 0 0 0)
(0 0 0 0 -0 0 0 0 0)
(0 -0 0 -0 0 0 0 0 0)
(0 0 0 0 -0 0 0 0 0)
(0 -0 0 -0 0 0 0 0 0)
(0 -0 0 -0 -0 0 0 0 0)
(0 -0 0 -0 0 0 0 0 0)
(0 0 0 0 -0 0 0 0 0)
(0 0 0 0 0 0 0 0 0)
(0 0 0 0 -0 0 0 0 0)
(0 0 0 0 0 0 0 0 0)
(0 0 0 0 0 0 0 0 0)
(0 0 0 0 0 0 0 0 0)
(0 0 0 0 0 0 0 0 0)
(0 0 0 0 0 0 0 0 0)
(0 0 0 0 0 0 0 0 0)
(0 0 0 0 0 0 0 0 0)
)
;

boundaryField
{
    inandouthalf11
    {
        type            cyclic;
    }
    inandouthalf12
    {
        type            cyclic;
    }
    inandouthalf21
    {
        type            cyclic;
    }
    inandouthalf22
    {
        type            cyclic;
    }
    inandouthalf31
    {
        type            cyclic;
    }
    inandouthalf32
    {
        type            cyclic;
    }
    inandouthalf41
    {
        type            cyclic;
    }
    inandouthalf42
    {
        type            cyclic;
    }
    top
    {
        type            symmetryPlane;
    }
    walls
    {
        type            zeroGradient;
    }
    frontAndBackPlanes
    {
        type            empty;
    }
}


// ************************************************************************* //
