/*--------------------------------*- C++ -*----------------------------------*\
| =========                 |                                                 |
| \\      /  F ield         | OpenFOAM: The Open Source CFD Toolbox           |
|  \\    /   O peration     | Version:  2.4.x                                 |
|   \\  /    A nd           | Web:      www.OpenFOAM.org                      |
|    \\/     M anipulation  |                                                 |
\*---------------------------------------------------------------------------*/
FoamFile
{
    version     2.0;
    format      ascii;
    class       volVectorField;
    location    "8.1";
    object      ddt0(Ub);
}
// * * * * * * * * * * * * * * * * * * * * * * * * * * * * * * * * * * * * * //

dimensions      [0 1 -2 0 0 0 0];

internalField   nonuniform List<vector> 
360
(
(-0.000101042 -1.78546e-08 0)
(-0.000100557 -6.42146e-08 0)
(-0.00010046 -1.16944e-07 0)
(-0.000100523 -1.62143e-07 0)
(-0.000100559 -2.03662e-07 0)
(-0.000100569 -2.44104e-07 0)
(-0.000100577 -2.83417e-07 0)
(-0.000100587 -3.21159e-07 0)
(-0.000100597 -3.57223e-07 0)
(-0.000100607 -3.91714e-07 0)
(-0.000100617 -4.2479e-07 0)
(-0.000100626 -4.56578e-07 0)
(-0.000100634 -4.87205e-07 0)
(-0.000100643 -5.16813e-07 0)
(-0.000100651 -5.45563e-07 0)
(-0.00010066 -5.73636e-07 0)
(-0.000100668 -6.01236e-07 0)
(-0.000100677 -6.2857e-07 0)
(-0.000100685 -6.55841e-07 0)
(-0.000100694 -6.8324e-07 0)
(-0.000100703 -7.10944e-07 0)
(-0.000100712 -7.39124e-07 0)
(-0.000100722 -7.67943e-07 0)
(-0.000100731 -7.97535e-07 0)
(-0.000100742 -8.28024e-07 0)
(-0.000100753 -8.59515e-07 0)
(-0.000100764 -8.92089e-07 0)
(-0.000100775 -9.25817e-07 0)
(-0.000100787 -9.6076e-07 0)
(-0.0001008 -9.96944e-07 0)
(-0.000100813 -1.03439e-06 0)
(-0.000100826 -1.07311e-06 0)
(-0.00010084 -1.11309e-06 0)
(-0.000100855 -1.15433e-06 0)
(-0.00010087 -1.19679e-06 0)
(-0.000100885 -1.24044e-06 0)
(-0.000100901 -1.28524e-06 0)
(-0.000100917 -1.33116e-06 0)
(-0.000100934 -1.37814e-06 0)
(-0.00010095 -1.42613e-06 0)
(-0.000100968 -1.4751e-06 0)
(-0.000100986 -1.52498e-06 0)
(-0.000101004 -1.57571e-06 0)
(-0.000101022 -1.62727e-06 0)
(-0.000101041 -1.67958e-06 0)
(-0.00010106 -1.73261e-06 0)
(-0.00010108 -1.78631e-06 0)
(-0.0001011 -1.84062e-06 0)
(-0.00010112 -1.89548e-06 0)
(-0.000101141 -1.9509e-06 0)
(-0.000101161 -2.0068e-06 0)
(-0.000101182 -2.06317e-06 0)
(-0.000101204 -2.11996e-06 0)
(-0.000101226 -2.17713e-06 0)
(-0.000101248 -2.23464e-06 0)
(-0.00010127 -2.29245e-06 0)
(-0.000101293 -2.35052e-06 0)
(-0.000101316 -2.4088e-06 0)
(-0.000101339 -2.46725e-06 0)
(-0.000101362 -2.5258e-06 0)
(-0.000101387 -2.58446e-06 0)
(-0.000101411 -2.64319e-06 0)
(-0.000101436 -2.70197e-06 0)
(-0.000101461 -2.76076e-06 0)
(-0.000101486 -2.81952e-06 0)
(-0.000101512 -2.87819e-06 0)
(-0.000101538 -2.93674e-06 0)
(-0.000101564 -2.99511e-06 0)
(-0.000101591 -3.05326e-06 0)
(-0.000101618 -3.11113e-06 0)
(-0.000101646 -3.16871e-06 0)
(-0.000101674 -3.22601e-06 0)
(-0.000101703 -3.28298e-06 0)
(-0.000101732 -3.33964e-06 0)
(-0.000101761 -3.39596e-06 0)
(-0.000101792 -3.45195e-06 0)
(-0.000101822 -3.50754e-06 0)
(-0.000101853 -3.5627e-06 0)
(-0.000101885 -3.6174e-06 0)
(-0.000101917 -3.6716e-06 0)
(-0.00010195 -3.72529e-06 0)
(-0.000101984 -3.77846e-06 0)
(-0.000102018 -3.83115e-06 0)
(-0.000102053 -3.88334e-06 0)
(-0.000102089 -3.93508e-06 0)
(-0.000102125 -3.98635e-06 0)
(-0.000102163 -4.03715e-06 0)
(-0.000102201 -4.08746e-06 0)
(-0.00010224 -4.13725e-06 0)
(-0.00010228 -4.18649e-06 0)
(-0.000102321 -4.23517e-06 0)
(-0.000102362 -4.28325e-06 0)
(-0.000102405 -4.33075e-06 0)
(-0.000102449 -4.37767e-06 0)
(-0.000102494 -4.42402e-06 0)
(-0.00010254 -4.4698e-06 0)
(-0.000102588 -4.51504e-06 0)
(-0.000102636 -4.55973e-06 0)
(-0.000102686 -4.60386e-06 0)
(-0.000102738 -4.64742e-06 0)
(-0.00010279 -4.69039e-06 0)
(-0.000102844 -4.73274e-06 0)
(-0.0001029 -4.77445e-06 0)
(-0.000102957 -4.81551e-06 0)
(-0.000103016 -4.85586e-06 0)
(-0.000103076 -4.89549e-06 0)
(-0.000103139 -4.93436e-06 0)
(-0.000103203 -4.97243e-06 0)
(-0.000103269 -5.00967e-06 0)
(-0.000103337 -5.04604e-06 0)
(-0.000103407 -5.08151e-06 0)
(-0.00010348 -5.11606e-06 0)
(-0.000103555 -5.14967e-06 0)
(-0.000103632 -5.18231e-06 0)
(-0.000103711 -5.21398e-06 0)
(-0.000103794 -5.24469e-06 0)
(-0.000103879 -5.27443e-06 0)
(-0.000103966 -5.30323e-06 0)
(-0.000104057 -5.33114e-06 0)
(-0.00010415 -5.35819e-06 0)
(-0.000104247 -5.38449e-06 0)
(-0.000104347 -5.41011e-06 0)
(-0.00010445 -5.43515e-06 0)
(-0.000104556 -5.45965e-06 0)
(-0.000104666 -5.48361e-06 0)
(-0.000104779 -5.50685e-06 0)
(-0.000104897 -5.52908e-06 0)
(-0.000105018 -5.54977e-06 0)
(-0.000105145 -5.56828e-06 0)
(-0.000105276 -5.58384e-06 0)
(-0.000105413 -5.5958e-06 0)
(-0.000105556 -5.60375e-06 0)
(-0.000105706 -5.60762e-06 0)
(-0.000105865 -5.60778e-06 0)
(-0.000106035 -5.60477e-06 0)
(-0.000106216 -5.59911e-06 0)
(-0.000106407 -5.59095e-06 0)
(-0.000106611 -5.58016e-06 0)
(-0.000106839 -5.56689e-06 0)
(-0.000107103 -5.55302e-06 0)
(-0.000107387 -5.54308e-06 0)
(-0.000107657 -5.54288e-06 0)
(-0.00010799 -5.55455e-06 0)
(-0.000108438 -7.19682e-06 0)
(-0.00010901 0.000146085 0)
(-0.000109329 -0.000957003 0)
(0.000693352 0.00243239 0)
(0.567771 -0.00266524 0)
(0.799962 -0.040042 0)
(0.577184 -0.00172302 0)
(0.483467 -0.00165482 0)
(0.441641 -0.00091581 0)
(0.424287 -0.00123779 0)
(0.420784 -0.00137549 0)
(0.426874 -0.00136816 0)
(0.44066 -0.00131856 0)
(0.461263 -0.00126815 0)
(0.488417 -0.00121234 0)
(0.522378 -0.00113427 0)
(0.563814 -0.00102416 0)
(0.613509 -0.000884715 0)
(0.671721 -0.000728678 0)
(0.737229 -0.000571907 0)
(0.806586 -0.00042659 0)
(0.874506 -0.000300512 0)
(0.935701 -0.000199936 0)
(0.986909 -0.000128096 0)
(1.02752 -8.19778e-05 0)
(1.05877 -5.41927e-05 0)
(1.08257 -3.75144e-05 0)
(1.10081 -2.71206e-05 0)
(1.11498 -2.03272e-05 0)
(1.12623 -1.56975e-05 0)
(1.13537 -1.24299e-05 0)
(1.14297 -1.00527e-05 0)
(1.14944 -8.27582e-06 0)
(1.15506 -6.9158e-06 0)
(1.16004 -5.85305e-06 0)
(1.16452 -5.00747e-06 0)
(1.16862 -4.32394e-06 0)
(1.17242 -3.76369e-06 0)
(1.17596 -3.29886e-06 0)
(1.1793 -2.90903e-06 0)
(1.18248 -2.57899e-06 0)
(1.18551 -2.2972e-06 0)
(1.18841 -2.05479e-06 0)
(1.19121 -1.84487e-06 0)
(1.19391 -1.66199e-06 0)
(1.19653 -1.50179e-06 0)
(1.19907 -1.36077e-06 0)
(1.20154 -1.23607e-06 0)
(1.20394 -1.12535e-06 0)
(1.20628 -1.02667e-06 0)
(1.20857 -9.38404e-07 0)
(1.2108 -8.59174e-07 0)
(1.21298 -7.87831e-07 0)
(1.21511 -7.23385e-07 0)
(1.21719 -6.64986e-07 0)
(1.21923 -6.11906e-07 0)
(1.22122 -5.6351e-07 0)
(1.22317 -5.19258e-07 0)
(1.22509 -4.7828e-07 0)
(1.22702 -4.39921e-07 0)
(1.22894 -4.03975e-07 0)
(1.23086 -3.70251e-07 0)
(1.23277 -3.38573e-07 0)
(1.23468 -3.08798e-07 0)
(1.23658 -2.80801e-07 0)
(1.23848 -2.54488e-07 0)
(1.24037 -2.2978e-07 0)
(1.24225 -2.06619e-07 0)
(1.24412 -1.84962e-07 0)
(1.24599 -1.64807e-07 0)
(1.24784 -1.46156e-07 0)
(1.24968 -1.29007e-07 0)
(1.2515 -1.13327e-07 0)
(1.25331 -9.91006e-08 0)
(1.25511 -8.62901e-08 0)
(1.25688 -7.48366e-08 0)
(1.25863 -6.46388e-08 0)
(1.26036 -5.56132e-08 0)
(1.26206 -4.76778e-08 0)
(1.26374 -4.07448e-08 0)
(1.26538 -3.4697e-08 0)
(1.26699 -2.9451e-08 0)
(1.26856 -2.49254e-08 0)
(1.2701 -2.10354e-08 0)
(1.27159 -1.76897e-08 0)
(1.27303 -1.4832e-08 0)
(1.27442 -1.23964e-08 0)
(1.27575 -1.03366e-08 0)
(1.27702 -8.61125e-09 0)
(1.27823 -7.21339e-09 0)
(1.27936 -6.12171e-09 0)
(1.28042 -5.21211e-09 0)
(1.28139 -4.33017e-09 0)
(1.28227 -3.56352e-09 0)
(1.28304 -3.03403e-09 0)
(1.28371 -2.62642e-09 0)
(1.28425 -2.30262e-09 0)
(1.28466 -2.0136e-09 0)
(1.28492 -1.76768e-09 0)
(1.28503 -1.71094e-09 0)
(1.28496 -1.53981e-09 0)
(1.2847 -1.30816e-09 0)
(1.28422 -1.27213e-09 0)
(1.28353 -1.23607e-09 0)
(1.28258 -1.18586e-09 0)
(1.28136 -1.12718e-09 0)
(1.27986 -1.07243e-09 0)
(1.27807 -1.0164e-09 0)
(1.27597 -9.67166e-10 0)
(1.27359 -9.18472e-10 0)
(1.27096 -8.88381e-10 0)
(1.26813 -8.72986e-10 0)
(1.2652 -7.85883e-10 0)
(1.26229 -9.34598e-10 0)
(1.25952 -6.0914e-10 0)
(1.25704 -1.06072e-09 0)
(1.25496 -4.43575e-10 0)
(1.2534 -1.24257e-09 0)
(1.2525 -3.33297e-10 0)
(1.25242 -1.4365e-09 0)
(1.25396 -2.9622e-10 0)
(1.25463 -1.52948e-09 0)
(1.25467 -1.31429e-10 0)
(1.25467 -1.45424e-09 0)
(1.25467 8.00268e-11 0)
(1.25467 -1.41485e-09 0)
(1.25467 2.69987e-10 0)
(1.25467 -1.41594e-09 0)
(1.25467 3.9043e-10 0)
(1.25467 -1.47429e-09 0)
(1.25467 5.41869e-10 0)
(1.25467 -1.4963e-09 0)
(1.25467 6.83406e-10 0)
(1.25467 -1.56713e-09 0)
(1.25467 8.04635e-10 0)
(1.25467 -1.65995e-09 0)
(1.25467 9.03459e-10 0)
(1.25467 -1.7746e-09 0)
(1.25467 1.02386e-09 0)
(1.25467 -1.87307e-09 0)
(1.25467 1.15103e-09 0)
(1.25467 -1.98283e-09 0)
(1.25467 1.2845e-09 0)
(1.25467 -2.09105e-09 0)
(1.25467 1.42986e-09 0)
(1.25467 -2.19929e-09 0)
(1.25467 1.5871e-09 0)
(1.25467 -2.30815e-09 0)
(1.25467 1.75314e-09 0)
(1.25467 -2.42027e-09 0)
(1.25467 1.92096e-09 0)
(1.25467 -2.57191e-09 0)
(1.25467 1.99956e-09 0)
(1.25467 -2.80807e-09 0)
(1.25467 2.13461e-09 0)
(1.25467 -3.0091e-09 0)
(1.25467 2.17608e-09 0)
(1.25467 -3.32956e-09 0)
(1.25467 2.17929e-09 0)
(1.25467 -3.66552e-09 0)
(1.25467 2.18244e-09 0)
(1.25467 -4.02145e-09 0)
(1.25467 2.17777e-09 0)
(1.25467 -4.38683e-09 0)
(1.25467 2.20102e-09 0)
(1.25467 -4.72743e-09 0)
(1.25467 2.25163e-09 0)
(1.25467 -4.57905e-09 0)
(1.25467 1.86788e-09 0)
(1.25467 -4.73665e-09 0)
(1.25467 1.70253e-09 0)
(1.25467 -5.0238e-09 0)
(1.25467 1.60144e-09 0)
(1.25467 -5.17e-09 0)
(1.25467 1.57672e-09 0)
(1.25467 -5.19643e-09 0)
(1.25467 1.80524e-09 0)
(1.25467 -5.10413e-09 0)
(1.25467 1.79175e-09 0)
(1.25467 -5.15836e-09 0)
(1.25467 2.1492e-09 0)
(1.25467 -4.73282e-09 0)
(1.25467 2.65287e-09 0)
(1.25467 -4.1841e-09 0)
(1.25467 3.42445e-09 0)
(1.25467 -5.60139e-09 0)
(1.25467 -1.95044e-09 0)
(1.25467 -1.27741e-08 0)
(1.25467 -8.22684e-09 0)
(1.25467 -1.86004e-08 0)
(1.25467 -1.37712e-08 0)
(1.25467 -2.29434e-08 0)
(1.25467 -1.5936e-08 0)
(1.25467 -2.53841e-08 0)
(1.25467 -2.05366e-08 0)
(1.25467 -2.94734e-08 0)
(1.25467 -2.11041e-08 0)
(1.25467 -2.79999e-08 0)
(1.25467 -1.8898e-08 0)
(1.25467 -2.31601e-08 0)
(1.25467 -9.87046e-09 0)
(1.25467 -1.50025e-08 0)
(1.25467 -6.66536e-09 0)
(1.25467 -1.16999e-08 0)
(1.25467 2.24355e-09 0)
(1.25467 1.19549e-09 0)
(1.25467 1.6771e-08 0)
(1.25467 1.94696e-08 0)
(1.25467 4.05242e-08 0)
(1.25467 5.00955e-08 0)
(1.25467 7.81103e-08 0)
(1.25467 8.99193e-08 0)
(1.25467 1.14853e-07 0)
(1.25467 1.30792e-07 0)
(1.25467 1.61758e-07 0)
(1.25467 1.68527e-07 0)
(1.25467 9.53015e-08 0)
)
;

boundaryField
{
    inandouthalf11
    {
        type            cyclic;
    }
    inandouthalf12
    {
        type            cyclic;
    }
    inandouthalf21
    {
        type            cyclic;
    }
    inandouthalf22
    {
        type            cyclic;
    }
    inandouthalf31
    {
        type            cyclic;
    }
    inandouthalf32
    {
        type            cyclic;
    }
    inandouthalf41
    {
        type            cyclic;
    }
    inandouthalf42
    {
        type            cyclic;
    }
    top
    {
        type            symmetryPlane;
    }
    walls
    {
        type            calculated;
        value           uniform (0 0 0);
    }
    frontAndBackPlanes
    {
        type            empty;
    }
}


// ************************************************************************* //
