/*--------------------------------*- C++ -*----------------------------------*\
| =========                 |                                                 |
| \\      /  F ield         | OpenFOAM: The Open Source CFD Toolbox           |
|  \\    /   O peration     | Version:  2.4.x                                 |
|   \\  /    A nd           | Web:      www.OpenFOAM.org                      |
|    \\/     M anipulation  |                                                 |
\*---------------------------------------------------------------------------*/
FoamFile
{
    version     2.0;
    format      ascii;
    class       volScalarField;
    location    "8.1";
    object      ddt0(k);
}
// * * * * * * * * * * * * * * * * * * * * * * * * * * * * * * * * * * * * * //

dimensions      [0 2 -3 0 0 0 0];

internalField   nonuniform List<scalar> 
360
(
0
0
0
0
0
0
0
0
0
0
0
0
0
0
0
0
0
0
0
0
0
0
0
0
0
0
0
0
0
0
0
0
0
0
0
0
0
0
0
0
0
0
0
0
0
0
0
0
0
0
0
0
0
0
0
0
0
0
0
0
0
0
0
0
0
0
0
0
0
0
0
0
0
0
0
0
0
0
0
0
0
0
0
0
0
0
0
0
0
0
0
0
0
0
0
0
0
0
0
0
0
0
0
0
0
0
0
0
0
0
0
0
0
0
0
0
0
0
0
0
0
0
0
0
0
0
0
0
0
0
0
0
0
0
-3.53651e-211
2.11617e-97
8.51719e-19
1.41221e-17
2.38371e-16
4.40834e-15
9.06242e-14
2.09104e-12
5.47878e-11
1.65531e-09
5.8412e-08
2.41614e-06
0.000115912
0.00445891
0.0262356
0.0217108
0.0214881
0.020751
0.0202312
0.0201555
0.0204365
0.0208777
0.0212908
0.0215161
0.0214125
0.0208471
0.0197016
0.0179079
0.0155076
0.0126984
0.00980317
0.00714621
0.00492889
0.00319801
0.00189766
0.000935133
0.000221327
-0.000314698
-0.000724717
-0.001045
-0.00130057
-0.00150863
-0.00168109
-0.00182628
-0.00195006
-0.00205664
-0.0021491
-0.00222968
-0.00230007
-0.00236157
-0.00241515
-0.00246162
-0.0025016
-0.00253559
-0.00256404
-0.00258731
-0.0026057
-0.00261951
-0.00262897
-0.00263432
-0.00263575
-0.00263347
-0.00262766
-0.00261848
-0.00260609
-0.00259066
-0.00257233
-0.00255103
-0.00252654
-0.00249884
-0.0024679
-0.00243368
-0.00239618
-0.00235536
-0.00231121
-0.00226372
-0.0022129
-0.00215874
-0.00210125
-0.00204044
-0.00197636
-0.00190903
-0.0018385
-0.00176483
-0.0016881
-0.00160838
-0.00152579
-0.00144044
-0.00135246
-0.00126201
-0.00116927
-0.00107442
-0.000977682
-0.000879307
-0.000779561
-0.000678743
-0.000577184
-0.000475246
-0.000373329
-0.000271869
-0.000171346
-7.22841e-05
2.47449e-05
0.000119117
0.000210153
0.000297113
0.000379196
0.000455536
0.0005252
0.000587192
0.000640458
0.000683901
0.000716402
0.000736861
0.000744262
0.000737762
0.000716831
0.000681427
0.000632224
0.000570848
0.000500069
0.000423827
0.000346964
0.000274569
0.000211021
0.000159014
0.000118842
8.78002e-05
5.97494e-05
1.60605e-05
7.79836e-07
1.67735e-08
3.36461e-10
6.54995e-12
1.23113e-13
2.22288e-15
3.83888e-17
6.2449e-19
0
0
0
0
0
0
0
0
0
0
0
0
0
0
0
0
0
0
0
0
0
0
0
0
0
0
0
0
0
0
0
0
0
0
0
0
0
0
0
0
0
0
0
0
0
0
0
0
0
0
0
0
0
0
0
0
0
0
0
0
0
0
0
0
0
0
0
0
0
0
0
0
0
0
0
0
0
0
0
0
0
0
0
0
0
0
0
0
)
;

boundaryField
{
    inandouthalf11
    {
        type            cyclic;
    }
    inandouthalf12
    {
        type            cyclic;
    }
    inandouthalf21
    {
        type            cyclic;
    }
    inandouthalf22
    {
        type            cyclic;
    }
    inandouthalf31
    {
        type            cyclic;
    }
    inandouthalf32
    {
        type            cyclic;
    }
    inandouthalf41
    {
        type            cyclic;
    }
    inandouthalf42
    {
        type            cyclic;
    }
    top
    {
        type            symmetryPlane;
    }
    walls
    {
        type            calculated;
        value           uniform 0;
    }
    frontAndBackPlanes
    {
        type            empty;
    }
}


// ************************************************************************* //
