/*--------------------------------*- C++ -*----------------------------------*\
| =========                 |                                                 |
| \\      /  F ield         | OpenFOAM: The Open Source CFD Toolbox           |
|  \\    /   O peration     | Version:  2.4.x                                 |
|   \\  /    A nd           | Web:      www.OpenFOAM.org                      |
|    \\/     M anipulation  |                                                 |
\*---------------------------------------------------------------------------*/
FoamFile
{
    version     2.0;
    format      ascii;
    class       volScalarField;
    location    "8.1";
    object      ddt0(alpha);
}
// * * * * * * * * * * * * * * * * * * * * * * * * * * * * * * * * * * * * * //

dimensions      [0 0 -1 0 0 0 0];

internalField   nonuniform List<scalar> 
360
(
4.91965e-05
7.49501e-05
6.98521e-05
6.75821e-05
6.98373e-05
7.16741e-05
7.21963e-05
7.21946e-05
7.20921e-05
7.20081e-05
7.18976e-05
7.17009e-05
7.14323e-05
7.10955e-05
7.07213e-05
7.03305e-05
6.99272e-05
6.95084e-05
6.90759e-05
6.86508e-05
6.82044e-05
6.77764e-05
6.73545e-05
6.69433e-05
6.65472e-05
6.61655e-05
6.57962e-05
6.54603e-05
6.51404e-05
6.48386e-05
6.45559e-05
6.43117e-05
6.40585e-05
6.38667e-05
6.36625e-05
6.34926e-05
6.33272e-05
6.31903e-05
6.3082e-05
6.29458e-05
6.28645e-05
6.27755e-05
6.26738e-05
6.26179e-05
6.25442e-05
6.24816e-05
6.24237e-05
6.23301e-05
6.22639e-05
6.22233e-05
6.21346e-05
6.20684e-05
6.19807e-05
6.19045e-05
6.17888e-05
6.17057e-05
6.15657e-05
6.14419e-05
6.1287e-05
6.10972e-05
6.09504e-05
6.07563e-05
6.05864e-05
6.03797e-05
6.01614e-05
5.99112e-05
5.96516e-05
5.93674e-05
5.90543e-05
5.8708e-05
5.83836e-05
5.80569e-05
5.76778e-05
5.73236e-05
5.69426e-05
5.6562e-05
5.61285e-05
5.56698e-05
5.51892e-05
5.46914e-05
5.41691e-05
5.36451e-05
5.31207e-05
5.25925e-05
5.20607e-05
5.15158e-05
5.09563e-05
5.03708e-05
4.97604e-05
4.91301e-05
4.84843e-05
4.7829e-05
4.71733e-05
4.652e-05
4.58695e-05
4.52205e-05
4.45699e-05
4.39144e-05
4.32519e-05
4.25819e-05
4.19051e-05
4.1223e-05
4.0538e-05
3.98526e-05
3.91693e-05
3.84913e-05
3.78225e-05
3.71677e-05
3.65329e-05
3.59252e-05
3.53525e-05
3.48234e-05
3.43469e-05
3.39317e-05
3.35864e-05
3.3318e-05
3.31318e-05
3.30303e-05
3.3012e-05
3.30703e-05
3.31918e-05
3.33557e-05
3.35331e-05
3.36884e-05
3.37819e-05
3.37746e-05
3.36317e-05
3.33218e-05
3.28122e-05
3.2065e-05
3.10474e-05
2.97616e-05
2.82763e-05
2.67178e-05
2.51953e-05
2.3735e-05
2.23509e-05
2.11441e-05
2.01156e-05
1.86955e-05
1.54929e-05
9.1387e-06
1.89529e-06
-4.0697e-06
-1.07919e-05
-2.11151e-05
-0.00993765
-0.956079
-0.399669
-0.100462
-0.0103978
0.0589861
0.105531
0.135719
0.153144
0.15955
0.156535
0.145806
0.129428
0.109647
0.0887
0.0686121
0.0508755
0.0361597
0.0244965
0.0157964
0.00986447
0.00615735
0.00394589
0.00262505
0.00181182
0.00129111
0.000944868
0.000706837
0.000538457
0.000416421
0.00032613
0.000258149
0.000206196
0.000165984
0.000134521
0.000109672
8.989e-05
7.40354e-05
6.12548e-05
5.09024e-05
4.24831e-05
3.56136e-05
2.99941e-05
2.53884e-05
2.16091e-05
1.85072e-05
1.59632e-05
1.38812e-05
1.21838e-05
1.08083e-05
9.70337e-06
8.8269e-06
8.14218e-06
7.61566e-06
7.21659e-06
6.91654e-06
6.69552e-06
6.53725e-06
6.42123e-06
6.32621e-06
6.23189e-06
6.12185e-06
5.98294e-06
5.80595e-06
5.58437e-06
5.31448e-06
4.9947e-06
4.63784e-06
4.26198e-06
3.87169e-06
3.47258e-06
3.08472e-06
2.72036e-06
2.37969e-06
2.06154e-06
1.76992e-06
1.51326e-06
1.28571e-06
1.08122e-06
9.04452e-07
7.52936e-07
6.21953e-07
5.10493e-07
4.15719e-07
3.37829e-07
2.69976e-07
2.08903e-07
1.62778e-07
1.59441e-07
1.55394e-07
1.03025e-07
6.79561e-08
5.58706e-08
3.59462e-08
3.89743e-08
1.35832e-08
3.42054e-08
4.2289e-18
3.7934e-29
-3.81477e-40
-3.44839e-40
-2.73987e-40
-8.76015e-41
-3.803e-41
-1.88968e-41
-1.01497e-41
-7.40006e-42
-7.23954e-42
-3.76713e-42
-1.50508e-42
-7.27872e-43
-3.76415e-43
-2.28662e-43
-1.52782e-43
-6.68601e-44
-3.30797e-44
-1.68643e-44
-8.87673e-45
-4.37229e-45
-2.15934e-45
-1.04886e-45
-5.00836e-46
-2.34975e-46
-1.08255e-46
-4.89463e-47
-2.1705e-47
-9.43372e-48
-4.01593e-48
-1.67321e-48
-6.81765e-49
-2.71446e-49
-1.05515e-49
-4.00061e-50
-1.47803e-50
-5.31532e-51
-1.85853e-51
-6.31071e-52
-2.07819e-52
-6.62798e-53
-2.04411e-53
-6.08605e-54
-1.74621e-54
-4.81874e-55
-1.27618e-55
-3.23594e-56
-7.83541e-57
-1.80644e-57
-3.95244e-58
-8.17683e-59
-1.5928e-59
-2.90739e-60
-4.94535e-61
-7.78772e-62
-1.12663e-62
-1.48336e-63
-1.75715e-64
-1.84572e-65
-1.68697e-66
-1.30769e-67
-8.28715e-69
-4.05484e-70
-1.38378e-71
-2.60637e-73
-6.80359e-76
-8.28315e-81
-6.8925e-83
-2.84331e-85
-9.88464e-96
-1.71641e-106
-2.16832e-117
-1.96538e-128
-1.53294e-139
-9.00987e-151
-4.6112e-162
-3.35468e-172
-1.45289e-182
-1.09743e-190
-4.29967e-201
-3.77475e-209
-1.74617e-219
-1.29892e-227
-7.38855e-238
-4.47279e-246
-4.69293e-256
-1.56721e-264
-3.0943e-274
-5.6277e-283
-1.52982e-292
-2.06653e-301
-7.32502e-311
4.96635e-320
0
0
0
0
0
0
0
0
0
0
0
0
0
0
0
0
0
0
0
0
0
0
0
)
;

boundaryField
{
    inandouthalf11
    {
        type            cyclic;
    }
    inandouthalf12
    {
        type            cyclic;
    }
    inandouthalf21
    {
        type            cyclic;
    }
    inandouthalf22
    {
        type            cyclic;
    }
    inandouthalf31
    {
        type            cyclic;
    }
    inandouthalf32
    {
        type            cyclic;
    }
    inandouthalf41
    {
        type            cyclic;
    }
    inandouthalf42
    {
        type            cyclic;
    }
    top
    {
        type            symmetryPlane;
    }
    walls
    {
        type            calculated;
        value           uniform 4.91965e-05;
    }
    frontAndBackPlanes
    {
        type            empty;
    }
}


// ************************************************************************* //
