/*--------------------------------*- C++ -*----------------------------------*\
| =========                 |                                                 |
| \\      /  F ield         | OpenFOAM: The Open Source CFD Toolbox           |
|  \\    /   O peration     | Version:  2.4.x                                 |
|   \\  /    A nd           | Web:      www.OpenFOAM.org                      |
|    \\/     M anipulation  |                                                 |
\*---------------------------------------------------------------------------*/
FoamFile
{
    version     2.0;
    format      ascii;
    class       volScalarField;
    location    "8.1";
    object      k_0;
}
// * * * * * * * * * * * * * * * * * * * * * * * * * * * * * * * * * * * * * //

dimensions      [0 2 -2 0 0 0 0];

internalField   nonuniform List<scalar> 
360
(
1e-20
1e-20
1e-20
1e-20
1e-20
1e-20
1e-20
1e-20
1e-20
1e-20
1e-20
1e-20
1e-20
1e-20
1e-20
1e-20
1e-20
1e-20
1e-20
1e-20
1e-20
1e-20
1e-20
1e-20
1e-20
1e-20
1e-20
1e-20
1e-20
1e-20
1e-20
1e-20
1e-20
1e-20
1e-20
1e-20
1e-20
1e-20
1e-20
1e-20
1e-20
1e-20
1e-20
1e-20
1e-20
1e-20
1e-20
1e-20
1e-20
1e-20
1e-20
1e-20
1e-20
1e-20
1e-20
1e-20
1e-20
1e-20
1e-20
1e-20
1e-20
1e-20
1e-20
1e-20
1e-20
1e-20
1e-20
1e-20
1e-20
1e-20
1e-20
1e-20
1e-20
1e-20
1e-20
1e-20
1e-20
1e-20
1e-20
1e-20
1e-20
1e-20
1e-20
1e-20
1e-20
1e-20
1e-20
1e-20
1e-20
1e-20
1e-20
1e-20
1e-20
1e-20
1e-20
1e-20
1e-20
1e-20
1e-20
1e-20
1e-20
1e-20
1e-20
1e-20
1e-20
1e-20
1e-20
1e-20
1e-20
1e-20
1e-20
1e-20
1e-20
1e-20
1e-20
1e-20
1e-20
1e-20
1e-20
1e-20
1e-20
1e-20
1e-20
1e-20
1e-20
1e-20
1e-20
1e-20
1e-20
1e-20
1e-20
1e-20
1e-20
1e-20
1e-20
1e-20
5.08599e-20
7.12261e-19
1.16579e-17
2.10924e-16
4.24379e-15
9.59172e-14
2.46378e-12
7.27831e-11
2.50233e-09
1.0131e-07
4.82758e-06
0.000214761
0.00312048
0.00735829
0.00902038
0.009681
0.0098044
0.00959425
0.00916644
0.00859523
0.00793219
0.00721626
0.00647948
0.00575052
0.00505656
0.00442339
0.00387341
0.00342167
0.00307219
0.00281734
0.00264149
0.00252645
0.00245576
0.00241644
0.00239905
0.00239697
0.00240565
0.00242196
0.00244372
0.00246936
0.0024978
0.00252819
0.00255994
0.00259257
0.00262571
0.00265905
0.00269237
0.00272544
0.00275811
0.00279023
0.00282167
0.00285233
0.0028821
0.00291091
0.00293867
0.00296533
0.00299082
0.0030151
0.00303812
0.00305984
0.00308023
0.00309927
0.00311692
0.00313317
0.00314801
0.00316155
0.00317386
0.00318484
0.00319439
0.00320242
0.00320882
0.00321348
0.0032163
0.00321716
0.00321596
0.00321259
0.00320691
0.00319883
0.00318822
0.00317496
0.00315893
0.00314003
0.00311813
0.00309311
0.00306488
0.00303332
0.00299832
0.00295979
0.00291764
0.00287178
0.00282214
0.00276865
0.00271125
0.00264991
0.0025846
0.00251532
0.00244206
0.00236487
0.0022838
0.00219895
0.00211042
0.00201838
0.00192301
0.00182455
0.0017233
0.00161959
0.00151383
0.00140649
0.00129811
0.00118931
0.0010808
0.00097337
0.00086788
0.00076528
0.000666572
0.000572789
0.000484948
0.000403984
0.000330668
0.00026551
0.000208673
0.000159919
0.000118633
8.39328e-05
5.48869e-05
3.08327e-05
1.17622e-05
1.6346e-06
5.80637e-08
1.23993e-09
2.5108e-11
4.90559e-13
9.20578e-15
1.65257e-16
2.8331e-18
5.26247e-20
1e-20
1e-20
1e-20
1e-20
1e-20
1e-20
1e-20
1e-20
1e-20
1e-20
1e-20
1e-20
1e-20
1e-20
1e-20
1e-20
1e-20
1e-20
1e-20
1e-20
1e-20
1e-20
1e-20
1e-20
1e-20
1e-20
1e-20
1e-20
1e-20
1e-20
1e-20
1e-20
1e-20
1e-20
1e-20
1e-20
1e-20
1e-20
1e-20
1e-20
1e-20
1e-20
1e-20
1e-20
1e-20
1e-20
1e-20
1e-20
1e-20
1e-20
1e-20
1e-20
1e-20
1e-20
1e-20
1e-20
1e-20
1e-20
1e-20
1e-20
1e-20
1e-20
1e-20
1e-20
1e-20
1e-20
1e-20
1e-20
1e-20
1e-20
1e-20
1e-20
1e-20
1e-20
1e-20
1e-20
1e-20
1e-20
1e-20
1e-20
1e-20
1e-20
1e-20
1e-20
1e-20
1e-20
1e-20
1e-20
)
;

boundaryField
{
    inandouthalf11
    {
        type            cyclic;
    }
    inandouthalf12
    {
        type            cyclic;
    }
    inandouthalf21
    {
        type            cyclic;
    }
    inandouthalf22
    {
        type            cyclic;
    }
    inandouthalf31
    {
        type            cyclic;
    }
    inandouthalf32
    {
        type            cyclic;
    }
    inandouthalf41
    {
        type            cyclic;
    }
    inandouthalf42
    {
        type            cyclic;
    }
    top
    {
        type            symmetryPlane;
    }
    walls
    {
        type            zeroGradient;
    }
    frontAndBackPlanes
    {
        type            empty;
    }
}


// ************************************************************************* //
