/*--------------------------------*- C++ -*----------------------------------*\
| =========                 |                                                 |
| \\      /  F ield         | OpenFOAM: The Open Source CFD Toolbox           |
|  \\    /   O peration     | Version:  2.4.x                                 |
|   \\  /    A nd           | Web:      www.OpenFOAM.org                      |
|    \\/     M anipulation  |                                                 |
\*---------------------------------------------------------------------------*/
FoamFile
{
    version     2.0;
    format      ascii;
    class       volScalarField;
    location    "8.1";
    object      nutb;
}
// * * * * * * * * * * * * * * * * * * * * * * * * * * * * * * * * * * * * * //

dimensions      [0 2 -1 0 0 0 0];

internalField   nonuniform List<scalar> 
360
(
9e-22
9e-22
9e-22
9e-22
9e-22
9e-22
9e-22
9e-22
9e-22
9e-22
9e-22
9e-22
9e-22
9e-22
9e-22
9e-22
9e-22
9e-22
9e-22
9e-22
9e-22
9e-22
9e-22
9e-22
9e-22
9e-22
9e-22
9e-22
9e-22
9e-22
9e-22
9e-22
9e-22
9e-22
9e-22
9e-22
9e-22
9e-22
9e-22
9e-22
9e-22
9e-22
9e-22
9e-22
9e-22
9e-22
9e-22
9e-22
9e-22
9e-22
9e-22
9e-22
9e-22
9e-22
9e-22
9e-22
9e-22
9e-22
9e-22
9e-22
9e-22
9e-22
9e-22
9e-22
9e-22
9e-22
9e-22
9e-22
9e-22
9e-22
9e-22
9e-22
9e-22
9e-22
9e-22
9e-22
9e-22
9e-22
9e-22
9e-22
9e-22
9e-22
9e-22
9e-22
9e-22
9e-22
9e-22
9e-22
9e-22
9e-22
9e-22
9e-22
9e-22
9e-22
9e-22
9e-22
9e-22
9e-22
9e-22
9e-22
9e-22
9e-22
9e-22
9e-22
9e-22
9e-22
9e-22
9e-22
9e-22
9e-22
9e-22
9e-22
9e-22
9e-22
9e-22
9e-22
9e-22
9e-22
9e-22
9e-22
9e-22
9e-22
9e-22
9e-22
9e-22
9e-22
9e-22
9e-22
9e-22
9e-22
9e-22
9e-22
9e-22
9e-22
9e-22
4.31337e-22
1.19886e-21
1.41398e-20
1.981e-19
3.04583e-18
5.16333e-17
9.74531e-16
2.07242e-14
5.02757e-13
1.40898e-11
4.62298e-10
1.77296e-08
6.05745e-07
6.64719e-06
1.55368e-05
2.20296e-05
2.69754e-05
3.07886e-05
3.36742e-05
3.57807e-05
3.7232e-05
3.81397e-05
3.86182e-05
3.87987e-05
3.88444e-05
3.89661e-05
3.94332e-05
4.05706e-05
4.27271e-05
4.62073e-05
5.11864e-05
5.76553e-05
6.54296e-05
7.42128e-05
8.36722e-05
9.34956e-05
0.000103422
0.000113248
0.00012283
0.000132068
0.000140902
0.000149299
0.000157246
0.000164746
0.00017181
0.000178455
0.000184702
0.000190573
0.000196093
0.000201283
0.000206165
0.000210759
0.000215085
0.000219159
0.000222999
0.000226617
0.000230028
0.000233243
0.000236273
0.000239127
0.000241814
0.000244341
0.000246717
0.000248946
0.000251035
0.000252989
0.00025483
0.000256575
0.000258222
0.000259766
0.000261204
0.000262532
0.000263745
0.000264839
0.000265808
0.000266647
0.000267352
0.000267914
0.000268329
0.00026859
0.000268689
0.00026862
0.000268374
0.000267945
0.000267324
0.000266503
0.000265472
0.000264225
0.00026275
0.000261041
0.000259086
0.000256877
0.000254405
0.000251659
0.000248631
0.000245312
0.000241691
0.000237761
0.000233514
0.000228941
0.000224035
0.00021879
0.000213202
0.000207266
0.000200981
0.000194346
0.000187364
0.000180041
0.000172386
0.000164412
0.000156138
0.000147589
0.000138794
0.000129793
0.000120632
0.000111365
0.000102052
9.27603e-05
8.35523e-05
7.44839e-05
6.55921e-05
5.68865e-05
4.83466e-05
3.99317e-05
3.16049e-05
2.33606e-05
1.52312e-05
7.18816e-06
1.24869e-06
4.83859e-08
1.02706e-09
2.05605e-11
3.97224e-13
7.37483e-15
1.3102e-16
2.18255e-18
1.8717e-20
9e-22
9e-22
9e-22
9e-22
9e-22
9e-22
9e-22
9e-22
9e-22
9e-22
9e-22
9e-22
9e-22
9e-22
9e-22
9e-22
9e-22
9e-22
9e-22
9e-22
9e-22
9e-22
9e-22
9e-22
9e-22
9e-22
9e-22
9e-22
9e-22
9e-22
9e-22
9e-22
9e-22
9e-22
9e-22
9e-22
9e-22
9e-22
9e-22
9e-22
9e-22
9e-22
9e-22
9e-22
9e-22
9e-22
9e-22
9e-22
9e-22
9e-22
9e-22
9e-22
9e-22
9e-22
9e-22
9e-22
9e-22
9e-22
9e-22
9e-22
9e-22
9e-22
9e-22
9e-22
9e-22
9e-22
9e-22
9e-22
9e-22
9e-22
9e-22
9e-22
9e-22
9e-22
9e-22
9e-22
9e-22
9e-22
9e-22
9e-22
9e-22
9e-22
9e-22
9e-22
9e-22
9e-22
9e-22
9e-22
)
;

boundaryField
{
    inandouthalf11
    {
        type            cyclic;
    }
    inandouthalf12
    {
        type            cyclic;
    }
    inandouthalf21
    {
        type            cyclic;
    }
    inandouthalf22
    {
        type            cyclic;
    }
    inandouthalf31
    {
        type            cyclic;
    }
    inandouthalf32
    {
        type            cyclic;
    }
    inandouthalf41
    {
        type            cyclic;
    }
    inandouthalf42
    {
        type            cyclic;
    }
    top
    {
        type            symmetryPlane;
    }
    walls
    {
        type            calculated;
        value           uniform 0;
    }
    frontAndBackPlanes
    {
        type            empty;
    }
}


// ************************************************************************* //
