/*--------------------------------*- C++ -*----------------------------------*\
| =========                 |                                                 |
| \\      /  F ield         | OpenFOAM: The Open Source CFD Toolbox           |
|  \\    /   O peration     | Version:  2.4.x                                 |
|   \\  /    A nd           | Web:      www.OpenFOAM.org                      |
|    \\/     M anipulation  |                                                 |
\*---------------------------------------------------------------------------*/
FoamFile
{
    version     2.0;
    format      ascii;
    class       volScalarField;
    location    "8.1";
    object      pa;
}
// * * * * * * * * * * * * * * * * * * * * * * * * * * * * * * * * * * * * * //

dimensions      [1 -1 -2 0 0 0 0];

internalField   nonuniform List<scalar> 
360
(
2.90253e-16
2.9276e-16
2.93008e-16
2.92748e-16
2.92626e-16
2.92587e-16
2.92536e-16
2.92471e-16
2.92404e-16
2.92336e-16
2.92267e-16
2.92198e-16
2.92128e-16
2.92058e-16
2.91987e-16
2.91915e-16
2.91843e-16
2.9177e-16
2.91697e-16
2.91622e-16
2.91548e-16
2.91473e-16
2.91397e-16
2.9132e-16
2.91243e-16
2.91165e-16
2.91087e-16
2.91008e-16
2.90928e-16
2.90848e-16
2.90767e-16
2.90685e-16
2.90603e-16
2.90519e-16
2.90435e-16
2.9035e-16
2.90265e-16
2.90178e-16
2.9009e-16
2.90003e-16
2.89913e-16
2.89823e-16
2.89733e-16
2.89641e-16
2.89548e-16
2.89455e-16
2.89359e-16
2.89265e-16
2.89168e-16
2.89069e-16
2.88971e-16
2.8887e-16
2.88769e-16
2.88666e-16
2.88563e-16
2.88458e-16
2.88352e-16
2.88244e-16
2.88136e-16
2.88027e-16
2.87914e-16
2.87802e-16
2.87688e-16
2.87572e-16
2.87455e-16
2.87337e-16
2.87216e-16
2.87094e-16
2.86971e-16
2.86847e-16
2.86719e-16
2.8659e-16
2.86461e-16
2.86328e-16
2.86195e-16
2.86058e-16
2.8592e-16
2.85781e-16
2.85639e-16
2.85494e-16
2.85348e-16
2.852e-16
2.85049e-16
2.84896e-16
2.8474e-16
2.84582e-16
2.84421e-16
2.84257e-16
2.84091e-16
2.83922e-16
2.8375e-16
2.83575e-16
2.83397e-16
2.83216e-16
2.83031e-16
2.82843e-16
2.82651e-16
2.82456e-16
2.82257e-16
2.82053e-16
2.81846e-16
2.81635e-16
2.81419e-16
2.81198e-16
2.80972e-16
2.80742e-16
2.80506e-16
2.80265e-16
2.80019e-16
2.79766e-16
2.79508e-16
2.79243e-16
2.78972e-16
2.78693e-16
2.78408e-16
2.78115e-16
2.77814e-16
2.77506e-16
2.77188e-16
2.76862e-16
2.76527e-16
2.76181e-16
2.75826e-16
2.75459e-16
2.7508e-16
2.74689e-16
2.74284e-16
2.73864e-16
2.73428e-16
2.72974e-16
2.72502e-16
2.7201e-16
2.71497e-16
2.70958e-16
2.70387e-16
2.69551e-16
1.36451e-15
1.90472e-14
3.10698e-13
5.59937e-12
1.1217e-10
2.52422e-09
6.45431e-08
1.93313e-06
0.000139603
0.0208822
0.789325
8.13391
6.6935
5.98309
4.84021
3.78133
2.88076
2.14472
1.56087
1.1099
0.77054
0.522095
0.345394
0.223497
0.141982
0.089058
0.055549
0.0347383
0.0220233
0.0143752
0.0098074
0.00703932
0.00529729
0.0041457
0.00334672
0.00276858
0.00233528
0.0020009
0.00173646
0.00152296
0.0013475
0.00120108
0.00107726
0.000971312
0.000879724
0.000799822
0.000729544
0.000667284
0.000611767
0.000561976
0.000517089
0.000476433
0.000439456
0.0004057
0.000374781
0.000346375
0.000320206
0.000296038
0.000273666
0.00025291
0.000233613
0.000215637
0.000198859
0.000183176
0.0001685
0.000154619
0.000141372
0.000128744
0.000116728
0.000105324
9.454e-05
8.43887e-05
7.48842e-05
6.60382e-05
5.78625e-05
5.03627e-05
4.35451e-05
3.74077e-05
3.19261e-05
2.7067e-05
2.28042e-05
1.90977e-05
1.58926e-05
1.31385e-05
1.0789e-05
8.80389e-06
7.1353e-06
5.73607e-06
4.57575e-06
3.62e-06
2.83557e-06
2.19665e-06
1.68045e-06
1.2657e-06
9.36849e-07
6.75162e-07
4.76437e-07
3.23826e-07
2.07507e-07
9.84189e-08
0
0
0
0
0
0
0
0
0
0
0
0
0
0
0
0
0
0
0
0
0
0
0
0
0
0
0
0
0
0
0
0
0
0
0
0
0
0
0
0
0
0
0
0
0
0
0
0
0
0
0
0
0
0
0
0
0
0
0
0
0
0
0
0
0
0
0
0
0
0
0
0
0
0
0
0
0
0
0
0
0
0
0
0
0
0
0
0
0
0
0
0
0
0
0
0
0
0
0
0
0
0
0
0
0
0
0
0
0
0
0
0
0
0
0
0
0
0
0
0
0
0
0
0
)
;

boundaryField
{
    inandouthalf11
    {
        type            cyclic;
    }
    inandouthalf12
    {
        type            cyclic;
    }
    inandouthalf21
    {
        type            cyclic;
    }
    inandouthalf22
    {
        type            cyclic;
    }
    inandouthalf31
    {
        type            cyclic;
    }
    inandouthalf32
    {
        type            cyclic;
    }
    inandouthalf41
    {
        type            cyclic;
    }
    inandouthalf42
    {
        type            cyclic;
    }
    top
    {
        type            symmetryPlane;
    }
    walls
    {
        type            calculated;
        value           uniform 2.90253e-16;
    }
    frontAndBackPlanes
    {
        type            empty;
    }
}


// ************************************************************************* //
