/*--------------------------------*- C++ -*----------------------------------*\
| =========                 |                                                 |
| \\      /  F ield         | OpenFOAM: The Open Source CFD Toolbox           |
|  \\    /   O peration     | Version:  2.4.x                                 |
|   \\  /    A nd           | Web:      www.OpenFOAM.org                      |
|    \\/     M anipulation  |                                                 |
\*---------------------------------------------------------------------------*/
FoamFile
{
    version     2.0;
    format      ascii;
    class       surfaceScalarField;
    location    "8.1";
    object      phia;
}
// * * * * * * * * * * * * * * * * * * * * * * * * * * * * * * * * * * * * * //

dimensions      [0 3 -1 0 0 0 0];

internalField   nonuniform List<scalar> 
359
(
-1.60674e-13
-4.05767e-13
-6.34196e-13
-8.55139e-13
-1.08349e-12
-1.31786e-12
-1.55396e-12
-1.79007e-12
-2.02588e-12
-2.26142e-12
-2.49663e-12
-2.73121e-12
-2.96493e-12
-3.19758e-12
-3.42901e-12
-3.65919e-12
-3.88807e-12
-4.11561e-12
-4.34174e-12
-4.56651e-12
-4.78983e-12
-5.01177e-12
-5.23236e-12
-5.45161e-12
-5.6696e-12
-5.88635e-12
-6.10191e-12
-6.3164e-12
-6.52985e-12
-6.74234e-12
-6.95393e-12
-7.16474e-12
-7.37474e-12
-7.58414e-12
-7.79289e-12
-8.0011e-12
-8.2088e-12
-8.41607e-12
-8.62301e-12
-8.82953e-12
-9.03581e-12
-9.24182e-12
-9.44752e-12
-9.65307e-12
-9.8584e-12
-1.00636e-11
-1.02685e-11
-1.04733e-11
-1.06778e-11
-1.08822e-11
-1.10864e-11
-1.12903e-11
-1.1494e-11
-1.16975e-11
-1.19007e-11
-1.21036e-11
-1.23061e-11
-1.25082e-11
-1.27098e-11
-1.29109e-11
-1.31115e-11
-1.33115e-11
-1.3511e-11
-1.37098e-11
-1.3908e-11
-1.41054e-11
-1.4302e-11
-1.44977e-11
-1.46924e-11
-1.4886e-11
-1.50786e-11
-1.52701e-11
-1.54605e-11
-1.56497e-11
-1.58378e-11
-1.60246e-11
-1.62101e-11
-1.63941e-11
-1.65766e-11
-1.67575e-11
-1.69367e-11
-1.71143e-11
-1.72902e-11
-1.74644e-11
-1.76369e-11
-1.78078e-11
-1.79768e-11
-1.8144e-11
-1.83092e-11
-1.84724e-11
-1.86336e-11
-1.87926e-11
-1.89496e-11
-1.91045e-11
-1.92574e-11
-1.94082e-11
-1.95569e-11
-1.97036e-11
-1.98481e-11
-1.99906e-11
-2.01309e-11
-2.0269e-11
-2.0405e-11
-2.05388e-11
-2.06705e-11
-2.08e-11
-2.09274e-11
-2.10528e-11
-2.11763e-11
-2.12978e-11
-2.14175e-11
-2.15357e-11
-2.16524e-11
-2.17679e-11
-2.18823e-11
-2.19961e-11
-2.21094e-11
-2.22225e-11
-2.23357e-11
-2.24492e-11
-2.25634e-11
-2.26783e-11
-2.2794e-11
-2.29104e-11
-2.30274e-11
-2.31445e-11
-2.32615e-11
-2.33778e-11
-2.34926e-11
-2.36054e-11
-2.37151e-11
-2.3821e-11
-2.39223e-11
-2.40191e-11
-2.41113e-11
-2.41992e-11
-2.42831e-11
-2.43639e-11
-2.44427e-11
-2.45182e-11
-2.45835e-11
-2.46287e-11
-2.46537e-11
-2.46639e-11
-2.46665e-11
-2.4667e-11
6.0185e-12
3.38645e-09
9.60275e-09
1.38718e-08
1.70543e-08
1.97998e-08
2.23517e-08
2.48297e-08
2.72776e-08
2.96968e-08
3.20573e-08
3.43085e-08
3.63796e-08
3.81816e-08
3.96065e-08
4.05202e-08
4.07536e-08
4.01352e-08
3.86212e-08
3.63982e-08
3.37892e-08
3.10798e-08
2.84477e-08
2.59819e-08
2.37178e-08
2.16618e-08
1.98069e-08
1.81402e-08
1.6647e-08
1.53129e-08
1.4124e-08
1.30676e-08
1.21323e-08
1.13077e-08
1.05842e-08
9.95336e-09
9.40747e-09
8.93951e-09
8.54314e-09
8.21255e-09
7.94248e-09
7.72809e-09
7.56496e-09
7.44901e-09
7.3765e-09
7.34395e-09
7.34811e-09
7.38593e-09
7.45448e-09
7.55095e-09
7.67255e-09
7.81652e-09
7.98006e-09
8.16035e-09
8.35459e-09
8.56422e-09
8.78694e-09
9.02012e-09
9.26089e-09
9.50619e-09
9.75288e-09
9.9978e-09
1.02379e-08
1.04703e-08
1.06924e-08
1.09016e-08
1.10962e-08
1.12748e-08
1.14365e-08
1.15802e-08
1.17057e-08
1.18132e-08
1.19027e-08
1.19742e-08
1.20276e-08
1.20638e-08
1.20839e-08
1.20878e-08
1.20775e-08
1.2056e-08
1.20263e-08
1.19938e-08
1.1966e-08
1.19512e-08
1.19614e-08
1.19953e-08
1.20729e-08
1.21844e-08
1.24517e-08
1.267e-08
1.26691e-08
1.28165e-08
1.28609e-08
1.37941e-08
1.26613e-08
1.65807e-08
-6.0643e-09
-1.20739e-07
-1.58299e-07
-1.58246e-07
-1.58244e-07
-1.58232e-07
-1.58219e-07
-1.58204e-07
-1.58186e-07
-1.58165e-07
-1.58143e-07
-1.58119e-07
-1.58094e-07
-1.58073e-07
-1.58052e-07
-1.5803e-07
-1.58013e-07
-1.57998e-07
-1.57984e-07
-1.57966e-07
-1.57933e-07
-1.57904e-07
-1.579e-07
-1.579e-07
-1.579e-07
-1.579e-07
-1.579e-07
-1.579e-07
-1.579e-07
-1.579e-07
-1.579e-07
-1.579e-07
-1.579e-07
-1.579e-07
-1.579e-07
-1.579e-07
-1.579e-07
-1.579e-07
-1.579e-07
-1.579e-07
-1.579e-07
-1.579e-07
-1.579e-07
-1.579e-07
-1.579e-07
-1.579e-07
-1.579e-07
-1.579e-07
-1.579e-07
-1.579e-07
-1.579e-07
-1.579e-07
-1.579e-07
-1.579e-07
-1.579e-07
-1.579e-07
-1.579e-07
-1.579e-07
-1.579e-07
-1.579e-07
-1.579e-07
-1.579e-07
-1.579e-07
-1.579e-07
-1.579e-07
-1.579e-07
-1.579e-07
-1.579e-07
-1.579e-07
-1.579e-07
-1.579e-07
-1.579e-07
-1.579e-07
-1.579e-07
-1.579e-07
-1.579e-07
-1.579e-07
-1.579e-07
-1.579e-07
-1.579e-07
-1.579e-07
-1.579e-07
-1.579e-07
-1.579e-07
-1.579e-07
-1.579e-07
-1.579e-07
-1.579e-07
-1.579e-07
-1.579e-07
-1.579e-07
-1.579e-07
-1.579e-07
-1.579e-07
-1.579e-07
-1.579e-07
-1.579e-07
-1.579e-07
-1.579e-07
-1.579e-07
-1.579e-07
-1.579e-07
-1.579e-07
-1.579e-07
-1.579e-07
-1.579e-07
-1.579e-07
-1.579e-07
-1.579e-07
-1.579e-07
-1.579e-07
-1.579e-07
-1.579e-07
-1.579e-07
-1.57883e-07
-1.57173e-07
-1.32142e-07
)
;

boundaryField
{
    inandouthalf11
    {
        type            cyclic;
        value           nonuniform List<scalar> 
100
(
-1.6982e-38
-1.78305e-14
-3.72533e-14
-5.47188e-14
-7.24804e-14
-9.09655e-14
-1.0969e-13
-1.28384e-13
-1.46998e-13
-1.65532e-13
-1.8398e-13
-2.02331e-13
-2.20563e-13
-2.38659e-13
-2.56608e-13
-2.74403e-13
-2.92043e-13
-3.09525e-13
-3.26848e-13
-3.4401e-13
-3.61012e-13
-3.77856e-13
-3.94544e-13
-4.11081e-13
-4.27471e-13
-4.43719e-13
-4.5983e-13
-4.75809e-13
-4.91665e-13
-5.07401e-13
-5.23025e-13
-5.38543e-13
-5.5396e-13
-5.69282e-13
-5.84517e-13
-5.99668e-13
-6.14739e-13
-6.29737e-13
-6.44665e-13
-6.59528e-13
-6.74327e-13
-6.89067e-13
-7.03749e-13
-7.18375e-13
-7.32948e-13
-7.4747e-13
-7.6194e-13
-7.76355e-13
-7.90716e-13
-8.05028e-13
-8.19288e-13
-8.33494e-13
-8.47646e-13
-8.61743e-13
-8.75782e-13
-8.89761e-13
-9.03679e-13
-9.17531e-13
-9.31314e-13
-9.45023e-13
-9.58657e-13
-9.72216e-13
-9.85699e-13
-9.99103e-13
-1.01242e-12
-1.02566e-12
-1.0388e-12
-1.05184e-12
-1.06478e-12
-1.07761e-12
-1.09034e-12
-1.10296e-12
-1.11546e-12
-1.12785e-12
-1.14013e-12
-1.15229e-12
-1.16432e-12
-1.17623e-12
-1.188e-12
-1.19963e-12
-1.21112e-12
-1.22246e-12
-1.23366e-12
-1.24472e-12
-1.25563e-12
-1.26639e-12
-1.27701e-12
-1.28748e-12
-1.29779e-12
-1.30794e-12
-1.31793e-12
-1.32775e-12
-1.33741e-12
-1.34691e-12
-1.35624e-12
-1.36542e-12
-1.37443e-12
-1.38328e-12
-1.39197e-12
-1.4005e-12
)
;
    }
    inandouthalf12
    {
        type            cyclic;
        value           nonuniform List<scalar> 
100
(
1.6982e-38
1.78305e-14
3.72533e-14
5.47188e-14
7.24804e-14
9.09655e-14
1.0969e-13
1.28384e-13
1.46998e-13
1.65532e-13
1.8398e-13
2.02331e-13
2.20563e-13
2.38659e-13
2.56608e-13
2.74403e-13
2.92043e-13
3.09525e-13
3.26848e-13
3.4401e-13
3.61012e-13
3.77856e-13
3.94544e-13
4.11081e-13
4.27471e-13
4.43719e-13
4.5983e-13
4.75809e-13
4.91665e-13
5.07401e-13
5.23025e-13
5.38543e-13
5.5396e-13
5.69282e-13
5.84517e-13
5.99668e-13
6.14739e-13
6.29737e-13
6.44665e-13
6.59528e-13
6.74327e-13
6.89067e-13
7.03749e-13
7.18375e-13
7.32948e-13
7.4747e-13
7.6194e-13
7.76355e-13
7.90716e-13
8.05028e-13
8.19288e-13
8.33494e-13
8.47646e-13
8.61743e-13
8.75782e-13
8.89761e-13
9.03679e-13
9.17531e-13
9.31314e-13
9.45023e-13
9.58657e-13
9.72216e-13
9.85699e-13
9.99103e-13
1.01242e-12
1.02566e-12
1.0388e-12
1.05184e-12
1.06478e-12
1.07761e-12
1.09034e-12
1.10296e-12
1.11546e-12
1.12785e-12
1.14013e-12
1.15229e-12
1.16432e-12
1.17623e-12
1.188e-12
1.19963e-12
1.21112e-12
1.22246e-12
1.23366e-12
1.24472e-12
1.25563e-12
1.26639e-12
1.27701e-12
1.28748e-12
1.29779e-12
1.30794e-12
1.31793e-12
1.32775e-12
1.33741e-12
1.34691e-12
1.35624e-12
1.36542e-12
1.37443e-12
1.38328e-12
1.39197e-12
1.4005e-12
)
;
    }
    inandouthalf21
    {
        type            cyclic;
        value           nonuniform List<scalar> 
100
(
-1.40886e-12
-1.41706e-12
-1.4251e-12
-1.43297e-12
-1.44068e-12
-1.44823e-12
-1.45562e-12
-1.46285e-12
-1.46993e-12
-1.47685e-12
-1.48363e-12
-1.49028e-12
-1.49679e-12
-1.50318e-12
-1.50946e-12
-1.51564e-12
-1.52173e-12
-1.52774e-12
-1.53368e-12
-1.53955e-12
-1.54536e-12
-1.55112e-12
-1.5568e-12
-1.5624e-12
-1.5679e-12
-1.57327e-12
-1.57848e-12
-1.58349e-12
-1.58827e-12
-1.59277e-12
-1.59694e-12
-1.60074e-12
-1.60415e-12
-1.60715e-12
-1.60974e-12
-1.61193e-12
-1.6137e-12
-1.61508e-12
-1.61606e-12
-1.61661e-12
-1.61668e-12
-1.61638e-12
-1.61596e-12
-1.6157e-12
-1.61566e-12
-1.61573e-12
-1.616e-12
-6.83311e-09
-9.29467e-08
-2.21939e-07
-3.27373e-07
-4.14388e-07
-4.8771e-07
-5.50442e-07
-6.04626e-07
-6.51664e-07
-6.9254e-07
-7.27943e-07
-7.58356e-07
-7.84135e-07
-8.05585e-07
-8.23039e-07
-8.36909e-07
-8.477e-07
-8.55972e-07
-8.6227e-07
-8.67061e-07
-8.70702e-07
-8.73454e-07
-8.75503e-07
-8.76986e-07
-8.78006e-07
-8.78642e-07
-8.78955e-07
-8.78996e-07
-8.78806e-07
-8.78417e-07
-8.77859e-07
-8.77156e-07
-8.76328e-07
-8.75394e-07
-8.74369e-07
-8.73268e-07
-8.72103e-07
-8.70885e-07
-8.69625e-07
-8.6833e-07
-8.67011e-07
-8.65673e-07
-8.64324e-07
-8.62971e-07
-8.6162e-07
-8.60275e-07
-8.58942e-07
-8.57627e-07
-8.56333e-07
-8.55065e-07
-8.53827e-07
-8.52623e-07
-8.51456e-07
)
;
    }
    inandouthalf22
    {
        type            cyclic;
        value           nonuniform List<scalar> 
100
(
1.40886e-12
1.41706e-12
1.4251e-12
1.43297e-12
1.44068e-12
1.44823e-12
1.45562e-12
1.46285e-12
1.46993e-12
1.47685e-12
1.48363e-12
1.49028e-12
1.49679e-12
1.50318e-12
1.50946e-12
1.51564e-12
1.52173e-12
1.52774e-12
1.53368e-12
1.53955e-12
1.54536e-12
1.55112e-12
1.5568e-12
1.5624e-12
1.5679e-12
1.57327e-12
1.57848e-12
1.58349e-12
1.58827e-12
1.59277e-12
1.59694e-12
1.60074e-12
1.60415e-12
1.60715e-12
1.60974e-12
1.61193e-12
1.6137e-12
1.61508e-12
1.61606e-12
1.61661e-12
1.61668e-12
1.61638e-12
1.61596e-12
1.6157e-12
1.61566e-12
1.61573e-12
1.616e-12
6.83311e-09
9.29467e-08
2.21939e-07
3.27373e-07
4.14388e-07
4.8771e-07
5.50442e-07
6.04626e-07
6.51664e-07
6.9254e-07
7.27943e-07
7.58356e-07
7.84135e-07
8.05585e-07
8.23039e-07
8.36909e-07
8.477e-07
8.55972e-07
8.6227e-07
8.67061e-07
8.70702e-07
8.73454e-07
8.75503e-07
8.76986e-07
8.78006e-07
8.78642e-07
8.78955e-07
8.78996e-07
8.78806e-07
8.78417e-07
8.77859e-07
8.77156e-07
8.76328e-07
8.75394e-07
8.74369e-07
8.73268e-07
8.72103e-07
8.70885e-07
8.69625e-07
8.6833e-07
8.67011e-07
8.65673e-07
8.64324e-07
8.62971e-07
8.6162e-07
8.60275e-07
8.58942e-07
8.57627e-07
8.56333e-07
8.55065e-07
8.53827e-07
8.52623e-07
8.51456e-07
)
;
    }
    inandouthalf31
    {
        type            cyclic;
        value           nonuniform List<scalar> 
110
(
-8.50333e-07
-8.66478e-07
-8.82952e-07
-8.99762e-07
-9.16918e-07
-9.34428e-07
-9.52299e-07
-9.70542e-07
-9.89163e-07
-1.00817e-06
-1.02758e-06
-1.04739e-06
-1.06761e-06
-1.08826e-06
-1.10933e-06
-1.13084e-06
-1.1528e-06
-1.17521e-06
-1.19809e-06
-1.22144e-06
-1.24527e-06
-1.26959e-06
-1.2944e-06
-1.31973e-06
-1.34558e-06
-1.37196e-06
-1.39889e-06
-1.42638e-06
-1.45444e-06
-1.48309e-06
-1.51236e-06
-1.54226e-06
-1.57283e-06
-1.6041e-06
-1.63613e-06
-1.66896e-06
-1.7025e-06
-1.68032e-06
-1.70687e-06
-1.73511e-06
-1.76411e-06
-1.79317e-06
-1.82428e-06
-1.85521e-06
-1.8895e-06
-1.92093e-06
-1.95388e-06
-1.98762e-06
-2.02232e-06
-2.05804e-06
-2.0949e-06
-2.133e-06
-2.17246e-06
-2.21338e-06
-2.25587e-06
-2.30007e-06
-2.34608e-06
-2.39375e-06
-2.44327e-06
-2.49452e-06
-2.54738e-06
-2.60164e-06
-2.65695e-06
-2.71215e-06
-2.7674e-06
-2.82358e-06
-2.88089e-06
-2.93936e-06
-2.99902e-06
-3.0599e-06
-3.122e-06
-3.18537e-06
-3.25003e-06
-3.31599e-06
-3.3833e-06
-3.45197e-06
-3.52204e-06
-3.59353e-06
-3.66647e-06
-3.74088e-06
-3.81681e-06
-3.89429e-06
-3.97333e-06
-4.05398e-06
-4.13626e-06
-4.22022e-06
-4.30588e-06
-4.39327e-06
-4.48245e-06
-4.57343e-06
-4.66626e-06
-4.76097e-06
-4.8576e-06
-4.9562e-06
-5.0568e-06
-5.15944e-06
-5.26416e-06
-5.37101e-06
-5.48003e-06
-5.59126e-06
-5.70474e-06
-5.82053e-06
-5.93868e-06
-6.05921e-06
-6.1822e-06
-6.30768e-06
-6.43571e-06
-6.56634e-06
-6.69962e-06
-6.8356e-06
)
;
    }
    inandouthalf32
    {
        type            cyclic;
        value           nonuniform List<scalar> 
110
(
8.50333e-07
8.66478e-07
8.82952e-07
8.99762e-07
9.16918e-07
9.34428e-07
9.52299e-07
9.70542e-07
9.89163e-07
1.00817e-06
1.02758e-06
1.04739e-06
1.06761e-06
1.08826e-06
1.10933e-06
1.13084e-06
1.1528e-06
1.17521e-06
1.19809e-06
1.22144e-06
1.24527e-06
1.26959e-06
1.2944e-06
1.31973e-06
1.34558e-06
1.37196e-06
1.39889e-06
1.42638e-06
1.45444e-06
1.48309e-06
1.51236e-06
1.54226e-06
1.57283e-06
1.6041e-06
1.63613e-06
1.66896e-06
1.7025e-06
1.68032e-06
1.70687e-06
1.73511e-06
1.76411e-06
1.79317e-06
1.82428e-06
1.85521e-06
1.8895e-06
1.92093e-06
1.95388e-06
1.98762e-06
2.02232e-06
2.05804e-06
2.0949e-06
2.133e-06
2.17246e-06
2.21338e-06
2.25587e-06
2.30007e-06
2.34608e-06
2.39375e-06
2.44327e-06
2.49452e-06
2.54738e-06
2.60164e-06
2.65695e-06
2.71215e-06
2.7674e-06
2.82358e-06
2.88089e-06
2.93936e-06
2.99902e-06
3.0599e-06
3.122e-06
3.18537e-06
3.25003e-06
3.31599e-06
3.3833e-06
3.45197e-06
3.52204e-06
3.59353e-06
3.66647e-06
3.74088e-06
3.81681e-06
3.89429e-06
3.97333e-06
4.05398e-06
4.13626e-06
4.22022e-06
4.30588e-06
4.39327e-06
4.48245e-06
4.57343e-06
4.66626e-06
4.76097e-06
4.8576e-06
4.9562e-06
5.0568e-06
5.15944e-06
5.26416e-06
5.37101e-06
5.48003e-06
5.59126e-06
5.70474e-06
5.82053e-06
5.93868e-06
6.05921e-06
6.1822e-06
6.30768e-06
6.43571e-06
6.56634e-06
6.69962e-06
6.8356e-06
)
;
    }
    inandouthalf41
    {
        type            cyclic;
        value           nonuniform List<scalar> 
50
(
-6.11856e-06
-6.11856e-06
-6.11856e-06
-6.11856e-06
-6.11856e-06
-6.11856e-06
-6.11856e-06
-6.11856e-06
-6.11856e-06
-6.11856e-06
-6.11856e-06
-6.11856e-06
-6.11856e-06
-6.11856e-06
-6.11856e-06
-6.11856e-06
-6.11856e-06
-6.11856e-06
-6.11856e-06
-6.11856e-06
-6.11856e-06
-6.11856e-06
-6.11856e-06
-6.11856e-06
-6.11856e-06
-6.11856e-06
-6.11856e-06
-6.11856e-06
-6.11856e-06
-6.11856e-06
-6.11856e-06
-6.11856e-06
-6.11856e-06
-6.11856e-06
-6.11856e-06
-6.11856e-06
-6.11856e-06
-6.11856e-06
-6.11856e-06
-6.11856e-06
-6.11856e-06
-6.11856e-06
-6.11856e-06
-6.11856e-06
-6.11856e-06
-6.11856e-06
-6.11856e-06
-6.11855e-06
-6.11828e-06
-6.11192e-06
)
;
    }
    inandouthalf42
    {
        type            cyclic;
        value           nonuniform List<scalar> 
50
(
6.11856e-06
6.11856e-06
6.11856e-06
6.11856e-06
6.11856e-06
6.11856e-06
6.11856e-06
6.11856e-06
6.11856e-06
6.11856e-06
6.11856e-06
6.11856e-06
6.11856e-06
6.11856e-06
6.11856e-06
6.11856e-06
6.11856e-06
6.11856e-06
6.11856e-06
6.11856e-06
6.11856e-06
6.11856e-06
6.11856e-06
6.11856e-06
6.11856e-06
6.11856e-06
6.11856e-06
6.11856e-06
6.11856e-06
6.11856e-06
6.11856e-06
6.11856e-06
6.11856e-06
6.11856e-06
6.11856e-06
6.11856e-06
6.11856e-06
6.11856e-06
6.11856e-06
6.11856e-06
6.11856e-06
6.11856e-06
6.11856e-06
6.11856e-06
6.11856e-06
6.11856e-06
6.11856e-06
6.11855e-06
6.11828e-06
6.11192e-06
)
;
    }
    top
    {
        type            symmetryPlane;
        value           uniform 0;
    }
    walls
    {
        type            fixedValue;
        value           uniform 0;
    }
    frontAndBackPlanes
    {
        type            empty;
        value           nonuniform 0();
    }
}


// ************************************************************************* //
