/*--------------------------------*- C++ -*----------------------------------*\
| =========                 |                                                 |
| \\      /  F ield         | OpenFOAM: The Open Source CFD Toolbox           |
|  \\    /   O peration     | Version:  2.4.x                                 |
|   \\  /    A nd           | Web:      www.OpenFOAM.org                      |
|    \\/     M anipulation  |                                                 |
\*---------------------------------------------------------------------------*/
FoamFile
{
    version     2.0;
    format      ascii;
    class       surfaceScalarField;
    location    "8.1";
    object      phib;
}
// * * * * * * * * * * * * * * * * * * * * * * * * * * * * * * * * * * * * * //

dimensions      [0 3 -1 0 0 0 0];

internalField   nonuniform List<scalar> 
359
(
2.5264e-13
6.39275e-13
9.99176e-13
1.3469e-12
1.70636e-12
2.07531e-12
2.4469e-12
2.81842e-12
3.18937e-12
3.55985e-12
3.92971e-12
4.29852e-12
4.6659e-12
5.0315e-12
5.39512e-12
5.75669e-12
6.11613e-12
6.47337e-12
6.82834e-12
7.18107e-12
7.53145e-12
7.87958e-12
8.22548e-12
8.56922e-12
8.91086e-12
9.25049e-12
9.58817e-12
9.92406e-12
1.02583e-11
1.05908e-11
1.09219e-11
1.12517e-11
1.15801e-11
1.19074e-11
1.22337e-11
1.2559e-11
1.28834e-11
1.3207e-11
1.35301e-11
1.38523e-11
1.41741e-11
1.44953e-11
1.4816e-11
1.51363e-11
1.54562e-11
1.57756e-11
1.60948e-11
1.64133e-11
1.67314e-11
1.70493e-11
1.73666e-11
1.76836e-11
1.79999e-11
1.83159e-11
1.86311e-11
1.89459e-11
1.92598e-11
1.9573e-11
1.98854e-11
2.01967e-11
2.05071e-11
2.08165e-11
2.11248e-11
2.14321e-11
2.17381e-11
2.20428e-11
2.2346e-11
2.26477e-11
2.29477e-11
2.32458e-11
2.35421e-11
2.38366e-11
2.41291e-11
2.44197e-11
2.47082e-11
2.49946e-11
2.52788e-11
2.55604e-11
2.58395e-11
2.61159e-11
2.63895e-11
2.66603e-11
2.69282e-11
2.71934e-11
2.74557e-11
2.7715e-11
2.79714e-11
2.82246e-11
2.84745e-11
2.87211e-11
2.89642e-11
2.92038e-11
2.94399e-11
2.96725e-11
2.99016e-11
3.01272e-11
3.03493e-11
3.05679e-11
3.07829e-11
3.09943e-11
3.1202e-11
3.14061e-11
3.16064e-11
3.18031e-11
3.1996e-11
3.21852e-11
3.23708e-11
3.25528e-11
3.27313e-11
3.29064e-11
3.30783e-11
3.32473e-11
3.34135e-11
3.35773e-11
3.3739e-11
3.38991e-11
3.40578e-11
3.42156e-11
3.4373e-11
3.45303e-11
3.46877e-11
3.48456e-11
3.50039e-11
3.51624e-11
3.53209e-11
3.54788e-11
3.56354e-11
3.57898e-11
3.59408e-11
3.60873e-11
3.62279e-11
3.63611e-11
3.64859e-11
3.66016e-11
3.67085e-11
3.68067e-11
3.68968e-11
3.69788e-11
3.70524e-11
3.71156e-11
3.7162e-11
3.71738e-11
3.71408e-11
3.70667e-11
3.6926e-11
3.66626e-11
-8.51517e-12
-2.81172e-09
-3.7792e-09
-3.70058e-09
-3.55168e-09
-3.29041e-09
-2.95573e-09
-2.58226e-09
-2.19623e-09
-1.81828e-09
-1.4642e-09
-1.14562e-09
-8.70033e-10
-6.40944e-10
-4.58119e-10
-3.18036e-10
-2.14833e-10
-1.41787e-10
-9.24236e-11
-6.06355e-11
-4.08006e-11
-2.84271e-11
-2.05016e-11
-1.52312e-11
-1.15946e-11
-9.00383e-12
-7.10815e-12
-5.69022e-12
-4.61014e-12
-3.77491e-12
-3.12078e-12
-2.60301e-12
-2.18943e-12
-1.85649e-12
-1.58665e-12
-1.36663e-12
-1.18628e-12
-1.03773e-12
-9.14804e-13
-8.12641e-13
-7.27362e-13
-6.55862e-13
-5.95634e-13
-5.44646e-13
-5.0124e-13
-4.64058e-13
-4.31982e-13
-4.04086e-13
-3.79598e-13
-3.57872e-13
-3.38367e-13
-3.20624e-13
-3.04258e-13
-2.88952e-13
-2.7445e-13
-2.60272e-13
-2.46272e-13
-2.32329e-13
-2.18359e-13
-2.04319e-13
-1.90212e-13
-1.76075e-13
-1.61981e-13
-1.48029e-13
-1.34339e-13
-1.21048e-13
-1.08304e-13
-9.62313e-14
-8.49127e-14
-7.44224e-14
-6.4823e-14
-5.61229e-14
-4.8295e-14
-4.13086e-14
-3.51334e-14
-2.97242e-14
-2.50056e-14
-2.09152e-14
-1.74055e-14
-1.44101e-14
-1.18658e-14
-9.72139e-15
-7.92555e-15
-6.43341e-15
-5.19623e-15
-4.1875e-15
-3.39115e-15
-2.75813e-15
-2.12557e-15
-1.4966e-15
-1.07124e-15
-7.85084e-16
-5.44956e-16
-3.87509e-16
-2.13193e-16
-1.51331e-16
2.91031e-17
7.61541e-18
7.38611e-18
7.16496e-18
6.92915e-18
6.70336e-18
6.46129e-18
6.22647e-18
5.97514e-18
5.73073e-18
5.47078e-18
5.21426e-18
4.94467e-18
4.67813e-18
4.40298e-18
4.13169e-18
3.85573e-18
3.58337e-18
3.31517e-18
3.05759e-18
2.81549e-18
2.59469e-18
2.40076e-18
2.23175e-18
2.10539e-18
1.97829e-18
1.86535e-18
1.76315e-18
1.67155e-18
1.58842e-18
1.5133e-18
1.44637e-18
1.38313e-18
1.3209e-18
1.26106e-18
1.20051e-18
1.14201e-18
1.08663e-18
1.03786e-18
9.91299e-19
9.46074e-19
8.96192e-19
8.49215e-19
7.94949e-19
7.19253e-19
6.5799e-19
6.0336e-19
5.42166e-19
4.79589e-19
4.07822e-19
3.37815e-19
2.66538e-19
2.00576e-19
1.74227e-19
1.26941e-19
1.25178e-19
1.32307e-19
1.23112e-19
1.36522e-19
1.42152e-19
1.49969e-19
1.49573e-19
1.65623e-19
1.70689e-19
1.77654e-19
1.66102e-19
1.68469e-19
1.52912e-19
1.40507e-19
1.22213e-19
1.19759e-19
1.1403e-19
1.10143e-19
9.77876e-20
9.20363e-20
7.75267e-20
6.37028e-20
4.30117e-20
3.48053e-20
1.85007e-20
2.42778e-21
-2.49097e-20
-4.26197e-20
-7.48706e-20
-1.05313e-19
-1.45118e-19
-1.56635e-19
-1.92172e-19
-2.26863e-19
-3.14806e-19
-3.48143e-19
-4.71083e-19
-5.86373e-19
-7.86041e-19
-8.03867e-19
-9.62315e-19
-1.11752e-18
-1.48915e-18
-1.68473e-18
-2.16094e-18
-2.63016e-18
-3.3381e-18
-3.71017e-18
-4.41816e-18
-5.13251e-18
-6.28667e-18
-7.26265e-18
-8.58376e-18
-1.00371e-17
-1.17578e-17
-1.47254e-17
-1.72236e-17
-1.99217e-17
-2.08528e-17
-2.54067e-17
-2.44928e-17
-2.27033e-17
)
;

boundaryField
{
    inandouthalf11
    {
        type            cyclic;
        value           nonuniform List<scalar> 
100
(
-2.65581e-10
-2.64182e-10
-2.63989e-10
-2.642e-10
-2.64316e-10
-2.64369e-10
-2.64427e-10
-2.64495e-10
-2.64565e-10
-2.64635e-10
-2.64706e-10
-2.64777e-10
-2.64848e-10
-2.64919e-10
-2.64991e-10
-2.65063e-10
-2.65135e-10
-2.65208e-10
-2.65281e-10
-2.65354e-10
-2.65427e-10
-2.65501e-10
-2.65576e-10
-2.6565e-10
-2.65726e-10
-2.65801e-10
-2.65877e-10
-2.65953e-10
-2.6603e-10
-2.66107e-10
-2.66185e-10
-2.66264e-10
-2.66342e-10
-2.66422e-10
-2.66501e-10
-2.66582e-10
-2.66663e-10
-2.66745e-10
-2.66828e-10
-2.6691e-10
-2.66994e-10
-2.67079e-10
-2.67163e-10
-2.6725e-10
-2.67336e-10
-2.67424e-10
-2.67512e-10
-2.676e-10
-2.6769e-10
-2.67782e-10
-2.67872e-10
-2.67965e-10
-2.68058e-10
-2.68153e-10
-2.68247e-10
-2.68344e-10
-2.6844e-10
-2.68538e-10
-2.68637e-10
-2.68737e-10
-2.68838e-10
-2.6894e-10
-2.69043e-10
-2.69147e-10
-2.69253e-10
-2.69359e-10
-2.69467e-10
-2.69576e-10
-2.69686e-10
-2.69797e-10
-2.6991e-10
-2.70025e-10
-2.70139e-10
-2.70257e-10
-2.70375e-10
-2.70495e-10
-2.70616e-10
-2.70739e-10
-2.70863e-10
-2.7099e-10
-2.71117e-10
-2.71247e-10
-2.71378e-10
-2.71512e-10
-2.71647e-10
-2.71784e-10
-2.71924e-10
-2.72065e-10
-2.72209e-10
-2.72355e-10
-2.72503e-10
-2.72653e-10
-2.72807e-10
-2.72962e-10
-2.73121e-10
-2.73283e-10
-2.73447e-10
-2.73615e-10
-2.73785e-10
-2.73959e-10
)
;
    }
    inandouthalf12
    {
        type            cyclic;
        value           nonuniform List<scalar> 
100
(
2.65581e-10
2.64182e-10
2.63989e-10
2.642e-10
2.64316e-10
2.64369e-10
2.64427e-10
2.64495e-10
2.64565e-10
2.64635e-10
2.64706e-10
2.64777e-10
2.64848e-10
2.64919e-10
2.64991e-10
2.65063e-10
2.65135e-10
2.65208e-10
2.65281e-10
2.65354e-10
2.65427e-10
2.65501e-10
2.65576e-10
2.6565e-10
2.65726e-10
2.65801e-10
2.65877e-10
2.65953e-10
2.6603e-10
2.66107e-10
2.66185e-10
2.66264e-10
2.66342e-10
2.66422e-10
2.66501e-10
2.66582e-10
2.66663e-10
2.66745e-10
2.66828e-10
2.6691e-10
2.66994e-10
2.67079e-10
2.67163e-10
2.6725e-10
2.67336e-10
2.67424e-10
2.67512e-10
2.676e-10
2.6769e-10
2.67782e-10
2.67872e-10
2.67965e-10
2.68058e-10
2.68153e-10
2.68247e-10
2.68344e-10
2.6844e-10
2.68538e-10
2.68637e-10
2.68737e-10
2.68838e-10
2.6894e-10
2.69043e-10
2.69147e-10
2.69253e-10
2.69359e-10
2.69467e-10
2.69576e-10
2.69686e-10
2.69797e-10
2.6991e-10
2.70025e-10
2.70139e-10
2.70257e-10
2.70375e-10
2.70495e-10
2.70616e-10
2.70739e-10
2.70863e-10
2.7099e-10
2.71117e-10
2.71247e-10
2.71378e-10
2.71512e-10
2.71647e-10
2.71784e-10
2.71924e-10
2.72065e-10
2.72209e-10
2.72355e-10
2.72503e-10
2.72653e-10
2.72807e-10
2.72962e-10
2.73121e-10
2.73283e-10
2.73447e-10
2.73615e-10
2.73785e-10
2.73959e-10
)
;
    }
    inandouthalf21
    {
        type            cyclic;
        value           nonuniform List<scalar> 
100
(
-2.74137e-10
-2.74318e-10
-2.74502e-10
-2.74691e-10
-2.74884e-10
-2.75081e-10
-2.75282e-10
-2.75488e-10
-2.75699e-10
-2.75915e-10
-2.76136e-10
-2.76363e-10
-2.76596e-10
-2.76835e-10
-2.7708e-10
-2.77332e-10
-2.77591e-10
-2.77857e-10
-2.78131e-10
-2.78414e-10
-2.78704e-10
-2.79004e-10
-2.79314e-10
-2.79633e-10
-2.79963e-10
-2.80305e-10
-2.80659e-10
-2.81027e-10
-2.8141e-10
-2.81808e-10
-2.82224e-10
-2.82657e-10
-2.83111e-10
-2.83588e-10
-2.84095e-10
-2.8463e-10
-2.85191e-10
-2.85786e-10
-2.86445e-10
-2.872e-10
-2.8802e-10
-2.88812e-10
-2.89767e-10
-2.91004e-10
-2.92554e-10
-2.9557e-10
-3.10256e-10
-7.66448e-09
-1.04943e-07
-2.38122e-07
-3.42052e-07
-4.27608e-07
-5.00032e-07
-5.62325e-07
-6.16482e-07
-6.63912e-07
-7.0564e-07
-7.42419e-07
-7.74796e-07
-8.03148e-07
-8.27721e-07
-8.48669e-07
-8.66112e-07
-8.80213e-07
-8.91245e-07
-8.99614e-07
-9.05805e-07
-9.10306e-07
-9.13537e-07
-9.15826e-07
-9.17419e-07
-9.18489e-07
-9.19161e-07
-9.19522e-07
-9.19636e-07
-9.19549e-07
-9.19296e-07
-9.18902e-07
-9.18388e-07
-9.1777e-07
-9.17059e-07
-9.16266e-07
-9.154e-07
-9.14468e-07
-9.13475e-07
-9.12428e-07
-9.1133e-07
-9.10185e-07
-9.08998e-07
-9.07772e-07
-9.06509e-07
-9.05212e-07
-9.03884e-07
-9.02527e-07
-9.01143e-07
-8.99735e-07
-8.98304e-07
-8.96852e-07
-8.95381e-07
-8.93893e-07
)
;
    }
    inandouthalf22
    {
        type            cyclic;
        value           nonuniform List<scalar> 
100
(
2.74137e-10
2.74318e-10
2.74502e-10
2.74691e-10
2.74884e-10
2.75081e-10
2.75282e-10
2.75488e-10
2.75699e-10
2.75915e-10
2.76136e-10
2.76363e-10
2.76596e-10
2.76835e-10
2.7708e-10
2.77332e-10
2.77591e-10
2.77857e-10
2.78131e-10
2.78414e-10
2.78704e-10
2.79004e-10
2.79314e-10
2.79633e-10
2.79963e-10
2.80305e-10
2.80659e-10
2.81027e-10
2.8141e-10
2.81808e-10
2.82224e-10
2.82657e-10
2.83111e-10
2.83588e-10
2.84095e-10
2.8463e-10
2.85191e-10
2.85786e-10
2.86445e-10
2.872e-10
2.8802e-10
2.88812e-10
2.89767e-10
2.91004e-10
2.92554e-10
2.9557e-10
3.10256e-10
7.66448e-09
1.04943e-07
2.38122e-07
3.42052e-07
4.27608e-07
5.00032e-07
5.62325e-07
6.16482e-07
6.63912e-07
7.0564e-07
7.42419e-07
7.74796e-07
8.03148e-07
8.27721e-07
8.48669e-07
8.66112e-07
8.80213e-07
8.91245e-07
8.99614e-07
9.05805e-07
9.10306e-07
9.13537e-07
9.15826e-07
9.17419e-07
9.18489e-07
9.19161e-07
9.19522e-07
9.19636e-07
9.19549e-07
9.19296e-07
9.18902e-07
9.18388e-07
9.1777e-07
9.17059e-07
9.16266e-07
9.154e-07
9.14468e-07
9.13475e-07
9.12428e-07
9.1133e-07
9.10185e-07
9.08998e-07
9.07772e-07
9.06509e-07
9.05212e-07
9.03884e-07
9.02527e-07
9.01143e-07
8.99735e-07
8.98304e-07
8.96852e-07
8.95381e-07
8.93893e-07
)
;
    }
    inandouthalf31
    {
        type            cyclic;
        value           nonuniform List<scalar> 
110
(
-8.92391e-07
-9.08937e-07
-9.2574e-07
-9.42801e-07
-9.60123e-07
-9.77708e-07
-9.95556e-07
-1.01367e-06
-1.03206e-06
-1.05071e-06
-1.06964e-06
-1.08884e-06
-1.10831e-06
-1.12807e-06
-1.1481e-06
-1.16842e-06
-1.18903e-06
-1.20992e-06
-1.2311e-06
-1.25257e-06
-1.27434e-06
-1.29641e-06
-1.31878e-06
-1.34146e-06
-1.36444e-06
-1.38774e-06
-1.41136e-06
-1.43531e-06
-1.45959e-06
-1.4842e-06
-1.50916e-06
-1.53448e-06
-1.56016e-06
-1.58621e-06
-1.61266e-06
-1.63951e-06
-1.66677e-06
-1.69448e-06
-1.72264e-06
-1.75129e-06
-1.78045e-06
-1.81015e-06
-1.84044e-06
-1.87134e-06
-1.90291e-06
-1.93521e-06
-1.96828e-06
-2.00222e-06
-2.03708e-06
-2.07297e-06
-2.10998e-06
-2.14822e-06
-2.1878e-06
-2.22884e-06
-2.27145e-06
-2.31575e-06
-2.3618e-06
-2.40966e-06
-2.45934e-06
-2.51078e-06
-2.56388e-06
-2.61845e-06
-2.67416e-06
-2.73003e-06
-2.78571e-06
-2.84226e-06
-2.89995e-06
-2.95881e-06
-3.01887e-06
-3.08014e-06
-3.14266e-06
-3.20645e-06
-3.27153e-06
-3.33793e-06
-3.40569e-06
-3.47481e-06
-3.54534e-06
-3.6173e-06
-3.69072e-06
-3.76564e-06
-3.84207e-06
-3.92005e-06
-3.99962e-06
-4.0808e-06
-4.16363e-06
-4.24814e-06
-4.33437e-06
-4.42234e-06
-4.5121e-06
-4.60369e-06
-4.69713e-06
-4.79247e-06
-4.88974e-06
-4.98899e-06
-5.09026e-06
-5.19357e-06
-5.29899e-06
-5.40655e-06
-5.51628e-06
-5.62825e-06
-5.74249e-06
-5.85905e-06
-5.97797e-06
-6.09931e-06
-6.22311e-06
-6.34942e-06
-6.47829e-06
-6.60979e-06
-6.74395e-06
-6.88083e-06
)
;
    }
    inandouthalf32
    {
        type            cyclic;
        value           nonuniform List<scalar> 
110
(
8.92391e-07
9.08937e-07
9.2574e-07
9.42801e-07
9.60123e-07
9.77708e-07
9.95556e-07
1.01367e-06
1.03206e-06
1.05071e-06
1.06964e-06
1.08884e-06
1.10831e-06
1.12807e-06
1.1481e-06
1.16842e-06
1.18903e-06
1.20992e-06
1.2311e-06
1.25257e-06
1.27434e-06
1.29641e-06
1.31878e-06
1.34146e-06
1.36444e-06
1.38774e-06
1.41136e-06
1.43531e-06
1.45959e-06
1.4842e-06
1.50916e-06
1.53448e-06
1.56016e-06
1.58621e-06
1.61266e-06
1.63951e-06
1.66677e-06
1.69448e-06
1.72264e-06
1.75129e-06
1.78045e-06
1.81015e-06
1.84044e-06
1.87134e-06
1.90291e-06
1.93521e-06
1.96828e-06
2.00222e-06
2.03708e-06
2.07297e-06
2.10998e-06
2.14822e-06
2.1878e-06
2.22884e-06
2.27145e-06
2.31575e-06
2.3618e-06
2.40966e-06
2.45934e-06
2.51078e-06
2.56388e-06
2.61845e-06
2.67416e-06
2.73003e-06
2.78571e-06
2.84226e-06
2.89995e-06
2.95881e-06
3.01887e-06
3.08014e-06
3.14266e-06
3.20645e-06
3.27153e-06
3.33793e-06
3.40569e-06
3.47481e-06
3.54534e-06
3.6173e-06
3.69072e-06
3.76564e-06
3.84207e-06
3.92005e-06
3.99962e-06
4.0808e-06
4.16363e-06
4.24814e-06
4.33437e-06
4.42234e-06
4.5121e-06
4.60369e-06
4.69713e-06
4.79247e-06
4.88974e-06
4.98899e-06
5.09026e-06
5.19357e-06
5.29899e-06
5.40655e-06
5.51628e-06
5.62825e-06
5.74249e-06
5.85905e-06
5.97797e-06
6.09931e-06
6.22311e-06
6.34942e-06
6.47829e-06
6.60979e-06
6.74395e-06
6.88083e-06
)
;
    }
    inandouthalf41
    {
        type            cyclic;
        value           nonuniform List<scalar> 
50
(
-6.15905e-06
-6.15905e-06
-6.15905e-06
-6.15905e-06
-6.15905e-06
-6.15905e-06
-6.15905e-06
-6.15905e-06
-6.15905e-06
-6.15905e-06
-6.15905e-06
-6.15905e-06
-6.15905e-06
-6.15905e-06
-6.15905e-06
-6.15905e-06
-6.15905e-06
-6.15905e-06
-6.15905e-06
-6.15905e-06
-6.15905e-06
-6.15905e-06
-6.15905e-06
-6.15905e-06
-6.15905e-06
-6.15905e-06
-6.15905e-06
-6.15905e-06
-6.15905e-06
-6.15905e-06
-6.15905e-06
-6.15905e-06
-6.15905e-06
-6.15905e-06
-6.15905e-06
-6.15905e-06
-6.15905e-06
-6.15905e-06
-6.15905e-06
-6.15905e-06
-6.15905e-06
-6.15905e-06
-6.15905e-06
-6.15905e-06
-6.15905e-06
-6.15905e-06
-6.15905e-06
-6.15905e-06
-6.15905e-06
-6.15905e-06
)
;
    }
    inandouthalf42
    {
        type            cyclic;
        value           nonuniform List<scalar> 
50
(
6.15905e-06
6.15905e-06
6.15905e-06
6.15905e-06
6.15905e-06
6.15905e-06
6.15905e-06
6.15905e-06
6.15905e-06
6.15905e-06
6.15905e-06
6.15905e-06
6.15905e-06
6.15905e-06
6.15905e-06
6.15905e-06
6.15905e-06
6.15905e-06
6.15905e-06
6.15905e-06
6.15905e-06
6.15905e-06
6.15905e-06
6.15905e-06
6.15905e-06
6.15905e-06
6.15905e-06
6.15905e-06
6.15905e-06
6.15905e-06
6.15905e-06
6.15905e-06
6.15905e-06
6.15905e-06
6.15905e-06
6.15905e-06
6.15905e-06
6.15905e-06
6.15905e-06
6.15905e-06
6.15905e-06
6.15905e-06
6.15905e-06
6.15905e-06
6.15905e-06
6.15905e-06
6.15905e-06
6.15905e-06
6.15905e-06
6.15905e-06
)
;
    }
    top
    {
        type            symmetryPlane;
        value           uniform 0;
    }
    walls
    {
        type            fixedValue;
        value           uniform 0;
    }
    frontAndBackPlanes
    {
        type            empty;
        value           nonuniform 0();
    }
}


// ************************************************************************* //
