/*--------------------------------*- C++ -*----------------------------------*\
| =========                 |                                                 |
| \\      /  F ield         | OpenFOAM: The Open Source CFD Toolbox           |
|  \\    /   O peration     | Version:  2.4.x                                 |
|   \\  /    A nd           | Web:      www.OpenFOAM.org                      |
|    \\/     M anipulation  |                                                 |
\*---------------------------------------------------------------------------*/
FoamFile
{
    version     2.0;
    format      ascii;
    class       surfaceScalarField;
    location    "8.1";
    object      phib_0;
}
// * * * * * * * * * * * * * * * * * * * * * * * * * * * * * * * * * * * * * //

dimensions      [0 3 -1 0 0 0 0];

internalField   nonuniform List<scalar> 
359
(
2.52669e-13
6.39348e-13
9.99288e-13
1.34704e-12
1.70654e-12
2.07552e-12
2.44714e-12
2.81869e-12
3.18967e-12
3.56017e-12
3.93006e-12
4.29889e-12
4.6663e-12
5.03192e-12
5.39557e-12
5.75716e-12
6.11662e-12
6.47388e-12
6.82887e-12
7.18162e-12
7.53202e-12
7.88017e-12
8.2261e-12
8.56986e-12
8.91153e-12
9.25119e-12
9.58889e-12
9.92481e-12
1.0259e-11
1.05916e-11
1.09227e-11
1.12525e-11
1.1581e-11
1.19084e-11
1.22346e-11
1.256e-11
1.28844e-11
1.32081e-11
1.35312e-11
1.38535e-11
1.41753e-11
1.44966e-11
1.48173e-11
1.51376e-11
1.54575e-11
1.5777e-11
1.60962e-11
1.64148e-11
1.6733e-11
1.70509e-11
1.73683e-11
1.76852e-11
1.80016e-11
1.83176e-11
1.86329e-11
1.89477e-11
1.92617e-11
1.95749e-11
1.98873e-11
2.01987e-11
2.05092e-11
2.08186e-11
2.1127e-11
2.14343e-11
2.17404e-11
2.20451e-11
2.23484e-11
2.26501e-11
2.29501e-11
2.32482e-11
2.35446e-11
2.38392e-11
2.41317e-11
2.44224e-11
2.47109e-11
2.49974e-11
2.52816e-11
2.55633e-11
2.58424e-11
2.61188e-11
2.63924e-11
2.66633e-11
2.69313e-11
2.71965e-11
2.74588e-11
2.77182e-11
2.79746e-11
2.82278e-11
2.84778e-11
2.87244e-11
2.89676e-11
2.92073e-11
2.94434e-11
2.9676e-11
2.99052e-11
3.01308e-11
3.03529e-11
3.05716e-11
3.07866e-11
3.0998e-11
3.12058e-11
3.14099e-11
3.16102e-11
3.18069e-11
3.19998e-11
3.21891e-11
3.23747e-11
3.25567e-11
3.27352e-11
3.29104e-11
3.30824e-11
3.32514e-11
3.34176e-11
3.35814e-11
3.37432e-11
3.39032e-11
3.4062e-11
3.42199e-11
3.43773e-11
3.45345e-11
3.4692e-11
3.48499e-11
3.50082e-11
3.51668e-11
3.53253e-11
3.54832e-11
3.56398e-11
3.57942e-11
3.59452e-11
3.60918e-11
3.62324e-11
3.63656e-11
3.64904e-11
3.66061e-11
3.67129e-11
3.68112e-11
3.69012e-11
3.69832e-11
3.70568e-11
3.712e-11
3.71664e-11
3.71782e-11
3.71452e-11
3.70711e-11
3.69304e-11
3.66671e-11
-1.03136e-11
-2.78856e-09
-3.76811e-09
-3.69829e-09
-3.55089e-09
-3.28949e-09
-2.95466e-09
-2.58115e-09
-2.19516e-09
-1.81725e-09
-1.46321e-09
-1.14469e-09
-8.69173e-10
-6.40184e-10
-4.57478e-10
-3.17519e-10
-2.14435e-10
-1.41496e-10
-9.22239e-11
-6.0505e-11
-4.0717e-11
-2.83728e-11
-2.04649e-11
-1.52053e-11
-1.15757e-11
-8.98945e-12
-7.09693e-12
-5.68125e-12
-4.60284e-12
-3.76885e-12
-3.1157e-12
-2.59868e-12
-2.18572e-12
-1.85327e-12
-1.58384e-12
-1.36416e-12
-1.1841e-12
-1.03579e-12
-9.13076e-13
-8.11092e-13
-7.2597e-13
-6.54607e-13
-5.94499e-13
-5.43616e-13
-5.00304e-13
-4.63206e-13
-4.31205e-13
-4.03375e-13
-3.78947e-13
-3.57275e-13
-3.37819e-13
-3.2012e-13
-3.03795e-13
-2.88526e-13
-2.74058e-13
-2.59911e-13
-2.45941e-13
-2.32025e-13
-2.18081e-13
-2.04066e-13
-1.89981e-13
-1.75866e-13
-1.61793e-13
-1.4786e-13
-1.34188e-13
-1.20913e-13
-1.08184e-13
-9.61259e-14
-8.48203e-14
-7.43419e-14
-6.47532e-14
-5.60627e-14
-4.82434e-14
-4.12646e-14
-3.50962e-14
-2.96928e-14
-2.49794e-14
-2.08934e-14
-1.73875e-14
-1.43953e-14
-1.18539e-14
-9.71186e-15
-7.91809e-15
-6.42762e-15
-5.19192e-15
-4.18431e-15
-3.38893e-15
-2.75654e-15
-2.12463e-15
-1.49624e-15
-1.07134e-15
-7.85378e-16
-5.45543e-16
-3.88137e-16
-2.14039e-16
-1.52159e-16
2.82964e-17
6.69044e-18
6.45959e-18
6.3186e-18
6.08389e-18
5.93761e-18
5.69938e-18
5.53987e-18
5.29282e-18
5.11722e-18
4.858e-18
4.65769e-18
4.38328e-18
4.1654e-18
3.88816e-18
3.65856e-18
3.37257e-18
3.12705e-18
2.84335e-18
2.60091e-18
2.33347e-18
2.12677e-18
1.95118e-18
1.83016e-18
1.72649e-18
1.62705e-18
1.53956e-18
1.46022e-18
1.37418e-18
1.29237e-18
1.23827e-18
1.18644e-18
1.13401e-18
1.07376e-18
1.02206e-18
9.63861e-19
9.04688e-19
8.4166e-19
7.99837e-19
7.55591e-19
7.12586e-19
6.64921e-19
6.21084e-19
5.7457e-19
5.07318e-19
4.57059e-19
4.13121e-19
3.64926e-19
3.16062e-19
2.60236e-19
2.11029e-19
1.5315e-19
9.68645e-20
2.84691e-20
3.43065e-20
3.05668e-20
3.01334e-20
-7.5108e-22
8.88392e-22
-8.3934e-21
-1.69953e-20
-3.61296e-20
-3.55506e-20
-4.57993e-20
-5.48578e-20
-7.37556e-20
-8.68416e-20
-1.03661e-19
-1.19711e-19
-1.29828e-19
-1.63617e-19
-1.84256e-19
-2.05819e-19
-2.09186e-19
-2.3543e-19
-2.31975e-19
-2.31658e-19
-1.83435e-19
-2.51019e-19
-2.46516e-19
-2.4567e-19
-1.41146e-19
-1.74733e-19
-3.82736e-20
7.53677e-20
6.50296e-19
-5.79752e-19
-1.27644e-18
-2.00126e-18
-2.35171e-18
-3.11227e-18
-3.40483e-18
-3.74578e-18
-3.50129e-18
-4.47708e-18
-4.72753e-18
-5.0395e-18
-4.51951e-18
-4.86584e-18
-4.23563e-18
-3.71517e-18
-2.10452e-18
-2.98249e-18
-2.59824e-18
-2.33114e-18
-7.40192e-19
-2.65054e-19
1.39285e-18
3.07839e-18
5.43984e-18
8.60932e-18
1.16333e-17
1.4907e-17
1.69814e-17
2.2924e-17
2.55477e-17
3.15097e-17
)
;

boundaryField
{
    inandouthalf11
    {
        type            cyclic;
        value           nonuniform List<scalar> 
100
(
-2.65601e-10
-2.64202e-10
-2.64009e-10
-2.6422e-10
-2.64336e-10
-2.64389e-10
-2.64447e-10
-2.64515e-10
-2.64585e-10
-2.64655e-10
-2.64726e-10
-2.64797e-10
-2.64868e-10
-2.64939e-10
-2.65011e-10
-2.65083e-10
-2.65155e-10
-2.65228e-10
-2.65301e-10
-2.65374e-10
-2.65447e-10
-2.65522e-10
-2.65596e-10
-2.65671e-10
-2.65746e-10
-2.65821e-10
-2.65897e-10
-2.65973e-10
-2.6605e-10
-2.66127e-10
-2.66205e-10
-2.66284e-10
-2.66362e-10
-2.66442e-10
-2.66522e-10
-2.66602e-10
-2.66683e-10
-2.66765e-10
-2.66848e-10
-2.6693e-10
-2.67014e-10
-2.67099e-10
-2.67184e-10
-2.6727e-10
-2.67356e-10
-2.67444e-10
-2.67532e-10
-2.67621e-10
-2.67711e-10
-2.67802e-10
-2.67893e-10
-2.67985e-10
-2.68078e-10
-2.68173e-10
-2.68267e-10
-2.68364e-10
-2.6846e-10
-2.68559e-10
-2.68658e-10
-2.68757e-10
-2.68858e-10
-2.6896e-10
-2.69064e-10
-2.69168e-10
-2.69273e-10
-2.69379e-10
-2.69487e-10
-2.69596e-10
-2.69706e-10
-2.69817e-10
-2.6993e-10
-2.70045e-10
-2.7016e-10
-2.70277e-10
-2.70395e-10
-2.70515e-10
-2.70636e-10
-2.70759e-10
-2.70884e-10
-2.7101e-10
-2.71138e-10
-2.71267e-10
-2.71399e-10
-2.71532e-10
-2.71667e-10
-2.71805e-10
-2.71944e-10
-2.72085e-10
-2.72229e-10
-2.72375e-10
-2.72523e-10
-2.72674e-10
-2.72827e-10
-2.72983e-10
-2.73142e-10
-2.73303e-10
-2.73468e-10
-2.73635e-10
-2.73806e-10
-2.7398e-10
)
;
    }
    inandouthalf12
    {
        type            cyclic;
        value           nonuniform List<scalar> 
100
(
2.65601e-10
2.64202e-10
2.64009e-10
2.6422e-10
2.64336e-10
2.64389e-10
2.64447e-10
2.64515e-10
2.64585e-10
2.64655e-10
2.64726e-10
2.64797e-10
2.64868e-10
2.64939e-10
2.65011e-10
2.65083e-10
2.65155e-10
2.65228e-10
2.65301e-10
2.65374e-10
2.65447e-10
2.65522e-10
2.65596e-10
2.65671e-10
2.65746e-10
2.65821e-10
2.65897e-10
2.65973e-10
2.6605e-10
2.66127e-10
2.66205e-10
2.66284e-10
2.66362e-10
2.66442e-10
2.66522e-10
2.66602e-10
2.66683e-10
2.66765e-10
2.66848e-10
2.6693e-10
2.67014e-10
2.67099e-10
2.67184e-10
2.6727e-10
2.67356e-10
2.67444e-10
2.67532e-10
2.67621e-10
2.67711e-10
2.67802e-10
2.67893e-10
2.67985e-10
2.68078e-10
2.68173e-10
2.68267e-10
2.68364e-10
2.6846e-10
2.68559e-10
2.68658e-10
2.68757e-10
2.68858e-10
2.6896e-10
2.69064e-10
2.69168e-10
2.69273e-10
2.69379e-10
2.69487e-10
2.69596e-10
2.69706e-10
2.69817e-10
2.6993e-10
2.70045e-10
2.7016e-10
2.70277e-10
2.70395e-10
2.70515e-10
2.70636e-10
2.70759e-10
2.70884e-10
2.7101e-10
2.71138e-10
2.71267e-10
2.71399e-10
2.71532e-10
2.71667e-10
2.71805e-10
2.71944e-10
2.72085e-10
2.72229e-10
2.72375e-10
2.72523e-10
2.72674e-10
2.72827e-10
2.72983e-10
2.73142e-10
2.73303e-10
2.73468e-10
2.73635e-10
2.73806e-10
2.7398e-10
)
;
    }
    inandouthalf21
    {
        type            cyclic;
        value           nonuniform List<scalar> 
100
(
-2.74157e-10
-2.74338e-10
-2.74523e-10
-2.74712e-10
-2.74904e-10
-2.75101e-10
-2.75303e-10
-2.75509e-10
-2.7572e-10
-2.75936e-10
-2.76157e-10
-2.76384e-10
-2.76617e-10
-2.76856e-10
-2.77101e-10
-2.77353e-10
-2.77612e-10
-2.77878e-10
-2.78152e-10
-2.78434e-10
-2.78725e-10
-2.79025e-10
-2.79335e-10
-2.79654e-10
-2.79984e-10
-2.80326e-10
-2.8068e-10
-2.81048e-10
-2.8143e-10
-2.81829e-10
-2.82245e-10
-2.82678e-10
-2.83132e-10
-2.83609e-10
-2.84116e-10
-2.84651e-10
-2.85212e-10
-2.85807e-10
-2.86466e-10
-2.87222e-10
-2.88041e-10
-2.88834e-10
-2.89789e-10
-2.91026e-10
-2.92576e-10
-2.95592e-10
-3.10119e-10
-7.55183e-09
-1.04783e-07
-2.38007e-07
-3.41955e-07
-4.2752e-07
-4.99948e-07
-5.62241e-07
-6.16397e-07
-6.63824e-07
-7.05548e-07
-7.42322e-07
-7.74692e-07
-8.03035e-07
-8.27599e-07
-8.48535e-07
-8.65965e-07
-8.80052e-07
-8.91071e-07
-8.99427e-07
-9.05609e-07
-9.10101e-07
-9.13326e-07
-9.15611e-07
-9.172e-07
-9.18267e-07
-9.18936e-07
-9.19296e-07
-9.19408e-07
-9.1932e-07
-9.19066e-07
-9.18671e-07
-9.18156e-07
-9.17537e-07
-9.16825e-07
-9.16032e-07
-9.15166e-07
-9.14233e-07
-9.13239e-07
-9.12191e-07
-9.11093e-07
-9.09948e-07
-9.0876e-07
-9.07533e-07
-9.06269e-07
-9.04972e-07
-9.03644e-07
-9.02286e-07
-9.00902e-07
-8.99494e-07
-8.98062e-07
-8.9661e-07
-8.95138e-07
-8.93649e-07
)
;
    }
    inandouthalf22
    {
        type            cyclic;
        value           nonuniform List<scalar> 
100
(
2.74157e-10
2.74338e-10
2.74523e-10
2.74712e-10
2.74904e-10
2.75101e-10
2.75303e-10
2.75509e-10
2.7572e-10
2.75936e-10
2.76157e-10
2.76384e-10
2.76617e-10
2.76856e-10
2.77101e-10
2.77353e-10
2.77612e-10
2.77878e-10
2.78152e-10
2.78434e-10
2.78725e-10
2.79025e-10
2.79335e-10
2.79654e-10
2.79984e-10
2.80326e-10
2.8068e-10
2.81048e-10
2.8143e-10
2.81829e-10
2.82245e-10
2.82678e-10
2.83132e-10
2.83609e-10
2.84116e-10
2.84651e-10
2.85212e-10
2.85807e-10
2.86466e-10
2.87222e-10
2.88041e-10
2.88834e-10
2.89789e-10
2.91026e-10
2.92576e-10
2.95592e-10
3.10119e-10
7.55183e-09
1.04783e-07
2.38007e-07
3.41955e-07
4.2752e-07
4.99948e-07
5.62241e-07
6.16397e-07
6.63824e-07
7.05548e-07
7.42322e-07
7.74692e-07
8.03035e-07
8.27599e-07
8.48535e-07
8.65965e-07
8.80052e-07
8.91071e-07
8.99427e-07
9.05609e-07
9.10101e-07
9.13326e-07
9.15611e-07
9.172e-07
9.18267e-07
9.18936e-07
9.19296e-07
9.19408e-07
9.1932e-07
9.19066e-07
9.18671e-07
9.18156e-07
9.17537e-07
9.16825e-07
9.16032e-07
9.15166e-07
9.14233e-07
9.13239e-07
9.12191e-07
9.11093e-07
9.09948e-07
9.0876e-07
9.07533e-07
9.06269e-07
9.04972e-07
9.03644e-07
9.02286e-07
9.00902e-07
8.99494e-07
8.98062e-07
8.9661e-07
8.95138e-07
8.93649e-07
)
;
    }
    inandouthalf31
    {
        type            cyclic;
        value           nonuniform List<scalar> 
110
(
-8.92147e-07
-9.08688e-07
-9.25486e-07
-9.42541e-07
-9.59858e-07
-9.77436e-07
-9.95279e-07
-1.01339e-06
-1.03177e-06
-1.05041e-06
-1.06933e-06
-1.08853e-06
-1.108e-06
-1.12775e-06
-1.14777e-06
-1.16809e-06
-1.18868e-06
-1.20957e-06
-1.23074e-06
-1.2522e-06
-1.27397e-06
-1.29603e-06
-1.31839e-06
-1.34106e-06
-1.36403e-06
-1.38733e-06
-1.41094e-06
-1.43487e-06
-1.45914e-06
-1.48375e-06
-1.5087e-06
-1.534e-06
-1.55967e-06
-1.58572e-06
-1.61215e-06
-1.63899e-06
-1.66625e-06
-1.69394e-06
-1.72209e-06
-1.75073e-06
-1.77988e-06
-1.80957e-06
-1.83984e-06
-1.87073e-06
-1.90229e-06
-1.93457e-06
-1.96764e-06
-2.00156e-06
-2.03641e-06
-2.07229e-06
-2.10928e-06
-2.14751e-06
-2.18708e-06
-2.2281e-06
-2.27071e-06
-2.31499e-06
-2.36103e-06
-2.40888e-06
-2.45853e-06
-2.50996e-06
-2.56305e-06
-2.6176e-06
-2.67329e-06
-2.72914e-06
-2.7848e-06
-2.84134e-06
-2.89901e-06
-2.95785e-06
-3.01789e-06
-3.07914e-06
-3.14164e-06
-3.20541e-06
-3.27047e-06
-3.33685e-06
-3.40458e-06
-3.47368e-06
-3.54419e-06
-3.61613e-06
-3.68953e-06
-3.76441e-06
-3.84082e-06
-3.91878e-06
-3.99832e-06
-4.07948e-06
-4.16228e-06
-4.24676e-06
-4.33296e-06
-4.42091e-06
-4.51064e-06
-4.60219e-06
-4.69561e-06
-4.79091e-06
-4.88816e-06
-4.98737e-06
-5.0886e-06
-5.19189e-06
-5.29727e-06
-5.40479e-06
-5.51449e-06
-5.62642e-06
-5.74062e-06
-5.85714e-06
-5.97603e-06
-6.09733e-06
-6.22109e-06
-6.34736e-06
-6.47619e-06
-6.60764e-06
-6.74176e-06
-6.8786e-06
)
;
    }
    inandouthalf32
    {
        type            cyclic;
        value           nonuniform List<scalar> 
110
(
8.92147e-07
9.08688e-07
9.25486e-07
9.42541e-07
9.59858e-07
9.77436e-07
9.95279e-07
1.01339e-06
1.03177e-06
1.05041e-06
1.06933e-06
1.08853e-06
1.108e-06
1.12775e-06
1.14777e-06
1.16809e-06
1.18868e-06
1.20957e-06
1.23074e-06
1.2522e-06
1.27397e-06
1.29603e-06
1.31839e-06
1.34106e-06
1.36403e-06
1.38733e-06
1.41094e-06
1.43487e-06
1.45914e-06
1.48375e-06
1.5087e-06
1.534e-06
1.55967e-06
1.58572e-06
1.61215e-06
1.63899e-06
1.66625e-06
1.69394e-06
1.72209e-06
1.75073e-06
1.77988e-06
1.80957e-06
1.83984e-06
1.87073e-06
1.90229e-06
1.93457e-06
1.96764e-06
2.00156e-06
2.03641e-06
2.07229e-06
2.10928e-06
2.14751e-06
2.18708e-06
2.2281e-06
2.27071e-06
2.31499e-06
2.36103e-06
2.40888e-06
2.45853e-06
2.50996e-06
2.56305e-06
2.6176e-06
2.67329e-06
2.72914e-06
2.7848e-06
2.84134e-06
2.89901e-06
2.95785e-06
3.01789e-06
3.07914e-06
3.14164e-06
3.20541e-06
3.27047e-06
3.33685e-06
3.40458e-06
3.47368e-06
3.54419e-06
3.61613e-06
3.68953e-06
3.76441e-06
3.84082e-06
3.91878e-06
3.99832e-06
4.07948e-06
4.16228e-06
4.24676e-06
4.33296e-06
4.42091e-06
4.51064e-06
4.60219e-06
4.69561e-06
4.79091e-06
4.88816e-06
4.98737e-06
5.0886e-06
5.19189e-06
5.29727e-06
5.40479e-06
5.51449e-06
5.62642e-06
5.74062e-06
5.85714e-06
5.97603e-06
6.09733e-06
6.22109e-06
6.34736e-06
6.47619e-06
6.60764e-06
6.74176e-06
6.8786e-06
)
;
    }
    inandouthalf41
    {
        type            cyclic;
        value           nonuniform List<scalar> 
50
(
-6.15705e-06
-6.15705e-06
-6.15705e-06
-6.15705e-06
-6.15705e-06
-6.15705e-06
-6.15705e-06
-6.15705e-06
-6.15705e-06
-6.15705e-06
-6.15705e-06
-6.15705e-06
-6.15705e-06
-6.15705e-06
-6.15705e-06
-6.15705e-06
-6.15705e-06
-6.15705e-06
-6.15705e-06
-6.15705e-06
-6.15705e-06
-6.15705e-06
-6.15705e-06
-6.15705e-06
-6.15705e-06
-6.15705e-06
-6.15705e-06
-6.15705e-06
-6.15705e-06
-6.15705e-06
-6.15705e-06
-6.15705e-06
-6.15705e-06
-6.15705e-06
-6.15705e-06
-6.15705e-06
-6.15705e-06
-6.15705e-06
-6.15705e-06
-6.15705e-06
-6.15705e-06
-6.15705e-06
-6.15705e-06
-6.15705e-06
-6.15705e-06
-6.15705e-06
-6.15705e-06
-6.15705e-06
-6.15705e-06
-6.15705e-06
)
;
    }
    inandouthalf42
    {
        type            cyclic;
        value           nonuniform List<scalar> 
50
(
6.15705e-06
6.15705e-06
6.15705e-06
6.15705e-06
6.15705e-06
6.15705e-06
6.15705e-06
6.15705e-06
6.15705e-06
6.15705e-06
6.15705e-06
6.15705e-06
6.15705e-06
6.15705e-06
6.15705e-06
6.15705e-06
6.15705e-06
6.15705e-06
6.15705e-06
6.15705e-06
6.15705e-06
6.15705e-06
6.15705e-06
6.15705e-06
6.15705e-06
6.15705e-06
6.15705e-06
6.15705e-06
6.15705e-06
6.15705e-06
6.15705e-06
6.15705e-06
6.15705e-06
6.15705e-06
6.15705e-06
6.15705e-06
6.15705e-06
6.15705e-06
6.15705e-06
6.15705e-06
6.15705e-06
6.15705e-06
6.15705e-06
6.15705e-06
6.15705e-06
6.15705e-06
6.15705e-06
6.15705e-06
6.15705e-06
6.15705e-06
)
;
    }
    top
    {
        type            symmetryPlane;
        value           uniform 0;
    }
    walls
    {
        type            fixedValue;
        value           uniform 0;
    }
    frontAndBackPlanes
    {
        type            empty;
        value           nonuniform 0();
    }
}


// ************************************************************************* //
