/*--------------------------------*- C++ -*----------------------------------*\
| =========                 |                                                 |
| \\      /  F ield         | OpenFOAM: The Open Source CFD Toolbox           |
|  \\    /   O peration     | Version:  2.4.x                                 |
|   \\  /    A nd           | Web:      www.OpenFOAM.org                      |
|    \\/     M anipulation  |                                                 |
\*---------------------------------------------------------------------------*/
FoamFile
{
    version     2.0;
    format      ascii;
    class       volVectorField;
    location    "8.1";
    object      susb;
}
// * * * * * * * * * * * * * * * * * * * * * * * * * * * * * * * * * * * * * //

dimensions      [0 1 -2 0 0 0 0];

internalField   nonuniform List<vector> 
360
(
(0 5.82532e-18 0)
(0 6.527e-18 0)
(0 5.86285e-20 0)
(0 -9.212e-19 0)
(-3.69875e-31 -4.17797e-19 0)
(-3.69837e-31 -2.30198e-19 0)
(-3.69793e-31 -2.79554e-19 0)
(0 -3.16464e-19 0)
(-7.39358e-31 -3.23245e-19 0)
(0 -3.27425e-19 0)
(-3.69562e-31 -3.28827e-19 0)
(0 -3.29726e-19 0)
(-3.69443e-31 -3.31979e-19 0)
(0 -3.34368e-19 0)
(0 -3.37843e-19 0)
(0 -3.41396e-19 0)
(0 -3.44042e-19 0)
(-3.69139e-31 -3.46283e-19 0)
(0 -3.50034e-19 0)
(0 -3.5241e-19 0)
(0 -3.54938e-19 0)
(-3.68886e-31 -3.58951e-19 0)
(0 -3.6166e-19 0)
(0 -3.64933e-19 0)
(0 -3.68307e-19 0)
(-7.37249e-31 -3.70908e-19 0)
(0 -3.74798e-19 0)
(0 -3.7888e-19 0)
(0 -3.81593e-19 0)
(0 -3.84878e-19 0)
(0 -3.89822e-19 0)
(0 -3.92081e-19 0)
(0 -3.96656e-19 0)
(0 -4.01336e-19 0)
(0 -4.04026e-19 0)
(3.67927e-31 -4.08223e-19 0)
(0 -4.12203e-19 0)
(0 -4.18483e-19 0)
(0 -4.20065e-19 0)
(0 -4.24985e-19 0)
(0 -4.3193e-19 0)
(0 -4.32829e-19 0)
(3.67396e-31 -4.39082e-19 0)
(0 -4.44791e-19 0)
(0 -4.48151e-19 0)
(0 -4.54975e-19 0)
(0 -4.57429e-19 0)
(0 -4.61675e-19 0)
(0 -4.71309e-19 0)
(0 -4.7428e-19 0)
(3.66739e-31 -4.78252e-19 0)
(0 -4.85416e-19 0)
(0 -4.91124e-19 0)
(0 -4.95559e-19 0)
(0 -5.02677e-19 0)
(0 -5.08407e-19 0)
(0 -5.13742e-19 0)
(0 -5.21662e-19 0)
(0 -5.24477e-19 0)
(0 -5.33501e-19 0)
(0 -5.40535e-19 0)
(0 -5.4632e-19 0)
(0 -5.54575e-19 0)
(0 -5.60532e-19 0)
(0 -5.6746e-19 0)
(0 -5.75027e-19 0)
(0 -5.83789e-19 0)
(0 -5.90839e-19 0)
(0 -5.96325e-19 0)
(0 -6.06025e-19 0)
(0 -6.17783e-19 0)
(0 -6.2255e-19 0)
(0 -6.31084e-19 0)
(0 -6.42268e-19 0)
(0 -6.51778e-19 0)
(0 -6.60643e-19 0)
(0 -6.68481e-19 0)
(0 -6.79462e-19 0)
(0 -6.90302e-19 0)
(0 -6.99929e-19 0)
(0 -7.10542e-19 0)
(0 -7.22733e-19 0)
(0 -7.34288e-19 0)
(0 -7.46209e-19 0)
(0 -7.5848e-19 0)
(0 -7.71166e-19 0)
(0 -7.83954e-19 0)
(0 -7.96675e-19 0)
(0 -8.10397e-19 0)
(0 -8.24647e-19 0)
(0 -8.39159e-19 0)
(0 -8.54528e-19 0)
(0 -8.70625e-19 0)
(0 -8.87056e-19 0)
(0 -9.04011e-19 0)
(0 -9.21504e-19 0)
(0 -9.39493e-19 0)
(0 -9.5806e-19 0)
(0 -9.7735e-19 0)
(0 -9.97397e-19 0)
(0 -1.01823e-18 0)
(0 -1.03995e-18 0)
(0 -1.06257e-18 0)
(0 -1.08606e-18 0)
(0 -1.1105e-18 0)
(0 -1.13592e-18 0)
(0 -1.16238e-18 0)
(0 -1.18995e-18 0)
(0 -1.21868e-18 0)
(0 -1.24864e-18 0)
(0 -1.27987e-18 0)
(0 -1.31243e-18 0)
(0 -1.34639e-18 0)
(0 -1.38179e-18 0)
(0 -1.41873e-18 0)
(0 -1.45727e-18 0)
(0 -1.49752e-18 0)
(0 -1.5396e-18 0)
(0 -1.58367e-18 0)
(0 -1.62992e-18 0)
(0 -1.67854e-18 0)
(0 -1.72974e-18 0)
(0 -1.78376e-18 0)
(0 -1.84092e-18 0)
(0 -1.90176e-18 0)
(0 -1.96717e-18 0)
(0 -2.03839e-18 0)
(0 -2.11656e-18 0)
(0 -2.20182e-18 0)
(0 -2.29266e-18 0)
(0 -2.3874e-18 0)
(0 -2.48925e-18 0)
(0 -2.60928e-18 0)
(0 -2.75486e-18 0)
(0 -2.91075e-18 0)
(0 -1.46416e-18 0)
(0 -4.28009e-18 0)
(0 -5.46181e-17 0)
(0 -8.60633e-16 0)
(0 -1.46803e-14 0)
(0 -2.53594e-13 0)
(0 -5.16375e-12 0)
(0 -1.36909e-10 0)
(0 -4.19033e-09 0)
(0 -1.89966e-07 0)
(0 -1.13642e-05 0)
(0 -0.00296427 0)
(0 -0.978506 0)
(0 -3.50505 0)
(0 -1.99022 0)
(0 -1.12391 0)
(0 -0.925611 0)
(0 -0.808253 0)
(0 -0.705367 0)
(0 -0.604231 0)
(0 -0.505593 0)
(0 -0.413099 0)
(0 -0.329898 0)
(0 -0.25778 0)
(0 -0.197359 0)
(0 -0.148321 0)
(0 -0.109782 0)
(0 -0.0804246 0)
(0 -0.0585299 0)
(0 -0.042288 0)
(0 -0.0303004 0)
(0 -0.0217006 0)
(0 -0.0158096 0)
(0 -0.0119042 0)
(0 -0.00931024 0)
(0 -0.00753304 0)
(0 -0.00626307 0)
(0 -0.00531807 0)
(0 -0.00459023 0)
(0 -0.0040136 0)
(0 -0.00354618 0)
(0 -0.00316014 0)
(0 -0.00283635 0)
(0 -0.00256125 0)
(0 -0.00232493 0)
(0 -0.00211997 0)
(0 -0.00194075 0)
(0 -0.00178288 0)
(0 -0.0016429 0)
(0 -0.00151808 0)
(0 -0.0014062 0)
(0 -0.00130544 0)
(0 -0.00121431 0)
(0 -0.00113157 0)
(0 -0.00105617 0)
(0 -0.000987253 0)
(0 -0.000924104 0)
(0 -0.000866135 0)
(0 -0.000812853 0)
(0 -0.000763836 0)
(0 -0.000718723 0)
(0 -0.000677203 0)
(0 -0.000638973 0)
(0 -0.00060368 0)
(0 -0.000570898 0)
(0 -0.000540184 0)
(0 -0.000510913 0)
(-3.2994e-19 -0.000482684 0)
(0 -0.000455359 0)
(0 -0.000428642 0)
(1.5581e-19 -0.000402209 0)
(0 -0.000375825 0)
(-1.49188e-19 -0.000349379 0)
(0 -0.000322874 0)
(1.42186e-19 -0.000296363 0)
(0 -0.000269961 0)
(0 -0.000243756 0)
(0 -0.000217875 0)
(6.35769e-20 -0.000192887 0)
(0 -0.000169352 0)
(0 -0.000147255 0)
(0 -0.000126671 0)
(0 -0.000108087 0)
(0 -9.1636e-05 0)
(-2.56239e-20 -7.71067e-05 0)
(0 -6.42676e-05 0)
(-2.34558e-20 -5.30977e-05 0)
(0 -4.36756e-05 0)
(-1.06185e-20 -3.56576e-05 0)
(0 -2.87905e-05 0)
(0 -2.30939e-05 0)
(0 -1.84001e-05 0)
(0 -1.45207e-05 0)
(3.88024e-21 -1.13909e-05 0)
(0 -8.97269e-06 0)
(0 -7.3462e-06 0)
(0 -6.0582e-06 0)
(0 -4.87652e-06 0)
(0 -3.91164e-06 0)
(0 -3.99095e-06 0)
(0 -3.75157e-06 0)
(0 -2.37158e-06 0)
(0 -1.35619e-06 0)
(0 -1.05916e-06 0)
(0 -7.59978e-07 0)
(0 -5.73988e-07 0)
(0 -3.71305e-07 0)
(0 -2.93568e-07 0)
(-4.39068e-33 -1.67715e-07 0)
(3.72641e-44 -1.33933e-17 0)
(0 -1.68152e-28 0)
(0 -2.15686e-39 0)
(-5.38699e-56 -3.18759e-40 0)
(0 -1.81527e-40 0)
(0 -5.09077e-41 0)
(-5.08564e-57 -2.18173e-41 0)
(0 -1.07121e-41 0)
(0 -7.11422e-42 0)
(0 -5.6959e-42 0)
(0 -3.24749e-42 0)
(0 -1.14222e-42 0)
(0 -4.3539e-43 0)
(0 -1.88237e-43 0)
(0 -9.45433e-44 0)
(0 -4.77711e-44 0)
(0 -1.77111e-44 0)
(0 -5.24036e-45 0)
(0 -1.25426e-45 0)
(0 -1.13794e-46 0)
(0 -2.21266e-48 0)
(0 -2.29714e-50 0)
(4.1509e-68 -2.24643e-52 0)
(0 -2.08494e-54 0)
(0 -1.82777e-56 0)
(0 -1.50627e-58 0)
(0 -1.14275e-60 0)
(0 -4.37948e-63 0)
(0 -9.2284e-65 0)
(0 -3.96308e-65 0)
(0 -1.66666e-65 0)
(0 -6.85874e-66 0)
(0 -2.75986e-66 0)
(0 -1.08496e-66 0)
(0 -4.16339e-67 0)
(0 -1.55803e-67 0)
(0 -5.68024e-68 0)
(0 -2.0154e-68 0)
(0 -6.95126e-69 0)
(0 -2.32779e-69 0)
(0 -7.55846e-70 0)
(0 -2.37638e-70 0)
(9.05747e-87 -7.22323e-71 0)
(0 -2.11913e-71 0)
(0 -5.98978e-72 0)
(0 -1.62794e-72 0)
(0 -4.24521e-73 0)
(0 -1.05965e-73 0)
(0 -2.52514e-74 0)
(0 -5.72785e-75 0)
(0 -1.2327e-75 0)
(0 -2.50771e-76 0)
(3.53272e-93 -4.80203e-77 0)
(0 -8.61402e-78 0)
(0 -1.43946e-78 0)
(-2.59848e-95 -2.22621e-79 0)
(0 -3.16181e-80 0)
(0 -4.08549e-81 0)
(0 -4.74767e-82 0)
(0 -4.89023e-83 0)
(0 -4.38095e-84 0)
(0 -3.32698e-85 0)
(0 -2.06439e-86 0)
(0 -9.88364e-88 0)
(0 -3.29754e-89 0)
(0 -6.06367e-91 0)
(0 -1.62701e-93 0)
(0 -1.95225e-98 0)
(0 -1.61451e-100 0)
(0 -6.61908e-103 0)
(0 -2.3376e-113 0)
(0 -4.12972e-124 0)
(0 -5.3017e-135 0)
(0 -4.89361e-146 0)
(0 -3.87778e-157 0)
(0 -2.32826e-168 0)
(0 -1.20714e-179 0)
(0 -7.87223e-190 0)
(0 -3.42795e-200 0)
(0 -2.55492e-208 0)
(0 -1.01291e-218 0)
(0 -8.78783e-227 0)
(0 -4.09623e-237 0)
(0 -3.02395e-245 0)
(0 -1.73025e-255 0)
(0 -1.04143e-263 0)
(0 -1.10522e-273 0)
(0 -3.65059e-282 0)
(0 -7.30794e-292 0)
(0 -1.3126e-300 0)
(0 -3.61772e-310 0)
(0 -4.82796e-319 0)
(0 -0 0)
(0 -0 0)
(0 0 0)
(0 0 0)
(0 0 0)
(0 0 0)
(0 0 0)
(0 0 0)
(0 0 0)
(0 0 0)
(0 0 0)
(0 0 0)
(0 0 0)
(0 0 0)
(0 0 0)
(0 0 0)
(0 0 0)
(0 0 0)
(0 0 0)
(0 0 0)
(0 0 0)
(0 0 0)
(0 0 0)
(0 0 0)
)
;

boundaryField
{
    inandouthalf11
    {
        type            cyclic;
    }
    inandouthalf12
    {
        type            cyclic;
    }
    inandouthalf21
    {
        type            cyclic;
    }
    inandouthalf22
    {
        type            cyclic;
    }
    inandouthalf31
    {
        type            cyclic;
    }
    inandouthalf32
    {
        type            cyclic;
    }
    inandouthalf41
    {
        type            cyclic;
    }
    inandouthalf42
    {
        type            cyclic;
    }
    top
    {
        type            symmetryPlane;
    }
    walls
    {
        type            zeroGradient;
    }
    frontAndBackPlanes
    {
        type            empty;
    }
}


// ************************************************************************* //
