/*--------------------------------*- C++ -*----------------------------------*\
| =========                 |                                                 |
| \\      /  F ield         | OpenFOAM: The Open Source CFD Toolbox           |
|  \\    /   O peration     | Version:  2.4.x                                 |
|   \\  /    A nd           | Web:      www.OpenFOAM.org                      |
|    \\/     M anipulation  |                                                 |
\*---------------------------------------------------------------------------*/
FoamFile
{
    version     2.0;
    format      ascii;
    class       volTensorField;
    location    "8.1";
    object      Tauf;
}
// * * * * * * * * * * * * * * * * * * * * * * * * * * * * * * * * * * * * * //

dimensions      [0 2 -2 0 0 0 0];

internalField   nonuniform List<tensor> 
360
(
(0 5.29764e-07 0 5.29764e-07 2.83462e-10 0 0 0 0)
(0 -1.59255e-09 0 -1.59255e-09 3.47512e-10 0 0 0 0)
(0 1.71522e-11 0 1.71522e-11 3.65058e-10 0 0 0 0)
(0 3.27727e-10 0 3.27727e-10 3.5384e-10 0 0 0 0)
(-5.16988e-23 1.69259e-10 0 1.69259e-10 3.58865e-10 0 0 0 0)
(-5.16988e-23 1.10536e-10 0 1.10536e-10 3.67188e-10 0 0 0 0)
(-5.16988e-23 1.26409e-10 0 1.26409e-10 3.70915e-10 0 0 0 0)
(0 1.38075e-10 0 1.38075e-10 3.71407e-10 0 0 0 0)
(-5.16988e-23 1.40114e-10 0 1.40114e-10 3.70977e-10 0 0 0 0)
(0 1.41314e-10 0 1.41314e-10 3.70443e-10 0 0 0 0)
(-5.16988e-23 1.41613e-10 0 1.41613e-10 3.69752e-10 0 0 0 0)
(0 1.41719e-10 0 1.41719e-10 3.68713e-10 0 0 0 0)
(-5.16988e-23 1.42218e-10 0 1.42218e-10 3.67291e-10 0 0 0 0)
(0 1.42734e-10 0 1.42734e-10 3.6555e-10 0 0 0 0)
(0 1.43578e-10 0 1.43578e-10 3.63605e-10 0 0 0 0)
(0 1.44441e-10 0 1.44441e-10 3.61551e-10 0 0 0 0)
(0 1.4501e-10 0 1.4501e-10 3.59424e-10 0 0 0 0)
(-5.16988e-23 1.45448e-10 0 1.45448e-10 3.5722e-10 0 0 0 0)
(0 1.46366e-10 0 1.46366e-10 3.54976e-10 0 0 0 0)
(0 1.46846e-10 0 1.46846e-10 3.527e-10 0 0 0 0)
(0 1.47377e-10 0 1.47377e-10 3.50402e-10 0 0 0 0)
(-5.16988e-23 1.48388e-10 0 1.48388e-10 3.48136e-10 0 0 0 0)
(0 1.48991e-10 0 1.48991e-10 3.45917e-10 0 0 0 0)
(0 1.49784e-10 0 1.49784e-10 3.43756e-10 0 0 0 0)
(0 1.50619e-10 0 1.50619e-10 3.41666e-10 0 0 0 0)
(-5.16988e-23 1.51218e-10 0 1.51218e-10 3.39644e-10 0 0 0 0)
(0 1.52242e-10 0 1.52242e-10 3.37718e-10 0 0 0 0)
(0 1.53342e-10 0 1.53342e-10 3.35915e-10 0 0 0 0)
(0 1.54018e-10 0 1.54018e-10 3.34215e-10 0 0 0 0)
(0 1.54889e-10 0 1.54889e-10 3.32606e-10 0 0 0 0)
(0 1.56305e-10 0 1.56305e-10 3.31127e-10 0 0 0 0)
(0 1.56876e-10 0 1.56876e-10 3.29745e-10 0 0 0 0)
(0 1.58201e-10 0 1.58201e-10 3.2848e-10 0 0 0 0)
(0 1.59575e-10 0 1.59575e-10 3.27343e-10 0 0 0 0)
(0 1.60323e-10 0 1.60323e-10 3.26289e-10 0 0 0 0)
(5.16988e-23 1.61563e-10 0 1.61563e-10 3.25321e-10 0 0 0 0)
(0 1.62747e-10 0 1.62747e-10 3.24435e-10 0 0 0 0)
(0 1.64681e-10 0 1.64681e-10 3.23683e-10 0 0 0 0)
(0 1.65116e-10 0 1.65116e-10 3.22976e-10 0 0 0 0)
(0 1.6663e-10 0 1.6663e-10 3.22322e-10 0 0 0 0)
(0 1.68806e-10 0 1.68806e-10 3.21775e-10 0 0 0 0)
(0 1.69043e-10 0 1.69043e-10 3.21224e-10 0 0 0 0)
(5.16988e-23 1.71007e-10 0 1.71007e-10 3.20724e-10 0 0 0 0)
(0 1.72806e-10 0 1.72806e-10 3.2029e-10 0 0 0 0)
(0 1.73854e-10 0 1.73854e-10 3.19868e-10 0 0 0 0)
(0 1.76021e-10 0 1.76021e-10 3.19488e-10 0 0 0 0)
(0 1.76779e-10 0 1.76779e-10 3.19057e-10 0 0 0 0)
(0 1.78115e-10 0 1.78115e-10 3.18577e-10 0 0 0 0)
(0 1.81197e-10 0 1.81197e-10 3.18189e-10 0 0 0 0)
(0 1.82134e-10 0 1.82134e-10 3.17795e-10 0 0 0 0)
(5.16988e-23 1.83391e-10 0 1.83391e-10 3.17353e-10 0 0 0 0)
(0 1.8568e-10 0 1.8568e-10 3.16891e-10 0 0 0 0)
(0 1.875e-10 0 1.875e-10 3.16406e-10 0 0 0 0)
(0 1.88908e-10 0 1.88908e-10 3.15862e-10 0 0 0 0)
(0 1.91182e-10 0 1.91182e-10 3.15292e-10 0 0 0 0)
(0 1.93007e-10 0 1.93007e-10 3.14667e-10 0 0 0 0)
(0 1.94701e-10 0 1.94701e-10 3.13953e-10 0 0 0 0)
(0 1.97228e-10 0 1.97228e-10 3.13197e-10 0 0 0 0)
(0 1.98094e-10 0 1.98094e-10 3.12282e-10 0 0 0 0)
(0 2.00973e-10 0 2.00973e-10 3.11345e-10 0 0 0 0)
(0 2.0321e-10 0 2.0321e-10 3.10384e-10 0 0 0 0)
(0 2.05044e-10 0 2.05044e-10 3.09381e-10 0 0 0 0)
(0 2.07679e-10 0 2.07679e-10 3.08355e-10 0 0 0 0)
(0 2.09565e-10 0 2.09565e-10 3.07227e-10 0 0 0 0)
(0 2.1176e-10 0 2.1176e-10 3.0599e-10 0 0 0 0)
(0 2.1416e-10 0 2.1416e-10 3.04638e-10 0 0 0 0)
(0 2.16946e-10 0 2.16946e-10 3.032e-10 0 0 0 0)
(0 2.19168e-10 0 2.19168e-10 3.01642e-10 0 0 0 0)
(0 2.20873e-10 0 2.20873e-10 2.99915e-10 0 0 0 0)
(0 2.23952e-10 0 2.23952e-10 2.98113e-10 0 0 0 0)
(0 2.27711e-10 0 2.27711e-10 2.96343e-10 0 0 0 0)
(0 2.29186e-10 0 2.29186e-10 2.94466e-10 0 0 0 0)
(0 2.3189e-10 0 2.3189e-10 2.92522e-10 0 0 0 0)
(0 2.35466e-10 0 2.35466e-10 2.90542e-10 0 0 0 0)
(0 2.38499e-10 0 2.38499e-10 2.88508e-10 0 0 0 0)
(0 2.41317e-10 0 2.41317e-10 2.86382e-10 0 0 0 0)
(0 2.43792e-10 0 2.43792e-10 2.8407e-10 0 0 0 0)
(0 2.47293e-10 0 2.47293e-10 2.81619e-10 0 0 0 0)
(0 2.50748e-10 0 2.50748e-10 2.79047e-10 0 0 0 0)
(0 2.53804e-10 0 2.53804e-10 2.76361e-10 0 0 0 0)
(0 2.57186e-10 0 2.57186e-10 2.7359e-10 0 0 0 0)
(0 2.61094e-10 0 2.61094e-10 2.70789e-10 0 0 0 0)
(0 2.64803e-10 0 2.64803e-10 2.67966e-10 0 0 0 0)
(0 2.68642e-10 0 2.68642e-10 2.6513e-10 0 0 0 0)
(0 2.72605e-10 0 2.72605e-10 2.62261e-10 0 0 0 0)
(0 2.76711e-10 0 2.76711e-10 2.59335e-10 0 0 0 0)
(0 2.80855e-10 0 2.80855e-10 2.56319e-10 0 0 0 0)
(0 2.8498e-10 0 2.8498e-10 2.53179e-10 0 0 0 0)
(0 2.89439e-10 0 2.89439e-10 2.4992e-10 0 0 0 0)
(0 2.94079e-10 0 2.94079e-10 2.46553e-10 0 0 0 0)
(0 2.98814e-10 0 2.98814e-10 2.43103e-10 0 0 0 0)
(0 3.03845e-10 0 3.03845e-10 2.39607e-10 0 0 0 0)
(0 3.09133e-10 0 3.09133e-10 2.36098e-10 0 0 0 0)
(0 3.1455e-10 0 3.1455e-10 2.32592e-10 0 0 0 0)
(0 3.2016e-10 0 3.2016e-10 2.29096e-10 0 0 0 0)
(0 3.25967e-10 0 3.25967e-10 2.25602e-10 0 0 0 0)
(0 3.31959e-10 0 3.31959e-10 2.22096e-10 0 0 0 0)
(0 3.38161e-10 0 3.38161e-10 2.18561e-10 0 0 0 0)
(0 3.44623e-10 0 3.44623e-10 2.14989e-10 0 0 0 0)
(0 3.51358e-10 0 3.51358e-10 2.11376e-10 0 0 0 0)
(0 3.58378e-10 0 3.58378e-10 2.07723e-10 0 0 0 0)
(0 3.65717e-10 0 3.65717e-10 2.04039e-10 0 0 0 0)
(0 3.73381e-10 0 3.73381e-10 2.00334e-10 0 0 0 0)
(0 3.81369e-10 0 3.81369e-10 1.96622e-10 0 0 0 0)
(0 3.89704e-10 0 3.89704e-10 1.92914e-10 0 0 0 0)
(0 3.98404e-10 0 3.98404e-10 1.89228e-10 0 0 0 0)
(0 4.07492e-10 0 4.07492e-10 1.85583e-10 0 0 0 0)
(0 4.16992e-10 0 4.16992e-10 1.82003e-10 0 0 0 0)
(0 4.26932e-10 0 4.26932e-10 1.78519e-10 0 0 0 0)
(0 4.37335e-10 0 4.37335e-10 1.75165e-10 0 0 0 0)
(0 4.48224e-10 0 4.48224e-10 1.71982e-10 0 0 0 0)
(0 4.59625e-10 0 4.59625e-10 1.69011e-10 0 0 0 0)
(0 4.71563e-10 0 4.71563e-10 1.66297e-10 0 0 0 0)
(0 4.84067e-10 0 4.84067e-10 1.63883e-10 0 0 0 0)
(0 4.97167e-10 0 4.97167e-10 1.61812e-10 0 0 0 0)
(0 5.10896e-10 0 5.10896e-10 1.60116e-10 0 0 0 0)
(0 5.25294e-10 0 5.25294e-10 1.5882e-10 0 0 0 0)
(0 5.40409e-10 0 5.40409e-10 1.57935e-10 0 0 0 0)
(0 5.56297e-10 0 5.56297e-10 1.57448e-10 0 0 0 0)
(0 5.73022e-10 0 5.73022e-10 1.57323e-10 0 0 0 0)
(0 5.90653e-10 0 5.90653e-10 1.57488e-10 0 0 0 0)
(0 6.09263e-10 0 6.09263e-10 1.57836e-10 0 0 0 0)
(0 6.2893e-10 0 6.2893e-10 1.58218e-10 0 0 0 0)
(0 6.49762e-10 0 6.49762e-10 1.58455e-10 0 0 0 0)
(0 6.71945e-10 0 6.71945e-10 1.58345e-10 0 0 0 0)
(0 6.95796e-10 0 6.95796e-10 1.57691e-10 0 0 0 0)
(0 7.21754e-10 0 7.21754e-10 1.5631e-10 0 0 0 0)
(0 7.50236e-10 0 7.50236e-10 1.54037e-10 0 0 0 0)
(0 7.81314e-10 0 7.81314e-10 1.50706e-10 0 0 0 0)
(0 8.14483e-10 0 8.14483e-10 1.46138e-10 0 0 0 0)
(0 8.49187e-10 0 8.49187e-10 1.40183e-10 0 0 0 0)
(0 8.86598e-10 0 8.86598e-10 1.32846e-10 0 0 0 0)
(0 9.3071e-10 0 9.3071e-10 1.24473e-10 0 0 0 0)
(0 9.84258e-10 0 9.84258e-10 1.157e-10 0 0 0 0)
(0 1.04195e-09 0 1.04195e-09 1.06982e-10 0 0 0 0)
(0 1.09604e-09 0 1.09604e-09 9.82885e-11 0 0 0 0)
(0 1.15564e-09 0 1.15564e-09 8.94877e-11 0 0 0 0)
(0 1.25381e-09 0 1.25381e-09 8.09035e-11 0 0 0 0)
(0 1.41459e-09 0 1.41459e-09 7.31234e-11 0 0 0 0)
(0 1.57516e-09 0 1.57516e-09 6.36447e-11 0 0 0 0)
(0 1.61205e-09 0 1.61205e-09 4.04066e-11 0 0 0 0)
(0 1.74756e-09 0 1.74756e-09 4.436e-12 0 0 0 0)
(0 2.19153e-09 0 2.19153e-09 -3.73706e-11 0 0 0 0)
(0 2.78672e-09 0 2.78672e-09 6.60089e-10 0 0 0 0)
(0 4.56649e-09 0 4.56649e-09 -9.52614e-09 0 0 0 0)
(0 1.77103e-08 0 1.77103e-08 3.87741e-08 0 0 0 0)
(0 7.49955e-06 0 7.49955e-06 -2.05281e-07 0 0 0 0)
(0 0.000168013 0 0.000168013 -3.47959e-06 0 0 0 0)
(0 0.00176235 0 0.00176235 -1.39627e-05 0 0 0 0)
(0 0.00392101 0 0.00392101 4.22018e-06 0 0 0 0)
(0 0.00436379 0 0.00436379 6.59349e-06 0 0 0 0)
(0 0.00441958 0 0.00441958 7.73977e-06 0 0 0 0)
(0 0.00428247 0 0.00428247 1.07277e-05 0 0 0 0)
(0 0.0040378 0 0.0040378 1.30686e-05 0 0 0 0)
(0 0.00373644 0 0.00373644 1.43166e-05 0 0 0 0)
(0 0.00340867 0 0.00340867 1.45471e-05 0 0 0 0)
(0 0.00307276 0 0.00307276 1.39334e-05 0 0 0 0)
(0 0.00273984 0 0.00273984 1.26795e-05 0 0 0 0)
(0 0.00241691 0 0.00241691 1.10124e-05 0 0 0 0)
(0 0.00210877 0 0.00210877 9.16204e-06 0 0 0 0)
(0 0.00181931 0 0.00181931 7.3345e-06 0 0 0 0)
(0 0.00155227 0 0.00155227 5.68648e-06 0 0 0 0)
(0 0.00131129 0 0.00131129 4.30351e-06 0 0 0 0)
(0 0.00109899 0 0.00109899 3.19623e-06 0 0 0 0)
(0 0.000915873 0 0.000915873 2.32868e-06 0 0 0 0)
(0 0.000759856 0 0.000759856 1.66081e-06 0 0 0 0)
(0 0.000627169 0 0.000627169 1.16684e-06 0 0 0 0)
(0 0.000513581 0 0.000513581 8.22795e-07 0 0 0 0)
(0 0.000415193 0 0.000415193 5.94594e-07 0 0 0 0)
(0 0.000328742 0 0.000328742 4.44464e-07 0 0 0 0)
(0 0.000251631 0 0.000251631 3.42484e-07 0 0 0 0)
(0 0.000181871 0 0.000181871 2.69943e-07 0 0 0 0)
(0 0.000117969 0 0.000117969 2.16274e-07 0 0 0 0)
(0 5.88231e-05 0 5.88231e-05 1.7541e-07 0 0 0 0)
(0 3.62103e-06 0 3.62103e-06 1.43617e-07 0 0 0 0)
(0 -4.82389e-05 0 -4.82389e-05 1.18456e-07 0 0 0 0)
(0 -9.72039e-05 0 -9.72039e-05 9.82704e-08 0 0 0 0)
(0 -0.00014361 0 -0.00014361 8.19063e-08 0 0 0 0)
(0 -0.000187715 0 -0.000187715 6.85288e-08 0 0 0 0)
(0 -0.000229716 0 -0.000229716 5.75205e-08 0 0 0 0)
(0 -0.00026977 0 -0.00026977 4.84141e-08 0 0 0 0)
(0 -0.000308002 0 -0.000308002 4.08491e-08 0 0 0 0)
(0 -0.000344514 0 -0.000344514 3.45437e-08 0 0 0 0)
(0 -0.000379389 0 -0.000379389 2.92743e-08 0 0 0 0)
(0 -0.0004127 0 -0.0004127 2.48619e-08 0 0 0 0)
(0 -0.000444507 0 -0.000444507 2.11618e-08 0 0 0 0)
(0 -0.000474864 0 -0.000474864 1.80562e-08 0 0 0 0)
(0 -0.000503817 0 -0.000503817 1.54483e-08 0 0 0 0)
(0 -0.00053141 0 -0.00053141 1.32583e-08 0 0 0 0)
(0 -0.00055768 0 -0.00055768 1.14201e-08 0 0 0 0)
(0 -0.000582663 0 -0.000582663 9.87894e-09 0 0 0 0)
(0 -0.000606393 0 -0.000606393 8.58914e-09 0 0 0 0)
(0 -0.0006289 0 -0.0006289 7.51283e-09 0 0 0 0)
(0 -0.000650213 0 -0.000650213 6.61848e-09 0 0 0 0)
(0 -0.000670362 0 -0.000670362 5.87981e-09 0 0 0 0)
(0 -0.000689373 0 -0.000689373 5.27487e-09 0 0 0 0)
(0 -0.000707271 0 -0.000707271 4.7853e-09 0 0 0 0)
(0 -0.000724082 0 -0.000724082 4.39531e-09 0 0 0 0)
(0 -0.000739833 0 -0.000739833 4.09058e-09 0 0 0 0)
(0 -0.000754559 0 -0.000754559 3.85744e-09 0 0 0 0)
(0 -0.000768321 0 -0.000768321 3.68291e-09 0 0 0 0)
(0 -0.00078134 0 -0.00078134 3.55501e-09 0 0 0 0)
(-5.2395e-17 -0.000793803 0 -0.000793803 3.46437e-09 0 0 0 0)
(0 -0.000805708 0 -0.000805708 3.40307e-09 0 0 0 0)
(0 -0.000817026 0 -0.000817026 3.3615e-09 0 0 0 0)
(5.02163e-17 -0.00082772 0 -0.00082772 3.32898e-09 0 0 0 0)
(0 -0.000837745 0 -0.000837745 3.29518e-09 0 0 0 0)
(-4.87056e-17 -0.00084706 0 -0.00084706 3.2512e-09 0 0 0 0)
(0 -0.00085562 0 -0.00085562 3.19004e-09 0 0 0 0)
(4.71516e-17 -0.00086338 0 -0.00086338 3.10647e-09 0 0 0 0)
(0 -0.000870297 0 -0.000870297 2.9967e-09 0 0 0 0)
(0 -0.000876325 0 -0.000876325 2.85837e-09 0 0 0 0)
(0 -0.000881419 0 -0.000881419 2.69245e-09 0 0 0 0)
(4.39212e-17 -0.000885534 0 -0.000885534 2.50487e-09 0 0 0 0)
(0 -0.000888625 0 -0.000888625 2.30308e-09 0 0 0 0)
(0 -0.000890647 0 -0.000890647 2.09204e-09 0 0 0 0)
(0 -0.000891555 0 -0.000891555 1.87708e-09 0 0 0 0)
(0 -0.000891307 0 -0.000891307 1.66639e-09 0 0 0 0)
(0 -0.000889859 0 -0.000889859 1.4665e-09 0 0 0 0)
(0 -0.000887169 0 -0.000887169 1.27927e-09 0 0 0 0)
(0 -0.000883196 0 -0.000883196 1.10506e-09 0 0 0 0)
(-3.70023e-17 -0.000877901 0 -0.000877901 9.46073e-10 0 0 0 0)
(0 -0.000871246 0 -0.000871246 8.04405e-10 0 0 0 0)
(-3.51817e-17 -0.000863196 0 -0.000863196 6.7901e-10 0 0 0 0)
(0 -0.000853718 0 -0.000853718 5.68119e-10 0 0 0 0)
(0 -0.00084278 0 -0.00084278 4.71638e-10 0 0 0 0)
(0 -0.000830354 0 -0.000830354 3.88952e-10 0 0 0 0)
(0 -0.000816417 0 -0.000816417 3.18356e-10 0 0 0 0)
(3.04807e-17 -0.000800948 0 -0.000800948 2.5847e-10 0 0 0 0)
(2.95163e-17 -0.000783931 0 -0.000783931 2.0835e-10 0 0 0 0)
(0 -0.000765355 0 -0.000765355 1.66462e-10 0 0 0 0)
(0 -0.000745216 0 -0.000745216 1.30312e-10 0 0 0 0)
(0 -0.000723515 0 -0.000723515 9.96967e-11 0 0 0 0)
(0 -0.000700261 0 -0.000700261 8.01193e-11 0 0 0 0)
(0 -0.000675472 0 -0.000675472 7.30866e-11 0 0 0 0)
(0 -0.000649176 0 -0.000649176 6.50909e-11 0 0 0 0)
(0 -0.00062141 0 -0.00062141 4.75537e-11 0 0 0 0)
(0 -0.000592226 0 -0.000592226 3.09285e-11 0 0 0 0)
(0 -0.00056169 0 -0.00056169 2.15671e-11 0 0 0 0)
(0 -0.000529882 0 -0.000529882 1.63368e-11 0 0 0 0)
(0 -0.000496905 0 -0.000496905 1.20309e-11 0 0 0 0)
(0 -0.000462879 0 -0.000462879 9.99394e-12 0 0 0 0)
(0 -0.000427951 0 -0.000427951 8.469e-12 0 0 0 0)
(-3.0948e-17 -0.000392292 0 -0.000392292 2.37827e-12 0 0 0 0)
(1.44687e-17 -0.000356108 0 -0.000356108 -1.11812e-12 0 0 0 0)
(0 -0.000319637 0 -0.000319637 -2.32065e-13 0 0 0 0)
(0 -0.000283155 0 -0.000283155 3.33709e-14 0 0 0 0)
(-2.3025e-17 -0.000246981 0 -0.000246981 1.5162e-14 0 0 0 0)
(0 -0.000211481 0 -0.000211481 -1.12949e-14 0 0 0 0)
(0 -0.000177062 0 -0.000177062 -1.3634e-14 0 0 0 0)
(-1.74245e-17 -0.000144179 0 -0.000144179 -1.18016e-14 0 0 0 0)
(0 -0.000113323 0 -0.000113323 -6.3288e-15 0 0 0 0)
(0 -8.50038e-05 0 -8.50038e-05 1.13885e-14 0 0 0 0)
(0 -5.97292e-05 0 -5.97292e-05 7.59832e-15 0 0 0 0)
(0 -3.79637e-05 0 -3.79637e-05 -3.80343e-13 0 0 0 0)
(0 -2.00804e-05 0 -2.00804e-05 1.04845e-12 0 0 0 0)
(0 -6.30821e-06 0 -6.30821e-06 -1.79726e-12 0 0 0 0)
(0 3.3122e-06 0 3.3122e-06 2.38241e-12 0 0 0 0)
(0 8.95344e-06 0 8.95344e-06 -2.72094e-12 0 0 0 0)
(0 1.10067e-05 0 1.10067e-05 2.71978e-12 0 0 0 0)
(0 1.00831e-05 0 1.00831e-05 -2.39697e-12 0 0 0 0)
(0 7.05038e-06 0 7.05038e-06 1.77779e-12 0 0 0 0)
(0 2.79818e-06 0 2.79818e-06 -9.54844e-13 0 0 0 0)
(0 3.33093e-07 0 3.33093e-07 2.67986e-13 0 0 0 0)
(0 2.25279e-08 0 2.25279e-08 -1.24752e-13 0 0 0 0)
(0 7.92161e-10 0 7.92161e-10 1.17384e-13 0 0 0 0)
(1.12438e-19 2.80342e-11 0 2.80342e-11 -1.15437e-13 0 0 0 0)
(0 8.69542e-12 0 8.69542e-12 1.13522e-13 0 0 0 0)
(0 6.13262e-12 0 6.13262e-12 -1.11833e-13 0 0 0 0)
(0 4.46277e-12 0 4.46277e-12 1.10112e-13 0 0 0 0)
(0 3.23008e-12 0 3.23008e-12 -1.08562e-13 0 0 0 0)
(0 2.32259e-12 0 2.32259e-12 1.06978e-13 0 0 0 0)
(0 1.65885e-12 0 1.65885e-12 -1.05524e-13 0 0 0 0)
(0 1.17684e-12 0 1.17684e-12 1.0404e-13 0 0 0 0)
(0 8.29266e-13 0 8.29266e-13 -1.02648e-13 0 0 0 0)
(0 5.80011e-13 0 5.80011e-13 1.01222e-13 0 0 0 0)
(0 4.02573e-13 0 4.02573e-13 -9.98676e-14 0 0 0 0)
(0 2.77421e-13 0 2.77421e-13 9.84728e-14 0 0 0 0)
(0 1.89933e-13 0 1.89933e-13 -9.71353e-14 0 0 0 0)
(0 1.29065e-13 0 1.29065e-13 9.57516e-14 0 0 0 0)
(0 8.69657e-14 0 8.69657e-14 -9.44127e-14 0 0 0 0)
(0 5.80351e-14 0 5.80351e-14 9.30307e-14 0 0 0 0)
(0 3.84771e-14 0 3.84771e-14 -9.16791e-14 0 0 0 0)
(0 2.52251e-14 0 2.52251e-14 9.02827e-14 0 0 0 0)
(0 1.64048e-14 0 1.64048e-14 -8.89124e-14 0 0 0 0)
(0 1.06997e-14 0 1.06997e-14 8.74933e-14 0 0 0 0)
(0 6.81901e-15 0 6.81901e-15 -8.61028e-14 0 0 0 0)
(0 4.31225e-15 0 4.31225e-15 8.46514e-14 0 0 0 0)
(0 2.68167e-15 0 2.68167e-15 -8.32296e-14 0 0 0 0)
(0 1.62324e-15 0 1.62324e-15 8.17527e-14 0 0 0 0)
(0 1.07831e-15 0 1.07831e-15 -8.03003e-14 0 0 0 0)
(0 6.85048e-16 0 6.85048e-16 7.87895e-14 0 0 0 0)
(0 3.75419e-16 0 3.75419e-16 -7.73067e-14 0 0 0 0)
(0 2.12143e-16 0 2.12143e-16 7.57632e-14 0 0 0 0)
(0 2.14873e-16 0 2.14873e-16 -7.42445e-14 0 0 0 0)
(0 1.82347e-16 0 1.82347e-16 7.26735e-14 0 0 0 0)
(1.23064e-19 -5.20253e-17 0 -5.20253e-17 -7.11147e-14 0 0 0 0)
(0 -9.96286e-17 0 -9.96286e-17 6.95258e-14 0 0 0 0)
(0 3.33961e-18 0 3.33961e-18 -6.79255e-14 0 0 0 0)
(0 6.97215e-17 0 6.97215e-17 6.6307e-14 0 0 0 0)
(0 1.23695e-16 0 1.23695e-16 -6.46724e-14 0 0 0 0)
(0 5.3619e-17 0 5.3619e-17 6.30246e-14 0 0 0 0)
(0 -9.20143e-17 0 -9.20143e-17 -6.13552e-14 0 0 0 0)
(0 -8.19512e-17 0 -8.19512e-17 5.96709e-14 0 0 0 0)
(0 2.40491e-17 0 2.40491e-17 -5.79665e-14 0 0 0 0)
(0 1.04065e-16 0 1.04065e-16 5.62486e-14 0 0 0 0)
(0 -2.67508e-17 0 -2.67508e-17 -5.45075e-14 0 0 0 0)
(0 -7.54001e-17 0 -7.54001e-17 5.2747e-14 0 0 0 0)
(0 5.57454e-17 0 5.57454e-17 -5.09671e-14 0 0 0 0)
(0 -2.15134e-17 0 -2.15134e-17 4.92006e-14 0 0 0 0)
(0 -9.29354e-17 0 -9.29354e-17 -5.4234e-14 0 0 0 0)
(0 -4.95779e-17 0 -4.95779e-17 5.36306e-14 0 0 0 0)
(0 3.79577e-17 0 3.79577e-17 -5.30652e-14 0 0 0 0)
(0 2.96462e-17 0 2.96462e-17 5.2491e-14 0 0 0 0)
(0 7.17331e-18 0 7.17331e-18 -5.19131e-14 0 0 0 0)
(0 4.26693e-17 0 4.26693e-17 5.13253e-14 0 0 0 0)
(0 -3.12608e-17 0 -3.12608e-17 -5.07357e-14 0 0 0 0)
(0 -1.19114e-17 0 -1.19114e-17 5.01346e-14 0 0 0 0)
(0 3.55754e-17 0 3.55754e-17 -4.95322e-14 0 0 0 0)
(0 -8.83297e-17 0 -8.83297e-17 4.89151e-14 0 0 0 0)
(0 -4.29869e-17 0 -4.29869e-17 -4.82988e-14 0 0 0 0)
(0 5.43425e-17 0 5.43425e-17 4.76676e-14 0 0 0 0)
(0 4.41781e-17 0 4.41781e-17 -4.70357e-14 0 0 0 0)
(0 1.48231e-17 0 1.48231e-17 4.63853e-14 0 0 0 0)
(0 -6.00864e-18 0 -6.00864e-18 -4.57384e-14 0 0 0 0)
(0 -1.33937e-17 0 -1.33937e-17 4.50678e-14 0 0 0 0)
(0 -2.2367e-17 0 -2.2367e-17 -4.44005e-14 0 0 0 0)
(0 3.8143e-17 0 3.8143e-17 4.37233e-14 0 0 0 0)
(0 5.45277e-18 0 5.45277e-18 -4.30422e-14 0 0 0 0)
(0 -7.04096e-18 0 -7.04096e-18 4.23295e-14 0 0 0 0)
(0 -5.9557e-18 0 -5.9557e-18 -4.16377e-14 0 0 0 0)
(0 -3.16049e-17 0 -3.16049e-17 4.0906e-14 0 0 0 0)
(0 1.82641e-18 0 1.82641e-18 -4.01902e-14 0 0 0 0)
(0 3.46225e-17 0 3.46225e-17 3.94241e-14 0 0 0 0)
(0 6.2204e-18 0 6.2204e-18 -3.86909e-14 0 0 0 0)
(0 -3.97047e-18 0 -3.97047e-18 3.78767e-14 0 0 0 0)
(0 -1.39496e-17 0 -1.39496e-17 -3.71126e-14 0 0 0 0)
(0 -5.58512e-18 0 -5.58512e-18 3.62775e-14 0 0 0 0)
(0 -4.04723e-17 0 -4.04723e-17 -3.549e-14 0 0 0 0)
(0 -1.55933e-16 0 -1.55933e-16 3.45751e-14 0 0 0 0)
(0 -3.71424e-16 0 -3.71424e-16 -3.37734e-14 0 0 0 0)
(0 -1.64113e-18 0 -1.64113e-18 3.27873e-14 0 0 0 0)
(0 3.74521e-16 0 3.74521e-16 -3.19771e-14 0 0 0 0)
(0 1.49395e-16 0 1.49395e-16 3.08822e-14 0 0 0 0)
(0 2.99903e-17 0 2.99903e-17 -3.00375e-14 0 0 0 0)
(0 1.15673e-17 0 1.15673e-17 2.88809e-14 0 0 0 0)
(0 6.00864e-17 0 6.00864e-17 -2.80086e-14 0 0 0 0)
(0 2.73698e-17 0 2.73698e-17 2.66825e-14 0 0 0 0)
(0 -2.83227e-17 0 -2.83227e-17 -2.57997e-14 0 0 0 0)
(0 -1.06859e-16 0 -1.06859e-16 2.43105e-14 0 0 0 0)
(0 9.05266e-18 0 9.05266e-18 -2.3402e-14 0 0 0 0)
(0 1.63848e-16 0 1.63848e-16 2.16446e-14 0 0 0 0)
(0 9.21678e-17 0 9.21678e-17 -2.07977e-14 0 0 0 0)
(0 -4.83603e-17 0 -4.83603e-17 1.86243e-14 0 0 0 0)
(0 -7.71065e-17 0 -7.71065e-17 -1.75644e-14 0 0 0 0)
(0 -6.28922e-17 0 -6.28922e-17 1.51404e-14 0 0 0 0)
(0 -4.5131e-17 0 -4.5131e-17 -1.35953e-14 0 0 0 0)
(0 2.80315e-17 0 2.80315e-17 1.07277e-14 0 0 0 0)
(0 -6.72332e-17 0 -6.72332e-17 -6.40374e-15 0 0 0 0)
(0 -9.22207e-17 0 -9.22207e-17 4.77299e-15 0 0 0 0)
)
;

boundaryField
{
    inandouthalf11
    {
        type            cyclic;
    }
    inandouthalf12
    {
        type            cyclic;
    }
    inandouthalf21
    {
        type            cyclic;
    }
    inandouthalf22
    {
        type            cyclic;
    }
    inandouthalf31
    {
        type            cyclic;
    }
    inandouthalf32
    {
        type            cyclic;
    }
    inandouthalf41
    {
        type            cyclic;
    }
    inandouthalf42
    {
        type            cyclic;
    }
    top
    {
        type            symmetryPlane;
    }
    walls
    {
        type            zeroGradient;
    }
    frontAndBackPlanes
    {
        type            empty;
    }
}


// ************************************************************************* //
