/*--------------------------------*- C++ -*----------------------------------*\
| =========                 |                                                 |
| \\      /  F ield         | OpenFOAM: The Open Source CFD Toolbox           |
|  \\    /   O peration     | Version:  2.4.x                                 |
|   \\  /    A nd           | Web:      www.OpenFOAM.org                      |
|    \\/     M anipulation  |                                                 |
\*---------------------------------------------------------------------------*/
FoamFile
{
    version     2.0;
    format      ascii;
    class       volScalarField;
    location    "8.1";
    object      Theta;
}
// * * * * * * * * * * * * * * * * * * * * * * * * * * * * * * * * * * * * * //

dimensions      [0 2 -2 0 0 0 0];

internalField   nonuniform List<scalar> 
360
(
6.66213e-21
6.66387e-21
6.66316e-21
6.66304e-21
6.66322e-21
6.66333e-21
6.66335e-21
6.66335e-21
6.66334e-21
6.66334e-21
6.66333e-21
6.66332e-21
6.6633e-21
6.66329e-21
6.66327e-21
6.66324e-21
6.66322e-21
6.6632e-21
6.66318e-21
6.66315e-21
6.66313e-21
6.66311e-21
6.66308e-21
6.66306e-21
6.66304e-21
6.66302e-21
6.663e-21
6.66299e-21
6.66297e-21
6.66296e-21
6.66294e-21
6.66293e-21
6.66292e-21
6.66291e-21
6.6629e-21
6.66289e-21
6.66288e-21
6.66287e-21
6.66286e-21
6.66286e-21
6.66285e-21
6.66285e-21
6.66284e-21
6.66284e-21
6.66284e-21
6.66283e-21
6.66283e-21
6.66282e-21
6.66282e-21
6.66282e-21
6.66281e-21
6.66281e-21
6.6628e-21
6.6628e-21
6.66279e-21
6.66279e-21
6.66278e-21
6.66277e-21
6.66277e-21
6.66276e-21
6.66275e-21
6.66274e-21
6.66273e-21
6.66272e-21
6.66271e-21
6.6627e-21
6.66269e-21
6.66267e-21
6.66266e-21
6.66264e-21
6.66263e-21
6.66261e-21
6.66259e-21
6.66258e-21
6.66256e-21
6.66254e-21
6.66253e-21
6.66251e-21
6.66248e-21
6.66246e-21
6.66244e-21
6.66242e-21
6.6624e-21
6.66238e-21
6.66235e-21
6.66233e-21
6.66231e-21
6.66229e-21
6.66226e-21
6.66224e-21
6.66221e-21
6.66219e-21
6.66217e-21
6.66214e-21
6.66212e-21
6.66209e-21
6.66207e-21
6.66205e-21
6.66203e-21
6.662e-21
6.66198e-21
6.66196e-21
6.66194e-21
6.66191e-21
6.66189e-21
6.66187e-21
6.66185e-21
6.66183e-21
6.66181e-21
6.6618e-21
6.66178e-21
6.66176e-21
6.66175e-21
6.66174e-21
6.66173e-21
6.66172e-21
6.66171e-21
6.66171e-21
6.6617e-21
6.6617e-21
6.66171e-21
6.66171e-21
6.66171e-21
6.66171e-21
6.66171e-21
6.66171e-21
6.66171e-21
6.6617e-21
6.66168e-21
6.66166e-21
6.66163e-21
6.6616e-21
6.66157e-21
6.66153e-21
6.6615e-21
6.65564e-21
3.37703e-20
4.72561e-19
7.7294e-18
1.39733e-16
2.80867e-15
6.34105e-14
1.62772e-12
4.89978e-11
3.56067e-09
5.39083e-07
2.0821e-05
0.000263852
0.00174877
0.00367895
0.00450482
0.00490458
0.00509517
0.00515652
0.00512194
0.00500814
0.00482724
0.00459398
0.00432509
0.00403981
0.00375761
0.00349517
0.00326364
0.00306746
0.00290521
0.00277211
0.0026626
0.00257182
0.00249597
0.00243217
0.00237821
0.00233235
0.00229322
0.00225969
0.00223081
0.00220582
0.00218406
0.00216495
0.00214803
0.00213288
0.00211914
0.00210649
0.00209468
0.00208347
0.00207265
0.00206204
0.00205151
0.00204091
0.00203014
0.0020191
0.0020077
0.00199589
0.00198361
0.00197082
0.00195747
0.00194354
0.00192902
0.0019139
0.00189816
0.00188181
0.00186485
0.00184711
0.00182839
0.00180866
0.00178789
0.00176605
0.0017431
0.00171901
0.00169376
0.00166731
0.00163963
0.00161068
0.00158044
0.00154887
0.00151592
0.00148155
0.00144571
0.00140834
0.00136939
0.00132878
0.00128642
0.00124222
0.00119606
0.00114781
0.00109731
0.00104438
0.000988787
0.000930249
0.000868419
0.000802847
0.000732942
0.000657888
0.000576502
0.000486936
0.000385936
0.000266407
0
0
0
0
0
0
0
0
0
0
0
0
0
0
0
0
0
0
0
0
0
0
0
0
0
0
0
0
0
0
0
0
0
0
0
0
0
0
0
0
0
0
0
0
0
0
0
0
0
0
0
0
0
0
0
0
0
0
0
0
0
0
0
0
0
0
0
0
0
0
0
0
0
0
0
0
0
0
0
0
0
0
0
0
0
0
0
0
0
0
0
0
0
0
0
0
0
0
0
0
0
0
0
0
0
0
0
0
0
0
0
0
0
0
0
0
0
0
0
0
0
0
0
0
)
;

boundaryField
{
    inandouthalf11
    {
        type            cyclic;
    }
    inandouthalf12
    {
        type            cyclic;
    }
    inandouthalf21
    {
        type            cyclic;
    }
    inandouthalf22
    {
        type            cyclic;
    }
    inandouthalf31
    {
        type            cyclic;
    }
    inandouthalf32
    {
        type            cyclic;
    }
    inandouthalf41
    {
        type            cyclic;
    }
    inandouthalf42
    {
        type            cyclic;
    }
    top
    {
        type            symmetryPlane;
    }
    walls
    {
        type            zeroGradient;
    }
    frontAndBackPlanes
    {
        type            empty;
    }
}


// ************************************************************************* //
