/*--------------------------------*- C++ -*----------------------------------*\
| =========                 |                                                 |
| \\      /  F ield         | OpenFOAM: The Open Source CFD Toolbox           |
|  \\    /   O peration     | Version:  2.4.x                                 |
|   \\  /    A nd           | Web:      www.OpenFOAM.org                      |
|    \\/     M anipulation  |                                                 |
\*---------------------------------------------------------------------------*/
FoamFile
{
    version     2.0;
    format      ascii;
    class       volScalarField;
    location    "8.1";
    object      tmf;
}
// * * * * * * * * * * * * * * * * * * * * * * * * * * * * * * * * * * * * * //

dimensions      [0 0 0 0 0 0 0];

internalField   nonuniform List<scalar> 
360
(
0.999207
0.999209
0.99921
0.999209
0.999209
0.999209
0.999209
0.999209
0.999209
0.999209
0.999209
0.999209
0.999209
0.999209
0.999209
0.999208
0.999208
0.999208
0.999208
0.999208
0.999208
0.999208
0.999208
0.999208
0.999208
0.999208
0.999207
0.999207
0.999207
0.999207
0.999207
0.999207
0.999207
0.999207
0.999207
0.999207
0.999207
0.999206
0.999206
0.999206
0.999206
0.999206
0.999206
0.999206
0.999206
0.999206
0.999205
0.999205
0.999205
0.999205
0.999205
0.999205
0.999205
0.999205
0.999205
0.999204
0.999204
0.999204
0.999204
0.999204
0.999204
0.999204
0.999204
0.999203
0.999203
0.999203
0.999203
0.999203
0.999203
0.999203
0.999202
0.999202
0.999202
0.999202
0.999202
0.999202
0.999201
0.999201
0.999201
0.999201
0.999201
0.999201
0.9992
0.9992
0.9992
0.9992
0.9992
0.9992
0.999199
0.999199
0.999199
0.999199
0.999199
0.999198
0.999198
0.999198
0.999198
0.999197
0.999197
0.999197
0.999197
0.999196
0.999196
0.999196
0.999196
0.999195
0.999195
0.999195
0.999194
0.999194
0.999194
0.999194
0.999193
0.999193
0.999192
0.999192
0.999192
0.999191
0.999191
0.999191
0.99919
0.99919
0.999189
0.999189
0.999188
0.999188
0.999187
0.999187
0.999186
0.999186
0.999185
0.999185
0.999184
0.999183
0.999182
0.998296
0.996867
0.996274
0.995642
0.994867
0.993902
0.992691
0.991163
0.989225
0.986761
0.983605
0.979483
0.970984
0.906501
0.861852
0.850087
0.853031
0.857485
0.862936
0.869377
0.876875
0.885444
0.895006
0.905394
0.916333
0.92745
0.938304
0.948448
0.957497
0.965197
0.971463
0.976378
0.980143
0.982992
0.985148
0.986791
0.988056
0.989043
0.989823
0.990447
0.990954
0.991368
0.991711
0.991998
0.992238
0.992442
0.992616
0.992765
0.992894
0.993004
0.9931
0.993184
0.993256
0.993319
0.993374
0.993422
0.993463
0.993498
0.993528
0.993553
0.993574
0.99359
0.993603
0.993612
0.993617
0.993618
0.993617
0.993611
0.993603
0.99359
0.993574
0.993555
0.993531
0.993504
0.993473
0.993437
0.993397
0.993353
0.993304
0.993249
0.993189
0.993123
0.99305
0.992969
0.992881
0.992783
0.992674
0.992553
0.992417
0.992262
0.992087
0.991884
0.991653
0.991407
0.991255
0.991448
0.991876
0.99232
0.992733
0.993115
0.99347
0.993796
0.992939
0.993158
0.993271
0.993549
0.993548
0.994204
0.994693
0.99588
0.996026
0.996178
0.99634
0.996509
0.996688
0.996874
0.997068
0.997269
0.997473
0.99768
0.997884
0.998082
0.99827
0.998446
0.998611
0.99877
0.99894
0.999143
0.999314
0.99937
0.999366
0.999359
0.999352
0.999345
0.999338
0.999319
0.998524
0.9942
0.9942
0.9942
0.9942
0.9942
0.9942
0.9942
0.9942
0.9942
0.9942
0.9942
0.9942
0.9942
0.9942
0.9942
0.9942
0.9942
0.9942
0.9942
0.9942
0.9942
0.9942
0.9942
0.9942
0.9942
0.9942
0.9942
0.9942
0.9942
0.9942
0.9942
0.9942
0.9942
0.9942
0.9942
0.9942
0.9942
0.9942
0.9942
0.9942
0.9942
0.9942
0.9942
0.9942
0.9942
0.9942
0.9942
0.9942
0.9942
0.9942
0.9942
0.9942
0.9942
0.9942
0.9942
0.9942
0.9942
0.9942
0.9942
0.9942
0.9942
0.9942
0.9942
0.9942
0.9942
0.9942
0.9942
0.9942
0.9942
0.9942
0.9942
0.9942
0.9942
0.9942
0.9942
0.9942
0.9942
0.9942
0.9942
0.9942
0.9942
0.9942
0.9942
0.9942
0.9942
0.9942
0.994185
0.993282
)
;

boundaryField
{
    inandouthalf11
    {
        type            cyclic;
    }
    inandouthalf12
    {
        type            cyclic;
    }
    inandouthalf21
    {
        type            cyclic;
    }
    inandouthalf22
    {
        type            cyclic;
    }
    inandouthalf31
    {
        type            cyclic;
    }
    inandouthalf32
    {
        type            cyclic;
    }
    inandouthalf41
    {
        type            cyclic;
    }
    inandouthalf42
    {
        type            cyclic;
    }
    top
    {
        type            symmetryPlane;
    }
    walls
    {
        type            calculated;
        value           uniform 0;
    }
    frontAndBackPlanes
    {
        type            empty;
    }
}


// ************************************************************************* //
