/*--------------------------------*- C++ -*----------------------------------*\
| =========                 |                                                 |
| \\      /  F ield         | OpenFOAM: The Open Source CFD Toolbox           |
|  \\    /   O peration     | Version:  2.4.x                                 |
|   \\  /    A nd           | Web:      www.OpenFOAM.org                      |
|    \\/     M anipulation  |                                                 |
\*---------------------------------------------------------------------------*/
FoamFile
{
    version     2.0;
    format      ascii;
    class       volVectorField;
    location    "8.1";
    object      U;
}
// * * * * * * * * * * * * * * * * * * * * * * * * * * * * * * * * * * * * * //

dimensions      [0 1 -1 0 0 0 0];

internalField   nonuniform List<vector> 
360
(
(0.000103355 1.20614e-08 0)
(0.0001026 -2.26052e-09 0)
(0.000102511 -2.12543e-09 0)
(0.000102627 1.55739e-10 0)
(0.000102695 5.05708e-10 0)
(0.000102731 1.48404e-10 0)
(0.000102769 -1.29269e-11 0)
(0.000102813 -2.04969e-11 0)
(0.000102858 -1.28383e-11 0)
(0.000102903 -1.39819e-11 0)
(0.000102948 -2.08035e-11 0)
(0.000102993 -3.15979e-11 0)
(0.000103038 -4.10352e-11 0)
(0.000103083 -4.75194e-11 0)
(0.000103128 -5.08015e-11 0)
(0.000103173 -5.23041e-11 0)
(0.000103219 -5.38833e-11 0)
(0.000103264 -5.5392e-11 0)
(0.000103309 -5.66682e-11 0)
(0.000103355 -5.65261e-11 0)
(0.000103401 -5.73794e-11 0)
(0.000103447 -5.57845e-11 0)
(0.000103493 -5.42697e-11 0)
(0.000103539 -5.29323e-11 0)
(0.000103585 -5.11788e-11 0)
(0.000103631 -4.90486e-11 0)
(0.000103678 -4.68688e-11 0)
(0.000103724 -4.32746e-11 0)
(0.000103771 -4.1068e-11 0)
(0.000103818 -3.86647e-11 0)
(0.000103865 -3.64071e-11 0)
(0.000103913 -3.18185e-11 0)
(0.00010396 -3.18997e-11 0)
(0.000104008 -2.5956e-11 0)
(0.000104056 -2.62981e-11 0)
(0.000104105 -2.31514e-11 0)
(0.000104153 -2.13434e-11 0)
(0.000104202 -1.90403e-11 0)
(0.000104252 -1.52384e-11 0)
(0.000104301 -1.82923e-11 0)
(0.000104351 -1.30757e-11 0)
(0.000104401 -1.25627e-11 0)
(0.000104451 -1.50849e-11 0)
(0.000104502 -9.40014e-12 0)
(0.000104554 -1.10319e-11 0)
(0.000104605 -1.15733e-11 0)
(0.000104657 -1.01912e-11 0)
(0.000104709 -1.4078e-11 0)
(0.000104762 -1.1713e-11 0)
(0.000104815 -7.49904e-12 0)
(0.000104869 -1.4717e-11 0)
(0.000104923 -1.2109e-11 0)
(0.000104977 -1.45752e-11 0)
(0.000105032 -1.28453e-11 0)
(0.000105087 -1.90679e-11 0)
(0.000105143 -1.40579e-11 0)
(0.000105199 -2.2076e-11 0)
(0.000105256 -2.0795e-11 0)
(0.000105313 -2.28303e-11 0)
(0.00010537 -2.93762e-11 0)
(0.000105429 -2.14902e-11 0)
(0.000105487 -2.89381e-11 0)
(0.000105546 -2.61642e-11 0)
(0.000105606 -3.11244e-11 0)
(0.000105666 -3.27984e-11 0)
(0.000105727 -3.70902e-11 0)
(0.000105788 -3.84684e-11 0)
(0.00010585 -4.16855e-11 0)
(0.000105912 -4.44276e-11 0)
(0.000105975 -4.97469e-11 0)
(0.000106039 -4.65067e-11 0)
(0.000106104 -4.46829e-11 0)
(0.000106168 -5.51791e-11 0)
(0.000106234 -4.97594e-11 0)
(0.0001063 -5.46663e-11 0)
(0.000106368 -5.41665e-11 0)
(0.000106435 -6.22094e-11 0)
(0.000106504 -6.56432e-11 0)
(0.000106573 -6.78432e-11 0)
(0.000106643 -6.92905e-11 0)
(0.000106714 -7.31792e-11 0)
(0.000106785 -7.2974e-11 0)
(0.000106858 -7.26637e-11 0)
(0.000106931 -7.38951e-11 0)
(0.000107006 -7.45868e-11 0)
(0.000107081 -7.71978e-11 0)
(0.000107157 -7.92173e-11 0)
(0.000107235 -8.30909e-11 0)
(0.000107313 -8.66907e-11 0)
(0.000107392 -8.90378e-11 0)
(0.000107473 -9.08719e-11 0)
(0.000107555 -9.22913e-11 0)
(0.000107638 -9.22698e-11 0)
(0.000107722 -9.21756e-11 0)
(0.000107808 -9.228e-11 0)
(0.000107895 -9.26473e-11 0)
(0.000107983 -9.34357e-11 0)
(0.000108073 -9.46871e-11 0)
(0.000108164 -9.6195e-11 0)
(0.000108258 -9.76554e-11 0)
(0.000108352 -9.90445e-11 0)
(0.000108449 -1.00231e-10 0)
(0.000108547 -1.01077e-10 0)
(0.000108648 -1.01647e-10 0)
(0.00010875 -1.01921e-10 0)
(0.000108855 -1.01793e-10 0)
(0.000108961 -1.01175e-10 0)
(0.00010907 -9.9937e-11 0)
(0.000109182 -9.79286e-11 0)
(0.000109296 -9.50287e-11 0)
(0.000109413 -9.11433e-11 0)
(0.000109532 -8.62081e-11 0)
(0.000109654 -8.02086e-11 0)
(0.00010978 -7.31853e-11 0)
(0.000109909 -6.52472e-11 0)
(0.000110041 -5.65947e-11 0)
(0.000110177 -4.75386e-11 0)
(0.000110316 -3.85174e-11 0)
(0.00011046 -3.01186e-11 0)
(0.000110608 -2.30964e-11 0)
(0.00011076 -1.83634e-11 0)
(0.000110917 -1.69338e-11 0)
(0.000111078 -1.98081e-11 0)
(0.000111245 -2.77945e-11 0)
(0.000111418 -4.13072e-11 0)
(0.000111596 -6.02743e-11 0)
(0.000111781 -8.42765e-11 0)
(0.000111972 -1.12848e-10 0)
(0.000112172 -1.45568e-10 0)
(0.000112379 -1.81696e-10 0)
(0.000112595 -2.198e-10 0)
(0.00011282 -2.58526e-10 0)
(0.000113056 -2.94805e-10 0)
(0.000113303 -3.1603e-10 0)
(0.000113566 -3.0694e-10 0)
(0.000113843 -2.85484e-10 0)
(0.000114134 -3.00213e-10 0)
(0.000114442 -3.8696e-10 0)
(0.000114783 -5.18049e-10 0)
(0.000115174 -5.25381e-10 0)
(0.000115598 -4.56426e-10 0)
(0.000116009 -1.58099e-09 0)
(0.000116504 -2.01727e-09 0)
(0.000117145 -2.4766e-09 0)
(0.000117951 1.44786e-07 0)
(0.00011952 -1.88474e-06 0)
(0.000126094 8.01443e-06 0)
(0.00718636 -1.35353e-06 0)
(0.100958 -0.000213282 0)
(0.234357 -6.56414e-05 0)
(0.339284 -6.28355e-06 0)
(0.425543 -7.08285e-06 0)
(0.498445 -7.11192e-06 0)
(0.56108 -5.87265e-06 0)
(0.61549 -4.62745e-06 0)
(0.663111 -3.66948e-06 0)
(0.704985 -2.87619e-06 0)
(0.741878 -2.19824e-06 0)
(0.774347 -1.60204e-06 0)
(0.802778 -1.08213e-06 0)
(0.82742 -6.35012e-07 0)
(0.848431 -2.7647e-07 0)
(0.865929 -4.47811e-08 0)
(0.880076 5.02644e-08 0)
(0.891145 6.89815e-08 0)
(0.899541 7.71661e-08 0)
(0.905752 8.09608e-08 0)
(0.910265 6.83697e-08 0)
(0.913504 4.70225e-08 0)
(0.9158 2.90239e-08 0)
(0.917398 1.77619e-08 0)
(0.918471 1.13802e-08 0)
(0.919145 7.66596e-09 0)
(0.919508 5.35029e-09 0)
(0.919624 3.82751e-09 0)
(0.919538 2.79655e-09 0)
(0.919286 2.07617e-09 0)
(0.918894 1.56154e-09 0)
(0.918381 1.18624e-09 0)
(0.917763 9.07717e-10 0)
(0.917052 6.98006e-10 0)
(0.91626 5.38202e-10 0)
(0.915395 4.15196e-10 0)
(0.914463 3.19715e-10 0)
(0.913471 2.45082e-10 0)
(0.912423 1.86411e-10 0)
(0.911326 1.40076e-10 0)
(0.910182 1.03351e-10 0)
(0.908995 7.41651e-11 0)
(0.907768 5.09427e-11 0)
(0.906506 3.2477e-11 0)
(0.905209 1.78346e-11 0)
(0.903881 6.27483e-12 0)
(0.902525 -2.80598e-12 0)
(0.901141 -9.88262e-12 0)
(0.899733 -1.52945e-11 0)
(0.898302 -1.92698e-11 0)
(0.896851 -2.20444e-11 0)
(0.89538 -2.39205e-11 0)
(0.893891 -2.51982e-11 0)
(0.892386 -2.59766e-11 0)
(0.890851 -2.73027e-11 0)
(0.88927 -2.76549e-11 0)
(0.887642 -2.77684e-11 0)
(0.885968 -2.75456e-11 0)
(0.884247 -2.72293e-11 0)
(0.882477 -2.6323e-11 0)
(0.88066 -2.51501e-11 0)
(0.878794 -2.32916e-11 0)
(0.87688 -2.13603e-11 0)
(0.874917 -1.8772e-11 0)
(0.872904 -1.72016e-11 0)
(0.870843 -1.57518e-11 0)
(0.868732 -1.20786e-11 0)
(0.866573 -8.48667e-12 0)
(0.864365 -7.91832e-12 0)
(0.862108 -6.23098e-12 0)
(0.859804 -2.6758e-12 0)
(0.857452 -7.21194e-13 0)
(0.855053 2.67188e-13 0)
(0.852608 2.5626e-15 0)
(0.850118 1.71667e-12 0)
(0.847583 3.83423e-12 0)
(0.845006 2.4416e-12 0)
(0.842387 2.83748e-12 0)
(0.839729 3.84716e-12 0)
(0.837032 3.53485e-12 0)
(0.834299 3.24016e-12 0)
(0.831532 3.44453e-12 0)
(0.828734 2.85378e-12 0)
(0.825908 4.57996e-12 0)
(0.823056 5.917e-13 0)
(0.820183 8.0357e-13 0)
(0.817292 -1.07331e-12 0)
(0.814387 1.93354e-11 0)
(0.811475 -1.07504e-11 0)
(0.808559 -3.27634e-12 0)
(0.805646 1.11407e-11 0)
(0.802744 1.39042e-11 0)
(0.799859 -2.38962e-11 0)
(0.797 4.19302e-11 0)
(0.794177 -4.39015e-11 0)
(0.7914 5.86897e-11 0)
(0.78868 9.57118e-12 0)
(0.786032 3.34749e-12 0)
(0.783469 1.43226e-12 0)
(0.781009 1.54395e-12 0)
(0.778668 1.71586e-12 0)
(0.776467 1.68132e-12 0)
(0.774428 1.60213e-12 0)
(0.772572 1.53138e-12 0)
(0.770925 1.45869e-12 0)
(0.76951 1.44642e-12 0)
(0.76835 1.63336e-12 0)
(0.767464 1.57429e-12 0)
(0.766865 -5.89766e-12 0)
(0.766556 2.57392e-11 0)
(0.766532 -5.48556e-11 0)
(0.76677 1.0403e-10 0)
(0.767236 -1.65769e-10 0)
(0.767876 2.47382e-10 0)
(0.768619 -3.40089e-10 0)
(0.769356 4.47765e-10 0)
(0.769804 -5.60801e-10 0)
(0.769878 6.817e-10 0)
(0.769881 -8.03489e-10 0)
(0.769881 9.305e-10 0)
(0.769881 -1.0583e-09 0)
(0.769881 1.19123e-09 0)
(0.769881 -1.32544e-09 0)
(0.769881 1.46481e-09 0)
(0.769881 -1.6059e-09 0)
(0.769881 1.75217e-09 0)
(0.769881 -1.90055e-09 0)
(0.769881 2.05414e-09 0)
(0.769881 -2.21016e-09 0)
(0.769881 2.37145e-09 0)
(0.769881 -2.53544e-09 0)
(0.769881 2.70473e-09 0)
(0.769881 -2.87699e-09 0)
(0.769881 3.05457e-09 0)
(0.769881 -3.23536e-09 0)
(0.769881 3.42149e-09 0)
(0.769881 -3.61103e-09 0)
(0.769881 3.80593e-09 0)
(0.769881 -4.00444e-09 0)
(0.769881 4.2083e-09 0)
(0.769881 -4.41597e-09 0)
(0.769881 4.62895e-09 0)
(0.769881 -4.84593e-09 0)
(0.769881 5.06817e-09 0)
(0.769881 -5.29461e-09 0)
(0.769881 5.52623e-09 0)
(0.769881 -5.76223e-09 0)
(0.769881 6.00332e-09 0)
(0.769881 -6.24898e-09 0)
(0.769881 6.49963e-09 0)
(0.769881 -6.75496e-09 0)
(0.769881 7.01526e-09 0)
(0.769881 -7.28028e-09 0)
(0.769881 7.55025e-09 0)
(0.769881 -7.82494e-09 0)
(0.769881 8.10458e-09 0)
(0.769881 -8.38889e-09 0)
(0.769881 8.67812e-09 0)
(0.769881 -8.97196e-09 0)
(0.769881 9.27068e-09 0)
(0.769881 -9.57389e-09 0)
(0.769881 9.8819e-09 0)
(0.769881 -1.01943e-08 0)
(0.769881 9.22837e-09 0)
(0.769881 -9.33614e-09 0)
(0.769881 9.4429e-09 0)
(0.769881 -9.5484e-09 0)
(0.769881 9.65286e-09 0)
(0.769881 -9.75605e-09 0)
(0.769881 9.85816e-09 0)
(0.769881 -9.95899e-09 0)
(0.769881 1.00587e-08 0)
(0.769881 -1.01571e-08 0)
(0.769881 1.02544e-08 0)
(0.769881 -1.03503e-08 0)
(0.769881 1.0445e-08 0)
(0.769881 -1.05385e-08 0)
(0.769881 1.06306e-08 0)
(0.769881 -1.07214e-08 0)
(0.769881 1.08108e-08 0)
(0.769881 -1.0899e-08 0)
(0.769881 1.09857e-08 0)
(0.769881 -1.10712e-08 0)
(0.769881 1.11551e-08 0)
(0.769881 -1.12377e-08 0)
(0.769881 1.13187e-08 0)
(0.769881 -1.13985e-08 0)
(0.769881 1.14764e-08 0)
(0.769881 -1.15533e-08 0)
(0.769881 1.16279e-08 0)
(0.769881 -1.17017e-08 0)
(0.769881 1.1773e-08 0)
(0.769881 -1.18437e-08 0)
(0.769881 1.19113e-08 0)
(0.769881 -1.19788e-08 0)
(0.769881 1.20424e-08 0)
(0.769881 -1.21067e-08 0)
(0.769881 1.2166e-08 0)
(0.769881 -1.22268e-08 0)
(0.769881 1.22815e-08 0)
(0.769881 -1.23389e-08 0)
(0.769881 1.23882e-08 0)
(0.769881 -1.24421e-08 0)
(0.769881 1.24855e-08 0)
(0.769881 -1.25357e-08 0)
(0.769881 1.2572e-08 0)
(0.769881 -1.26189e-08 0)
(0.769881 1.26465e-08 0)
(0.769881 -1.26891e-08 0)
(0.769881 1.27071e-08 0)
(0.769881 -1.27435e-08 0)
(0.769881 1.275e-08 0)
(0.769881 -1.27691e-08 0)
)
;

boundaryField
{
    inandouthalf11
    {
        type            cyclic;
    }
    inandouthalf12
    {
        type            cyclic;
    }
    inandouthalf21
    {
        type            cyclic;
    }
    inandouthalf22
    {
        type            cyclic;
    }
    inandouthalf31
    {
        type            cyclic;
    }
    inandouthalf32
    {
        type            cyclic;
    }
    inandouthalf41
    {
        type            cyclic;
    }
    inandouthalf42
    {
        type            cyclic;
    }
    top
    {
        type            symmetryPlane;
    }
    walls
    {
        type            calculated;
        value           uniform (0 0 0);
    }
    frontAndBackPlanes
    {
        type            empty;
    }
}


// ************************************************************************* //
