/*--------------------------------*- C++ -*----------------------------------*\
| =========                 |                                                 |
| \\      /  F ield         | OpenFOAM: The Open Source CFD Toolbox           |
|  \\    /   O peration     | Version:  2.4.x                                 |
|   \\  /    A nd           | Web:      www.OpenFOAM.org                      |
|    \\/     M anipulation  |                                                 |
\*---------------------------------------------------------------------------*/
FoamFile
{
    version     2.0;
    format      ascii;
    class       volVectorField;
    location    "8.1";
    object      Ub;
}
// * * * * * * * * * * * * * * * * * * * * * * * * * * * * * * * * * * * * * //

dimensions      [0 1 -1 0 0 0 0];

internalField   nonuniform List<vector> 
360
(
(0.000265581 3.0993e-08 0)
(0.000264182 1.10738e-07 0)
(0.000263989 2.04749e-07 0)
(0.0002642 2.93267e-07 0)
(0.000264316 3.81669e-07 0)
(0.000264369 4.727e-07 0)
(0.000264427 5.65264e-07 0)
(0.000264495 6.58157e-07 0)
(0.000264565 7.50967e-07 0)
(0.000264635 8.43645e-07 0)
(0.000264706 9.36188e-07 0)
(0.000264777 1.02852e-06 0)
(0.000264848 1.12054e-06 0)
(0.000264919 1.21217e-06 0)
(0.000264991 1.30332e-06 0)
(0.000265063 1.39397e-06 0)
(0.000265135 1.4841e-06 0)
(0.000265208 1.57368e-06 0)
(0.000265281 1.66271e-06 0)
(0.000265354 1.75117e-06 0)
(0.000265427 1.83906e-06 0)
(0.000265501 1.92637e-06 0)
(0.000265576 2.01312e-06 0)
(0.00026565 2.09933e-06 0)
(0.000265726 2.185e-06 0)
(0.000265801 2.27016e-06 0)
(0.000265877 2.35482e-06 0)
(0.000265953 2.43902e-06 0)
(0.00026603 2.52278e-06 0)
(0.000266107 2.60613e-06 0)
(0.000266185 2.68908e-06 0)
(0.000266264 2.77169e-06 0)
(0.000266342 2.85396e-06 0)
(0.000266422 2.93593e-06 0)
(0.000266501 3.01763e-06 0)
(0.000266582 3.09908e-06 0)
(0.000266663 3.18029e-06 0)
(0.000266745 3.26129e-06 0)
(0.000266828 3.34213e-06 0)
(0.00026691 3.42278e-06 0)
(0.000266994 3.50329e-06 0)
(0.000267079 3.58367e-06 0)
(0.000267163 3.6639e-06 0)
(0.00026725 3.74403e-06 0)
(0.000267336 3.82405e-06 0)
(0.000267424 3.90396e-06 0)
(0.000267512 3.98379e-06 0)
(0.0002676 4.06349e-06 0)
(0.00026769 4.14308e-06 0)
(0.000267782 4.22259e-06 0)
(0.000267872 4.30198e-06 0)
(0.000267965 4.38126e-06 0)
(0.000268058 4.46042e-06 0)
(0.000268153 4.53947e-06 0)
(0.000268247 4.61835e-06 0)
(0.000268344 4.69711e-06 0)
(0.00026844 4.77569e-06 0)
(0.000268538 4.85409e-06 0)
(0.000268637 4.93229e-06 0)
(0.000268737 5.01023e-06 0)
(0.000268838 5.08796e-06 0)
(0.00026894 5.16542e-06 0)
(0.000269043 5.24265e-06 0)
(0.000269147 5.3196e-06 0)
(0.000269253 5.39626e-06 0)
(0.000269359 5.4726e-06 0)
(0.000269467 5.54858e-06 0)
(0.000269576 5.62419e-06 0)
(0.000269686 5.6994e-06 0)
(0.000269797 5.77415e-06 0)
(0.00026991 5.84846e-06 0)
(0.000270025 5.92232e-06 0)
(0.000270139 5.99569e-06 0)
(0.000270257 6.06858e-06 0)
(0.000270375 6.14096e-06 0)
(0.000270495 6.21284e-06 0)
(0.000270616 6.28415e-06 0)
(0.000270739 6.35487e-06 0)
(0.000270863 6.42496e-06 0)
(0.00027099 6.4944e-06 0)
(0.000271117 6.56314e-06 0)
(0.000271247 6.63119e-06 0)
(0.000271378 6.69854e-06 0)
(0.000271512 6.76518e-06 0)
(0.000271647 6.8311e-06 0)
(0.000271784 6.89631e-06 0)
(0.000271924 6.96077e-06 0)
(0.000272065 7.02447e-06 0)
(0.000272209 7.08736e-06 0)
(0.000272355 7.14943e-06 0)
(0.000272503 7.21064e-06 0)
(0.000272653 7.27098e-06 0)
(0.000272807 7.33044e-06 0)
(0.000272962 7.38903e-06 0)
(0.000273121 7.44674e-06 0)
(0.000273283 7.50357e-06 0)
(0.000273447 7.55954e-06 0)
(0.000273615 7.61462e-06 0)
(0.000273785 7.66882e-06 0)
(0.000273959 7.72212e-06 0)
(0.000274137 7.77451e-06 0)
(0.000274318 7.82598e-06 0)
(0.000274502 7.87653e-06 0)
(0.000274691 7.92615e-06 0)
(0.000274884 7.97484e-06 0)
(0.000275081 8.0226e-06 0)
(0.000275282 8.06945e-06 0)
(0.000275488 8.11539e-06 0)
(0.000275699 8.16045e-06 0)
(0.000275915 8.20465e-06 0)
(0.000276136 8.24803e-06 0)
(0.000276363 8.29064e-06 0)
(0.000276596 8.33254e-06 0)
(0.000276835 8.37379e-06 0)
(0.00027708 8.41448e-06 0)
(0.000277332 8.4547e-06 0)
(0.000277591 8.49454e-06 0)
(0.000277857 8.53411e-06 0)
(0.000278131 8.57351e-06 0)
(0.000278414 8.61283e-06 0)
(0.000278704 8.65217e-06 0)
(0.000279004 8.69158e-06 0)
(0.000279314 8.73109e-06 0)
(0.000279633 8.77069e-06 0)
(0.000279963 8.81031e-06 0)
(0.000280305 8.84986e-06 0)
(0.000280659 8.88916e-06 0)
(0.000281027 8.92801e-06 0)
(0.00028141 8.96618e-06 0)
(0.000281808 9.00337e-06 0)
(0.000282224 9.03925e-06 0)
(0.000282657 9.07346e-06 0)
(0.000283111 9.10567e-06 0)
(0.000283588 9.13569e-06 0)
(0.000284095 9.16352e-06 0)
(0.00028463 9.18919e-06 0)
(0.000285191 9.21266e-06 0)
(0.000285786 9.23393e-06 0)
(0.000286445 9.25312e-06 0)
(0.0002872 9.27049e-06 0)
(0.00028802 9.28494e-06 0)
(0.000288812 9.29069e-06 0)
(0.000289767 9.28716e-06 0)
(0.000291004 9.27201e-06 0)
(0.000292554 9.6172e-06 0)
(0.00029557 4.509e-06 0)
(0.000310256 2.89953e-05 0)
(0.00766448 -9.63436e-05 0)
(0.104943 -0.00105449 0)
(0.238122 -0.00100927 0)
(0.342052 -0.000926888 0)
(0.427608 -0.000866119 0)
(0.500032 -0.000788556 0)
(0.562325 -0.000697385 0)
(0.616482 -0.000600108 0)
(0.663912 -0.000502764 0)
(0.70564 -0.00040986 0)
(0.742419 -0.000324769 0)
(0.774796 -0.00024984 0)
(0.803148 -0.000186418 0)
(0.827721 -0.000134867 0)
(0.848669 -9.46584e-05 0)
(0.866112 -6.45477e-05 0)
(0.880213 -4.28969e-05 0)
(0.891245 -2.80002e-05 0)
(0.899614 -1.82326e-05 0)
(0.905805 -1.20879e-05 0)
(0.910306 -8.28596e-06 0)
(0.913537 -5.89492e-06 0)
(0.915826 -4.33322e-06 0)
(0.917419 -3.27031e-06 0)
(0.918489 -2.52105e-06 0)
(0.919161 -1.97774e-06 0)
(0.919522 -1.57454e-06 0)
(0.919636 -1.26947e-06 0)
(0.919549 -1.0349e-06 0)
(0.919296 -8.52088e-07 0)
(0.918902 -7.07984e-07 0)
(0.918388 -5.93294e-07 0)
(0.91777 -5.01256e-07 0)
(0.917059 -4.26866e-07 0)
(0.916266 -3.66364e-07 0)
(0.9154 -3.1688e-07 0)
(0.914468 -2.76206e-07 0)
(0.913475 -2.42615e-07 0)
(0.912428 -2.14752e-07 0)
(0.91133 -1.9154e-07 0)
(0.910185 -1.72119e-07 0)
(0.908998 -1.55795e-07 0)
(0.907772 -1.42008e-07 0)
(0.906509 -1.30303e-07 0)
(0.905212 -1.20307e-07 0)
(0.903884 -1.11714e-07 0)
(0.902527 -1.04271e-07 0)
(0.901143 -9.77671e-08 0)
(0.899735 -9.20277e-08 0)
(0.898304 -8.69052e-08 0)
(0.896852 -8.22753e-08 0)
(0.895381 -7.80335e-08 0)
(0.893893 -7.40924e-08 0)
(0.892387 -7.03809e-08 0)
(0.890852 -6.68063e-08 0)
(0.889271 -6.32925e-08 0)
(0.887643 -5.98059e-08 0)
(0.885969 -5.63206e-08 0)
(0.884247 -5.28208e-08 0)
(0.882478 -4.93014e-08 0)
(0.880661 -4.57676e-08 0)
(0.878795 -4.22337e-08 0)
(0.87688 -3.87215e-08 0)
(0.874917 -3.52586e-08 0)
(0.872905 -3.18782e-08 0)
(0.870843 -2.86166e-08 0)
(0.868733 -2.55084e-08 0)
(0.866573 -2.258e-08 0)
(0.864365 -1.98513e-08 0)
(0.862108 -1.73392e-08 0)
(0.859804 -1.50525e-08 0)
(0.857452 -1.29888e-08 0)
(0.855053 -1.11402e-08 0)
(0.852608 -9.49885e-09 0)
(0.850118 -8.05501e-09 0)
(0.847583 -6.79357e-09 0)
(0.845006 -5.69717e-09 0)
(0.842387 -4.75161e-09 0)
(0.839729 -3.9427e-09 0)
(0.837032 -3.25441e-09 0)
(0.834299 -2.67217e-09 0)
(0.831532 -2.18314e-09 0)
(0.828734 -1.77515e-09 0)
(0.825908 -1.43645e-09 0)
(0.823056 -1.1583e-09 0)
(0.820183 -9.36488e-10 0)
(0.817292 -7.61636e-10 0)
(0.814387 -6.05142e-10 0)
(0.811475 -4.46914e-10 0)
(0.808559 -3.1319e-10 0)
(0.805646 -2.24362e-10 0)
(0.802744 -1.61609e-10 0)
(0.799859 -1.13396e-10 0)
(0.797 -7.31422e-11 0)
(0.794177 -4.47236e-11 0)
(0.7914 -1.26399e-11 0)
(0.78868 9.57118e-12 0)
(0.786032 3.34749e-12 0)
(0.783469 1.43226e-12 0)
(0.781009 1.54395e-12 0)
(0.778668 1.71586e-12 0)
(0.776467 1.68132e-12 0)
(0.774428 1.60213e-12 0)
(0.772572 1.53138e-12 0)
(0.770925 1.45869e-12 0)
(0.76951 1.44642e-12 0)
(0.76835 1.63336e-12 0)
(0.767464 1.57429e-12 0)
(0.766865 -5.89766e-12 0)
(0.766556 2.57392e-11 0)
(0.766532 -5.48556e-11 0)
(0.76677 1.0403e-10 0)
(0.767236 -1.65769e-10 0)
(0.767876 2.47382e-10 0)
(0.768619 -3.40089e-10 0)
(0.769356 4.47765e-10 0)
(0.769804 -5.60801e-10 0)
(0.769878 6.817e-10 0)
(0.769881 -8.03489e-10 0)
(0.769881 9.305e-10 0)
(0.769881 -1.0583e-09 0)
(0.769881 1.19123e-09 0)
(0.769881 -1.32544e-09 0)
(0.769881 1.46481e-09 0)
(0.769881 -1.6059e-09 0)
(0.769881 1.75217e-09 0)
(0.769881 -1.90055e-09 0)
(0.769881 2.05414e-09 0)
(0.769881 -2.21016e-09 0)
(0.769881 2.37145e-09 0)
(0.769881 -2.53544e-09 0)
(0.769881 2.70473e-09 0)
(0.769881 -2.87699e-09 0)
(0.769881 3.05457e-09 0)
(0.769881 -3.23536e-09 0)
(0.769881 3.42149e-09 0)
(0.769881 -3.61103e-09 0)
(0.769881 3.80593e-09 0)
(0.769881 -4.00444e-09 0)
(0.769881 4.2083e-09 0)
(0.769881 -4.41597e-09 0)
(0.769881 4.62895e-09 0)
(0.769881 -4.84593e-09 0)
(0.769881 5.06817e-09 0)
(0.769881 -5.29461e-09 0)
(0.769881 5.52623e-09 0)
(0.769881 -5.76223e-09 0)
(0.769881 6.00332e-09 0)
(0.769881 -6.24898e-09 0)
(0.769881 6.49963e-09 0)
(0.769881 -6.75496e-09 0)
(0.769881 7.01526e-09 0)
(0.769881 -7.28028e-09 0)
(0.769881 7.55025e-09 0)
(0.769881 -7.82494e-09 0)
(0.769881 8.10458e-09 0)
(0.769881 -8.38889e-09 0)
(0.769881 8.67812e-09 0)
(0.769881 -8.97196e-09 0)
(0.769881 9.27068e-09 0)
(0.769881 -9.57389e-09 0)
(0.769881 9.8819e-09 0)
(0.769881 -1.01943e-08 0)
(0.769881 9.22837e-09 0)
(0.769881 -9.33614e-09 0)
(0.769881 9.4429e-09 0)
(0.769881 -9.5484e-09 0)
(0.769881 9.65286e-09 0)
(0.769881 -9.75605e-09 0)
(0.769881 9.85816e-09 0)
(0.769881 -9.95899e-09 0)
(0.769881 1.00587e-08 0)
(0.769881 -1.01571e-08 0)
(0.769881 1.02544e-08 0)
(0.769881 -1.03503e-08 0)
(0.769881 1.0445e-08 0)
(0.769881 -1.05385e-08 0)
(0.769881 1.06306e-08 0)
(0.769881 -1.07214e-08 0)
(0.769881 1.08108e-08 0)
(0.769881 -1.0899e-08 0)
(0.769881 1.09857e-08 0)
(0.769881 -1.10712e-08 0)
(0.769881 1.11551e-08 0)
(0.769881 -1.12377e-08 0)
(0.769881 1.13187e-08 0)
(0.769881 -1.13985e-08 0)
(0.769881 1.14764e-08 0)
(0.769881 -1.15533e-08 0)
(0.769881 1.16279e-08 0)
(0.769881 -1.17017e-08 0)
(0.769881 1.1773e-08 0)
(0.769881 -1.18437e-08 0)
(0.769881 1.19113e-08 0)
(0.769881 -1.19788e-08 0)
(0.769881 1.20424e-08 0)
(0.769881 -1.21067e-08 0)
(0.769881 1.2166e-08 0)
(0.769881 -1.22268e-08 0)
(0.769881 1.22815e-08 0)
(0.769881 -1.23389e-08 0)
(0.769881 1.23882e-08 0)
(0.769881 -1.24421e-08 0)
(0.769881 1.24855e-08 0)
(0.769881 -1.25357e-08 0)
(0.769881 1.2572e-08 0)
(0.769881 -1.26189e-08 0)
(0.769881 1.26465e-08 0)
(0.769881 -1.26891e-08 0)
(0.769881 1.27071e-08 0)
(0.769881 -1.27435e-08 0)
(0.769881 1.275e-08 0)
(0.769881 -1.27691e-08 0)
)
;

boundaryField
{
    inandouthalf11
    {
        type            cyclic;
    }
    inandouthalf12
    {
        type            cyclic;
    }
    inandouthalf21
    {
        type            cyclic;
    }
    inandouthalf22
    {
        type            cyclic;
    }
    inandouthalf31
    {
        type            cyclic;
    }
    inandouthalf32
    {
        type            cyclic;
    }
    inandouthalf41
    {
        type            cyclic;
    }
    inandouthalf42
    {
        type            cyclic;
    }
    top
    {
        type            symmetryPlane;
    }
    walls
    {
        type            fixedValue;
        value           uniform (0 0 0);
    }
    frontAndBackPlanes
    {
        type            empty;
    }
}


// ************************************************************************* //
