/*--------------------------------*- C++ -*----------------------------------*\
| =========                 |                                                 |
| \\      /  F ield         | OpenFOAM: The Open Source CFD Toolbox           |
|  \\    /   O peration     | Version:  2.4.x                                 |
|   \\  /    A nd           | Web:      www.OpenFOAM.org                      |
|    \\/     M anipulation  |                                                 |
\*---------------------------------------------------------------------------*/
FoamFile
{
    version     2.0;
    format      ascii;
    class       volVectorField;
    location    "8.1";
    object      Ub_0;
}
// * * * * * * * * * * * * * * * * * * * * * * * * * * * * * * * * * * * * * //

dimensions      [0 1 -1 0 0 0 0];

internalField   nonuniform List<vector> 
360
(
(0.000265601 3.09966e-08 0)
(0.000264202 1.10751e-07 0)
(0.000264009 2.04772e-07 0)
(0.00026422 2.93299e-07 0)
(0.000264336 3.8171e-07 0)
(0.000264389 4.72748e-07 0)
(0.000264447 5.6532e-07 0)
(0.000264515 6.5822e-07 0)
(0.000264585 7.51038e-07 0)
(0.000264655 8.43723e-07 0)
(0.000264726 9.36272e-07 0)
(0.000264797 1.02861e-06 0)
(0.000264868 1.12064e-06 0)
(0.000264939 1.21227e-06 0)
(0.000265011 1.30343e-06 0)
(0.000265083 1.39408e-06 0)
(0.000265155 1.48421e-06 0)
(0.000265228 1.57381e-06 0)
(0.000265301 1.66284e-06 0)
(0.000265374 1.7513e-06 0)
(0.000265447 1.8392e-06 0)
(0.000265522 1.92652e-06 0)
(0.000265596 2.01328e-06 0)
(0.000265671 2.09949e-06 0)
(0.000265746 2.18517e-06 0)
(0.000265821 2.27033e-06 0)
(0.000265897 2.355e-06 0)
(0.000265973 2.4392e-06 0)
(0.00026605 2.52297e-06 0)
(0.000266127 2.60632e-06 0)
(0.000266205 2.68929e-06 0)
(0.000266284 2.7719e-06 0)
(0.000266362 2.85418e-06 0)
(0.000266442 2.93616e-06 0)
(0.000266522 3.01786e-06 0)
(0.000266602 3.09932e-06 0)
(0.000266683 3.18054e-06 0)
(0.000266765 3.26156e-06 0)
(0.000266848 3.3424e-06 0)
(0.00026693 3.42306e-06 0)
(0.000267014 3.50358e-06 0)
(0.000267099 3.58397e-06 0)
(0.000267184 3.66421e-06 0)
(0.00026727 3.74435e-06 0)
(0.000267356 3.82438e-06 0)
(0.000267444 3.90431e-06 0)
(0.000267532 3.98415e-06 0)
(0.000267621 4.06386e-06 0)
(0.000267711 4.14346e-06 0)
(0.000267802 4.22297e-06 0)
(0.000267893 4.30238e-06 0)
(0.000267985 4.38167e-06 0)
(0.000268078 4.46084e-06 0)
(0.000268173 4.5399e-06 0)
(0.000268267 4.6188e-06 0)
(0.000268364 4.69757e-06 0)
(0.00026846 4.77615e-06 0)
(0.000268559 4.85457e-06 0)
(0.000268658 4.93278e-06 0)
(0.000268757 5.01073e-06 0)
(0.000268858 5.08847e-06 0)
(0.00026896 5.16595e-06 0)
(0.000269064 5.24318e-06 0)
(0.000269168 5.32015e-06 0)
(0.000269273 5.39682e-06 0)
(0.000269379 5.47317e-06 0)
(0.000269487 5.54916e-06 0)
(0.000269596 5.62479e-06 0)
(0.000269706 5.70001e-06 0)
(0.000269817 5.77477e-06 0)
(0.00026993 5.84909e-06 0)
(0.000270045 5.92296e-06 0)
(0.00027016 5.99634e-06 0)
(0.000270277 6.06925e-06 0)
(0.000270395 6.14164e-06 0)
(0.000270515 6.21352e-06 0)
(0.000270636 6.28485e-06 0)
(0.000270759 6.35558e-06 0)
(0.000270884 6.42568e-06 0)
(0.00027101 6.49513e-06 0)
(0.000271138 6.56388e-06 0)
(0.000271267 6.63194e-06 0)
(0.000271399 6.6993e-06 0)
(0.000271532 6.76595e-06 0)
(0.000271667 6.83188e-06 0)
(0.000271805 6.8971e-06 0)
(0.000271944 6.96157e-06 0)
(0.000272085 7.02528e-06 0)
(0.000272229 7.08818e-06 0)
(0.000272375 7.15026e-06 0)
(0.000272523 7.21148e-06 0)
(0.000272674 7.27183e-06 0)
(0.000272827 7.3313e-06 0)
(0.000272983 7.38989e-06 0)
(0.000273142 7.44761e-06 0)
(0.000273303 7.50446e-06 0)
(0.000273468 7.56043e-06 0)
(0.000273635 7.61553e-06 0)
(0.000273806 7.66973e-06 0)
(0.00027398 7.72304e-06 0)
(0.000274157 7.77544e-06 0)
(0.000274338 7.82692e-06 0)
(0.000274523 7.87747e-06 0)
(0.000274712 7.9271e-06 0)
(0.000274904 7.9758e-06 0)
(0.000275101 8.02357e-06 0)
(0.000275303 8.07043e-06 0)
(0.000275509 8.11638e-06 0)
(0.00027572 8.16145e-06 0)
(0.000275936 8.20565e-06 0)
(0.000276157 8.24904e-06 0)
(0.000276384 8.29166e-06 0)
(0.000276617 8.33356e-06 0)
(0.000276856 8.37482e-06 0)
(0.000277101 8.41552e-06 0)
(0.000277353 8.45574e-06 0)
(0.000277612 8.49559e-06 0)
(0.000277878 8.53516e-06 0)
(0.000278152 8.57456e-06 0)
(0.000278434 8.6139e-06 0)
(0.000278725 8.65324e-06 0)
(0.000279025 8.69265e-06 0)
(0.000279335 8.73216e-06 0)
(0.000279654 8.77177e-06 0)
(0.000279984 8.8114e-06 0)
(0.000280326 8.85095e-06 0)
(0.00028068 8.89026e-06 0)
(0.000281048 8.92911e-06 0)
(0.00028143 8.96728e-06 0)
(0.000281829 9.00447e-06 0)
(0.000282245 9.04036e-06 0)
(0.000282678 9.07457e-06 0)
(0.000283132 9.10678e-06 0)
(0.000283609 9.13681e-06 0)
(0.000284116 9.16463e-06 0)
(0.000284651 9.1903e-06 0)
(0.000285212 9.21377e-06 0)
(0.000285807 9.23504e-06 0)
(0.000286466 9.25422e-06 0)
(0.000287222 9.27159e-06 0)
(0.000288041 9.28604e-06 0)
(0.000288834 9.29179e-06 0)
(0.000289789 9.28826e-06 0)
(0.000291026 9.27347e-06 0)
(0.000292576 9.58789e-06 0)
(0.000295592 4.69649e-06 0)
(0.000310119 2.85219e-05 0)
(0.00755183 -9.5806e-05 0)
(0.104783 -0.00104656 0)
(0.238007 -0.00100889 0)
(0.341955 -0.000926541 0)
(0.42752 -0.000865936 0)
(0.499948 -0.000788311 0)
(0.562241 -0.000697111 0)
(0.616397 -0.000599834 0)
(0.663824 -0.0005025 0)
(0.705548 -0.000409607 0)
(0.742322 -0.000324527 0)
(0.774692 -0.000249614 0)
(0.803035 -0.000186213 0)
(0.827599 -0.000134691 0)
(0.848535 -9.45132e-05 0)
(0.865965 -6.44337e-05 0)
(0.880052 -4.28119e-05 0)
(0.891071 -2.79403e-05 0)
(0.899427 -1.81927e-05 0)
(0.905609 -1.20623e-05 0)
(0.910101 -8.26961e-06 0)
(0.913326 -5.88411e-06 0)
(0.915611 -4.32574e-06 0)
(0.9172 -3.2649e-06 0)
(0.918267 -2.517e-06 0)
(0.918936 -1.97462e-06 0)
(0.919296 -1.57206e-06 0)
(0.919408 -1.26747e-06 0)
(0.91932 -1.03325e-06 0)
(0.919066 -8.50711e-07 0)
(0.918671 -7.06819e-07 0)
(0.918156 -5.92297e-07 0)
(0.917537 -5.00396e-07 0)
(0.916825 -4.26118e-07 0)
(0.916032 -3.65708e-07 0)
(0.915166 -3.16302e-07 0)
(0.914233 -2.75693e-07 0)
(0.913239 -2.42159e-07 0)
(0.912191 -2.14344e-07 0)
(0.911093 -1.91174e-07 0)
(0.909948 -1.71789e-07 0)
(0.90876 -1.55497e-07 0)
(0.907533 -1.41738e-07 0)
(0.906269 -1.30058e-07 0)
(0.904972 -1.20084e-07 0)
(0.903644 -1.11511e-07 0)
(0.902286 -1.04085e-07 0)
(0.900902 -9.75973e-08 0)
(0.899494 -9.1872e-08 0)
(0.898062 -8.67623e-08 0)
(0.89661 -8.21441e-08 0)
(0.895138 -7.79129e-08 0)
(0.893649 -7.39814e-08 0)
(0.892144 -7.02787e-08 0)
(0.890608 -6.67123e-08 0)
(0.889026 -6.32061e-08 0)
(0.887399 -5.97266e-08 0)
(0.885724 -5.62481e-08 0)
(0.884002 -5.27545e-08 0)
(0.882232 -4.9241e-08 0)
(0.880414 -4.57128e-08 0)
(0.878548 -4.21842e-08 0)
(0.876633 -3.86768e-08 0)
(0.87467 -3.52186e-08 0)
(0.872657 -3.18424e-08 0)
(0.870595 -2.85848e-08 0)
(0.868484 -2.54804e-08 0)
(0.866324 -2.25554e-08 0)
(0.864116 -1.98297e-08 0)
(0.861859 -1.73205e-08 0)
(0.859554 -1.50364e-08 0)
(0.857201 -1.29749e-08 0)
(0.854802 -1.11284e-08 0)
(0.852357 -9.48875e-09 0)
(0.849866 -8.04649e-09 0)
(0.847332 -6.78641e-09 0)
(0.844754 -5.6912e-09 0)
(0.842135 -4.74667e-09 0)
(0.839476 -3.93864e-09 0)
(0.836779 -3.25111e-09 0)
(0.834046 -2.66952e-09 0)
(0.831279 -2.18104e-09 0)
(0.82848 -1.77352e-09 0)
(0.825654 -1.43521e-09 0)
(0.822802 -1.15738e-09 0)
(0.819928 -9.35826e-10 0)
(0.817037 -7.61169e-10 0)
(0.814132 -6.04835e-10 0)
(0.811219 -4.46759e-10 0)
(0.808304 -3.13165e-10 0)
(0.805391 -2.24419e-10 0)
(0.802488 -1.61723e-10 0)
(0.799603 -1.13551e-10 0)
(0.796744 -7.33306e-11 0)
(0.793921 -4.49382e-11 0)
(0.791144 -1.28424e-11 0)
(0.788424 9.35805e-12 0)
(0.785776 3.1101e-12 0)
(0.783214 1.20739e-12 0)
(0.780753 1.33241e-12 0)
(0.778413 1.51475e-12 0)
(0.776212 1.49038e-12 0)
(0.774173 1.42099e-12 0)
(0.772318 1.36019e-12 0)
(0.770671 1.29658e-12 0)
(0.769257 1.29297e-12 0)
(0.768097 1.48761e-12 0)
(0.767211 1.43724e-12 0)
(0.766613 -6.04318e-12 0)
(0.766305 2.56342e-11 0)
(0.766281 -5.5017e-11 0)
(0.76652 1.03965e-10 0)
(0.766986 -1.65956e-10 0)
(0.767627 2.47352e-10 0)
(0.768369 -3.40305e-10 0)
(0.769107 4.4776e-10 0)
(0.769554 -5.61041e-10 0)
(0.769628 6.81715e-10 0)
(0.769631 -8.03732e-10 0)
(0.769631 9.30546e-10 0)
(0.769631 -1.05854e-09 0)
(0.769631 1.1913e-09 0)
(0.769631 -1.32569e-09 0)
(0.769631 1.46491e-09 0)
(0.769631 -1.60616e-09 0)
(0.769631 1.7523e-09 0)
(0.769631 -1.90081e-09 0)
(0.769631 2.05429e-09 0)
(0.769631 -2.21044e-09 0)
(0.769631 2.37162e-09 0)
(0.769631 -2.53574e-09 0)
(0.769631 2.70492e-09 0)
(0.769631 -2.87731e-09 0)
(0.769631 3.05478e-09 0)
(0.769631 -3.2357e-09 0)
(0.769631 3.42172e-09 0)
(0.769631 -3.6114e-09 0)
(0.769631 3.80619e-09 0)
(0.769631 -4.00483e-09 0)
(0.769631 4.20859e-09 0)
(0.769631 -4.41638e-09 0)
(0.769631 4.62927e-09 0)
(0.769631 -4.84636e-09 0)
(0.769631 5.06852e-09 0)
(0.769631 -5.29506e-09 0)
(0.769631 5.52662e-09 0)
(0.769631 -5.7627e-09 0)
(0.769631 6.00375e-09 0)
(0.769631 -6.24948e-09 0)
(0.769631 6.50008e-09 0)
(0.769631 -6.75548e-09 0)
(0.769631 7.01575e-09 0)
(0.769631 -7.28084e-09 0)
(0.769631 7.55077e-09 0)
(0.769631 -7.82554e-09 0)
(0.769631 8.10513e-09 0)
(0.769631 -8.38953e-09 0)
(0.769631 8.67869e-09 0)
(0.769631 -8.97264e-09 0)
(0.769631 9.27127e-09 0)
(0.769631 -9.57462e-09 0)
(0.769631 9.88253e-09 0)
(0.769631 -1.01951e-08 0)
(0.769631 9.22895e-09 0)
(0.769631 -9.33685e-09 0)
(0.769631 9.44348e-09 0)
(0.769631 -9.54913e-09 0)
(0.769631 9.65345e-09 0)
(0.769631 -9.75679e-09 0)
(0.769631 9.85876e-09 0)
(0.769631 -9.95975e-09 0)
(0.769631 1.00593e-08 0)
(0.769631 -1.01579e-08 0)
(0.769631 1.0255e-08 0)
(0.769631 -1.03511e-08 0)
(0.769631 1.04457e-08 0)
(0.769631 -1.05392e-08 0)
(0.769631 1.06313e-08 0)
(0.769631 -1.07221e-08 0)
(0.769631 1.08116e-08 0)
(0.769631 -1.08996e-08 0)
(0.769631 1.09865e-08 0)
(0.769631 -1.10721e-08 0)
(0.769631 1.11554e-08 0)
(0.769631 -1.1239e-08 0)
(0.769631 1.13188e-08 0)
(0.769631 -1.13999e-08 0)
(0.769631 1.14764e-08 0)
(0.769631 -1.15548e-08 0)
(0.769631 1.16278e-08 0)
(0.769631 -1.17034e-08 0)
(0.769631 1.17728e-08 0)
(0.769631 -1.18453e-08 0)
(0.769631 1.19113e-08 0)
(0.769631 -1.19802e-08 0)
(0.769631 1.20428e-08 0)
(0.769631 -1.21074e-08 0)
(0.769631 1.2167e-08 0)
(0.769631 -1.22273e-08 0)
(0.769631 1.22829e-08 0)
(0.769631 -1.23386e-08 0)
(0.769631 1.23906e-08 0)
(0.769631 -1.24407e-08 0)
(0.769631 1.24892e-08 0)
(0.769631 -1.25327e-08 0)
(0.769631 1.25779e-08 0)
(0.769631 -1.26131e-08 0)
(0.769631 1.26553e-08 0)
(0.769631 -1.26808e-08 0)
(0.769631 1.27187e-08 0)
(0.769631 -1.2732e-08 0)
(0.769631 1.27638e-08 0)
(0.769631 -1.27632e-08 0)
)
;

boundaryField
{
    inandouthalf11
    {
        type            cyclic;
    }
    inandouthalf12
    {
        type            cyclic;
    }
    inandouthalf21
    {
        type            cyclic;
    }
    inandouthalf22
    {
        type            cyclic;
    }
    inandouthalf31
    {
        type            cyclic;
    }
    inandouthalf32
    {
        type            cyclic;
    }
    inandouthalf41
    {
        type            cyclic;
    }
    inandouthalf42
    {
        type            cyclic;
    }
    top
    {
        type            symmetryPlane;
    }
    walls
    {
        type            fixedValue;
        value           uniform (0 0 0);
    }
    frontAndBackPlanes
    {
        type            empty;
    }
}


// ************************************************************************* //
