/*--------------------------------*- C++ -*----------------------------------*\
| =========                 |                                                 |
| \\      /  F ield         | OpenFOAM: The Open Source CFD Toolbox           |
|  \\    /   O peration     | Version:  2.4.x                                 |
|   \\  /    A nd           | Web:      www.OpenFOAM.org                      |
|    \\/     M anipulation  |                                                 |
\*---------------------------------------------------------------------------*/
FoamFile
{
    version     2.0;
    format      ascii;
    class       volVectorField;
    location    "8.1";
    object      Ur;
}
// * * * * * * * * * * * * * * * * * * * * * * * * * * * * * * * * * * * * * //

dimensions      [0 1 -1 0 0 0 0];

internalField   nonuniform List<vector> 
360
(
(0.000265581 3.0993e-08 0)
(0.000264165 1.84737e-07 0)
(0.000263951 3.38158e-07 0)
(0.000264145 4.79189e-07 0)
(0.000264244 6.23186e-07 0)
(0.000264278 7.72619e-07 0)
(0.000264317 9.24252e-07 0)
(0.000264367 1.07619e-06 0)
(0.000264418 1.22798e-06 0)
(0.00026447 1.37957e-06 0)
(0.000264522 1.53097e-06 0)
(0.000264575 1.68205e-06 0)
(0.000264627 1.83262e-06 0)
(0.00026468 1.98255e-06 0)
(0.000264734 2.13172e-06 0)
(0.000264788 2.28008e-06 0)
(0.000264843 2.42759e-06 0)
(0.000264898 2.57423e-06 0)
(0.000264954 2.71996e-06 0)
(0.00026501 2.86479e-06 0)
(0.000265066 3.00869e-06 0)
(0.000265124 3.15166e-06 0)
(0.000265181 3.29372e-06 0)
(0.000265239 3.43491e-06 0)
(0.000265298 3.57523e-06 0)
(0.000265357 3.71473e-06 0)
(0.000265417 3.85343e-06 0)
(0.000265478 3.99137e-06 0)
(0.000265538 4.12862e-06 0)
(0.0002656 4.26521e-06 0)
(0.000265662 4.40117e-06 0)
(0.000265725 4.53657e-06 0)
(0.000265788 4.67144e-06 0)
(0.000265853 4.80583e-06 0)
(0.000265917 4.93979e-06 0)
(0.000265983 5.07336e-06 0)
(0.000266048 5.20655e-06 0)
(0.000266115 5.33943e-06 0)
(0.000266183 5.47204e-06 0)
(0.000266251 5.60437e-06 0)
(0.00026632 5.73647e-06 0)
(0.00026639 5.86839e-06 0)
(0.00026646 6.00008e-06 0)
(0.000266531 6.13162e-06 0)
(0.000266603 6.26299e-06 0)
(0.000266676 6.39422e-06 0)
(0.00026675 6.52532e-06 0)
(0.000266824 6.65623e-06 0)
(0.0002669 6.78697e-06 0)
(0.000266977 6.9176e-06 0)
(0.000267053 7.04806e-06 0)
(0.000267132 7.17836e-06 0)
(0.000267211 7.30849e-06 0)
(0.000267291 7.43843e-06 0)
(0.000267371 7.56815e-06 0)
(0.000267454 7.69767e-06 0)
(0.000267536 7.82692e-06 0)
(0.000267621 7.9559e-06 0)
(0.000267706 8.08457e-06 0)
(0.000267792 8.21285e-06 0)
(0.00026788 8.34079e-06 0)
(0.000267968 8.46833e-06 0)
(0.000268058 8.5955e-06 0)
(0.000268148 8.72224e-06 0)
(0.00026824 8.84854e-06 0)
(0.000268334 8.97432e-06 0)
(0.000268428 9.09956e-06 0)
(0.000268524 9.22421e-06 0)
(0.000268621 9.34822e-06 0)
(0.000268719 9.47151e-06 0)
(0.00026882 9.59409e-06 0)
(0.000268922 9.71598e-06 0)
(0.000269024 9.83709e-06 0)
(0.000269129 9.95743e-06 0)
(0.000269235 1.0077e-05 0)
(0.000269343 1.01957e-05 0)
(0.000269452 1.03136e-05 0)
(0.000269563 1.04305e-05 0)
(0.000269675 1.05464e-05 0)
(0.00026979 1.06613e-05 0)
(0.000269906 1.0775e-05 0)
(0.000270024 1.08877e-05 0)
(0.000270145 1.09992e-05 0)
(0.000270267 1.11096e-05 0)
(0.000270391 1.12189e-05 0)
(0.000270518 1.1327e-05 0)
(0.000270647 1.1434e-05 0)
(0.000270778 1.15397e-05 0)
(0.000270911 1.16441e-05 0)
(0.000271047 1.17472e-05 0)
(0.000271185 1.1849e-05 0)
(0.000271326 1.19494e-05 0)
(0.000271469 1.20484e-05 0)
(0.000271616 1.21459e-05 0)
(0.000271765 1.22421e-05 0)
(0.000271917 1.23369e-05 0)
(0.000272073 1.24303e-05 0)
(0.000272231 1.25223e-05 0)
(0.000272393 1.26129e-05 0)
(0.000272559 1.27021e-05 0)
(0.000272728 1.27898e-05 0)
(0.000272901 1.28761e-05 0)
(0.000273077 1.29609e-05 0)
(0.000273258 1.30443e-05 0)
(0.000273443 1.31261e-05 0)
(0.000273632 1.32065e-05 0)
(0.000273826 1.32855e-05 0)
(0.000274025 1.33631e-05 0)
(0.000274229 1.34392e-05 0)
(0.000274438 1.3514e-05 0)
(0.000274653 1.35876e-05 0)
(0.000274873 1.36599e-05 0)
(0.000275099 1.37311e-05 0)
(0.000275332 1.38014e-05 0)
(0.000275571 1.38708e-05 0)
(0.000275816 1.39395e-05 0)
(0.000276069 1.40077e-05 0)
(0.00027633 1.40756e-05 0)
(0.000276598 1.41433e-05 0)
(0.000276874 1.42109e-05 0)
(0.000277159 1.42787e-05 0)
(0.000277453 1.43467e-05 0)
(0.000277757 1.44151e-05 0)
(0.000278071 1.44837e-05 0)
(0.000278396 1.45525e-05 0)
(0.000278732 1.46213e-05 0)
(0.000279081 1.46899e-05 0)
(0.000279443 1.4758e-05 0)
(0.000279821 1.48251e-05 0)
(0.000280215 1.48908e-05 0)
(0.000280627 1.49545e-05 0)
(0.000281057 1.50157e-05 0)
(0.000281506 1.50739e-05 0)
(0.000281981 1.51287e-05 0)
(0.000282485 1.51801e-05 0)
(0.000283018 1.52283e-05 0)
(0.000283577 1.52732e-05 0)
(0.000284171 1.53149e-05 0)
(0.000284829 1.5354e-05 0)
(0.000285584 1.5391e-05 0)
(0.000286403 1.54236e-05 0)
(0.000287196 1.54436e-05 0)
(0.000288151 1.54486e-05 0)
(0.000289388 1.54374e-05 0)
(0.000290938 1.57837e-05 0)
(0.000293955 1.06758e-05 0)
(0.00030864 3.51621e-05 0)
(0.000831362 -0.000165172 0)
(0.011996 -0.0025324 0)
(0.0161832 -0.00405611 0)
(0.0146784 -0.00488288 0)
(0.0132194 -0.00550011 0)
(0.012322 -0.00606616 0)
(0.0118834 -0.00660056 0)
(0.0118561 -0.00711971 0)
(0.0122474 -0.0076325 0)
(0.0130994 -0.00813963 0)
(0.014476 -0.0086344 0)
(0.0164392 -0.00910402 0)
(0.0190124 -0.00953038 0)
(0.0221355 -0.00989014 0)
(0.0256298 -0.0101522 0)
(0.0292029 -0.0102733 0)
(0.0325126 -0.0102036 0)
(0.0352731 -0.00991305 0)
(0.0373434 -0.00942249 0)
(0.0387444 -0.00879858 0)
(0.0396041 -0.00811852 0)
(0.040083 -0.00744061 0)
(0.0403238 -0.00679759 0)
(0.0404332 -0.00620362 0)
(0.0404832 -0.00566264 0)
(0.040519 -0.00517372 0)
(0.0405665 -0.00473388 0)
(0.0406394 -0.00433944 0)
(0.0407433 -0.00398664 0)
(0.0408788 -0.00367187 0)
(0.0410433 -0.00339181 0)
(0.0412326 -0.00314341 0)
(0.0414418 -0.00292393 0)
(0.0416652 -0.00273089 0)
(0.0418971 -0.00256204 0)
(0.0421321 -0.00241536 0)
(0.0423648 -0.002289 0)
(0.04259 -0.0021813 0)
(0.0428031 -0.00209075 0)
(0.0429994 -0.00201595 0)
(0.0431748 -0.00195566 0)
(0.0433253 -0.00190872 0)
(0.0434473 -0.00187407 0)
(0.0435374 -0.00185072 0)
(0.0435922 -0.00183779 0)
(0.0436089 -0.00183443 0)
(0.0435846 -0.00183985 0)
(0.0435165 -0.00185332 0)
(0.0434022 -0.00187412 0)
(0.0432393 -0.00190155 0)
(0.0430255 -0.00193491 0)
(0.0427585 -0.00197352 0)
(0.0424364 -0.00201667 0)
(0.0420569 -0.00206366 0)
(0.0416143 -0.0021143 0)
(0.0411028 -0.00216851 0)
(0.0405212 -0.00222568 0)
(0.0398682 -0.00228511 0)
(0.0391427 -0.00234606 0)
(0.0383437 -0.00240775 0)
(0.0374705 -0.00246939 0)
(0.0365226 -0.00253019 0)
(0.0354995 -0.00258942 0)
(0.0344012 -0.00264636 0)
(0.0332281 -0.00270038 0)
(0.0319806 -0.00275093 0)
(0.0306594 -0.00279763 0)
(0.0292655 -0.00284019 0)
(0.0278001 -0.00287837 0)
(0.0262647 -0.00291202 0)
(0.0246606 -0.00294113 0)
(0.0229893 -0.00296573 0)
(0.0212525 -0.00298582 0)
(0.019452 -0.00300139 0)
(0.0175895 -0.00301253 0)
(0.0156663 -0.00301948 0)
(0.0136842 -0.00302238 0)
(0.0116447 -0.00302146 0)
(0.00954889 -0.00301728 0)
(0.00739769 -0.0030106 0)
(0.00519195 -0.00300245 0)
(0.00293206 -0.00299445 0)
(0.000618085 -0.0029887 0)
(-0.00175069 -0.00298758 0)
(-0.00417521 -0.00299251 0)
(-0.00666014 -0.0030055 0)
(-0.00921525 -0.00303069 0)
(-0.0118546 -0.00307784 0)
(-0.0145808 -0.00312869 0)
(-0.0173297 -0.00316592 0)
(0.00673311 -0.00325269 0)
(0.00734992 -0.00342218 0)
(0.00739162 -0.00258347 0)
(0.00731543 -0.00508029 0)
(0.00745168 -6.72401e-05 0)
(0.0069485 -0.0102691 0)
(0.0067963 0.0152742 0)
(0.00554181 0.0395879 0)
(0.00578147 0.0395607 0)
(0.005715 0.039562 0)
(0.00567545 0.0395593 0)
(0.00562823 0.0395564 0)
(0.00557665 0.0395528 0)
(0.00552031 0.0395486 0)
(0.00545944 0.0395438 0)
(0.00539458 0.0395385 0)
(0.00532734 0.0395327 0)
(0.00526636 0.0395265 0)
(0.00519363 0.0395207 0)
(0.00510401 0.0395162 0)
(0.00506198 0.0395102 0)
(0.00500861 0.0395057 0)
(0.00496817 0.0395017 0)
(0.00494217 0.039498 0)
(0.00493338 0.039494 0)
(0.00495174 0.0394875 0)
(0.00504122 0.0394792 0)
(0.0050597 0.0394756 0)
(0.00506044 0.0394751 0)
(0.00506046 0.0394751 0)
(0.00506046 0.0394751 0)
(0.00506046 0.0394751 0)
(0.00506046 0.0394751 0)
(0.00506046 0.0394751 0)
(0.00506046 0.0394751 0)
(0.00506046 0.0394751 0)
(0.00506046 0.0394751 0)
(0.00506046 0.0394751 0)
(0.00506046 0.0394751 0)
(0.00506046 0.0394751 0)
(0.00506046 0.0394751 0)
(0.00506046 0.0394751 0)
(0.00506046 0.0394751 0)
(0.00506046 0.0394751 0)
(0.00506046 0.0394751 0)
(0.00506046 0.0394751 0)
(0.00506046 0.0394751 0)
(0.00506046 0.0394751 0)
(0.00506046 0.0394751 0)
(0.00506046 0.0394751 0)
(0.00506046 0.0394751 0)
(0.00506046 0.0394751 0)
(0.00506046 0.0394751 0)
(0.00506046 0.0394751 0)
(0.00506046 0.0394751 0)
(0.00506046 0.0394751 0)
(0.00506046 0.0394751 0)
(0.00506046 0.0394751 0)
(0.00506046 0.0394751 0)
(0.00506046 0.0394751 0)
(0.00506046 0.0394751 0)
(0.00506046 0.0394751 0)
(0.00506046 0.0394751 0)
(0.00506046 0.0394751 0)
(0.00506046 0.0394751 0)
(0.00506046 0.0394751 0)
(0.00506046 0.0394751 0)
(0.00506046 0.0394751 0)
(0.00506046 0.0394751 0)
(0.00506046 0.0394751 0)
(0.00506046 0.0394751 0)
(0.00506046 0.0394751 0)
(0.00506046 0.0394751 0)
(0.00506046 0.0394751 0)
(0.00506046 0.0394751 0)
(0.00506046 0.0394751 0)
(0.00506046 0.0394751 0)
(0.00506046 0.0394751 0)
(0.00506046 0.0394751 0)
(0.00506046 0.0394751 0)
(0.00506046 0.0394751 0)
(0.00506046 0.0394751 0)
(0.00506046 0.0394751 0)
(0.00506046 0.0394751 0)
(0.00506046 0.0394751 0)
(0.00506046 0.0394751 0)
(0.00506046 0.0394751 0)
(0.00506046 0.0394751 0)
(0.00506046 0.0394751 0)
(0.00506046 0.0394751 0)
(0.00506046 0.0394751 0)
(0.00506046 0.0394751 0)
(0.00506046 0.0394751 0)
(0.00506046 0.0394751 0)
(0.00506046 0.0394751 0)
(0.00506046 0.0394751 0)
(0.00506046 0.0394751 0)
(0.00506046 0.0394751 0)
(0.00506046 0.0394751 0)
(0.00506046 0.0394751 0)
(0.00506046 0.0394751 0)
(0.00506046 0.0394751 0)
(0.00506046 0.0394751 0)
(0.00506046 0.0394751 0)
(0.00506046 0.0394751 0)
(0.00506046 0.0394751 0)
(0.00506046 0.0394751 0)
(0.00506046 0.0394751 0)
(0.00506046 0.0394751 0)
(0.00506046 0.0394751 0)
(0.00506046 0.0394751 0)
(0.00506046 0.0394751 0)
(0.00506046 0.0394751 0)
(0.00506046 0.0394751 0)
(0.00506046 0.0394751 0)
(0.00506046 0.0394751 0)
(0.00506046 0.0394751 0)
(0.00506046 0.0394751 0)
(0.00506047 0.0394751 0)
(0.00506052 0.0394749 0)
(0.00506193 0.0394664 0)
(0.00509631 0.0391201 0)
(0.00589096 0.0223538 0)
)
;

boundaryField
{
    inandouthalf11
    {
        type            cyclic;
    }
    inandouthalf12
    {
        type            cyclic;
    }
    inandouthalf21
    {
        type            cyclic;
    }
    inandouthalf22
    {
        type            cyclic;
    }
    inandouthalf31
    {
        type            cyclic;
    }
    inandouthalf32
    {
        type            cyclic;
    }
    inandouthalf41
    {
        type            cyclic;
    }
    inandouthalf42
    {
        type            cyclic;
    }
    top
    {
        type            symmetryPlane;
    }
    walls
    {
        type            calculated;
        value           uniform (0 0 0);
    }
    frontAndBackPlanes
    {
        type            empty;
    }
}


// ************************************************************************* //
