/*--------------------------------*- C++ -*----------------------------------*\
| =========                 |                                                 |
| \\      /  F ield         | OpenFOAM: The Open Source CFD Toolbox           |
|  \\    /   O peration     | Version:  2.4.x                                 |
|   \\  /    A nd           | Web:      www.OpenFOAM.org                      |
|    \\/     M anipulation  |                                                 |
\*---------------------------------------------------------------------------*/
FoamFile
{
    version     2.0;
    format      ascii;
    class       volVectorField;
    location    "4.15";
    object      ddt0(Ub);
}
// * * * * * * * * * * * * * * * * * * * * * * * * * * * * * * * * * * * * * //

dimensions      [0 1 -2 0 0 0 0];

internalField   nonuniform List<vector> 
360
(
(0.000173208 -5.77105e-08 0)
(0.00017288 -2.77673e-07 0)
(0.000172712 -6.0014e-07 0)
(0.000172808 -9.02369e-07 0)
(0.000172932 -1.17455e-06 0)
(0.000173036 -1.43449e-06 0)
(0.000173136 -1.69767e-06 0)
(0.000173234 -1.96907e-06 0)
(0.000173328 -2.24621e-06 0)
(0.000173423 -2.52549e-06 0)
(0.00017352 -2.80603e-06 0)
(0.00017362 -3.089e-06 0)
(0.000173721 -3.37543e-06 0)
(0.000173822 -3.66385e-06 0)
(0.000173922 -3.94903e-06 0)
(0.00017402 -4.22218e-06 0)
(0.000174114 -4.47178e-06 0)
(0.0001742 -4.68541e-06 0)
(0.000174277 -4.85285e-06 0)
(0.000174343 -4.97071e-06 0)
(0.000174398 -5.04689e-06 0)
(0.000174449 -5.10461e-06 0)
(0.000174503 -5.18358e-06 0)
(0.000174571 -5.3391e-06 0)
(0.000174669 -5.64043e-06 0)
(0.000174814 -6.16927e-06 0)
(0.000175025 -7.01418e-06 0)
(0.000175323 -8.2447e-06 0)
(0.000175705 -9.82468e-06 0)
(0.000176114 -1.14318e-05 0)
(0.000176383 -1.2297e-05 0)
(0.000176271 -1.14693e-05 0)
(0.000175689 -8.71916e-06 0)
(0.000174915 -5.13814e-06 0)
(0.00017433 -2.25717e-06 0)
(0.00017405 -6.90728e-07 0)
(0.000173958 -8.00648e-08 0)
(0.000173938 1.04703e-07 0)
(0.00017394 1.5344e-07 0)
(0.000173946 1.65853e-07 0)
(0.000173956 1.6868e-07 0)
(0.000173966 1.68542e-07 0)
(0.000173977 1.67103e-07 0)
(0.00017399 1.64808e-07 0)
(0.000174004 1.61844e-07 0)
(0.000174019 1.58413e-07 0)
(0.000174035 1.54766e-07 0)
(0.000174052 1.51153e-07 0)
(0.00017407 1.47745e-07 0)
(0.000174091 1.44605e-07 0)
(0.000174112 1.41712e-07 0)
(0.000174134 1.39e-07 0)
(0.000174158 1.36365e-07 0)
(0.000174184 1.33719e-07 0)
(0.000174211 1.31008e-07 0)
(0.00017424 1.28179e-07 0)
(0.000174271 1.25202e-07 0)
(0.000174304 1.2207e-07 0)
(0.000174339 1.18776e-07 0)
(0.000174374 1.15328e-07 0)
(0.000174413 1.1174e-07 0)
(0.000174452 1.08029e-07 0)
(0.000174493 1.04218e-07 0)
(0.000174535 1.00327e-07 0)
(0.000174578 9.63759e-08 0)
(0.000174622 9.23925e-08 0)
(0.000174668 8.83781e-08 0)
(0.000174715 8.43247e-08 0)
(0.000174763 8.02189e-08 0)
(0.000174813 7.60421e-08 0)
(0.000174866 7.17685e-08 0)
(0.000174921 6.73682e-08 0)
(0.000174977 6.28247e-08 0)
(0.000175035 5.81107e-08 0)
(0.000175094 5.32182e-08 0)
(0.000175156 4.81498e-08 0)
(0.000175218 4.29116e-08 0)
(0.000175282 3.7526e-08 0)
(0.000175347 3.20009e-08 0)
(0.000175414 2.63463e-08 0)
(0.000175482 2.05732e-08 0)
(0.000175552 1.46882e-08 0)
(0.000175624 8.67735e-09 0)
(0.000175698 2.53384e-09 0)
(0.000175775 -3.74422e-09 0)
(0.000175852 -1.01729e-08 0)
(0.000175932 -1.67472e-08 0)
(0.000176014 -2.34636e-08 0)
(0.000176097 -3.03192e-08 0)
(0.000176182 -3.72961e-08 0)
(0.000176269 -4.43845e-08 0)
(0.000176357 -5.15723e-08 0)
(0.000176448 -5.88552e-08 0)
(0.000176541 -6.6228e-08 0)
(0.000176637 -7.36791e-08 0)
(0.000176734 -8.12126e-08 0)
(0.000176834 -8.88225e-08 0)
(0.000176936 -9.65028e-08 0)
(0.000177041 -1.04249e-07 0)
(0.000177148 -1.12055e-07 0)
(0.000177257 -1.19924e-07 0)
(0.00017737 -1.27841e-07 0)
(0.000177485 -1.35795e-07 0)
(0.000177602 -1.43784e-07 0)
(0.000177723 -1.51797e-07 0)
(0.000177847 -1.59825e-07 0)
(0.000177974 -1.67866e-07 0)
(0.000178104 -1.75906e-07 0)
(0.000178237 -1.83933e-07 0)
(0.000178374 -1.91943e-07 0)
(0.000178515 -1.99934e-07 0)
(0.00017866 -2.07892e-07 0)
(0.000178808 -2.1581e-07 0)
(0.000178961 -2.23691e-07 0)
(0.000179119 -2.31531e-07 0)
(0.000179281 -2.39331e-07 0)
(0.000179447 -2.47095e-07 0)
(0.000179619 -2.5483e-07 0)
(0.000179796 -2.62545e-07 0)
(0.000179979 -2.70249e-07 0)
(0.000180168 -2.77951e-07 0)
(0.000180362 -2.8566e-07 0)
(0.000180563 -2.93378e-07 0)
(0.000180771 -3.011e-07 0)
(0.000180986 -3.0881e-07 0)
(0.000181209 -3.16487e-07 0)
(0.00018144 -3.2409e-07 0)
(0.000181679 -3.31569e-07 0)
(0.000181927 -3.38858e-07 0)
(0.000182186 -3.45885e-07 0)
(0.000182455 -3.52566e-07 0)
(0.000182735 -3.5882e-07 0)
(0.000183028 -3.64587e-07 0)
(0.000183335 -3.69829e-07 0)
(0.000183662 -3.74543e-07 0)
(0.000184008 -3.78734e-07 0)
(0.000184371 -3.8241e-07 0)
(0.000184756 -3.85574e-07 0)
(0.000185182 -3.8821e-07 0)
(0.000185671 -3.90311e-07 0)
(0.000186203 -3.91901e-07 0)
(0.000186708 -3.9274e-07 0)
(0.000187308 -3.92482e-07 0)
(0.000188087 -3.9055e-07 0)
(0.000189044 3.18157e-07 0)
(0.000190639 -2.58563e-05 0)
(0.000188103 0.000134027 0)
(-0.00352987 -0.00033863 0)
(-0.0924551 -0.00361151 0)
(-0.0546036 -0.00164492 0)
(-0.0354248 -0.00159076 0)
(-0.0233596 -0.00121049 0)
(-0.0145352 -0.00093745 0)
(-0.00768992 -0.000710231 0)
(-0.00230603 -0.000526746 0)
(0.00187236 -0.000385705 0)
(0.00498673 -0.000282737 0)
(0.00711196 -0.000210751 0)
(0.00827052 -0.000162151 0)
(0.00843643 -0.000130249 0)
(0.00753586 -0.000109573 0)
(0.00544715 -9.60235e-05 0)
(0.00200071 -8.66461e-05 0)
(-0.00301887 -7.94703e-05 0)
(-0.00986606 -7.34536e-05 0)
(-0.0188191 -6.83265e-05 0)
(-0.0301513 -6.39369e-05 0)
(-0.0440786 -5.92355e-05 0)
(-0.0606774 -5.23683e-05 0)
(-0.0797792 -4.26067e-05 0)
(-0.100894 -3.16471e-05 0)
(-0.123225 -2.20519e-05 0)
(-0.145784 -1.50824e-05 0)
(-0.167576 -1.05007e-05 0)
(-0.187791 -7.54379e-06 0)
(-0.205917 -5.58586e-06 0)
(-0.221763 -4.24545e-06 0)
(-0.23539 -3.3006e-06 0)
(-0.247021 -2.61722e-06 0)
(-0.256945 -2.1113e-06 0)
(-0.265459 -1.72908e-06 0)
(-0.272832 -1.43561e-06 0)
(-0.279294 -1.20757e-06 0)
(-0.285031 -1.02888e-06 0)
(-0.290192 -8.87459e-07 0)
(-0.294892 -7.72699e-07 0)
(-0.299222 -6.74084e-07 0)
(-0.303251 -5.82296e-07 0)
(-0.307032 -4.92966e-07 0)
(-0.310606 -4.09545e-07 0)
(-0.314005 -3.39524e-07 0)
(-0.317255 -2.86194e-07 0)
(-0.320374 -2.4576e-07 0)
(-0.323379 -2.12124e-07 0)
(-0.326282 -1.82488e-07 0)
(-0.329093 -1.5727e-07 0)
(-0.33182 -1.36512e-07 0)
(-0.33447 -1.18947e-07 0)
(-0.33705 -1.03634e-07 0)
(-0.339562 -9.05805e-08 0)
(-0.342012 -7.98e-08 0)
(-0.344428 -7.05112e-08 0)
(-0.346834 -6.18878e-08 0)
(-0.349233 -5.40793e-08 0)
(-0.351623 -4.76814e-08 0)
(-0.354007 -4.23596e-08 0)
(-0.356384 -3.72355e-08 0)
(-0.358755 -3.24187e-08 0)
(-0.361119 -2.85288e-08 0)
(-0.363477 -2.52737e-08 0)
(-0.365827 -2.21388e-08 0)
(-0.36817 -1.93381e-08 0)
(-0.370503 -1.70097e-08 0)
(-0.372826 -1.49186e-08 0)
(-0.375138 -1.30658e-08 0)
(-0.377435 -1.1498e-08 0)
(-0.379717 -1.00663e-08 0)
(-0.381979 -8.79765e-09 0)
(-0.384218 -7.79665e-09 0)
(-0.38643 -6.92974e-09 0)
(-0.38861 -6.10961e-09 0)
(-0.39075 -5.42222e-09 0)
(-0.392844 -4.85467e-09 0)
(-0.394882 -4.35482e-09 0)
(-0.396853 -3.92579e-09 0)
(-0.398742 -3.5443e-09 0)
(-0.400534 -3.2201e-09 0)
(-0.402206 -2.95272e-09 0)
(-0.403732 -2.70697e-09 0)
(-0.405078 -2.49207e-09 0)
(-0.4062 -2.31287e-09 0)
(-0.407039 -2.11766e-09 0)
(-0.407515 -2.21062e-09 0)
(-0.407513 -1.5975e-09 0)
(-0.406863 -2.61611e-09 0)
(-0.405263 -5.23074e-10 0)
(-0.402067 -3.28724e-09 0)
(-0.396618 6.56488e-10 0)
(-0.378428 -3.86999e-09 0)
(-0.369476 1.33975e-09 0)
(-0.369012 -4.23797e-09 0)
(-0.369005 1.85481e-09 0)
(-0.369005 -4.54922e-09 0)
(-0.369005 2.30743e-09 0)
(-0.369005 -4.78925e-09 0)
(-0.369005 2.68136e-09 0)
(-0.369005 -4.97288e-09 0)
(-0.369005 3.01149e-09 0)
(-0.369005 -5.13979e-09 0)
(-0.369005 3.33753e-09 0)
(-0.369005 -5.32222e-09 0)
(-0.369005 3.67548e-09 0)
(-0.369005 -5.52826e-09 0)
(-0.369005 4.03285e-09 0)
(-0.369005 -5.75962e-09 0)
(-0.369005 4.40804e-09 0)
(-0.369005 -6.01894e-09 0)
(-0.369005 4.79878e-09 0)
(-0.369005 -6.3037e-09 0)
(-0.369005 5.20603e-09 0)
(-0.369005 -6.61637e-09 0)
(-0.369005 5.62701e-09 0)
(-0.369005 -6.95565e-09 0)
(-0.369005 6.06311e-09 0)
(-0.369005 -7.32765e-09 0)
(-0.369005 6.50254e-09 0)
(-0.369005 -7.73558e-09 0)
(-0.369005 6.95135e-09 0)
(-0.369005 -8.17144e-09 0)
(-0.369005 7.40994e-09 0)
(-0.369005 -8.6317e-09 0)
(-0.369005 7.88872e-09 0)
(-0.369005 -9.11518e-09 0)
(-0.369005 8.38017e-09 0)
(-0.369005 -9.62186e-09 0)
(-0.369005 8.897e-09 0)
(-0.369005 -1.01381e-08 0)
(-0.369005 9.43863e-09 0)
(-0.369005 -1.0668e-08 0)
(-0.369005 1.00161e-08 0)
(-0.369005 -1.12112e-08 0)
(-0.369005 1.06017e-08 0)
(-0.369005 -1.17842e-08 0)
(-0.369005 1.12201e-08 0)
(-0.369005 -1.23606e-08 0)
(-0.369005 1.18627e-08 0)
(-0.369005 -1.29489e-08 0)
(-0.369005 1.25532e-08 0)
(-0.369005 -1.35395e-08 0)
(-0.369005 1.32579e-08 0)
(-0.369005 -1.41588e-08 0)
(-0.369005 1.39982e-08 0)
(-0.369005 -1.47792e-08 0)
(-0.369005 1.47571e-08 0)
(-0.369005 -1.54243e-08 0)
(-0.369005 1.55523e-08 0)
(-0.369005 -1.61047e-08 0)
(-0.369005 1.63121e-08 0)
(-0.369005 -1.68672e-08 0)
(-0.369005 1.70708e-08 0)
(-0.369005 -1.76413e-08 0)
(-0.369005 1.78362e-08 0)
(-0.369005 -1.84513e-08 0)
(-0.369005 1.86185e-08 0)
(-0.369005 -1.92747e-08 0)
(-0.369005 1.94102e-08 0)
(-0.369005 -2.01109e-08 0)
(-0.369005 2.02084e-08 0)
(-0.369005 -2.09504e-08 0)
(-0.369005 2.10088e-08 0)
(-0.369005 -1.91401e-08 0)
(-0.369005 1.87243e-08 0)
(-0.369005 -1.91066e-08 0)
(-0.369005 1.86387e-08 0)
(-0.369005 -1.90645e-08 0)
(-0.369005 1.8534e-08 0)
(-0.369005 -1.90138e-08 0)
(-0.369005 1.84131e-08 0)
(-0.369005 -1.89517e-08 0)
(-0.369005 1.82758e-08 0)
(-0.369005 -1.88834e-08 0)
(-0.369005 1.80968e-08 0)
(-0.369005 -1.88223e-08 0)
(-0.369005 1.789e-08 0)
(-0.369005 -1.87559e-08 0)
(-0.369005 1.76266e-08 0)
(-0.369005 -1.86977e-08 0)
(-0.369005 1.73418e-08 0)
(-0.369005 -1.88374e-08 0)
(-0.369005 1.62847e-08 0)
(-0.369005 -1.9712e-08 0)
(-0.369005 1.49796e-08 0)
(-0.369005 -2.05913e-08 0)
(-0.369005 1.35872e-08 0)
(-0.369005 -2.15009e-08 0)
(-0.369005 1.21615e-08 0)
(-0.369005 -2.23957e-08 0)
(-0.369005 1.05823e-08 0)
(-0.369005 -2.33374e-08 0)
(-0.369005 9.06495e-09 0)
(-0.369005 -2.41156e-08 0)
(-0.369005 7.52024e-09 0)
(-0.369005 -2.47692e-08 0)
(-0.369005 6.19252e-09 0)
(-0.369005 -2.54099e-08 0)
(-0.369005 3.92445e-09 0)
(-0.369005 -2.67069e-08 0)
(-0.369005 1.7424e-09 0)
(-0.369005 -2.72039e-08 0)
(-0.369005 -6.45479e-10 0)
(-0.369005 -2.69872e-08 0)
(-0.369005 -2.95452e-09 0)
(-0.369005 -2.80973e-08 0)
(-0.369005 -4.82368e-09 0)
(-0.369005 -3.02129e-08 0)
(-0.369005 -8.72181e-09 0)
(-0.369005 -3.46946e-08 0)
(-0.369005 -1.44054e-08 0)
(-0.369005 -4.51563e-08 0)
(-0.369005 -7.16974e-09 0)
)
;

boundaryField
{
    inandouthalf11
    {
        type            cyclic;
    }
    inandouthalf12
    {
        type            cyclic;
    }
    inandouthalf21
    {
        type            cyclic;
    }
    inandouthalf22
    {
        type            cyclic;
    }
    inandouthalf31
    {
        type            cyclic;
    }
    inandouthalf32
    {
        type            cyclic;
    }
    inandouthalf41
    {
        type            cyclic;
    }
    inandouthalf42
    {
        type            cyclic;
    }
    top
    {
        type            symmetryPlane;
    }
    walls
    {
        type            calculated;
        value           uniform (0 0 0);
    }
    frontAndBackPlanes
    {
        type            empty;
    }
}


// ************************************************************************* //
