/*--------------------------------*- C++ -*----------------------------------*\
| =========                 |                                                 |
| \\      /  F ield         | OpenFOAM: The Open Source CFD Toolbox           |
|  \\    /   O peration     | Version:  2.4.x                                 |
|   \\  /    A nd           | Web:      www.OpenFOAM.org                      |
|    \\/     M anipulation  |                                                 |
\*---------------------------------------------------------------------------*/
FoamFile
{
    version     2.0;
    format      ascii;
    class       surfaceScalarField;
    location    "4.15";
    object      ddt0(phib);
}
// * * * * * * * * * * * * * * * * * * * * * * * * * * * * * * * * * * * * * //

dimensions      [0 3 -2 0 0 0 0];

internalField   nonuniform List<scalar> 
359
(
-5.23266e-13
-1.75933e-12
-3.04246e-12
-4.17658e-12
-5.22005e-12
-6.25615e-12
-7.32539e-12
-8.42723e-12
-9.54268e-12
-1.06617e-11
-1.1787e-11
-1.29254e-11
-1.40784e-11
-1.52327e-11
-1.63597e-11
-1.74177e-11
-1.83564e-11
-1.91266e-11
-1.96958e-11
-2.00693e-11
-2.03057e-11
-2.05315e-11
-2.09383e-11
-2.17769e-11
-2.33509e-11
-2.60106e-11
-3.01139e-11
-3.5856e-11
-4.27464e-11
-4.86941e-11
-4.96429e-11
-4.2047e-11
-2.76667e-11
-1.34608e-11
-4.64032e-12
-9.11634e-13
2.61177e-13
5.73364e-13
6.53299e-13
6.73297e-13
6.76068e-13
6.72242e-13
6.6457e-13
6.53882e-13
6.4087e-13
6.2643e-13
6.11701e-13
5.97535e-13
5.84424e-13
5.72416e-13
5.61287e-13
5.50715e-13
5.40202e-13
5.29554e-13
5.18514e-13
5.06914e-13
4.94704e-13
4.81847e-13
4.68362e-13
4.54262e-13
4.39657e-13
4.24573e-13
4.09168e-13
3.93447e-13
3.77559e-13
3.61581e-13
3.45441e-13
3.29153e-13
3.12597e-13
2.95738e-13
2.78401e-13
2.60541e-13
2.42054e-13
2.22825e-13
2.02915e-13
1.82277e-13
1.61012e-13
1.39191e-13
1.1681e-13
9.39543e-14
7.06254e-14
4.68717e-14
2.25385e-14
-2.27702e-15
-2.76863e-14
-5.37072e-14
-8.02809e-14
-1.07437e-13
-1.35126e-13
-1.63253e-13
-1.91833e-13
-2.20757e-13
-2.50098e-13
-2.7974e-13
-3.09707e-13
-3.40008e-13
-3.70587e-13
-4.01452e-13
-4.32554e-13
-4.63904e-13
-4.95503e-13
-5.27241e-13
-5.59135e-13
-5.91156e-13
-6.23241e-13
-6.55383e-13
-6.87565e-13
-7.19703e-13
-7.51788e-13
-7.83784e-13
-8.15717e-13
-8.47448e-13
-8.79058e-13
-9.10499e-13
-9.41782e-13
-9.72902e-13
-1.00389e-12
-1.03478e-12
-1.06562e-12
-1.09641e-12
-1.12724e-12
-1.15808e-12
-1.18899e-12
-1.21986e-12
-1.25067e-12
-1.28127e-12
-1.3115e-12
-1.34111e-12
-1.36981e-12
-1.39733e-12
-1.42326e-12
-1.44736e-12
-1.46941e-12
-1.48932e-12
-1.50713e-12
-1.52283e-12
-1.53651e-12
-1.54818e-12
-1.55776e-12
-1.56508e-12
-1.56992e-12
-1.57187e-12
-1.57137e-12
-1.56959e-12
-1.56947e-12
-1.6394e-12
-4.82786e-11
-1.01396e-08
-8.57685e-09
-6.63811e-09
-5.35787e-09
-4.25215e-09
-3.27482e-09
-2.45923e-09
-1.81433e-09
-1.33028e-09
-9.83389e-10
-7.43848e-10
-5.83885e-10
-4.79237e-10
-4.11057e-10
-3.65396e-10
-3.32431e-10
-3.05959e-10
-2.83105e-10
-2.63557e-10
-2.46093e-10
-2.24433e-10
-1.91142e-10
-1.48251e-10
-1.06465e-10
-7.37677e-11
-5.11617e-11
-3.62292e-11
-2.63664e-11
-1.9721e-11
-1.51226e-11
-1.18523e-11
-9.46637e-12
-7.68602e-12
-6.33228e-12
-5.28771e-12
-4.47302e-12
-3.8318e-12
-3.31945e-12
-2.89477e-12
-2.51714e-12
-2.15573e-12
-1.80521e-12
-1.4935e-12
-1.24755e-12
-1.06439e-12
-9.18573e-13
-7.90028e-13
-6.78408e-13
-5.87167e-13
-5.11569e-13
-4.45538e-13
-3.8806e-13
-3.40319e-13
-3.01135e-13
-2.65657e-13
-2.31837e-13
-2.02862e-13
-1.80477e-13
-1.6012e-13
-1.39074e-13
-1.21334e-13
-1.0811e-13
-9.51912e-14
-8.26314e-14
-7.27745e-14
-6.41125e-14
-5.58387e-14
-4.91609e-14
-4.33396e-14
-3.7633e-14
-3.3107e-14
-2.96189e-14
-2.60919e-14
-2.29925e-14
-2.06206e-14
-1.8418e-14
-1.65628e-14
-1.49801e-14
-1.34898e-14
-1.23702e-14
-1.13412e-14
-1.03678e-14
-9.58915e-15
-8.97084e-15
-8.45288e-15
-8.105e-15
-7.75719e-15
-7.29961e-15
-6.65723e-15
-6.12856e-15
-5.73626e-15
-5.55526e-15
-5.36107e-15
-5.18016e-15
-4.99621e-15
-4.82943e-15
-4.65672e-15
-4.48551e-15
-4.32339e-15
-4.17184e-15
-4.0046e-15
-3.85384e-15
-3.70334e-15
-3.56494e-15
-3.42126e-15
-3.27891e-15
-3.14806e-15
-3.01349e-15
-2.89314e-15
-2.77812e-15
-2.65482e-15
-2.55137e-15
-2.44859e-15
-2.35558e-15
-2.26936e-15
-2.17985e-15
-2.12035e-15
-2.06931e-15
-2.03652e-15
-2.00626e-15
-1.98848e-15
-1.98233e-15
-1.97316e-15
-1.96289e-15
-1.9686e-15
-1.97103e-15
-1.96865e-15
-1.97344e-15
-1.95027e-15
-1.94346e-15
-1.90286e-15
-1.86987e-15
-1.82067e-15
-1.80668e-15
-1.77307e-15
-1.73102e-15
-1.66874e-15
-1.62789e-15
-1.54159e-15
-1.44175e-15
-1.31577e-15
-1.23333e-15
-1.12137e-15
-1.01211e-15
-8.72669e-16
-7.44734e-16
-6.01622e-16
-4.73037e-16
-3.75334e-16
-3.34847e-16
-3.35934e-16
-3.52598e-16
-3.67543e-16
-4.00171e-16
-4.3174e-16
-4.71003e-16
-5.02089e-16
-5.47113e-16
-5.87574e-16
-6.28651e-16
-6.60015e-16
-7.1009e-16
-7.48152e-16
-7.82262e-16
-8.10133e-16
-8.6617e-16
-9.27093e-16
-9.83915e-16
-1.04257e-15
-1.11487e-15
-1.17541e-15
-1.24696e-15
-1.30447e-15
-1.45183e-15
-1.57974e-15
-1.72497e-15
-1.84477e-15
-2.11451e-15
-2.28778e-15
-2.58494e-15
-2.51282e-15
-4.94439e-15
-7.0338e-15
-9.2528e-15
-1.14236e-14
-1.37632e-14
-1.60803e-14
-1.84253e-14
-2.06596e-14
-2.33818e-14
-2.58264e-14
-2.82985e-14
-3.03313e-14
-3.29659e-14
-3.48644e-14
-3.69406e-14
-3.80209e-14
-4.2783e-14
-4.61015e-14
-4.95869e-14
-5.14986e-14
-5.47152e-14
-5.66959e-14
-5.89954e-14
-6.28982e-14
-6.48169e-14
-6.98598e-14
-7.58746e-14
-8.90887e-14
-9.33893e-14
-1.15367e-13
-1.55466e-13
)
;

boundaryField
{
    inandouthalf11
    {
        type            cyclic;
        value           nonuniform List<scalar> 
100
(
-1.73208e-10
-1.7288e-10
-1.72712e-10
-1.72808e-10
-1.72932e-10
-1.73036e-10
-1.73136e-10
-1.73234e-10
-1.73328e-10
-1.73423e-10
-1.7352e-10
-1.7362e-10
-1.73721e-10
-1.73822e-10
-1.73922e-10
-1.7402e-10
-1.74114e-10
-1.742e-10
-1.74277e-10
-1.74343e-10
-1.74398e-10
-1.74449e-10
-1.74503e-10
-1.74571e-10
-1.74669e-10
-1.74814e-10
-1.75025e-10
-1.75323e-10
-1.75705e-10
-1.76114e-10
-1.76383e-10
-1.76271e-10
-1.75689e-10
-1.74915e-10
-1.7433e-10
-1.7405e-10
-1.73958e-10
-1.73938e-10
-1.7394e-10
-1.73946e-10
-1.73956e-10
-1.73966e-10
-1.73977e-10
-1.7399e-10
-1.74004e-10
-1.74019e-10
-1.74035e-10
-1.74052e-10
-1.7407e-10
-1.74091e-10
-1.74112e-10
-1.74134e-10
-1.74158e-10
-1.74184e-10
-1.74211e-10
-1.7424e-10
-1.74271e-10
-1.74304e-10
-1.74339e-10
-1.74374e-10
-1.74413e-10
-1.74452e-10
-1.74493e-10
-1.74535e-10
-1.74578e-10
-1.74622e-10
-1.74668e-10
-1.74715e-10
-1.74763e-10
-1.74813e-10
-1.74866e-10
-1.74921e-10
-1.74977e-10
-1.75035e-10
-1.75094e-10
-1.75156e-10
-1.75218e-10
-1.75282e-10
-1.75347e-10
-1.75414e-10
-1.75482e-10
-1.75552e-10
-1.75624e-10
-1.75698e-10
-1.75775e-10
-1.75852e-10
-1.75932e-10
-1.76014e-10
-1.76097e-10
-1.76182e-10
-1.76269e-10
-1.76357e-10
-1.76448e-10
-1.76541e-10
-1.76637e-10
-1.76734e-10
-1.76834e-10
-1.76936e-10
-1.77041e-10
-1.77148e-10
)
;
    }
    inandouthalf12
    {
        type            cyclic;
        value           nonuniform List<scalar> 
100
(
1.73208e-10
1.7288e-10
1.72712e-10
1.72808e-10
1.72932e-10
1.73036e-10
1.73136e-10
1.73234e-10
1.73328e-10
1.73423e-10
1.7352e-10
1.7362e-10
1.73721e-10
1.73822e-10
1.73922e-10
1.7402e-10
1.74114e-10
1.742e-10
1.74277e-10
1.74343e-10
1.74398e-10
1.74449e-10
1.74503e-10
1.74571e-10
1.74669e-10
1.74814e-10
1.75025e-10
1.75323e-10
1.75705e-10
1.76114e-10
1.76383e-10
1.76271e-10
1.75689e-10
1.74915e-10
1.7433e-10
1.7405e-10
1.73958e-10
1.73938e-10
1.7394e-10
1.73946e-10
1.73956e-10
1.73966e-10
1.73977e-10
1.7399e-10
1.74004e-10
1.74019e-10
1.74035e-10
1.74052e-10
1.7407e-10
1.74091e-10
1.74112e-10
1.74134e-10
1.74158e-10
1.74184e-10
1.74211e-10
1.7424e-10
1.74271e-10
1.74304e-10
1.74339e-10
1.74374e-10
1.74413e-10
1.74452e-10
1.74493e-10
1.74535e-10
1.74578e-10
1.74622e-10
1.74668e-10
1.74715e-10
1.74763e-10
1.74813e-10
1.74866e-10
1.74921e-10
1.74977e-10
1.75035e-10
1.75094e-10
1.75156e-10
1.75218e-10
1.75282e-10
1.75347e-10
1.75414e-10
1.75482e-10
1.75552e-10
1.75624e-10
1.75698e-10
1.75775e-10
1.75852e-10
1.75932e-10
1.76014e-10
1.76097e-10
1.76182e-10
1.76269e-10
1.76357e-10
1.76448e-10
1.76541e-10
1.76637e-10
1.76734e-10
1.76834e-10
1.76936e-10
1.77041e-10
1.77148e-10
)
;
    }
    inandouthalf21
    {
        type            cyclic;
        value           nonuniform List<scalar> 
100
(
-1.77257e-10
-1.7737e-10
-1.77485e-10
-1.77602e-10
-1.77723e-10
-1.77847e-10
-1.77974e-10
-1.78104e-10
-1.78237e-10
-1.78374e-10
-1.78515e-10
-1.7866e-10
-1.78808e-10
-1.78961e-10
-1.79119e-10
-1.79281e-10
-1.79447e-10
-1.79619e-10
-1.79796e-10
-1.79979e-10
-1.80168e-10
-1.80362e-10
-1.80563e-10
-1.80771e-10
-1.80986e-10
-1.81209e-10
-1.8144e-10
-1.81679e-10
-1.81927e-10
-1.82186e-10
-1.82455e-10
-1.82735e-10
-1.83028e-10
-1.83335e-10
-1.83662e-10
-1.84008e-10
-1.84371e-10
-1.84756e-10
-1.85182e-10
-1.85671e-10
-1.86203e-10
-1.86708e-10
-1.87308e-10
-1.88087e-10
-1.89044e-10
-1.90639e-10
-1.88103e-10
3.52987e-09
9.24551e-08
5.46036e-08
3.54248e-08
2.33596e-08
1.45352e-08
7.68992e-09
2.30603e-09
-1.87236e-09
-4.98673e-09
-7.11196e-09
-8.27052e-09
-8.43643e-09
-7.53586e-09
-5.44715e-09
-2.00071e-09
3.01887e-09
9.86606e-09
1.88191e-08
3.01513e-08
4.40786e-08
6.06774e-08
7.97792e-08
1.00894e-07
1.23225e-07
1.45784e-07
1.67576e-07
1.87791e-07
2.05917e-07
2.21763e-07
2.3539e-07
2.47021e-07
2.56945e-07
2.65459e-07
2.72832e-07
2.79294e-07
2.85031e-07
2.90192e-07
2.94892e-07
2.99222e-07
3.03251e-07
3.07032e-07
3.10606e-07
3.14005e-07
3.17255e-07
3.20374e-07
3.23379e-07
3.26282e-07
3.29093e-07
3.3182e-07
3.3447e-07
3.3705e-07
3.39562e-07
)
;
    }
    inandouthalf22
    {
        type            cyclic;
        value           nonuniform List<scalar> 
100
(
1.77257e-10
1.7737e-10
1.77485e-10
1.77602e-10
1.77723e-10
1.77847e-10
1.77974e-10
1.78104e-10
1.78237e-10
1.78374e-10
1.78515e-10
1.7866e-10
1.78808e-10
1.78961e-10
1.79119e-10
1.79281e-10
1.79447e-10
1.79619e-10
1.79796e-10
1.79979e-10
1.80168e-10
1.80362e-10
1.80563e-10
1.80771e-10
1.80986e-10
1.81209e-10
1.8144e-10
1.81679e-10
1.81927e-10
1.82186e-10
1.82455e-10
1.82735e-10
1.83028e-10
1.83335e-10
1.83662e-10
1.84008e-10
1.84371e-10
1.84756e-10
1.85182e-10
1.85671e-10
1.86203e-10
1.86708e-10
1.87308e-10
1.88087e-10
1.89044e-10
1.90639e-10
1.88103e-10
-3.52987e-09
-9.24551e-08
-5.46036e-08
-3.54248e-08
-2.33596e-08
-1.45352e-08
-7.68992e-09
-2.30603e-09
1.87236e-09
4.98673e-09
7.11196e-09
8.27052e-09
8.43643e-09
7.53586e-09
5.44715e-09
2.00071e-09
-3.01887e-09
-9.86606e-09
-1.88191e-08
-3.01513e-08
-4.40786e-08
-6.06774e-08
-7.97792e-08
-1.00894e-07
-1.23225e-07
-1.45784e-07
-1.67576e-07
-1.87791e-07
-2.05917e-07
-2.21763e-07
-2.3539e-07
-2.47021e-07
-2.56945e-07
-2.65459e-07
-2.72832e-07
-2.79294e-07
-2.85031e-07
-2.90192e-07
-2.94892e-07
-2.99222e-07
-3.03251e-07
-3.07032e-07
-3.10606e-07
-3.14005e-07
-3.17255e-07
-3.20374e-07
-3.23379e-07
-3.26282e-07
-3.29093e-07
-3.3182e-07
-3.3447e-07
-3.3705e-07
-3.39562e-07
)
;
    }
    inandouthalf31
    {
        type            cyclic;
        value           nonuniform List<scalar> 
110
(
3.42014e-07
3.5142e-07
3.61058e-07
3.70934e-07
3.81054e-07
3.91424e-07
4.0205e-07
4.1294e-07
4.24098e-07
4.35531e-07
4.47245e-07
4.59244e-07
4.71535e-07
4.84123e-07
4.97012e-07
5.10206e-07
5.23708e-07
5.37521e-07
5.51647e-07
5.66084e-07
5.80832e-07
5.95885e-07
6.11238e-07
6.2688e-07
6.42796e-07
6.58965e-07
6.75361e-07
6.91946e-07
7.08669e-07
7.25464e-07
7.42239e-07
7.58869e-07
7.75177e-07
7.90908e-07
8.05674e-07
8.18795e-07
8.28825e-07
8.34188e-07
8.12085e-07
8.08967e-07
8.24352e-07
8.41067e-07
8.58139e-07
8.75557e-07
8.93328e-07
9.1146e-07
9.2996e-07
9.48835e-07
9.68094e-07
9.87744e-07
1.00779e-06
1.02825e-06
1.04912e-06
1.07041e-06
1.09214e-06
1.11431e-06
1.13692e-06
1.16e-06
1.18355e-06
1.20757e-06
1.23208e-06
1.25709e-06
1.2826e-06
1.30864e-06
1.3352e-06
1.3623e-06
1.38995e-06
1.41816e-06
1.44695e-06
1.47632e-06
1.50628e-06
1.53685e-06
1.56805e-06
1.59988e-06
1.63235e-06
1.66548e-06
1.69929e-06
1.73378e-06
1.76897e-06
1.80487e-06
1.84151e-06
1.87888e-06
1.91702e-06
1.95593e-06
1.99563e-06
2.03614e-06
2.07747e-06
2.11963e-06
2.16266e-06
2.20655e-06
2.25134e-06
2.29704e-06
2.34366e-06
2.39123e-06
2.43976e-06
2.48929e-06
2.53981e-06
2.59136e-06
2.64396e-06
2.69763e-06
2.75238e-06
2.80825e-06
2.86525e-06
2.9234e-06
2.98274e-06
3.04328e-06
3.10505e-06
3.16808e-06
3.23238e-06
3.29799e-06
)
;
    }
    inandouthalf32
    {
        type            cyclic;
        value           nonuniform List<scalar> 
110
(
-3.42014e-07
-3.5142e-07
-3.61058e-07
-3.70934e-07
-3.81054e-07
-3.91424e-07
-4.0205e-07
-4.1294e-07
-4.24098e-07
-4.35531e-07
-4.47245e-07
-4.59244e-07
-4.71535e-07
-4.84123e-07
-4.97012e-07
-5.10206e-07
-5.23708e-07
-5.37521e-07
-5.51647e-07
-5.66084e-07
-5.80832e-07
-5.95885e-07
-6.11238e-07
-6.2688e-07
-6.42796e-07
-6.58965e-07
-6.75361e-07
-6.91946e-07
-7.08669e-07
-7.25464e-07
-7.42239e-07
-7.58869e-07
-7.75177e-07
-7.90908e-07
-8.05674e-07
-8.18795e-07
-8.28825e-07
-8.34188e-07
-8.12085e-07
-8.08967e-07
-8.24352e-07
-8.41067e-07
-8.58139e-07
-8.75557e-07
-8.93328e-07
-9.1146e-07
-9.2996e-07
-9.48835e-07
-9.68094e-07
-9.87744e-07
-1.00779e-06
-1.02825e-06
-1.04912e-06
-1.07041e-06
-1.09214e-06
-1.11431e-06
-1.13692e-06
-1.16e-06
-1.18355e-06
-1.20757e-06
-1.23208e-06
-1.25709e-06
-1.2826e-06
-1.30864e-06
-1.3352e-06
-1.3623e-06
-1.38995e-06
-1.41816e-06
-1.44695e-06
-1.47632e-06
-1.50628e-06
-1.53685e-06
-1.56805e-06
-1.59988e-06
-1.63235e-06
-1.66548e-06
-1.69929e-06
-1.73378e-06
-1.76897e-06
-1.80487e-06
-1.84151e-06
-1.87888e-06
-1.91702e-06
-1.95593e-06
-1.99563e-06
-2.03614e-06
-2.07747e-06
-2.11963e-06
-2.16266e-06
-2.20655e-06
-2.25134e-06
-2.29704e-06
-2.34366e-06
-2.39123e-06
-2.43976e-06
-2.48929e-06
-2.53981e-06
-2.59136e-06
-2.64396e-06
-2.69763e-06
-2.75238e-06
-2.80825e-06
-2.86525e-06
-2.9234e-06
-2.98274e-06
-3.04328e-06
-3.10505e-06
-3.16808e-06
-3.23238e-06
-3.29799e-06
)
;
    }
    inandouthalf41
    {
        type            cyclic;
        value           nonuniform List<scalar> 
50
(
2.95204e-06
2.95204e-06
2.95204e-06
2.95204e-06
2.95204e-06
2.95204e-06
2.95204e-06
2.95204e-06
2.95204e-06
2.95204e-06
2.95204e-06
2.95204e-06
2.95204e-06
2.95204e-06
2.95204e-06
2.95204e-06
2.95204e-06
2.95204e-06
2.95204e-06
2.95204e-06
2.95204e-06
2.95204e-06
2.95204e-06
2.95204e-06
2.95204e-06
2.95204e-06
2.95204e-06
2.95204e-06
2.95204e-06
2.95204e-06
2.95204e-06
2.95204e-06
2.95204e-06
2.95204e-06
2.95204e-06
2.95204e-06
2.95204e-06
2.95204e-06
2.95204e-06
2.95204e-06
2.95204e-06
2.95204e-06
2.95204e-06
2.95204e-06
2.95204e-06
2.95204e-06
2.95204e-06
2.95204e-06
2.95204e-06
2.95204e-06
)
;
    }
    inandouthalf42
    {
        type            cyclic;
        value           nonuniform List<scalar> 
50
(
-2.95204e-06
-2.95204e-06
-2.95204e-06
-2.95204e-06
-2.95204e-06
-2.95204e-06
-2.95204e-06
-2.95204e-06
-2.95204e-06
-2.95204e-06
-2.95204e-06
-2.95204e-06
-2.95204e-06
-2.95204e-06
-2.95204e-06
-2.95204e-06
-2.95204e-06
-2.95204e-06
-2.95204e-06
-2.95204e-06
-2.95204e-06
-2.95204e-06
-2.95204e-06
-2.95204e-06
-2.95204e-06
-2.95204e-06
-2.95204e-06
-2.95204e-06
-2.95204e-06
-2.95204e-06
-2.95204e-06
-2.95204e-06
-2.95204e-06
-2.95204e-06
-2.95204e-06
-2.95204e-06
-2.95204e-06
-2.95204e-06
-2.95204e-06
-2.95204e-06
-2.95204e-06
-2.95204e-06
-2.95204e-06
-2.95204e-06
-2.95204e-06
-2.95204e-06
-2.95204e-06
-2.95204e-06
-2.95204e-06
-2.95204e-06
)
;
    }
    top
    {
        type            symmetryPlane;
        value           uniform 0;
    }
    walls
    {
        type            calculated;
        value           uniform 0;
    }
    frontAndBackPlanes
    {
        type            empty;
        value           nonuniform 0();
    }
}


// ************************************************************************* //
