/*--------------------------------*- C++ -*----------------------------------*\
| =========                 |                                                 |
| \\      /  F ield         | OpenFOAM: The Open Source CFD Toolbox           |
|  \\    /   O peration     | Version:  2.4.x                                 |
|   \\  /    A nd           | Web:      www.OpenFOAM.org                      |
|    \\/     M anipulation  |                                                 |
\*---------------------------------------------------------------------------*/
FoamFile
{
    version     2.0;
    format      ascii;
    class       surfaceScalarField;
    location    "4.15";
    object      phib_0;
}
// * * * * * * * * * * * * * * * * * * * * * * * * * * * * * * * * * * * * * //

dimensions      [0 3 -1 0 0 0 0];

internalField   nonuniform List<scalar> 
359
(
1.01538e-12
2.91788e-12
4.732e-12
6.38555e-12
8.01167e-12
9.67645e-12
1.13857e-11
1.31244e-11
1.48761e-11
1.66374e-11
1.84134e-11
2.02106e-11
2.20344e-11
2.38859e-11
2.57638e-11
2.76652e-11
2.95853e-11
3.15158e-11
3.34454e-11
3.53627e-11
3.72557e-11
3.91213e-11
4.09661e-11
4.28121e-11
4.47001e-11
4.6694e-11
4.88837e-11
5.13836e-11
5.43036e-11
5.76724e-11
6.12998e-11
6.47008e-11
6.72873e-11
6.88087e-11
6.94863e-11
6.97214e-11
6.979e-11
6.98088e-11
6.98141e-11
6.98153e-11
6.98151e-11
6.98145e-11
6.98136e-11
6.98127e-11
6.98119e-11
6.98113e-11
6.98108e-11
6.98104e-11
6.98097e-11
6.98089e-11
6.98079e-11
6.98065e-11
6.98048e-11
6.98029e-11
6.98005e-11
6.97978e-11
6.97949e-11
6.97917e-11
6.97883e-11
6.97847e-11
6.97808e-11
6.97768e-11
6.97727e-11
6.97684e-11
6.97641e-11
6.97596e-11
6.97548e-11
6.97497e-11
6.97445e-11
6.97389e-11
6.9733e-11
6.9727e-11
6.97208e-11
6.97144e-11
6.97079e-11
6.97014e-11
6.96948e-11
6.96881e-11
6.96811e-11
6.96741e-11
6.96668e-11
6.96592e-11
6.96515e-11
6.96435e-11
6.96353e-11
6.96269e-11
6.96183e-11
6.96095e-11
6.96006e-11
6.95914e-11
6.9582e-11
6.95724e-11
6.95624e-11
6.95521e-11
6.95414e-11
6.95304e-11
6.95191e-11
6.95074e-11
6.94953e-11
6.94828e-11
6.94698e-11
6.94565e-11
6.94426e-11
6.94282e-11
6.94133e-11
6.93978e-11
6.93818e-11
6.93651e-11
6.93477e-11
6.93296e-11
6.93109e-11
6.92913e-11
6.92709e-11
6.92497e-11
6.92276e-11
6.92047e-11
6.91807e-11
6.91558e-11
6.91298e-11
6.91028e-11
6.90747e-11
6.90455e-11
6.9015e-11
6.89833e-11
6.89502e-11
6.89156e-11
6.88794e-11
6.88414e-11
6.88015e-11
6.87593e-11
6.87149e-11
6.86679e-11
6.86179e-11
6.85642e-11
6.85067e-11
6.84454e-11
6.83802e-11
6.83089e-11
6.82277e-11
6.81366e-11
6.80436e-11
6.79439e-11
6.78191e-11
6.76623e-11
6.74314e-11
6.69255e-11
6.32264e-11
-9.87266e-10
-1.3635e-09
-1.28528e-09
-1.19071e-09
-1.08539e-09
-9.75553e-10
-8.65538e-10
-7.58674e-10
-6.57515e-10
-5.63837e-10
-4.78695e-10
-4.02529e-10
-3.3528e-10
-2.7658e-10
-2.25864e-10
-1.82471e-10
-1.45696e-10
-1.148e-10
-8.89834e-11
-6.7437e-11
-4.95731e-11
-3.52382e-11
-2.44519e-11
-1.68955e-11
-1.18488e-11
-8.52451e-12
-6.31242e-12
-4.80951e-12
-3.76435e-12
-3.02086e-12
-2.48048e-12
-2.07931e-12
-1.77468e-12
-1.53723e-12
-1.34611e-12
-1.18605e-12
-1.04568e-12
-9.16667e-13
-7.93742e-13
-6.75526e-13
-5.65177e-13
-4.68839e-13
-3.91189e-13
-3.31061e-13
-2.82706e-13
-2.41241e-13
-2.05497e-13
-1.75771e-13
-1.51128e-13
-1.30052e-13
-1.11909e-13
-9.66255e-14
-8.38577e-14
-7.28752e-14
-6.28802e-14
-5.40613e-14
-4.6824e-14
-4.06778e-14
-3.48108e-14
-2.94821e-14
-2.53195e-14
-2.1818e-14
-1.83849e-14
-1.54574e-14
-1.31609e-14
-1.10546e-14
-9.20438e-15
-7.75883e-15
-6.44885e-15
-5.24893e-15
-4.35608e-15
-3.62294e-15
-2.89541e-15
-2.31381e-15
-1.87336e-15
-1.4713e-15
-1.14943e-15
-8.87598e-16
-6.59357e-16
-4.93096e-16
-3.55479e-16
-2.35664e-16
-1.52323e-16
-9.13196e-17
-4.93776e-17
-2.32954e-17
-4.7116e-18
7.21423e-18
1.29944e-17
2.07364e-16
1.02573e-17
9.91944e-18
9.61768e-18
9.28567e-18
8.98573e-18
8.65856e-18
8.35585e-18
8.04584e-18
7.7515e-18
7.43509e-18
7.14346e-18
6.8328e-18
6.54591e-18
6.25089e-18
5.96704e-18
5.66773e-18
5.38583e-18
5.09143e-18
4.81366e-18
4.52823e-18
4.25906e-18
3.98399e-18
3.72485e-18
3.46735e-18
3.2297e-18
3.00041e-18
2.80133e-18
2.62764e-18
2.48387e-18
2.39269e-18
2.27928e-18
2.17893e-18
2.08933e-18
2.00385e-18
1.92516e-18
1.86262e-18
1.80431e-18
1.74631e-18
1.68554e-18
1.63076e-18
1.57051e-18
1.50987e-18
1.44599e-18
1.40521e-18
1.35992e-18
1.31412e-18
1.2546e-18
1.20367e-18
1.13749e-18
1.0994e-18
1.01399e-18
9.51612e-19
8.7334e-19
7.92931e-19
6.93382e-19
6.09363e-19
5.08245e-19
4.118e-19
3.05054e-19
3.12214e-19
2.97651e-19
2.92236e-19
3.61478e-19
3.60453e-19
3.51713e-19
3.43037e-19
3.26884e-19
3.27691e-19
3.21295e-19
3.1535e-19
3.00883e-19
2.93038e-19
2.77601e-19
2.63268e-19
2.44668e-19
2.37623e-19
2.25291e-19
2.13313e-19
1.96004e-19
1.81732e-19
1.6374e-19
1.45062e-19
1.23879e-19
9.77008e-20
7.06487e-20
4.25129e-20
1.59571e-20
-2.70381e-20
-6.13842e-20
-1.11425e-19
-1.41366e-19
-4.22885e-19
-6.81366e-19
-9.55252e-19
-1.21038e-18
-1.49832e-18
-1.75918e-18
-2.02399e-18
-2.2459e-18
-2.57727e-18
-2.83748e-18
-3.10037e-18
-3.25685e-18
-3.53345e-18
-3.64408e-18
-3.77845e-18
-3.70478e-18
-4.23022e-18
-4.43587e-18
-4.6558e-18
-4.42047e-18
-4.59247e-18
-4.16005e-18
-3.72185e-18
-2.44912e-18
-2.51311e-18
-1.55744e-18
-5.31993e-19
1.94676e-18
3.06973e-18
6.62343e-18
1.1838e-17
)
;

boundaryField
{
    inandouthalf11
    {
        type            cyclic;
        value           nonuniform List<scalar> 
100
(
7.84736e-11
7.83118e-11
7.82862e-11
7.83792e-11
7.84765e-11
7.85633e-11
7.86496e-11
7.8737e-11
7.88243e-11
7.89129e-11
7.90033e-11
7.90951e-11
7.91885e-11
7.92832e-11
7.93793e-11
7.9477e-11
7.95762e-11
7.96763e-11
7.97769e-11
7.98777e-11
7.99774e-11
8.00763e-11
8.01741e-11
8.02716e-11
8.03704e-11
8.04732e-11
8.05838e-11
8.0708e-11
8.08516e-11
8.1019e-11
8.1207e-11
8.13978e-11
8.15588e-11
8.16667e-11
8.17213e-11
8.1744e-11
8.17531e-11
8.17584e-11
8.17632e-11
8.17669e-11
8.17718e-11
8.17766e-11
8.17814e-11
8.17873e-11
8.17933e-11
8.17998e-11
8.1807e-11
8.1814e-11
8.18222e-11
8.18315e-11
8.18406e-11
8.18508e-11
8.18614e-11
8.1873e-11
8.1885e-11
8.18983e-11
8.19119e-11
8.19267e-11
8.19421e-11
8.1958e-11
8.19754e-11
8.19928e-11
8.20112e-11
8.20298e-11
8.2049e-11
8.20685e-11
8.20888e-11
8.21098e-11
8.21315e-11
8.21538e-11
8.21774e-11
8.22019e-11
8.22267e-11
8.22528e-11
8.22793e-11
8.23067e-11
8.23343e-11
8.23627e-11
8.23917e-11
8.24214e-11
8.24518e-11
8.24831e-11
8.25153e-11
8.25483e-11
8.25822e-11
8.26168e-11
8.26524e-11
8.26886e-11
8.27256e-11
8.27634e-11
8.28021e-11
8.28416e-11
8.2882e-11
8.29234e-11
8.29658e-11
8.30092e-11
8.30537e-11
8.30992e-11
8.31457e-11
8.31934e-11
)
;
    }
    inandouthalf12
    {
        type            cyclic;
        value           nonuniform List<scalar> 
100
(
-7.84736e-11
-7.83118e-11
-7.82862e-11
-7.83792e-11
-7.84765e-11
-7.85633e-11
-7.86496e-11
-7.8737e-11
-7.88243e-11
-7.89129e-11
-7.90033e-11
-7.90951e-11
-7.91885e-11
-7.92832e-11
-7.93793e-11
-7.9477e-11
-7.95762e-11
-7.96763e-11
-7.97769e-11
-7.98777e-11
-7.99774e-11
-8.00763e-11
-8.01741e-11
-8.02716e-11
-8.03704e-11
-8.04732e-11
-8.05838e-11
-8.0708e-11
-8.08516e-11
-8.1019e-11
-8.1207e-11
-8.13978e-11
-8.15588e-11
-8.16667e-11
-8.17213e-11
-8.1744e-11
-8.17531e-11
-8.17584e-11
-8.17632e-11
-8.17669e-11
-8.17718e-11
-8.17766e-11
-8.17814e-11
-8.17873e-11
-8.17933e-11
-8.17998e-11
-8.1807e-11
-8.1814e-11
-8.18222e-11
-8.18315e-11
-8.18406e-11
-8.18508e-11
-8.18614e-11
-8.1873e-11
-8.1885e-11
-8.18983e-11
-8.19119e-11
-8.19267e-11
-8.19421e-11
-8.1958e-11
-8.19754e-11
-8.19928e-11
-8.20112e-11
-8.20298e-11
-8.2049e-11
-8.20685e-11
-8.20888e-11
-8.21098e-11
-8.21315e-11
-8.21538e-11
-8.21774e-11
-8.22019e-11
-8.22267e-11
-8.22528e-11
-8.22793e-11
-8.23067e-11
-8.23343e-11
-8.23627e-11
-8.23917e-11
-8.24214e-11
-8.24518e-11
-8.24831e-11
-8.25153e-11
-8.25483e-11
-8.25822e-11
-8.26168e-11
-8.26524e-11
-8.26886e-11
-8.27256e-11
-8.27634e-11
-8.28021e-11
-8.28416e-11
-8.2882e-11
-8.29234e-11
-8.29658e-11
-8.30092e-11
-8.30537e-11
-8.30992e-11
-8.31457e-11
-8.31934e-11
)
;
    }
    inandouthalf21
    {
        type            cyclic;
        value           nonuniform List<scalar> 
100
(
8.32422e-11
8.32922e-11
8.33434e-11
8.33959e-11
8.34497e-11
8.35048e-11
8.35614e-11
8.36195e-11
8.36791e-11
8.37403e-11
8.38032e-11
8.38678e-11
8.39343e-11
8.40026e-11
8.4073e-11
8.41454e-11
8.42201e-11
8.4297e-11
8.43763e-11
8.44581e-11
8.45425e-11
8.46298e-11
8.47199e-11
8.48131e-11
8.49094e-11
8.50092e-11
8.51126e-11
8.52198e-11
8.53314e-11
8.54475e-11
8.55684e-11
8.56942e-11
8.58257e-11
8.59642e-11
8.61115e-11
8.62674e-11
8.64311e-11
8.6605e-11
8.67975e-11
8.70188e-11
8.72592e-11
8.74882e-11
8.77605e-11
8.81146e-11
8.85506e-11
8.92888e-11
9.19522e-11
6.96999e-10
8.98536e-08
2.06297e-07
2.9599e-07
3.69144e-07
4.3067e-07
4.83394e-07
5.292e-07
5.69445e-07
6.05138e-07
6.37055e-07
6.65795e-07
6.91826e-07
7.15514e-07
7.37142e-07
7.56932e-07
7.75048e-07
7.91614e-07
8.06717e-07
8.20414e-07
8.32742e-07
8.43719e-07
8.53366e-07
8.61707e-07
8.68789e-07
8.74686e-07
8.79498e-07
8.83346e-07
8.8636e-07
8.8867e-07
8.90392e-07
8.91629e-07
8.92467e-07
8.92975e-07
8.93208e-07
8.93209e-07
8.93013e-07
8.92647e-07
8.92133e-07
8.91487e-07
8.90726e-07
8.89859e-07
8.88897e-07
8.87849e-07
8.86721e-07
8.8552e-07
8.84252e-07
8.82921e-07
8.81533e-07
8.8009e-07
8.78598e-07
8.77058e-07
8.75476e-07
)
;
    }
    inandouthalf22
    {
        type            cyclic;
        value           nonuniform List<scalar> 
100
(
-8.32422e-11
-8.32922e-11
-8.33434e-11
-8.33959e-11
-8.34497e-11
-8.35048e-11
-8.35614e-11
-8.36195e-11
-8.36791e-11
-8.37403e-11
-8.38032e-11
-8.38678e-11
-8.39343e-11
-8.40026e-11
-8.4073e-11
-8.41454e-11
-8.42201e-11
-8.4297e-11
-8.43763e-11
-8.44581e-11
-8.45425e-11
-8.46298e-11
-8.47199e-11
-8.48131e-11
-8.49094e-11
-8.50092e-11
-8.51126e-11
-8.52198e-11
-8.53314e-11
-8.54475e-11
-8.55684e-11
-8.56942e-11
-8.58257e-11
-8.59642e-11
-8.61115e-11
-8.62674e-11
-8.64311e-11
-8.6605e-11
-8.67975e-11
-8.70188e-11
-8.72592e-11
-8.74882e-11
-8.77605e-11
-8.81146e-11
-8.85506e-11
-8.92888e-11
-9.19522e-11
-6.96999e-10
-8.98536e-08
-2.06297e-07
-2.9599e-07
-3.69144e-07
-4.3067e-07
-4.83394e-07
-5.292e-07
-5.69445e-07
-6.05138e-07
-6.37055e-07
-6.65795e-07
-6.91826e-07
-7.15514e-07
-7.37142e-07
-7.56932e-07
-7.75048e-07
-7.91614e-07
-8.06717e-07
-8.20414e-07
-8.32742e-07
-8.43719e-07
-8.53366e-07
-8.61707e-07
-8.68789e-07
-8.74686e-07
-8.79498e-07
-8.83346e-07
-8.8636e-07
-8.8867e-07
-8.90392e-07
-8.91629e-07
-8.92467e-07
-8.92975e-07
-8.93208e-07
-8.93209e-07
-8.93013e-07
-8.92647e-07
-8.92133e-07
-8.91487e-07
-8.90726e-07
-8.89859e-07
-8.88897e-07
-8.87849e-07
-8.86721e-07
-8.8552e-07
-8.84252e-07
-8.82921e-07
-8.81533e-07
-8.8009e-07
-8.78598e-07
-8.77058e-07
-8.75476e-07
)
;
    }
    inandouthalf31
    {
        type            cyclic;
        value           nonuniform List<scalar> 
110
(
8.73856e-07
8.89881e-07
9.06123e-07
9.22582e-07
9.39258e-07
9.56152e-07
9.73264e-07
9.90594e-07
1.00814e-06
1.02591e-06
1.04389e-06
1.0621e-06
1.08052e-06
1.09916e-06
1.11802e-06
1.13711e-06
1.15641e-06
1.17593e-06
1.19568e-06
1.21565e-06
1.23585e-06
1.25628e-06
1.27695e-06
1.29786e-06
1.31901e-06
1.34042e-06
1.36209e-06
1.38405e-06
1.4063e-06
1.42887e-06
1.45179e-06
1.4751e-06
1.49883e-06
1.52307e-06
1.54789e-06
1.57342e-06
1.59984e-06
1.62746e-06
1.65744e-06
1.69051e-06
1.72479e-06
1.75979e-06
1.7955e-06
1.83193e-06
1.86911e-06
1.90704e-06
1.94574e-06
1.98523e-06
2.02552e-06
2.06663e-06
2.10857e-06
2.15137e-06
2.19503e-06
2.23959e-06
2.28504e-06
2.33142e-06
2.37874e-06
2.42702e-06
2.47629e-06
2.52655e-06
2.57783e-06
2.63015e-06
2.68354e-06
2.738e-06
2.79358e-06
2.85028e-06
2.90813e-06
2.96716e-06
3.02739e-06
3.08883e-06
3.15153e-06
3.2155e-06
3.28076e-06
3.34735e-06
3.4153e-06
3.48462e-06
3.55535e-06
3.62751e-06
3.70114e-06
3.77626e-06
3.85291e-06
3.93111e-06
4.01091e-06
4.09232e-06
4.17538e-06
4.26013e-06
4.3466e-06
4.43482e-06
4.52484e-06
4.61668e-06
4.71039e-06
4.80599e-06
4.90354e-06
5.00307e-06
5.10462e-06
5.20823e-06
5.31394e-06
5.4218e-06
5.53185e-06
5.64413e-06
5.75869e-06
5.87558e-06
5.99484e-06
6.11652e-06
6.24067e-06
6.36734e-06
6.49658e-06
6.62844e-06
6.76298e-06
6.90025e-06
)
;
    }
    inandouthalf32
    {
        type            cyclic;
        value           nonuniform List<scalar> 
110
(
-8.73856e-07
-8.89881e-07
-9.06123e-07
-9.22582e-07
-9.39258e-07
-9.56152e-07
-9.73264e-07
-9.90594e-07
-1.00814e-06
-1.02591e-06
-1.04389e-06
-1.0621e-06
-1.08052e-06
-1.09916e-06
-1.11802e-06
-1.13711e-06
-1.15641e-06
-1.17593e-06
-1.19568e-06
-1.21565e-06
-1.23585e-06
-1.25628e-06
-1.27695e-06
-1.29786e-06
-1.31901e-06
-1.34042e-06
-1.36209e-06
-1.38405e-06
-1.4063e-06
-1.42887e-06
-1.45179e-06
-1.4751e-06
-1.49883e-06
-1.52307e-06
-1.54789e-06
-1.57342e-06
-1.59984e-06
-1.62746e-06
-1.65744e-06
-1.69051e-06
-1.72479e-06
-1.75979e-06
-1.7955e-06
-1.83193e-06
-1.86911e-06
-1.90704e-06
-1.94574e-06
-1.98523e-06
-2.02552e-06
-2.06663e-06
-2.10857e-06
-2.15137e-06
-2.19503e-06
-2.23959e-06
-2.28504e-06
-2.33142e-06
-2.37874e-06
-2.42702e-06
-2.47629e-06
-2.52655e-06
-2.57783e-06
-2.63015e-06
-2.68354e-06
-2.738e-06
-2.79358e-06
-2.85028e-06
-2.90813e-06
-2.96716e-06
-3.02739e-06
-3.08883e-06
-3.15153e-06
-3.2155e-06
-3.28076e-06
-3.34735e-06
-3.4153e-06
-3.48462e-06
-3.55535e-06
-3.62751e-06
-3.70114e-06
-3.77626e-06
-3.85291e-06
-3.93111e-06
-4.01091e-06
-4.09232e-06
-4.17538e-06
-4.26013e-06
-4.3466e-06
-4.43482e-06
-4.52484e-06
-4.61668e-06
-4.71039e-06
-4.80599e-06
-4.90354e-06
-5.00307e-06
-5.10462e-06
-5.20823e-06
-5.31394e-06
-5.4218e-06
-5.53185e-06
-5.64413e-06
-5.75869e-06
-5.87558e-06
-5.99484e-06
-6.11652e-06
-6.24067e-06
-6.36734e-06
-6.49658e-06
-6.62844e-06
-6.76298e-06
-6.90025e-06
)
;
    }
    inandouthalf41
    {
        type            cyclic;
        value           nonuniform List<scalar> 
50
(
6.17643e-06
6.17643e-06
6.17643e-06
6.17643e-06
6.17643e-06
6.17643e-06
6.17643e-06
6.17643e-06
6.17643e-06
6.17643e-06
6.17643e-06
6.17643e-06
6.17643e-06
6.17643e-06
6.17643e-06
6.17643e-06
6.17643e-06
6.17643e-06
6.17643e-06
6.17643e-06
6.17643e-06
6.17643e-06
6.17643e-06
6.17643e-06
6.17643e-06
6.17643e-06
6.17643e-06
6.17643e-06
6.17643e-06
6.17643e-06
6.17643e-06
6.17643e-06
6.17643e-06
6.17643e-06
6.17643e-06
6.17643e-06
6.17643e-06
6.17643e-06
6.17643e-06
6.17643e-06
6.17643e-06
6.17643e-06
6.17643e-06
6.17643e-06
6.17643e-06
6.17643e-06
6.17643e-06
6.17643e-06
6.17643e-06
6.17643e-06
)
;
    }
    inandouthalf42
    {
        type            cyclic;
        value           nonuniform List<scalar> 
50
(
-6.17643e-06
-6.17643e-06
-6.17643e-06
-6.17643e-06
-6.17643e-06
-6.17643e-06
-6.17643e-06
-6.17643e-06
-6.17643e-06
-6.17643e-06
-6.17643e-06
-6.17643e-06
-6.17643e-06
-6.17643e-06
-6.17643e-06
-6.17643e-06
-6.17643e-06
-6.17643e-06
-6.17643e-06
-6.17643e-06
-6.17643e-06
-6.17643e-06
-6.17643e-06
-6.17643e-06
-6.17643e-06
-6.17643e-06
-6.17643e-06
-6.17643e-06
-6.17643e-06
-6.17643e-06
-6.17643e-06
-6.17643e-06
-6.17643e-06
-6.17643e-06
-6.17643e-06
-6.17643e-06
-6.17643e-06
-6.17643e-06
-6.17643e-06
-6.17643e-06
-6.17643e-06
-6.17643e-06
-6.17643e-06
-6.17643e-06
-6.17643e-06
-6.17643e-06
-6.17643e-06
-6.17643e-06
-6.17643e-06
-6.17643e-06
)
;
    }
    top
    {
        type            symmetryPlane;
        value           uniform 0;
    }
    walls
    {
        type            fixedValue;
        value           uniform 0;
    }
    frontAndBackPlanes
    {
        type            empty;
        value           nonuniform 0();
    }
}


// ************************************************************************* //
