/*--------------------------------*- C++ -*----------------------------------*\
| =========                 |                                                 |
| \\      /  F ield         | OpenFOAM: The Open Source CFD Toolbox           |
|  \\    /   O peration     | Version:  2.4.x                                 |
|   \\  /    A nd           | Web:      www.OpenFOAM.org                      |
|    \\/     M anipulation  |                                                 |
\*---------------------------------------------------------------------------*/
FoamFile
{
    version     2.0;
    format      ascii;
    class       volScalarField;
    location    "4.15";
    object      Theta_0;
}
// * * * * * * * * * * * * * * * * * * * * * * * * * * * * * * * * * * * * * //

dimensions      [0 2 -2 0 0 0 0];

internalField   nonuniform List<scalar> 
360
(
6.6744e-21
6.71512e-21
6.70798e-21
6.6987e-21
6.69824e-21
6.70036e-21
6.70244e-21
6.70383e-21
6.70453e-21
6.70503e-21
6.70577e-21
6.70687e-21
6.70825e-21
6.70971e-21
6.71113e-21
6.71242e-21
6.71344e-21
6.71403e-21
6.71402e-21
6.71334e-21
6.71208e-21
6.71063e-21
6.70958e-21
6.70968e-21
6.71196e-21
6.71787e-21
6.72965e-21
6.75056e-21
6.78343e-21
6.82429e-21
6.8504e-21
6.82653e-21
6.75627e-21
6.694e-21
6.66785e-21
6.66214e-21
6.66143e-21
6.66136e-21
6.66136e-21
6.66136e-21
6.66136e-21
6.66136e-21
6.66136e-21
6.66136e-21
6.66135e-21
6.66135e-21
6.66135e-21
6.66135e-21
6.66135e-21
6.66135e-21
6.66135e-21
6.66135e-21
6.66135e-21
6.66135e-21
6.66135e-21
6.66135e-21
6.66135e-21
6.66135e-21
6.66135e-21
6.66135e-21
6.66135e-21
6.66135e-21
6.66135e-21
6.66135e-21
6.66135e-21
6.66135e-21
6.66135e-21
6.66134e-21
6.66134e-21
6.66134e-21
6.66134e-21
6.66134e-21
6.66134e-21
6.66134e-21
6.66134e-21
6.66134e-21
6.66134e-21
6.66134e-21
6.66134e-21
6.66133e-21
6.66133e-21
6.66133e-21
6.66133e-21
6.66133e-21
6.66133e-21
6.66133e-21
6.66133e-21
6.66133e-21
6.66132e-21
6.66132e-21
6.66132e-21
6.66132e-21
6.66132e-21
6.66132e-21
6.66132e-21
6.66132e-21
6.66131e-21
6.66131e-21
6.66131e-21
6.66124e-21
0
0
0
0
0
0
0
0
0
0
0
0
0
0
0
6.66128e-21
6.66128e-21
6.66127e-21
6.66127e-21
6.66127e-21
6.66127e-21
6.66126e-21
6.66126e-21
6.66126e-21
6.66125e-21
6.66125e-21
6.66125e-21
6.66124e-21
6.66124e-21
6.66124e-21
6.66123e-21
6.66123e-21
7.05902e-21
1.01728e-20
1.80408e-20
8.7478e-20
8.04236e-19
8.42039e-18
9.56004e-17
1.19428e-15
1.67229e-14
2.67403e-13
4.98148e-12
1.11133e-10
4.41497e-09
4.54347e-07
1.73562e-05
0.000226778
0.00152902
0.00313339
0.00383804
0.00423338
0.00448634
0.0046581
0.00477148
0.00483498
0.00485235
0.00482647
0.00476106
0.00466109
0.00453274
0.00438289
0.00421858
0.00404674
0.00387377
0.00370536
0.00354596
0.00339862
0.00326472
0.00314424
0.00303617
0.00293917
0.00285191
0.00277322
0.0027021
0.00263766
0.00257912
0.00252579
0.00247705
0.00243234
0.00239117
0.00235309
0.0023177
0.00228461
0.00225351
0.00222406
0.00219599
0.00216903
0.00214294
0.00211752
0.00209262
0.0020681
0.00204389
0.0020199
0.00199607
0.00197235
0.0019487
0.00192508
0.00190147
0.00187783
0.00185414
0.00183016
0.00180561
0.00178046
0.00175468
0.00172825
0.00170112
0.00167326
0.00164465
0.00161524
0.001585
0.00155388
0.00152184
0.00148883
0.0014548
0.0014197
0.00138346
0.00134602
0.0013073
0.00126723
0.0012257
0.00118261
0.00113783
0.00109124
0.00104266
0.000991913
0.000938755
0.00088291
0.000824034
0.00076168
0.000695268
0.000624006
0.000546757
0.000461767
0.000365955
0.000252604
0
0
0
0
0
0
0
0
0
0
0
0
0
0
0
0
0
0
0
0
0
0
0
0
0
0
0
0
0
0
0
0
0
0
0
0
0
0
0
0
0
0
0
0
0
0
0
0
0
0
0
0
0
0
0
0
0
0
0
0
0
0
0
0
0
0
0
0
0
0
0
0
0
0
0
0
0
0
0
0
0
0
0
0
0
0
0
0
0
0
0
0
0
0
0
0
0
0
0
0
0
0
0
0
0
0
0
0
0
0
0
0
0
0
0
0
0
0
0
0
0
0
0
0
)
;

boundaryField
{
    inandouthalf11
    {
        type            cyclic;
    }
    inandouthalf12
    {
        type            cyclic;
    }
    inandouthalf21
    {
        type            cyclic;
    }
    inandouthalf22
    {
        type            cyclic;
    }
    inandouthalf31
    {
        type            cyclic;
    }
    inandouthalf32
    {
        type            cyclic;
    }
    inandouthalf41
    {
        type            cyclic;
    }
    inandouthalf42
    {
        type            cyclic;
    }
    top
    {
        type            symmetryPlane;
    }
    walls
    {
        type            zeroGradient;
    }
    frontAndBackPlanes
    {
        type            empty;
    }
}


// ************************************************************************* //
