/*--------------------------------*- C++ -*----------------------------------*\
| =========                 |                                                 |
| \\      /  F ield         | OpenFOAM: The Open Source CFD Toolbox           |
|  \\    /   O peration     | Version:  2.4.x                                 |
|   \\  /    A nd           | Web:      www.OpenFOAM.org                      |
|    \\/     M anipulation  |                                                 |
\*---------------------------------------------------------------------------*/
FoamFile
{
    version     2.0;
    format      ascii;
    class       volVectorField;
    location    "4.15";
    object      U;
}
// * * * * * * * * * * * * * * * * * * * * * * * * * * * * * * * * * * * * * //

dimensions      [0 1 -1 0 0 0 0];

internalField   nonuniform List<vector> 
360
(
(-3.05619e-05 4.66371e-08 0)
(-3.04926e-05 -4.65829e-10 0)
(-3.05168e-05 -1.01278e-08 0)
(-3.05974e-05 -3.01849e-09 0)
(-3.06786e-05 9.30723e-10 0)
(-3.07549e-05 1.32478e-09 0)
(-3.08321e-05 9.04432e-10 0)
(-3.09106e-05 4.77824e-10 0)
(-3.09896e-05 2.18501e-10 0)
(-3.10695e-05 2.36922e-10 0)
(-3.11507e-05 4.19268e-10 0)
(-3.12332e-05 5.8423e-10 0)
(-3.1317e-05 6.65907e-10 0)
(-3.14021e-05 6.60628e-10 0)
(-3.14887e-05 6.06924e-10 0)
(-3.15766e-05 5.14594e-10 0)
(-3.16659e-05 3.56744e-10 0)
(-3.17561e-05 1.2168e-10 0)
(-3.18467e-05 -1.79134e-10 0)
(-3.19375e-05 -4.72661e-10 0)
(-3.20274e-05 -6.89923e-10 0)
(-3.21165e-05 -6.73461e-10 0)
(-3.22046e-05 -3.45897e-10 0)
(-3.22925e-05 3.89771e-10 0)
(-3.23816e-05 1.63301e-09 0)
(-3.24743e-05 3.48436e-09 0)
(-3.25743e-05 5.99157e-09 0)
(-3.26865e-05 8.96837e-09 0)
(-3.28163e-05 1.13073e-08 0)
(-3.29678e-05 1.02745e-08 0)
(-3.31382e-05 1.96436e-09 0)
(-3.33111e-05 -1.33232e-08 0)
(-3.34571e-05 -2.58582e-08 0)
(-3.35542e-05 -2.52094e-08 0)
(-3.36026e-05 -1.51392e-08 0)
(-3.36219e-05 -6.11498e-09 0)
(-3.36289e-05 -1.8905e-09 0)
(-3.36324e-05 -5.23092e-10 0)
(-3.3635e-05 -1.17132e-10 0)
(-3.3637e-05 -7.98078e-11 0)
(-3.36395e-05 -8.32691e-12 0)
(-3.3642e-05 2.08922e-12 0)
(-3.36445e-05 -3.14272e-11 0)
(-3.36476e-05 1.31639e-11 0)
(-3.36506e-05 -5.5701e-12 0)
(-3.3654e-05 -4.06913e-12 0)
(-3.36577e-05 1.53971e-11 0)
(-3.36614e-05 -2.5976e-11 0)
(-3.36657e-05 -2.59182e-11 0)
(-3.36705e-05 1.15468e-11 0)
(-3.36752e-05 -2.93994e-11 0)
(-3.36805e-05 -8.80344e-12 0)
(-3.3686e-05 -2.64024e-11 0)
(-3.3692e-05 -4.94022e-12 0)
(-3.36982e-05 -4.0467e-11 0)
(-3.37051e-05 1.4222e-12 0)
(-3.37121e-05 -3.42864e-11 0)
(-3.37198e-05 -1.03139e-11 0)
(-3.37278e-05 -6.61468e-12 0)
(-3.3736e-05 -3.73973e-11 0)
(-3.3745e-05 6.5836e-12 0)
(-3.3754e-05 -2.35144e-11 0)
(-3.37635e-05 1.65088e-12 0)
(-3.37732e-05 -9.96842e-12 0)
(-3.37831e-05 -4.60363e-12 0)
(-3.37932e-05 -1.70727e-11 0)
(-3.38037e-05 -1.49801e-11 0)
(-3.38146e-05 -1.43236e-11 0)
(-3.38258e-05 -1.18745e-11 0)
(-3.38374e-05 -3.28935e-11 0)
(-3.38496e-05 -1.98621e-11 0)
(-3.38623e-05 9.59743e-13 0)
(-3.38751e-05 -2.80274e-11 0)
(-3.38886e-05 -5.29012e-12 0)
(-3.39023e-05 -1.66344e-11 0)
(-3.39165e-05 1.26355e-12 0)
(-3.39309e-05 -1.06913e-11 0)
(-3.39456e-05 -1.26873e-11 0)
(-3.39607e-05 -1.38208e-11 0)
(-3.39761e-05 -1.1166e-11 0)
(-3.39919e-05 -1.95189e-11 0)
(-3.40081e-05 -1.85424e-11 0)
(-3.40248e-05 -1.68145e-11 0)
(-3.4042e-05 -1.76983e-11 0)
(-3.40596e-05 -1.5076e-11 0)
(-3.40776e-05 -1.60792e-11 0)
(-3.40961e-05 -1.28839e-11 0)
(-3.41149e-05 -1.41055e-11 0)
(-3.41342e-05 -1.60402e-11 0)
(-3.41538e-05 -1.67111e-11 0)
(-3.41739e-05 -1.8095e-11 0)
(-3.41945e-05 -2.09068e-11 0)
(-3.42155e-05 -2.16375e-11 0)
(-3.42371e-05 -2.24747e-11 0)
(-3.42591e-05 -2.32788e-11 0)
(-3.42817e-05 -2.38268e-11 0)
(-3.43049e-05 -2.43382e-11 0)
(-3.43286e-05 -2.51788e-11 0)
(-3.43528e-05 -2.63483e-11 0)
(-3.43776e-05 -2.75147e-11 0)
(-3.4403e-05 -2.8937e-11 0)
(-3.4429e-05 -3.05343e-11 0)
(-3.44557e-05 -3.20414e-11 0)
(-3.4483e-05 -3.36108e-11 0)
(-3.4511e-05 -3.53031e-11 0)
(-3.45397e-05 -3.70653e-11 0)
(-3.45692e-05 -3.89495e-11 0)
(-3.45994e-05 -4.09729e-11 0)
(-3.46304e-05 -4.30969e-11 0)
(-3.46622e-05 -4.53129e-11 0)
(-3.46949e-05 -4.76153e-11 0)
(-3.47286e-05 -4.99904e-11 0)
(-3.47631e-05 -5.24386e-11 0)
(-3.47987e-05 -5.49613e-11 0)
(-3.48352e-05 -5.7556e-11 0)
(-3.48729e-05 -6.02316e-11 0)
(-3.49117e-05 -6.30113e-11 0)
(-3.49517e-05 -6.59238e-11 0)
(-3.49929e-05 -6.89954e-11 0)
(-3.50354e-05 -7.225e-11 0)
(-3.50794e-05 -7.57063e-11 0)
(-3.51247e-05 -7.93867e-11 0)
(-3.51716e-05 -8.33857e-11 0)
(-3.522e-05 -8.79907e-11 0)
(-3.52701e-05 -9.37572e-11 0)
(-3.5322e-05 -1.01402e-10 0)
(-3.53758e-05 -1.11344e-10 0)
(-3.54316e-05 -1.22889e-10 0)
(-3.54896e-05 -1.33662e-10 0)
(-3.555e-05 -1.41152e-10 0)
(-3.56128e-05 -1.47949e-10 0)
(-3.56783e-05 -1.6752e-10 0)
(-3.57466e-05 -2.12535e-10 0)
(-3.58186e-05 -2.59468e-10 0)
(-3.5895e-05 -2.56658e-10 0)
(-3.5976e-05 -2.26718e-10 0)
(-3.6061e-05 -2.93325e-10 0)
(-3.61512e-05 -5.51148e-10 0)
(-3.62512e-05 -8.44166e-10 0)
(-3.6366e-05 -5.54935e-10 0)
(-3.64908e-05 3.70205e-10 0)
(-3.66096e-05 -1.26655e-09 0)
(-3.67508e-05 -2.37094e-09 0)
(-3.69345e-05 -2.3066e-09 0)
(-3.71609e-05 -2.62014e-09 0)
(-3.75447e-05 -4.35778e-07 0)
(-3.88428e-05 3.95256e-06 0)
(-0.000300524 -1.56965e-05 0)
(-0.0865786 -5.22152e-05 0)
(-0.203497 -2.16259e-05 0)
(-0.294059 -1.73191e-06 0)
(-0.367798 -2.34094e-06 0)
(-0.429699 -2.23865e-06 0)
(-0.482673 -1.85451e-06 0)
(-0.52865 -1.51005e-06 0)
(-0.569012 -1.25929e-06 0)
(-0.604787 -1.05873e-06 0)
(-0.636762 -8.81405e-07 0)
(-0.665544 -7.20401e-07 0)
(-0.691608 -5.76784e-07 0)
(-0.715322 -4.5231e-07 0)
(-0.736972 -3.47463e-07 0)
(-0.756781 -2.60669e-07 0)
(-0.774915 -1.87978e-07 0)
(-0.791499 -1.22962e-07 0)
(-0.806619 -6.3048e-08 0)
(-0.820333 -1.7062e-08 0)
(-0.832678 9.90079e-10 0)
(-0.843672 -2.4801e-09 0)
(-0.853334 -1.21001e-09 0)
(-0.861689 1.19879e-08 0)
(-0.868783 2.16301e-08 0)
(-0.87469 2.04124e-08 0)
(-0.87951 1.40388e-08 0)
(-0.883365 8.40887e-09 0)
(-0.886386 4.89289e-09 0)
(-0.8887 2.87646e-09 0)
(-0.890426 1.69662e-09 0)
(-0.891667 9.84539e-10 0)
(-0.892508 5.44909e-10 0)
(-0.893019 2.71985e-10 0)
(-0.893254 1.0518e-10 0)
(-0.893257 9.71841e-12 0)
(-0.893063 -2.56585e-11 0)
(-0.892698 -3.51426e-13 0)
(-0.892185 6.2451e-11 0)
(-0.891542 8.17012e-11 0)
(-0.890781 -3.4322e-11 0)
(-0.889916 -2.28862e-10 0)
(-0.888955 -2.84896e-10 0)
(-0.887907 -7.14405e-11 0)
(-0.88678 1.57858e-10 0)
(-0.88558 1.53094e-10 0)
(-0.884313 -9.32126e-13 0)
(-0.882983 -4.75152e-11 0)
(-0.881595 2.84053e-11 0)
(-0.880153 5.73968e-11 0)
(-0.878661 1.77293e-11 0)
(-0.877122 -6.93675e-12 0)
(-0.87554 2.62334e-12 0)
(-0.873917 3.61017e-11 0)
(-0.87224 4.1121e-11 0)
(-0.870492 -1.0883e-11 0)
(-0.868673 -2.71093e-11 0)
(-0.866782 3.70485e-11 0)
(-0.864819 5.5494e-11 0)
(-0.862785 -1.77301e-11 0)
(-0.860679 -3.14208e-11 0)
(-0.858501 4.71981e-11 0)
(-0.856252 2.86295e-11 0)
(-0.853931 -2.63311e-11 0)
(-0.851539 1.13872e-11 0)
(-0.849076 2.86878e-11 0)
(-0.846543 -8.01312e-12 0)
(-0.843941 2.54157e-12 0)
(-0.841269 2.39183e-11 0)
(-0.838531 2.69531e-13 0)
(-0.835726 -5.66063e-12 0)
(-0.832856 1.75774e-11 0)
(-0.829924 9.01415e-12 0)
(-0.82693 -4.78584e-12 0)
(-0.823879 9.96115e-12 0)
(-0.820773 6.58964e-12 0)
(-0.817616 1.61516e-12 0)
(-0.814412 7.86762e-12 0)
(-0.811167 3.45081e-12 0)
(-0.807886 3.10787e-12 0)
(-0.804578 6.8788e-12 0)
(-0.801251 3.26296e-12 0)
(-0.797917 3.86131e-12 0)
(-0.794589 2.76554e-12 0)
(-0.791284 -3.85168e-12 0)
(-0.788023 4.3425e-11 0)
(-0.784835 -1.01145e-10 0)
(-0.781757 2.09274e-10 0)
(-0.778841 -3.44121e-10 0)
(-0.776168 5.30282e-10 0)
(-0.773856 -6.55478e-10 0)
(-0.772432 8.93042e-10 0)
(-0.772169 -1.13295e-09 0)
(-0.772154 1.39171e-09 0)
(-0.772149 -1.64633e-09 0)
(-0.772145 1.91743e-09 0)
(-0.772141 -2.18541e-09 0)
(-0.772138 2.46988e-09 0)
(-0.772135 -2.75256e-09 0)
(-0.772133 3.05174e-09 0)
(-0.772131 -3.35041e-09 0)
(-0.77213 3.66557e-09 0)
(-0.772128 -3.98146e-09 0)
(-0.772127 4.31379e-09 0)
(-0.772127 -4.64804e-09 0)
(-0.772126 4.99863e-09 0)
(-0.772125 -5.35228e-09 0)
(-0.772125 5.72213e-09 0)
(-0.772125 -6.09614e-09 0)
(-0.772124 6.48619e-09 0)
(-0.772124 -6.88144e-09 0)
(-0.772124 7.29255e-09 0)
(-0.772124 -7.70987e-09 0)
(-0.772124 8.14286e-09 0)
(-0.772124 -8.58303e-09 0)
(-0.772124 9.03868e-09 0)
(-0.772123 -9.50242e-09 0)
(-0.772123 9.98152e-09 0)
(-0.772123 -1.04695e-08 0)
(-0.772123 1.09728e-08 0)
(-0.772123 -1.14857e-08 0)
(-0.772123 1.2014e-08 0)
(-0.772123 -1.25524e-08 0)
(-0.772123 1.31064e-08 0)
(-0.772123 -1.3671e-08 0)
(-0.772123 1.42514e-08 0)
(-0.772123 -1.48428e-08 0)
(-0.772123 1.54501e-08 0)
(-0.772123 -1.6069e-08 0)
(-0.772123 1.6704e-08 0)
(-0.772123 -1.7351e-08 0)
(-0.772123 1.80143e-08 0)
(-0.772123 -1.86901e-08 0)
(-0.772123 1.93823e-08 0)
(-0.772123 -2.00873e-08 0)
(-0.772123 2.08091e-08 0)
(-0.772123 -2.15441e-08 0)
(-0.772123 2.22961e-08 0)
(-0.772123 -2.30617e-08 0)
(-0.772123 2.38444e-08 0)
(-0.772123 -2.46412e-08 0)
(-0.772123 2.54552e-08 0)
(-0.772123 -2.62839e-08 0)
(-0.772123 2.71298e-08 0)
(-0.772123 -2.79908e-08 0)
(-0.772123 2.88692e-08 0)
(-0.772123 -2.97632e-08 0)
(-0.772123 3.06746e-08 0)
(-0.772123 -3.16021e-08 0)
(-0.772123 3.2547e-08 0)
(-0.772123 -3.35086e-08 0)
(-0.772123 3.44876e-08 0)
(-0.772123 -3.54835e-08 0)
(-0.772123 3.64972e-08 0)
(-0.772123 -3.75279e-08 0)
(-0.772123 3.85765e-08 0)
(-0.772123 -3.96423e-08 0)
(-0.772123 4.07262e-08 0)
(-0.772123 -4.18275e-08 0)
(-0.772123 4.29468e-08 0)
(-0.772123 -4.40836e-08 0)
(-0.772123 4.52385e-08 0)
(-0.772123 -4.64107e-08 0)
(-0.772123 4.17755e-08 0)
(-0.772123 -4.20166e-08 0)
(-0.772123 4.22535e-08 0)
(-0.772123 -4.24856e-08 0)
(-0.772123 4.27135e-08 0)
(-0.772123 -4.29365e-08 0)
(-0.772123 4.31552e-08 0)
(-0.772123 -4.33689e-08 0)
(-0.772123 4.35782e-08 0)
(-0.772123 -4.37824e-08 0)
(-0.772123 4.39822e-08 0)
(-0.772123 -4.41768e-08 0)
(-0.772123 4.43668e-08 0)
(-0.772123 -4.45516e-08 0)
(-0.772123 4.47317e-08 0)
(-0.772123 -4.49064e-08 0)
(-0.772123 4.50763e-08 0)
(-0.772123 -4.52408e-08 0)
(-0.772123 4.54003e-08 0)
(-0.772123 -4.55542e-08 0)
(-0.772123 4.57032e-08 0)
(-0.772123 -4.58463e-08 0)
(-0.772123 4.59843e-08 0)
(-0.772123 -4.61163e-08 0)
(-0.772123 4.62432e-08 0)
(-0.772123 -4.63637e-08 0)
(-0.772123 4.6479e-08 0)
(-0.772123 -4.65877e-08 0)
(-0.772123 4.6691e-08 0)
(-0.772123 -4.67874e-08 0)
(-0.772123 4.68781e-08 0)
(-0.772123 -4.69616e-08 0)
(-0.772123 4.70391e-08 0)
(-0.772123 -4.71088e-08 0)
(-0.772123 4.71723e-08 0)
(-0.772123 -4.72273e-08 0)
(-0.772123 4.72752e-08 0)
(-0.772123 -4.73136e-08 0)
(-0.772123 4.73437e-08 0)
(-0.772123 -4.73612e-08 0)
(-0.772123 4.73561e-08 0)
(-0.772123 -4.73405e-08 0)
(-0.772123 4.7324e-08 0)
(-0.772123 -4.73024e-08 0)
(-0.772123 4.72831e-08 0)
(-0.772123 -4.72587e-08 0)
(-0.772123 4.72391e-08 0)
(-0.772123 -4.72128e-08 0)
(-0.772123 4.71948e-08 0)
(-0.772123 -4.71704e-08 0)
)
;

boundaryField
{
    inandouthalf11
    {
        type            cyclic;
    }
    inandouthalf12
    {
        type            cyclic;
    }
    inandouthalf21
    {
        type            cyclic;
    }
    inandouthalf22
    {
        type            cyclic;
    }
    inandouthalf31
    {
        type            cyclic;
    }
    inandouthalf32
    {
        type            cyclic;
    }
    inandouthalf41
    {
        type            cyclic;
    }
    inandouthalf42
    {
        type            cyclic;
    }
    top
    {
        type            symmetryPlane;
    }
    walls
    {
        type            calculated;
        value           uniform (0 0 0);
    }
    frontAndBackPlanes
    {
        type            empty;
    }
}


// ************************************************************************* //
