/*--------------------------------*- C++ -*----------------------------------*\
| =========                 |                                                 |
| \\      /  F ield         | OpenFOAM: The Open Source CFD Toolbox           |
|  \\    /   O peration     | Version:  2.4.x                                 |
|   \\  /    A nd           | Web:      www.OpenFOAM.org                      |
|    \\/     M anipulation  |                                                 |
\*---------------------------------------------------------------------------*/
FoamFile
{
    version     2.0;
    format      ascii;
    class       volVectorField;
    location    "4.15";
    object      Ub;
}
// * * * * * * * * * * * * * * * * * * * * * * * * * * * * * * * * * * * * * //

dimensions      [0 1 -1 0 0 0 0];

internalField   nonuniform List<vector> 
360
(
(-7.84407e-05 1.197e-07 0)
(-7.82789e-05 4.84197e-07 0)
(-7.82534e-05 9.55978e-07 0)
(-7.83464e-05 1.38951e-06 0)
(-7.84436e-05 1.79944e-06 0)
(-7.85304e-05 2.21071e-06 0)
(-7.86167e-05 2.63241e-06 0)
(-7.87041e-05 3.06336e-06 0)
(-7.87914e-05 3.49959e-06 0)
(-7.888e-05 3.93865e-06 0)
(-7.89703e-05 4.38076e-06 0)
(-7.90621e-05 4.82735e-06 0)
(-7.91555e-05 5.27993e-06 0)
(-7.92502e-05 5.73929e-06 0)
(-7.93463e-05 6.2054e-06 0)
(-7.9444e-05 6.67776e-06 0)
(-7.95431e-05 7.15541e-06 0)
(-7.96432e-05 7.6367e-06 0)
(-7.97438e-05 8.11918e-06 0)
(-7.98446e-05 8.60004e-06 0)
(-7.99443e-05 9.07629e-06 0)
(-8.00432e-05 9.54612e-06 0)
(-8.0141e-05 1.00099e-05 0)
(-8.02384e-05 1.04712e-05 0)
(-8.03372e-05 1.09379e-05 0)
(-8.044e-05 1.1423e-05 0)
(-8.05505e-05 1.19457e-05 0)
(-8.06747e-05 1.25315e-05 0)
(-8.08183e-05 1.32086e-05 0)
(-8.09856e-05 1.39944e-05 0)
(-8.11734e-05 1.4869e-05 0)
(-8.13643e-05 1.57482e-05 0)
(-8.15254e-05 1.64976e-05 0)
(-8.16335e-05 1.7012e-05 0)
(-8.16881e-05 1.7287e-05 0)
(-8.17109e-05 1.74011e-05 0)
(-8.172e-05 1.7439e-05 0)
(-8.17254e-05 1.74499e-05 0)
(-8.17301e-05 1.74529e-05 0)
(-8.17338e-05 1.74536e-05 0)
(-8.17387e-05 1.74538e-05 0)
(-8.17435e-05 1.74537e-05 0)
(-8.17483e-05 1.74535e-05 0)
(-8.17543e-05 1.74533e-05 0)
(-8.17602e-05 1.74531e-05 0)
(-8.17668e-05 1.74529e-05 0)
(-8.17739e-05 1.74528e-05 0)
(-8.1781e-05 1.74526e-05 0)
(-8.17892e-05 1.74525e-05 0)
(-8.17984e-05 1.74524e-05 0)
(-8.18075e-05 1.74521e-05 0)
(-8.18177e-05 1.74518e-05 0)
(-8.18284e-05 1.74514e-05 0)
(-8.18399e-05 1.7451e-05 0)
(-8.18519e-05 1.74504e-05 0)
(-8.18652e-05 1.74498e-05 0)
(-8.18788e-05 1.74491e-05 0)
(-8.18936e-05 1.74483e-05 0)
(-8.1909e-05 1.74475e-05 0)
(-8.19249e-05 1.74466e-05 0)
(-8.19422e-05 1.74457e-05 0)
(-8.19596e-05 1.74447e-05 0)
(-8.1978e-05 1.74437e-05 0)
(-8.19966e-05 1.74426e-05 0)
(-8.20158e-05 1.74416e-05 0)
(-8.20354e-05 1.74404e-05 0)
(-8.20556e-05 1.74393e-05 0)
(-8.20766e-05 1.7438e-05 0)
(-8.20983e-05 1.74368e-05 0)
(-8.21206e-05 1.74354e-05 0)
(-8.21442e-05 1.7434e-05 0)
(-8.21687e-05 1.74325e-05 0)
(-8.21935e-05 1.74309e-05 0)
(-8.22195e-05 1.74294e-05 0)
(-8.2246e-05 1.74278e-05 0)
(-8.22734e-05 1.74262e-05 0)
(-8.2301e-05 1.74245e-05 0)
(-8.23294e-05 1.74228e-05 0)
(-8.23584e-05 1.74211e-05 0)
(-8.23881e-05 1.74194e-05 0)
(-8.24185e-05 1.74176e-05 0)
(-8.24498e-05 1.74157e-05 0)
(-8.24819e-05 1.74138e-05 0)
(-8.25149e-05 1.74118e-05 0)
(-8.25488e-05 1.74098e-05 0)
(-8.25834e-05 1.74077e-05 0)
(-8.26189e-05 1.74056e-05 0)
(-8.26552e-05 1.74034e-05 0)
(-8.26921e-05 1.74012e-05 0)
(-8.27299e-05 1.7399e-05 0)
(-8.27686e-05 1.73966e-05 0)
(-8.28081e-05 1.73942e-05 0)
(-8.28485e-05 1.73918e-05 0)
(-8.28899e-05 1.73892e-05 0)
(-8.29323e-05 1.73866e-05 0)
(-8.29757e-05 1.73839e-05 0)
(-8.30201e-05 1.73811e-05 0)
(-8.30655e-05 1.73782e-05 0)
(-8.31121e-05 1.73753e-05 0)
(-8.31597e-05 1.73722e-05 0)
(-8.32085e-05 1.7369e-05 0)
(-8.32585e-05 1.73657e-05 0)
(-8.33097e-05 1.73623e-05 0)
(-8.33621e-05 1.73588e-05 0)
(-8.34159e-05 1.73551e-05 0)
(-8.34711e-05 1.73513e-05 0)
(-8.35276e-05 1.73473e-05 0)
(-8.35857e-05 1.73432e-05 0)
(-8.36452e-05 1.7339e-05 0)
(-8.37064e-05 1.73345e-05 0)
(-8.37693e-05 1.73299e-05 0)
(-8.38339e-05 1.73251e-05 0)
(-8.39003e-05 1.73201e-05 0)
(-8.39686e-05 1.73149e-05 0)
(-8.4039e-05 1.73095e-05 0)
(-8.41114e-05 1.73039e-05 0)
(-8.4186e-05 1.7298e-05 0)
(-8.42628e-05 1.72919e-05 0)
(-8.43421e-05 1.72855e-05 0)
(-8.44239e-05 1.72789e-05 0)
(-8.45083e-05 1.7272e-05 0)
(-8.45955e-05 1.72648e-05 0)
(-8.46856e-05 1.72574e-05 0)
(-8.47787e-05 1.72496e-05 0)
(-8.48751e-05 1.72415e-05 0)
(-8.49748e-05 1.7233e-05 0)
(-8.50781e-05 1.72241e-05 0)
(-8.51853e-05 1.72148e-05 0)
(-8.52968e-05 1.72051e-05 0)
(-8.54129e-05 1.71948e-05 0)
(-8.55337e-05 1.7184e-05 0)
(-8.56595e-05 1.71725e-05 0)
(-8.57909e-05 1.71603e-05 0)
(-8.59294e-05 1.71473e-05 0)
(-8.60766e-05 1.71334e-05 0)
(-8.62324e-05 1.71186e-05 0)
(-8.63961e-05 1.71027e-05 0)
(-8.65699e-05 1.70852e-05 0)
(-8.67624e-05 1.70656e-05 0)
(-8.69835e-05 1.70446e-05 0)
(-8.72239e-05 1.70231e-05 0)
(-8.74528e-05 1.69963e-05 0)
(-8.77249e-05 1.69664e-05 0)
(-8.80788e-05 1.69313e-05 0)
(-8.85147e-05 1.68874e-05 0)
(-8.92526e-05 1.57345e-05 0)
(-9.19165e-05 2.64395e-05 0)
(-0.00069767 -2.16307e-05 0)
(-0.0898712 -0.000381405 0)
(-0.206308 -0.000356723 0)
(-0.295996 -0.000316422 0)
(-0.369148 -0.000287479 0)
(-0.430673 -0.000259539 0)
(-0.483395 -0.000231318 0)
(-0.529201 -0.000203612 0)
(-0.569444 -0.000177188 0)
(-0.605137 -0.000152555 0)
(-0.637053 -0.000130031 0)
(-0.665793 -0.000109772 0)
(-0.691824 -9.18026e-05 0)
(-0.715512 -7.60512e-05 0)
(-0.737141 -6.23878e-05 0)
(-0.756931 -5.06511e-05 0)
(-0.775048 -4.06657e-05 0)
(-0.791616 -3.22477e-05 0)
(-0.80672 -2.51987e-05 0)
(-0.82042 -1.93101e-05 0)
(-0.83275 -1.44039e-05 0)
(-0.843731 -1.03922e-05 0)
(-0.853381 -7.26795e-06 0)
(-0.861726 -5.00207e-06 0)
(-0.868812 -3.46439e-06 0)
(-0.874714 -2.45729e-06 0)
(-0.87953 -1.79694e-06 0)
(-0.883382 -1.35389e-06 0)
(-0.8864 -1.04853e-06 0)
(-0.888712 -8.32965e-07 0)
(-0.890436 -6.77508e-07 0)
(-0.891676 -5.63073e-07 0)
(-0.892516 -4.7703e-07 0)
(-0.893025 -4.10778e-07 0)
(-0.893259 -3.58281e-07 0)
(-0.893262 -3.15167e-07 0)
(-0.893067 -2.78179e-07 0)
(-0.892702 -2.44864e-07 0)
(-0.892189 -2.13503e-07 0)
(-0.891544 -1.83271e-07 0)
(-0.890783 -1.54477e-07 0)
(-0.889917 -1.28434e-07 0)
(-0.888956 -1.06622e-07 0)
(-0.887908 -8.94976e-08 0)
(-0.886781 -7.61213e-08 0)
(-0.885581 -6.50647e-08 0)
(-0.884313 -5.5519e-08 0)
(-0.882983 -4.73849e-08 0)
(-0.881595 -4.0622e-08 0)
(-0.880153 -3.49466e-08 0)
(-0.878661 -3.00818e-08 0)
(-0.877122 -2.59316e-08 0)
(-0.87554 -2.2449e-08 0)
(-0.873918 -1.94993e-08 0)
(-0.87224 -1.68871e-08 0)
(-0.870492 -1.45444e-08 0)
(-0.868673 -1.25462e-08 0)
(-0.866782 -1.08808e-08 0)
(-0.864819 -9.38785e-09 0)
(-0.862785 -7.99667e-09 0)
(-0.860679 -6.81146e-09 0)
(-0.858501 -5.85381e-09 0)
(-0.856252 -4.99645e-09 0)
(-0.853931 -4.20816e-09 0)
(-0.851539 -3.55237e-09 0)
(-0.849076 -3.00376e-09 0)
(-0.846543 -2.51606e-09 0)
(-0.843941 -2.10554e-09 0)
(-0.841269 -1.76123e-09 0)
(-0.838531 -1.45075e-09 0)
(-0.835726 -1.19052e-09 0)
(-0.832856 -9.87659e-10 0)
(-0.829924 -8.07841e-10 0)
(-0.82693 -6.45409e-10 0)
(-0.823879 -5.16861e-10 0)
(-0.820773 -4.12813e-10 0)
(-0.817616 -3.2372e-10 0)
(-0.814412 -2.50835e-10 0)
(-0.811167 -1.9019e-10 0)
(-0.807886 -1.41338e-10 0)
(-0.804578 -1.03586e-10 0)
(-0.801251 -7.18325e-11 0)
(-0.797917 -4.66143e-11 0)
(-0.794589 -3.03246e-11 0)
(-0.791284 -2.34209e-11 0)
(-0.788023 3.1726e-11 0)
(-0.784835 -1.07349e-10 0)
(-0.781757 2.06977e-10 0)
(-0.778841 -3.44276e-10 0)
(-0.776168 5.30978e-10 0)
(-0.773856 -6.55476e-10 0)
(-0.772432 8.93042e-10 0)
(-0.772169 -1.13295e-09 0)
(-0.772154 1.39171e-09 0)
(-0.772149 -1.64633e-09 0)
(-0.772145 1.91743e-09 0)
(-0.772141 -2.18541e-09 0)
(-0.772138 2.46988e-09 0)
(-0.772135 -2.75256e-09 0)
(-0.772133 3.05174e-09 0)
(-0.772131 -3.35041e-09 0)
(-0.77213 3.66557e-09 0)
(-0.772128 -3.98146e-09 0)
(-0.772127 4.31379e-09 0)
(-0.772127 -4.64804e-09 0)
(-0.772126 4.99863e-09 0)
(-0.772125 -5.35228e-09 0)
(-0.772125 5.72213e-09 0)
(-0.772125 -6.09614e-09 0)
(-0.772124 6.48619e-09 0)
(-0.772124 -6.88144e-09 0)
(-0.772124 7.29255e-09 0)
(-0.772124 -7.70987e-09 0)
(-0.772124 8.14286e-09 0)
(-0.772124 -8.58303e-09 0)
(-0.772124 9.03868e-09 0)
(-0.772123 -9.50242e-09 0)
(-0.772123 9.98152e-09 0)
(-0.772123 -1.04695e-08 0)
(-0.772123 1.09728e-08 0)
(-0.772123 -1.14857e-08 0)
(-0.772123 1.2014e-08 0)
(-0.772123 -1.25524e-08 0)
(-0.772123 1.31064e-08 0)
(-0.772123 -1.3671e-08 0)
(-0.772123 1.42514e-08 0)
(-0.772123 -1.48428e-08 0)
(-0.772123 1.54501e-08 0)
(-0.772123 -1.6069e-08 0)
(-0.772123 1.6704e-08 0)
(-0.772123 -1.7351e-08 0)
(-0.772123 1.80143e-08 0)
(-0.772123 -1.86901e-08 0)
(-0.772123 1.93823e-08 0)
(-0.772123 -2.00873e-08 0)
(-0.772123 2.08091e-08 0)
(-0.772123 -2.15441e-08 0)
(-0.772123 2.22961e-08 0)
(-0.772123 -2.30617e-08 0)
(-0.772123 2.38444e-08 0)
(-0.772123 -2.46412e-08 0)
(-0.772123 2.54552e-08 0)
(-0.772123 -2.62839e-08 0)
(-0.772123 2.71298e-08 0)
(-0.772123 -2.79908e-08 0)
(-0.772123 2.88692e-08 0)
(-0.772123 -2.97632e-08 0)
(-0.772123 3.06746e-08 0)
(-0.772123 -3.16021e-08 0)
(-0.772123 3.2547e-08 0)
(-0.772123 -3.35086e-08 0)
(-0.772123 3.44876e-08 0)
(-0.772123 -3.54835e-08 0)
(-0.772123 3.64972e-08 0)
(-0.772123 -3.75279e-08 0)
(-0.772123 3.85765e-08 0)
(-0.772123 -3.96423e-08 0)
(-0.772123 4.07262e-08 0)
(-0.772123 -4.18275e-08 0)
(-0.772123 4.29468e-08 0)
(-0.772123 -4.40836e-08 0)
(-0.772123 4.52385e-08 0)
(-0.772123 -4.64107e-08 0)
(-0.772123 4.17755e-08 0)
(-0.772123 -4.20166e-08 0)
(-0.772123 4.22535e-08 0)
(-0.772123 -4.24856e-08 0)
(-0.772123 4.27135e-08 0)
(-0.772123 -4.29365e-08 0)
(-0.772123 4.31552e-08 0)
(-0.772123 -4.33689e-08 0)
(-0.772123 4.35782e-08 0)
(-0.772123 -4.37824e-08 0)
(-0.772123 4.39822e-08 0)
(-0.772123 -4.41768e-08 0)
(-0.772123 4.43668e-08 0)
(-0.772123 -4.45516e-08 0)
(-0.772123 4.47317e-08 0)
(-0.772123 -4.49064e-08 0)
(-0.772123 4.50763e-08 0)
(-0.772123 -4.52408e-08 0)
(-0.772123 4.54003e-08 0)
(-0.772123 -4.55542e-08 0)
(-0.772123 4.57032e-08 0)
(-0.772123 -4.58463e-08 0)
(-0.772123 4.59843e-08 0)
(-0.772123 -4.61163e-08 0)
(-0.772123 4.62432e-08 0)
(-0.772123 -4.63637e-08 0)
(-0.772123 4.6479e-08 0)
(-0.772123 -4.65877e-08 0)
(-0.772123 4.6691e-08 0)
(-0.772123 -4.67874e-08 0)
(-0.772123 4.68781e-08 0)
(-0.772123 -4.69616e-08 0)
(-0.772123 4.70391e-08 0)
(-0.772123 -4.71088e-08 0)
(-0.772123 4.71723e-08 0)
(-0.772123 -4.72273e-08 0)
(-0.772123 4.72752e-08 0)
(-0.772123 -4.73136e-08 0)
(-0.772123 4.73437e-08 0)
(-0.772123 -4.73612e-08 0)
(-0.772123 4.73561e-08 0)
(-0.772123 -4.73405e-08 0)
(-0.772123 4.7324e-08 0)
(-0.772123 -4.73024e-08 0)
(-0.772123 4.72831e-08 0)
(-0.772123 -4.72587e-08 0)
(-0.772123 4.72391e-08 0)
(-0.772123 -4.72128e-08 0)
(-0.772123 4.71948e-08 0)
(-0.772123 -4.71704e-08 0)
)
;

boundaryField
{
    inandouthalf11
    {
        type            cyclic;
    }
    inandouthalf12
    {
        type            cyclic;
    }
    inandouthalf21
    {
        type            cyclic;
    }
    inandouthalf22
    {
        type            cyclic;
    }
    inandouthalf31
    {
        type            cyclic;
    }
    inandouthalf32
    {
        type            cyclic;
    }
    inandouthalf41
    {
        type            cyclic;
    }
    inandouthalf42
    {
        type            cyclic;
    }
    top
    {
        type            symmetryPlane;
    }
    walls
    {
        type            fixedValue;
        value           uniform (0 0 0);
    }
    frontAndBackPlanes
    {
        type            empty;
    }
}


// ************************************************************************* //
