/*--------------------------------*- C++ -*----------------------------------*\
| =========                 |                                                 |
| \\      /  F ield         | OpenFOAM: The Open Source CFD Toolbox           |
|  \\    /   O peration     | Version:  2.4.x                                 |
|   \\  /    A nd           | Web:      www.OpenFOAM.org                      |
|    \\/     M anipulation  |                                                 |
\*---------------------------------------------------------------------------*/
FoamFile
{
    version     2.0;
    format      ascii;
    class       volVectorField;
    location    "4.15";
    object      Ub_0;
}
// * * * * * * * * * * * * * * * * * * * * * * * * * * * * * * * * * * * * * //

dimensions      [0 1 -1 0 0 0 0];

internalField   nonuniform List<vector> 
360
(
(-7.84736e-05 1.1971e-07 0)
(-7.83118e-05 4.84249e-07 0)
(-7.82862e-05 9.56092e-07 0)
(-7.83792e-05 1.38968e-06 0)
(-7.84765e-05 1.79966e-06 0)
(-7.85633e-05 2.21098e-06 0)
(-7.86496e-05 2.63273e-06 0)
(-7.8737e-05 3.06373e-06 0)
(-7.88243e-05 3.50001e-06 0)
(-7.89129e-05 3.93913e-06 0)
(-7.90033e-05 4.38129e-06 0)
(-7.90951e-05 4.82794e-06 0)
(-7.91885e-05 5.28057e-06 0)
(-7.92832e-05 5.73998e-06 0)
(-7.93793e-05 6.20615e-06 0)
(-7.9477e-05 6.67856e-06 0)
(-7.95762e-05 7.15626e-06 0)
(-7.96763e-05 7.63759e-06 0)
(-7.97769e-05 8.1201e-06 0)
(-7.98777e-05 8.60098e-06 0)
(-7.99774e-05 9.07725e-06 0)
(-8.00763e-05 9.54709e-06 0)
(-8.01741e-05 1.00109e-05 0)
(-8.02716e-05 1.04722e-05 0)
(-8.03704e-05 1.09389e-05 0)
(-8.04732e-05 1.14241e-05 0)
(-8.05838e-05 1.1947e-05 0)
(-8.0708e-05 1.25331e-05 0)
(-8.08516e-05 1.32105e-05 0)
(-8.1019e-05 1.39966e-05 0)
(-8.1207e-05 1.48713e-05 0)
(-8.13978e-05 1.57504e-05 0)
(-8.15588e-05 1.64993e-05 0)
(-8.16667e-05 1.70129e-05 0)
(-8.17213e-05 1.72874e-05 0)
(-8.1744e-05 1.74012e-05 0)
(-8.17531e-05 1.7439e-05 0)
(-8.17584e-05 1.74498e-05 0)
(-8.17632e-05 1.74529e-05 0)
(-8.17669e-05 1.74536e-05 0)
(-8.17718e-05 1.74538e-05 0)
(-8.17766e-05 1.74537e-05 0)
(-8.17814e-05 1.74534e-05 0)
(-8.17873e-05 1.74533e-05 0)
(-8.17933e-05 1.7453e-05 0)
(-8.17998e-05 1.74529e-05 0)
(-8.1807e-05 1.74528e-05 0)
(-8.1814e-05 1.74526e-05 0)
(-8.18222e-05 1.74525e-05 0)
(-8.18315e-05 1.74523e-05 0)
(-8.18406e-05 1.7452e-05 0)
(-8.18508e-05 1.74518e-05 0)
(-8.18614e-05 1.74514e-05 0)
(-8.1873e-05 1.74509e-05 0)
(-8.1885e-05 1.74503e-05 0)
(-8.18983e-05 1.74498e-05 0)
(-8.19119e-05 1.7449e-05 0)
(-8.19267e-05 1.74483e-05 0)
(-8.19421e-05 1.74475e-05 0)
(-8.1958e-05 1.74465e-05 0)
(-8.19754e-05 1.74457e-05 0)
(-8.19928e-05 1.74446e-05 0)
(-8.20112e-05 1.74437e-05 0)
(-8.20298e-05 1.74426e-05 0)
(-8.2049e-05 1.74415e-05 0)
(-8.20685e-05 1.74404e-05 0)
(-8.20888e-05 1.74393e-05 0)
(-8.21098e-05 1.7438e-05 0)
(-8.21315e-05 1.74367e-05 0)
(-8.21538e-05 1.74354e-05 0)
(-8.21774e-05 1.74339e-05 0)
(-8.22019e-05 1.74325e-05 0)
(-8.22267e-05 1.74309e-05 0)
(-8.22528e-05 1.74294e-05 0)
(-8.22793e-05 1.74277e-05 0)
(-8.23067e-05 1.74261e-05 0)
(-8.23343e-05 1.74245e-05 0)
(-8.23627e-05 1.74228e-05 0)
(-8.23917e-05 1.74211e-05 0)
(-8.24214e-05 1.74194e-05 0)
(-8.24518e-05 1.74176e-05 0)
(-8.24831e-05 1.74157e-05 0)
(-8.25153e-05 1.74138e-05 0)
(-8.25483e-05 1.74118e-05 0)
(-8.25822e-05 1.74098e-05 0)
(-8.26168e-05 1.74077e-05 0)
(-8.26524e-05 1.74056e-05 0)
(-8.26886e-05 1.74034e-05 0)
(-8.27256e-05 1.74012e-05 0)
(-8.27634e-05 1.7399e-05 0)
(-8.28021e-05 1.73966e-05 0)
(-8.28416e-05 1.73943e-05 0)
(-8.2882e-05 1.73918e-05 0)
(-8.29234e-05 1.73893e-05 0)
(-8.29658e-05 1.73866e-05 0)
(-8.30092e-05 1.73839e-05 0)
(-8.30537e-05 1.73811e-05 0)
(-8.30992e-05 1.73783e-05 0)
(-8.31457e-05 1.73753e-05 0)
(-8.31934e-05 1.73722e-05 0)
(-8.32422e-05 1.7369e-05 0)
(-8.32922e-05 1.73657e-05 0)
(-8.33434e-05 1.73623e-05 0)
(-8.33959e-05 1.73588e-05 0)
(-8.34497e-05 1.73551e-05 0)
(-8.35048e-05 1.73513e-05 0)
(-8.35614e-05 1.73474e-05 0)
(-8.36195e-05 1.73433e-05 0)
(-8.36791e-05 1.7339e-05 0)
(-8.37403e-05 1.73346e-05 0)
(-8.38032e-05 1.733e-05 0)
(-8.38678e-05 1.73252e-05 0)
(-8.39343e-05 1.73202e-05 0)
(-8.40026e-05 1.7315e-05 0)
(-8.4073e-05 1.73096e-05 0)
(-8.41454e-05 1.73039e-05 0)
(-8.42201e-05 1.72981e-05 0)
(-8.4297e-05 1.72919e-05 0)
(-8.43763e-05 1.72856e-05 0)
(-8.44581e-05 1.7279e-05 0)
(-8.45425e-05 1.72721e-05 0)
(-8.46298e-05 1.72649e-05 0)
(-8.47199e-05 1.72574e-05 0)
(-8.48131e-05 1.72496e-05 0)
(-8.49094e-05 1.72415e-05 0)
(-8.50092e-05 1.7233e-05 0)
(-8.51126e-05 1.72242e-05 0)
(-8.52198e-05 1.72149e-05 0)
(-8.53314e-05 1.72051e-05 0)
(-8.54475e-05 1.71949e-05 0)
(-8.55684e-05 1.7184e-05 0)
(-8.56942e-05 1.71726e-05 0)
(-8.58257e-05 1.71604e-05 0)
(-8.59642e-05 1.71473e-05 0)
(-8.61115e-05 1.71335e-05 0)
(-8.62674e-05 1.71187e-05 0)
(-8.64311e-05 1.71027e-05 0)
(-8.6605e-05 1.70852e-05 0)
(-8.67975e-05 1.70657e-05 0)
(-8.70188e-05 1.70446e-05 0)
(-8.72592e-05 1.70232e-05 0)
(-8.74882e-05 1.69964e-05 0)
(-8.77605e-05 1.69665e-05 0)
(-8.81146e-05 1.69314e-05 0)
(-8.85506e-05 1.68873e-05 0)
(-8.92888e-05 1.57394e-05 0)
(-9.19522e-05 2.64141e-05 0)
(-0.000696999 -2.15666e-05 0)
(-0.0898536 -0.000380721 0)
(-0.206297 -0.00035641 0)
(-0.29599 -0.00031612 0)
(-0.369144 -0.000287249 0)
(-0.43067 -0.000259361 0)
(-0.483394 -0.000231183 0)
(-0.5292 -0.000203512 0)
(-0.569445 -0.000177114 0)
(-0.605138 -0.000152501 0)
(-0.637055 -0.000129991 0)
(-0.665795 -0.000109741 0)
(-0.691826 -9.17778e-05 0)
(-0.715514 -7.60303e-05 0)
(-0.737142 -6.23695e-05 0)
(-0.756932 -5.06346e-05 0)
(-0.775048 -4.06506e-05 0)
(-0.791614 -3.22337e-05 0)
(-0.806717 -2.51858e-05 0)
(-0.820414 -1.9298e-05 0)
(-0.832742 -1.43926e-05 0)
(-0.843719 -1.03822e-05 0)
(-0.853366 -7.25985e-06 0)
(-0.861707 -4.99606e-06 0)
(-0.868789 -3.4602e-06 0)
(-0.874686 -2.45442e-06 0)
(-0.879498 -1.79495e-06 0)
(-0.883346 -1.35246e-06 0)
(-0.88636 -1.04747e-06 0)
(-0.88867 -8.3216e-07 0)
(-0.890392 -6.76882e-07 0)
(-0.891629 -5.62577e-07 0)
(-0.892467 -4.7663e-07 0)
(-0.892975 -4.1045e-07 0)
(-0.893208 -3.58009e-07 0)
(-0.893209 -3.14939e-07 0)
(-0.893013 -2.77984e-07 0)
(-0.892647 -2.44696e-07 0)
(-0.892133 -2.13357e-07 0)
(-0.891487 -1.83144e-07 0)
(-0.890726 -1.54367e-07 0)
(-0.889859 -1.28342e-07 0)
(-0.888897 -1.06545e-07 0)
(-0.887849 -8.94341e-08 0)
(-0.886721 -7.60679e-08 0)
(-0.88552 -6.5019e-08 0)
(-0.884252 -5.54797e-08 0)
(-0.882921 -4.73512e-08 0)
(-0.881533 -4.05931e-08 0)
(-0.88009 -3.49216e-08 0)
(-0.878598 -3.00602e-08 0)
(-0.877058 -2.59129e-08 0)
(-0.875476 -2.24327e-08 0)
(-0.873853 -1.94851e-08 0)
(-0.872175 -1.68746e-08 0)
(-0.870426 -1.45336e-08 0)
(-0.868606 -1.25369e-08 0)
(-0.866715 -1.08727e-08 0)
(-0.864752 -9.38072e-09 0)
(-0.862717 -7.99051e-09 0)
(-0.860611 -6.8062e-09 0)
(-0.858433 -5.84929e-09 0)
(-0.856183 -4.99253e-09 0)
(-0.853862 -4.20484e-09 0)
(-0.851469 -3.54956e-09 0)
(-0.849006 -3.00139e-09 0)
(-0.846472 -2.51407e-09 0)
(-0.843869 -2.1039e-09 0)
(-0.841198 -1.75987e-09 0)
(-0.838459 -1.44965e-09 0)
(-0.835653 -1.18965e-09 0)
(-0.832783 -9.86969e-10 0)
(-0.82985 -8.07305e-10 0)
(-0.826857 -6.45017e-10 0)
(-0.823805 -5.16586e-10 0)
(-0.820699 -4.12634e-10 0)
(-0.817541 -3.23622e-10 0)
(-0.814337 -2.50806e-10 0)
(-0.811091 -1.90219e-10 0)
(-0.80781 -1.41415e-10 0)
(-0.804502 -1.03701e-10 0)
(-0.801175 -7.19808e-11 0)
(-0.79784 -4.67901e-11 0)
(-0.794512 -3.05213e-11 0)
(-0.791206 -2.3642e-11 0)
(-0.787946 3.15409e-11 0)
(-0.784757 -1.07646e-10 0)
(-0.781679 2.06882e-10 0)
(-0.778764 -3.44743e-10 0)
(-0.776092 5.3105e-10 0)
(-0.773781 -6.5614e-10 0)
(-0.77236 8.93249e-10 0)
(-0.772099 -1.13372e-09 0)
(-0.772084 1.39201e-09 0)
(-0.772079 -1.64717e-09 0)
(-0.772074 1.91782e-09 0)
(-0.772071 -2.18632e-09 0)
(-0.772067 2.47034e-09 0)
(-0.772065 -2.75351e-09 0)
(-0.772063 3.05225e-09 0)
(-0.772061 -3.3514e-09 0)
(-0.772059 3.66614e-09 0)
(-0.772058 -3.98249e-09 0)
(-0.772057 4.31442e-09 0)
(-0.772056 -4.6491e-09 0)
(-0.772056 4.99932e-09 0)
(-0.772055 -5.35339e-09 0)
(-0.772055 5.72289e-09 0)
(-0.772054 -6.0973e-09 0)
(-0.772054 6.48702e-09 0)
(-0.772054 -6.88265e-09 0)
(-0.772054 7.29346e-09 0)
(-0.772054 -7.71114e-09 0)
(-0.772054 8.14385e-09 0)
(-0.772053 -8.58435e-09 0)
(-0.772053 9.03976e-09 0)
(-0.772053 -9.50381e-09 0)
(-0.772053 9.98268e-09 0)
(-0.772053 -1.0471e-08 0)
(-0.772053 1.09741e-08 0)
(-0.772053 -1.14872e-08 0)
(-0.772053 1.20154e-08 0)
(-0.772053 -1.2554e-08 0)
(-0.772053 1.31078e-08 0)
(-0.772053 -1.36727e-08 0)
(-0.772053 1.42529e-08 0)
(-0.772053 -1.48446e-08 0)
(-0.772053 1.54517e-08 0)
(-0.772053 -1.60709e-08 0)
(-0.772053 1.67058e-08 0)
(-0.772053 -1.7353e-08 0)
(-0.772053 1.80162e-08 0)
(-0.772053 -1.86922e-08 0)
(-0.772053 1.93842e-08 0)
(-0.772053 -2.00895e-08 0)
(-0.772053 2.08112e-08 0)
(-0.772053 -2.15465e-08 0)
(-0.772053 2.22982e-08 0)
(-0.772053 -2.30641e-08 0)
(-0.772053 2.38467e-08 0)
(-0.772053 -2.46437e-08 0)
(-0.772053 2.54577e-08 0)
(-0.772053 -2.62865e-08 0)
(-0.772053 2.71324e-08 0)
(-0.772053 -2.79936e-08 0)
(-0.772053 2.88719e-08 0)
(-0.772053 -2.97661e-08 0)
(-0.772053 3.06775e-08 0)
(-0.772053 -3.16051e-08 0)
(-0.772053 3.25501e-08 0)
(-0.772053 -3.35117e-08 0)
(-0.772053 3.44908e-08 0)
(-0.772053 -3.54868e-08 0)
(-0.772053 3.65005e-08 0)
(-0.772053 -3.75313e-08 0)
(-0.772053 3.858e-08 0)
(-0.772053 -3.96459e-08 0)
(-0.772053 4.07299e-08 0)
(-0.772053 -4.18312e-08 0)
(-0.772053 4.29506e-08 0)
(-0.772053 -4.40875e-08 0)
(-0.772053 4.52424e-08 0)
(-0.772053 -4.64148e-08 0)
(-0.772053 4.17791e-08 0)
(-0.772053 -4.20202e-08 0)
(-0.772053 4.22571e-08 0)
(-0.772053 -4.24892e-08 0)
(-0.772053 4.2717e-08 0)
(-0.772053 -4.29401e-08 0)
(-0.772053 4.31587e-08 0)
(-0.772053 -4.33724e-08 0)
(-0.772053 4.35817e-08 0)
(-0.772053 -4.3786e-08 0)
(-0.772053 4.39857e-08 0)
(-0.772053 -4.41804e-08 0)
(-0.772053 4.43703e-08 0)
(-0.772053 -4.45551e-08 0)
(-0.772053 4.47351e-08 0)
(-0.772053 -4.49099e-08 0)
(-0.772053 4.50797e-08 0)
(-0.772053 -4.52443e-08 0)
(-0.772053 4.54035e-08 0)
(-0.772053 -4.55578e-08 0)
(-0.772053 4.57062e-08 0)
(-0.772053 -4.585e-08 0)
(-0.772053 4.59872e-08 0)
(-0.772053 -4.61202e-08 0)
(-0.772053 4.62458e-08 0)
(-0.772053 -4.63677e-08 0)
(-0.772053 4.64815e-08 0)
(-0.772053 -4.65917e-08 0)
(-0.772053 4.66932e-08 0)
(-0.772053 -4.67915e-08 0)
(-0.772053 4.68801e-08 0)
(-0.772053 -4.69657e-08 0)
(-0.772053 4.70409e-08 0)
(-0.772053 -4.7113e-08 0)
(-0.772053 4.7174e-08 0)
(-0.772053 -4.72314e-08 0)
(-0.772053 4.72767e-08 0)
(-0.772053 -4.73178e-08 0)
(-0.772053 4.73449e-08 0)
(-0.772053 -4.73653e-08 0)
(-0.772053 4.7357e-08 0)
(-0.772053 -4.73443e-08 0)
(-0.772053 4.73249e-08 0)
(-0.772053 -4.73061e-08 0)
(-0.772053 4.72841e-08 0)
(-0.772053 -4.72621e-08 0)
(-0.772053 4.72404e-08 0)
(-0.772053 -4.72158e-08 0)
(-0.772053 4.71965e-08 0)
(-0.772053 -4.71729e-08 0)
)
;

boundaryField
{
    inandouthalf11
    {
        type            cyclic;
    }
    inandouthalf12
    {
        type            cyclic;
    }
    inandouthalf21
    {
        type            cyclic;
    }
    inandouthalf22
    {
        type            cyclic;
    }
    inandouthalf31
    {
        type            cyclic;
    }
    inandouthalf32
    {
        type            cyclic;
    }
    inandouthalf41
    {
        type            cyclic;
    }
    inandouthalf42
    {
        type            cyclic;
    }
    top
    {
        type            symmetryPlane;
    }
    walls
    {
        type            fixedValue;
        value           uniform (0 0 0);
    }
    frontAndBackPlanes
    {
        type            empty;
    }
}


// ************************************************************************* //
