/*--------------------------------*- C++ -*----------------------------------*\
| =========                 |                                                 |
| \\      /  F ield         | OpenFOAM: The Open Source CFD Toolbox           |
|  \\    /   O peration     | Version:  2.4.x                                 |
|   \\  /    A nd           | Web:      www.OpenFOAM.org                      |
|    \\/     M anipulation  |                                                 |
\*---------------------------------------------------------------------------*/
FoamFile
{
    version     2.0;
    format      ascii;
    class       volVectorField;
    location    "4.15";
    object      Ur;
}
// * * * * * * * * * * * * * * * * * * * * * * * * * * * * * * * * * * * * * //

dimensions      [0 1 -1 0 0 0 0];

internalField   nonuniform List<vector> 
360
(
(-7.84407e-05 1.197e-07 0)
(-7.82204e-05 7.93333e-07 0)
(-7.81192e-05 1.581e-06 0)
(-7.81445e-05 2.27896e-06 0)
(-7.81772e-05 2.94363e-06 0)
(-7.81984e-05 3.6163e-06 0)
(-7.8217e-05 4.30742e-06 0)
(-7.8235e-05 5.01374e-06 0)
(-7.82519e-05 5.72848e-06 0)
(-7.82694e-05 6.44749e-06 0)
(-7.82879e-05 7.17129e-06 0)
(-7.8307e-05 7.90253e-06 0)
(-7.83264e-05 8.64379e-06 0)
(-7.83458e-05 9.39636e-06 0)
(-7.83653e-05 1.01601e-05 0)
(-7.8385e-05 1.09343e-05 0)
(-7.84051e-05 1.17173e-05 0)
(-7.84253e-05 1.25065e-05 0)
(-7.84456e-05 1.32978e-05 0)
(-7.8466e-05 1.40866e-05 0)
(-7.84859e-05 1.48677e-05 0)
(-7.85058e-05 1.5638e-05 0)
(-7.85254e-05 1.6398e-05 0)
(-7.85449e-05 1.71533e-05 0)
(-7.85646e-05 1.79166e-05 0)
(-7.8585e-05 1.87092e-05 0)
(-7.86066e-05 1.95625e-05 0)
(-7.8631e-05 2.05188e-05 0)
(-7.86589e-05 2.16259e-05 0)
(-7.8691e-05 2.29171e-05 0)
(-7.87266e-05 2.43661e-05 0)
(-7.87631e-05 2.58345e-05 0)
(-7.8794e-05 2.70854e-05 0)
(-7.88166e-05 2.79291e-05 0)
(-7.88292e-05 2.83643e-05 0)
(-7.88363e-05 2.85371e-05 0)
(-7.88406e-05 2.85925e-05 0)
(-7.88446e-05 2.86085e-05 0)
(-7.88488e-05 2.86131e-05 0)
(-7.88524e-05 2.86145e-05 0)
(-7.88571e-05 2.8615e-05 0)
(-7.88618e-05 2.86152e-05 0)
(-7.88665e-05 2.86151e-05 0)
(-7.88725e-05 2.86152e-05 0)
(-7.88783e-05 2.86153e-05 0)
(-7.88847e-05 2.86154e-05 0)
(-7.88917e-05 2.86157e-05 0)
(-7.88986e-05 2.8616e-05 0)
(-7.89066e-05 2.86163e-05 0)
(-7.89157e-05 2.86167e-05 0)
(-7.89246e-05 2.86169e-05 0)
(-7.89345e-05 2.86172e-05 0)
(-7.89449e-05 2.86173e-05 0)
(-7.89563e-05 2.86173e-05 0)
(-7.8968e-05 2.86172e-05 0)
(-7.89811e-05 2.86172e-05 0)
(-7.89944e-05 2.86169e-05 0)
(-7.9009e-05 2.86167e-05 0)
(-7.90242e-05 2.86164e-05 0)
(-7.90398e-05 2.86161e-05 0)
(-7.90569e-05 2.86158e-05 0)
(-7.9074e-05 2.86153e-05 0)
(-7.9092e-05 2.8615e-05 0)
(-7.91103e-05 2.86145e-05 0)
(-7.91292e-05 2.86141e-05 0)
(-7.91484e-05 2.86136e-05 0)
(-7.91683e-05 2.86131e-05 0)
(-7.91889e-05 2.86126e-05 0)
(-7.92102e-05 2.8612e-05 0)
(-7.92321e-05 2.86113e-05 0)
(-7.92553e-05 2.86106e-05 0)
(-7.92794e-05 2.86098e-05 0)
(-7.93038e-05 2.8609e-05 0)
(-7.93294e-05 2.86082e-05 0)
(-7.93554e-05 2.86074e-05 0)
(-7.93823e-05 2.86067e-05 0)
(-7.94094e-05 2.86059e-05 0)
(-7.94372e-05 2.86051e-05 0)
(-7.94657e-05 2.86043e-05 0)
(-7.94948e-05 2.86035e-05 0)
(-7.95246e-05 2.86026e-05 0)
(-7.95553e-05 2.86017e-05 0)
(-7.95868e-05 2.86008e-05 0)
(-7.96192e-05 2.85998e-05 0)
(-7.96524e-05 2.85988e-05 0)
(-7.96864e-05 2.85978e-05 0)
(-7.97212e-05 2.85968e-05 0)
(-7.97567e-05 2.85957e-05 0)
(-7.97929e-05 2.85946e-05 0)
(-7.983e-05 2.85935e-05 0)
(-7.98678e-05 2.85923e-05 0)
(-7.99065e-05 2.85911e-05 0)
(-7.99461e-05 2.85898e-05 0)
(-7.99867e-05 2.85885e-05 0)
(-8.00282e-05 2.85871e-05 0)
(-8.00708e-05 2.85856e-05 0)
(-8.01143e-05 2.85841e-05 0)
(-8.01589e-05 2.85824e-05 0)
(-8.02045e-05 2.85807e-05 0)
(-8.02512e-05 2.85789e-05 0)
(-8.02991e-05 2.8577e-05 0)
(-8.03481e-05 2.8575e-05 0)
(-8.03983e-05 2.85729e-05 0)
(-8.04498e-05 2.85707e-05 0)
(-8.05026e-05 2.85683e-05 0)
(-8.05567e-05 2.85659e-05 0)
(-8.06122e-05 2.85632e-05 0)
(-8.06693e-05 2.85604e-05 0)
(-8.07278e-05 2.85575e-05 0)
(-8.07879e-05 2.85544e-05 0)
(-8.08497e-05 2.85511e-05 0)
(-8.09133e-05 2.85476e-05 0)
(-8.09786e-05 2.85439e-05 0)
(-8.10459e-05 2.854e-05 0)
(-8.11151e-05 2.85358e-05 0)
(-8.11864e-05 2.85315e-05 0)
(-8.12599e-05 2.85269e-05 0)
(-8.13357e-05 2.8522e-05 0)
(-8.14138e-05 2.85169e-05 0)
(-8.14944e-05 2.85115e-05 0)
(-8.15777e-05 2.85059e-05 0)
(-8.16637e-05 2.85e-05 0)
(-8.17526e-05 2.84937e-05 0)
(-8.18445e-05 2.84872e-05 0)
(-8.19396e-05 2.84803e-05 0)
(-8.2038e-05 2.84731e-05 0)
(-8.214e-05 2.84655e-05 0)
(-8.22459e-05 2.84574e-05 0)
(-8.23561e-05 2.84488e-05 0)
(-8.24709e-05 2.84396e-05 0)
(-8.25904e-05 2.84299e-05 0)
(-8.2715e-05 2.84194e-05 0)
(-8.28451e-05 2.84081e-05 0)
(-8.29824e-05 2.83959e-05 0)
(-8.31285e-05 2.83828e-05 0)
(-8.32832e-05 2.83687e-05 0)
(-8.34458e-05 2.83534e-05 0)
(-8.36186e-05 2.83364e-05 0)
(-8.38101e-05 2.83173e-05 0)
(-8.40304e-05 2.82967e-05 0)
(-8.427e-05 2.82755e-05 0)
(-8.44983e-05 2.82489e-05 0)
(-8.47701e-05 2.82191e-05 0)
(-8.51238e-05 2.81841e-05 0)
(-8.55595e-05 2.81401e-05 0)
(-8.62974e-05 2.69872e-05 0)
(-8.89611e-05 3.76922e-05 0)
(-0.000694689 -1.038e-05 0)
(-0.00997123 -0.000996908 0)
(-0.0119755 -0.00142788 0)
(-0.0101581 -0.0016498 0)
(-0.00856106 -0.00180809 0)
(-0.00749912 -0.00198193 0)
(-0.00683629 -0.0021716 0)
(-0.00649033 -0.00238089 0)
(-0.00642461 -0.00261248 0)
(-0.00662598 -0.00286716 0)
(-0.00709528 -0.00314391 0)
(-0.0078444 -0.00344038 0)
(-0.00889447 -0.00375309 0)
(-0.0102729 -0.00407754 0)
(-0.0120086 -0.00440811 0)
(-0.0141253 -0.00473795 0)
(-0.0166333 -0.00505903 0)
(-0.0195225 -0.00536165 0)
(-0.0227543 -0.00563149 0)
(-0.0262565 -0.00584297 0)
(-0.0299191 -0.00595566 0)
(-0.0335958 -0.00592797 0)
(-0.0371176 -0.00574684 0)
(-0.0403213 -0.00544274 0)
(-0.0430823 -0.00507165 0)
(-0.0453329 -0.00468663 0)
(-0.047062 -0.00432354 0)
(-0.0483027 -0.00400148 0)
(-0.0491155 -0.00372837 0)
(-0.0495717 -0.00350574 0)
(-0.0497423 -0.00333182 0)
(-0.0496897 -0.00320325 0)
(-0.0494654 -0.00311589 0)
(-0.0491093 -0.00306513 0)
(-0.048651 -0.00304597 0)
(-0.0481113 -0.00305296 0)
(-0.0475044 -0.00308006 0)
(-0.0468387 -0.00312047 0)
(-0.0461189 -0.00316663 0)
(-0.0453466 -0.00321051 0)
(-0.0445215 -0.00324473 0)
(-0.0436421 -0.00326456 0)
(-0.0427039 -0.00326929 0)
(-0.0417101 -0.00326379 0)
(-0.0406619 -0.00325236 0)
(-0.0395601 -0.00323744 0)
(-0.0384066 -0.00321878 0)
(-0.0372031 -0.00319615 0)
(-0.0359514 -0.00317051 0)
(-0.0346531 -0.00314279 0)
(-0.0333103 -0.00311297 0)
(-0.0319249 -0.00308095 0)
(-0.0304985 -0.0030472 0)
(-0.0290325 -0.00301242 0)
(-0.0275135 -0.00297633 0)
(-0.0259269 -0.00293765 0)
(-0.0242726 -0.00289605 0)
(-0.0225494 -0.00285291 0)
(-0.0207568 -0.00280897 0)
(-0.0188965 -0.00276216 0)
(-0.0169695 -0.00271123 0)
(-0.0149735 -0.00265875 0)
(-0.0129086 -0.00260557 0)
(-0.0107782 -0.0025486 0)
(-0.00858226 -0.00248828 0)
(-0.00631937 -0.00242717 0)
(-0.00399273 -0.00236371 0)
(-0.00160392 -0.0022976 0)
(0.000848327 -0.00223188 0)
(0.00335918 -0.00216489 0)
(0.00592333 -0.00209373 0)
(0.00854392 -0.0020223 0)
(0.0112185 -0.00195129 0)
(0.0139355 -0.00187392 0)
(0.0166944 -0.00179175 0)
(0.0194946 -0.00170764 0)
(0.0223253 -0.0016165 0)
(0.0251841 -0.00151987 0)
(0.0280624 -0.00141638 0)
(0.0309472 -0.00130049 0)
(0.0338406 -0.00117882 0)
(0.0367243 -0.00104605 0)
(0.0395747 -0.000892051 0)
(0.0423903 -0.000724054 0)
(0.04516 -0.000542737 0)
(0.0478931 -0.00036244 0)
(0.0506104 -0.00020994 0)
(0.0532934 -9.14445e-05 0)
(0.055891 -8.99281e-06 0)
(0.0581435 0.000132748 0)
(-0.00208234 0.0374718 0)
(-0.00159523 0.0395812 0)
(-0.00151376 0.0395479 0)
(-0.00150967 0.0395431 0)
(-0.00150921 0.0395433 0)
(-0.00150906 0.0395433 0)
(-0.00150889 0.0395433 0)
(-0.00150875 0.0395433 0)
(-0.00150864 0.0395433 0)
(-0.00150855 0.0395433 0)
(-0.00150848 0.0395433 0)
(-0.00150842 0.0395433 0)
(-0.00150837 0.0395433 0)
(-0.00150833 0.0395433 0)
(-0.0015083 0.0395433 0)
(-0.00150827 0.0395433 0)
(-0.00150825 0.0395433 0)
(-0.00150823 0.0395433 0)
(-0.00150822 0.0395433 0)
(-0.00150821 0.0395433 0)
(-0.0015082 0.0395433 0)
(-0.00150819 0.0395433 0)
(-0.00150819 0.0395433 0)
(-0.00150818 0.0395433 0)
(-0.00150818 0.0395433 0)
(-0.00150818 0.0395433 0)
(-0.00150817 0.0395433 0)
(-0.00150817 0.0395433 0)
(-0.00150817 0.0395433 0)
(-0.00150817 0.0395433 0)
(-0.00150817 0.0395433 0)
(-0.00150817 0.0395433 0)
(-0.00150817 0.0395433 0)
(-0.00150817 0.0395433 0)
(-0.00150817 0.0395433 0)
(-0.00150817 0.0395433 0)
(-0.00150817 0.0395433 0)
(-0.00150817 0.0395433 0)
(-0.00150817 0.0395433 0)
(-0.00150817 0.0395433 0)
(-0.00150817 0.0395433 0)
(-0.00150817 0.0395433 0)
(-0.00150817 0.0395433 0)
(-0.00150817 0.0395433 0)
(-0.00150817 0.0395432 0)
(-0.00150817 0.0395433 0)
(-0.00150817 0.0395432 0)
(-0.00150817 0.0395433 0)
(-0.00150817 0.0395432 0)
(-0.00150817 0.0395433 0)
(-0.00150817 0.0395432 0)
(-0.00150817 0.0395433 0)
(-0.00150817 0.0395432 0)
(-0.00150817 0.0395433 0)
(-0.00150817 0.0395432 0)
(-0.00150817 0.0395433 0)
(-0.00150817 0.0395432 0)
(-0.00150817 0.0395433 0)
(-0.00150817 0.0395432 0)
(-0.00150817 0.0395433 0)
(-0.00150817 0.0395432 0)
(-0.00150817 0.0395433 0)
(-0.00150817 0.0395432 0)
(-0.00150817 0.0395433 0)
(-0.00150817 0.0395432 0)
(-0.00150817 0.0395433 0)
(-0.00150817 0.0395432 0)
(-0.00150817 0.0395433 0)
(-0.00150817 0.0395432 0)
(-0.00150817 0.0395433 0)
(-0.00150817 0.0395432 0)
(-0.00150817 0.0395433 0)
(-0.00150817 0.0395432 0)
(-0.00150817 0.0395433 0)
(-0.00150817 0.0395432 0)
(-0.00150817 0.0395433 0)
(-0.00150817 0.0395432 0)
(-0.00150817 0.0395433 0)
(-0.00150817 0.0395432 0)
(-0.00150817 0.0395433 0)
(-0.00150817 0.0395432 0)
(-0.00150817 0.0395433 0)
(-0.00150817 0.0395432 0)
(-0.00150817 0.0395433 0)
(-0.00150817 0.0395432 0)
(-0.00150817 0.0395433 0)
(-0.00150817 0.0395432 0)
(-0.00150817 0.0395433 0)
(-0.00150817 0.0395432 0)
(-0.00150817 0.0395433 0)
(-0.00150817 0.0395432 0)
(-0.00150817 0.0395433 0)
(-0.00150817 0.0395432 0)
(-0.00150817 0.0395433 0)
(-0.00150817 0.0395432 0)
(-0.00150817 0.0395433 0)
(-0.00150817 0.0395432 0)
(-0.00150817 0.0395433 0)
(-0.00150817 0.0395432 0)
(-0.00150817 0.0395433 0)
(-0.00150817 0.0395432 0)
(-0.00150817 0.0395433 0)
(-0.00150817 0.0395432 0)
(-0.00150817 0.0395433 0)
(-0.00150817 0.0395432 0)
(-0.00150817 0.0395433 0)
(-0.00150817 0.0395432 0)
(-0.00150817 0.0395433 0)
(-0.00150817 0.0395432 0)
(-0.00150817 0.0395433 0)
(-0.00150817 0.0395432 0)
(-0.00150817 0.0395433 0)
(-0.00150817 0.0395432 0)
(-0.00150817 0.0395433 0)
(-0.00150817 0.0395432 0)
(-0.00150817 0.0395433 0)
(-0.00150817 0.0395432 0)
(-0.00150817 0.0395433 0)
(-0.00150817 0.0395432 0)
(-0.00150819 0.0395431 0)
(-0.00150863 0.0395346 0)
(-0.00151939 0.0391901 0)
(-0.00176697 0.0224867 0)
)
;

boundaryField
{
    inandouthalf11
    {
        type            cyclic;
    }
    inandouthalf12
    {
        type            cyclic;
    }
    inandouthalf21
    {
        type            cyclic;
    }
    inandouthalf22
    {
        type            cyclic;
    }
    inandouthalf31
    {
        type            cyclic;
    }
    inandouthalf32
    {
        type            cyclic;
    }
    inandouthalf41
    {
        type            cyclic;
    }
    inandouthalf42
    {
        type            cyclic;
    }
    top
    {
        type            symmetryPlane;
    }
    walls
    {
        type            calculated;
        value           uniform (0 0 0);
    }
    frontAndBackPlanes
    {
        type            empty;
    }
}


// ************************************************************************* //
