/*--------------------------------*- C++ -*----------------------------------*\
| =========                 |                                                 |
| \\      /  F ield         | OpenFOAM: The Open Source CFD Toolbox           |
|  \\    /   O peration     | Version:  2.4.x                                 |
|   \\  /    A nd           | Web:      www.OpenFOAM.org                      |
|    \\/     M anipulation  |                                                 |
\*---------------------------------------------------------------------------*/
FoamFile
{
    version     2.0;
    format      ascii;
    class       volScalarField;
    location    "8.15";
    object      ddt0(alpha);
}
// * * * * * * * * * * * * * * * * * * * * * * * * * * * * * * * * * * * * * //

dimensions      [0 0 -1 0 0 0 0];

internalField   nonuniform List<scalar> 
360
(
4.77669e-05
7.27461e-05
6.79558e-05
6.59088e-05
6.82097e-05
7.00758e-05
7.06538e-05
7.07189e-05
7.06824e-05
7.06592e-05
7.06048e-05
7.04602e-05
7.02392e-05
6.99449e-05
6.96065e-05
6.9244e-05
6.88612e-05
6.84551e-05
6.80277e-05
6.76e-05
6.71442e-05
6.67e-05
6.62557e-05
6.58165e-05
6.53876e-05
6.4969e-05
6.45594e-05
6.41801e-05
6.38147e-05
6.3466e-05
6.31355e-05
6.28426e-05
6.25415e-05
6.23012e-05
6.20501e-05
6.18341e-05
6.16242e-05
6.14439e-05
6.12937e-05
6.11184e-05
6.09987e-05
6.08738e-05
6.07388e-05
6.06503e-05
6.05466e-05
6.04556e-05
6.03713e-05
6.02542e-05
6.01652e-05
6.01024e-05
5.99946e-05
5.99099e-05
5.98058e-05
5.97142e-05
5.95857e-05
5.949e-05
5.93406e-05
5.92081e-05
5.90467e-05
5.88528e-05
5.87009e-05
5.85042e-05
5.83316e-05
5.81244e-05
5.79072e-05
5.76603e-05
5.74055e-05
5.7128e-05
5.68236e-05
5.64879e-05
5.61734e-05
5.58569e-05
5.54901e-05
5.51473e-05
5.4779e-05
5.44113e-05
5.39934e-05
5.35516e-05
5.30892e-05
5.26105e-05
5.21081e-05
5.16036e-05
5.1098e-05
5.05882e-05
5.00744e-05
4.95475e-05
4.90066e-05
4.84407e-05
4.78511e-05
4.72426e-05
4.66193e-05
4.59867e-05
4.53535e-05
4.4722e-05
4.40929e-05
4.34648e-05
4.28347e-05
4.21998e-05
4.15582e-05
4.09096e-05
4.02546e-05
3.95951e-05
3.89335e-05
3.82722e-05
3.76141e-05
3.69622e-05
3.63206e-05
3.56941e-05
3.50888e-05
3.45116e-05
3.39704e-05
3.34735e-05
3.30297e-05
3.26474e-05
3.23347e-05
3.20981e-05
3.19422e-05
3.18689e-05
3.18756e-05
3.19552e-05
3.20936e-05
3.22701e-05
3.24562e-05
3.26179e-05
3.27185e-05
3.27234e-05
3.26038e-05
3.23361e-05
3.18972e-05
3.12592e-05
3.03983e-05
2.93209e-05
2.80938e-05
2.68337e-05
2.56341e-05
2.44936e-05
2.3385e-05
2.23596e-05
2.13487e-05
1.96677e-05
1.58601e-05
8.85445e-06
1.35285e-06
-4.39783e-06
-1.06494e-05
-2.58474e-05
-0.0179594
-1.43885
-0.464385
-0.00910991
0.0937512
0.131788
0.15342
0.16729
0.174786
0.175642
0.170319
0.159405
0.144076
0.125765
0.105963
0.0861029
0.0674733
0.0510633
0.0373362
0.0262397
0.0176087
0.0113523
0.0072003
0.00462301
0.00306
0.00209875
0.00148807
0.00108569
0.000811361
0.000618646
0.000479717
0.000377319
0.000300402
0.000241678
0.000196212
0.000160583
0.000132369
0.000109825
9.16689e-05
7.69465e-05
6.49379e-05
5.50927e-05
4.69853e-05
4.02836e-05
3.47264e-05
3.01068e-05
2.62602e-05
2.30547e-05
2.03839e-05
1.81616e-05
1.63177e-05
1.47946e-05
1.35426e-05
1.25172e-05
1.16777e-05
1.09837e-05
1.04066e-05
9.92751e-06
9.52272e-06
9.16723e-06
8.83685e-06
8.5116e-06
8.17531e-06
7.81599e-06
7.42482e-06
6.99571e-06
6.52348e-06
6.01922e-06
5.50358e-06
4.98178e-06
4.45691e-06
3.95019e-06
3.4772e-06
3.03879e-06
2.63192e-06
2.25924e-06
1.93131e-06
1.64222e-06
1.38311e-06
1.1586e-06
9.66539e-07
8.00816e-07
6.59736e-07
5.39399e-07
4.39953e-07
3.52968e-07
2.7417e-07
2.09909e-07
2.00239e-07
1.96034e-07
1.33321e-07
8.53557e-08
7.34483e-08
4.58056e-08
4.75041e-08
2.36638e-08
2.77254e-08
1.28057e-08
1.16819e-19
8.78892e-31
-1.3027e-40
-7.67435e-41
-2.58904e-41
-1.31155e-41
-7.64737e-42
-6.45468e-42
-6.43772e-42
-2.85203e-42
-1.16677e-42
-5.69013e-43
-2.9709e-43
-1.88334e-43
-1.3357e-43
-5.72369e-44
-2.7868e-44
-1.4214e-44
-7.72521e-45
-3.85522e-45
-1.91692e-45
-9.45672e-46
-4.58862e-46
-2.18877e-46
-1.0258e-46
-4.72085e-47
-2.13213e-47
-9.44436e-48
-4.10023e-48
-1.74348e-48
-7.25574e-49
-2.95299e-49
-1.17435e-49
-4.55945e-50
-1.72662e-50
-6.37124e-51
-2.28839e-51
-7.99143e-52
-2.71006e-52
-8.91301e-53
-2.8389e-53
-8.74367e-54
-2.59979e-54
-7.44908e-55
-2.05274e-55
-5.4287e-56
-1.37454e-56
-3.32339e-57
-7.65056e-58
-1.67137e-58
-3.45235e-59
-6.71425e-60
-1.22358e-60
-2.07778e-61
-3.26637e-62
-4.71699e-63
-6.1992e-64
-7.32952e-65
-7.68372e-66
-7.00823e-67
-5.42061e-68
-3.42702e-69
-1.67243e-70
-5.69016e-72
-1.0675e-73
-2.74622e-76
-3.12723e-81
-2.58651e-83
-1.06052e-85
-3.73901e-96
-6.59183e-107
-8.4464e-118
-7.77338e-129
-6.14621e-140
-3.6732e-151
-1.89756e-162
-1.25932e-172
-5.47856e-183
-4.09349e-191
-1.61763e-201
-1.40799e-209
-6.53955e-220
-4.84494e-228
-2.76419e-238
-1.66864e-246
-1.76232e-256
-5.84765e-265
-1.16444e-274
-2.1014e-283
-5.75994e-293
-7.7231e-302
-2.75341e-311
2.76973e-320
0
0
0
0
0
0
0
0
0
0
0
0
0
0
0
0
0
0
0
0
0
0
0
)
;

boundaryField
{
    inandouthalf11
    {
        type            cyclic;
    }
    inandouthalf12
    {
        type            cyclic;
    }
    inandouthalf21
    {
        type            cyclic;
    }
    inandouthalf22
    {
        type            cyclic;
    }
    inandouthalf31
    {
        type            cyclic;
    }
    inandouthalf32
    {
        type            cyclic;
    }
    inandouthalf41
    {
        type            cyclic;
    }
    inandouthalf42
    {
        type            cyclic;
    }
    top
    {
        type            symmetryPlane;
    }
    walls
    {
        type            calculated;
        value           uniform 4.77669e-05;
    }
    frontAndBackPlanes
    {
        type            empty;
    }
}


// ************************************************************************* //
