/*--------------------------------*- C++ -*----------------------------------*\
| =========                 |                                                 |
| \\      /  F ield         | OpenFOAM: The Open Source CFD Toolbox           |
|  \\    /   O peration     | Version:  2.4.x                                 |
|   \\  /    A nd           | Web:      www.OpenFOAM.org                      |
|    \\/     M anipulation  |                                                 |
\*---------------------------------------------------------------------------*/
FoamFile
{
    version     2.0;
    format      ascii;
    class       volScalarField;
    location    "8.15";
    object      ddt0(k);
}
// * * * * * * * * * * * * * * * * * * * * * * * * * * * * * * * * * * * * * //

dimensions      [0 2 -3 0 0 0 0];

internalField   nonuniform List<scalar> 
360
(
0
0
0
0
0
0
0
0
0
0
0
0
0
0
0
0
0
0
0
0
0
0
0
0
0
0
0
0
0
0
0
0
0
0
0
0
0
0
0
0
0
0
0
0
0
0
0
0
0
0
0
0
0
0
0
0
0
0
0
0
0
0
0
0
0
0
0
0
0
0
0
0
0
0
0
0
0
0
0
0
0
0
0
0
0
0
0
0
0
0
0
0
0
0
0
0
0
0
0
0
0
0
0
0
0
0
0
0
0
0
0
0
0
0
0
0
0
0
0
0
0
0
0
0
0
0
0
0
0
0
0
0
0
0
9.7734e-287
1.31044e-19
2.48503e-18
3.93215e-17
6.73979e-16
1.2784e-14
2.71311e-13
6.49325e-12
1.76719e-10
5.52933e-09
2.01309e-07
8.61158e-06
0.000414176
0.010597
0.0306961
0.0178918
0.0163077
0.0167346
0.0177183
0.0188397
0.0199189
0.0208759
0.0216532
0.0221974
0.0224514
0.0223491
0.0218145
0.0207685
0.0191538
0.0169778
0.0143591
0.0115351
0.00879715
0.00638331
0.00440886
0.00287356
0.00171232
0.000842141
0.000187676
-0.000310438
-0.000695865
-0.000999651
-0.00124359
-0.00144296
-0.0016085
-0.00174786
-0.00186651
-0.00196845
-0.00205659
-0.00213313
-0.00219974
-0.00225767
-0.00230793
-0.0023513
-0.00238842
-0.0024198
-0.00244588
-0.00246702
-0.00248356
-0.00249576
-0.00250387
-0.00250812
-0.00250871
-0.00250584
-0.00249967
-0.00249038
-0.00247812
-0.00246289
-0.00244454
-0.00242303
-0.00239834
-0.00237045
-0.00233932
-0.00230494
-0.00226729
-0.00222635
-0.00218211
-0.00213457
-0.00208372
-0.00202958
-0.00197216
-0.00191148
-0.00184757
-0.00178049
-0.00171027
-0.00163699
-0.00156073
-0.00148157
-0.00139964
-0.00131506
-0.00122798
-0.00113855
-0.00104697
-0.000953448
-0.00085822
-0.00076155
-0.000663731
-0.000565087
-0.00046598
-0.000366805
-0.000268001
-0.00017005
-7.3481e-05
2.1127e-05
0.000113138
0.000201858
0.000286528
0.000366326
0.00044036
0.000507668
0.000567224
0.000617944
0.000658702
0.000688359
0.000705812
0.000710065
0.000700336
0.000676214
0.000637854
0.000586217
0.000523306
0.000452316
0.000377569
0.000304091
0.000236797
0.000179435
0.000133579
9.78767e-05
6.85549e-05
2.35646e-05
1.51949e-06
3.35952e-08
6.65568e-10
1.28446e-11
2.40417e-13
4.33928e-15
7.51513e-17
1.23667e-18
9.4814e-21
0
0
0
0
0
0
0
0
0
0
0
0
0
0
0
0
0
0
0
0
0
0
0
0
0
0
0
0
0
0
0
0
0
0
0
0
0
0
0
0
0
0
0
0
0
0
0
0
0
0
0
0
0
0
0
0
0
0
0
0
0
0
0
0
0
0
0
0
0
0
0
0
0
0
0
0
0
0
0
0
0
0
0
0
0
0
0
)
;

boundaryField
{
    inandouthalf11
    {
        type            cyclic;
    }
    inandouthalf12
    {
        type            cyclic;
    }
    inandouthalf21
    {
        type            cyclic;
    }
    inandouthalf22
    {
        type            cyclic;
    }
    inandouthalf31
    {
        type            cyclic;
    }
    inandouthalf32
    {
        type            cyclic;
    }
    inandouthalf41
    {
        type            cyclic;
    }
    inandouthalf42
    {
        type            cyclic;
    }
    top
    {
        type            symmetryPlane;
    }
    walls
    {
        type            calculated;
        value           uniform 0;
    }
    frontAndBackPlanes
    {
        type            empty;
    }
}


// ************************************************************************* //
