/*--------------------------------*- C++ -*----------------------------------*\
| =========                 |                                                 |
| \\      /  F ield         | OpenFOAM: The Open Source CFD Toolbox           |
|  \\    /   O peration     | Version:  2.4.x                                 |
|   \\  /    A nd           | Web:      www.OpenFOAM.org                      |
|    \\/     M anipulation  |                                                 |
\*---------------------------------------------------------------------------*/
FoamFile
{
    version     2.0;
    format      ascii;
    class       surfaceScalarField;
    location    "8.15";
    object      ddt0(phib);
}
// * * * * * * * * * * * * * * * * * * * * * * * * * * * * * * * * * * * * * //

dimensions      [0 3 -2 0 0 0 0];

internalField   nonuniform List<scalar> 
359
(
-1.4658e-13
-3.74404e-13
-5.71168e-13
-7.45539e-13
-9.15872e-13
-1.08351e-12
-1.24547e-12
-1.40044e-12
-1.54843e-12
-1.68981e-12
-1.82499e-12
-1.95434e-12
-2.07828e-12
-2.19724e-12
-2.31188e-12
-2.42298e-12
-2.53128e-12
-2.63762e-12
-2.74276e-12
-2.8475e-12
-2.95258e-12
-3.05873e-12
-3.16663e-12
-3.27681e-12
-3.38994e-12
-3.50636e-12
-3.62654e-12
-3.75084e-12
-3.87953e-12
-4.01275e-12
-4.15068e-12
-4.29347e-12
-4.44105e-12
-4.5935e-12
-4.75076e-12
-4.9127e-12
-5.07922e-12
-5.25022e-12
-5.42562e-12
-5.60501e-12
-5.78846e-12
-5.97562e-12
-6.16629e-12
-6.36041e-12
-6.55769e-12
-6.75793e-12
-6.96096e-12
-7.16646e-12
-7.37435e-12
-7.58452e-12
-7.79677e-12
-8.01087e-12
-8.2267e-12
-8.44412e-12
-8.66286e-12
-8.8829e-12
-9.10395e-12
-9.32582e-12
-9.54838e-12
-9.77136e-12
-9.99483e-12
-1.02186e-11
-1.04426e-11
-1.06667e-11
-1.08906e-11
-1.11141e-11
-1.13372e-11
-1.15596e-11
-1.17811e-11
-1.20015e-11
-1.22209e-11
-1.24392e-11
-1.26563e-11
-1.2872e-11
-1.30865e-11
-1.32996e-11
-1.3511e-11
-1.37206e-11
-1.39284e-11
-1.4134e-11
-1.43375e-11
-1.4539e-11
-1.47384e-11
-1.49358e-11
-1.51312e-11
-1.53246e-11
-1.55159e-11
-1.57051e-11
-1.5892e-11
-1.60765e-11
-1.62586e-11
-1.64382e-11
-1.66154e-11
-1.67901e-11
-1.69626e-11
-1.71328e-11
-1.73007e-11
-1.74665e-11
-1.763e-11
-1.77911e-11
-1.795e-11
-1.81065e-11
-1.82605e-11
-1.8412e-11
-1.8561e-11
-1.87072e-11
-1.88507e-11
-1.89913e-11
-1.9129e-11
-1.92635e-11
-1.9395e-11
-1.95231e-11
-1.9648e-11
-1.97695e-11
-1.98878e-11
-2.0003e-11
-2.01152e-11
-2.02248e-11
-2.03323e-11
-2.04381e-11
-2.05429e-11
-2.06472e-11
-2.07517e-11
-2.08566e-11
-2.09619e-11
-2.10669e-11
-2.11701e-11
-2.12691e-11
-2.13607e-11
-2.14405e-11
-2.15036e-11
-2.15448e-11
-2.15598e-11
-2.15453e-11
-2.15e-11
-2.1425e-11
-2.13241e-11
-2.12036e-11
-2.10726e-11
-2.09473e-11
-2.0852e-11
-2.07961e-11
-2.07609e-11
-2.07225e-11
-2.06483e-11
-2.18116e-11
-1.409e-09
-1.19089e-08
2.3812e-09
-5.20839e-09
-8.65157e-09
-1.01764e-08
-1.06401e-08
-1.04582e-08
-9.89988e-09
-9.13825e-09
-8.27618e-09
-7.37055e-09
-6.45213e-09
-5.53743e-09
-4.64025e-09
-3.7816e-09
-2.99082e-09
-2.29374e-09
-1.69824e-09
-1.20176e-09
-8.1037e-10
-5.29753e-10
-3.46312e-10
-2.32408e-10
-1.61981e-10
-1.17295e-10
-8.78745e-11
-6.77656e-11
-5.35427e-11
-4.31743e-11
-3.54137e-11
-2.947e-11
-2.4826e-11
-2.11336e-11
-1.81527e-11
-1.57138e-11
-1.36948e-11
-1.2006e-11
-1.05803e-11
-9.36706e-12
-8.32698e-12
-7.42955e-12
-6.6507e-12
-5.97124e-12
-5.37562e-12
-4.85125e-12
-4.3878e-12
-3.97666e-12
-3.61073e-12
-3.28398e-12
-2.99134e-12
-2.72849e-12
-2.49169e-12
-2.27776e-12
-2.08395e-12
-1.90452e-12
-1.73832e-12
-1.58416e-12
-1.44099e-12
-1.30782e-12
-1.18383e-12
-1.06823e-12
-9.6048e-13
-8.60013e-13
-7.66423e-13
-6.79378e-13
-5.98747e-13
-5.24497e-13
-4.56525e-13
-3.94551e-13
-3.38532e-13
-2.88344e-13
-2.43661e-13
-2.04037e-13
-1.69126e-13
-1.38638e-13
-1.12216e-13
-8.93088e-14
-6.96289e-14
-5.28241e-14
-3.85714e-14
-2.64842e-14
-1.6344e-14
-7.85836e-15
-8.31449e-16
4.96148e-15
9.49047e-15
1.25925e-14
1.51275e-14
1.77716e-14
1.98057e-14
2.07964e-14
2.15014e-14
2.21747e-14
2.13155e-14
2.25244e-14
2.04945e-14
2.17494e-14
2.03753e-14
1.96285e-14
1.88948e-14
1.81444e-14
1.74045e-14
1.66593e-14
1.59296e-14
1.51747e-14
1.44583e-14
1.37205e-14
1.30098e-14
1.22783e-14
1.1568e-14
1.08626e-14
1.01937e-14
9.51065e-15
8.86863e-15
8.22413e-15
7.63296e-15
7.04361e-15
6.48618e-15
5.93258e-15
5.43338e-15
4.9605e-15
4.50982e-15
4.08776e-15
3.71595e-15
3.3655e-15
3.00785e-15
2.68741e-15
2.39518e-15
2.15161e-15
1.90032e-15
1.70814e-15
1.52963e-15
1.38909e-15
1.14658e-15
9.5483e-16
7.62117e-16
6.60212e-16
5.04577e-16
4.21423e-16
3.36395e-16
3.27505e-16
2.06453e-16
1.52228e-16
9.67194e-17
1.00987e-16
4.42905e-17
6.63868e-17
7.11155e-17
1.79157e-16
-1.84485e-16
-4.41177e-16
-7.21112e-16
-9.50273e-16
-1.24852e-15
-1.49599e-15
-1.75581e-15
-1.941e-15
-2.26629e-15
-2.5273e-15
-2.78605e-15
-2.96874e-15
-3.23479e-15
-3.39871e-15
-3.56351e-15
-3.66493e-15
-3.96568e-15
-4.21426e-15
-4.46939e-15
-4.66857e-15
-4.9279e-15
-5.14212e-15
-5.36767e-15
-5.52175e-15
-6.02382e-15
-6.47246e-15
-6.95889e-15
-7.33056e-15
-8.35871e-15
-9.04066e-15
-1.02335e-14
-9.58628e-15
-2.17105e-14
-3.20386e-14
-4.28625e-14
-5.34983e-14
-6.4565e-14
-7.5866e-14
-8.71669e-14
-9.89769e-14
-1.10094e-13
-1.22023e-13
-1.33958e-13
-1.46854e-13
-1.59539e-13
-1.73028e-13
-1.87167e-13
-2.01202e-13
-2.26237e-13
-2.50582e-13
-2.75649e-13
-2.98946e-13
-3.27426e-13
-3.49624e-13
-3.746e-13
-3.9089e-13
-4.51406e-13
-4.88772e-13
-5.30326e-13
-5.39926e-13
-5.89961e-13
-6.09636e-13
-6.82888e-13
)
;

boundaryField
{
    inandouthalf11
    {
        type            cyclic;
        value           nonuniform List<scalar> 
100
(
1.21786e-10
1.21189e-10
1.21079e-10
1.2116e-10
1.21206e-10
1.21221e-10
1.21234e-10
1.21251e-10
1.21268e-10
1.21284e-10
1.213e-10
1.21316e-10
1.21331e-10
1.21346e-10
1.2136e-10
1.21375e-10
1.2139e-10
1.21404e-10
1.21419e-10
1.21434e-10
1.21448e-10
1.21463e-10
1.21479e-10
1.21495e-10
1.21511e-10
1.21528e-10
1.21544e-10
1.21562e-10
1.2158e-10
1.21599e-10
1.21617e-10
1.21637e-10
1.21657e-10
1.21678e-10
1.21699e-10
1.21721e-10
1.21743e-10
1.21766e-10
1.21789e-10
1.21812e-10
1.21837e-10
1.21862e-10
1.21886e-10
1.21912e-10
1.21938e-10
1.21965e-10
1.21992e-10
1.22019e-10
1.22047e-10
1.22075e-10
1.22103e-10
1.22133e-10
1.22162e-10
1.22192e-10
1.22222e-10
1.22253e-10
1.22284e-10
1.22315e-10
1.22347e-10
1.22379e-10
1.22412e-10
1.22445e-10
1.22479e-10
1.22513e-10
1.22548e-10
1.22583e-10
1.22619e-10
1.22655e-10
1.22691e-10
1.22728e-10
1.22766e-10
1.22804e-10
1.22843e-10
1.22882e-10
1.22922e-10
1.22963e-10
1.23004e-10
1.23046e-10
1.23089e-10
1.23132e-10
1.23176e-10
1.23221e-10
1.23267e-10
1.23313e-10
1.23361e-10
1.23409e-10
1.23459e-10
1.23509e-10
1.2356e-10
1.23613e-10
1.23666e-10
1.23721e-10
1.23777e-10
1.23834e-10
1.23893e-10
1.23952e-10
1.24014e-10
1.24077e-10
1.24141e-10
1.24207e-10
)
;
    }
    inandouthalf12
    {
        type            cyclic;
        value           nonuniform List<scalar> 
100
(
-1.21786e-10
-1.21189e-10
-1.21079e-10
-1.2116e-10
-1.21206e-10
-1.21221e-10
-1.21234e-10
-1.21251e-10
-1.21268e-10
-1.21284e-10
-1.213e-10
-1.21316e-10
-1.21331e-10
-1.21346e-10
-1.2136e-10
-1.21375e-10
-1.2139e-10
-1.21404e-10
-1.21419e-10
-1.21434e-10
-1.21448e-10
-1.21463e-10
-1.21479e-10
-1.21495e-10
-1.21511e-10
-1.21528e-10
-1.21544e-10
-1.21562e-10
-1.2158e-10
-1.21599e-10
-1.21617e-10
-1.21637e-10
-1.21657e-10
-1.21678e-10
-1.21699e-10
-1.21721e-10
-1.21743e-10
-1.21766e-10
-1.21789e-10
-1.21812e-10
-1.21837e-10
-1.21862e-10
-1.21886e-10
-1.21912e-10
-1.21938e-10
-1.21965e-10
-1.21992e-10
-1.22019e-10
-1.22047e-10
-1.22075e-10
-1.22103e-10
-1.22133e-10
-1.22162e-10
-1.22192e-10
-1.22222e-10
-1.22253e-10
-1.22284e-10
-1.22315e-10
-1.22347e-10
-1.22379e-10
-1.22412e-10
-1.22445e-10
-1.22479e-10
-1.22513e-10
-1.22548e-10
-1.22583e-10
-1.22619e-10
-1.22655e-10
-1.22691e-10
-1.22728e-10
-1.22766e-10
-1.22804e-10
-1.22843e-10
-1.22882e-10
-1.22922e-10
-1.22963e-10
-1.23004e-10
-1.23046e-10
-1.23089e-10
-1.23132e-10
-1.23176e-10
-1.23221e-10
-1.23267e-10
-1.23313e-10
-1.23361e-10
-1.23409e-10
-1.23459e-10
-1.23509e-10
-1.2356e-10
-1.23613e-10
-1.23666e-10
-1.23721e-10
-1.23777e-10
-1.23834e-10
-1.23893e-10
-1.23952e-10
-1.24014e-10
-1.24077e-10
-1.24141e-10
-1.24207e-10
)
;
    }
    inandouthalf21
    {
        type            cyclic;
        value           nonuniform List<scalar> 
100
(
1.24274e-10
1.24344e-10
1.24415e-10
1.24488e-10
1.24563e-10
1.2464e-10
1.24719e-10
1.248e-10
1.24884e-10
1.2497e-10
1.25058e-10
1.25149e-10
1.25243e-10
1.2534e-10
1.2544e-10
1.25542e-10
1.25648e-10
1.25757e-10
1.2587e-10
1.25986e-10
1.26106e-10
1.2623e-10
1.26357e-10
1.26489e-10
1.26625e-10
1.26766e-10
1.26911e-10
1.27062e-10
1.27219e-10
1.27382e-10
1.27552e-10
1.27728e-10
1.27913e-10
1.28108e-10
1.28316e-10
1.28537e-10
1.28769e-10
1.29017e-10
1.29294e-10
1.29613e-10
1.29959e-10
1.3029e-10
1.307e-10
1.31248e-10
1.31941e-10
1.32077e-10
-1.07647e-09
-3.78382e-07
-7.13482e-07
-5.31775e-07
-4.51883e-07
-4.1451e-07
-3.99032e-07
-3.96428e-07
-4.02247e-07
-4.14255e-07
-4.31334e-07
-4.53047e-07
-4.79432e-07
-5.10918e-07
-5.48229e-07
-5.92195e-07
-6.43357e-07
-7.01321e-07
-7.64096e-07
-8.27932e-07
-8.88236e-07
-9.41201e-07
-9.84993e-07
-1.01974e-06
-1.04671e-06
-1.06755e-06
-1.08376e-06
-1.09656e-06
-1.10685e-06
-1.11532e-06
-1.12242e-06
-1.12852e-06
-1.13385e-06
-1.13858e-06
-1.14287e-06
-1.14679e-06
-1.15042e-06
-1.15381e-06
-1.15701e-06
-1.16005e-06
-1.16294e-06
-1.16572e-06
-1.16839e-06
-1.17097e-06
-1.17347e-06
-1.17589e-06
-1.17824e-06
-1.18053e-06
-1.18275e-06
-1.18493e-06
-1.18704e-06
-1.18911e-06
-1.19113e-06
-1.19311e-06
)
;
    }
    inandouthalf22
    {
        type            cyclic;
        value           nonuniform List<scalar> 
100
(
-1.24274e-10
-1.24344e-10
-1.24415e-10
-1.24488e-10
-1.24563e-10
-1.2464e-10
-1.24719e-10
-1.248e-10
-1.24884e-10
-1.2497e-10
-1.25058e-10
-1.25149e-10
-1.25243e-10
-1.2534e-10
-1.2544e-10
-1.25542e-10
-1.25648e-10
-1.25757e-10
-1.2587e-10
-1.25986e-10
-1.26106e-10
-1.2623e-10
-1.26357e-10
-1.26489e-10
-1.26625e-10
-1.26766e-10
-1.26911e-10
-1.27062e-10
-1.27219e-10
-1.27382e-10
-1.27552e-10
-1.27728e-10
-1.27913e-10
-1.28108e-10
-1.28316e-10
-1.28537e-10
-1.28769e-10
-1.29017e-10
-1.29294e-10
-1.29613e-10
-1.29959e-10
-1.3029e-10
-1.307e-10
-1.31248e-10
-1.31941e-10
-1.32077e-10
1.07647e-09
3.78382e-07
7.13482e-07
5.31775e-07
4.51883e-07
4.1451e-07
3.99032e-07
3.96428e-07
4.02247e-07
4.14255e-07
4.31334e-07
4.53047e-07
4.79432e-07
5.10918e-07
5.48229e-07
5.92195e-07
6.43357e-07
7.01321e-07
7.64096e-07
8.27932e-07
8.88236e-07
9.41201e-07
9.84993e-07
1.01974e-06
1.04671e-06
1.06755e-06
1.08376e-06
1.09656e-06
1.10685e-06
1.11532e-06
1.12242e-06
1.12852e-06
1.13385e-06
1.13858e-06
1.14287e-06
1.14679e-06
1.15042e-06
1.15381e-06
1.15701e-06
1.16005e-06
1.16294e-06
1.16572e-06
1.16839e-06
1.17097e-06
1.17347e-06
1.17589e-06
1.17824e-06
1.18053e-06
1.18275e-06
1.18493e-06
1.18704e-06
1.18911e-06
1.19113e-06
1.19311e-06
)
;
    }
    inandouthalf31
    {
        type            cyclic;
        value           nonuniform List<scalar> 
110
(
-1.19504e-06
-1.22124e-06
-1.24801e-06
-1.27535e-06
-1.30329e-06
-1.33183e-06
-1.36099e-06
-1.39077e-06
-1.4212e-06
-1.45228e-06
-1.48402e-06
-1.51645e-06
-1.54957e-06
-1.5834e-06
-1.61794e-06
-1.65322e-06
-1.68925e-06
-1.72603e-06
-1.76359e-06
-1.80193e-06
-1.84107e-06
-1.88103e-06
-1.92181e-06
-1.96342e-06
-2.00589e-06
-2.04921e-06
-2.09341e-06
-2.13849e-06
-2.18446e-06
-2.23134e-06
-2.27912e-06
-2.32782e-06
-2.37744e-06
-2.42799e-06
-2.47948e-06
-2.53189e-06
-2.58523e-06
-2.6395e-06
-2.69468e-06
-2.75077e-06
-2.80776e-06
-2.86561e-06
-2.92432e-06
-2.98384e-06
-3.04414e-06
-3.10517e-06
-3.16688e-06
-3.22922e-06
-3.29212e-06
-3.3555e-06
-3.41932e-06
-3.48351e-06
-3.54806e-06
-3.61298e-06
-3.67839e-06
-3.74447e-06
-3.81153e-06
-3.88e-06
-3.95036e-06
-4.02314e-06
-4.09886e-06
-4.17811e-06
-4.26152e-06
-4.35263e-06
-4.44433e-06
-4.53479e-06
-4.62684e-06
-4.72075e-06
-4.81657e-06
-4.91433e-06
-5.01408e-06
-5.11585e-06
-5.21969e-06
-5.32564e-06
-5.43374e-06
-5.54403e-06
-5.65655e-06
-5.77137e-06
-5.88851e-06
-6.00803e-06
-6.12998e-06
-6.2544e-06
-6.38135e-06
-6.51087e-06
-6.64303e-06
-6.77786e-06
-6.91543e-06
-7.0558e-06
-7.19901e-06
-7.34513e-06
-7.49422e-06
-7.64633e-06
-7.80153e-06
-7.95988e-06
-8.12145e-06
-8.28629e-06
-8.45448e-06
-8.62609e-06
-8.80117e-06
-8.97981e-06
-9.16208e-06
-9.34805e-06
-9.53779e-06
-9.73138e-06
-9.9289e-06
-1.01304e-05
-1.0336e-05
-1.05458e-05
-1.07599e-05
-1.09783e-05
)
;
    }
    inandouthalf32
    {
        type            cyclic;
        value           nonuniform List<scalar> 
110
(
1.19504e-06
1.22124e-06
1.24801e-06
1.27535e-06
1.30329e-06
1.33183e-06
1.36099e-06
1.39077e-06
1.4212e-06
1.45228e-06
1.48402e-06
1.51645e-06
1.54957e-06
1.5834e-06
1.61794e-06
1.65322e-06
1.68925e-06
1.72603e-06
1.76359e-06
1.80193e-06
1.84107e-06
1.88103e-06
1.92181e-06
1.96342e-06
2.00589e-06
2.04921e-06
2.09341e-06
2.13849e-06
2.18446e-06
2.23134e-06
2.27912e-06
2.32782e-06
2.37744e-06
2.42799e-06
2.47948e-06
2.53189e-06
2.58523e-06
2.6395e-06
2.69468e-06
2.75077e-06
2.80776e-06
2.86561e-06
2.92432e-06
2.98384e-06
3.04414e-06
3.10517e-06
3.16688e-06
3.22922e-06
3.29212e-06
3.3555e-06
3.41932e-06
3.48351e-06
3.54806e-06
3.61298e-06
3.67839e-06
3.74447e-06
3.81153e-06
3.88e-06
3.95036e-06
4.02314e-06
4.09886e-06
4.17811e-06
4.26152e-06
4.35263e-06
4.44433e-06
4.53479e-06
4.62684e-06
4.72075e-06
4.81657e-06
4.91433e-06
5.01408e-06
5.11585e-06
5.21969e-06
5.32564e-06
5.43374e-06
5.54403e-06
5.65655e-06
5.77137e-06
5.88851e-06
6.00803e-06
6.12998e-06
6.2544e-06
6.38135e-06
6.51087e-06
6.64303e-06
6.77786e-06
6.91543e-06
7.0558e-06
7.19901e-06
7.34513e-06
7.49422e-06
7.64633e-06
7.80153e-06
7.95988e-06
8.12145e-06
8.28629e-06
8.45448e-06
8.62609e-06
8.80117e-06
8.97981e-06
9.16208e-06
9.34805e-06
9.53779e-06
9.73138e-06
9.9289e-06
1.01304e-05
1.0336e-05
1.05458e-05
1.07599e-05
1.09783e-05
)
;
    }
    inandouthalf41
    {
        type            cyclic;
        value           nonuniform List<scalar> 
50
(
-9.82669e-06
-9.82669e-06
-9.82669e-06
-9.82669e-06
-9.82669e-06
-9.82669e-06
-9.82669e-06
-9.82669e-06
-9.82669e-06
-9.82669e-06
-9.82669e-06
-9.82669e-06
-9.82669e-06
-9.82669e-06
-9.82669e-06
-9.82669e-06
-9.82669e-06
-9.82669e-06
-9.82669e-06
-9.82669e-06
-9.82669e-06
-9.82669e-06
-9.82669e-06
-9.82669e-06
-9.82669e-06
-9.82669e-06
-9.82669e-06
-9.82669e-06
-9.82669e-06
-9.82669e-06
-9.82669e-06
-9.82669e-06
-9.82669e-06
-9.82669e-06
-9.82669e-06
-9.82669e-06
-9.82669e-06
-9.82669e-06
-9.82669e-06
-9.82669e-06
-9.82669e-06
-9.82669e-06
-9.82669e-06
-9.82669e-06
-9.82669e-06
-9.82669e-06
-9.82669e-06
-9.82669e-06
-9.82669e-06
-9.82669e-06
)
;
    }
    inandouthalf42
    {
        type            cyclic;
        value           nonuniform List<scalar> 
50
(
9.82669e-06
9.82669e-06
9.82669e-06
9.82669e-06
9.82669e-06
9.82669e-06
9.82669e-06
9.82669e-06
9.82669e-06
9.82669e-06
9.82669e-06
9.82669e-06
9.82669e-06
9.82669e-06
9.82669e-06
9.82669e-06
9.82669e-06
9.82669e-06
9.82669e-06
9.82669e-06
9.82669e-06
9.82669e-06
9.82669e-06
9.82669e-06
9.82669e-06
9.82669e-06
9.82669e-06
9.82669e-06
9.82669e-06
9.82669e-06
9.82669e-06
9.82669e-06
9.82669e-06
9.82669e-06
9.82669e-06
9.82669e-06
9.82669e-06
9.82669e-06
9.82669e-06
9.82669e-06
9.82669e-06
9.82669e-06
9.82669e-06
9.82669e-06
9.82669e-06
9.82669e-06
9.82669e-06
9.82669e-06
9.82669e-06
9.82669e-06
)
;
    }
    top
    {
        type            symmetryPlane;
        value           uniform 0;
    }
    walls
    {
        type            calculated;
        value           uniform 0;
    }
    frontAndBackPlanes
    {
        type            empty;
        value           nonuniform 0();
    }
}


// ************************************************************************* //
