/*--------------------------------*- C++ -*----------------------------------*\
| =========                 |                                                 |
| \\      /  F ield         | OpenFOAM: The Open Source CFD Toolbox           |
|  \\    /   O peration     | Version:  2.4.x                                 |
|   \\  /    A nd           | Web:      www.OpenFOAM.org                      |
|    \\/     M anipulation  |                                                 |
\*---------------------------------------------------------------------------*/
FoamFile
{
    version     2.0;
    format      ascii;
    class       volVectorField;
    location    "8.15";
    object      ddt0(Ub);
}
// * * * * * * * * * * * * * * * * * * * * * * * * * * * * * * * * * * * * * //

dimensions      [0 1 -2 0 0 0 0];

internalField   nonuniform List<vector> 
360
(
(-0.000121786 -1.79456e-08 0)
(-0.000121189 -6.46775e-08 0)
(-0.000121079 -1.18188e-07 0)
(-0.00012116 -1.64599e-07 0)
(-0.000121206 -2.07688e-07 0)
(-0.000121221 -2.49922e-07 0)
(-0.000121234 -2.91118e-07 0)
(-0.000121251 -3.30736e-07 0)
(-0.000121268 -3.68606e-07 0)
(-0.000121284 -4.04777e-07 0)
(-0.0001213 -4.39348e-07 0)
(-0.000121316 -4.72415e-07 0)
(-0.000121331 -5.04076e-07 0)
(-0.000121346 -5.34438e-07 0)
(-0.00012136 -5.63638e-07 0)
(-0.000121375 -5.91856e-07 0)
(-0.00012139 -6.19281e-07 0)
(-0.000121404 -6.46111e-07 0)
(-0.000121419 -6.72545e-07 0)
(-0.000121434 -6.98781e-07 0)
(-0.000121448 -7.25008e-07 0)
(-0.000121463 -7.51412e-07 0)
(-0.000121479 -7.78167e-07 0)
(-0.000121495 -8.05426e-07 0)
(-0.000121511 -8.3334e-07 0)
(-0.000121528 -8.62035e-07 0)
(-0.000121544 -8.9161e-07 0)
(-0.000121562 -9.2217e-07 0)
(-0.00012158 -9.53792e-07 0)
(-0.000121599 -9.86531e-07 0)
(-0.000121617 -1.02042e-06 0)
(-0.000121637 -1.05552e-06 0)
(-0.000121657 -1.09181e-06 0)
(-0.000121678 -1.12931e-06 0)
(-0.000121699 -1.16803e-06 0)
(-0.000121721 -1.20793e-06 0)
(-0.000121743 -1.24898e-06 0)
(-0.000121766 -1.29117e-06 0)
(-0.000121789 -1.33448e-06 0)
(-0.000121812 -1.37882e-06 0)
(-0.000121837 -1.42418e-06 0)
(-0.000121862 -1.4705e-06 0)
(-0.000121886 -1.51773e-06 0)
(-0.000121912 -1.56583e-06 0)
(-0.000121938 -1.61475e-06 0)
(-0.000121965 -1.66444e-06 0)
(-0.000121992 -1.71486e-06 0)
(-0.000122019 -1.76592e-06 0)
(-0.000122047 -1.81759e-06 0)
(-0.000122075 -1.86985e-06 0)
(-0.000122103 -1.92265e-06 0)
(-0.000122133 -1.97595e-06 0)
(-0.000122162 -2.02969e-06 0)
(-0.000122192 -2.08385e-06 0)
(-0.000122222 -2.13836e-06 0)
(-0.000122253 -2.19321e-06 0)
(-0.000122284 -2.24834e-06 0)
(-0.000122315 -2.30371e-06 0)
(-0.000122347 -2.35927e-06 0)
(-0.000122379 -2.41495e-06 0)
(-0.000122412 -2.47077e-06 0)
(-0.000122445 -2.52666e-06 0)
(-0.000122479 -2.58264e-06 0)
(-0.000122513 -2.63865e-06 0)
(-0.000122548 -2.69465e-06 0)
(-0.000122583 -2.75058e-06 0)
(-0.000122619 -2.80641e-06 0)
(-0.000122655 -2.86209e-06 0)
(-0.000122691 -2.91758e-06 0)
(-0.000122728 -2.97281e-06 0)
(-0.000122766 -3.02779e-06 0)
(-0.000122804 -3.08251e-06 0)
(-0.000122843 -3.13692e-06 0)
(-0.000122882 -3.19103e-06 0)
(-0.000122922 -3.2448e-06 0)
(-0.000122963 -3.29825e-06 0)
(-0.000123004 -3.35131e-06 0)
(-0.000123046 -3.40395e-06 0)
(-0.000123089 -3.45611e-06 0)
(-0.000123132 -3.50778e-06 0)
(-0.000123176 -3.55892e-06 0)
(-0.000123221 -3.60955e-06 0)
(-0.000123267 -3.65966e-06 0)
(-0.000123313 -3.70925e-06 0)
(-0.000123361 -3.75835e-06 0)
(-0.000123409 -3.80696e-06 0)
(-0.000123459 -3.85505e-06 0)
(-0.000123509 -3.90261e-06 0)
(-0.00012356 -3.94962e-06 0)
(-0.000123613 -3.99605e-06 0)
(-0.000123666 -4.04187e-06 0)
(-0.000123721 -4.08708e-06 0)
(-0.000123777 -4.13167e-06 0)
(-0.000123834 -4.17566e-06 0)
(-0.000123893 -4.21907e-06 0)
(-0.000123952 -4.2619e-06 0)
(-0.000124014 -4.30416e-06 0)
(-0.000124077 -4.34587e-06 0)
(-0.000124141 -4.38703e-06 0)
(-0.000124207 -4.42762e-06 0)
(-0.000124274 -4.46762e-06 0)
(-0.000124344 -4.50703e-06 0)
(-0.000124415 -4.54585e-06 0)
(-0.000124488 -4.58404e-06 0)
(-0.000124563 -4.6216e-06 0)
(-0.00012464 -4.65849e-06 0)
(-0.000124719 -4.69471e-06 0)
(-0.0001248 -4.73022e-06 0)
(-0.000124884 -4.765e-06 0)
(-0.00012497 -4.79903e-06 0)
(-0.000125058 -4.83228e-06 0)
(-0.000125149 -4.86472e-06 0)
(-0.000125243 -4.89634e-06 0)
(-0.00012534 -4.92714e-06 0)
(-0.00012544 -4.95712e-06 0)
(-0.000125542 -4.98631e-06 0)
(-0.000125648 -5.01473e-06 0)
(-0.000125757 -5.04246e-06 0)
(-0.00012587 -5.0696e-06 0)
(-0.000125986 -5.09625e-06 0)
(-0.000126106 -5.12257e-06 0)
(-0.00012623 -5.1487e-06 0)
(-0.000126357 -5.1748e-06 0)
(-0.000126489 -5.20098e-06 0)
(-0.000126625 -5.22726e-06 0)
(-0.000126766 -5.25353e-06 0)
(-0.000126911 -5.27955e-06 0)
(-0.000127062 -5.30482e-06 0)
(-0.000127219 -5.32865e-06 0)
(-0.000127382 -5.35007e-06 0)
(-0.000127552 -5.36792e-06 0)
(-0.000127728 -5.38095e-06 0)
(-0.000127913 -5.38796e-06 0)
(-0.000128108 -5.388e-06 0)
(-0.000128316 -5.38054e-06 0)
(-0.000128537 -5.36553e-06 0)
(-0.000128769 -5.34351e-06 0)
(-0.000129017 -5.3157e-06 0)
(-0.000129294 -5.28413e-06 0)
(-0.000129613 -5.25228e-06 0)
(-0.000129959 -5.2251e-06 0)
(-0.00013029 -5.20536e-06 0)
(-0.0001307 -5.18583e-06 0)
(-0.000131248 -7.23443e-06 0)
(-0.000131941 1.71893e-05 0)
(-0.000132077 -7.64392e-05 0)
(0.00107647 0.000286202 0)
(0.378382 -0.00156117 0)
(0.713482 -0.0019898 0)
(0.531775 0.00173679 0)
(0.451883 -0.00171742 0)
(0.41451 -0.00247751 0)
(0.399032 -0.00265926 0)
(0.396428 -0.00266332 0)
(0.402247 -0.00256085 0)
(0.414255 -0.00238976 0)
(0.431334 -0.00218232 0)
(0.453047 -0.00195875 0)
(0.479432 -0.00172939 0)
(0.510918 -0.00149932 0)
(0.548229 -0.00127174 0)
(0.592195 -0.00105082 0)
(0.643357 -0.000843098 0)
(0.701321 -0.000655738 0)
(0.764096 -0.000493001 0)
(0.827932 -0.000355651 0)
(0.888236 -0.000244475 0)
(0.941201 -0.000161163 0)
(0.984993 -0.000104509 0)
(1.01974 -6.88746e-05 0)
(1.04671 -4.71238e-05 0)
(1.06755 -3.3615e-05 0)
(1.08376 -2.48776e-05 0)
(1.09656 -1.8984e-05 0)
(1.10685 -1.48627e-05 0)
(1.11532 -1.18899e-05 0)
(1.12242 -9.68669e-06 0)
(1.12852 -8.01403e-06 0)
(1.13385 -6.7173e-06 0)
(1.13858 -5.69341e-06 0)
(1.14287 -4.8719e-06 0)
(1.14679 -4.20344e-06 0)
(1.15042 -3.65277e-06 0)
(1.15381 -3.19415e-06 0)
(1.15701 -2.80849e-06 0)
(1.16005 -2.48142e-06 0)
(1.16294 -2.20191e-06 0)
(1.16572 -1.96142e-06 0)
(1.16839 -1.75324e-06 0)
(1.17097 -1.57203e-06 0)
(1.17347 -1.41352e-06 0)
(1.17589 -1.27423e-06 0)
(1.17824 -1.15135e-06 0)
(1.18053 -1.04251e-06 0)
(1.18275 -9.4579e-07 0)
(1.18493 -8.59551e-07 0)
(1.18704 -7.82421e-07 0)
(1.18911 -7.13235e-07 0)
(1.19113 -6.50995e-07 0)
(1.19311 -5.9484e-07 0)
(1.19504 -5.44051e-07 0)
(1.19694 -4.9747e-07 0)
(1.19884 -4.54355e-07 0)
(1.20074 -4.14393e-07 0)
(1.20263 -3.77304e-07 0)
(1.20452 -3.42831e-07 0)
(1.2064 -3.10746e-07 0)
(1.20828 -2.80851e-07 0)
(1.21015 -2.52978e-07 0)
(1.21201 -2.2699e-07 0)
(1.21387 -2.02763e-07 0)
(1.21572 -1.80207e-07 0)
(1.21755 -1.59265e-07 0)
(1.21938 -1.3992e-07 0)
(1.2212 -1.22157e-07 0)
(1.223 -1.0593e-07 0)
(1.22479 -9.12e-08 0)
(1.22657 -7.79459e-08 0)
(1.22833 -6.61126e-08 0)
(1.23007 -5.56027e-08 0)
(1.23179 -4.63151e-08 0)
(1.23348 -3.81692e-08 0)
(1.23515 -3.10838e-08 0)
(1.23679 -2.49466e-08 0)
(1.23841 -1.96508e-08 0)
(1.23999 -1.51149e-08 0)
(1.24153 -1.12561e-08 0)
(1.24304 -7.98555e-09 0)
(1.2445 -5.22677e-09 0)
(1.24591 -2.91506e-09 0)
(1.24728 -9.87754e-10 0)
(1.24859 6.07457e-10 0)
(1.24983 1.8849e-09 0)
(1.25102 2.81926e-09 0)
(1.25213 3.50568e-09 0)
(1.25316 4.14279e-09 0)
(1.25411 4.73101e-09 0)
(1.25496 5.11423e-09 0)
(1.25571 5.32264e-09 0)
(1.25635 5.47991e-09 0)
(1.25686 5.44986e-09 0)
(1.25724 5.49025e-09 0)
(1.25748 5.41379e-09 0)
(1.25754 5.29201e-09 0)
(1.25743 5.28699e-09 0)
(1.25713 5.01163e-09 0)
(1.25661 4.81102e-09 0)
(1.25585 4.62787e-09 0)
(1.25484 4.44365e-09 0)
(1.25356 4.25839e-09 0)
(1.25199 4.07393e-09 0)
(1.25012 3.88845e-09 0)
(1.24795 3.70437e-09 0)
(1.24551 3.52013e-09 0)
(1.24283 3.33471e-09 0)
(1.23999 3.20559e-09 0)
(1.23709 2.87978e-09 0)
(1.23426 2.97568e-09 0)
(1.23164 2.38214e-09 0)
(1.22938 2.79523e-09 0)
(1.2276 1.88559e-09 0)
(1.22644 2.62353e-09 0)
(1.22604 1.43363e-09 0)
(1.22734 2.43677e-09 0)
(1.22827 1.05222e-09 0)
(1.22833 2.22938e-09 0)
(1.22834 7.10098e-10 0)
(1.22834 2.04706e-09 0)
(1.22834 3.99082e-10 0)
(1.22834 1.89856e-09 0)
(1.22834 1.11811e-10 0)
(1.22834 1.79084e-09 0)
(1.22834 -1.5112e-10 0)
(1.22834 1.70453e-09 0)
(1.22834 -4.02639e-10 0)
(1.22834 1.65307e-09 0)
(1.22834 -6.26289e-10 0)
(1.22834 1.6334e-09 0)
(1.22834 -8.2839e-10 0)
(1.22834 1.6501e-09 0)
(1.22834 -1.02244e-09 0)
(1.22834 1.6571e-09 0)
(1.22834 -1.23548e-09 0)
(1.22834 1.68571e-09 0)
(1.22834 -1.42112e-09 0)
(1.22834 1.74293e-09 0)
(1.22834 -1.59334e-09 0)
(1.22834 1.83396e-09 0)
(1.22834 -1.74969e-09 0)
(1.22834 1.92681e-09 0)
(1.22834 -1.91726e-09 0)
(1.22834 2.04129e-09 0)
(1.22834 -2.06889e-09 0)
(1.22834 2.1716e-09 0)
(1.22834 -2.21315e-09 0)
(1.22834 2.33426e-09 0)
(1.22834 -2.38451e-09 0)
(1.22834 2.38145e-09 0)
(1.22834 -2.68347e-09 0)
(1.22834 2.40836e-09 0)
(1.22834 -2.97493e-09 0)
(1.22834 2.43969e-09 0)
(1.22834 -3.27308e-09 0)
(1.22834 2.49018e-09 0)
(1.22834 -3.56765e-09 0)
(1.22834 2.53173e-09 0)
(1.22834 -3.88474e-09 0)
(1.22834 2.59453e-09 0)
(1.22834 -4.18318e-09 0)
(1.22834 2.67528e-09 0)
(1.22834 -4.03068e-09 0)
(1.22834 2.28188e-09 0)
(1.22834 -4.16733e-09 0)
(1.22834 2.21551e-09 0)
(1.22834 -4.34744e-09 0)
(1.22834 2.14497e-09 0)
(1.22834 -4.51134e-09 0)
(1.22834 2.07769e-09 0)
(1.22834 -4.67267e-09 0)
(1.22834 2.02038e-09 0)
(1.22834 -4.85197e-09 0)
(1.22834 1.86864e-09 0)
(1.22834 -5.13013e-09 0)
(1.22834 1.68588e-09 0)
(1.22834 -5.4593e-09 0)
(1.22834 1.34587e-09 0)
(1.22834 -5.93801e-09 0)
(1.22834 1.01924e-09 0)
(1.22834 -7.56336e-09 0)
(1.22834 -3.1035e-09 0)
(1.22834 -1.29894e-08 0)
(1.22834 -8.40019e-09 0)
(1.22834 -1.84283e-08 0)
(1.22834 -1.38744e-08 0)
(1.22834 -2.40889e-08 0)
(1.22834 -1.95399e-08 0)
(1.22834 -2.98731e-08 0)
(1.22834 -2.52651e-08 0)
(1.22834 -3.57881e-08 0)
(1.22834 -3.13124e-08 0)
(1.22834 -4.2117e-08 0)
(1.22834 -3.77578e-08 0)
(1.22834 -4.88783e-08 0)
(1.22834 -4.47266e-08 0)
(1.22834 -5.73447e-08 0)
(1.22834 -5.57237e-08 0)
(1.22834 -6.96914e-08 0)
(1.22834 -6.79267e-08 0)
(1.22834 -8.22276e-08 0)
(1.22834 -8.06913e-08 0)
(1.22834 -9.44733e-08 0)
(1.22834 -9.18458e-08 0)
(1.22834 -1.09344e-07 0)
(1.22834 -1.13493e-07 0)
(1.22834 -1.31321e-07 0)
(1.22834 -1.2981e-07 0)
(1.22834 -1.45278e-07 0)
(1.22834 -1.45938e-07 0)
(1.22834 -1.6502e-07 0)
(1.22834 -8.07182e-08 0)
)
;

boundaryField
{
    inandouthalf11
    {
        type            cyclic;
    }
    inandouthalf12
    {
        type            cyclic;
    }
    inandouthalf21
    {
        type            cyclic;
    }
    inandouthalf22
    {
        type            cyclic;
    }
    inandouthalf31
    {
        type            cyclic;
    }
    inandouthalf32
    {
        type            cyclic;
    }
    inandouthalf41
    {
        type            cyclic;
    }
    inandouthalf42
    {
        type            cyclic;
    }
    top
    {
        type            symmetryPlane;
    }
    walls
    {
        type            calculated;
        value           uniform (0 0 0);
    }
    frontAndBackPlanes
    {
        type            empty;
    }
}


// ************************************************************************* //
