/*--------------------------------*- C++ -*----------------------------------*\
| =========                 |                                                 |
| \\      /  F ield         | OpenFOAM: The Open Source CFD Toolbox           |
|  \\    /   O peration     | Version:  2.4.x                                 |
|   \\  /    A nd           | Web:      www.OpenFOAM.org                      |
|    \\/     M anipulation  |                                                 |
\*---------------------------------------------------------------------------*/
FoamFile
{
    version     2.0;
    format      ascii;
    class       volScalarField;
    location    "8.15";
    object      epsilon_0;
}
// * * * * * * * * * * * * * * * * * * * * * * * * * * * * * * * * * * * * * //

dimensions      [0 2 -3 0 0 0 0];

internalField   nonuniform List<scalar> 
360
(
1.60309e-27
1e-20
1e-20
1e-20
1e-20
1e-20
1e-20
1e-20
1e-20
1e-20
1e-20
1e-20
1e-20
1e-20
1e-20
1e-20
1e-20
1e-20
1e-20
1e-20
1e-20
1e-20
1e-20
1e-20
1e-20
1e-20
1e-20
1e-20
1e-20
1e-20
1e-20
1e-20
1e-20
1e-20
1e-20
1e-20
1e-20
1e-20
1e-20
1e-20
1e-20
1e-20
1e-20
1e-20
1e-20
1e-20
1e-20
1e-20
1e-20
1e-20
1e-20
1e-20
1e-20
1e-20
1e-20
1e-20
1e-20
1e-20
1e-20
1e-20
1e-20
1e-20
1e-20
1e-20
1e-20
1e-20
1e-20
1e-20
1e-20
1e-20
1e-20
1e-20
1e-20
1e-20
1e-20
1e-20
1e-20
1e-20
1e-20
1e-20
1e-20
1e-20
1e-20
1e-20
1e-20
1e-20
1e-20
1e-20
1e-20
1e-20
1e-20
1e-20
1e-20
1e-20
1e-20
1e-20
1e-20
1e-20
1e-20
1e-20
1e-20
1e-20
1e-20
1e-20
1e-20
1e-20
1e-20
1e-20
1e-20
1e-20
1e-20
1e-20
1e-20
1e-20
1e-20
1e-20
1e-20
1e-20
1e-20
1e-20
1e-20
1e-20
1e-20
1e-20
1e-20
1e-20
1e-20
1e-20
1e-20
1e-20
1e-20
1e-20
1e-20
1e-20
1.00073e-20
3.80352e-20
5.16178e-19
9.11841e-18
1.78533e-16
3.88738e-15
9.51213e-14
2.64424e-12
8.44121e-11
3.1262e-09
1.35673e-07
6.96532e-06
0.000417555
0.0189719
0.192552
0.33303
0.35144
0.333535
0.303248
0.26913
0.234872
0.20215
0.171733
0.143958
0.118956
0.0967618
0.0773702
0.060757
0.0468749
0.0356276
0.0268346
0.0202114
0.015386
0.0119543
0.00954256
0.0078478
0.00664634
0.00578258
0.00515161
0.0046834
0.00433103
0.0040627
0.00385649
0.00369703
0.00357332
0.00347733
0.0034031
0.00334613
0.00330295
0.00327087
0.00324775
0.00323188
0.00322186
0.00321655
0.00321502
0.00321647
0.00322024
0.00322577
0.00323257
0.00324023
0.0032484
0.00325678
0.0032651
0.00327313
0.00328069
0.00328759
0.00329369
0.00329893
0.00330318
0.00330629
0.00330808
0.00330838
0.00330702
0.00330382
0.00329862
0.00329125
0.00328154
0.00326932
0.00325442
0.00323669
0.00321596
0.00319209
0.00316491
0.0031343
0.00310012
0.00306225
0.00302057
0.00297498
0.00292539
0.00287173
0.00281394
0.00275198
0.00268584
0.00261551
0.00254104
0.00246247
0.0023799
0.00229343
0.00220322
0.00210946
0.00201239
0.00191226
0.00180941
0.00170419
0.00159702
0.00148838
0.00137878
0.00126882
0.00115912
0.0010504
0.000943383
0.00083888
0.000737725
0.000640782
0.000548924
0.000463007
0.000383839
0.000312135
0.000248464
0.000193194
0.000146435
0.000107985
7.73164e-05
5.35981e-05
3.57741e-05
2.26945e-05
1.32736e-05
6.64677e-06
2.28992e-06
3.16953e-07
1.22119e-08
2.63504e-10
5.35365e-12
1.05376e-13
1.99888e-15
3.63676e-17
6.38692e-19
1.82593e-20
1e-20
1e-20
1e-20
1e-20
1e-20
1e-20
1e-20
1e-20
1e-20
1e-20
1e-20
1e-20
1e-20
1e-20
1e-20
1e-20
1e-20
1e-20
1e-20
1e-20
1e-20
1e-20
1e-20
1e-20
1e-20
1e-20
1e-20
1e-20
1e-20
1e-20
1e-20
1e-20
1e-20
1e-20
1e-20
1e-20
1e-20
1e-20
1e-20
1e-20
1e-20
1e-20
1e-20
1e-20
1e-20
1e-20
1e-20
1e-20
1e-20
1e-20
1e-20
1e-20
1e-20
1e-20
1e-20
1e-20
1e-20
1e-20
1e-20
1e-20
1e-20
1e-20
1e-20
1e-20
1e-20
1e-20
1e-20
1e-20
1e-20
1e-20
1e-20
1e-20
1e-20
1e-20
1e-20
1e-20
1e-20
1e-20
1e-20
1e-20
1e-20
1e-20
1e-20
1e-20
1e-20
1e-20
1e-20
1e-20
)
;

boundaryField
{
    inandouthalf11
    {
        type            cyclic;
    }
    inandouthalf12
    {
        type            cyclic;
    }
    inandouthalf21
    {
        type            cyclic;
    }
    inandouthalf22
    {
        type            cyclic;
    }
    inandouthalf31
    {
        type            cyclic;
    }
    inandouthalf32
    {
        type            cyclic;
    }
    inandouthalf41
    {
        type            cyclic;
    }
    inandouthalf42
    {
        type            cyclic;
    }
    top
    {
        type            symmetryPlane;
    }
    walls
    {
        type            zeroGradient;
    }
    frontAndBackPlanes
    {
        type            empty;
    }
}


// ************************************************************************* //
