/*--------------------------------*- C++ -*----------------------------------*\
| =========                 |                                                 |
| \\      /  F ield         | OpenFOAM: The Open Source CFD Toolbox           |
|  \\    /   O peration     | Version:  2.4.x                                 |
|   \\  /    A nd           | Web:      www.OpenFOAM.org                      |
|    \\/     M anipulation  |                                                 |
\*---------------------------------------------------------------------------*/
FoamFile
{
    version     2.0;
    format      ascii;
    class       surfaceScalarField;
    location    "8.15";
    object      phib;
}
// * * * * * * * * * * * * * * * * * * * * * * * * * * * * * * * * * * * * * //

dimensions      [0 3 -1 0 0 0 0];

internalField   nonuniform List<scalar> 
359
(
2.45297e-13
6.20563e-13
9.70692e-13
1.3098e-12
1.66089e-12
2.02161e-12
2.38526e-12
2.74919e-12
3.11288e-12
3.47642e-12
3.83963e-12
4.20206e-12
4.5633e-12
4.92299e-12
5.28088e-12
5.63687e-12
5.99084e-12
6.34267e-12
6.69225e-12
7.03959e-12
7.38453e-12
7.72713e-12
8.0674e-12
8.40536e-12
8.74105e-12
9.07455e-12
9.40588e-12
9.73521e-12
1.00626e-11
1.03882e-11
1.07119e-11
1.10342e-11
1.13548e-11
1.16741e-11
1.19921e-11
1.23089e-11
1.26246e-11
1.29393e-11
1.32532e-11
1.35661e-11
1.38783e-11
1.41898e-11
1.45006e-11
1.48108e-11
1.51204e-11
1.54295e-11
1.57381e-11
1.60461e-11
1.63535e-11
1.66605e-11
1.69669e-11
1.72728e-11
1.7578e-11
1.78828e-11
1.81868e-11
1.84902e-11
1.87927e-11
1.90946e-11
1.93955e-11
1.96953e-11
1.99943e-11
2.02921e-11
2.0589e-11
2.08848e-11
2.11793e-11
2.14725e-11
2.17643e-11
2.20545e-11
2.23432e-11
2.263e-11
2.2915e-11
2.31984e-11
2.34798e-11
2.37593e-11
2.40368e-11
2.43123e-11
2.45856e-11
2.48565e-11
2.51249e-11
2.53907e-11
2.56539e-11
2.59143e-11
2.61721e-11
2.64271e-11
2.66793e-11
2.69287e-11
2.71752e-11
2.74187e-11
2.7659e-11
2.78961e-11
2.81298e-11
2.83601e-11
2.85871e-11
2.88106e-11
2.90308e-11
2.92476e-11
2.9461e-11
2.9671e-11
2.98775e-11
3.00806e-11
3.02801e-11
3.0476e-11
3.06683e-11
3.08571e-11
3.10423e-11
3.12239e-11
3.14021e-11
3.15768e-11
3.17481e-11
3.19163e-11
3.20815e-11
3.22438e-11
3.24036e-11
3.25611e-11
3.27168e-11
3.28709e-11
3.30238e-11
3.31761e-11
3.3328e-11
3.34799e-11
3.36321e-11
3.37848e-11
3.3938e-11
3.40915e-11
3.4245e-11
3.4398e-11
3.45498e-11
3.46995e-11
3.48464e-11
3.49893e-11
3.51271e-11
3.52586e-11
3.5383e-11
3.54999e-11
3.56095e-11
3.57123e-11
3.58083e-11
3.58971e-11
3.59777e-11
3.60468e-11
3.60959e-11
3.61073e-11
3.60727e-11
3.59986e-11
3.5861e-11
3.55669e-11
-4.54777e-11
-4.64792e-09
-5.26366e-09
-4.8892e-09
-4.44945e-09
-3.99096e-09
-3.52821e-09
-3.06954e-09
-2.62358e-09
-2.20001e-09
-1.80728e-09
-1.45251e-09
-1.14062e-09
-8.74133e-10
-6.53213e-10
-4.75838e-10
-3.38042e-10
-2.34394e-10
-1.58922e-10
-1.0602e-10
-7.05722e-11
-4.77386e-11
-3.32645e-11
-2.39759e-11
-1.78303e-11
-1.36166e-11
-1.06299e-11
-8.45119e-12
-6.82327e-12
-5.58216e-12
-4.61985e-12
-3.863e-12
-3.26045e-12
-2.7757e-12
-2.38214e-12
-2.06004e-12
-1.79453e-12
-1.57423e-12
-1.39034e-12
-1.23597e-12
-1.10569e-12
-9.95154e-13
-9.00878e-13
-8.20044e-13
-7.50357e-13
-6.89936e-13
-6.37233e-13
-5.90961e-13
-5.50048e-13
-5.13595e-13
-4.80843e-13
-4.51149e-13
-4.23969e-13
-3.98849e-13
-3.75416e-13
-3.5293e-13
-3.31197e-13
-3.10046e-13
-2.89349e-13
-2.69022e-13
-2.49034e-13
-2.29393e-13
-2.10148e-13
-1.91377e-13
-1.73186e-13
-1.55699e-13
-1.39063e-13
-1.23402e-13
-1.08792e-13
-9.53003e-14
-8.29852e-14
-7.18489e-14
-6.18473e-14
-5.29295e-14
-4.50491e-14
-3.81473e-14
-3.21277e-14
-2.69052e-14
-2.24175e-14
-1.85818e-14
-1.53172e-14
-1.25573e-14
-1.02376e-14
-8.30241e-15
-6.69203e-15
-5.37375e-15
-4.32907e-15
-3.51305e-15
-2.71899e-15
-1.92579e-15
-1.37547e-15
-1.01601e-15
-7.00538e-16
-4.99611e-16
-2.8774e-16
-1.79305e-16
-5.11835e-17
2.1605e-17
9.57129e-18
9.35235e-18
9.04453e-18
8.81785e-18
8.50177e-18
8.25645e-18
7.92716e-18
7.6613e-18
7.31323e-18
7.02053e-18
6.65208e-18
6.33899e-18
5.96403e-18
5.63807e-18
5.25411e-18
4.91275e-18
4.5343e-18
4.20326e-18
3.84865e-18
3.56758e-18
3.32649e-18
3.15179e-18
3.00515e-18
2.86311e-18
2.7385e-18
2.62428e-18
2.50306e-18
2.38737e-18
2.30988e-18
2.23312e-18
2.15392e-18
2.05856e-18
1.97809e-18
1.88094e-18
1.78109e-18
1.66815e-18
1.60501e-18
1.53148e-18
1.46099e-18
1.3719e-18
1.29693e-18
1.20651e-18
1.1069e-18
9.9917e-19
9.15058e-19
8.18351e-19
7.20599e-19
6.07853e-19
5.10326e-19
3.96602e-19
2.87974e-19
1.54035e-19
1.27264e-19
1.22534e-19
1.25443e-19
1.05134e-19
1.11142e-19
1.09389e-19
1.08491e-19
1.02363e-19
1.09551e-19
1.12354e-19
1.15494e-19
1.15175e-19
1.17712e-19
1.17613e-19
1.17482e-19
1.15091e-19
1.20077e-19
1.23373e-19
1.27103e-19
1.2883e-19
1.32513e-19
1.34663e-19
1.37437e-19
1.35622e-19
1.47763e-19
1.55121e-19
1.62471e-19
1.60563e-19
1.84301e-19
1.84961e-19
1.98044e-19
1.0795e-19
5.22753e-19
8.37238e-19
1.16452e-18
1.4807e-18
1.80481e-18
2.14719e-18
2.48708e-18
2.86731e-18
3.16579e-18
3.53167e-18
3.89601e-18
4.35084e-18
4.73795e-18
5.23433e-18
5.74353e-18
6.32993e-18
7.12844e-18
8.0324e-18
8.95706e-18
1.00119e-17
1.11104e-17
1.22052e-17
1.34223e-17
1.44665e-17
1.72845e-17
1.93681e-17
2.16912e-17
2.28764e-17
2.62243e-17
2.81257e-17
3.26678e-17
)
;

boundaryField
{
    inandouthalf11
    {
        type            cyclic;
        value           nonuniform List<scalar> 
100
(
-2.60005e-10
-2.58633e-10
-2.58445e-10
-2.58652e-10
-2.58767e-10
-2.58819e-10
-2.58876e-10
-2.58944e-10
-2.59013e-10
-2.59083e-10
-2.59153e-10
-2.59223e-10
-2.59293e-10
-2.59364e-10
-2.59435e-10
-2.59506e-10
-2.59578e-10
-2.5965e-10
-2.59723e-10
-2.59796e-10
-2.59868e-10
-2.59942e-10
-2.60015e-10
-2.60089e-10
-2.60164e-10
-2.60239e-10
-2.60314e-10
-2.60389e-10
-2.60466e-10
-2.60542e-10
-2.60619e-10
-2.60697e-10
-2.60774e-10
-2.60853e-10
-2.60932e-10
-2.61012e-10
-2.61092e-10
-2.61172e-10
-2.61254e-10
-2.61336e-10
-2.61419e-10
-2.61502e-10
-2.61586e-10
-2.61671e-10
-2.61756e-10
-2.61843e-10
-2.6193e-10
-2.62017e-10
-2.62106e-10
-2.62196e-10
-2.62285e-10
-2.62377e-10
-2.62469e-10
-2.62562e-10
-2.62655e-10
-2.6275e-10
-2.62845e-10
-2.62942e-10
-2.6304e-10
-2.63138e-10
-2.63238e-10
-2.63338e-10
-2.6344e-10
-2.63543e-10
-2.63647e-10
-2.63751e-10
-2.63858e-10
-2.63965e-10
-2.64074e-10
-2.64183e-10
-2.64294e-10
-2.64407e-10
-2.6452e-10
-2.64636e-10
-2.64752e-10
-2.64871e-10
-2.6499e-10
-2.65111e-10
-2.65234e-10
-2.65358e-10
-2.65484e-10
-2.65611e-10
-2.65741e-10
-2.65872e-10
-2.66005e-10
-2.6614e-10
-2.66278e-10
-2.66417e-10
-2.66558e-10
-2.66702e-10
-2.66847e-10
-2.66996e-10
-2.67146e-10
-2.673e-10
-2.67456e-10
-2.67615e-10
-2.67776e-10
-2.67941e-10
-2.68109e-10
-2.6828e-10
)
;
    }
    inandouthalf12
    {
        type            cyclic;
        value           nonuniform List<scalar> 
100
(
2.60005e-10
2.58633e-10
2.58445e-10
2.58652e-10
2.58767e-10
2.58819e-10
2.58876e-10
2.58944e-10
2.59013e-10
2.59083e-10
2.59153e-10
2.59223e-10
2.59293e-10
2.59364e-10
2.59435e-10
2.59506e-10
2.59578e-10
2.5965e-10
2.59723e-10
2.59796e-10
2.59868e-10
2.59942e-10
2.60015e-10
2.60089e-10
2.60164e-10
2.60239e-10
2.60314e-10
2.60389e-10
2.60466e-10
2.60542e-10
2.60619e-10
2.60697e-10
2.60774e-10
2.60853e-10
2.60932e-10
2.61012e-10
2.61092e-10
2.61172e-10
2.61254e-10
2.61336e-10
2.61419e-10
2.61502e-10
2.61586e-10
2.61671e-10
2.61756e-10
2.61843e-10
2.6193e-10
2.62017e-10
2.62106e-10
2.62196e-10
2.62285e-10
2.62377e-10
2.62469e-10
2.62562e-10
2.62655e-10
2.6275e-10
2.62845e-10
2.62942e-10
2.6304e-10
2.63138e-10
2.63238e-10
2.63338e-10
2.6344e-10
2.63543e-10
2.63647e-10
2.63751e-10
2.63858e-10
2.63965e-10
2.64074e-10
2.64183e-10
2.64294e-10
2.64407e-10
2.6452e-10
2.64636e-10
2.64752e-10
2.64871e-10
2.6499e-10
2.65111e-10
2.65234e-10
2.65358e-10
2.65484e-10
2.65611e-10
2.65741e-10
2.65872e-10
2.66005e-10
2.6614e-10
2.66278e-10
2.66417e-10
2.66558e-10
2.66702e-10
2.66847e-10
2.66996e-10
2.67146e-10
2.673e-10
2.67456e-10
2.67615e-10
2.67776e-10
2.67941e-10
2.68109e-10
2.6828e-10
)
;
    }
    inandouthalf21
    {
        type            cyclic;
        value           nonuniform List<scalar> 
100
(
-2.68454e-10
-2.68632e-10
-2.68814e-10
-2.68999e-10
-2.69189e-10
-2.69382e-10
-2.6958e-10
-2.69782e-10
-2.6999e-10
-2.70202e-10
-2.70419e-10
-2.70642e-10
-2.7087e-10
-2.71105e-10
-2.71346e-10
-2.71593e-10
-2.71847e-10
-2.72108e-10
-2.72377e-10
-2.72654e-10
-2.7294e-10
-2.73234e-10
-2.73538e-10
-2.73851e-10
-2.74175e-10
-2.74511e-10
-2.74858e-10
-2.75219e-10
-2.75595e-10
-2.75986e-10
-2.76394e-10
-2.7682e-10
-2.77264e-10
-2.77733e-10
-2.78231e-10
-2.78756e-10
-2.79306e-10
-2.7989e-10
-2.80536e-10
-2.81277e-10
-2.82081e-10
-2.82858e-10
-2.83795e-10
-2.85006e-10
-2.86525e-10
-2.8952e-10
-3.45188e-10
-2.64024e-08
-1.42113e-07
-2.65722e-07
-3.65586e-07
-4.49158e-07
-5.20695e-07
-5.82783e-07
-6.37211e-07
-6.85275e-07
-7.2794e-07
-7.65937e-07
-7.99813e-07
-8.29974e-07
-8.56703e-07
-8.80189e-07
-9.00545e-07
-9.17847e-07
-9.32188e-07
-9.43732e-07
-9.5275e-07
-9.59607e-07
-9.64713e-07
-9.68458e-07
-9.71169e-07
-9.73104e-07
-9.74453e-07
-9.75356e-07
-9.75912e-07
-9.76194e-07
-9.76257e-07
-9.76138e-07
-9.75868e-07
-9.75469e-07
-9.74959e-07
-9.74352e-07
-9.7366e-07
-9.72891e-07
-9.72054e-07
-9.71155e-07
-9.70199e-07
-9.69191e-07
-9.68136e-07
-9.67037e-07
-9.65898e-07
-9.64722e-07
-9.63511e-07
-9.62269e-07
-9.60996e-07
-9.59697e-07
-9.58372e-07
-9.57024e-07
-9.55654e-07
-9.54264e-07
)
;
    }
    inandouthalf22
    {
        type            cyclic;
        value           nonuniform List<scalar> 
100
(
2.68454e-10
2.68632e-10
2.68814e-10
2.68999e-10
2.69189e-10
2.69382e-10
2.6958e-10
2.69782e-10
2.6999e-10
2.70202e-10
2.70419e-10
2.70642e-10
2.7087e-10
2.71105e-10
2.71346e-10
2.71593e-10
2.71847e-10
2.72108e-10
2.72377e-10
2.72654e-10
2.7294e-10
2.73234e-10
2.73538e-10
2.73851e-10
2.74175e-10
2.74511e-10
2.74858e-10
2.75219e-10
2.75595e-10
2.75986e-10
2.76394e-10
2.7682e-10
2.77264e-10
2.77733e-10
2.78231e-10
2.78756e-10
2.79306e-10
2.7989e-10
2.80536e-10
2.81277e-10
2.82081e-10
2.82858e-10
2.83795e-10
2.85006e-10
2.86525e-10
2.8952e-10
3.45188e-10
2.64024e-08
1.42113e-07
2.65722e-07
3.65586e-07
4.49158e-07
5.20695e-07
5.82783e-07
6.37211e-07
6.85275e-07
7.2794e-07
7.65937e-07
7.99813e-07
8.29974e-07
8.56703e-07
8.80189e-07
9.00545e-07
9.17847e-07
9.32188e-07
9.43732e-07
9.5275e-07
9.59607e-07
9.64713e-07
9.68458e-07
9.71169e-07
9.73104e-07
9.74453e-07
9.75356e-07
9.75912e-07
9.76194e-07
9.76257e-07
9.76138e-07
9.75868e-07
9.75469e-07
9.74959e-07
9.74352e-07
9.7366e-07
9.72891e-07
9.72054e-07
9.71155e-07
9.70199e-07
9.69191e-07
9.68136e-07
9.67037e-07
9.65898e-07
9.64722e-07
9.63511e-07
9.62269e-07
9.60996e-07
9.59697e-07
9.58372e-07
9.57024e-07
9.55654e-07
9.54264e-07
)
;
    }
    inandouthalf31
    {
        type            cyclic;
        value           nonuniform List<scalar> 
110
(
-9.52859e-07
-9.70731e-07
-9.88888e-07
-1.00733e-06
-1.02607e-06
-1.04509e-06
-1.06442e-06
-1.08404e-06
-1.10396e-06
-1.12419e-06
-1.14472e-06
-1.16556e-06
-1.18671e-06
-1.20818e-06
-1.22996e-06
-1.25206e-06
-1.27449e-06
-1.29724e-06
-1.32032e-06
-1.34373e-06
-1.36748e-06
-1.39157e-06
-1.416e-06
-1.44078e-06
-1.46592e-06
-1.49141e-06
-1.51726e-06
-1.54348e-06
-1.57008e-06
-1.59707e-06
-1.62444e-06
-1.65222e-06
-1.6804e-06
-1.70901e-06
-1.73806e-06
-1.76755e-06
-1.79751e-06
-1.82796e-06
-1.85891e-06
-1.89039e-06
-1.92242e-06
-1.95504e-06
-1.98829e-06
-2.02219e-06
-2.0568e-06
-2.09217e-06
-2.12836e-06
-2.16543e-06
-2.20347e-06
-2.24255e-06
-2.28277e-06
-2.32424e-06
-2.36707e-06
-2.41138e-06
-2.45729e-06
-2.50492e-06
-2.55437e-06
-2.60569e-06
-2.65894e-06
-2.71408e-06
-2.77103e-06
-2.82962e-06
-2.88958e-06
-2.95007e-06
-3.01036e-06
-3.07148e-06
-3.13383e-06
-3.19743e-06
-3.26233e-06
-3.32855e-06
-3.39611e-06
-3.46504e-06
-3.53537e-06
-3.60713e-06
-3.68035e-06
-3.75505e-06
-3.83127e-06
-3.90903e-06
-3.98837e-06
-4.06933e-06
-4.15192e-06
-4.2362e-06
-4.32218e-06
-4.40991e-06
-4.49942e-06
-4.59075e-06
-4.68392e-06
-4.779e-06
-4.876e-06
-4.97497e-06
-5.07595e-06
-5.17897e-06
-5.28409e-06
-5.39135e-06
-5.50078e-06
-5.61243e-06
-5.72634e-06
-5.84257e-06
-5.96116e-06
-6.08216e-06
-6.20561e-06
-6.33157e-06
-6.46008e-06
-6.5912e-06
-6.72499e-06
-6.86149e-06
-7.00076e-06
-7.14285e-06
-7.28783e-06
-7.43576e-06
)
;
    }
    inandouthalf32
    {
        type            cyclic;
        value           nonuniform List<scalar> 
110
(
9.52859e-07
9.70731e-07
9.88888e-07
1.00733e-06
1.02607e-06
1.04509e-06
1.06442e-06
1.08404e-06
1.10396e-06
1.12419e-06
1.14472e-06
1.16556e-06
1.18671e-06
1.20818e-06
1.22996e-06
1.25206e-06
1.27449e-06
1.29724e-06
1.32032e-06
1.34373e-06
1.36748e-06
1.39157e-06
1.416e-06
1.44078e-06
1.46592e-06
1.49141e-06
1.51726e-06
1.54348e-06
1.57008e-06
1.59707e-06
1.62444e-06
1.65222e-06
1.6804e-06
1.70901e-06
1.73806e-06
1.76755e-06
1.79751e-06
1.82796e-06
1.85891e-06
1.89039e-06
1.92242e-06
1.95504e-06
1.98829e-06
2.02219e-06
2.0568e-06
2.09217e-06
2.12836e-06
2.16543e-06
2.20347e-06
2.24255e-06
2.28277e-06
2.32424e-06
2.36707e-06
2.41138e-06
2.45729e-06
2.50492e-06
2.55437e-06
2.60569e-06
2.65894e-06
2.71408e-06
2.77103e-06
2.82962e-06
2.88958e-06
2.95007e-06
3.01036e-06
3.07148e-06
3.13383e-06
3.19743e-06
3.26233e-06
3.32855e-06
3.39611e-06
3.46504e-06
3.53537e-06
3.60713e-06
3.68035e-06
3.75505e-06
3.83127e-06
3.90903e-06
3.98837e-06
4.06933e-06
4.15192e-06
4.2362e-06
4.32218e-06
4.40991e-06
4.49942e-06
4.59075e-06
4.68392e-06
4.779e-06
4.876e-06
4.97497e-06
5.07595e-06
5.17897e-06
5.28409e-06
5.39135e-06
5.50078e-06
5.61243e-06
5.72634e-06
5.84257e-06
5.96116e-06
6.08216e-06
6.20561e-06
6.33157e-06
6.46008e-06
6.5912e-06
6.72499e-06
6.86149e-06
7.00076e-06
7.14285e-06
7.28783e-06
7.43576e-06
)
;
    }
    inandouthalf41
    {
        type            cyclic;
        value           nonuniform List<scalar> 
50
(
-6.65576e-06
-6.65576e-06
-6.65576e-06
-6.65576e-06
-6.65576e-06
-6.65576e-06
-6.65576e-06
-6.65576e-06
-6.65576e-06
-6.65576e-06
-6.65576e-06
-6.65576e-06
-6.65576e-06
-6.65576e-06
-6.65576e-06
-6.65576e-06
-6.65576e-06
-6.65576e-06
-6.65576e-06
-6.65576e-06
-6.65576e-06
-6.65576e-06
-6.65576e-06
-6.65576e-06
-6.65576e-06
-6.65576e-06
-6.65576e-06
-6.65576e-06
-6.65576e-06
-6.65576e-06
-6.65576e-06
-6.65576e-06
-6.65576e-06
-6.65576e-06
-6.65576e-06
-6.65576e-06
-6.65576e-06
-6.65576e-06
-6.65576e-06
-6.65576e-06
-6.65576e-06
-6.65576e-06
-6.65576e-06
-6.65576e-06
-6.65576e-06
-6.65576e-06
-6.65576e-06
-6.65576e-06
-6.65576e-06
-6.65576e-06
)
;
    }
    inandouthalf42
    {
        type            cyclic;
        value           nonuniform List<scalar> 
50
(
6.65576e-06
6.65576e-06
6.65576e-06
6.65576e-06
6.65576e-06
6.65576e-06
6.65576e-06
6.65576e-06
6.65576e-06
6.65576e-06
6.65576e-06
6.65576e-06
6.65576e-06
6.65576e-06
6.65576e-06
6.65576e-06
6.65576e-06
6.65576e-06
6.65576e-06
6.65576e-06
6.65576e-06
6.65576e-06
6.65576e-06
6.65576e-06
6.65576e-06
6.65576e-06
6.65576e-06
6.65576e-06
6.65576e-06
6.65576e-06
6.65576e-06
6.65576e-06
6.65576e-06
6.65576e-06
6.65576e-06
6.65576e-06
6.65576e-06
6.65576e-06
6.65576e-06
6.65576e-06
6.65576e-06
6.65576e-06
6.65576e-06
6.65576e-06
6.65576e-06
6.65576e-06
6.65576e-06
6.65576e-06
6.65576e-06
6.65576e-06
)
;
    }
    top
    {
        type            symmetryPlane;
        value           uniform 0;
    }
    walls
    {
        type            fixedValue;
        value           uniform 0;
    }
    frontAndBackPlanes
    {
        type            empty;
        value           nonuniform 0();
    }
}


// ************************************************************************* //
