/*--------------------------------*- C++ -*----------------------------------*\
| =========                 |                                                 |
| \\      /  F ield         | OpenFOAM: The Open Source CFD Toolbox           |
|  \\    /   O peration     | Version:  2.4.x                                 |
|   \\  /    A nd           | Web:      www.OpenFOAM.org                      |
|    \\/     M anipulation  |                                                 |
\*---------------------------------------------------------------------------*/
FoamFile
{
    version     2.0;
    format      ascii;
    class       surfaceScalarField;
    location    "8.15";
    object      phib_0;
}
// * * * * * * * * * * * * * * * * * * * * * * * * * * * * * * * * * * * * * //

dimensions      [0 3 -1 0 0 0 0];

internalField   nonuniform List<scalar> 
359
(
2.45327e-13
6.20639e-13
9.70807e-13
1.30996e-12
1.66107e-12
2.02183e-12
2.38551e-12
2.74947e-12
3.1132e-12
3.47676e-12
3.84e-12
4.20245e-12
4.56372e-12
4.92343e-12
5.28135e-12
5.63736e-12
5.99135e-12
6.3432e-12
6.69281e-12
7.04016e-12
7.38512e-12
7.72775e-12
8.06804e-12
8.40602e-12
8.74174e-12
9.07526e-12
9.40662e-12
9.73597e-12
1.00634e-11
1.0389e-11
1.07128e-11
1.10351e-11
1.13557e-11
1.16751e-11
1.19931e-11
1.23099e-11
1.26257e-11
1.29404e-11
1.32543e-11
1.35672e-11
1.38795e-11
1.4191e-11
1.45018e-11
1.48121e-11
1.51218e-11
1.54309e-11
1.57396e-11
1.60475e-11
1.6355e-11
1.6662e-11
1.69685e-11
1.72744e-11
1.75797e-11
1.78845e-11
1.81885e-11
1.8492e-11
1.87946e-11
1.90964e-11
1.93974e-11
1.96973e-11
1.99963e-11
2.02942e-11
2.05911e-11
2.08869e-11
2.11815e-11
2.14747e-11
2.17666e-11
2.20569e-11
2.23455e-11
2.26324e-11
2.29175e-11
2.32009e-11
2.34823e-11
2.37619e-11
2.40394e-11
2.4315e-11
2.45883e-11
2.48592e-11
2.51277e-11
2.53936e-11
2.56568e-11
2.59173e-11
2.6175e-11
2.64301e-11
2.66824e-11
2.69318e-11
2.71783e-11
2.74219e-11
2.76622e-11
2.78993e-11
2.81331e-11
2.83634e-11
2.85904e-11
2.8814e-11
2.90342e-11
2.92511e-11
2.94645e-11
2.96745e-11
2.98811e-11
3.00842e-11
3.02837e-11
3.04796e-11
3.0672e-11
3.08608e-11
3.1046e-11
3.12277e-11
3.14059e-11
3.15806e-11
3.1752e-11
3.19202e-11
3.20854e-11
3.22477e-11
3.24075e-11
3.25651e-11
3.27208e-11
3.28749e-11
3.30279e-11
3.31802e-11
3.33321e-11
3.3484e-11
3.36363e-11
3.3789e-11
3.39422e-11
3.40957e-11
3.42492e-11
3.44022e-11
3.4554e-11
3.47038e-11
3.48507e-11
3.49936e-11
3.51314e-11
3.52629e-11
3.53873e-11
3.55042e-11
3.56139e-11
3.57166e-11
3.58126e-11
3.59014e-11
3.5982e-11
3.6051e-11
3.61001e-11
3.61115e-11
3.60769e-11
3.60027e-11
3.58652e-11
3.55713e-11
-4.51966e-11
-4.64555e-09
-5.26416e-09
-4.88818e-09
-4.44775e-09
-3.98895e-09
-3.5261e-09
-3.06746e-09
-2.62161e-09
-2.19819e-09
-1.80563e-09
-1.45104e-09
-1.13933e-09
-8.73029e-10
-6.52287e-10
-4.75084e-10
-3.37445e-10
-2.33936e-10
-1.58584e-10
-1.0578e-10
-7.04105e-11
-4.76329e-11
-3.31954e-11
-2.39295e-11
-1.77979e-11
-1.35932e-11
-1.06123e-11
-8.43766e-12
-6.81258e-12
-5.57354e-12
-4.61278e-12
-3.85711e-12
-3.25549e-12
-2.77147e-12
-2.37851e-12
-2.0569e-12
-1.79178e-12
-1.57182e-12
-1.38821e-12
-1.23409e-12
-1.10402e-12
-9.93659e-13
-8.99539e-13
-8.1884e-13
-7.49272e-13
-6.88956e-13
-6.36345e-13
-5.90155e-13
-5.49315e-13
-5.12927e-13
-4.80234e-13
-4.50592e-13
-4.2346e-13
-3.98382e-13
-3.74988e-13
-3.52538e-13
-3.30838e-13
-3.09718e-13
-2.89049e-13
-2.68749e-13
-2.48786e-13
-2.29168e-13
-2.09945e-13
-1.91194e-13
-1.73021e-13
-1.55552e-13
-1.38932e-13
-1.23286e-13
-1.0869e-13
-9.52105e-14
-8.29067e-14
-7.17805e-14
-6.17881e-14
-5.28783e-14
-4.5005e-14
-3.81094e-14
-3.20952e-14
-2.68774e-14
-2.23938e-14
-1.85617e-14
-1.53001e-14
-1.25428e-14
-1.02253e-14
-8.29196e-15
-6.68315e-15
-5.36623e-15
-4.32263e-15
-3.50744e-15
-2.71407e-15
-1.92161e-15
-1.37187e-15
-1.01283e-15
-6.97686e-16
-4.97123e-16
-2.85264e-16
-1.77302e-16
-4.89644e-17
2.33438e-17
1.14002e-17
1.11007e-17
1.07543e-17
1.04461e-17
1.0089e-17
9.76575e-18
9.39696e-18
9.0568e-18
8.67346e-18
8.31445e-18
7.91528e-18
7.54218e-18
7.13768e-18
6.7569e-18
6.34886e-18
5.96456e-18
5.56677e-18
5.19793e-18
4.82802e-18
4.50627e-18
4.21964e-18
3.98045e-18
3.78119e-18
3.583e-18
3.40209e-18
3.23479e-18
3.0716e-18
2.91809e-18
2.78931e-18
2.66686e-18
2.5465e-18
2.42214e-18
2.30559e-18
2.18347e-18
2.0616e-18
1.93698e-18
1.83706e-18
1.73667e-18
1.63866e-18
1.53517e-18
1.4366e-18
1.33201e-18
1.21809e-18
1.10691e-18
1.00371e-18
8.96153e-19
7.87871e-19
6.75682e-19
5.68299e-19
4.58905e-19
3.54114e-19
2.52424e-19
1.66843e-19
1.29441e-19
9.91566e-20
5.93957e-20
3.47482e-20
1.15185e-20
-1.16053e-20
-3.18663e-20
-5.34367e-20
-7.20052e-20
-9.04183e-20
-1.05639e-19
-1.23948e-19
-1.37667e-19
-1.50696e-19
-1.61516e-19
-1.78195e-19
-1.94093e-19
-2.09832e-19
-2.24038e-19
-2.39887e-19
-2.55141e-19
-2.71504e-19
-2.88139e-19
-3.14723e-19
-3.44459e-19
-3.7687e-19
-4.1313e-19
-4.70564e-19
-5.29826e-19
-6.16154e-19
-6.93535e-19
-1.16276e-18
-1.61918e-18
-2.10184e-18
-2.57501e-18
-3.08151e-18
-3.57244e-18
-4.06791e-18
-4.5415e-18
-5.08307e-18
-5.59241e-18
-6.10543e-18
-6.57129e-18
-7.10771e-18
-7.57026e-18
-8.06685e-18
-8.48138e-18
-9.44178e-18
-1.02537e-17
-1.10952e-17
-1.16813e-17
-1.25649e-17
-1.30326e-17
-1.35638e-17
-1.378e-17
-1.49907e-17
-1.54951e-17
-1.60409e-17
-1.57991e-17
-1.5711e-17
-1.56685e-17
-1.71151e-17
)
;

boundaryField
{
    inandouthalf11
    {
        type            cyclic;
        value           nonuniform List<scalar> 
100
(
-2.60029e-10
-2.58657e-10
-2.58469e-10
-2.58676e-10
-2.58791e-10
-2.58843e-10
-2.589e-10
-2.58968e-10
-2.59037e-10
-2.59107e-10
-2.59177e-10
-2.59247e-10
-2.59318e-10
-2.59388e-10
-2.59459e-10
-2.59531e-10
-2.59602e-10
-2.59675e-10
-2.59747e-10
-2.5982e-10
-2.59892e-10
-2.59966e-10
-2.6004e-10
-2.60114e-10
-2.60188e-10
-2.60263e-10
-2.60338e-10
-2.60414e-10
-2.6049e-10
-2.60566e-10
-2.60643e-10
-2.60721e-10
-2.60798e-10
-2.60877e-10
-2.60956e-10
-2.61036e-10
-2.61116e-10
-2.61197e-10
-2.61279e-10
-2.6136e-10
-2.61443e-10
-2.61526e-10
-2.6161e-10
-2.61695e-10
-2.61781e-10
-2.61867e-10
-2.61954e-10
-2.62041e-10
-2.6213e-10
-2.6222e-10
-2.6231e-10
-2.62401e-10
-2.62493e-10
-2.62586e-10
-2.62679e-10
-2.62775e-10
-2.6287e-10
-2.62967e-10
-2.63064e-10
-2.63162e-10
-2.63262e-10
-2.63362e-10
-2.63464e-10
-2.63567e-10
-2.63671e-10
-2.63776e-10
-2.63882e-10
-2.6399e-10
-2.64098e-10
-2.64207e-10
-2.64319e-10
-2.64432e-10
-2.64545e-10
-2.6466e-10
-2.64777e-10
-2.64895e-10
-2.65014e-10
-2.65135e-10
-2.65258e-10
-2.65382e-10
-2.65508e-10
-2.65636e-10
-2.65765e-10
-2.65896e-10
-2.6603e-10
-2.66165e-10
-2.66302e-10
-2.66441e-10
-2.66583e-10
-2.66726e-10
-2.66872e-10
-2.6702e-10
-2.67171e-10
-2.67324e-10
-2.67481e-10
-2.67639e-10
-2.67801e-10
-2.67966e-10
-2.68134e-10
-2.68305e-10
)
;
    }
    inandouthalf12
    {
        type            cyclic;
        value           nonuniform List<scalar> 
100
(
2.60029e-10
2.58657e-10
2.58469e-10
2.58676e-10
2.58791e-10
2.58843e-10
2.589e-10
2.58968e-10
2.59037e-10
2.59107e-10
2.59177e-10
2.59247e-10
2.59318e-10
2.59388e-10
2.59459e-10
2.59531e-10
2.59602e-10
2.59675e-10
2.59747e-10
2.5982e-10
2.59892e-10
2.59966e-10
2.6004e-10
2.60114e-10
2.60188e-10
2.60263e-10
2.60338e-10
2.60414e-10
2.6049e-10
2.60566e-10
2.60643e-10
2.60721e-10
2.60798e-10
2.60877e-10
2.60956e-10
2.61036e-10
2.61116e-10
2.61197e-10
2.61279e-10
2.6136e-10
2.61443e-10
2.61526e-10
2.6161e-10
2.61695e-10
2.61781e-10
2.61867e-10
2.61954e-10
2.62041e-10
2.6213e-10
2.6222e-10
2.6231e-10
2.62401e-10
2.62493e-10
2.62586e-10
2.62679e-10
2.62775e-10
2.6287e-10
2.62967e-10
2.63064e-10
2.63162e-10
2.63262e-10
2.63362e-10
2.63464e-10
2.63567e-10
2.63671e-10
2.63776e-10
2.63882e-10
2.6399e-10
2.64098e-10
2.64207e-10
2.64319e-10
2.64432e-10
2.64545e-10
2.6466e-10
2.64777e-10
2.64895e-10
2.65014e-10
2.65135e-10
2.65258e-10
2.65382e-10
2.65508e-10
2.65636e-10
2.65765e-10
2.65896e-10
2.6603e-10
2.66165e-10
2.66302e-10
2.66441e-10
2.66583e-10
2.66726e-10
2.66872e-10
2.6702e-10
2.67171e-10
2.67324e-10
2.67481e-10
2.67639e-10
2.67801e-10
2.67966e-10
2.68134e-10
2.68305e-10
)
;
    }
    inandouthalf21
    {
        type            cyclic;
        value           nonuniform List<scalar> 
100
(
-2.68479e-10
-2.68657e-10
-2.68839e-10
-2.69024e-10
-2.69213e-10
-2.69407e-10
-2.69605e-10
-2.69807e-10
-2.70014e-10
-2.70227e-10
-2.70444e-10
-2.70667e-10
-2.70895e-10
-2.7113e-10
-2.71371e-10
-2.71618e-10
-2.71872e-10
-2.72134e-10
-2.72403e-10
-2.7268e-10
-2.72965e-10
-2.73259e-10
-2.73563e-10
-2.73877e-10
-2.74201e-10
-2.74536e-10
-2.74884e-10
-2.75245e-10
-2.7562e-10
-2.76011e-10
-2.7642e-10
-2.76845e-10
-2.7729e-10
-2.77759e-10
-2.78256e-10
-2.78781e-10
-2.79332e-10
-2.79915e-10
-2.80562e-10
-2.81303e-10
-2.82107e-10
-2.82884e-10
-2.83821e-10
-2.85032e-10
-2.86551e-10
-2.89546e-10
-3.44973e-10
-2.6327e-08
-1.4197e-07
-2.65616e-07
-3.65496e-07
-4.49075e-07
-5.20616e-07
-5.82704e-07
-6.37131e-07
-6.85192e-07
-7.27855e-07
-7.65847e-07
-7.99718e-07
-8.29872e-07
-8.56594e-07
-8.80071e-07
-9.00416e-07
-9.17707e-07
-9.32036e-07
-9.43567e-07
-9.52573e-07
-9.5942e-07
-9.64517e-07
-9.68255e-07
-9.70961e-07
-9.72891e-07
-9.74237e-07
-9.75137e-07
-9.75691e-07
-9.75972e-07
-9.76033e-07
-9.75913e-07
-9.75642e-07
-9.75242e-07
-9.74731e-07
-9.74124e-07
-9.73431e-07
-9.72661e-07
-9.71824e-07
-9.70924e-07
-9.69967e-07
-9.68959e-07
-9.67903e-07
-9.66804e-07
-9.65664e-07
-9.64488e-07
-9.63276e-07
-9.62033e-07
-9.60761e-07
-9.59461e-07
-9.58136e-07
-9.56787e-07
-9.55417e-07
-9.54027e-07
)
;
    }
    inandouthalf22
    {
        type            cyclic;
        value           nonuniform List<scalar> 
100
(
2.68479e-10
2.68657e-10
2.68839e-10
2.69024e-10
2.69213e-10
2.69407e-10
2.69605e-10
2.69807e-10
2.70014e-10
2.70227e-10
2.70444e-10
2.70667e-10
2.70895e-10
2.7113e-10
2.71371e-10
2.71618e-10
2.71872e-10
2.72134e-10
2.72403e-10
2.7268e-10
2.72965e-10
2.73259e-10
2.73563e-10
2.73877e-10
2.74201e-10
2.74536e-10
2.74884e-10
2.75245e-10
2.7562e-10
2.76011e-10
2.7642e-10
2.76845e-10
2.7729e-10
2.77759e-10
2.78256e-10
2.78781e-10
2.79332e-10
2.79915e-10
2.80562e-10
2.81303e-10
2.82107e-10
2.82884e-10
2.83821e-10
2.85032e-10
2.86551e-10
2.89546e-10
3.44973e-10
2.6327e-08
1.4197e-07
2.65616e-07
3.65496e-07
4.49075e-07
5.20616e-07
5.82704e-07
6.37131e-07
6.85192e-07
7.27855e-07
7.65847e-07
7.99718e-07
8.29872e-07
8.56594e-07
8.80071e-07
9.00416e-07
9.17707e-07
9.32036e-07
9.43567e-07
9.52573e-07
9.5942e-07
9.64517e-07
9.68255e-07
9.70961e-07
9.72891e-07
9.74237e-07
9.75137e-07
9.75691e-07
9.75972e-07
9.76033e-07
9.75913e-07
9.75642e-07
9.75242e-07
9.74731e-07
9.74124e-07
9.73431e-07
9.72661e-07
9.71824e-07
9.70924e-07
9.69967e-07
9.68959e-07
9.67903e-07
9.66804e-07
9.65664e-07
9.64488e-07
9.63276e-07
9.62033e-07
9.60761e-07
9.59461e-07
9.58136e-07
9.56787e-07
9.55417e-07
9.54027e-07
)
;
    }
    inandouthalf31
    {
        type            cyclic;
        value           nonuniform List<scalar> 
110
(
-9.52621e-07
-9.70488e-07
-9.88639e-07
-1.00708e-06
-1.02581e-06
-1.04483e-06
-1.06415e-06
-1.08376e-06
-1.10368e-06
-1.1239e-06
-1.14442e-06
-1.16526e-06
-1.1864e-06
-1.20786e-06
-1.22964e-06
-1.25174e-06
-1.27415e-06
-1.2969e-06
-1.31997e-06
-1.34338e-06
-1.36712e-06
-1.3912e-06
-1.41562e-06
-1.44039e-06
-1.46552e-06
-1.491e-06
-1.51684e-06
-1.54306e-06
-1.56965e-06
-1.59662e-06
-1.62399e-06
-1.65175e-06
-1.67993e-06
-1.70853e-06
-1.73756e-06
-1.76705e-06
-1.797e-06
-1.82743e-06
-1.85837e-06
-1.88984e-06
-1.92186e-06
-1.95447e-06
-1.98771e-06
-2.0216e-06
-2.0562e-06
-2.09156e-06
-2.12773e-06
-2.16479e-06
-2.20281e-06
-2.24188e-06
-2.28209e-06
-2.32354e-06
-2.36636e-06
-2.41066e-06
-2.45656e-06
-2.50418e-06
-2.55361e-06
-2.60492e-06
-2.65815e-06
-2.71327e-06
-2.77021e-06
-2.82879e-06
-2.88873e-06
-2.9492e-06
-3.00948e-06
-3.07058e-06
-3.1329e-06
-3.19649e-06
-3.26137e-06
-3.32757e-06
-3.39511e-06
-3.46402e-06
-3.53433e-06
-3.60607e-06
-3.67927e-06
-3.75395e-06
-3.83014e-06
-3.90788e-06
-3.9872e-06
-4.06813e-06
-4.1507e-06
-4.23495e-06
-4.32091e-06
-4.40861e-06
-4.4981e-06
-4.5894e-06
-4.68255e-06
-4.77759e-06
-4.87456e-06
-4.9735e-06
-5.07445e-06
-5.17745e-06
-5.28254e-06
-5.38976e-06
-5.49916e-06
-5.61078e-06
-5.72466e-06
-5.84086e-06
-5.95941e-06
-6.08037e-06
-6.20378e-06
-6.32971e-06
-6.45818e-06
-6.58927e-06
-6.72301e-06
-6.85947e-06
-6.9987e-06
-7.14075e-06
-7.28569e-06
-7.43357e-06
)
;
    }
    inandouthalf32
    {
        type            cyclic;
        value           nonuniform List<scalar> 
110
(
9.52621e-07
9.70488e-07
9.88639e-07
1.00708e-06
1.02581e-06
1.04483e-06
1.06415e-06
1.08376e-06
1.10368e-06
1.1239e-06
1.14442e-06
1.16526e-06
1.1864e-06
1.20786e-06
1.22964e-06
1.25174e-06
1.27415e-06
1.2969e-06
1.31997e-06
1.34338e-06
1.36712e-06
1.3912e-06
1.41562e-06
1.44039e-06
1.46552e-06
1.491e-06
1.51684e-06
1.54306e-06
1.56965e-06
1.59662e-06
1.62399e-06
1.65175e-06
1.67993e-06
1.70853e-06
1.73756e-06
1.76705e-06
1.797e-06
1.82743e-06
1.85837e-06
1.88984e-06
1.92186e-06
1.95447e-06
1.98771e-06
2.0216e-06
2.0562e-06
2.09156e-06
2.12773e-06
2.16479e-06
2.20281e-06
2.24188e-06
2.28209e-06
2.32354e-06
2.36636e-06
2.41066e-06
2.45656e-06
2.50418e-06
2.55361e-06
2.60492e-06
2.65815e-06
2.71327e-06
2.77021e-06
2.82879e-06
2.88873e-06
2.9492e-06
3.00948e-06
3.07058e-06
3.1329e-06
3.19649e-06
3.26137e-06
3.32757e-06
3.39511e-06
3.46402e-06
3.53433e-06
3.60607e-06
3.67927e-06
3.75395e-06
3.83014e-06
3.90788e-06
3.9872e-06
4.06813e-06
4.1507e-06
4.23495e-06
4.32091e-06
4.40861e-06
4.4981e-06
4.5894e-06
4.68255e-06
4.77759e-06
4.87456e-06
4.9735e-06
5.07445e-06
5.17745e-06
5.28254e-06
5.38976e-06
5.49916e-06
5.61078e-06
5.72466e-06
5.84086e-06
5.95941e-06
6.08037e-06
6.20378e-06
6.32971e-06
6.45818e-06
6.58927e-06
6.72301e-06
6.85947e-06
6.9987e-06
7.14075e-06
7.28569e-06
7.43357e-06
)
;
    }
    inandouthalf41
    {
        type            cyclic;
        value           nonuniform List<scalar> 
50
(
-6.6538e-06
-6.6538e-06
-6.6538e-06
-6.6538e-06
-6.6538e-06
-6.6538e-06
-6.6538e-06
-6.6538e-06
-6.6538e-06
-6.6538e-06
-6.6538e-06
-6.6538e-06
-6.6538e-06
-6.6538e-06
-6.6538e-06
-6.6538e-06
-6.6538e-06
-6.6538e-06
-6.6538e-06
-6.6538e-06
-6.6538e-06
-6.6538e-06
-6.6538e-06
-6.6538e-06
-6.6538e-06
-6.6538e-06
-6.6538e-06
-6.6538e-06
-6.6538e-06
-6.6538e-06
-6.6538e-06
-6.6538e-06
-6.6538e-06
-6.6538e-06
-6.6538e-06
-6.6538e-06
-6.6538e-06
-6.6538e-06
-6.6538e-06
-6.6538e-06
-6.6538e-06
-6.6538e-06
-6.6538e-06
-6.6538e-06
-6.6538e-06
-6.6538e-06
-6.6538e-06
-6.6538e-06
-6.6538e-06
-6.6538e-06
)
;
    }
    inandouthalf42
    {
        type            cyclic;
        value           nonuniform List<scalar> 
50
(
6.6538e-06
6.6538e-06
6.6538e-06
6.6538e-06
6.6538e-06
6.6538e-06
6.6538e-06
6.6538e-06
6.6538e-06
6.6538e-06
6.6538e-06
6.6538e-06
6.6538e-06
6.6538e-06
6.6538e-06
6.6538e-06
6.6538e-06
6.6538e-06
6.6538e-06
6.6538e-06
6.6538e-06
6.6538e-06
6.6538e-06
6.6538e-06
6.6538e-06
6.6538e-06
6.6538e-06
6.6538e-06
6.6538e-06
6.6538e-06
6.6538e-06
6.6538e-06
6.6538e-06
6.6538e-06
6.6538e-06
6.6538e-06
6.6538e-06
6.6538e-06
6.6538e-06
6.6538e-06
6.6538e-06
6.6538e-06
6.6538e-06
6.6538e-06
6.6538e-06
6.6538e-06
6.6538e-06
6.6538e-06
6.6538e-06
6.6538e-06
)
;
    }
    top
    {
        type            symmetryPlane;
        value           uniform 0;
    }
    walls
    {
        type            fixedValue;
        value           uniform 0;
    }
    frontAndBackPlanes
    {
        type            empty;
        value           nonuniform 0();
    }
}


// ************************************************************************* //
