/*--------------------------------*- C++ -*----------------------------------*\
| =========                 |                                                 |
| \\      /  F ield         | OpenFOAM: The Open Source CFD Toolbox           |
|  \\    /   O peration     | Version:  2.4.x                                 |
|   \\  /    A nd           | Web:      www.OpenFOAM.org                      |
|    \\/     M anipulation  |                                                 |
\*---------------------------------------------------------------------------*/
FoamFile
{
    version     2.0;
    format      ascii;
    class       volScalarField;
    location    "5.8";
    object      alpha;
}
// * * * * * * * * * * * * * * * * * * * * * * * * * * * * * * * * * * * * * //

dimensions      [0 0 0 0 0 0 0];

internalField   nonuniform List<scalar> 
360
(
0.610642
0.61137
0.611493
0.611422
0.611373
0.611351
0.611331
0.611308
0.611285
0.611261
0.611236
0.611211
0.611186
0.611161
0.611135
0.61111
0.611084
0.611058
0.611031
0.611005
0.610978
0.610951
0.610924
0.610896
0.610868
0.61084
0.610812
0.610784
0.610755
0.610726
0.610697
0.610667
0.610637
0.610606
0.610576
0.610544
0.610513
0.610481
0.610449
0.610418
0.610385
0.610354
0.610322
0.610291
0.610259
0.610227
0.610195
0.610162
0.610126
0.610088
0.610047
0.610001
0.609951
0.609899
0.609847
0.6098
0.609762
0.60973
0.609703
0.609678
0.609652
0.609627
0.609599
0.609572
0.609543
0.609515
0.609485
0.609453
0.609421
0.609388
0.609354
0.609317
0.609281
0.609242
0.609203
0.609163
0.609122
0.609081
0.609038
0.608994
0.60895
0.608904
0.608856
0.608808
0.608758
0.608708
0.608656
0.608602
0.608548
0.608493
0.608437
0.608379
0.60832
0.608259
0.608197
0.608134
0.608069
0.608003
0.607935
0.607866
0.607795
0.607722
0.607647
0.607571
0.607493
0.607412
0.60733
0.607246
0.607159
0.60707
0.606979
0.606885
0.606789
0.60669
0.606588
0.606483
0.606375
0.606264
0.606149
0.606031
0.605909
0.605783
0.605653
0.605518
0.605379
0.605236
0.605087
0.604933
0.604773
0.604606
0.604433
0.604253
0.604064
0.603866
0.603655
0.603432
0.603198
0.60295
0.602675
0.602359
0.602018
0.601693
0.601305
0.600802
0.600179
0.599058
0.595424
0.588166
0.34214
0.230384
0.180051
0.143359
0.114052
0.0903731
0.0714711
0.0565949
0.0449989
0.0359951
0.0289987
0.0235396
0.0192537
0.0158642
0.0131627
0.0109926
0.00923589
0.00780338
0.00662708
0.00565483
0.00484632
0.00417014
0.00360161
0.00312124
0.00271346
0.00236582
0.00206825
0.00181258
0.00159213
0.00140142
0.00123591
0.00109185
0.000966122
0.000856094
0.000759571
0.000674696
0.000599897
0.000533834
0.00047536
0.000423481
0.000377331
0.000336149
0.000299272
0.000266131
0.000236253
0.000209249
0.000184813
0.000162738
0.000142903
0.000125207
0.000109499
9.5541e-05
8.30613e-05
7.17925e-05
6.15866e-05
5.2388e-05
4.42492e-05
3.72136e-05
3.11618e-05
2.60048e-05
2.16842e-05
1.80621e-05
1.50331e-05
1.25148e-05
1.0409e-05
8.66967e-06
7.22464e-06
6.00643e-06
5.00242e-06
4.16557e-06
3.45773e-06
2.86875e-06
2.37649e-06
1.96766e-06
1.62255e-06
1.33362e-06
1.09684e-06
8.96499e-07
7.29576e-07
5.91576e-07
4.76637e-07
3.81251e-07
3.03334e-07
2.38187e-07
1.89288e-07
1.43445e-07
1.11905e-07
7.59816e-08
1.11791e-07
5.74066e-08
2.8881e-08
4.75165e-09
0
4.02402e-25
2.85213e-25
2.42571e-25
1.39578e-25
6.5609e-26
2.68523e-26
1.37072e-26
8.15871e-27
5.51499e-27
4.16436e-27
3.35094e-27
2.62825e-27
1.78962e-27
8.53665e-28
3.56593e-28
1.7874e-28
1.0127e-28
6.3054e-29
4.23723e-29
2.74479e-29
1.37541e-29
6.20153e-30
3.17657e-30
1.71526e-30
9.5523e-31
5.00008e-31
2.4279e-31
1.21841e-31
6.06156e-32
2.96387e-32
1.42245e-32
6.69617e-33
3.0898e-33
1.39647e-33
6.17738e-34
2.67234e-34
1.1296e-34
4.66131e-35
1.87594e-35
7.3554e-36
2.80668e-36
1.04103e-36
3.74854e-37
1.30857e-37
4.42205e-38
1.44426e-38
4.55095e-39
1.38092e-39
4.02659e-40
1.12567e-40
3.00947e-41
7.67263e-42
1.85953e-42
4.26895e-43
9.24583e-44
1.88049e-44
3.57254e-45
6.30019e-46
1.02373e-46
1.51917e-47
2.03639e-48
2.43208e-49
2.54223e-50
2.27055e-51
1.67445e-52
9.67305e-54
3.9927e-55
9.60506e-57
5.17815e-59
1.16353e-62
1.33332e-64
7.58261e-67
2.19925e-77
3.15393e-88
3.15661e-99
2.30992e-110
1.3886e-121
6.61648e-133
2.68013e-144
8.5243e-154
3.0905e-164
2.92316e-172
9.42502e-183
1.00554e-190
3.80654e-201
3.45923e-209
1.62552e-219
1.19103e-227
1.04245e-237
4.14905e-246
6.822e-256
1.47063e-264
3.38414e-274
5.2999e-283
1.60216e-292
1.93894e-301
7.04108e-311
4.36556e-319
2.8055e-319
6.80328e-321
7.09478e-321
6.08689e-321
8.5424e-321
0
0
0
0
0
0
0
0
0
0
0
0
0
0
0
0
)
;

boundaryField
{
    inandouthalf11
    {
        type            cyclic;
    }
    inandouthalf12
    {
        type            cyclic;
    }
    inandouthalf21
    {
        type            cyclic;
    }
    inandouthalf22
    {
        type            cyclic;
    }
    inandouthalf31
    {
        type            cyclic;
    }
    inandouthalf32
    {
        type            cyclic;
    }
    inandouthalf41
    {
        type            cyclic;
    }
    inandouthalf42
    {
        type            cyclic;
    }
    top
    {
        type            symmetryPlane;
    }
    walls
    {
        type            zeroGradient;
    }
    frontAndBackPlanes
    {
        type            empty;
    }
}


// ************************************************************************* //
