/*--------------------------------*- C++ -*----------------------------------*\
| =========                 |                                                 |
| \\      /  F ield         | OpenFOAM: The Open Source CFD Toolbox           |
|  \\    /   O peration     | Version:  2.4.x                                 |
|   \\  /    A nd           | Web:      www.OpenFOAM.org                      |
|    \\/     M anipulation  |                                                 |
\*---------------------------------------------------------------------------*/
FoamFile
{
    version     2.0;
    format      ascii;
    class       volVectorField;
    location    "5.8";
    object      ddt0(Ua);
}
// * * * * * * * * * * * * * * * * * * * * * * * * * * * * * * * * * * * * * //

dimensions      [0 1 -2 0 0 0 0];

internalField   nonuniform List<vector> 
360
(
(6.45024e-34 -6.54806e-33 0)
(1.39649e-08 6.58348e-08 0)
(3.15017e-08 1.33613e-07 0)
(4.70775e-08 1.89471e-07 0)
(6.20421e-08 2.43278e-07 0)
(7.74333e-08 2.99037e-07 0)
(9.33311e-08 3.56681e-07 0)
(1.09529e-07 4.15215e-07 0)
(1.25863e-07 4.7387e-07 0)
(1.42278e-07 5.32392e-07 0)
(1.58806e-07 5.9096e-07 0)
(1.755e-07 6.49815e-07 0)
(1.9239e-07 7.09078e-07 0)
(2.09479e-07 7.68741e-07 0)
(2.26758e-07 8.28737e-07 0)
(2.44222e-07 8.89029e-07 0)
(2.61871e-07 9.49614e-07 0)
(2.79704e-07 1.01047e-06 0)
(2.97714e-07 1.07156e-06 0)
(3.15889e-07 1.13281e-06 0)
(3.34207e-07 1.19412e-06 0)
(3.52648e-07 1.25538e-06 0)
(3.71202e-07 1.31655e-06 0)
(3.89872e-07 1.37762e-06 0)
(4.08682e-07 1.43868e-06 0)
(4.27686e-07 1.49994e-06 0)
(4.46979e-07 1.56176e-06 0)
(4.66698e-07 1.6247e-06 0)
(4.87015e-07 1.68942e-06 0)
(5.08112e-07 1.75662e-06 0)
(5.30151e-07 1.82691e-06 0)
(5.53237e-07 1.90067e-06 0)
(5.77341e-07 1.97774e-06 0)
(6.02247e-07 2.05725e-06 0)
(6.27472e-07 2.13732e-06 0)
(6.52227e-07 2.21489e-06 0)
(6.75446e-07 2.28591e-06 0)
(6.95911e-07 2.3458e-06 0)
(7.12474e-07 2.39036e-06 0)
(7.24385e-07 2.41689e-06 0)
(7.31694e-07 2.42574e-06 0)
(7.35559e-07 2.42136e-06 0)
(7.38408e-07 2.41273e-06 0)
(7.43929e-07 2.41318e-06 0)
(7.56971e-07 2.43981e-06 0)
(7.83552e-07 2.51331e-06 0)
(8.31126e-07 2.65886e-06 0)
(9.0914e-07 2.90797e-06 0)
(1.02959e-06 3.30069e-06 0)
(1.20632e-06 3.88435e-06 0)
(1.44946e-06 4.69584e-06 0)
(1.74917e-06 5.7087e-06 0)
(2.04455e-06 6.72734e-06 0)
(2.19782e-06 7.28785e-06 0)
(2.04278e-06 6.8077e-06 0)
(1.54624e-06 5.15006e-06 0)
(9.1119e-07 3.0115e-06 0)
(4.0954e-07 1.33453e-06 0)
(1.41561e-07 4.52853e-07 0)
(3.91116e-08 1.22571e-07 0)
(9.22053e-09 2.82381e-08 0)
(2.02056e-09 5.98996e-09 0)
(4.50371e-10 1.23689e-09 0)
(1.10147e-10 2.27192e-10 0)
(3.10299e-11 -3.17063e-12 0)
(1.03248e-11 -6.23794e-11 0)
(4.18799e-12 -7.96313e-11 0)
(2.25493e-12 -8.49656e-11 0)
(1.78309e-12 -8.62111e-11 0)
(1.9759e-12 -8.56117e-11 0)
(2.60725e-12 -8.37978e-11 0)
(3.64365e-12 -8.08643e-11 0)
(5.11667e-12 -7.67356e-11 0)
(7.06456e-12 -7.13276e-11 0)
(9.49633e-12 -6.46455e-11 0)
(1.23698e-11 -5.68397e-11 0)
(1.55878e-11 -4.82084e-11 0)
(1.90138e-11 -3.91457e-11 0)
(2.2501e-11 -3.00565e-11 0)
(2.59184e-11 -2.12853e-11 0)
(2.91696e-11 -1.30731e-11 0)
(3.21994e-11 -5.54338e-12 0)
(3.49906e-11 1.28325e-12 0)
(3.75545e-11 7.45791e-12 0)
(3.99203e-11 1.3074e-11 0)
(4.21264e-11 1.82432e-11 0)
(4.42131e-11 2.30785e-11 0)
(4.62193e-11 2.76834e-11 0)
(4.81791e-11 3.2147e-11 0)
(5.01222e-11 3.65435e-11 0)
(5.20728e-11 4.09322e-11 0)
(5.40509e-11 4.53599e-11 0)
(5.60726e-11 4.98626e-11 0)
(5.8151e-11 5.44681e-11 0)
(6.02966e-11 5.91974e-11 0)
(6.25176e-11 6.40652e-11 0)
(6.48202e-11 6.90815e-11 0)
(6.72089e-11 7.42518e-11 0)
(6.96867e-11 7.95776e-11 0)
(7.22549e-11 8.50575e-11 0)
(7.49141e-11 9.06872e-11 0)
(7.76639e-11 9.64607e-11 0)
(8.0503e-11 1.02371e-10 0)
(8.34299e-11 1.08408e-10 0)
(8.64424e-11 1.14565e-10 0)
(8.95381e-11 1.20829e-10 0)
(9.27142e-11 1.2719e-10 0)
(9.59676e-11 1.33638e-10 0)
(9.92954e-11 1.4016e-10 0)
(1.02695e-10 1.46746e-10 0)
(1.06162e-10 1.53386e-10 0)
(1.09696e-10 1.60069e-10 0)
(1.13295e-10 1.66788e-10 0)
(1.16958e-10 1.73535e-10 0)
(1.20686e-10 1.80305e-10 0)
(1.24481e-10 1.87097e-10 0)
(1.28346e-10 1.9391e-10 0)
(1.32289e-10 2.00747e-10 0)
(1.36316e-10 2.07615e-10 0)
(1.4044e-10 2.14521e-10 0)
(1.44672e-10 2.21476e-10 0)
(1.49026e-10 2.28489e-10 0)
(1.53516e-10 2.35568e-10 0)
(1.58153e-10 2.42716e-10 0)
(1.62947e-10 2.49927e-10 0)
(1.67898e-10 2.57183e-10 0)
(1.73e-10 2.64454e-10 0)
(1.78234e-10 2.71692e-10 0)
(1.83568e-10 2.78835e-10 0)
(1.88955e-10 2.85803e-10 0)
(1.94331e-10 2.92501e-10 0)
(1.99627e-10 2.98833e-10 0)
(2.04778e-10 3.04722e-10 0)
(2.09746e-10 3.10131e-10 0)
(2.14527e-10 3.15068e-10 0)
(2.19138e-10 3.19564e-10 0)
(2.23614e-10 3.23658e-10 0)
(2.28018e-10 3.274e-10 0)
(2.32424e-10 3.30863e-10 0)
(2.36853e-10 3.34087e-10 0)
(2.41055e-10 3.3692e-10 0)
(2.44488e-10 3.38978e-10 0)
(2.4672e-10 3.40115e-10 0)
(2.47848e-10 3.40578e-10 0)
(2.4827e-10 3.40683e-10 0)
(2.48485e-10 3.40667e-10 0)
(2.48721e-10 3.4061e-10 0)
(7.24923e-10 4.24721e-10 0)
(0.0466502 0.000109547 0)
(0.048138 -0.00017809 0)
(0.0477119 -0.00024921 0)
(0.0490445 -0.000337079 0)
(0.0514166 -0.000424315 0)
(0.0542943 -0.000505549 0)
(0.0573671 -0.00057789 0)
(0.0604605 -0.000641119 0)
(0.0634822 -0.000695817 0)
(0.0663886 -0.000742935 0)
(0.0691631 -0.000783623 0)
(0.0718024 -0.000819124 0)
(0.0743093 -0.000850731 0)
(0.0766886 -0.000879805 0)
(0.0789449 -0.000907803 0)
(0.0810823 -0.0009363 0)
(0.0831037 -0.000966978 0)
(0.0850109 -0.00100155 0)
(0.0868051 -0.00104162 0)
(0.0884865 -0.00108869 0)
(0.0900547 -0.00114389 0)
(0.0915089 -0.00120796 0)
(0.092848 -0.00128129 0)
(0.0940704 -0.00136384 0)
(0.0951746 -0.00145525 0)
(0.0961588 -0.00155487 0)
(0.0970214 -0.00166184 0)
(0.0977606 -0.00177519 0)
(0.0983749 -0.00189383 0)
(0.0988629 -0.00201668 0)
(0.0992236 -0.00214263 0)
(0.0994559 -0.00227063 0)
(0.0995596 -0.00239967 0)
(0.0995344 -0.00252879 0)
(0.0993808 -0.00265709 0)
(0.0990997 -0.00278372 0)
(0.0986927 -0.00290778 0)
(0.0981619 -0.00302821 0)
(0.0975104 -0.00314342 0)
(0.096742 -0.00325093 0)
(0.0958616 -0.00334681 0)
(0.0948758 -0.00342541 0)
(0.0937929 -0.00347947 0)
(0.0926231 -0.00350098 0)
(0.0913793 -0.00348243 0)
(0.0900765 -0.00341805 0)
(0.0887317 -0.00330542 0)
(0.0873628 -0.00314767 0)
(0.0859871 -0.00295432 0)
(0.0846202 -0.00273829 0)
(0.0832755 -0.00251006 0)
(0.0819656 -0.00227326 0)
(0.0807041 -0.00202705 0)
(0.079492 -0.00177039 0)
(0.0783324 -0.00150457 0)
(0.07724 -0.00123512 0)
(0.0762252 -0.000973022 0)
(0.0752921 -0.000729454 0)
(0.0744422 -0.000508372 0)
(0.0736742 -0.000311695 0)
(0.0729821 -0.000141495 0)
(0.0723594 3.99388e-06 0)
(0.0717995 0.00012772 0)
(0.071295 0.000232087 0)
(0.0708382 0.000319606 0)
(0.0704198 0.000391474 0)
(0.070033 0.000450243 0)
(0.0696741 0.000498988 0)
(0.0693337 0.000537562 0)
(0.0690062 0.000567321 0)
(0.0686916 0.000591334 0)
(0.0683843 0.000609979 0)
(0.0680779 0.000623174 0)
(0.0677694 0.000631993 0)
(0.06746 0.000638577 0)
(0.0671461 0.000643367 0)
(0.066821 0.000645238 0)
(0.0664885 0.0006465 0)
(0.0661498 0.000648558 0)
(0.0658015 0.000650469 0)
(0.0654462 0.000653433 0)
(0.0650858 0.000658049 0)
(0.0647223 0.000664617 0)
(0.0643508 0.000670107 0)
(0.0639741 0.000671624 0)
(0.0636178 0.00067779 0)
(0.0633165 0.000703138 0)
(0.0630362 0.000720717 0)
(0.0626297 0.000598153 0)
(0.0150985 0.00588831 0)
(0.0113221 -0.0121902 0)
(0.00908096 0.020401 0)
(0.00912346 0.0365273 0)
(0.00770612 0.000358872 0)
(0.00680452 9.63185e-07 0)
(0.00590146 3.3805e-05 0)
(0.00510758 3.13713e-05 0)
(0.00441766 3.11135e-05 0)
(0.00384659 2.96702e-05 0)
(0.00341479 2.70925e-05 0)
(0.00315411 2.29527e-05 0)
(0.00311417 1.63845e-05 0)
(0.00336525 5.01771e-06 0)
(0.00381758 -1.79859e-05 0)
(0.00658667 -6.38971e-05 0)
(0.0105843 -6.77904e-05 0)
(0.0121874 -2.22262e-05 0)
(0.0122745 -1.0895e-06 0)
(0.0122763 1.94636e-07 0)
(0.0122762 1.45163e-07 0)
(0.0122762 1.47697e-07 0)
(0.0122762 1.48369e-07 0)
(0.0122762 1.47574e-07 0)
(0.0122762 1.48487e-07 0)
(0.0122762 1.476e-07 0)
(0.0122762 1.48589e-07 0)
(0.0122762 1.47617e-07 0)
(0.0122762 1.48687e-07 0)
(0.0122762 1.47628e-07 0)
(0.0122762 1.48783e-07 0)
(0.0122762 1.47631e-07 0)
(0.0122762 1.4888e-07 0)
(0.0122762 1.47689e-07 0)
(0.0122762 1.48802e-07 0)
(0.0122762 1.47774e-07 0)
(0.0122762 1.48946e-07 0)
(0.0122762 1.47716e-07 0)
(0.0122762 1.49024e-07 0)
(0.0122762 1.47693e-07 0)
(0.0122762 1.49097e-07 0)
(0.0122762 1.4766e-07 0)
(0.0122762 1.49165e-07 0)
(0.0122762 1.47614e-07 0)
(0.0122762 1.49245e-07 0)
(0.0122762 1.47572e-07 0)
(0.0122762 1.49316e-07 0)
(0.0122762 1.47512e-07 0)
(0.0122762 1.49375e-07 0)
(0.0122762 1.4743e-07 0)
(0.0122762 1.49411e-07 0)
(0.0122762 1.4733e-07 0)
(0.0122762 1.49449e-07 0)
(0.0122762 1.47224e-07 0)
(0.0122762 1.49473e-07 0)
(0.0122762 1.47093e-07 0)
(0.0122762 1.49487e-07 0)
(0.0122762 1.4695e-07 0)
(0.0122762 1.49495e-07 0)
(0.0122762 1.4682e-07 0)
(0.0122762 1.49556e-07 0)
(0.0122762 1.46738e-07 0)
(0.0122762 1.49642e-07 0)
(0.0122762 1.46654e-07 0)
(0.0122762 1.49732e-07 0)
(0.0122762 1.46565e-07 0)
(0.0122762 1.49818e-07 0)
(0.0122762 1.46467e-07 0)
(0.0122762 1.49911e-07 0)
(0.0122762 1.46368e-07 0)
(0.0122762 1.5e-07 0)
(0.0122762 1.46255e-07 0)
(0.0122762 1.50097e-07 0)
(0.0122762 1.46394e-07 0)
(0.0122762 1.49862e-07 0)
(0.0122762 1.46352e-07 0)
(0.0122762 1.4986e-07 0)
(0.0122762 1.46315e-07 0)
(0.0122762 1.49856e-07 0)
(0.0122762 1.46275e-07 0)
(0.0122762 1.49849e-07 0)
(0.0122762 1.46232e-07 0)
(0.0122762 1.49838e-07 0)
(0.0122762 1.46184e-07 0)
(0.0122762 1.49819e-07 0)
(0.0122762 1.4613e-07 0)
(0.0122762 1.49797e-07 0)
(0.0122762 1.46074e-07 0)
(0.0122762 1.49764e-07 0)
(0.0122762 1.46001e-07 0)
(0.0122762 1.49695e-07 0)
(0.0122762 1.45815e-07 0)
(0.0122762 1.49415e-07 0)
(0.0122762 1.45439e-07 0)
(0.0122762 1.49065e-07 0)
(0.0122762 1.45073e-07 0)
(0.0122762 1.4874e-07 0)
(0.0122762 1.4477e-07 0)
(0.0122762 1.48527e-07 0)
(0.0122762 1.44537e-07 0)
(0.0122762 1.48276e-07 0)
(0.0122762 1.44302e-07 0)
(0.0122762 1.48189e-07 0)
(0.0122762 1.44289e-07 0)
(0.0122762 1.48256e-07 0)
(0.0122762 1.44451e-07 0)
(0.0122762 1.48583e-07 0)
(0.0122762 1.44763e-07 0)
(0.0122762 1.48808e-07 0)
(0.0122762 1.44999e-07 0)
(0.0122762 1.49248e-07 0)
(0.0122762 1.45576e-07 0)
(0.0122762 1.49922e-07 0)
(0.0122762 1.46372e-07 0)
(0.0122762 1.50964e-07 0)
(0.0122762 1.47572e-07 0)
(0.0122762 1.52169e-07 0)
(0.0122762 1.48721e-07 0)
(0.0122762 1.53451e-07 0)
(0.0122762 1.49644e-07 0)
(0.0122761 1.55373e-07 0)
(0.0122723 1.58262e-07 0)
(0.012183 3.04575e-07 0)
)
;

boundaryField
{
    inandouthalf11
    {
        type            cyclic;
    }
    inandouthalf12
    {
        type            cyclic;
    }
    inandouthalf21
    {
        type            cyclic;
    }
    inandouthalf22
    {
        type            cyclic;
    }
    inandouthalf31
    {
        type            cyclic;
    }
    inandouthalf32
    {
        type            cyclic;
    }
    inandouthalf41
    {
        type            cyclic;
    }
    inandouthalf42
    {
        type            cyclic;
    }
    top
    {
        type            symmetryPlane;
    }
    walls
    {
        type            calculated;
        value           uniform (0 0 0);
    }
    frontAndBackPlanes
    {
        type            empty;
    }
}


// ************************************************************************* //
