/*--------------------------------*- C++ -*----------------------------------*\
| =========                 |                                                 |
| \\      /  F ield         | OpenFOAM: The Open Source CFD Toolbox           |
|  \\    /   O peration     | Version:  2.4.x                                 |
|   \\  /    A nd           | Web:      www.OpenFOAM.org                      |
|    \\/     M anipulation  |                                                 |
\*---------------------------------------------------------------------------*/
FoamFile
{
    version     2.0;
    format      ascii;
    class       volScalarField;
    location    "5.8";
    object      ddt0(((1.5*(alpha+1e-08))*rho),Theta);
}
// * * * * * * * * * * * * * * * * * * * * * * * * * * * * * * * * * * * * * //

dimensions      [1 -1 -3 0 0 0 0];

internalField   nonuniform List<scalar> 
360
(
-8.64346e-21
-3.28868e-20
-2.6093e-20
-2.14322e-20
-2.20595e-20
-2.35363e-20
-2.44046e-20
-2.47284e-20
-2.48132e-20
-2.49179e-20
-2.51568e-20
-2.5494e-20
-2.58541e-20
-2.61877e-20
-2.6493e-20
-2.67928e-20
-2.70944e-20
-2.73851e-20
-2.76524e-20
-2.7879e-20
-2.80511e-20
-2.8185e-20
-2.83038e-20
-2.84363e-20
-2.86335e-20
-2.89625e-20
-2.95131e-20
-3.03747e-20
-3.15927e-20
-3.31668e-20
-3.50452e-20
-3.70556e-20
-3.88905e-20
-4.00988e-20
-4.00617e-20
-3.81309e-20
-3.3826e-20
-2.70607e-20
-1.83736e-20
-9.11063e-21
-1.27622e-21
2.95764e-21
1.6884e-21
-6.57288e-21
-2.33281e-20
-5.11826e-20
-9.55228e-20
-1.66974e-19
-2.84375e-19
-4.72595e-19
-7.37524e-19
-9.81578e-19
-8.768e-19
-3.66466e-20
1.16575e-18
1.54828e-18
9.29441e-19
2.91286e-19
5.04348e-20
5.18115e-21
3.56709e-22
2.03409e-23
1.43102e-24
2.09343e-25
7.67514e-26
5.25367e-26
4.57722e-26
4.30506e-26
4.12881e-26
3.93149e-26
3.72366e-26
3.60405e-26
3.45233e-26
3.2909e-26
3.15595e-26
3.04985e-26
2.96469e-26
2.85413e-26
2.73917e-26
2.6393e-26
2.523e-26
2.38752e-26
2.26367e-26
2.13342e-26
2.0129e-26
1.88455e-26
1.7703e-26
1.65303e-26
1.5251e-26
1.40016e-26
1.25797e-26
1.11376e-26
9.54806e-27
7.96131e-27
6.29702e-27
4.67358e-27
2.96153e-27
1.2241e-27
-5.29097e-28
-2.38456e-27
-4.31108e-27
-6.28596e-27
-8.37282e-27
-1.04511e-26
-1.27338e-26
-1.49629e-26
-1.73729e-26
-1.98121e-26
-2.23842e-26
-2.50804e-26
-2.78646e-26
-3.08191e-26
-3.38697e-26
-3.70794e-26
-4.04028e-26
-4.39085e-26
-4.7583e-26
-5.1393e-26
-5.55012e-26
-5.96333e-26
-6.40746e-26
-6.86468e-26
-7.35315e-26
-7.86539e-26
-8.40525e-26
-8.97171e-26
-9.59603e-26
-1.02669e-25
-1.09893e-25
-1.17562e-25
-1.26073e-25
-9.78682e-23
-1.92534e-17
-1.05032e-16
-5.74128e-16
-3.27241e-15
-1.95583e-14
-1.24258e-13
-8.68332e-13
-7.08693e-12
-7.17465e-11
-9.18394e-10
-1.46355e-08
-2.8841e-07
-9.65124e-06
-0.000885086
-0.0313061
-0.340715
-0.876177
-0.571194
-0.384445
-0.279641
-0.20804
-0.156072
-0.118137
-0.0903999
-0.0699044
-0.054479
-0.0426491
-0.0334235
-0.0261392
-0.020339
-0.0156955
-0.0119671
-0.00896995
-0.00656284
-0.0046331
-0.00309182
-0.00186708
-0.000900808
-0.000145575
0.000437247
0.000879391
0.00120697
0.00144142
0.00160046
0.00169872
0.00174832
0.00175925
0.0017398
0.00169683
0.001636
0.00156201
0.0014787
0.00138925
0.00129624
0.00120175
0.00110743
0.00101457
0.000924118
0.000836791
0.00075314
0.000673619
0.000598606
0.000528446
0.000463515
0.000404208
0.000350769
0.000303119
0.000260805
0.000223203
0.000189619
0.000159647
0.000133128
0.000110131
9.06499e-05
7.42499e-05
6.058e-05
4.93665e-05
4.01678e-05
3.26421e-05
2.65186e-05
2.15123e-05
1.7464e-05
1.4174e-05
1.14672e-05
9.2845e-06
7.50752e-06
6.04365e-06
4.8556e-06
3.88855e-06
3.10628e-06
2.46565e-06
1.94557e-06
1.53124e-06
1.19322e-06
9.21625e-07
7.05393e-07
5.32878e-07
3.96274e-07
2.89895e-07
2.06242e-07
1.45214e-07
9.44968e-08
5.95368e-08
2.90068e-08
0
0
0
0
0
0
0
0
0
0
0
0
0
0
0
0
0
0
0
0
0
0
0
0
0
0
0
0
0
0
0
0
0
0
0
0
0
0
0
0
0
0
0
0
0
0
0
0
0
0
0
0
0
0
0
0
0
0
0
0
0
0
0
0
0
0
0
0
0
0
0
0
0
0
0
0
0
0
0
0
0
0
0
0
0
0
0
0
0
0
0
0
0
0
0
0
0
0
0
0
0
0
0
0
0
0
0
0
0
0
0
0
0
0
0
0
0
0
0
0
0
0
0
0
)
;

boundaryField
{
    inandouthalf11
    {
        type            cyclic;
    }
    inandouthalf12
    {
        type            cyclic;
    }
    inandouthalf21
    {
        type            cyclic;
    }
    inandouthalf22
    {
        type            cyclic;
    }
    inandouthalf31
    {
        type            cyclic;
    }
    inandouthalf32
    {
        type            cyclic;
    }
    inandouthalf41
    {
        type            cyclic;
    }
    inandouthalf42
    {
        type            cyclic;
    }
    top
    {
        type            symmetryPlane;
    }
    walls
    {
        type            calculated;
        value           uniform -8.64346e-21;
    }
    frontAndBackPlanes
    {
        type            empty;
    }
}


// ************************************************************************* //
