/*--------------------------------*- C++ -*----------------------------------*\
| =========                 |                                                 |
| \\      /  F ield         | OpenFOAM: The Open Source CFD Toolbox           |
|  \\    /   O peration     | Version:  2.4.x                                 |
|   \\  /    A nd           | Web:      www.OpenFOAM.org                      |
|    \\/     M anipulation  |                                                 |
\*---------------------------------------------------------------------------*/
FoamFile
{
    version     2.0;
    format      ascii;
    class       volScalarField;
    location    "5.8";
    object      k;
}
// * * * * * * * * * * * * * * * * * * * * * * * * * * * * * * * * * * * * * //

dimensions      [0 2 -2 0 0 0 0];

internalField   nonuniform List<scalar> 
360
(
1e-20
1e-20
1e-20
1e-20
1e-20
1e-20
1e-20
1e-20
1e-20
1e-20
1e-20
1e-20
1e-20
1e-20
1e-20
1e-20
1e-20
1e-20
1e-20
1e-20
1e-20
1e-20
1e-20
1e-20
1e-20
1e-20
1e-20
1e-20
1e-20
1e-20
1e-20
1e-20
1e-20
1e-20
1e-20
1e-20
1e-20
1e-20
1e-20
1e-20
1e-20
1e-20
1e-20
1e-20
1e-20
1e-20
1e-20
1e-20
1e-20
1e-20
1e-20
1e-20
1e-20
1e-20
1e-20
1e-20
1e-20
1e-20
1e-20
1e-20
1e-20
1e-20
1e-20
1e-20
1e-20
1e-20
1e-20
1e-20
1e-20
1e-20
1e-20
1e-20
1e-20
1e-20
1e-20
1e-20
1e-20
1e-20
1e-20
1e-20
1e-20
1e-20
1e-20
1e-20
1e-20
1e-20
1e-20
1e-20
1e-20
1e-20
1e-20
1e-20
1e-20
1e-20
1e-20
1e-20
1e-20
1e-20
1e-20
1e-20
1e-20
1e-20
1e-20
1e-20
1e-20
1e-20
1e-20
1e-20
1e-20
1e-20
1e-20
1e-20
1e-20
1e-20
1e-20
1e-20
1e-20
1e-20
1e-20
1e-20
1e-20
1e-20
1e-20
1e-20
1e-20
1e-20
1e-20
1e-20
1e-20
1e-20
1e-20
1e-20
1.78607e-20
7.71991e-20
3.86683e-19
2.10479e-18
1.25895e-17
8.41566e-17
6.39782e-16
5.61589e-15
5.75704e-14
6.96256e-13
1.00649e-11
1.76065e-10
3.76202e-09
9.9081e-08
3.22225e-06
0.000109285
0.0017519
0.00474253
0.00609585
0.00685108
0.00732515
0.0076447
0.00787079
0.00803489
0.00815423
0.00823896
0.00829561
0.0083288
0.00834196
0.00833781
0.00831857
0.00828608
0.00824186
0.00818723
0.00812329
0.00805101
0.00797121
0.0078846
0.00779183
0.00769343
0.00758991
0.00748169
0.00736917
0.0072527
0.0071326
0.00700917
0.00688266
0.00675334
0.00662143
0.00648715
0.00635071
0.00621229
0.0060721
0.0059303
0.00578708
0.00564261
0.00549706
0.0053506
0.00520339
0.00505561
0.00490743
0.00475901
0.00461055
0.00446222
0.0043142
0.00416669
0.00401987
0.00387394
0.00372912
0.00358416
0.00343787
0.00329055
0.00314254
0.00299422
0.00284602
0.00269843
0.00255199
0.0024073
0.00226499
0.00212578
0.00199038
0.00185957
0.0017341
0.00161471
0.00150211
0.00139687
0.00129949
0.00121027
0.00112933
0.0010566
0.000991811
0.000934523
0.000884153
0.000840017
0.000801376
0.00076747
0.000737543
0.00071087
0.000686766
0.000664589
0.000643749
0.0006237
0.000603945
0.00058403
0.000563545
0.000542125
0.000519447
0.000495232
0.000469245
0.000441297
0.000411252
0.000379027
0.000344601
0.000308026
0.000269446
0.000229115
0.000187443
0.000145059
0.00010293
6.25911e-05
2.64919e-05
4.22101e-06
1.53352e-07
2.77282e-09
4.55645e-11
7.04968e-13
1.02804e-14
1.41383e-16
1.84161e-18
3.07511e-20
1e-20
1e-20
1e-20
1e-20
1e-20
1e-20
1e-20
1e-20
1e-20
1e-20
1e-20
1e-20
1e-20
1e-20
1e-20
1e-20
1e-20
1e-20
1e-20
1e-20
1e-20
1e-20
1e-20
1e-20
1e-20
1e-20
1e-20
1e-20
1e-20
1e-20
1e-20
1e-20
1e-20
1e-20
1e-20
1e-20
1e-20
1e-20
1e-20
1e-20
1e-20
1e-20
1e-20
1e-20
1e-20
1e-20
1e-20
1e-20
1e-20
1e-20
1e-20
1e-20
1e-20
1e-20
1e-20
1e-20
1e-20
1e-20
1e-20
1e-20
1e-20
1e-20
1e-20
1e-20
1e-20
1e-20
1e-20
1e-20
1e-20
1e-20
1e-20
1e-20
1e-20
1e-20
1e-20
1e-20
1e-20
1e-20
1e-20
1e-20
1e-20
1e-20
1e-20
1e-20
1e-20
1e-20
1e-20
1e-20
1e-20
1e-20
1e-20
1e-20
1e-20
1e-20
1e-20
1e-20
1e-20
1e-20
)
;

boundaryField
{
    inandouthalf11
    {
        type            cyclic;
    }
    inandouthalf12
    {
        type            cyclic;
    }
    inandouthalf21
    {
        type            cyclic;
    }
    inandouthalf22
    {
        type            cyclic;
    }
    inandouthalf31
    {
        type            cyclic;
    }
    inandouthalf32
    {
        type            cyclic;
    }
    inandouthalf41
    {
        type            cyclic;
    }
    inandouthalf42
    {
        type            cyclic;
    }
    top
    {
        type            symmetryPlane;
    }
    walls
    {
        type            zeroGradient;
    }
    frontAndBackPlanes
    {
        type            empty;
    }
}


// ************************************************************************* //
