/*--------------------------------*- C++ -*----------------------------------*\
| =========                 |                                                 |
| \\      /  F ield         | OpenFOAM: The Open Source CFD Toolbox           |
|  \\    /   O peration     | Version:  2.4.x                                 |
|   \\  /    A nd           | Web:      www.OpenFOAM.org                      |
|    \\/     M anipulation  |                                                 |
\*---------------------------------------------------------------------------*/
FoamFile
{
    version     2.0;
    format      ascii;
    class       volScalarField;
    location    "5.8";
    object      mua;
}
// * * * * * * * * * * * * * * * * * * * * * * * * * * * * * * * * * * * * * //

dimensions      [1 -1 -1 0 0 0 0];

internalField   nonuniform List<scalar> 
360
(
793323
522987
632251
669147
640337
617297
606361
599653
593541
586510
578439
570071
561918
554184
546715
539279
531830
524451
517164
509991
503082
496294
489649
483179
476859
470663
464467
458054
451399
444429
436983
429030
420767
412227
404029
396610
390546
386320
384556
385732
389484
395425
402195
407242
407716
400171
381814
351618
310940
264621
219408
181382
155286
144771
155432
202233
331558
698502
1.88979e+06
6.41128e+06
2.59359e+07
1.16425e+08
5.29872e+08
2.22994e+09
8.0125e+09
2.31903e+10
5.22556e+10
9.08918e+10
1.24018e+11
1.37724e+11
1.30823e+11
1.12174e+11
9.10319e+10
7.24113e+10
5.78787e+10
4.72077e+10
3.96257e+10
3.43147e+10
3.06238e+10
2.80821e+10
2.63524e+10
2.51867e+10
2.44134e+10
2.39151e+10
2.36095e+10
2.34414e+10
2.33727e+10
2.33768e+10
2.34288e+10
2.35033e+10
2.35765e+10
2.36253e+10
2.36291e+10
2.3574e+10
2.34533e+10
2.32668e+10
2.30194e+10
2.27193e+10
2.23759e+10
2.19978e+10
2.15932e+10
2.11689e+10
2.07307e+10
2.02839e+10
1.98329e+10
1.93816e+10
1.89331e+10
1.84894e+10
1.80517e+10
1.76202e+10
1.71943e+10
1.67722e+10
1.63518e+10
1.593e+10
1.55029e+10
1.50663e+10
1.4616e+10
1.41479e+10
1.36592e+10
1.31489e+10
1.26189e+10
1.20746e+10
1.15249e+10
1.0982e+10
1.04604e+10
9.97494e+09
9.54025e+09
9.1707e+09
8.88132e+09
8.68817e+09
8.60523e+09
8.63539e+09
8.75833e+09
8.92802e+09
9.09216e+09
9.21338e+09
9.24845e+09
9.11888e+09
8.80305e+09
8.5768e+09
9.15316e+09
1.16824e+10
1.82324e+10
3.5196e+10
7.72056e+10
9.32316e+10
6.65191e+08
0.0421715
0.0115978
0.00826923
0.00703032
0.00630538
0.00588015
0.0056466
0.005533
0.00549008
0.00548575
0.00550034
0.00552245
0.00554577
0.005567
0.00558453
0.00559772
0.00560641
0.00561071
0.00561084
0.0056071
0.00559976
0.0055891
0.0055754
0.00555889
0.0055398
0.00551834
0.00549471
0.00546908
0.00544163
0.00541251
0.00538189
0.00534989
0.00531668
0.00528239
0.00524714
0.00521107
0.00517431
0.00513697
0.00509917
0.00506103
0.00502266
0.00498415
0.00494561
0.00490712
0.00486876
0.00483061
0.00479272
0.00475514
0.00471791
0.00468105
0.00464456
0.00460846
0.00457273
0.00453734
0.00450193
0.0044661
0.00442981
0.004393
0.00435559
0.00431751
0.00427865
0.00423893
0.00419823
0.00415645
0.00411344
0.00406909
0.00402325
0.00397576
0.00392646
0.00387516
0.00382165
0.00376571
0.00370708
0.00364546
0.00358052
0.00351185
0.00343902
0.00336145
0.00327849
0.00318931
0.00309289
0.00298788
0.00287251
0.00274435
0.00259986
0.00243362
0.00223654
0.0019911
0.0016543
0
0
0
0
0
0
0
0
0
0
0
0
0
0
0
0
0
0
0
0
0
0
0
0
0
0
0
0
0
0
0
0
0
0
0
0
0
0
0
0
0
0
0
0
0
0
0
0
0
0
0
0
0
0
0
0
0
0
0
0
0
0
0
0
0
0
0
0
0
0
0
0
0
0
0
0
0
0
0
0
0
0
0
0
0
0
0
0
0
0
0
0
0
0
0
0
0
0
0
0
0
0
0
0
0
0
0
0
0
0
0
0
0
0
0
0
0
0
0
0
0
0
0
0
)
;

boundaryField
{
    inandouthalf11
    {
        type            cyclic;
    }
    inandouthalf12
    {
        type            cyclic;
    }
    inandouthalf21
    {
        type            cyclic;
    }
    inandouthalf22
    {
        type            cyclic;
    }
    inandouthalf31
    {
        type            cyclic;
    }
    inandouthalf32
    {
        type            cyclic;
    }
    inandouthalf41
    {
        type            cyclic;
    }
    inandouthalf42
    {
        type            cyclic;
    }
    top
    {
        type            symmetryPlane;
    }
    walls
    {
        type            calculated;
        value           uniform 1e+30;
    }
    frontAndBackPlanes
    {
        type            empty;
    }
}


// ************************************************************************* //
