/*--------------------------------*- C++ -*----------------------------------*\
| =========                 |                                                 |
| \\      /  F ield         | OpenFOAM: The Open Source CFD Toolbox           |
|  \\    /   O peration     | Version:  2.4.x                                 |
|   \\  /    A nd           | Web:      www.OpenFOAM.org                      |
|    \\/     M anipulation  |                                                 |
\*---------------------------------------------------------------------------*/
FoamFile
{
    version     2.0;
    format      ascii;
    class       volScalarField;
    location    "2.85";
    object      ddt0(k);
}
// * * * * * * * * * * * * * * * * * * * * * * * * * * * * * * * * * * * * * //

dimensions      [0 2 -3 0 0 0 0];

internalField   nonuniform List<scalar> 
360
(
0
0
0
0
0
0
0
0
0
0
0
0
0
0
0
0
0
0
0
0
0
0
0
0
0
0
0
0
0
0
0
0
0
0
0
0
0
0
0
0
0
0
0
0
0
0
0
0
0
0
0
0
0
0
0
0
0
0
0
0
0
0
0
0
0
0
0
0
0
0
0
0
0
0
0
0
0
0
0
0
0
0
0
0
0
0
0
0
0
0
0
0
0
0
0
0
0
0
0
0
0
0
0
0
0
0
0
0
0
0
0
0
0
0
0
0
0
0
0
0
0
0
0
0
0
0
0
0
0
4.92662e-21
3.27914e-19
2.0023e-18
1.03082e-17
4.3326e-17
1.19845e-16
-1.15143e-16
-4.57147e-15
-3.98276e-14
-2.46631e-13
-1.24221e-12
-5.31436e-12
-1.97433e-11
-6.79351e-11
-2.5642e-10
-1.37873e-09
-1.22728e-08
-1.61872e-07
-2.51929e-06
-4.8188e-05
-0.00138549
-0.00567992
-0.00785855
-0.00898701
-0.00984147
-0.0105222
-0.0110584
-0.0114898
-0.0118394
-0.0121207
-0.0123421
-0.0125086
-0.0126235
-0.0126887
-0.0127053
-0.0126737
-0.0125944
-0.0124673
-0.0122924
-0.0120697
-0.0117993
-0.0114812
-0.0111156
-0.0107025
-0.0102424
-0.00973551
-0.00918233
-0.00858336
-0.00793904
-0.00724978
-0.00651599
-0.00573823
-0.00491737
-0.00405457
-0.00315129
-0.00220927
-0.00123052
-0.000217414
0.000827214
0.00189998
0.00299694
0.0041137
0.00524536
0.00638624
0.00752915
0.00866483
0.00978154
0.0108647
0.0118965
0.012854
0.0137082
0.0144203
0.0149426
0.0151899
0.0150057
0.014027
0.0116015
0.0033664
0.000143213
2.24618e-06
3.19442e-08
4.32812e-10
5.58857e-12
6.87585e-14
8.06107e-16
8.99742e-18
8.60888e-20
0
0
0
0
0
0
0
0
0
0
0
0
0
0
0
0
0
0
0
0
0
0
0
0
0
0
0
0
0
0
0
0
0
0
0
0
0
0
0
0
0
0
0
0
0
0
0
0
0
0
0
0
0
0
0
0
0
0
0
0
0
0
0
0
0
0
0
0
0
0
0
0
0
0
0
0
0
0
0
0
0
0
0
0
0
0
0
0
0
0
0
0
0
0
0
0
0
0
0
0
0
0
0
0
0
0
0
0
0
0
0
0
0
0
0
0
0
0
0
0
0
0
0
0
0
0
0
0
0
0
0
0
0
0
0
0
0
0
0
0
0
0
0
0
)
;

boundaryField
{
    inandouthalf11
    {
        type            cyclic;
    }
    inandouthalf12
    {
        type            cyclic;
    }
    inandouthalf21
    {
        type            cyclic;
    }
    inandouthalf22
    {
        type            cyclic;
    }
    inandouthalf31
    {
        type            cyclic;
    }
    inandouthalf32
    {
        type            cyclic;
    }
    inandouthalf41
    {
        type            cyclic;
    }
    inandouthalf42
    {
        type            cyclic;
    }
    top
    {
        type            symmetryPlane;
    }
    walls
    {
        type            calculated;
        value           uniform 0;
    }
    frontAndBackPlanes
    {
        type            empty;
    }
}


// ************************************************************************* //
