/*--------------------------------*- C++ -*----------------------------------*\
| =========                 |                                                 |
| \\      /  F ield         | OpenFOAM: The Open Source CFD Toolbox           |
|  \\    /   O peration     | Version:  2.4.x                                 |
|   \\  /    A nd           | Web:      www.OpenFOAM.org                      |
|    \\/     M anipulation  |                                                 |
\*---------------------------------------------------------------------------*/
FoamFile
{
    version     2.0;
    format      ascii;
    class       surfaceScalarField;
    location    "2.85";
    object      ddt0(phib);
}
// * * * * * * * * * * * * * * * * * * * * * * * * * * * * * * * * * * * * * //

dimensions      [0 3 -2 0 0 0 0];

internalField   nonuniform List<scalar> 
359
(
-1.1973e-11
-4.80925e-11
-9.74654e-11
-1.44408e-10
-1.81643e-10
-2.08506e-10
-2.23771e-10
-2.21963e-10
-1.95541e-10
-1.43916e-10
-8.09479e-11
-2.72287e-11
6.57754e-12
2.33148e-11
3.04563e-11
3.33444e-11
3.45074e-11
3.49434e-11
3.50352e-11
3.49506e-11
3.47906e-11
3.46336e-11
3.45361e-11
3.45241e-11
3.45922e-11
3.47152e-11
3.48621e-11
3.50073e-11
3.51343e-11
3.52357e-11
3.53105e-11
3.5362e-11
3.53949e-11
3.5414e-11
3.54232e-11
3.54248e-11
3.542e-11
3.54087e-11
3.53904e-11
3.53637e-11
3.53275e-11
3.52808e-11
3.52227e-11
3.51523e-11
3.5069e-11
3.49723e-11
3.48616e-11
3.47361e-11
3.45946e-11
3.44361e-11
3.42593e-11
3.40625e-11
3.38443e-11
3.36026e-11
3.33355e-11
3.30404e-11
3.27151e-11
3.23572e-11
3.19651e-11
3.15375e-11
3.10735e-11
3.05737e-11
3.00391e-11
2.94718e-11
2.8873e-11
2.8243e-11
2.758e-11
2.68799e-11
2.61368e-11
2.53432e-11
2.449e-11
2.35695e-11
2.25772e-11
2.15108e-11
2.03737e-11
1.91731e-11
1.79214e-11
1.66317e-11
1.5316e-11
1.39827e-11
1.26364e-11
1.12765e-11
9.89893e-12
8.49733e-12
7.06479e-12
5.59557e-12
4.08606e-12
2.5355e-12
9.46008e-13
-6.78535e-13
-2.3328e-12
-4.01155e-12
-5.71004e-12
-7.42441e-12
-9.15165e-12
-1.08894e-11
-1.26357e-11
-1.43886e-11
-1.61465e-11
-1.79074e-11
-1.96696e-11
-2.14315e-11
-2.31918e-11
-2.49491e-11
-2.67024e-11
-2.84507e-11
-3.01932e-11
-3.19292e-11
-3.36579e-11
-3.53789e-11
-3.70917e-11
-3.87955e-11
-4.04896e-11
-4.21726e-11
-4.38425e-11
-4.54966e-11
-4.71304e-11
-4.87383e-11
-5.03126e-11
-5.18434e-11
-5.33188e-11
-5.4725e-11
-5.60462e-11
-5.72658e-11
-5.83669e-11
-5.93333e-11
-6.01504e-11
-6.08068e-11
-6.12944e-11
-6.16114e-11
-6.17651e-11
-6.17765e-11
-6.16836e-11
-6.15411e-11
-6.14155e-11
-6.13764e-11
-6.14857e-11
-6.17925e-11
-6.23278e-11
-6.30755e-11
-6.39173e-11
-6.46169e-11
-6.50276e-11
-6.51333e-11
-6.50308e-11
-6.34149e-11
-3.32743e-10
-7.72803e-10
-1.93433e-09
1.62152e-08
-6.54345e-09
-1.08619e-08
-1.03816e-08
-9.09192e-09
-7.8357e-09
-6.68811e-09
-5.67159e-09
-4.78441e-09
-4.01726e-09
-3.35795e-09
-2.79349e-09
-2.31137e-09
-1.90019e-09
-1.54992e-09
-1.25187e-09
-9.98614e-10
-7.83868e-10
-6.02304e-10
-4.49431e-10
-3.21452e-10
-2.15158e-10
-1.27833e-10
-5.7186e-11
-1.28631e-12
4.15095e-11
7.27709e-11
9.42611e-11
1.08176e-10
1.16984e-10
1.22814e-10
1.26814e-10
1.29214e-10
1.29898e-10
1.28722e-10
1.25479e-10
1.19784e-10
1.10965e-10
9.81984e-11
8.10816e-11
6.07737e-11
4.05456e-11
2.42517e-11
1.37161e-11
8.06863e-12
5.34912e-12
4.00085e-12
3.21191e-12
2.65872e-12
2.23281e-12
1.89828e-12
1.63107e-12
1.40203e-12
1.20341e-12
1.04285e-12
9.13574e-13
7.94973e-13
6.87148e-13
6.00979e-13
5.28139e-13
4.58723e-13
3.97832e-13
3.4695e-13
3.00936e-13
2.60387e-13
2.26388e-13
1.95168e-13
1.67185e-13
1.44735e-13
1.25002e-13
1.0664e-13
9.11076e-14
7.78998e-14
6.64175e-14
5.66029e-14
4.77232e-14
4.00861e-14
3.3853e-14
2.82931e-14
2.35144e-14
1.95791e-14
1.61754e-14
1.32958e-14
1.08962e-14
8.90788e-15
7.18713e-15
5.76828e-15
4.61017e-15
3.65524e-15
2.86363e-15
2.26041e-15
4.13614e-15
-2.26265e-16
4.38747e-17
4.95157e-17
2.56981e-17
4.0237e-17
1.28727e-17
2.21828e-17
8.6213e-18
2.34593e-17
1.85504e-18
-1.77253e-18
-3.29799e-18
4.91197e-19
-3.00425e-17
-2.37113e-17
-5.78066e-17
-6.18658e-17
-9.18285e-17
-8.86092e-17
-1.20387e-16
-1.28817e-16
-1.52506e-16
-1.46393e-16
-1.41997e-16
-1.18302e-16
-1.04608e-16
-8.90318e-17
-6.80167e-17
-5.08583e-17
-4.91644e-17
-4.01102e-17
-1.67973e-17
5.99412e-19
1.81191e-17
2.57145e-17
4.18279e-17
4.81751e-17
5.37551e-17
4.28513e-17
8.45969e-17
1.08425e-16
1.24926e-16
1.31545e-16
1.51762e-16
1.5357e-16
1.72893e-16
1.66527e-16
1.96614e-16
2.16449e-16
2.39552e-16
2.47197e-16
2.81576e-16
3.02469e-16
3.42356e-16
3.39244e-16
6.08859e-16
8.43429e-16
1.11621e-15
1.35909e-15
1.64409e-15
1.89674e-15
2.16922e-15
2.40543e-15
2.73878e-15
3.01892e-15
3.31112e-15
3.52592e-15
3.83298e-15
4.03484e-15
4.23024e-15
4.3715e-15
4.77279e-15
5.0872e-15
5.4113e-15
5.59875e-15
5.91589e-15
6.05752e-15
6.2295e-15
6.26235e-15
6.75397e-15
7.06127e-15
7.42228e-15
7.55278e-15
8.21886e-15
8.67115e-15
9.68006e-15
1.14615e-14
1.85142e-14
2.56986e-14
3.33667e-14
3.92712e-14
4.71804e-14
5.22655e-14
5.74533e-14
5.96549e-14
6.72522e-14
7.11008e-14
7.49476e-14
7.4093e-14
7.67998e-14
7.46211e-14
7.26788e-14
6.6966e-14
6.94756e-14
6.83363e-14
6.74277e-14
6.20333e-14
5.95422e-14
5.31648e-14
4.66578e-14
3.93557e-14
2.9457e-14
2.04324e-14
1.1313e-14
8.02938e-15
-9.87488e-15
-5.18228e-15
1.30982e-14
)
;

boundaryField
{
    inandouthalf11
    {
        type            cyclic;
        value           nonuniform List<scalar> 
100
(
-5.88154e-12
-7.62176e-12
-9.71785e-12
-1.14829e-11
-1.28271e-11
-1.39071e-11
-1.47681e-11
-1.5212e-11
-1.47786e-11
-1.30779e-11
-1.03522e-11
-7.55241e-12
-5.53505e-12
-4.43714e-12
-3.94273e-12
-3.73858e-12
-3.65551e-12
-3.62283e-12
-3.61345e-12
-3.61662e-12
-3.6262e-12
-3.63789e-12
-3.64756e-12
-3.65262e-12
-3.65224e-12
-3.64728e-12
-3.63943e-12
-3.63058e-12
-3.62194e-12
-3.61426e-12
-3.6078e-12
-3.60266e-12
-3.59838e-12
-3.59498e-12
-3.5919e-12
-3.5891e-12
-3.58639e-12
-3.58381e-12
-3.58145e-12
-3.57908e-12
-3.57711e-12
-3.57549e-12
-3.57422e-12
-3.57364e-12
-3.57361e-12
-3.57424e-12
-3.57561e-12
-3.57766e-12
-3.58068e-12
-3.58482e-12
-3.58985e-12
-3.59606e-12
-3.60342e-12
-3.61221e-12
-3.62237e-12
-3.63432e-12
-3.64789e-12
-3.6634e-12
-3.68078e-12
-3.69995e-12
-3.72118e-12
-3.74402e-12
-3.76859e-12
-3.79459e-12
-3.82213e-12
-3.85135e-12
-3.88271e-12
-3.91665e-12
-3.95372e-12
-3.99443e-12
-4.03949e-12
-4.0892e-12
-4.14332e-12
-4.20194e-12
-4.2643e-12
-4.32971e-12
-4.39692e-12
-4.46511e-12
-4.53361e-12
-4.60208e-12
-4.67042e-12
-4.73897e-12
-4.80814e-12
-4.87834e-12
-4.94993e-12
-5.02308e-12
-5.09781e-12
-5.1739e-12
-5.25107e-12
-5.32898e-12
-5.40731e-12
-5.48576e-12
-5.56414e-12
-5.64227e-12
-5.72001e-12
-5.79721e-12
-5.8737e-12
-5.9493e-12
-6.02384e-12
-6.09713e-12
)
;
    }
    inandouthalf12
    {
        type            cyclic;
        value           nonuniform List<scalar> 
100
(
5.88154e-12
7.62176e-12
9.71785e-12
1.14829e-11
1.28271e-11
1.39071e-11
1.47681e-11
1.5212e-11
1.47786e-11
1.30779e-11
1.03522e-11
7.55241e-12
5.53505e-12
4.43714e-12
3.94273e-12
3.73858e-12
3.65551e-12
3.62283e-12
3.61345e-12
3.61662e-12
3.6262e-12
3.63789e-12
3.64756e-12
3.65262e-12
3.65224e-12
3.64728e-12
3.63943e-12
3.63058e-12
3.62194e-12
3.61426e-12
3.6078e-12
3.60266e-12
3.59838e-12
3.59498e-12
3.5919e-12
3.5891e-12
3.58639e-12
3.58381e-12
3.58145e-12
3.57908e-12
3.57711e-12
3.57549e-12
3.57422e-12
3.57364e-12
3.57361e-12
3.57424e-12
3.57561e-12
3.57766e-12
3.58068e-12
3.58482e-12
3.58985e-12
3.59606e-12
3.60342e-12
3.61221e-12
3.62237e-12
3.63432e-12
3.64789e-12
3.6634e-12
3.68078e-12
3.69995e-12
3.72118e-12
3.74402e-12
3.76859e-12
3.79459e-12
3.82213e-12
3.85135e-12
3.88271e-12
3.91665e-12
3.95372e-12
3.99443e-12
4.03949e-12
4.0892e-12
4.14332e-12
4.20194e-12
4.2643e-12
4.32971e-12
4.39692e-12
4.46511e-12
4.53361e-12
4.60208e-12
4.67042e-12
4.73897e-12
4.80814e-12
4.87834e-12
4.94993e-12
5.02308e-12
5.09781e-12
5.1739e-12
5.25107e-12
5.32898e-12
5.40731e-12
5.48576e-12
5.56414e-12
5.64227e-12
5.72001e-12
5.79721e-12
5.8737e-12
5.9493e-12
6.02384e-12
6.09713e-12
)
;
    }
    inandouthalf21
    {
        type            cyclic;
        value           nonuniform List<scalar> 
100
(
-6.16901e-12
-6.23931e-12
-6.30789e-12
-6.37463e-12
-6.43941e-12
-6.5021e-12
-6.56259e-12
-6.62079e-12
-6.67661e-12
-6.72998e-12
-6.78083e-12
-6.82909e-12
-6.87473e-12
-6.91767e-12
-6.95784e-12
-6.99512e-12
-7.02935e-12
-7.06031e-12
-7.08766e-12
-7.11096e-12
-7.12965e-12
-7.143e-12
-7.15016e-12
-7.15015e-12
-7.14188e-12
-7.12421e-12
-7.0959e-12
-7.05554e-12
-7.00146e-12
-6.93151e-12
-6.8432e-12
-6.73406e-12
-6.60229e-12
-6.44679e-12
-6.26613e-12
-6.05803e-12
-5.82301e-12
-5.56924e-12
-5.30853e-12
-5.04806e-12
-4.79593e-12
-4.57573e-12
-4.43494e-12
-4.37063e-12
-4.34945e-12
-3.94377e-12
-1.63117e-11
-5.61235e-11
-1.93874e-10
-1.57041e-08
4.68174e-07
6.48087e-07
7.42687e-07
8.08901e-07
8.60841e-07
9.04106e-07
9.415e-07
9.74637e-07
1.00453e-06
1.03187e-06
1.05714e-06
1.0807e-06
1.10283e-06
1.12374e-06
1.14362e-06
1.16261e-06
1.18081e-06
1.19834e-06
1.21526e-06
1.23166e-06
1.24757e-06
1.26306e-06
1.27817e-06
1.29292e-06
1.30734e-06
1.32146e-06
1.33529e-06
1.34885e-06
1.36215e-06
1.3752e-06
1.38799e-06
1.40054e-06
1.41285e-06
1.42491e-06
1.43673e-06
1.44829e-06
1.45958e-06
1.4706e-06
1.4813e-06
1.49167e-06
1.50165e-06
1.51118e-06
1.52021e-06
1.52865e-06
1.53642e-06
1.54342e-06
1.54954e-06
1.55463e-06
1.55847e-06
1.56083e-06
)
;
    }
    inandouthalf22
    {
        type            cyclic;
        value           nonuniform List<scalar> 
100
(
6.16901e-12
6.23931e-12
6.30789e-12
6.37463e-12
6.43941e-12
6.5021e-12
6.56259e-12
6.62079e-12
6.67661e-12
6.72998e-12
6.78083e-12
6.82909e-12
6.87473e-12
6.91767e-12
6.95784e-12
6.99512e-12
7.02935e-12
7.06031e-12
7.08766e-12
7.11096e-12
7.12965e-12
7.143e-12
7.15016e-12
7.15015e-12
7.14188e-12
7.12421e-12
7.0959e-12
7.05554e-12
7.00146e-12
6.93151e-12
6.8432e-12
6.73406e-12
6.60229e-12
6.44679e-12
6.26613e-12
6.05803e-12
5.82301e-12
5.56924e-12
5.30853e-12
5.04806e-12
4.79593e-12
4.57573e-12
4.43494e-12
4.37063e-12
4.34945e-12
3.94377e-12
1.63117e-11
5.61235e-11
1.93874e-10
1.57041e-08
-4.68174e-07
-6.48087e-07
-7.42687e-07
-8.08901e-07
-8.60841e-07
-9.04106e-07
-9.415e-07
-9.74637e-07
-1.00453e-06
-1.03187e-06
-1.05714e-06
-1.0807e-06
-1.10283e-06
-1.12374e-06
-1.14362e-06
-1.16261e-06
-1.18081e-06
-1.19834e-06
-1.21526e-06
-1.23166e-06
-1.24757e-06
-1.26306e-06
-1.27817e-06
-1.29292e-06
-1.30734e-06
-1.32146e-06
-1.33529e-06
-1.34885e-06
-1.36215e-06
-1.3752e-06
-1.38799e-06
-1.40054e-06
-1.41285e-06
-1.42491e-06
-1.43673e-06
-1.44829e-06
-1.45958e-06
-1.4706e-06
-1.4813e-06
-1.49167e-06
-1.50165e-06
-1.51118e-06
-1.52021e-06
-1.52865e-06
-1.53642e-06
-1.54342e-06
-1.54954e-06
-1.55463e-06
-1.55847e-06
-1.56083e-06
)
;
    }
    inandouthalf31
    {
        type            cyclic;
        value           nonuniform List<scalar> 
110
(
1.56134e-06
1.59115e-06
1.61811e-06
1.64029e-06
1.65304e-06
1.64944e-06
1.54717e-06
1.51527e-06
1.54219e-06
1.57335e-06
1.60522e-06
1.63776e-06
1.67096e-06
1.70483e-06
1.7394e-06
1.77468e-06
1.81068e-06
1.8474e-06
1.88488e-06
1.92312e-06
1.96214e-06
2.00196e-06
2.04258e-06
2.08403e-06
2.12632e-06
2.16947e-06
2.2135e-06
2.25842e-06
2.30425e-06
2.35102e-06
2.39873e-06
2.44742e-06
2.49709e-06
2.54777e-06
2.59949e-06
2.65225e-06
2.70608e-06
2.761e-06
2.81704e-06
2.87422e-06
2.93256e-06
2.99208e-06
3.05281e-06
3.11478e-06
3.178e-06
3.2425e-06
3.30832e-06
3.37547e-06
3.44398e-06
3.51388e-06
3.5852e-06
3.65797e-06
3.73222e-06
3.80798e-06
3.88527e-06
3.96413e-06
4.04459e-06
4.12668e-06
4.21044e-06
4.29591e-06
4.3831e-06
4.47207e-06
4.56284e-06
4.65545e-06
4.74994e-06
4.84635e-06
4.94472e-06
5.04509e-06
5.14749e-06
5.25197e-06
5.35857e-06
5.46734e-06
5.57831e-06
5.69153e-06
5.80706e-06
5.92492e-06
6.04518e-06
6.16788e-06
6.29308e-06
6.42081e-06
6.55113e-06
6.6841e-06
6.81977e-06
6.9582e-06
7.09943e-06
7.24353e-06
7.39055e-06
7.54056e-06
7.69362e-06
7.84978e-06
8.00911e-06
8.17167e-06
8.33753e-06
8.50676e-06
8.67943e-06
8.8556e-06
9.03534e-06
9.21873e-06
9.40585e-06
9.59676e-06
9.79155e-06
9.99029e-06
1.01931e-05
1.04e-05
1.06111e-05
1.08264e-05
1.10462e-05
1.12704e-05
1.14991e-05
1.17325e-05
)
;
    }
    inandouthalf32
    {
        type            cyclic;
        value           nonuniform List<scalar> 
110
(
-1.56134e-06
-1.59115e-06
-1.61811e-06
-1.64029e-06
-1.65304e-06
-1.64944e-06
-1.54717e-06
-1.51527e-06
-1.54219e-06
-1.57335e-06
-1.60522e-06
-1.63776e-06
-1.67096e-06
-1.70483e-06
-1.7394e-06
-1.77468e-06
-1.81068e-06
-1.8474e-06
-1.88488e-06
-1.92312e-06
-1.96214e-06
-2.00196e-06
-2.04258e-06
-2.08403e-06
-2.12632e-06
-2.16947e-06
-2.2135e-06
-2.25842e-06
-2.30425e-06
-2.35102e-06
-2.39873e-06
-2.44742e-06
-2.49709e-06
-2.54777e-06
-2.59949e-06
-2.65225e-06
-2.70608e-06
-2.761e-06
-2.81704e-06
-2.87422e-06
-2.93256e-06
-2.99208e-06
-3.05281e-06
-3.11478e-06
-3.178e-06
-3.2425e-06
-3.30832e-06
-3.37547e-06
-3.44398e-06
-3.51388e-06
-3.5852e-06
-3.65797e-06
-3.73222e-06
-3.80798e-06
-3.88527e-06
-3.96413e-06
-4.04459e-06
-4.12668e-06
-4.21044e-06
-4.29591e-06
-4.3831e-06
-4.47207e-06
-4.56284e-06
-4.65545e-06
-4.74994e-06
-4.84635e-06
-4.94472e-06
-5.04509e-06
-5.14749e-06
-5.25197e-06
-5.35857e-06
-5.46734e-06
-5.57831e-06
-5.69153e-06
-5.80706e-06
-5.92492e-06
-6.04518e-06
-6.16788e-06
-6.29308e-06
-6.42081e-06
-6.55113e-06
-6.6841e-06
-6.81977e-06
-6.9582e-06
-7.09943e-06
-7.24353e-06
-7.39055e-06
-7.54056e-06
-7.69362e-06
-7.84978e-06
-8.00911e-06
-8.17167e-06
-8.33753e-06
-8.50676e-06
-8.67943e-06
-8.8556e-06
-9.03534e-06
-9.21873e-06
-9.40585e-06
-9.59676e-06
-9.79155e-06
-9.99029e-06
-1.01931e-05
-1.04e-05
-1.06111e-05
-1.08264e-05
-1.10462e-05
-1.12704e-05
-1.14991e-05
-1.17325e-05
)
;
    }
    inandouthalf41
    {
        type            cyclic;
        value           nonuniform List<scalar> 
50
(
1.05018e-05
1.05018e-05
1.05018e-05
1.05018e-05
1.05018e-05
1.05018e-05
1.05018e-05
1.05018e-05
1.05018e-05
1.05018e-05
1.05018e-05
1.05018e-05
1.05018e-05
1.05018e-05
1.05018e-05
1.05018e-05
1.05018e-05
1.05018e-05
1.05018e-05
1.05018e-05
1.05018e-05
1.05018e-05
1.05018e-05
1.05018e-05
1.05018e-05
1.05018e-05
1.05018e-05
1.05018e-05
1.05018e-05
1.05018e-05
1.05018e-05
1.05018e-05
1.05018e-05
1.05018e-05
1.05018e-05
1.05018e-05
1.05018e-05
1.05018e-05
1.05018e-05
1.05018e-05
1.05018e-05
1.05018e-05
1.05018e-05
1.05018e-05
1.05018e-05
1.05018e-05
1.05018e-05
1.05018e-05
1.05018e-05
1.05018e-05
)
;
    }
    inandouthalf42
    {
        type            cyclic;
        value           nonuniform List<scalar> 
50
(
-1.05018e-05
-1.05018e-05
-1.05018e-05
-1.05018e-05
-1.05018e-05
-1.05018e-05
-1.05018e-05
-1.05018e-05
-1.05018e-05
-1.05018e-05
-1.05018e-05
-1.05018e-05
-1.05018e-05
-1.05018e-05
-1.05018e-05
-1.05018e-05
-1.05018e-05
-1.05018e-05
-1.05018e-05
-1.05018e-05
-1.05018e-05
-1.05018e-05
-1.05018e-05
-1.05018e-05
-1.05018e-05
-1.05018e-05
-1.05018e-05
-1.05018e-05
-1.05018e-05
-1.05018e-05
-1.05018e-05
-1.05018e-05
-1.05018e-05
-1.05018e-05
-1.05018e-05
-1.05018e-05
-1.05018e-05
-1.05018e-05
-1.05018e-05
-1.05018e-05
-1.05018e-05
-1.05018e-05
-1.05018e-05
-1.05018e-05
-1.05018e-05
-1.05018e-05
-1.05018e-05
-1.05018e-05
-1.05018e-05
-1.05018e-05
)
;
    }
    top
    {
        type            symmetryPlane;
        value           uniform 0;
    }
    walls
    {
        type            calculated;
        value           uniform 0;
    }
    frontAndBackPlanes
    {
        type            empty;
        value           nonuniform 0();
    }
}


// ************************************************************************* //
