/*--------------------------------*- C++ -*----------------------------------*\
| =========                 |                                                 |
| \\      /  F ield         | OpenFOAM: The Open Source CFD Toolbox           |
|  \\    /   O peration     | Version:  2.4.x                                 |
|   \\  /    A nd           | Web:      www.OpenFOAM.org                      |
|    \\/     M anipulation  |                                                 |
\*---------------------------------------------------------------------------*/
FoamFile
{
    version     2.0;
    format      ascii;
    class       surfaceScalarField;
    location    "2.85";
    object      ddt0(phia);
}
// * * * * * * * * * * * * * * * * * * * * * * * * * * * * * * * * * * * * * //

dimensions      [0 3 -2 0 0 0 0];

internalField   nonuniform List<scalar> 
359
(
7.65078e-12
3.07163e-11
6.2236e-11
9.22094e-11
1.15996e-10
1.3318e-10
1.4298e-10
1.41884e-10
1.25053e-10
9.2084e-11
5.18264e-11
1.74603e-11
-4.17588e-12
-1.48909e-11
-1.94637e-11
-2.13132e-11
-2.20579e-11
-2.23372e-11
-2.2396e-11
-2.23418e-11
-2.22394e-11
-2.21389e-11
-2.20765e-11
-2.20688e-11
-2.21125e-11
-2.21912e-11
-2.22854e-11
-2.23785e-11
-2.246e-11
-2.25251e-11
-2.25732e-11
-2.26064e-11
-2.26278e-11
-2.26403e-11
-2.26465e-11
-2.2648e-11
-2.26453e-11
-2.26386e-11
-2.26274e-11
-2.26109e-11
-2.25884e-11
-2.25591e-11
-2.25227e-11
-2.24784e-11
-2.2426e-11
-2.2365e-11
-2.2295e-11
-2.22157e-11
-2.21263e-11
-2.2026e-11
-2.19141e-11
-2.17895e-11
-2.16512e-11
-2.1498e-11
-2.13285e-11
-2.11412e-11
-2.09346e-11
-2.07073e-11
-2.0458e-11
-2.01861e-11
-1.98909e-11
-1.95729e-11
-1.92325e-11
-1.88711e-11
-1.84896e-11
-1.80881e-11
-1.76653e-11
-1.72187e-11
-1.67444e-11
-1.62376e-11
-1.56926e-11
-1.51041e-11
-1.44696e-11
-1.37873e-11
-1.30594e-11
-1.22907e-11
-1.1489e-11
-1.06628e-11
-9.81957e-12
-8.96488e-12
-8.10156e-12
-7.2292e-12
-6.34509e-12
-5.44516e-12
-4.52496e-12
-3.58079e-12
-2.61025e-12
-1.61294e-12
-5.90119e-13
4.55652e-13
1.52108e-12
2.60274e-12
3.69765e-12
4.80334e-12
5.91793e-12
7.03993e-12
8.16808e-12
9.30121e-12
1.04382e-11
1.15779e-11
1.27192e-11
1.38611e-11
1.50027e-11
1.61433e-11
1.72822e-11
1.84187e-11
1.95523e-11
2.06827e-11
2.18095e-11
2.29322e-11
2.40507e-11
2.51644e-11
2.6273e-11
2.73756e-11
2.84709e-11
2.95572e-11
3.06317e-11
3.16908e-11
3.27294e-11
3.37413e-11
3.47189e-11
3.5653e-11
3.65336e-11
3.73498e-11
3.80906e-11
3.87455e-11
3.93051e-11
3.97618e-11
4.01104e-11
4.03494e-11
4.04835e-11
4.05261e-11
4.05019e-11
4.04468e-11
4.04037e-11
4.04176e-11
4.05287e-11
4.07708e-11
4.11669e-11
4.1706e-11
4.2306e-11
4.28168e-11
4.31572e-11
4.332e-11
4.33621e-11
4.3363e-11
2.28559e-10
5.35073e-10
2.74485e-09
2.50818e-08
-3.5304e-09
-3.21466e-08
-5.22834e-08
-7.23291e-08
-8.33864e-08
-9.17643e-08
-9.87001e-08
-1.04406e-07
-1.09038e-07
-1.12731e-07
-1.15617e-07
-1.17825e-07
-1.19486e-07
-1.20721e-07
-1.21641e-07
-1.22343e-07
-1.22908e-07
-1.23402e-07
-1.23878e-07
-1.24373e-07
-1.2491e-07
-1.25495e-07
-1.26106e-07
-1.26695e-07
-1.27184e-07
-1.27528e-07
-1.27806e-07
-1.28333e-07
-1.29632e-07
-1.32192e-07
-1.36114e-07
-1.41099e-07
-1.46753e-07
-1.52765e-07
-1.58844e-07
-1.64615e-07
-1.69479e-07
-1.7259e-07
-1.729e-07
-1.69607e-07
-1.62852e-07
-1.54063e-07
-1.45269e-07
-1.37889e-07
-1.32275e-07
-1.28125e-07
-1.25003e-07
-1.2257e-07
-1.20611e-07
-1.19002e-07
-1.17677e-07
-1.16562e-07
-1.15631e-07
-1.14905e-07
-1.1438e-07
-1.14056e-07
-1.13844e-07
-1.13658e-07
-1.1348e-07
-1.13296e-07
-1.13098e-07
-1.12896e-07
-1.12686e-07
-1.12464e-07
-1.12239e-07
-1.12003e-07
-1.11751e-07
-1.11495e-07
-1.11236e-07
-1.10961e-07
-1.10674e-07
-1.10378e-07
-1.10072e-07
-1.09756e-07
-1.09424e-07
-1.09073e-07
-1.08711e-07
-1.08332e-07
-1.07932e-07
-1.07514e-07
-1.07075e-07
-1.06612e-07
-1.06125e-07
-1.05615e-07
-1.05077e-07
-1.04509e-07
-1.03911e-07
-1.03275e-07
-1.02631e-07
-1.01585e-07
-1.00003e-07
-5.00887e-08
-1.78647e-12
-1.86267e-12
-1.85152e-12
-1.85818e-12
-1.85191e-12
-1.8594e-12
-1.85097e-12
-1.86112e-12
-1.84959e-12
-1.86309e-12
-1.84778e-12
-1.86529e-12
-1.84567e-12
-1.86771e-12
-1.84329e-12
-1.8703e-12
-1.84071e-12
-1.87302e-12
-1.83799e-12
-1.87585e-12
-1.83502e-12
-1.8754e-12
-1.8375e-12
-1.88132e-12
-1.82959e-12
-1.88093e-12
-1.83024e-12
-1.88321e-12
-1.8281e-12
-1.88507e-12
-1.82649e-12
-1.88629e-12
-1.82566e-12
-1.8865e-12
-1.82647e-12
-1.88351e-12
-1.83684e-12
-1.8678e-12
-1.84047e-12
-1.87244e-12
-1.8389e-12
-1.87415e-12
-1.83686e-12
-1.87638e-12
-1.83448e-12
-1.87882e-12
-1.83199e-12
-1.88131e-12
-1.82947e-12
-1.88382e-12
-1.82694e-12
-1.88631e-12
-1.82445e-12
-1.88877e-12
-1.82192e-12
-1.89095e-12
-1.81939e-12
-1.89303e-12
-1.81696e-12
-1.89499e-12
-1.81466e-12
-1.89681e-12
-1.81251e-12
-1.89842e-12
-1.81054e-12
-1.89988e-12
-1.8087e-12
-1.90073e-12
-1.80782e-12
-1.9015e-12
-1.80688e-12
-1.90181e-12
-1.80622e-12
-1.90187e-12
-1.80591e-12
-1.90165e-12
-1.80597e-12
-1.90123e-12
-1.80621e-12
-1.90034e-12
-1.80665e-12
-1.89928e-12
-1.80727e-12
-1.89768e-12
-1.80776e-12
-1.89511e-12
-1.80568e-12
-1.88826e-12
-1.80151e-12
-1.88131e-12
-1.79779e-12
-1.87439e-12
-1.79557e-12
-1.86932e-12
-1.79373e-12
-1.86278e-12
-1.79289e-12
-1.85924e-12
-1.79441e-12
-1.85666e-12
-1.79844e-12
-1.85689e-12
-1.80229e-12
-1.85358e-12
-1.80626e-12
-1.85229e-12
-1.8134e-12
-1.85199e-12
-1.82264e-12
-1.85368e-12
-1.83379e-12
-1.8574e-12
-1.84504e-12
-1.85937e-12
-1.85276e-12
-1.80345e-12
-7.95692e-13
)
;

boundaryField
{
    inandouthalf11
    {
        type            cyclic;
        value           nonuniform List<scalar> 
100
(
5.82242e-39
-7.10459e-13
-2.28077e-12
-4.0233e-12
-5.48359e-12
-6.56032e-12
-7.23689e-12
-7.39837e-12
-6.79821e-12
-5.26867e-12
-3.09116e-12
-9.91734e-13
4.53778e-13
1.2111e-12
1.54305e-12
1.67858e-12
1.73396e-12
1.75615e-12
1.76287e-12
1.76132e-12
1.75545e-12
1.74848e-12
1.7432e-12
1.74148e-12
1.74381e-12
1.74949e-12
1.75721e-12
1.76567e-12
1.77388e-12
1.78128e-12
1.78766e-12
1.79309e-12
1.79775e-12
1.80188e-12
1.80569e-12
1.80934e-12
1.81292e-12
1.81644e-12
1.81987e-12
1.82315e-12
1.8262e-12
1.82895e-12
1.83132e-12
1.83326e-12
1.83472e-12
1.83567e-12
1.83605e-12
1.83584e-12
1.83497e-12
1.8334e-12
1.83105e-12
1.82784e-12
1.82368e-12
1.81848e-12
1.8121e-12
1.80443e-12
1.79533e-12
1.78465e-12
1.77229e-12
1.75811e-12
1.74204e-12
1.72404e-12
1.70411e-12
1.68229e-12
1.65864e-12
1.63317e-12
1.60583e-12
1.57645e-12
1.54477e-12
1.51043e-12
1.47301e-12
1.43206e-12
1.38728e-12
1.3385e-12
1.28583e-12
1.22962e-12
1.17053e-12
1.10936e-12
1.04692e-12
9.83876e-13
9.20659e-13
8.57431e-13
7.94096e-13
7.30379e-13
6.65925e-13
6.00386e-13
5.33502e-13
4.65159e-13
3.95404e-13
3.24426e-13
2.52514e-13
1.80004e-13
1.07231e-13
3.44974e-14
-3.79384e-14
-1.09855e-13
-1.81059e-13
-2.51369e-13
-3.20615e-13
-3.88627e-13
)
;
    }
    inandouthalf12
    {
        type            cyclic;
        value           nonuniform List<scalar> 
100
(
-5.82242e-39
7.10459e-13
2.28077e-12
4.0233e-12
5.48359e-12
6.56032e-12
7.23689e-12
7.39837e-12
6.79821e-12
5.26867e-12
3.09116e-12
9.91734e-13
-4.53778e-13
-1.2111e-12
-1.54305e-12
-1.67858e-12
-1.73396e-12
-1.75615e-12
-1.76287e-12
-1.76132e-12
-1.75545e-12
-1.74848e-12
-1.7432e-12
-1.74148e-12
-1.74381e-12
-1.74949e-12
-1.75721e-12
-1.76567e-12
-1.77388e-12
-1.78128e-12
-1.78766e-12
-1.79309e-12
-1.79775e-12
-1.80188e-12
-1.80569e-12
-1.80934e-12
-1.81292e-12
-1.81644e-12
-1.81987e-12
-1.82315e-12
-1.8262e-12
-1.82895e-12
-1.83132e-12
-1.83326e-12
-1.83472e-12
-1.83567e-12
-1.83605e-12
-1.83584e-12
-1.83497e-12
-1.8334e-12
-1.83105e-12
-1.82784e-12
-1.82368e-12
-1.81848e-12
-1.8121e-12
-1.80443e-12
-1.79533e-12
-1.78465e-12
-1.77229e-12
-1.75811e-12
-1.74204e-12
-1.72404e-12
-1.70411e-12
-1.68229e-12
-1.65864e-12
-1.63317e-12
-1.60583e-12
-1.57645e-12
-1.54477e-12
-1.51043e-12
-1.47301e-12
-1.43206e-12
-1.38728e-12
-1.3385e-12
-1.28583e-12
-1.22962e-12
-1.17053e-12
-1.10936e-12
-1.04692e-12
-9.83876e-13
-9.20659e-13
-8.57431e-13
-7.94096e-13
-7.30379e-13
-6.65925e-13
-6.00386e-13
-5.33502e-13
-4.65159e-13
-3.95404e-13
-3.24426e-13
-2.52514e-13
-1.80004e-13
-1.07231e-13
-3.44974e-14
3.79384e-14
1.09855e-13
1.81059e-13
2.51369e-13
3.20615e-13
3.88627e-13
)
;
    }
    inandouthalf21
    {
        type            cyclic;
        value           nonuniform List<scalar> 
100
(
-4.55243e-13
-5.20307e-13
-5.83677e-13
-6.45224e-13
-7.04831e-13
-7.62397e-13
-8.17833e-13
-8.71067e-13
-9.22039e-13
-9.70704e-13
-1.01703e-12
-1.06099e-12
-1.10257e-12
-1.14171e-12
-1.17836e-12
-1.21239e-12
-1.24359e-12
-1.27166e-12
-1.29615e-12
-1.31644e-12
-1.33172e-12
-1.34096e-12
-1.34295e-12
-1.33623e-12
-1.31919e-12
-1.29e-12
-1.24668e-12
-1.18705e-12
-1.10878e-12
-1.00955e-12
-8.8723e-13
-7.40393e-13
-5.68591e-13
-3.72578e-13
-1.54649e-13
8.03784e-14
3.24365e-13
5.67023e-13
7.98181e-13
1.00637e-12
1.17423e-12
1.28538e-12
1.34371e-12
1.3679e-12
1.37522e-12
1.37772e-12
1.38006e-12
-3.15186e-11
-1.10281e-10
-7.10143e-10
4.27305e-07
6.19944e-07
7.30644e-07
8.0153e-07
8.55005e-07
8.98797e-07
9.36372e-07
9.69574e-07
9.99507e-07
1.02689e-06
1.05222e-06
1.07586e-06
1.09808e-06
1.1191e-06
1.13907e-06
1.15813e-06
1.17637e-06
1.19387e-06
1.21068e-06
1.22685e-06
1.24239e-06
1.25731e-06
1.2716e-06
1.28527e-06
1.29828e-06
1.31063e-06
1.3223e-06
1.33329e-06
1.34359e-06
1.35322e-06
1.36217e-06
1.37043e-06
1.37796e-06
1.38467e-06
1.39049e-06
1.39535e-06
1.3992e-06
1.40199e-06
1.40375e-06
1.40457e-06
1.40467e-06
1.40434e-06
1.40388e-06
1.40354e-06
1.40338e-06
1.40339e-06
1.40347e-06
1.40354e-06
1.40357e-06
1.40353e-06
)
;
    }
    inandouthalf22
    {
        type            cyclic;
        value           nonuniform List<scalar> 
100
(
4.55243e-13
5.20307e-13
5.83677e-13
6.45224e-13
7.04831e-13
7.62397e-13
8.17833e-13
8.71067e-13
9.22039e-13
9.70704e-13
1.01703e-12
1.06099e-12
1.10257e-12
1.14171e-12
1.17836e-12
1.21239e-12
1.24359e-12
1.27166e-12
1.29615e-12
1.31644e-12
1.33172e-12
1.34096e-12
1.34295e-12
1.33623e-12
1.31919e-12
1.29e-12
1.24668e-12
1.18705e-12
1.10878e-12
1.00955e-12
8.8723e-13
7.40393e-13
5.68591e-13
3.72578e-13
1.54649e-13
-8.03784e-14
-3.24365e-13
-5.67023e-13
-7.98181e-13
-1.00637e-12
-1.17423e-12
-1.28538e-12
-1.34371e-12
-1.3679e-12
-1.37522e-12
-1.37772e-12
-1.38006e-12
3.15186e-11
1.10281e-10
7.10143e-10
-4.27305e-07
-6.19944e-07
-7.30644e-07
-8.0153e-07
-8.55005e-07
-8.98797e-07
-9.36372e-07
-9.69574e-07
-9.99507e-07
-1.02689e-06
-1.05222e-06
-1.07586e-06
-1.09808e-06
-1.1191e-06
-1.13907e-06
-1.15813e-06
-1.17637e-06
-1.19387e-06
-1.21068e-06
-1.22685e-06
-1.24239e-06
-1.25731e-06
-1.2716e-06
-1.28527e-06
-1.29828e-06
-1.31063e-06
-1.3223e-06
-1.33329e-06
-1.34359e-06
-1.35322e-06
-1.36217e-06
-1.37043e-06
-1.37796e-06
-1.38467e-06
-1.39049e-06
-1.39535e-06
-1.3992e-06
-1.40199e-06
-1.40375e-06
-1.40457e-06
-1.40467e-06
-1.40434e-06
-1.40388e-06
-1.40354e-06
-1.40338e-06
-1.40339e-06
-1.40347e-06
-1.40354e-06
-1.40357e-06
-1.40353e-06
)
;
    }
    inandouthalf31
    {
        type            cyclic;
        value           nonuniform List<scalar> 
110
(
1.40342e-06
1.43169e-06
1.46045e-06
1.4897e-06
1.51941e-06
1.54956e-06
1.58023e-06
1.61153e-06
1.64346e-06
1.67605e-06
1.70937e-06
1.74337e-06
1.77807e-06
1.8135e-06
1.84965e-06
1.88652e-06
1.92417e-06
1.96257e-06
2.00171e-06
2.04165e-06
2.0824e-06
2.12395e-06
2.16631e-06
2.2095e-06
2.25355e-06
2.29848e-06
2.34427e-06
2.39094e-06
2.43853e-06
2.48702e-06
2.53644e-06
2.5868e-06
2.6381e-06
2.69036e-06
2.74357e-06
2.79776e-06
2.85291e-06
2.90903e-06
2.96609e-06
3.02403e-06
3.08428e-06
3.14669e-06
3.05294e-06
3.1149e-06
3.17813e-06
3.24263e-06
3.30845e-06
3.3756e-06
3.44412e-06
3.51403e-06
3.58535e-06
3.65812e-06
3.73237e-06
3.80813e-06
3.88543e-06
3.96429e-06
4.04475e-06
4.12685e-06
4.21062e-06
4.29608e-06
4.38328e-06
4.47225e-06
4.56302e-06
4.65564e-06
4.75014e-06
4.84655e-06
4.94493e-06
5.04529e-06
5.1477e-06
5.25218e-06
5.35879e-06
5.46756e-06
5.57854e-06
5.69177e-06
5.80729e-06
5.92517e-06
6.04543e-06
6.16814e-06
6.29333e-06
6.42107e-06
6.5514e-06
6.68438e-06
6.82005e-06
6.95848e-06
7.09972e-06
7.24383e-06
7.39086e-06
7.54087e-06
7.69393e-06
7.8501e-06
8.00943e-06
8.172e-06
8.33787e-06
8.50711e-06
8.67978e-06
8.85596e-06
9.03571e-06
9.21911e-06
9.40623e-06
9.59716e-06
9.79195e-06
9.9907e-06
1.01935e-05
1.04004e-05
1.06115e-05
1.08269e-05
1.10466e-05
1.12708e-05
1.14996e-05
1.1733e-05
)
;
    }
    inandouthalf32
    {
        type            cyclic;
        value           nonuniform List<scalar> 
110
(
-1.40342e-06
-1.43169e-06
-1.46045e-06
-1.4897e-06
-1.51941e-06
-1.54956e-06
-1.58023e-06
-1.61153e-06
-1.64346e-06
-1.67605e-06
-1.70937e-06
-1.74337e-06
-1.77807e-06
-1.8135e-06
-1.84965e-06
-1.88652e-06
-1.92417e-06
-1.96257e-06
-2.00171e-06
-2.04165e-06
-2.0824e-06
-2.12395e-06
-2.16631e-06
-2.2095e-06
-2.25355e-06
-2.29848e-06
-2.34427e-06
-2.39094e-06
-2.43853e-06
-2.48702e-06
-2.53644e-06
-2.5868e-06
-2.6381e-06
-2.69036e-06
-2.74357e-06
-2.79776e-06
-2.85291e-06
-2.90903e-06
-2.96609e-06
-3.02403e-06
-3.08428e-06
-3.14669e-06
-3.05294e-06
-3.1149e-06
-3.17813e-06
-3.24263e-06
-3.30845e-06
-3.3756e-06
-3.44412e-06
-3.51403e-06
-3.58535e-06
-3.65812e-06
-3.73237e-06
-3.80813e-06
-3.88543e-06
-3.96429e-06
-4.04475e-06
-4.12685e-06
-4.21062e-06
-4.29608e-06
-4.38328e-06
-4.47225e-06
-4.56302e-06
-4.65564e-06
-4.75014e-06
-4.84655e-06
-4.94493e-06
-5.04529e-06
-5.1477e-06
-5.25218e-06
-5.35879e-06
-5.46756e-06
-5.57854e-06
-5.69177e-06
-5.80729e-06
-5.92517e-06
-6.04543e-06
-6.16814e-06
-6.29333e-06
-6.42107e-06
-6.5514e-06
-6.68438e-06
-6.82005e-06
-6.95848e-06
-7.09972e-06
-7.24383e-06
-7.39086e-06
-7.54087e-06
-7.69393e-06
-7.8501e-06
-8.00943e-06
-8.172e-06
-8.33787e-06
-8.50711e-06
-8.67978e-06
-8.85596e-06
-9.03571e-06
-9.21911e-06
-9.40623e-06
-9.59716e-06
-9.79195e-06
-9.9907e-06
-1.01935e-05
-1.04004e-05
-1.06115e-05
-1.08269e-05
-1.10466e-05
-1.12708e-05
-1.14996e-05
-1.1733e-05
)
;
    }
    inandouthalf41
    {
        type            cyclic;
        value           nonuniform List<scalar> 
50
(
1.05023e-05
1.05023e-05
1.05023e-05
1.05023e-05
1.05023e-05
1.05023e-05
1.05023e-05
1.05023e-05
1.05023e-05
1.05023e-05
1.05023e-05
1.05023e-05
1.05023e-05
1.05023e-05
1.05023e-05
1.05023e-05
1.05023e-05
1.05023e-05
1.05023e-05
1.05023e-05
1.05023e-05
1.05023e-05
1.05023e-05
1.05023e-05
1.05023e-05
1.05023e-05
1.05023e-05
1.05023e-05
1.05023e-05
1.05023e-05
1.05023e-05
1.05023e-05
1.05023e-05
1.05023e-05
1.05023e-05
1.05023e-05
1.05023e-05
1.05023e-05
1.05023e-05
1.05023e-05
1.05023e-05
1.05023e-05
1.05023e-05
1.05023e-05
1.05023e-05
1.05023e-05
1.05023e-05
1.05023e-05
1.05023e-05
1.05023e-05
)
;
    }
    inandouthalf42
    {
        type            cyclic;
        value           nonuniform List<scalar> 
50
(
-1.05023e-05
-1.05023e-05
-1.05023e-05
-1.05023e-05
-1.05023e-05
-1.05023e-05
-1.05023e-05
-1.05023e-05
-1.05023e-05
-1.05023e-05
-1.05023e-05
-1.05023e-05
-1.05023e-05
-1.05023e-05
-1.05023e-05
-1.05023e-05
-1.05023e-05
-1.05023e-05
-1.05023e-05
-1.05023e-05
-1.05023e-05
-1.05023e-05
-1.05023e-05
-1.05023e-05
-1.05023e-05
-1.05023e-05
-1.05023e-05
-1.05023e-05
-1.05023e-05
-1.05023e-05
-1.05023e-05
-1.05023e-05
-1.05023e-05
-1.05023e-05
-1.05023e-05
-1.05023e-05
-1.05023e-05
-1.05023e-05
-1.05023e-05
-1.05023e-05
-1.05023e-05
-1.05023e-05
-1.05023e-05
-1.05023e-05
-1.05023e-05
-1.05023e-05
-1.05023e-05
-1.05023e-05
-1.05023e-05
-1.05023e-05
)
;
    }
    top
    {
        type            symmetryPlane;
        value           uniform 0;
    }
    walls
    {
        type            calculated;
        value           uniform 0;
    }
    frontAndBackPlanes
    {
        type            empty;
        value           nonuniform 0();
    }
}


// ************************************************************************* //
