/*--------------------------------*- C++ -*----------------------------------*\
| =========                 |                                                 |
| \\      /  F ield         | OpenFOAM: The Open Source CFD Toolbox           |
|  \\    /   O peration     | Version:  2.4.x                                 |
|   \\  /    A nd           | Web:      www.OpenFOAM.org                      |
|    \\/     M anipulation  |                                                 |
\*---------------------------------------------------------------------------*/
FoamFile
{
    version     2.0;
    format      ascii;
    class       volVectorField;
    location    "2.85";
    object      ddt0(Ua);
}
// * * * * * * * * * * * * * * * * * * * * * * * * * * * * * * * * * * * * * //

dimensions      [0 1 -2 0 0 0 0];

internalField   nonuniform List<vector> 
360
(
(-5.82242e-33 -1.76327e-32 0)
(7.10459e-07 3.79522e-06 0)
(2.28077e-06 1.1509e-05 0)
(4.0233e-06 1.9665e-05 0)
(5.48359e-06 2.64434e-05 0)
(6.56032e-06 3.15547e-05 0)
(7.23689e-06 3.50505e-05 0)
(7.39837e-06 3.64551e-05 0)
(6.79821e-06 3.44955e-05 0)
(5.26867e-06 2.80216e-05 0)
(3.09116e-06 1.79991e-05 0)
(9.91734e-07 7.91229e-06 0)
(-4.53778e-07 8.25643e-07 0)
(-1.2111e-06 -2.90701e-06 0)
(-1.54305e-06 -4.53625e-06 0)
(-1.67858e-06 -5.1951e-06 0)
(-1.73396e-06 -5.46139e-06 0)
(-1.75615e-06 -5.56755e-06 0)
(-1.76287e-06 -5.60102e-06 0)
(-1.76132e-06 -5.59699e-06 0)
(-1.75545e-06 -5.57394e-06 0)
(-1.74848e-06 -5.54576e-06 0)
(-1.7432e-06 -5.52368e-06 0)
(-1.74148e-06 -5.51457e-06 0)
(-1.74381e-06 -5.51983e-06 0)
(-1.74949e-06 -5.5364e-06 0)
(-1.75721e-06 -5.55922e-06 0)
(-1.76567e-06 -5.58349e-06 0)
(-1.77388e-06 -5.60577e-06 0)
(-1.78128e-06 -5.62423e-06 0)
(-1.78766e-06 -5.63831e-06 0)
(-1.79309e-06 -5.6483e-06 0)
(-1.79775e-06 -5.65492e-06 0)
(-1.80188e-06 -5.65897e-06 0)
(-1.80569e-06 -5.66119e-06 0)
(-1.80934e-06 -5.66207e-06 0)
(-1.81292e-06 -5.66191e-06 0)
(-1.81644e-06 -5.66076e-06 0)
(-1.81987e-06 -5.65855e-06 0)
(-1.82315e-06 -5.65513e-06 0)
(-1.8262e-06 -5.6503e-06 0)
(-1.82895e-06 -5.64388e-06 0)
(-1.83132e-06 -5.6357e-06 0)
(-1.83326e-06 -5.62564e-06 0)
(-1.83472e-06 -5.61357e-06 0)
(-1.83567e-06 -5.59941e-06 0)
(-1.83605e-06 -5.58307e-06 0)
(-1.83584e-06 -5.56445e-06 0)
(-1.83497e-06 -5.54341e-06 0)
(-1.8334e-06 -5.51975e-06 0)
(-1.83105e-06 -5.49328e-06 0)
(-1.82784e-06 -5.46377e-06 0)
(-1.82368e-06 -5.43098e-06 0)
(-1.81848e-06 -5.39462e-06 0)
(-1.8121e-06 -5.35438e-06 0)
(-1.80443e-06 -5.30987e-06 0)
(-1.79533e-06 -5.26073e-06 0)
(-1.78465e-06 -5.20657e-06 0)
(-1.77229e-06 -5.14706e-06 0)
(-1.75811e-06 -5.08196e-06 0)
(-1.74204e-06 -5.01108e-06 0)
(-1.72404e-06 -4.93439e-06 0)
(-1.70411e-06 -4.85202e-06 0)
(-1.68229e-06 -4.76423e-06 0)
(-1.65864e-06 -4.67132e-06 0)
(-1.63317e-06 -4.57347e-06 0)
(-1.60583e-06 -4.47056e-06 0)
(-1.57645e-06 -4.36209e-06 0)
(-1.54477e-06 -4.24726e-06 0)
(-1.51043e-06 -4.12497e-06 0)
(-1.47301e-06 -3.99384e-06 0)
(-1.43206e-06 -3.85242e-06 0)
(-1.38728e-06 -3.69969e-06 0)
(-1.3385e-06 -3.53506e-06 0)
(-1.28583e-06 -3.35858e-06 0)
(-1.22962e-06 -3.17109e-06 0)
(-1.17053e-06 -2.97426e-06 0)
(-1.10936e-06 -2.77025e-06 0)
(-1.04692e-06 -2.56114e-06 0)
(-9.83876e-07 -2.34864e-06 0)
(-9.20659e-07 -2.13382e-06 0)
(-8.57431e-07 -1.91696e-06 0)
(-7.94096e-07 -1.69763e-06 0)
(-7.30379e-07 -1.47491e-06 0)
(-6.65925e-07 -1.24766e-06 0)
(-6.00386e-07 -1.01482e-06 0)
(-5.33502e-07 -7.75567e-07 0)
(-4.65159e-07 -5.29557e-07 0)
(-3.95404e-07 -2.76912e-07 0)
(-3.24426e-07 -1.81464e-08 0)
(-2.52514e-07 2.45971e-07 0)
(-1.80004e-07 5.14563e-07 0)
(-1.07231e-07 7.86806e-07 0)
(-3.44974e-08 1.06202e-06 0)
(3.79384e-08 1.33966e-06 0)
(1.09855e-07 1.61931e-06 0)
(1.81059e-07 1.90065e-06 0)
(2.51369e-07 2.18339e-06 0)
(3.20615e-07 2.46722e-06 0)
(3.88627e-07 2.75187e-06 0)
(4.55243e-07 3.03707e-06 0)
(5.20307e-07 3.32253e-06 0)
(5.83677e-07 3.60803e-06 0)
(6.45224e-07 3.89335e-06 0)
(7.04831e-07 4.17831e-06 0)
(7.62397e-07 4.46277e-06 0)
(8.17833e-07 4.74657e-06 0)
(8.71067e-07 5.0296e-06 0)
(9.22039e-07 5.31177e-06 0)
(9.70704e-07 5.59297e-06 0)
(1.01703e-06 5.87314e-06 0)
(1.06099e-06 6.1522e-06 0)
(1.10257e-06 6.43003e-06 0)
(1.14171e-06 6.70648e-06 0)
(1.17836e-06 6.98131e-06 0)
(1.21239e-06 7.25415e-06 0)
(1.24359e-06 7.52445e-06 0)
(1.27166e-06 7.79141e-06 0)
(1.29615e-06 8.05397e-06 0)
(1.31644e-06 8.31073e-06 0)
(1.33172e-06 8.55994e-06 0)
(1.34096e-06 8.7995e-06 0)
(1.34295e-06 9.027e-06 0)
(1.33623e-06 9.23979e-06 0)
(1.31919e-06 9.4351e-06 0)
(1.29e-06 9.61019e-06 0)
(1.24668e-06 9.76255e-06 0)
(1.18705e-06 9.89001e-06 0)
(1.10878e-06 9.9909e-06 0)
(1.00955e-06 1.00643e-05 0)
(8.8723e-07 1.01104e-05 0)
(7.40393e-07 1.01313e-05 0)
(5.68591e-07 1.01317e-05 0)
(3.72578e-07 1.01193e-05 0)
(1.54649e-07 1.01042e-05 0)
(-8.03784e-08 1.00978e-05 0)
(-3.24365e-07 1.0111e-05 0)
(-5.67023e-07 1.01533e-05 0)
(-7.98181e-07 1.0232e-05 0)
(-1.00637e-06 1.03516e-05 0)
(-1.17423e-06 1.05021e-05 0)
(-1.28538e-06 1.06493e-05 0)
(-1.34371e-06 1.0759e-05 0)
(-1.3679e-06 1.08203e-05 0)
(-1.37522e-06 1.08398e-05 0)
(-1.37772e-06 1.0841e-05 0)
(-1.38006e-06 1.08402e-05 0)
(3.15186e-05 8.37594e-05 0)
(0.000110281 0.000205809 0)
(0.000710143 0.00135268 0)
(-0.427305 0.00936524 0)
(-0.619944 -0.00655312 0)
(-0.730644 -0.011277 0)
(-0.80153 -0.0158922 0)
(-0.855005 -0.0196241 0)
(-0.898797 -0.0220554 0)
(-0.936372 -0.0239162 0)
(-0.969574 -0.0254634 0)
(-0.999507 -0.0267415 0)
(-1.02689 -0.0277728 0)
(-1.05222 -0.0285866 0)
(-1.07586 -0.0292152 0)
(-1.09808 -0.0296914 0)
(-1.1191 -0.0300466 0)
(-1.13907 -0.0303101 0)
(-1.15813 -0.0305077 0)
(-1.17637 -0.0306618 0)
(-1.19387 -0.0307908 0)
(-1.21068 -0.0309095 0)
(-1.22685 -0.0310292 0)
(-1.24239 -0.0311577 0)
(-1.25731 -0.0312988 0)
(-1.2716 -0.0314509 0)
(-1.28527 -0.0316044 0)
(-1.29828 -0.0317405 0)
(-1.31063 -0.0318389 0)
(-1.3223 -0.0319003 0)
(-1.33329 -0.0319769 0)
(-1.34359 -0.0321834 0)
(-1.35322 -0.0326565 0)
(-1.36217 -0.0334724 0)
(-1.37043 -0.0346013 0)
(-1.37796 -0.0359503 0)
(-1.38467 -0.0374288 0)
(-1.39049 -0.0389647 0)
(-1.39535 -0.0404807 0)
(-1.3992 -0.0418604 0)
(-1.40199 -0.0429174 0)
(-1.40375 -0.0433911 0)
(-1.40457 -0.0430162 0)
(-1.40467 -0.0416925 0)
(-1.40434 -0.0396452 0)
(-1.40388 -0.0373644 0)
(-1.40354 -0.0353092 0)
(-1.40338 -0.0336868 0)
(-1.40339 -0.0324812 0)
(-1.40347 -0.0315892 0)
(-1.40354 -0.0309096 0)
(-1.40357 -0.0303711 0)
(-1.40353 -0.0299318 0)
(-1.40341 -0.0295689 0)
(-1.40321 -0.0292655 0)
(-1.40292 -0.0290109 0)
(-1.40255 -0.0288039 0)
(-1.40206 -0.0286483 0)
(-1.40143 -0.0285455 0)
(-1.40074 -0.0284821 0)
(-1.40007 -0.0284347 0)
(-1.3994 -0.0283914 0)
(-1.39877 -0.0283476 0)
(-1.39819 -0.0282997 0)
(-1.39764 -0.0282493 0)
(-1.3971 -0.0281981 0)
(-1.39659 -0.0281439 0)
(-1.39609 -0.0280878 0)
(-1.39559 -0.0280309 0)
(-1.39513 -0.0279696 0)
(-1.39466 -0.0279054 0)
(-1.39418 -0.0278417 0)
(-1.39371 -0.0277755 0)
(-1.39325 -0.0277046 0)
(-1.39278 -0.0276316 0)
(-1.3923 -0.0275564 0)
(-1.3918 -0.0274789 0)
(-1.39131 -0.0273984 0)
(-1.39082 -0.0273126 0)
(-1.3903 -0.0272232 0)
(-1.38978 -0.0271314 0)
(-1.38924 -0.0270338 0)
(-1.38868 -0.0269313 0)
(-1.3881 -0.0268247 0)
(-1.3875 -0.0267118 0)
(-1.38686 -0.026593 0)
(-1.3862 -0.0264685 0)
(-1.3855 -0.0263378 0)
(-1.38475 -0.0261995 0)
(-1.38396 -0.0260535 0)
(-1.38311 -0.0259003 0)
(-1.38219 -0.0257357 0)
(-1.38115 -0.0255807 0)
(-1.38065 -0.0252017 0)
(-1.38056 -0.0248001 0)
(-1.31278 -4.36729e-07 0)
(-1.31278 -4.57545e-07 0)
(-1.31278 -4.7275e-07 0)
(-1.31278 -4.54141e-07 0)
(-1.31278 -4.73655e-07 0)
(-1.31278 -4.53823e-07 0)
(-1.31278 -4.74074e-07 0)
(-1.31278 -4.53548e-07 0)
(-1.31278 -4.74495e-07 0)
(-1.31278 -4.53245e-07 0)
(-1.31278 -4.74883e-07 0)
(-1.31278 -4.52924e-07 0)
(-1.31278 -4.75262e-07 0)
(-1.31278 -4.52601e-07 0)
(-1.31278 -4.75623e-07 0)
(-1.31278 -4.52278e-07 0)
(-1.31278 -4.75966e-07 0)
(-1.31278 -4.51964e-07 0)
(-1.31278 -4.76288e-07 0)
(-1.31278 -4.51666e-07 0)
(-1.31278 -4.76586e-07 0)
(-1.31278 -4.51316e-07 0)
(-1.31278 -4.75267e-07 0)
(-1.31278 -4.55206e-07 0)
(-1.31278 -4.73527e-07 0)
(-1.31278 -4.53186e-07 0)
(-1.31278 -4.75018e-07 0)
(-1.31278 -4.52966e-07 0)
(-1.31278 -4.75204e-07 0)
(-1.31278 -4.52799e-07 0)
(-1.31278 -4.7533e-07 0)
(-1.31278 -4.52706e-07 0)
(-1.31278 -4.75357e-07 0)
(-1.31278 -4.52735e-07 0)
(-1.31278 -4.75232e-07 0)
(-1.31278 -4.52928e-07 0)
(-1.31278 -4.7539e-07 0)
(-1.31278 -4.53413e-07 0)
(-1.31278 -4.72557e-07 0)
(-1.31278 -4.55447e-07 0)
(-1.31278 -4.72427e-07 0)
(-1.31278 -4.55719e-07 0)
(-1.31278 -4.72217e-07 0)
(-1.31278 -4.55873e-07 0)
(-1.31278 -4.7209e-07 0)
(-1.31278 -4.55978e-07 0)
(-1.31278 -4.71993e-07 0)
(-1.31278 -4.56064e-07 0)
(-1.31278 -4.71903e-07 0)
(-1.31278 -4.56146e-07 0)
(-1.31278 -4.71817e-07 0)
(-1.31278 -4.56227e-07 0)
(-1.31278 -4.71729e-07 0)
(-1.31278 -4.56313e-07 0)
(-1.31278 -4.71629e-07 0)
(-1.31278 -4.56365e-07 0)
(-1.31278 -4.71486e-07 0)
(-1.31278 -4.5641e-07 0)
(-1.31278 -4.71339e-07 0)
(-1.31278 -4.56457e-07 0)
(-1.31278 -4.71187e-07 0)
(-1.31278 -4.56509e-07 0)
(-1.31278 -4.71032e-07 0)
(-1.31278 -4.56558e-07 0)
(-1.31278 -4.70868e-07 0)
(-1.31278 -4.56614e-07 0)
(-1.31278 -4.70708e-07 0)
(-1.31278 -4.56636e-07 0)
(-1.31278 -4.69636e-07 0)
(-1.31278 -4.57815e-07 0)
(-1.31278 -4.69187e-07 0)
(-1.31278 -4.58158e-07 0)
(-1.31278 -4.68721e-07 0)
(-1.31278 -4.58503e-07 0)
(-1.31278 -4.68274e-07 0)
(-1.31278 -4.58852e-07 0)
(-1.31278 -4.67839e-07 0)
(-1.31278 -4.59217e-07 0)
(-1.31278 -4.67409e-07 0)
(-1.31278 -4.59541e-07 0)
(-1.31278 -4.6695e-07 0)
(-1.31278 -4.59863e-07 0)
(-1.31278 -4.665e-07 0)
(-1.31278 -4.60133e-07 0)
(-1.31278 -4.65973e-07 0)
(-1.31278 -4.60256e-07 0)
(-1.31278 -4.65011e-07 0)
(-1.31278 -4.59516e-07 0)
(-1.31278 -4.63262e-07 0)
(-1.31278 -4.58492e-07 0)
(-1.31278 -4.6157e-07 0)
(-1.31278 -4.57518e-07 0)
(-1.31278 -4.60076e-07 0)
(-1.31278 -4.56949e-07 0)
(-1.31278 -4.58873e-07 0)
(-1.31278 -4.56235e-07 0)
(-1.31278 -4.57626e-07 0)
(-1.31278 -4.56007e-07 0)
(-1.31278 -4.57059e-07 0)
(-1.31278 -4.56181e-07 0)
(-1.31278 -4.56943e-07 0)
(-1.31278 -4.57005e-07 0)
(-1.31278 -4.57166e-07 0)
(-1.31278 -4.5735e-07 0)
(-1.31278 -4.56982e-07 0)
(-1.31278 -4.57944e-07 0)
(-1.31278 -4.57464e-07 0)
(-1.31278 -4.59036e-07 0)
(-1.31278 -4.58355e-07 0)
(-1.31278 -4.60619e-07 0)
(-1.31278 -4.59758e-07 0)
(-1.31278 -4.62667e-07 0)
(-1.31278 -4.61456e-07 0)
(-1.31278 -4.6454e-07 0)
(-1.31278 -4.62802e-07 0)
(-1.31278 -4.64725e-07 0)
(-1.31278 -4.34978e-07 0)
(-1.31278 7.81323e-08 0)
)
;

boundaryField
{
    inandouthalf11
    {
        type            cyclic;
    }
    inandouthalf12
    {
        type            cyclic;
    }
    inandouthalf21
    {
        type            cyclic;
    }
    inandouthalf22
    {
        type            cyclic;
    }
    inandouthalf31
    {
        type            cyclic;
    }
    inandouthalf32
    {
        type            cyclic;
    }
    inandouthalf41
    {
        type            cyclic;
    }
    inandouthalf42
    {
        type            cyclic;
    }
    top
    {
        type            symmetryPlane;
    }
    walls
    {
        type            calculated;
        value           uniform (0 0 0);
    }
    frontAndBackPlanes
    {
        type            empty;
    }
}


// ************************************************************************* //
