/*--------------------------------*- C++ -*----------------------------------*\
| =========                 |                                                 |
| \\      /  F ield         | OpenFOAM: The Open Source CFD Toolbox           |
|  \\    /   O peration     | Version:  2.4.x                                 |
|   \\  /    A nd           | Web:      www.OpenFOAM.org                      |
|    \\/     M anipulation  |                                                 |
\*---------------------------------------------------------------------------*/
FoamFile
{
    version     2.0;
    format      ascii;
    class       volVectorField;
    location    "2.85";
    object      gradPs;
}
// * * * * * * * * * * * * * * * * * * * * * * * * * * * * * * * * * * * * * //

dimensions      [0 1 -2 0 0 0 0];

internalField   nonuniform List<vector> 
360
(
(0 4.23006e-18 0)
(0 8.14908e-18 0)
(0 3.88985e-18 0)
(0 -9.29048e-19 0)
(-1.45344e-32 -9.11371e-19 0)
(-1.45351e-32 1.32038e-18 0)
(-1.45364e-32 3.69988e-18 0)
(0 3.972e-18 0)
(-1.45393e-32 -7.4972e-20 0)
(0 -6.25174e-18 0)
(-2.90831e-32 -8.68847e-18 0)
(0 -6.10838e-18 0)
(-1.45426e-32 -2.60284e-18 0)
(0 -7.52463e-19 0)
(0 -1.734e-19 0)
(0 -4.02072e-20 0)
(0 -1.17457e-20 0)
(-1.45431e-32 -4.6163e-21 0)
(0 -3.91611e-21 0)
(0 -2.89628e-21 0)
(0 -2.51012e-21 0)
(-1.45432e-32 -4.27994e-21 0)
(0 -4.74111e-21 0)
(0 -5.43878e-21 0)
(0 -6.12629e-21 0)
(-2.90867e-32 -6.58175e-21 0)
(0 -8.44456e-21 0)
(0 -1.01003e-20 0)
(0 -9.97226e-21 0)
(0 -9.83181e-21 0)
(0 -1.13642e-20 0)
(0 -1.11855e-20 0)
(0 -1.27137e-20 0)
(0 -1.42622e-20 0)
(0 -1.41372e-20 0)
(1.45441e-32 -1.56922e-20 0)
(0 -1.72287e-20 0)
(0 -2.04572e-20 0)
(0 -2.03423e-20 0)
(0 -2.19474e-20 0)
(0 -2.51963e-20 0)
(0 -2.50094e-20 0)
(1.45451e-32 -2.81277e-20 0)
(0 -3.11725e-20 0)
(0 -3.25118e-20 0)
(0 -3.54947e-20 0)
(0 -3.66677e-20 0)
(0 -3.93223e-20 0)
(0 -4.51274e-20 0)
(0 -4.75142e-20 0)
(1.45472e-32 -4.98699e-20 0)
(0 -5.37641e-20 0)
(0 -5.7385e-20 0)
(0 -6.06854e-20 0)
(0 -6.52249e-20 0)
(0 -6.93455e-20 0)
(0 -7.30216e-20 0)
(0 -7.78002e-20 0)
(0 -8.0326e-20 0)
(0 -8.51622e-20 0)
(0 -8.90016e-20 0)
(0 -9.17207e-20 0)
(0 -9.48688e-20 0)
(0 -9.68408e-20 0)
(0 -9.92013e-20 0)
(0 -1.01974e-19 0)
(0 -1.05448e-19 0)
(0 -1.08561e-19 0)
(0 -1.11253e-19 0)
(0 -1.15348e-19 0)
(0 -1.20158e-19 0)
(0 -1.22274e-19 0)
(0 -1.25245e-19 0)
(0 -1.29064e-19 0)
(0 -1.32405e-19 0)
(0 -1.35698e-19 0)
(0 -1.38797e-19 0)
(0 -1.43085e-19 0)
(0 -1.4744e-19 0)
(0 -1.51298e-19 0)
(0 -1.55151e-19 0)
(0 -1.59188e-19 0)
(0 -1.62719e-19 0)
(0 -1.66082e-19 0)
(0 -1.69376e-19 0)
(0 -1.72768e-19 0)
(0 -1.76321e-19 0)
(0 -1.80056e-19 0)
(0 -1.84318e-19 0)
(0 -1.88936e-19 0)
(0 -1.93721e-19 0)
(0 -1.98725e-19 0)
(0 -2.03833e-19 0)
(0 -2.08884e-19 0)
(0 -2.13924e-19 0)
(0 -2.1898e-19 0)
(0 -2.24075e-19 0)
(0 -2.29261e-19 0)
(0 -2.36501e-19 0)
(0 -1.7514e-16 0)
(0 -1.7504e-16 0)
(0 0 0)
(0 0 0)
(0 0 0)
(0 0 0)
(0 0 0)
(0 0 0)
(0 0 0)
(0 0 0)
(0 0 0)
(0 0 0)
(0 0 0)
(0 0 0)
(0 0 0)
(0 1.73021e-16 0)
(0 1.72865e-16 0)
(0 -3.77642e-19 0)
(0 -3.89197e-19 0)
(0 -4.01063e-19 0)
(0 -4.13183e-19 0)
(0 -4.25489e-19 0)
(0 -4.37893e-19 0)
(0 -4.50278e-19 0)
(0 -4.625e-19 0)
(0 -4.74409e-19 0)
(0 -4.85873e-19 0)
(0 -4.9681e-19 0)
(0 -5.07175e-19 0)
(0 -3.3322e-19 0)
(0 4.35081e-16 0)
(0 3.98463e-15 0)
(0 2.78201e-14 0)
(0 1.77917e-13 0)
(0 1.05436e-12 0)
(0 5.76036e-12 0)
(0 2.88012e-11 0)
(0 1.30778e-10 0)
(0 5.36118e-10 0)
(0 1.97741e-09 0)
(0 6.53787e-09 0)
(0 1.94455e-08 0)
(0 5.67355e-08 0)
(0 2.06068e-07 0)
(0 1.16761e-06 0)
(0 1.01173e-05 0)
(0 0.000121555 0)
(0 0.002159 0)
(0 0.0498896 0)
(0 0.250807 0)
(0 0.185087 0)
(0 -0.442432 0)
(0 -0.354597 0)
(0 -0.272947 0)
(0 -0.237199 0)
(0 -0.239614 0)
(0 -0.267535 0)
(0 -0.305341 0)
(0 -0.348333 0)
(0 -0.394794 0)
(0 -0.443382 0)
(0 -0.493181 0)
(0 -0.543616 0)
(0 -0.594325 0)
(0 -0.645083 0)
(0 -0.695783 0)
(0 -0.746382 0)
(0 -0.796882 0)
(0 -0.847341 0)
(0 -0.897858 0)
(0 -0.9486 0)
(0 -0.999813 0)
(0 -1.05188 0)
(0 -1.10525 0)
(0 -1.16034 0)
(0 -1.21696 0)
(0 -1.27337 0)
(0 -1.32569 0)
(0 -1.36834 0)
(0 -1.39637 0)
(0 -1.40833 0)
(0 -1.40739 0)
(0 -1.39958 0)
(0 -1.39106 0)
(0 -1.38748 0)
(0 -1.39567 0)
(0 -1.42617 0)
(0 -1.49584 0)
(0 -1.62864 0)
(0 -1.85101 0)
(0 -2.17606 0)
(0 -2.57957 0)
(0 -2.98069 0)
(0 -3.2488 0)
(0 -3.25838 0)
(0 -2.97654 0)
(0 -2.51112 0)
(0 -2.03299 0)
(0 -1.64911 0)
(0 -1.37273 0)
(0 -1.16775 0)
(0 -1.00266 0)
(0 -0.879025 0)
(-1.9713e-16 -0.794749 0)
(0 -0.706539 0)
(0 -0.601028 0)
(1.17554e-16 -0.535587 0)
(0 -0.501211 0)
(-1.28708e-16 -0.434165 0)
(0 -0.364061 0)
(1.3666e-16 -0.332015 0)
(0 -0.299222 0)
(0 -0.253953 0)
(0 -0.223708 0)
(7.38375e-17 -0.197665 0)
(0 -0.165582 0)
(0 -0.146011 0)
(0 -0.130354 0)
(0 -0.105491 0)
(0 -0.0886174 0)
(-3.74821e-17 -0.0794596 0)
(0 -0.0665737 0)
(-1.85049e-17 -0.0551429 0)
(0 -0.0463283 0)
(-9.07343e-18 -0.0382247 0)
(0 -0.032989 0)
(0 -0.0275614 0)
(0 -0.0217319 0)
(0 -0.0183407 0)
(4.23859e-18 -0.0151066 0)
(0 -0.0119223 0)
(0 -0.00977679 0)
(0 -0.00782761 0)
(0 -0.00616139 0)
(0 -0.00483654 0)
(0 -0.00384425 0)
(0 -0.00299245 0)
(0 -0.00226469 0)
(0 -0.00174913 0)
(0 -0.00131039 0)
(0 -0.0009624 0)
(0 -0.000886044 0)
(0 -0.000456803 0)
(0 0 0)
(0 0 0)
(0 0 0)
(0 0 0)
(0 0 0)
(0 0 0)
(0 0 0)
(0 0 0)
(0 0 0)
(0 0 0)
(0 0 0)
(0 0 0)
(0 0 0)
(0 0 0)
(0 0 0)
(0 0 0)
(0 0 0)
(0 0 0)
(0 0 0)
(0 0 0)
(0 0 0)
(0 0 0)
(0 0 0)
(0 0 0)
(0 0 0)
(0 0 0)
(0 0 0)
(0 0 0)
(0 0 0)
(0 0 0)
(0 0 0)
(0 0 0)
(0 0 0)
(0 0 0)
(0 0 0)
(0 0 0)
(0 0 0)
(0 0 0)
(0 0 0)
(0 0 0)
(0 0 0)
(0 0 0)
(0 0 0)
(0 0 0)
(0 0 0)
(0 0 0)
(0 0 0)
(0 0 0)
(0 0 0)
(0 0 0)
(0 0 0)
(0 0 0)
(0 0 0)
(0 0 0)
(0 0 0)
(0 0 0)
(0 0 0)
(0 0 0)
(0 0 0)
(0 0 0)
(0 0 0)
(0 0 0)
(0 0 0)
(0 0 0)
(0 0 0)
(0 0 0)
(0 0 0)
(0 0 0)
(0 0 0)
(0 0 0)
(0 0 0)
(0 0 0)
(0 0 0)
(0 0 0)
(0 0 0)
(0 0 0)
(0 0 0)
(0 0 0)
(0 0 0)
(0 0 0)
(0 0 0)
(0 0 0)
(0 0 0)
(0 0 0)
(0 0 0)
(0 0 0)
(0 0 0)
(0 0 0)
(0 0 0)
(0 0 0)
(0 0 0)
(0 0 0)
(0 0 0)
(0 0 0)
(0 0 0)
(0 0 0)
(0 0 0)
(0 0 0)
(0 0 0)
(0 0 0)
(0 0 0)
(0 0 0)
(0 0 0)
(0 0 0)
(0 0 0)
(0 0 0)
(0 0 0)
(0 0 0)
(0 0 0)
(0 0 0)
(0 0 0)
(0 0 0)
(0 0 0)
(0 0 0)
(0 0 0)
(0 0 0)
(0 0 0)
(0 0 0)
)
;

boundaryField
{
    inandouthalf11
    {
        type            cyclic;
    }
    inandouthalf12
    {
        type            cyclic;
    }
    inandouthalf21
    {
        type            cyclic;
    }
    inandouthalf22
    {
        type            cyclic;
    }
    inandouthalf31
    {
        type            cyclic;
    }
    inandouthalf32
    {
        type            cyclic;
    }
    inandouthalf41
    {
        type            cyclic;
    }
    inandouthalf42
    {
        type            cyclic;
    }
    top
    {
        type            symmetryPlane;
    }
    walls
    {
        type            calculated;
        value           uniform (0 0 0);
    }
    frontAndBackPlanes
    {
        type            empty;
    }
}


// ************************************************************************* //
