/*--------------------------------*- C++ -*----------------------------------*\
| =========                 |                                                 |
| \\      /  F ield         | OpenFOAM: The Open Source CFD Toolbox           |
|  \\    /   O peration     | Version:  2.4.x                                 |
|   \\  /    A nd           | Web:      www.OpenFOAM.org                      |
|    \\/     M anipulation  |                                                 |
\*---------------------------------------------------------------------------*/
FoamFile
{
    version     2.0;
    format      ascii;
    class       volScalarField;
    location    "2.85";
    object      mua;
}
// * * * * * * * * * * * * * * * * * * * * * * * * * * * * * * * * * * * * * //

dimensions      [1 -1 -1 0 0 0 0];

internalField   nonuniform List<scalar> 
360
(
354570
128997
98550.6
99352.7
104705
103459
93338.2
81107
74393.3
78060.2
98783.2
153698
287773
607166
1.29948e+06
2.51188e+06
4.03155e+06
5.2369e+06
5.66731e+06
5.42299e+06
4.8893e+06
4.35412e+06
3.9432e+06
3.67808e+06
3.53684e+06
3.4853e+06
3.4879e+06
3.51329e+06
3.54208e+06
3.56192e+06
3.56495e+06
3.54885e+06
3.51808e+06
3.47368e+06
3.42458e+06
3.37256e+06
3.31895e+06
3.26295e+06
3.20703e+06
3.1543e+06
3.09991e+06
3.04552e+06
2.98994e+06
2.92903e+06
2.86532e+06
2.79881e+06
2.72962e+06
2.65728e+06
2.57727e+06
2.4908e+06
2.40288e+06
2.31306e+06
2.22198e+06
2.12964e+06
2.03673e+06
1.94286e+06
1.85075e+06
1.761e+06
1.67609e+06
1.59722e+06
1.52446e+06
1.46013e+06
1.40416e+06
1.35642e+06
1.31484e+06
1.27635e+06
1.23723e+06
1.19485e+06
1.14775e+06
1.09527e+06
1.03777e+06
978343
920492
866113
817364
775471
740957
712854
689595
669548
651116
632761
613585
593364
572363
551201
530603
511241
493500
477471
463046
449956
437853
426433
415472
404832
394450
384314
374429
364800
355425
346293
337390
328708
320247
312014
304018
296275
288798
281603
274701
268107
261830
255871
250222
244861
239741
234791
229907
224948
219737
214061
207682
200343
191795
181832
170360
157482
143572
129267
115322
102372
90774.5
80709.2
72467.8
66521.7
63156.1
62153.6
63340.9
68663
85606.8
132965
257200
635202
2.2561e+06
6.4877e+06
487.365
153.263
13.173
0.00436874
0.00217563
0.00267713
0.00314749
0.00350851
0.0037979
0.00403896
0.00424493
0.00442384
0.0045809
0.00471974
0.00484296
0.00495252
0.00504992
0.00513634
0.00521275
0.00527992
0.00533853
0.00538912
0.00543218
0.00546816
0.00549745
0.00552041
0.00553741
0.00554878
0.00555486
0.00555599
0.00555248
0.00554468
0.0055329
0.00551748
0.00549876
0.00547708
0.00545283
0.00542644
0.00539836
0.0053691
0.00533914
0.00530901
0.00527918
0.00525002
0.0052218
0.0051946
0.00516832
0.00514272
0.00511756
0.0050926
0.00506769
0.00504274
0.00501768
0.0049925
0.00496718
0.00494145
0.00491506
0.00488797
0.00486015
0.00483157
0.0048022
0.00477197
0.00474081
0.00470862
0.00467534
0.00464087
0.00460512
0.004568
0.0045294
0.00448922
0.00444733
0.00440361
0.00435793
0.00431012
0.00426003
0.00420747
0.00415223
0.00409407
0.00403273
0.0039679
0.00389923
0.00382629
0.00374859
0.00366555
0.00357644
0.00348038
0.00337623
0.00326254
0.00313738
0.00299809
0.00284081
0.00265963
0.00244459
0.00217657
0.00180853
0
0
0
0
0
0
0
0
0
0
0
0
0
0
0
0
0
0
0
0
0
0
0
0
0
0
0
0
0
0
0
0
0
0
0
0
0
0
0
0
0
0
0
0
0
0
0
0
0
0
0
0
0
0
0
0
0
0
0
0
0
0
0
0
0
0
0
0
0
0
0
0
0
0
0
0
0
0
0
0
0
0
0
0
0
0
0
0
0
0
0
0
0
0
0
0
0
0
0
0
0
0
0
0
0
0
0
0
0
0
0
0
0
0
0
0
0
0
0
)
;

boundaryField
{
    inandouthalf11
    {
        type            cyclic;
    }
    inandouthalf12
    {
        type            cyclic;
    }
    inandouthalf21
    {
        type            cyclic;
    }
    inandouthalf22
    {
        type            cyclic;
    }
    inandouthalf31
    {
        type            cyclic;
    }
    inandouthalf32
    {
        type            cyclic;
    }
    inandouthalf41
    {
        type            cyclic;
    }
    inandouthalf42
    {
        type            cyclic;
    }
    top
    {
        type            symmetryPlane;
    }
    walls
    {
        type            calculated;
        value           uniform 1e+30;
    }
    frontAndBackPlanes
    {
        type            empty;
    }
}


// ************************************************************************* //
