/*--------------------------------*- C++ -*----------------------------------*\
| =========                 |                                                 |
| \\      /  F ield         | OpenFOAM: The Open Source CFD Toolbox           |
|  \\    /   O peration     | Version:  2.4.x                                 |
|   \\  /    A nd           | Web:      www.OpenFOAM.org                      |
|    \\/     M anipulation  |                                                 |
\*---------------------------------------------------------------------------*/
FoamFile
{
    version     2.0;
    format      ascii;
    class       surfaceScalarField;
    location    "2.85";
    object      phia;
}
// * * * * * * * * * * * * * * * * * * * * * * * * * * * * * * * * * * * * * //

dimensions      [0 3 -1 0 0 0 0];

internalField   nonuniform List<scalar> 
359
(
-7.64666e-13
-2.94926e-12
-5.86057e-12
-8.79539e-12
-1.15646e-11
-1.43393e-11
-1.73775e-11
-2.08234e-11
-2.45237e-11
-2.80065e-11
-3.07322e-11
-3.24714e-11
-3.33965e-11
-3.38338e-11
-3.40378e-11
-3.4143e-11
-3.42085e-11
-3.42587e-11
-3.43051e-11
-3.43534e-11
-3.44069e-11
-3.44669e-11
-3.4533e-11
-3.46038e-11
-3.46773e-11
-3.47518e-11
-3.48261e-11
-3.48997e-11
-3.49726e-11
-3.50449e-11
-3.5117e-11
-3.51893e-11
-3.5262e-11
-3.53355e-11
-3.54099e-11
-3.54852e-11
-3.55615e-11
-3.56389e-11
-3.57175e-11
-3.57971e-11
-3.58778e-11
-3.59597e-11
-3.60428e-11
-3.61274e-11
-3.62135e-11
-3.63013e-11
-3.63909e-11
-3.64826e-11
-3.65766e-11
-3.66735e-11
-3.67734e-11
-3.68766e-11
-3.69834e-11
-3.70942e-11
-3.72094e-11
-3.73294e-11
-3.74544e-11
-3.7585e-11
-3.77212e-11
-3.7863e-11
-3.80105e-11
-3.81632e-11
-3.83207e-11
-3.84824e-11
-3.86478e-11
-3.88167e-11
-3.89894e-11
-3.91666e-11
-3.93494e-11
-3.9539e-11
-3.97372e-11
-3.99453e-11
-4.01641e-11
-4.03941e-11
-4.06352e-11
-4.08865e-11
-4.11465e-11
-4.14136e-11
-4.16865e-11
-4.19642e-11
-4.22462e-11
-4.25329e-11
-4.28247e-11
-4.31225e-11
-4.34271e-11
-4.37392e-11
-4.40588e-11
-4.43859e-11
-4.47199e-11
-4.50601e-11
-4.54057e-11
-4.57559e-11
-4.61103e-11
-4.64684e-11
-4.68301e-11
-4.71952e-11
-4.75636e-11
-4.79353e-11
-4.83102e-11
-4.86882e-11
-4.9069e-11
-4.94527e-11
-4.98391e-11
-5.02281e-11
-5.06194e-11
-5.10129e-11
-5.14085e-11
-5.18059e-11
-5.22047e-11
-5.26047e-11
-5.30055e-11
-5.34066e-11
-5.38075e-11
-5.42078e-11
-5.46069e-11
-5.50043e-11
-5.53994e-11
-5.5792e-11
-5.61817e-11
-5.65685e-11
-5.69529e-11
-5.73354e-11
-5.77173e-11
-5.81003e-11
-5.8487e-11
-5.88809e-11
-5.92862e-11
-5.97085e-11
-6.0154e-11
-6.0629e-11
-6.11396e-11
-6.16902e-11
-6.22835e-11
-6.29196e-11
-6.35935e-11
-6.42902e-11
-6.49852e-11
-6.56517e-11
-6.62648e-11
-6.67921e-11
-6.71866e-11
-6.74194e-11
-6.75301e-11
-6.75704e-11
-6.75805e-11
-6.75801e-11
-8.22046e-11
-1.05766e-10
-2.31284e-10
-1.66061e-08
-3.83167e-08
-5.3742e-08
-6.49206e-08
-7.14307e-08
-7.47985e-08
-7.63048e-08
-7.65889e-08
-7.60297e-08
-7.48749e-08
-7.32901e-08
-7.13879e-08
-6.92472e-08
-6.69247e-08
-6.44614e-08
-6.1888e-08
-5.92276e-08
-5.64984e-08
-5.37151e-08
-5.08903e-08
-4.80357e-08
-4.5163e-08
-4.2285e-08
-3.94171e-08
-3.65773e-08
-3.37861e-08
-3.10605e-08
-2.8405e-08
-2.57996e-08
-2.31957e-08
-2.05252e-08
-1.7724e-08
-1.47514e-08
-1.15938e-08
-8.25765e-09
-4.76668e-09
-1.16479e-09
2.47516e-09
6.0408e-09
9.37445e-09
1.22859e-08
1.46005e-08
1.62286e-08
1.72108e-08
1.76863e-08
1.78198e-08
1.77454e-08
1.75517e-08
1.72913e-08
1.69934e-08
1.66742e-08
1.63443e-08
1.60043e-08
1.56574e-08
1.53048e-08
1.49516e-08
1.46028e-08
1.42581e-08
1.39164e-08
1.35791e-08
1.32452e-08
1.29114e-08
1.25771e-08
1.22418e-08
1.19029e-08
1.15601e-08
1.12135e-08
1.08589e-08
1.04957e-08
1.01263e-08
9.74768e-09
9.35706e-09
8.95483e-09
8.53981e-09
8.11215e-09
7.67007e-09
7.20868e-09
6.72912e-09
6.23074e-09
5.70815e-09
5.16158e-09
4.58862e-09
3.9856e-09
3.35036e-09
2.68193e-09
1.97666e-09
1.22894e-09
4.36596e-10
-4.05865e-10
-1.30967e-09
-2.29366e-09
-3.35346e-09
-8.01567e-08
-1.57875e-07
-1.57875e-07
-1.57875e-07
-1.57875e-07
-1.57875e-07
-1.57875e-07
-1.57875e-07
-1.57875e-07
-1.57875e-07
-1.57875e-07
-1.57875e-07
-1.57875e-07
-1.57875e-07
-1.57875e-07
-1.57875e-07
-1.57875e-07
-1.57875e-07
-1.57875e-07
-1.57875e-07
-1.57875e-07
-1.57875e-07
-1.57875e-07
-1.57875e-07
-1.57875e-07
-1.57875e-07
-1.57875e-07
-1.57875e-07
-1.57875e-07
-1.57875e-07
-1.57875e-07
-1.57875e-07
-1.57875e-07
-1.57875e-07
-1.57875e-07
-1.57875e-07
-1.57875e-07
-1.57875e-07
-1.57875e-07
-1.57875e-07
-1.57875e-07
-1.57875e-07
-1.57875e-07
-1.57875e-07
-1.57875e-07
-1.57875e-07
-1.57875e-07
-1.57875e-07
-1.57875e-07
-1.57875e-07
-1.57875e-07
-1.57875e-07
-1.57875e-07
-1.57875e-07
-1.57875e-07
-1.57875e-07
-1.57875e-07
-1.57875e-07
-1.57875e-07
-1.57875e-07
-1.57875e-07
-1.57875e-07
-1.57875e-07
-1.57875e-07
-1.57875e-07
-1.57875e-07
-1.57875e-07
-1.57875e-07
-1.57875e-07
-1.57875e-07
-1.57875e-07
-1.57875e-07
-1.57875e-07
-1.57875e-07
-1.57875e-07
-1.57875e-07
-1.57875e-07
-1.57875e-07
-1.57875e-07
-1.57875e-07
-1.57875e-07
-1.57875e-07
-1.57875e-07
-1.57875e-07
-1.57875e-07
-1.57875e-07
-1.57875e-07
-1.57875e-07
-1.57875e-07
-1.57875e-07
-1.57875e-07
-1.57875e-07
-1.57875e-07
-1.57875e-07
-1.57875e-07
-1.57875e-07
-1.57875e-07
-1.57875e-07
-1.57875e-07
-1.57875e-07
-1.57875e-07
-1.57875e-07
-1.57875e-07
-1.57875e-07
-1.57875e-07
-1.57875e-07
-1.57875e-07
-1.57875e-07
-1.57875e-07
-1.57875e-07
-1.57875e-07
-1.57875e-07
-1.57875e-07
-1.57875e-07
-1.57875e-07
-1.57857e-07
-1.57147e-07
-1.32103e-07
)
;

boundaryField
{
    inandouthalf11
    {
        type            cyclic;
        value           nonuniform List<scalar> 
100
(
9.09875e-39
7.38658e-14
2.27848e-13
4.01334e-13
5.65979e-13
7.23692e-13
8.86524e-13
1.06572e-12
1.26179e-12
1.45687e-12
1.6209e-12
1.73299e-12
1.79555e-12
1.82572e-12
1.83963e-12
1.84653e-12
1.85059e-12
1.85354e-12
1.85615e-12
1.85885e-12
1.86188e-12
1.86539e-12
1.86942e-12
1.8739e-12
1.87874e-12
1.88381e-12
1.889e-12
1.89427e-12
1.89959e-12
1.90496e-12
1.91042e-12
1.91598e-12
1.92168e-12
1.92753e-12
1.93356e-12
1.93978e-12
1.94619e-12
1.9528e-12
1.95961e-12
1.96664e-12
1.97387e-12
1.98132e-12
1.98899e-12
1.9969e-12
2.00506e-12
2.01349e-12
2.02221e-12
2.03122e-12
2.04058e-12
2.0503e-12
2.06044e-12
2.07102e-12
2.08207e-12
2.09363e-12
2.10575e-12
2.11846e-12
2.13182e-12
2.14587e-12
2.16063e-12
2.17613e-12
2.19235e-12
2.20929e-12
2.2269e-12
2.24512e-12
2.26388e-12
2.28314e-12
2.30292e-12
2.32326e-12
2.34426e-12
2.36607e-12
2.38887e-12
2.41282e-12
2.43806e-12
2.46466e-12
2.49266e-12
2.52197e-12
2.55246e-12
2.58394e-12
2.61623e-12
2.64917e-12
2.68269e-12
2.71675e-12
2.7514e-12
2.78672e-12
2.82281e-12
2.85974e-12
2.89756e-12
2.93625e-12
2.97577e-12
3.01603e-12
3.05693e-12
3.09837e-12
3.14027e-12
3.18256e-12
3.22519e-12
3.26815e-12
3.31141e-12
3.35494e-12
3.39873e-12
3.44275e-12
)
;
    }
    inandouthalf12
    {
        type            cyclic;
        value           nonuniform List<scalar> 
100
(
-9.09875e-39
-7.38658e-14
-2.27848e-13
-4.01334e-13
-5.65979e-13
-7.23692e-13
-8.86524e-13
-1.06572e-12
-1.26179e-12
-1.45687e-12
-1.6209e-12
-1.73299e-12
-1.79555e-12
-1.82572e-12
-1.83963e-12
-1.84653e-12
-1.85059e-12
-1.85354e-12
-1.85615e-12
-1.85885e-12
-1.86188e-12
-1.86539e-12
-1.86942e-12
-1.8739e-12
-1.87874e-12
-1.88381e-12
-1.889e-12
-1.89427e-12
-1.89959e-12
-1.90496e-12
-1.91042e-12
-1.91598e-12
-1.92168e-12
-1.92753e-12
-1.93356e-12
-1.93978e-12
-1.94619e-12
-1.9528e-12
-1.95961e-12
-1.96664e-12
-1.97387e-12
-1.98132e-12
-1.98899e-12
-1.9969e-12
-2.00506e-12
-2.01349e-12
-2.02221e-12
-2.03122e-12
-2.04058e-12
-2.0503e-12
-2.06044e-12
-2.07102e-12
-2.08207e-12
-2.09363e-12
-2.10575e-12
-2.11846e-12
-2.13182e-12
-2.14587e-12
-2.16063e-12
-2.17613e-12
-2.19235e-12
-2.20929e-12
-2.2269e-12
-2.24512e-12
-2.26388e-12
-2.28314e-12
-2.30292e-12
-2.32326e-12
-2.34426e-12
-2.36607e-12
-2.38887e-12
-2.41282e-12
-2.43806e-12
-2.46466e-12
-2.49266e-12
-2.52197e-12
-2.55246e-12
-2.58394e-12
-2.61623e-12
-2.64917e-12
-2.68269e-12
-2.71675e-12
-2.7514e-12
-2.78672e-12
-2.82281e-12
-2.85974e-12
-2.89756e-12
-2.93625e-12
-2.97577e-12
-3.01603e-12
-3.05693e-12
-3.09837e-12
-3.14027e-12
-3.18256e-12
-3.22519e-12
-3.26815e-12
-3.31141e-12
-3.35494e-12
-3.39873e-12
-3.44275e-12
)
;
    }
    inandouthalf21
    {
        type            cyclic;
        value           nonuniform List<scalar> 
100
(
3.48698e-12
3.5314e-12
3.57597e-12
3.62067e-12
3.66547e-12
3.71034e-12
3.75525e-12
3.80015e-12
3.84501e-12
3.88977e-12
3.93438e-12
3.97878e-12
4.02291e-12
4.06669e-12
4.11007e-12
4.15295e-12
4.19528e-12
4.23699e-12
4.27804e-12
4.31839e-12
4.35805e-12
4.39705e-12
4.43547e-12
4.47342e-12
4.5111e-12
4.54874e-12
4.58667e-12
4.62528e-12
4.66502e-12
4.70634e-12
4.74964e-12
4.79517e-12
4.84301e-12
4.89299e-12
4.94463e-12
4.9968e-12
5.04766e-12
5.09508e-12
5.13727e-12
5.17248e-12
5.19845e-12
5.21389e-12
5.22095e-12
5.22341e-12
5.22403e-12
5.22426e-12
5.22464e-12
8.75403e-12
1.8415e-11
9.39382e-11
1.08702e-08
5.01538e-09
-4.41708e-09
-1.39589e-08
-2.34546e-08
-3.29014e-08
-4.23049e-08
-5.16672e-08
-6.09878e-08
-7.02649e-08
-7.94959e-08
-8.86778e-08
-9.7807e-08
-1.06879e-07
-1.1589e-07
-1.24834e-07
-1.33704e-07
-1.42494e-07
-1.51194e-07
-1.59794e-07
-1.68284e-07
-1.76651e-07
-1.84881e-07
-1.9296e-07
-2.00873e-07
-2.08605e-07
-2.16142e-07
-2.23469e-07
-2.30574e-07
-2.37446e-07
-2.44074e-07
-2.50449e-07
-2.5656e-07
-2.62394e-07
-2.67938e-07
-2.73176e-07
-2.78094e-07
-2.82679e-07
-2.86921e-07
-2.90819e-07
-2.94382e-07
-2.97634e-07
-3.00612e-07
-3.03365e-07
-3.05938e-07
-3.08368e-07
-3.10681e-07
-3.12888e-07
-3.14997e-07
-3.17011e-07
)
;
    }
    inandouthalf22
    {
        type            cyclic;
        value           nonuniform List<scalar> 
100
(
-3.48698e-12
-3.5314e-12
-3.57597e-12
-3.62067e-12
-3.66547e-12
-3.71034e-12
-3.75525e-12
-3.80015e-12
-3.84501e-12
-3.88977e-12
-3.93438e-12
-3.97878e-12
-4.02291e-12
-4.06669e-12
-4.11007e-12
-4.15295e-12
-4.19528e-12
-4.23699e-12
-4.27804e-12
-4.31839e-12
-4.35805e-12
-4.39705e-12
-4.43547e-12
-4.47342e-12
-4.5111e-12
-4.54874e-12
-4.58667e-12
-4.62528e-12
-4.66502e-12
-4.70634e-12
-4.74964e-12
-4.79517e-12
-4.84301e-12
-4.89299e-12
-4.94463e-12
-4.9968e-12
-5.04766e-12
-5.09508e-12
-5.13727e-12
-5.17248e-12
-5.19845e-12
-5.21389e-12
-5.22095e-12
-5.22341e-12
-5.22403e-12
-5.22426e-12
-5.22464e-12
-8.75403e-12
-1.8415e-11
-9.39382e-11
-1.08702e-08
-5.01538e-09
4.41708e-09
1.39589e-08
2.34546e-08
3.29014e-08
4.23049e-08
5.16672e-08
6.09878e-08
7.02649e-08
7.94959e-08
8.86778e-08
9.7807e-08
1.06879e-07
1.1589e-07
1.24834e-07
1.33704e-07
1.42494e-07
1.51194e-07
1.59794e-07
1.68284e-07
1.76651e-07
1.84881e-07
1.9296e-07
2.00873e-07
2.08605e-07
2.16142e-07
2.23469e-07
2.30574e-07
2.37446e-07
2.44074e-07
2.50449e-07
2.5656e-07
2.62394e-07
2.67938e-07
2.73176e-07
2.78094e-07
2.82679e-07
2.86921e-07
2.90819e-07
2.94382e-07
2.97634e-07
3.00612e-07
3.03365e-07
3.05938e-07
3.08368e-07
3.10681e-07
3.12888e-07
3.14997e-07
3.17011e-07
)
;
    }
    inandouthalf31
    {
        type            cyclic;
        value           nonuniform List<scalar> 
110
(
-3.18934e-07
-3.27292e-07
-3.35802e-07
-3.4447e-07
-3.53299e-07
-3.62286e-07
-3.71435e-07
-3.8076e-07
-3.90261e-07
-3.99938e-07
-4.09804e-07
-4.1987e-07
-4.30135e-07
-4.4061e-07
-4.51303e-07
-4.62215e-07
-4.73358e-07
-4.84747e-07
-4.96376e-07
-5.08248e-07
-5.20383e-07
-5.32784e-07
-5.45456e-07
-5.58403e-07
-5.71626e-07
-5.85147e-07
-5.98973e-07
-6.13096e-07
-6.27535e-07
-6.42299e-07
-6.57384e-07
-6.72804e-07
-6.88563e-07
-7.0466e-07
-7.21092e-07
-7.37865e-07
-7.54976e-07
-7.72408e-07
-7.90161e-07
-8.08219e-07
-8.26589e-07
-8.4558e-07
-1.02009e-06
-1.0408e-06
-1.06193e-06
-1.08349e-06
-1.10549e-06
-1.12793e-06
-1.15083e-06
-1.17419e-06
-1.19803e-06
-1.22234e-06
-1.24716e-06
-1.27247e-06
-1.2983e-06
-1.32465e-06
-1.35154e-06
-1.37898e-06
-1.40697e-06
-1.43552e-06
-1.46466e-06
-1.49439e-06
-1.52472e-06
-1.55567e-06
-1.58725e-06
-1.61946e-06
-1.65233e-06
-1.68587e-06
-1.72009e-06
-1.755e-06
-1.79063e-06
-1.82697e-06
-1.86405e-06
-1.90189e-06
-1.94049e-06
-1.97988e-06
-2.02007e-06
-2.06107e-06
-2.1029e-06
-2.14559e-06
-2.18913e-06
-2.23357e-06
-2.2789e-06
-2.32516e-06
-2.37235e-06
-2.42051e-06
-2.46964e-06
-2.51976e-06
-2.57091e-06
-2.62309e-06
-2.67633e-06
-2.73065e-06
-2.78608e-06
-2.84263e-06
-2.90033e-06
-2.9592e-06
-3.01926e-06
-3.08054e-06
-3.14307e-06
-3.20687e-06
-3.27196e-06
-3.33837e-06
-3.40613e-06
-3.47526e-06
-3.5458e-06
-3.61777e-06
-3.6912e-06
-3.76613e-06
-3.84257e-06
-3.92056e-06
)
;
    }
    inandouthalf32
    {
        type            cyclic;
        value           nonuniform List<scalar> 
110
(
3.18934e-07
3.27292e-07
3.35802e-07
3.4447e-07
3.53299e-07
3.62286e-07
3.71435e-07
3.8076e-07
3.90261e-07
3.99938e-07
4.09804e-07
4.1987e-07
4.30135e-07
4.4061e-07
4.51303e-07
4.62215e-07
4.73358e-07
4.84747e-07
4.96376e-07
5.08248e-07
5.20383e-07
5.32784e-07
5.45456e-07
5.58403e-07
5.71626e-07
5.85147e-07
5.98973e-07
6.13096e-07
6.27535e-07
6.42299e-07
6.57384e-07
6.72804e-07
6.88563e-07
7.0466e-07
7.21092e-07
7.37865e-07
7.54976e-07
7.72408e-07
7.90161e-07
8.08219e-07
8.26589e-07
8.4558e-07
1.02009e-06
1.0408e-06
1.06193e-06
1.08349e-06
1.10549e-06
1.12793e-06
1.15083e-06
1.17419e-06
1.19803e-06
1.22234e-06
1.24716e-06
1.27247e-06
1.2983e-06
1.32465e-06
1.35154e-06
1.37898e-06
1.40697e-06
1.43552e-06
1.46466e-06
1.49439e-06
1.52472e-06
1.55567e-06
1.58725e-06
1.61946e-06
1.65233e-06
1.68587e-06
1.72009e-06
1.755e-06
1.79063e-06
1.82697e-06
1.86405e-06
1.90189e-06
1.94049e-06
1.97988e-06
2.02007e-06
2.06107e-06
2.1029e-06
2.14559e-06
2.18913e-06
2.23357e-06
2.2789e-06
2.32516e-06
2.37235e-06
2.42051e-06
2.46964e-06
2.51976e-06
2.57091e-06
2.62309e-06
2.67633e-06
2.73065e-06
2.78608e-06
2.84263e-06
2.90033e-06
2.9592e-06
3.01926e-06
3.08054e-06
3.14307e-06
3.20687e-06
3.27196e-06
3.33837e-06
3.40613e-06
3.47526e-06
3.5458e-06
3.61777e-06
3.6912e-06
3.76613e-06
3.84257e-06
3.92056e-06
)
;
    }
    inandouthalf41
    {
        type            cyclic;
        value           nonuniform List<scalar> 
50
(
-3.5093e-06
-3.5093e-06
-3.5093e-06
-3.5093e-06
-3.5093e-06
-3.5093e-06
-3.5093e-06
-3.5093e-06
-3.5093e-06
-3.5093e-06
-3.5093e-06
-3.5093e-06
-3.5093e-06
-3.5093e-06
-3.5093e-06
-3.5093e-06
-3.5093e-06
-3.5093e-06
-3.5093e-06
-3.5093e-06
-3.5093e-06
-3.5093e-06
-3.5093e-06
-3.5093e-06
-3.5093e-06
-3.5093e-06
-3.5093e-06
-3.5093e-06
-3.5093e-06
-3.5093e-06
-3.5093e-06
-3.5093e-06
-3.5093e-06
-3.5093e-06
-3.5093e-06
-3.5093e-06
-3.5093e-06
-3.5093e-06
-3.5093e-06
-3.5093e-06
-3.5093e-06
-3.5093e-06
-3.5093e-06
-3.5093e-06
-3.5093e-06
-3.5093e-06
-3.5093e-06
-3.50931e-06
-3.5096e-06
-3.5162e-06
)
;
    }
    inandouthalf42
    {
        type            cyclic;
        value           nonuniform List<scalar> 
50
(
3.5093e-06
3.5093e-06
3.5093e-06
3.5093e-06
3.5093e-06
3.5093e-06
3.5093e-06
3.5093e-06
3.5093e-06
3.5093e-06
3.5093e-06
3.5093e-06
3.5093e-06
3.5093e-06
3.5093e-06
3.5093e-06
3.5093e-06
3.5093e-06
3.5093e-06
3.5093e-06
3.5093e-06
3.5093e-06
3.5093e-06
3.5093e-06
3.5093e-06
3.5093e-06
3.5093e-06
3.5093e-06
3.5093e-06
3.5093e-06
3.5093e-06
3.5093e-06
3.5093e-06
3.5093e-06
3.5093e-06
3.5093e-06
3.5093e-06
3.5093e-06
3.5093e-06
3.5093e-06
3.5093e-06
3.5093e-06
3.5093e-06
3.5093e-06
3.5093e-06
3.5093e-06
3.5093e-06
3.50931e-06
3.5096e-06
3.5162e-06
)
;
    }
    top
    {
        type            symmetryPlane;
        value           uniform 0;
    }
    walls
    {
        type            fixedValue;
        value           uniform 0;
    }
    frontAndBackPlanes
    {
        type            empty;
        value           nonuniform 0();
    }
}


// ************************************************************************* //
