/*--------------------------------*- C++ -*----------------------------------*\
| =========                 |                                                 |
| \\      /  F ield         | OpenFOAM: The Open Source CFD Toolbox           |
|  \\    /   O peration     | Version:  2.4.x                                 |
|   \\  /    A nd           | Web:      www.OpenFOAM.org                      |
|    \\/     M anipulation  |                                                 |
\*---------------------------------------------------------------------------*/
FoamFile
{
    version     2.0;
    format      ascii;
    class       surfaceScalarField;
    location    "2.85";
    object      phib_0;
}
// * * * * * * * * * * * * * * * * * * * * * * * * * * * * * * * * * * * * * //

dimensions      [0 3 -1 0 0 0 0];

internalField   nonuniform List<scalar> 
359
(
1.19926e-12
4.62867e-12
9.20065e-12
1.38079e-11
1.8152e-11
2.25e-11
2.7255e-11
3.26421e-11
3.84205e-11
4.38524e-11
4.80979e-11
5.08035e-11
5.2241e-11
5.29202e-11
5.3237e-11
5.34007e-11
5.35025e-11
5.35809e-11
5.36531e-11
5.37285e-11
5.38119e-11
5.39054e-11
5.40085e-11
5.41188e-11
5.42334e-11
5.43494e-11
5.44651e-11
5.45796e-11
5.46929e-11
5.48054e-11
5.49174e-11
5.50297e-11
5.51426e-11
5.52566e-11
5.53719e-11
5.54887e-11
5.56069e-11
5.57266e-11
5.5848e-11
5.5971e-11
5.60956e-11
5.6222e-11
5.635e-11
5.64801e-11
5.66125e-11
5.67473e-11
5.6885e-11
5.70256e-11
5.71695e-11
5.73176e-11
5.74703e-11
5.76279e-11
5.77908e-11
5.79598e-11
5.81351e-11
5.83177e-11
5.85079e-11
5.87063e-11
5.89133e-11
5.91286e-11
5.93525e-11
5.95843e-11
5.98234e-11
6.00689e-11
6.03199e-11
6.05761e-11
6.08379e-11
6.11064e-11
6.13833e-11
6.16704e-11
6.19702e-11
6.22852e-11
6.26165e-11
6.2965e-11
6.33302e-11
6.37111e-11
6.41052e-11
6.45101e-11
6.49235e-11
6.5344e-11
6.57709e-11
6.62044e-11
6.66453e-11
6.70951e-11
6.7555e-11
6.80259e-11
6.85081e-11
6.90013e-11
6.95047e-11
7.00172e-11
7.05375e-11
7.10644e-11
7.1597e-11
7.21348e-11
7.26774e-11
7.32246e-11
7.37762e-11
7.43321e-11
7.48921e-11
7.5456e-11
7.60236e-11
7.65947e-11
7.7169e-11
7.77463e-11
7.83262e-11
7.89086e-11
7.9493e-11
8.00791e-11
8.06662e-11
8.12539e-11
8.18416e-11
8.24284e-11
8.30136e-11
8.35963e-11
8.41756e-11
8.47507e-11
8.53207e-11
8.58849e-11
8.64429e-11
8.69946e-11
8.75404e-11
8.80812e-11
8.86188e-11
8.91558e-11
8.96959e-11
9.02443e-11
9.08074e-11
9.13933e-11
9.20112e-11
9.26709e-11
9.33811e-11
9.41483e-11
9.4976e-11
9.58633e-11
9.68019e-11
9.77697e-11
9.87287e-11
9.96352e-11
1.00446e-10
1.01112e-10
1.01574e-10
1.01782e-10
1.01766e-10
1.01596e-10
1.01288e-10
1.00206e-10
1.20759e-10
1.5436e-10
2.29935e-10
6.17528e-09
4.34343e-09
3.11745e-09
2.61854e-09
2.2617e-09
1.96848e-09
1.7208e-09
1.50786e-09
1.32278e-09
1.16077e-09
1.01825e-09
8.92455e-10
7.81159e-10
6.82539e-10
5.95075e-10
5.17476e-10
4.4864e-10
3.87615e-10
3.33572e-10
2.8579e-10
2.4363e-10
2.06531e-10
1.73997e-10
1.45587e-10
1.20909e-10
9.96156e-11
8.13849e-11
6.59034e-11
5.28434e-11
4.18586e-11
3.26073e-11
2.47896e-11
1.81713e-11
1.25789e-11
7.88293e-12
3.98866e-12
8.34517e-13
-1.604e-12
-3.31424e-12
-4.26539e-12
-4.46574e-12
-4.0421e-12
-3.25885e-12
-2.41757e-12
-1.71896e-12
-1.22086e-12
-8.91478e-13
-6.75782e-13
-5.29399e-13
-4.24779e-13
-3.46919e-13
-2.87506e-13
-2.39753e-13
-1.99987e-13
-1.67256e-13
-1.4117e-13
-1.19271e-13
-1.00024e-13
-8.42312e-14
-7.15213e-14
-6.04051e-14
-5.07784e-14
-4.28485e-14
-3.60503e-14
-3.01959e-14
-2.53787e-14
-2.12028e-14
-1.75402e-14
-1.45996e-14
-1.21456e-14
-9.97094e-15
-8.15853e-15
-6.66076e-15
-5.40708e-15
-4.37409e-15
-3.48777e-15
-2.75018e-15
-2.16673e-15
-1.67779e-15
-1.27787e-15
-9.62667e-16
-7.07492e-16
-5.05804e-16
-3.49445e-16
-2.29473e-16
-1.37824e-16
-6.99686e-17
-2.15368e-17
1.18792e-17
3.3509e-17
4.64258e-17
1.35199e-16
2.61233e-15
-2.61463e-18
-2.86129e-18
-3.05473e-18
-3.24355e-18
-3.38449e-18
-3.53179e-18
-3.63086e-18
-3.74191e-18
-3.78792e-18
-3.86104e-18
-3.88141e-18
-3.91197e-18
-3.89078e-18
-3.88157e-18
-3.82938e-18
-3.788e-18
-3.70586e-18
-3.63276e-18
-3.53142e-18
-3.44665e-18
-3.34485e-18
-3.27537e-18
-3.22254e-18
-3.1998e-18
-3.15039e-18
-3.13603e-18
-3.12318e-18
-3.10731e-18
-3.08005e-18
-3.04858e-18
-3.03607e-18
-3.01405e-18
-2.97879e-18
-2.9173e-18
-2.86198e-18
-2.77747e-18
-2.68449e-18
-2.57431e-18
-2.51023e-18
-2.43177e-18
-2.35148e-18
-2.23809e-18
-2.14146e-18
-2.01095e-18
-1.84604e-18
-1.68027e-18
-1.54849e-18
-1.3934e-18
-1.23591e-18
-1.05218e-18
-8.85374e-19
-7.01269e-19
-5.26096e-19
-3.64833e-19
-5.00331e-19
-4.49137e-19
-4.11875e-19
-3.61262e-19
-3.34425e-19
-3.03855e-19
-2.73885e-19
-2.40406e-19
-2.16577e-19
-1.91735e-19
-1.6688e-19
-1.39971e-19
-1.1349e-19
-8.71344e-20
-6.29666e-20
-3.93209e-20
-1.0348e-20
1.61912e-20
4.28455e-20
6.42877e-20
9.09394e-20
1.10075e-19
1.30471e-19
1.45217e-19
1.81441e-19
2.09568e-19
2.40614e-19
2.61859e-19
3.08089e-19
3.47687e-19
4.17575e-19
5.50313e-19
9.20709e-19
1.32119e-18
1.74797e-18
2.09017e-18
2.53061e-18
2.83042e-18
3.13523e-18
3.2931e-18
3.71659e-18
3.95493e-18
4.19289e-18
4.19522e-18
4.37602e-18
4.31119e-18
4.26029e-18
4.02453e-18
4.2249e-18
4.24127e-18
4.27168e-18
4.06318e-18
4.01682e-18
3.74659e-18
3.47681e-18
3.18804e-18
2.75361e-18
2.34421e-18
1.936e-18
1.88561e-18
8.23543e-19
1.39731e-18
3.13433e-18
)
;

boundaryField
{
    inandouthalf11
    {
        type            cyclic;
        value           nonuniform List<scalar> 
100
(
2.79625e-10
2.79753e-10
2.79648e-10
2.79779e-10
2.79972e-10
2.80202e-10
2.80488e-10
2.80816e-10
2.81151e-10
2.81468e-10
2.81728e-10
2.81905e-10
2.82008e-10
2.82059e-10
2.82084e-10
2.82097e-10
2.82104e-10
2.82109e-10
2.82113e-10
2.82119e-10
2.82124e-10
2.82131e-10
2.82139e-10
2.82147e-10
2.82157e-10
2.82166e-10
2.82176e-10
2.82188e-10
2.822e-10
2.82211e-10
2.82223e-10
2.82238e-10
2.8225e-10
2.82266e-10
2.82281e-10
2.82298e-10
2.82315e-10
2.82334e-10
2.82356e-10
2.82376e-10
2.824e-10
2.82424e-10
2.82449e-10
2.82478e-10
2.82507e-10
2.82539e-10
2.82572e-10
2.82606e-10
2.82644e-10
2.82687e-10
2.82729e-10
2.82776e-10
2.82824e-10
2.82877e-10
2.82931e-10
2.82992e-10
2.83053e-10
2.8312e-10
2.8319e-10
2.83262e-10
2.8334e-10
2.83419e-10
2.83501e-10
2.83585e-10
2.83672e-10
2.8376e-10
2.83851e-10
2.83945e-10
2.84043e-10
2.84144e-10
2.8425e-10
2.84362e-10
2.84476e-10
2.84595e-10
2.84718e-10
2.84844e-10
2.84973e-10
2.85105e-10
2.8524e-10
2.85377e-10
2.85518e-10
2.85662e-10
2.8581e-10
2.85961e-10
2.86117e-10
2.86276e-10
2.86439e-10
2.86605e-10
2.86775e-10
2.86948e-10
2.87124e-10
2.87304e-10
2.87488e-10
2.87675e-10
2.87866e-10
2.88061e-10
2.8826e-10
2.88462e-10
2.88669e-10
2.8888e-10
)
;
    }
    inandouthalf12
    {
        type            cyclic;
        value           nonuniform List<scalar> 
100
(
-2.79625e-10
-2.79753e-10
-2.79648e-10
-2.79779e-10
-2.79972e-10
-2.80202e-10
-2.80488e-10
-2.80816e-10
-2.81151e-10
-2.81468e-10
-2.81728e-10
-2.81905e-10
-2.82008e-10
-2.82059e-10
-2.82084e-10
-2.82097e-10
-2.82104e-10
-2.82109e-10
-2.82113e-10
-2.82119e-10
-2.82124e-10
-2.82131e-10
-2.82139e-10
-2.82147e-10
-2.82157e-10
-2.82166e-10
-2.82176e-10
-2.82188e-10
-2.822e-10
-2.82211e-10
-2.82223e-10
-2.82238e-10
-2.8225e-10
-2.82266e-10
-2.82281e-10
-2.82298e-10
-2.82315e-10
-2.82334e-10
-2.82356e-10
-2.82376e-10
-2.824e-10
-2.82424e-10
-2.82449e-10
-2.82478e-10
-2.82507e-10
-2.82539e-10
-2.82572e-10
-2.82606e-10
-2.82644e-10
-2.82687e-10
-2.82729e-10
-2.82776e-10
-2.82824e-10
-2.82877e-10
-2.82931e-10
-2.82992e-10
-2.83053e-10
-2.8312e-10
-2.8319e-10
-2.83262e-10
-2.8334e-10
-2.83419e-10
-2.83501e-10
-2.83585e-10
-2.83672e-10
-2.8376e-10
-2.83851e-10
-2.83945e-10
-2.84043e-10
-2.84144e-10
-2.8425e-10
-2.84362e-10
-2.84476e-10
-2.84595e-10
-2.84718e-10
-2.84844e-10
-2.84973e-10
-2.85105e-10
-2.8524e-10
-2.85377e-10
-2.85518e-10
-2.85662e-10
-2.8581e-10
-2.85961e-10
-2.86117e-10
-2.86276e-10
-2.86439e-10
-2.86605e-10
-2.86775e-10
-2.86948e-10
-2.87124e-10
-2.87304e-10
-2.87488e-10
-2.87675e-10
-2.87866e-10
-2.88061e-10
-2.8826e-10
-2.88462e-10
-2.88669e-10
-2.8888e-10
)
;
    }
    inandouthalf21
    {
        type            cyclic;
        value           nonuniform List<scalar> 
100
(
2.89094e-10
2.89313e-10
2.89537e-10
2.89765e-10
2.89998e-10
2.90235e-10
2.90478e-10
2.90726e-10
2.90979e-10
2.91237e-10
2.91501e-10
2.91771e-10
2.92047e-10
2.92329e-10
2.92618e-10
2.92914e-10
2.93217e-10
2.93528e-10
2.93846e-10
2.94173e-10
2.94509e-10
2.94854e-10
2.9521e-10
2.95577e-10
2.95955e-10
2.96346e-10
2.96751e-10
2.97171e-10
2.97608e-10
2.98064e-10
2.9854e-10
2.99035e-10
2.99552e-10
3.00095e-10
3.00669e-10
3.01271e-10
3.01894e-10
3.02544e-10
3.03247e-10
3.04039e-10
3.04883e-10
3.0567e-10
3.06609e-10
3.07844e-10
3.09365e-10
3.11725e-10
3.22683e-10
3.27463e-10
3.4712e-10
1.8833e-09
1.47807e-08
8.62583e-09
1.85614e-10
-8.6307e-09
-1.76066e-08
-2.66684e-08
-3.57769e-08
-4.49072e-08
-5.40424e-08
-6.31707e-08
-7.22836e-08
-8.13748e-08
-9.04396e-08
-9.94746e-08
-1.08477e-07
-1.17446e-07
-1.26379e-07
-1.35275e-07
-1.44133e-07
-1.52954e-07
-1.61736e-07
-1.7048e-07
-1.79183e-07
-1.87847e-07
-1.96471e-07
-2.05054e-07
-2.13595e-07
-2.22094e-07
-2.30549e-07
-2.38959e-07
-2.47322e-07
-2.55638e-07
-2.63905e-07
-2.72121e-07
-2.80284e-07
-2.88392e-07
-2.96442e-07
-3.04431e-07
-3.12356e-07
-3.20211e-07
-3.27992e-07
-3.35691e-07
-3.433e-07
-3.50808e-07
-3.58206e-07
-3.6548e-07
-3.72619e-07
-3.79607e-07
-3.86425e-07
-3.93053e-07
)
;
    }
    inandouthalf22
    {
        type            cyclic;
        value           nonuniform List<scalar> 
100
(
-2.89094e-10
-2.89313e-10
-2.89537e-10
-2.89765e-10
-2.89998e-10
-2.90235e-10
-2.90478e-10
-2.90726e-10
-2.90979e-10
-2.91237e-10
-2.91501e-10
-2.91771e-10
-2.92047e-10
-2.92329e-10
-2.92618e-10
-2.92914e-10
-2.93217e-10
-2.93528e-10
-2.93846e-10
-2.94173e-10
-2.94509e-10
-2.94854e-10
-2.9521e-10
-2.95577e-10
-2.95955e-10
-2.96346e-10
-2.96751e-10
-2.97171e-10
-2.97608e-10
-2.98064e-10
-2.9854e-10
-2.99035e-10
-2.99552e-10
-3.00095e-10
-3.00669e-10
-3.01271e-10
-3.01894e-10
-3.02544e-10
-3.03247e-10
-3.04039e-10
-3.04883e-10
-3.0567e-10
-3.06609e-10
-3.07844e-10
-3.09365e-10
-3.11725e-10
-3.22683e-10
-3.27463e-10
-3.4712e-10
-1.8833e-09
-1.47807e-08
-8.62583e-09
-1.85614e-10
8.6307e-09
1.76066e-08
2.66684e-08
3.57769e-08
4.49072e-08
5.40424e-08
6.31707e-08
7.22836e-08
8.13748e-08
9.04396e-08
9.94746e-08
1.08477e-07
1.17446e-07
1.26379e-07
1.35275e-07
1.44133e-07
1.52954e-07
1.61736e-07
1.7048e-07
1.79183e-07
1.87847e-07
1.96471e-07
2.05054e-07
2.13595e-07
2.22094e-07
2.30549e-07
2.38959e-07
2.47322e-07
2.55638e-07
2.63905e-07
2.72121e-07
2.80284e-07
2.88392e-07
2.96442e-07
3.04431e-07
3.12356e-07
3.20211e-07
3.27992e-07
3.35691e-07
3.433e-07
3.50808e-07
3.58206e-07
3.6548e-07
3.72619e-07
3.79607e-07
3.86425e-07
3.93053e-07
)
;
    }
    inandouthalf31
    {
        type            cyclic;
        value           nonuniform List<scalar> 
110
(
-3.99465e-07
-4.1392e-07
-4.28604e-07
-4.43422e-07
-4.5822e-07
-4.72758e-07
-4.85698e-07
-4.96381e-07
-5.06735e-07
-5.17263e-07
-5.2799e-07
-5.3892e-07
-5.50059e-07
-5.61412e-07
-5.72982e-07
-5.84776e-07
-5.96797e-07
-6.09052e-07
-6.21545e-07
-6.34282e-07
-6.47268e-07
-6.60509e-07
-6.7401e-07
-6.87778e-07
-7.01817e-07
-7.16135e-07
-7.30736e-07
-7.45628e-07
-7.60816e-07
-7.76307e-07
-7.92108e-07
-8.08225e-07
-8.24665e-07
-8.41435e-07
-8.58541e-07
-8.75992e-07
-8.93794e-07
-9.11955e-07
-9.30482e-07
-9.49383e-07
-9.68666e-07
-9.88337e-07
-1.00841e-06
-1.02889e-06
-1.04978e-06
-1.07109e-06
-1.09284e-06
-1.11502e-06
-1.13766e-06
-1.16075e-06
-1.18431e-06
-1.20836e-06
-1.23288e-06
-1.25791e-06
-1.28344e-06
-1.30949e-06
-1.33607e-06
-1.36319e-06
-1.39086e-06
-1.41909e-06
-1.4479e-06
-1.47729e-06
-1.50727e-06
-1.53787e-06
-1.56908e-06
-1.60093e-06
-1.63342e-06
-1.66658e-06
-1.70041e-06
-1.73492e-06
-1.77013e-06
-1.80606e-06
-1.84272e-06
-1.88012e-06
-1.91828e-06
-1.95722e-06
-1.99695e-06
-2.03748e-06
-2.07883e-06
-2.12103e-06
-2.16408e-06
-2.20801e-06
-2.25282e-06
-2.29855e-06
-2.3452e-06
-2.3928e-06
-2.44137e-06
-2.49093e-06
-2.54148e-06
-2.59307e-06
-2.6457e-06
-2.6994e-06
-2.75419e-06
-2.8101e-06
-2.86713e-06
-2.92533e-06
-2.98471e-06
-3.04529e-06
-3.1071e-06
-3.17016e-06
-3.23451e-06
-3.30016e-06
-3.36715e-06
-3.43549e-06
-3.50522e-06
-3.57637e-06
-3.64896e-06
-3.72302e-06
-3.79859e-06
-3.87569e-06
)
;
    }
    inandouthalf32
    {
        type            cyclic;
        value           nonuniform List<scalar> 
110
(
3.99465e-07
4.1392e-07
4.28604e-07
4.43422e-07
4.5822e-07
4.72758e-07
4.85698e-07
4.96381e-07
5.06735e-07
5.17263e-07
5.2799e-07
5.3892e-07
5.50059e-07
5.61412e-07
5.72982e-07
5.84776e-07
5.96797e-07
6.09052e-07
6.21545e-07
6.34282e-07
6.47268e-07
6.60509e-07
6.7401e-07
6.87778e-07
7.01817e-07
7.16135e-07
7.30736e-07
7.45628e-07
7.60816e-07
7.76307e-07
7.92108e-07
8.08225e-07
8.24665e-07
8.41435e-07
8.58541e-07
8.75992e-07
8.93794e-07
9.11955e-07
9.30482e-07
9.49383e-07
9.68666e-07
9.88337e-07
1.00841e-06
1.02889e-06
1.04978e-06
1.07109e-06
1.09284e-06
1.11502e-06
1.13766e-06
1.16075e-06
1.18431e-06
1.20836e-06
1.23288e-06
1.25791e-06
1.28344e-06
1.30949e-06
1.33607e-06
1.36319e-06
1.39086e-06
1.41909e-06
1.4479e-06
1.47729e-06
1.50727e-06
1.53787e-06
1.56908e-06
1.60093e-06
1.63342e-06
1.66658e-06
1.70041e-06
1.73492e-06
1.77013e-06
1.80606e-06
1.84272e-06
1.88012e-06
1.91828e-06
1.95722e-06
1.99695e-06
2.03748e-06
2.07883e-06
2.12103e-06
2.16408e-06
2.20801e-06
2.25282e-06
2.29855e-06
2.3452e-06
2.3928e-06
2.44137e-06
2.49093e-06
2.54148e-06
2.59307e-06
2.6457e-06
2.6994e-06
2.75419e-06
2.8101e-06
2.86713e-06
2.92533e-06
2.98471e-06
3.04529e-06
3.1071e-06
3.17016e-06
3.23451e-06
3.30016e-06
3.36715e-06
3.43549e-06
3.50522e-06
3.57637e-06
3.64896e-06
3.72302e-06
3.79859e-06
3.87569e-06
)
;
    }
    inandouthalf41
    {
        type            cyclic;
        value           nonuniform List<scalar> 
50
(
-3.46914e-06
-3.46914e-06
-3.46914e-06
-3.46914e-06
-3.46914e-06
-3.46914e-06
-3.46914e-06
-3.46914e-06
-3.46914e-06
-3.46914e-06
-3.46914e-06
-3.46914e-06
-3.46914e-06
-3.46914e-06
-3.46914e-06
-3.46914e-06
-3.46914e-06
-3.46914e-06
-3.46914e-06
-3.46914e-06
-3.46914e-06
-3.46914e-06
-3.46914e-06
-3.46914e-06
-3.46914e-06
-3.46914e-06
-3.46914e-06
-3.46914e-06
-3.46914e-06
-3.46914e-06
-3.46914e-06
-3.46914e-06
-3.46914e-06
-3.46914e-06
-3.46914e-06
-3.46914e-06
-3.46914e-06
-3.46914e-06
-3.46914e-06
-3.46914e-06
-3.46914e-06
-3.46914e-06
-3.46914e-06
-3.46914e-06
-3.46914e-06
-3.46914e-06
-3.46914e-06
-3.46914e-06
-3.46914e-06
-3.46914e-06
)
;
    }
    inandouthalf42
    {
        type            cyclic;
        value           nonuniform List<scalar> 
50
(
3.46914e-06
3.46914e-06
3.46914e-06
3.46914e-06
3.46914e-06
3.46914e-06
3.46914e-06
3.46914e-06
3.46914e-06
3.46914e-06
3.46914e-06
3.46914e-06
3.46914e-06
3.46914e-06
3.46914e-06
3.46914e-06
3.46914e-06
3.46914e-06
3.46914e-06
3.46914e-06
3.46914e-06
3.46914e-06
3.46914e-06
3.46914e-06
3.46914e-06
3.46914e-06
3.46914e-06
3.46914e-06
3.46914e-06
3.46914e-06
3.46914e-06
3.46914e-06
3.46914e-06
3.46914e-06
3.46914e-06
3.46914e-06
3.46914e-06
3.46914e-06
3.46914e-06
3.46914e-06
3.46914e-06
3.46914e-06
3.46914e-06
3.46914e-06
3.46914e-06
3.46914e-06
3.46914e-06
3.46914e-06
3.46914e-06
3.46914e-06
)
;
    }
    top
    {
        type            symmetryPlane;
        value           uniform 0;
    }
    walls
    {
        type            fixedValue;
        value           uniform 0;
    }
    frontAndBackPlanes
    {
        type            empty;
        value           nonuniform 0();
    }
}


// ************************************************************************* //
