/*--------------------------------*- C++ -*----------------------------------*\
| =========                 |                                                 |
| \\      /  F ield         | OpenFOAM: The Open Source CFD Toolbox           |
|  \\    /   O peration     | Version:  2.4.x                                 |
|   \\  /    A nd           | Web:      www.OpenFOAM.org                      |
|    \\/     M anipulation  |                                                 |
\*---------------------------------------------------------------------------*/
FoamFile
{
    version     2.0;
    format      ascii;
    class       surfaceScalarField;
    location    "2.85";
    object      phib;
}
// * * * * * * * * * * * * * * * * * * * * * * * * * * * * * * * * * * * * * //

dimensions      [0 3 -1 0 0 0 0];

internalField   nonuniform List<scalar> 
359
(
1.19688e-12
4.61912e-12
9.18129e-12
1.37792e-11
1.81159e-11
2.24586e-11
2.72105e-11
3.2598e-11
3.83815e-11
4.38237e-11
4.80818e-11
5.0798e-11
5.22423e-11
5.29248e-11
5.3243e-11
5.34073e-11
5.35094e-11
5.35879e-11
5.36601e-11
5.37354e-11
5.38189e-11
5.39123e-11
5.40154e-11
5.41257e-11
5.42403e-11
5.43564e-11
5.4472e-11
5.45865e-11
5.46999e-11
5.48124e-11
5.49244e-11
5.50367e-11
5.51496e-11
5.52636e-11
5.5379e-11
5.54957e-11
5.56139e-11
5.57336e-11
5.58551e-11
5.5978e-11
5.61026e-11
5.6229e-11
5.6357e-11
5.64871e-11
5.66195e-11
5.67543e-11
5.68919e-11
5.70325e-11
5.71764e-11
5.73245e-11
5.74771e-11
5.76347e-11
5.77976e-11
5.79665e-11
5.81418e-11
5.83243e-11
5.85144e-11
5.87127e-11
5.89196e-11
5.91349e-11
5.93587e-11
5.95904e-11
5.98294e-11
6.00747e-11
6.03257e-11
6.05818e-11
6.08434e-11
6.11118e-11
6.13885e-11
6.16754e-11
6.19751e-11
6.22899e-11
6.2621e-11
6.29693e-11
6.33343e-11
6.37149e-11
6.41088e-11
6.45134e-11
6.49266e-11
6.53468e-11
6.57734e-11
6.62066e-11
6.66473e-11
6.70968e-11
6.75564e-11
6.8027e-11
6.85089e-11
6.90018e-11
6.95049e-11
7.00171e-11
7.0537e-11
7.10636e-11
7.15959e-11
7.21333e-11
7.26756e-11
7.32224e-11
7.37737e-11
7.43292e-11
7.48889e-11
7.54525e-11
7.60197e-11
7.65904e-11
7.71644e-11
7.77413e-11
7.83209e-11
7.8903e-11
7.9487e-11
8.00727e-11
8.06595e-11
8.12469e-11
8.18342e-11
8.24207e-11
8.30055e-11
8.35879e-11
8.41669e-11
8.47417e-11
8.53113e-11
8.58752e-11
8.64329e-11
8.69843e-11
8.75297e-11
8.80703e-11
8.86076e-11
8.91444e-11
8.96843e-11
9.02325e-11
9.07954e-11
9.13812e-11
9.1999e-11
9.26586e-11
9.33688e-11
9.4136e-11
9.49637e-11
9.5851e-11
9.67897e-11
9.77575e-11
9.87165e-11
9.96229e-11
1.00434e-10
1.01099e-10
1.01562e-10
1.01769e-10
1.01753e-10
1.01583e-10
1.01275e-10
1.00193e-10
1.20693e-10
1.54206e-10
2.29552e-10
6.1785e-09
4.34212e-09
3.11529e-09
2.61647e-09
2.25989e-09
1.96692e-09
1.71947e-09
1.50673e-09
1.32183e-09
1.15997e-09
1.01758e-09
8.91898e-10
7.80698e-10
6.82161e-10
5.94766e-10
5.17226e-10
4.48441e-10
3.87458e-10
3.33452e-10
2.857e-10
2.43566e-10
2.06488e-10
1.73972e-10
1.45576e-10
1.20909e-10
9.96238e-11
8.13993e-11
6.59221e-11
5.28649e-11
4.18819e-11
3.26317e-11
2.48148e-11
1.8197e-11
1.26047e-11
7.90854e-12
4.01362e-12
8.58353e-13
-1.58192e-12
-3.29469e-12
-4.24925e-12
-4.45363e-12
-4.03402e-12
-3.25401e-12
-2.41483e-12
-1.71735e-12
-1.21979e-12
-8.9068e-13
-6.75142e-13
-5.28869e-13
-4.24334e-13
-3.46541e-13
-2.87181e-13
-2.39474e-13
-1.99748e-13
-1.67048e-13
-1.40988e-13
-1.19113e-13
-9.98874e-14
-8.41117e-14
-7.14162e-14
-6.03139e-14
-5.06993e-14
-4.27796e-14
-3.59905e-14
-3.01441e-14
-2.53338e-14
-2.1164e-14
-1.7507e-14
-1.45709e-14
-1.21208e-14
-9.94982e-15
-8.14051e-15
-6.64536e-15
-5.39397e-15
-4.36293e-15
-3.47837e-15
-2.74231e-15
-2.16009e-15
-1.67225e-15
-1.27328e-15
-9.58853e-16
-7.04352e-16
-5.03235e-16
-3.47348e-16
-2.27771e-16
-1.36454e-16
-6.88798e-17
-2.06699e-17
1.25529e-17
3.40302e-17
4.68285e-17
1.35989e-16
2.61224e-15
-2.63734e-18
-2.88314e-18
-3.06961e-18
-3.25832e-18
-3.38927e-18
-3.53956e-18
-3.63218e-18
-3.74492e-18
-3.78344e-18
-3.85779e-18
-3.87036e-18
-3.90139e-18
-3.8707e-18
-3.86221e-18
-3.80159e-18
-3.7614e-18
-3.66937e-18
-3.59667e-18
-3.48653e-18
-3.40125e-18
-3.29105e-18
-3.22401e-18
-3.1739e-18
-3.16336e-18
-3.12035e-18
-3.11428e-18
-3.11101e-18
-3.10405e-18
-3.08115e-18
-3.05359e-18
-3.0531e-18
-3.04024e-18
-3.01338e-18
-2.95478e-18
-2.90726e-18
-2.82451e-18
-2.73245e-18
-2.61675e-18
-2.56733e-18
-2.49596e-18
-2.42217e-18
-2.308e-18
-2.2177e-18
-2.08573e-18
-1.91855e-18
-1.74258e-18
-1.61572e-18
-1.458e-18
-1.29809e-18
-1.10279e-18
-9.34639e-19
-7.38479e-19
-5.53984e-19
-3.57549e-19
-5.44501e-19
-5.19541e-19
-5.12349e-19
-4.79895e-19
-4.84462e-19
-4.78044e-19
-4.73205e-19
-4.57643e-19
-4.68441e-19
-4.69514e-19
-4.71457e-19
-4.62503e-19
-4.63792e-19
-4.52387e-19
-4.43481e-19
-4.2686e-19
-4.35458e-19
-4.35678e-19
-4.37177e-19
-4.28572e-19
-4.28839e-19
-4.18051e-19
-4.08198e-19
-3.86548e-19
-3.93543e-19
-3.86163e-19
-3.80865e-19
-3.57085e-19
-3.64547e-19
-3.46639e-19
-3.48259e-19
-3.15119e-19
-6.04035e-19
-8.23668e-19
-1.05946e-18
-1.18268e-18
-1.42395e-18
-1.49842e-18
-1.5796e-18
-1.47724e-18
-1.70767e-18
-1.7046e-18
-1.70171e-18
-1.41462e-18
-1.33913e-18
-9.67867e-19
-5.97889e-19
1.8997e-20
2.70161e-19
7.50592e-19
1.23169e-18
1.94585e-18
2.56052e-18
3.29068e-18
4.0719e-18
4.98039e-18
6.12727e-18
7.0401e-18
7.99095e-18
8.69139e-18
9.2445e-18
1.03433e-17
1.27831e-17
)
;

boundaryField
{
    inandouthalf11
    {
        type            cyclic;
        value           nonuniform List<scalar> 
100
(
2.79624e-10
2.79752e-10
2.79646e-10
2.79777e-10
2.79969e-10
2.80199e-10
2.80485e-10
2.80813e-10
2.81148e-10
2.81466e-10
2.81726e-10
2.81903e-10
2.82006e-10
2.82058e-10
2.82083e-10
2.82096e-10
2.82103e-10
2.82108e-10
2.82112e-10
2.82119e-10
2.82123e-10
2.8213e-10
2.82138e-10
2.82147e-10
2.82156e-10
2.82165e-10
2.82175e-10
2.82187e-10
2.82199e-10
2.82211e-10
2.82223e-10
2.82237e-10
2.82249e-10
2.82266e-10
2.8228e-10
2.82297e-10
2.82314e-10
2.82333e-10
2.82355e-10
2.82375e-10
2.82399e-10
2.82424e-10
2.82448e-10
2.82477e-10
2.82506e-10
2.82538e-10
2.82572e-10
2.82605e-10
2.82644e-10
2.82686e-10
2.82728e-10
2.82775e-10
2.82824e-10
2.82876e-10
2.82931e-10
2.82991e-10
2.83053e-10
2.8312e-10
2.83189e-10
2.83261e-10
2.83339e-10
2.83418e-10
2.83501e-10
2.83585e-10
2.83671e-10
2.83759e-10
2.8385e-10
2.83944e-10
2.84042e-10
2.84143e-10
2.8425e-10
2.84361e-10
2.84475e-10
2.84594e-10
2.84717e-10
2.84844e-10
2.84972e-10
2.85104e-10
2.85239e-10
2.85376e-10
2.85517e-10
2.85661e-10
2.85809e-10
2.8596e-10
2.86116e-10
2.86275e-10
2.86438e-10
2.86604e-10
2.86774e-10
2.86947e-10
2.87123e-10
2.87303e-10
2.87487e-10
2.87674e-10
2.87865e-10
2.8806e-10
2.88258e-10
2.88461e-10
2.88668e-10
2.88878e-10
)
;
    }
    inandouthalf12
    {
        type            cyclic;
        value           nonuniform List<scalar> 
100
(
-2.79624e-10
-2.79752e-10
-2.79646e-10
-2.79777e-10
-2.79969e-10
-2.80199e-10
-2.80485e-10
-2.80813e-10
-2.81148e-10
-2.81466e-10
-2.81726e-10
-2.81903e-10
-2.82006e-10
-2.82058e-10
-2.82083e-10
-2.82096e-10
-2.82103e-10
-2.82108e-10
-2.82112e-10
-2.82119e-10
-2.82123e-10
-2.8213e-10
-2.82138e-10
-2.82147e-10
-2.82156e-10
-2.82165e-10
-2.82175e-10
-2.82187e-10
-2.82199e-10
-2.82211e-10
-2.82223e-10
-2.82237e-10
-2.82249e-10
-2.82266e-10
-2.8228e-10
-2.82297e-10
-2.82314e-10
-2.82333e-10
-2.82355e-10
-2.82375e-10
-2.82399e-10
-2.82424e-10
-2.82448e-10
-2.82477e-10
-2.82506e-10
-2.82538e-10
-2.82572e-10
-2.82605e-10
-2.82644e-10
-2.82686e-10
-2.82728e-10
-2.82775e-10
-2.82824e-10
-2.82876e-10
-2.82931e-10
-2.82991e-10
-2.83053e-10
-2.8312e-10
-2.83189e-10
-2.83261e-10
-2.83339e-10
-2.83418e-10
-2.83501e-10
-2.83585e-10
-2.83671e-10
-2.83759e-10
-2.8385e-10
-2.83944e-10
-2.84042e-10
-2.84143e-10
-2.8425e-10
-2.84361e-10
-2.84475e-10
-2.84594e-10
-2.84717e-10
-2.84844e-10
-2.84972e-10
-2.85104e-10
-2.85239e-10
-2.85376e-10
-2.85517e-10
-2.85661e-10
-2.85809e-10
-2.8596e-10
-2.86116e-10
-2.86275e-10
-2.86438e-10
-2.86604e-10
-2.86774e-10
-2.86947e-10
-2.87123e-10
-2.87303e-10
-2.87487e-10
-2.87674e-10
-2.87865e-10
-2.8806e-10
-2.88258e-10
-2.88461e-10
-2.88668e-10
-2.88878e-10
)
;
    }
    inandouthalf21
    {
        type            cyclic;
        value           nonuniform List<scalar> 
100
(
2.89093e-10
2.89312e-10
2.89536e-10
2.89764e-10
2.89997e-10
2.90234e-10
2.90477e-10
2.90724e-10
2.90977e-10
2.91236e-10
2.915e-10
2.91769e-10
2.92045e-10
2.92328e-10
2.92617e-10
2.92913e-10
2.93216e-10
2.93526e-10
2.93845e-10
2.94172e-10
2.94508e-10
2.94853e-10
2.95209e-10
2.95575e-10
2.95953e-10
2.96344e-10
2.96749e-10
2.9717e-10
2.97607e-10
2.98063e-10
2.98538e-10
2.99034e-10
2.99551e-10
3.00094e-10
3.00668e-10
3.0127e-10
3.01893e-10
3.02542e-10
3.03246e-10
3.04038e-10
3.04882e-10
3.05669e-10
3.06608e-10
3.07843e-10
3.09364e-10
3.11724e-10
3.2268e-10
3.27452e-10
3.47081e-10
1.88018e-09
1.48739e-08
8.75492e-09
3.33543e-10
-8.46959e-09
-1.74351e-08
-2.64884e-08
-3.55894e-08
-4.4713e-08
-5.38423e-08
-6.29652e-08
-7.20731e-08
-8.11595e-08
-9.02199e-08
-9.92508e-08
-1.08249e-07
-1.17214e-07
-1.26143e-07
-1.35036e-07
-1.43891e-07
-1.52709e-07
-1.61488e-07
-1.70228e-07
-1.78929e-07
-1.8759e-07
-1.96211e-07
-2.04791e-07
-2.13329e-07
-2.21825e-07
-2.30277e-07
-2.38685e-07
-2.47046e-07
-2.5536e-07
-2.63624e-07
-2.71837e-07
-2.79998e-07
-2.88103e-07
-2.96151e-07
-3.04138e-07
-3.12061e-07
-3.19914e-07
-3.27693e-07
-3.3539e-07
-3.42997e-07
-3.50504e-07
-3.579e-07
-3.65173e-07
-3.72311e-07
-3.79297e-07
-3.86115e-07
-3.92742e-07
)
;
    }
    inandouthalf22
    {
        type            cyclic;
        value           nonuniform List<scalar> 
100
(
-2.89093e-10
-2.89312e-10
-2.89536e-10
-2.89764e-10
-2.89997e-10
-2.90234e-10
-2.90477e-10
-2.90724e-10
-2.90977e-10
-2.91236e-10
-2.915e-10
-2.91769e-10
-2.92045e-10
-2.92328e-10
-2.92617e-10
-2.92913e-10
-2.93216e-10
-2.93526e-10
-2.93845e-10
-2.94172e-10
-2.94508e-10
-2.94853e-10
-2.95209e-10
-2.95575e-10
-2.95953e-10
-2.96344e-10
-2.96749e-10
-2.9717e-10
-2.97607e-10
-2.98063e-10
-2.98538e-10
-2.99034e-10
-2.99551e-10
-3.00094e-10
-3.00668e-10
-3.0127e-10
-3.01893e-10
-3.02542e-10
-3.03246e-10
-3.04038e-10
-3.04882e-10
-3.05669e-10
-3.06608e-10
-3.07843e-10
-3.09364e-10
-3.11724e-10
-3.2268e-10
-3.27452e-10
-3.47081e-10
-1.88018e-09
-1.48739e-08
-8.75492e-09
-3.33543e-10
8.46959e-09
1.74351e-08
2.64884e-08
3.55894e-08
4.4713e-08
5.38423e-08
6.29652e-08
7.20731e-08
8.11595e-08
9.02199e-08
9.92508e-08
1.08249e-07
1.17214e-07
1.26143e-07
1.35036e-07
1.43891e-07
1.52709e-07
1.61488e-07
1.70228e-07
1.78929e-07
1.8759e-07
1.96211e-07
2.04791e-07
2.13329e-07
2.21825e-07
2.30277e-07
2.38685e-07
2.47046e-07
2.5536e-07
2.63624e-07
2.71837e-07
2.79998e-07
2.88103e-07
2.96151e-07
3.04138e-07
3.12061e-07
3.19914e-07
3.27693e-07
3.3539e-07
3.42997e-07
3.50504e-07
3.579e-07
3.65173e-07
3.72311e-07
3.79297e-07
3.86115e-07
3.92742e-07
)
;
    }
    inandouthalf31
    {
        type            cyclic;
        value           nonuniform List<scalar> 
110
(
-3.99154e-07
-4.13603e-07
-4.28282e-07
-4.43095e-07
-4.57891e-07
-4.72429e-07
-4.85389e-07
-4.96079e-07
-5.06428e-07
-5.1695e-07
-5.2767e-07
-5.38594e-07
-5.49726e-07
-5.61072e-07
-5.72636e-07
-5.84422e-07
-5.96437e-07
-6.08684e-07
-6.2117e-07
-6.33899e-07
-6.46877e-07
-6.6011e-07
-6.73604e-07
-6.87363e-07
-7.01394e-07
-7.15702e-07
-7.30295e-07
-7.45178e-07
-7.60357e-07
-7.75839e-07
-7.9163e-07
-8.07737e-07
-8.24167e-07
-8.40927e-07
-8.58024e-07
-8.75464e-07
-8.93255e-07
-9.11405e-07
-9.29921e-07
-9.48811e-07
-9.68081e-07
-9.87741e-07
-1.0078e-06
-1.02826e-06
-1.04914e-06
-1.07044e-06
-1.09218e-06
-1.11435e-06
-1.13697e-06
-1.16005e-06
-1.1836e-06
-1.20763e-06
-1.23214e-06
-1.25715e-06
-1.28267e-06
-1.3087e-06
-1.33527e-06
-1.36237e-06
-1.39002e-06
-1.41824e-06
-1.44703e-06
-1.4764e-06
-1.50636e-06
-1.53694e-06
-1.56813e-06
-1.59996e-06
-1.63244e-06
-1.66557e-06
-1.69938e-06
-1.73387e-06
-1.76907e-06
-1.80497e-06
-1.84161e-06
-1.87899e-06
-1.91713e-06
-1.95604e-06
-1.99574e-06
-2.03625e-06
-2.07758e-06
-2.11975e-06
-2.16278e-06
-2.20667e-06
-2.25146e-06
-2.29716e-06
-2.34379e-06
-2.39136e-06
-2.4399e-06
-2.48942e-06
-2.53995e-06
-2.59151e-06
-2.64411e-06
-2.69778e-06
-2.75253e-06
-2.8084e-06
-2.86541e-06
-2.92357e-06
-2.98291e-06
-3.04345e-06
-3.10522e-06
-3.16825e-06
-3.23256e-06
-3.29817e-06
-3.36512e-06
-3.43342e-06
-3.50311e-06
-3.57421e-06
-3.64676e-06
-3.72078e-06
-3.7963e-06
-3.87336e-06
)
;
    }
    inandouthalf32
    {
        type            cyclic;
        value           nonuniform List<scalar> 
110
(
3.99154e-07
4.13603e-07
4.28282e-07
4.43095e-07
4.57891e-07
4.72429e-07
4.85389e-07
4.96079e-07
5.06428e-07
5.1695e-07
5.2767e-07
5.38594e-07
5.49726e-07
5.61072e-07
5.72636e-07
5.84422e-07
5.96437e-07
6.08684e-07
6.2117e-07
6.33899e-07
6.46877e-07
6.6011e-07
6.73604e-07
6.87363e-07
7.01394e-07
7.15702e-07
7.30295e-07
7.45178e-07
7.60357e-07
7.75839e-07
7.9163e-07
8.07737e-07
8.24167e-07
8.40927e-07
8.58024e-07
8.75464e-07
8.93255e-07
9.11405e-07
9.29921e-07
9.48811e-07
9.68081e-07
9.87741e-07
1.0078e-06
1.02826e-06
1.04914e-06
1.07044e-06
1.09218e-06
1.11435e-06
1.13697e-06
1.16005e-06
1.1836e-06
1.20763e-06
1.23214e-06
1.25715e-06
1.28267e-06
1.3087e-06
1.33527e-06
1.36237e-06
1.39002e-06
1.41824e-06
1.44703e-06
1.4764e-06
1.50636e-06
1.53694e-06
1.56813e-06
1.59996e-06
1.63244e-06
1.66557e-06
1.69938e-06
1.73387e-06
1.76907e-06
1.80497e-06
1.84161e-06
1.87899e-06
1.91713e-06
1.95604e-06
1.99574e-06
2.03625e-06
2.07758e-06
2.11975e-06
2.16278e-06
2.20667e-06
2.25146e-06
2.29716e-06
2.34379e-06
2.39136e-06
2.4399e-06
2.48942e-06
2.53995e-06
2.59151e-06
2.64411e-06
2.69778e-06
2.75253e-06
2.8084e-06
2.86541e-06
2.92357e-06
2.98291e-06
3.04345e-06
3.10522e-06
3.16825e-06
3.23256e-06
3.29817e-06
3.36512e-06
3.43342e-06
3.50311e-06
3.57421e-06
3.64676e-06
3.72078e-06
3.7963e-06
3.87336e-06
)
;
    }
    inandouthalf41
    {
        type            cyclic;
        value           nonuniform List<scalar> 
50
(
-3.46705e-06
-3.46705e-06
-3.46705e-06
-3.46705e-06
-3.46705e-06
-3.46705e-06
-3.46705e-06
-3.46705e-06
-3.46705e-06
-3.46705e-06
-3.46705e-06
-3.46705e-06
-3.46705e-06
-3.46705e-06
-3.46705e-06
-3.46705e-06
-3.46705e-06
-3.46705e-06
-3.46705e-06
-3.46705e-06
-3.46705e-06
-3.46705e-06
-3.46705e-06
-3.46705e-06
-3.46705e-06
-3.46705e-06
-3.46705e-06
-3.46705e-06
-3.46705e-06
-3.46705e-06
-3.46705e-06
-3.46705e-06
-3.46705e-06
-3.46705e-06
-3.46705e-06
-3.46705e-06
-3.46705e-06
-3.46705e-06
-3.46705e-06
-3.46705e-06
-3.46705e-06
-3.46705e-06
-3.46705e-06
-3.46705e-06
-3.46705e-06
-3.46705e-06
-3.46705e-06
-3.46705e-06
-3.46705e-06
-3.46705e-06
)
;
    }
    inandouthalf42
    {
        type            cyclic;
        value           nonuniform List<scalar> 
50
(
3.46705e-06
3.46705e-06
3.46705e-06
3.46705e-06
3.46705e-06
3.46705e-06
3.46705e-06
3.46705e-06
3.46705e-06
3.46705e-06
3.46705e-06
3.46705e-06
3.46705e-06
3.46705e-06
3.46705e-06
3.46705e-06
3.46705e-06
3.46705e-06
3.46705e-06
3.46705e-06
3.46705e-06
3.46705e-06
3.46705e-06
3.46705e-06
3.46705e-06
3.46705e-06
3.46705e-06
3.46705e-06
3.46705e-06
3.46705e-06
3.46705e-06
3.46705e-06
3.46705e-06
3.46705e-06
3.46705e-06
3.46705e-06
3.46705e-06
3.46705e-06
3.46705e-06
3.46705e-06
3.46705e-06
3.46705e-06
3.46705e-06
3.46705e-06
3.46705e-06
3.46705e-06
3.46705e-06
3.46705e-06
3.46705e-06
3.46705e-06
)
;
    }
    top
    {
        type            symmetryPlane;
        value           uniform 0;
    }
    walls
    {
        type            fixedValue;
        value           uniform 0;
    }
    frontAndBackPlanes
    {
        type            empty;
        value           nonuniform 0();
    }
}


// ************************************************************************* //
