/*--------------------------------*- C++ -*----------------------------------*\
| =========                 |                                                 |
| \\      /  F ield         | OpenFOAM: The Open Source CFD Toolbox           |
|  \\    /   O peration     | Version:  2.4.x                                 |
|   \\  /    A nd           | Web:      www.OpenFOAM.org                      |
|    \\/     M anipulation  |                                                 |
\*---------------------------------------------------------------------------*/
FoamFile
{
    version     2.0;
    format      ascii;
    class       volVectorField;
    location    "2.85";
    object      susb;
}
// * * * * * * * * * * * * * * * * * * * * * * * * * * * * * * * * * * * * * //

dimensions      [0 1 -2 0 0 0 0];

internalField   nonuniform List<vector> 
360
(
(0 1.24475e-18 0)
(0 2.01425e-18 0)
(0 8.94435e-19 0)
(0 4.59592e-20 0)
(-3.66749e-31 -2.92086e-19 0)
(-3.66673e-31 -5.76118e-19 0)
(-3.66543e-31 -8.00365e-19 0)
(0 -8.48322e-19 0)
(-3.66239e-31 -7.72815e-19 0)
(0 -6.4664e-19 0)
(-3.66008e-31 -4.79028e-19 0)
(0 -3.1386e-19 0)
(-3.65896e-31 -1.8513e-19 0)
(0 -9.73129e-20 0)
(0 -4.99019e-20 0)
(0 -2.69066e-20 0)
(0 -1.59153e-20 0)
(-3.65849e-31 -1.05569e-20 0)
(0 -1.46888e-20 0)
(0 -1.39374e-20 0)
(0 -1.43895e-20 0)
(-3.65839e-31 -2.21884e-20 0)
(0 -2.36378e-20 0)
(0 -2.49828e-20 0)
(0 -2.58923e-20 0)
(-3.65821e-31 -2.61726e-20 0)
(0 -3.2578e-20 0)
(0 -3.87545e-20 0)
(0 -3.83312e-20 0)
(0 -3.80692e-20 0)
(0 -4.4432e-20 0)
(0 -4.40984e-20 0)
(0 -5.03816e-20 0)
(0 -5.66532e-20 0)
(0 -5.62935e-20 0)
(3.65742e-31 -6.24617e-20 0)
(0 -6.85623e-20 0)
(0 -8.1249e-20 0)
(0 -8.08202e-20 0)
(0 -8.71278e-20 0)
(0 -9.98953e-20 0)
(0 -9.92637e-20 0)
(3.65635e-31 -1.11626e-19 0)
(0 -1.23751e-19 0)
(0 -1.29212e-19 0)
(0 -1.41109e-19 0)
(0 -1.45993e-19 0)
(0 -1.56829e-19 0)
(0 -1.80118e-19 0)
(0 -1.90027e-19 0)
(3.65416e-31 -1.99794e-19 0)
(0 -2.1565e-19 0)
(0 -2.30541e-19 0)
(0 -2.44295e-19 0)
(0 -2.63035e-19 0)
(0 -2.802e-19 0)
(0 -2.9562e-19 0)
(0 -3.15232e-19 0)
(0 -3.25831e-19 0)
(0 -3.45229e-19 0)
(0 -3.60311e-19 0)
(0 -3.70471e-19 0)
(0 -3.81888e-19 0)
(0 -3.88613e-19 0)
(0 -3.9728e-19 0)
(0 -4.08498e-19 0)
(0 -4.23623e-19 0)
(0 -4.38491e-19 0)
(0 -4.52868e-19 0)
(0 -4.7386e-19 0)
(0 -4.98126e-19 0)
(0 -5.11366e-19 0)
(0 -5.26922e-19 0)
(0 -5.44187e-19 0)
(0 -5.57176e-19 0)
(0 -5.67292e-19 0)
(0 -5.74766e-19 0)
(0 -5.86511e-19 0)
(0 -5.99398e-19 0)
(0 -6.12066e-19 0)
(0 -6.27017e-19 0)
(0 -6.44936e-19 0)
(0 -6.62401e-19 0)
(0 -6.79792e-19 0)
(0 -6.96579e-19 0)
(0 -7.1259e-19 0)
(0 -7.27477e-19 0)
(0 -7.41221e-19 0)
(0 -7.55566e-19 0)
(0 -7.70472e-19 0)
(0 -7.85884e-19 0)
(0 -8.02638e-19 0)
(0 -8.20618e-19 0)
(0 -8.39186e-19 0)
(0 -8.58333e-19 0)
(0 -8.77907e-19 0)
(0 -8.97751e-19 0)
(0 -9.17908e-19 0)
(0 -9.38562e-19 0)
(0 -9.59807e-19 0)
(0 -9.81717e-19 0)
(0 -1.00443e-18 0)
(0 -1.02797e-18 0)
(0 -1.05231e-18 0)
(0 -1.07751e-18 0)
(0 -1.1036e-18 0)
(0 -1.13067e-18 0)
(0 -1.15878e-18 0)
(0 -1.18805e-18 0)
(0 -1.21855e-18 0)
(0 -1.25039e-18 0)
(0 -1.28365e-18 0)
(0 -1.31845e-18 0)
(0 -1.35491e-18 0)
(0 -1.39315e-18 0)
(0 -1.43331e-18 0)
(0 -1.47555e-18 0)
(0 -1.52003e-18 0)
(0 -1.56691e-18 0)
(0 -1.61637e-18 0)
(0 -1.66852e-18 0)
(0 -1.72345e-18 0)
(0 -1.78126e-18 0)
(0 -1.84208e-18 0)
(0 -1.9063e-18 0)
(0 -1.97467e-18 0)
(0 -2.0482e-18 0)
(0 -2.12768e-18 0)
(0 -2.21263e-18 0)
(0 -2.24574e-18 0)
(0 -6.88121e-18 0)
(0 -4.72902e-17 0)
(0 -3.29842e-16 0)
(0 -2.16566e-15 0)
(0 -1.31617e-14 0)
(0 -7.28465e-14 0)
(0 -3.66987e-13 0)
(0 -1.71474e-12 0)
(0 -7.4744e-12 0)
(0 -2.86446e-11 0)
(0 -8.75983e-11 0)
(0 -2.44021e-10 0)
(0 -7.30064e-10 0)
(0 -2.46233e-09 0)
(0 -1.3772e-08 0)
(0 -2.96583e-07 0)
(0 -2.50704e-06 0)
(0 -2.07024e-05 0)
(0 -0.0171822 0)
(0 -0.427142 0)
(0 -0.913692 0)
(0 -0.685011 0)
(0 -0.390673 0)
(0 -0.267259 0)
(0 -0.206492 0)
(0 -0.171724 0)
(0 -0.148551 0)
(0 -0.131671 0)
(0 -0.118646 0)
(0 -0.108101 0)
(0 -0.0992168 0)
(0 -0.0914998 0)
(0 -0.0846382 0)
(0 -0.0784276 0)
(0 -0.0727304 0)
(0 -0.0674524 0)
(0 -0.0625277 0)
(0 -0.0579089 0)
(0 -0.0535615 0)
(0 -0.04946 0)
(0 -0.0455859 0)
(0 -0.0419257 0)
(0 -0.0384688 0)
(0 -0.0352003 0)
(0 -0.0320915 0)
(0 -0.0290939 0)
(0 -0.0261508 0)
(0 -0.0232359 0)
(0 -0.020398 0)
(0 -0.0177694 0)
(0 -0.015501 0)
(0 -0.0136506 0)
(0 -0.0121584 0)
(0 -0.0109417 0)
(0 -0.00995558 0)
(0 -0.00919494 0)
(0 -0.00867655 0)
(0 -0.00840773 0)
(0 -0.0083265 0)
(0 -0.00823081 0)
(0 -0.0078035 0)
(0 -0.00681201 0)
(0 -0.00534073 0)
(0 -0.00375693 0)
(0 -0.00242227 0)
(0 -0.00148787 0)
(0 -0.000911652 0)
(0 -0.000577679 0)
(0 -0.000382871 0)
(0 -0.000261162 0)
(0 -0.000179464 0)
(0 -0.000124257 0)
(-3.14536e-20 -8.5882e-05 0)
(0 -5.48092e-05 0)
(0 -2.98604e-05 0)
(3.99922e-21 -1.26021e-05 0)
(0 -1.98314e-06 0)
(0 -5.28783e-08 0)
(0 -6.402e-10 0)
(2.25603e-27 -7.88309e-12 0)
(0 -9.13847e-14 0)
(0 -9.52134e-16 0)
(0 -9.91126e-18 0)
(2.45658e-35 -9.91346e-20 0)
(0 -1.12745e-21 0)
(0 -2.2764e-22 0)
(0 -1.95331e-22 0)
(0 -1.55026e-22 0)
(0 -1.2912e-22 0)
(-3.32201e-38 -1.15969e-22 0)
(0 -9.67227e-23 0)
(-3.15767e-38 -7.99984e-23 0)
(0 -6.73734e-23 0)
(0 -5.57715e-23 0)
(0 -4.88819e-23 0)
(0 -4.13009e-23 0)
(0 -3.27315e-23 0)
(0 -2.82631e-23 0)
(6.60381e-39 -2.37327e-23 0)
(6.43659e-39 -1.90416e-23 0)
(0 -1.60635e-23 0)
(0 -1.32263e-23 0)
(0 -1.07048e-23 0)
(0 -8.68608e-24 0)
(0 -7.22332e-24 0)
(0 -5.8874e-24 0)
(0 -4.65274e-24 0)
(0 -3.85683e-24 0)
(0 -3.05114e-24 0)
(0 -2.39644e-24 0)
(0 7.6652e-24 0)
(0 -3.23927e-24 0)
(0 -1.03547e-23 0)
(-2.99593e-44 -9.29578e-29 0)
(1.46816e-44 -2.83206e-29 0)
(0 -2.66778e-29 0)
(0 -1.97251e-29 0)
(-6.91137e-45 -1.5552e-29 0)
(0 -9.08422e-30 0)
(0 -6.91268e-30 0)
(-6.50704e-45 -6.00036e-30 0)
(0 -6.75966e-30 0)
(0 -6.63043e-30 0)
(0 -4.91567e-30 0)
(0 -1.8872e-30 0)
(0 -1.13653e-30 0)
(0 -1.38031e-30 0)
(0 -1.91002e-30 0)
(0 -1.49655e-30 0)
(0 -6.51561e-31 0)
(0 -3.31039e-31 0)
(0 -3.60306e-31 0)
(0 -4.76419e-31 0)
(0 -3.57017e-31 0)
(0 -1.47809e-31 0)
(0 -8.60668e-32 0)
(0 -1.04643e-31 0)
(0 -1.09285e-31 0)
(0 -6.13815e-32 0)
(0 -2.53938e-32 0)
(0 -2.10923e-32 0)
(0 -2.48418e-32 0)
(0 -1.76281e-32 0)
(0 -7.121e-33 0)
(0 -4.64975e-33 0)
(0 -4.93633e-33 0)
(0 -3.63617e-33 0)
(0 -1.62312e-33 0)
(0 -1.36097e-33 0)
(0 -1.28334e-33 0)
(0 -7.03621e-34 0)
(0 -3.75487e-34 0)
(0 -2.39824e-34 0)
(0 -9.2559e-35 0)
(0 -3.38905e-35 0)
(0 -1.45439e-35 0)
(1.50519e-51 -6.33532e-36 0)
(0 -2.76129e-36 0)
(0 -1.19136e-36 0)
(0 -5.03654e-37 0)
(0 -2.07291e-37 0)
(0 -8.25735e-38 0)
(0 -3.16806e-38 0)
(0 -1.16557e-38 0)
(0 -4.09504e-39 0)
(0 -1.3682e-39 0)
(0 -4.32878e-40 0)
(0 -1.29099e-40 0)
(0 -3.61094e-41 0)
(-1.10546e-57 -9.4178e-42 0)
(0 -2.27505e-42 0)
(0 -5.05e-43 0)
(0 -1.02019e-43 0)
(0 -1.85359e-44 0)
(0 -2.98355e-45 0)
(0 -4.17054e-46 0)
(0 -4.92496e-47 0)
(0 -4.71582e-48 0)
(0 -3.42198e-49 0)
(0 -1.64664e-50 0)
(0 -3.65667e-52 0)
(0 -2.74496e-54 0)
(0 -6.26348e-56 0)
(0 -7.07799e-58 0)
(0 -9.57724e-69 0)
(0 -6.51569e-80 0)
(0 -3.26409e-91 0)
(0 -1.20321e-102 0)
(0 -3.91806e-114 0)
(0 -1.22086e-125 0)
(0 -5.97494e-137 0)
(0 -7.91821e-145 0)
(0 -1.62734e-155 0)
(0 -2.72471e-163 0)
(0 -5.51186e-174 0)
(0 -9.37274e-182 0)
(0 -2.36012e-192 0)
(0 -3.22331e-200 0)
(0 -1.07362e-210 0)
(0 -1.10926e-218 0)
(0 -7.29947e-229 0)
(0 -3.84451e-237 0)
(0 -4.85402e-247 0)
(0 -1.34777e-255 0)
(0 -2.47527e-265 0)
(0 -4.77917e-274 0)
(0 -1.17625e-283 0)
(0 -1.71699e-292 0)
(0 -5.20899e-302 0)
(0 -6.2448e-311 0)
(0 -2.23416e-320 0)
(0 -0 0)
(0 0 0)
(0 0 0)
(0 0 0)
(0 0 0)
(0 0 0)
(0 0 0)
(0 0 0)
(0 0 0)
(0 0 0)
(0 0 0)
(0 0 0)
(0 0 0)
(0 0 0)
(0 0 0)
(0 0 0)
(0 0 0)
(0 0 0)
(0 0 0)
)
;

boundaryField
{
    inandouthalf11
    {
        type            cyclic;
    }
    inandouthalf12
    {
        type            cyclic;
    }
    inandouthalf21
    {
        type            cyclic;
    }
    inandouthalf22
    {
        type            cyclic;
    }
    inandouthalf31
    {
        type            cyclic;
    }
    inandouthalf32
    {
        type            cyclic;
    }
    inandouthalf41
    {
        type            cyclic;
    }
    inandouthalf42
    {
        type            cyclic;
    }
    top
    {
        type            symmetryPlane;
    }
    walls
    {
        type            zeroGradient;
    }
    frontAndBackPlanes
    {
        type            empty;
    }
}


// ************************************************************************* //
