/*--------------------------------*- C++ -*----------------------------------*\
| =========                 |                                                 |
| \\      /  F ield         | OpenFOAM: The Open Source CFD Toolbox           |
|  \\    /   O peration     | Version:  2.4.x                                 |
|   \\  /    A nd           | Web:      www.OpenFOAM.org                      |
|    \\/     M anipulation  |                                                 |
\*---------------------------------------------------------------------------*/
FoamFile
{
    version     2.0;
    format      ascii;
    class       volTensorField;
    location    "2.85";
    object      Tauf;
}
// * * * * * * * * * * * * * * * * * * * * * * * * * * * * * * * * * * * * * //

dimensions      [0 2 -2 0 0 0 0];

internalField   nonuniform List<tensor> 
360
(
(0 -5.59375e-07 0 -5.59375e-07 1.6262e-09 0 0 0 0)
(0 -2.19774e-11 0 -2.19774e-11 3.20802e-09 0 0 0 0)
(0 -2.54278e-11 0 -2.54278e-11 4.35135e-09 0 0 0 0)
(0 -3.23159e-10 0 -3.23159e-10 4.52772e-09 0 0 0 0)
(1.03398e-22 -4.21929e-10 0 -4.21929e-10 4.40275e-09 0 0 0 0)
(5.16988e-23 -5.16316e-10 0 -5.16316e-10 4.4425e-09 0 0 0 0)
(5.16988e-23 -6.13777e-10 0 -6.13777e-10 4.80852e-09 0 0 0 0)
(0 -6.63157e-10 0 -6.63157e-10 5.32869e-09 0 0 0 0)
(5.16988e-23 -6.53043e-10 0 -6.53043e-10 5.60121e-09 0 0 0 0)
(0 -5.77718e-10 0 -5.77718e-10 5.23437e-09 0 0 0 0)
(1.03398e-22 -4.37622e-10 0 -4.37622e-10 4.17025e-09 0 0 0 0)
(0 -2.80248e-10 0 -2.80248e-10 2.78277e-09 0 0 0 0)
(1.03398e-22 -1.54997e-10 0 -1.54997e-10 1.5699e-09 0 0 0 0)
(0 -7.68368e-11 0 -7.68368e-11 7.80497e-10 0 0 0 0)
(0 -3.76424e-11 0 -3.76424e-11 3.70184e-10 0 0 0 0)
(0 -2.00577e-11 0 -2.00577e-11 1.8698e-10 0 0 0 0)
(0 -1.23993e-11 0 -1.23993e-11 1.11639e-10 0 0 0 0)
(5.16988e-23 -9.15221e-12 0 -9.15221e-12 8.27056e-11 0 0 0 0)
(0 -1.03138e-11 0 -1.03138e-11 7.45885e-11 0 0 0 0)
(0 -1.04783e-11 0 -1.04783e-11 7.65785e-11 0 0 0 0)
(0 -1.14448e-11 0 -1.14448e-11 8.38609e-11 0 0 0 0)
(1.03398e-22 -1.50899e-11 0 -1.50899e-11 9.34068e-11 0 0 0 0)
(0 -1.65641e-11 0 -1.65641e-11 1.02481e-10 0 0 0 0)
(0 -1.78352e-11 0 -1.78352e-11 1.09577e-10 0 0 0 0)
(0 -1.87211e-11 0 -1.87211e-11 1.13893e-10 0 0 0 0)
(1.03398e-22 -1.91712e-11 0 -1.91712e-11 1.1555e-10 0 0 0 0)
(0 -2.15496e-11 0 -2.15496e-11 1.15487e-10 0 0 0 0)
(0 -2.37764e-11 0 -2.37764e-11 1.1457e-10 0 0 0 0)
(0 -2.37459e-11 0 -2.37459e-11 1.13427e-10 0 0 0 0)
(0 -2.37965e-11 0 -2.37965e-11 1.12533e-10 0 0 0 0)
(0 -2.61478e-11 0 -2.61478e-11 1.12271e-10 0 0 0 0)
(0 -2.62805e-11 0 -2.62805e-11 1.12336e-10 0 0 0 0)
(0 -2.87139e-11 0 -2.87139e-11 1.1303e-10 0 0 0 0)
(0 -3.11853e-11 0 -3.11853e-11 1.14119e-10 0 0 0 0)
(0 -3.14295e-11 0 -3.14295e-11 1.15303e-10 0 0 0 0)
(-5.16988e-23 -3.39098e-11 0 -3.39098e-11 1.16758e-10 0 0 0 0)
(0 -3.63862e-11 0 -3.63862e-11 1.18154e-10 0 0 0 0)
(0 -4.11144e-11 0 -4.11144e-11 1.19869e-10 0 0 0 0)
(0 -4.13905e-11 0 -4.13905e-11 1.21339e-10 0 0 0 0)
(0 -4.39607e-11 0 -4.39607e-11 1.22933e-10 0 0 0 0)
(0 -4.87376e-11 0 -4.87376e-11 1.24729e-10 0 0 0 0)
(0 -4.89719e-11 0 -4.89719e-11 1.26232e-10 0 0 0 0)
(-5.16988e-23 -5.36461e-11 0 -5.36461e-11 1.28143e-10 0 0 0 0)
(0 -5.82736e-11 0 -5.82736e-11 1.30206e-10 0 0 0 0)
(0 -6.06669e-11 0 -6.06669e-11 1.32351e-10 0 0 0 0)
(0 -6.52814e-11 0 -6.52814e-11 1.34954e-10 0 0 0 0)
(0 -6.75478e-11 0 -6.75478e-11 1.37597e-10 0 0 0 0)
(0 -7.18939e-11 0 -7.18939e-11 1.40555e-10 0 0 0 0)
(0 -8.0555e-11 0 -8.0555e-11 1.4424e-10 0 0 0 0)
(0 -8.47389e-11 0 -8.47389e-11 1.4819e-10 0 0 0 0)
(-5.16988e-23 -8.89392e-11 0 -8.89392e-11 1.5267e-10 0 0 0 0)
(0 -9.52825e-11 0 -9.52825e-11 1.57663e-10 0 0 0 0)
(0 -1.01373e-10 0 -1.01373e-10 1.63078e-10 0 0 0 0)
(0 -1.0716e-10 0 -1.0716e-10 1.68955e-10 0 0 0 0)
(0 -1.14739e-10 0 -1.14739e-10 1.75505e-10 0 0 0 0)
(0 -1.21879e-10 0 -1.21879e-10 1.82622e-10 0 0 0 0)
(0 -1.28515e-10 0 -1.28515e-10 1.90239e-10 0 0 0 0)
(0 -1.36655e-10 0 -1.36655e-10 1.98499e-10 0 0 0 0)
(0 -1.41771e-10 0 -1.41771e-10 2.06763e-10 0 0 0 0)
(0 -1.4991e-10 0 -1.4991e-10 2.15346e-10 0 0 0 0)
(0 -1.56565e-10 0 -1.56565e-10 2.23697e-10 0 0 0 0)
(0 -1.61477e-10 0 -1.61477e-10 2.31553e-10 0 0 0 0)
(0 -1.66714e-10 0 -1.66714e-10 2.38804e-10 0 0 0 0)
(0 -1.70225e-10 0 -1.70225e-10 2.45119e-10 0 0 0 0)
(0 -1.74302e-10 0 -1.74302e-10 2.50782e-10 0 0 0 0)
(0 -1.79223e-10 0 -1.79223e-10 2.56158e-10 0 0 0 0)
(0 -1.85549e-10 0 -1.85549e-10 2.61954e-10 0 0 0 0)
(0 -1.91953e-10 0 -1.91953e-10 2.68769e-10 0 0 0 0)
(0 -1.9844e-10 0 -1.9844e-10 2.77102e-10 0 0 0 0)
(0 -2.07519e-10 0 -2.07519e-10 2.87534e-10 0 0 0 0)
(0 -2.18081e-10 0 -2.18081e-10 3.00389e-10 0 0 0 0)
(0 -2.25178e-10 0 -2.25178e-10 3.15078e-10 0 0 0 0)
(0 -2.33289e-10 0 -2.33289e-10 3.31291e-10 0 0 0 0)
(0 -2.42092e-10 0 -2.42092e-10 3.48188e-10 0 0 0 0)
(0 -2.49384e-10 0 -2.49384e-10 3.64749e-10 0 0 0 0)
(0 -2.55484e-10 0 -2.55484e-10 3.80051e-10 0 0 0 0)
(0 -2.60347e-10 0 -2.60347e-10 3.93196e-10 0 0 0 0)
(0 -2.66314e-10 0 -2.66314e-10 4.04053e-10 0 0 0 0)
(0 -2.72353e-10 0 -2.72353e-10 4.12808e-10 0 0 0 0)
(0 -2.7809e-10 0 -2.7809e-10 4.20052e-10 0 0 0 0)
(0 -2.84515e-10 0 -2.84515e-10 4.26624e-10 0 0 0 0)
(0 -2.92e-10 0 -2.92e-10 4.33415e-10 0 0 0 0)
(0 -2.99466e-10 0 -2.99466e-10 4.41029e-10 0 0 0 0)
(0 -3.07092e-10 0 -3.07092e-10 4.4984e-10 0 0 0 0)
(0 -3.14691e-10 0 -3.14691e-10 4.59818e-10 0 0 0 0)
(0 -3.22152e-10 0 -3.22152e-10 4.70656e-10 0 0 0 0)
(0 -3.2927e-10 0 -3.2927e-10 4.81826e-10 0 0 0 0)
(0 -3.35946e-10 0 -3.35946e-10 4.92707e-10 0 0 0 0)
(0 -3.42705e-10 0 -3.42705e-10 5.02817e-10 0 0 0 0)
(0 -3.49485e-10 0 -3.49485e-10 5.11828e-10 0 0 0 0)
(0 -3.56256e-10 0 -3.56256e-10 5.19626e-10 0 0 0 0)
(0 -3.63323e-10 0 -3.63323e-10 5.26321e-10 0 0 0 0)
(0 -3.70684e-10 0 -3.70684e-10 5.32146e-10 0 0 0 0)
(0 -3.7816e-10 0 -3.7816e-10 5.37356e-10 0 0 0 0)
(0 -3.85781e-10 0 -3.85781e-10 5.42184e-10 0 0 0 0)
(0 -3.93519e-10 0 -3.93519e-10 5.46779e-10 0 0 0 0)
(0 -4.0133e-10 0 -4.0133e-10 5.51212e-10 0 0 0 0)
(0 -4.0923e-10 0 -4.0923e-10 5.55492e-10 0 0 0 0)
(0 -4.17282e-10 0 -4.17282e-10 5.596e-10 0 0 0 0)
(0 -4.25515e-10 0 -4.25515e-10 5.63508e-10 0 0 0 0)
(0 -4.33953e-10 0 -4.33953e-10 5.67193e-10 0 0 0 0)
(0 -4.42646e-10 0 -4.42646e-10 5.70648e-10 0 0 0 0)
(0 -4.51603e-10 0 -4.51603e-10 5.73867e-10 0 0 0 0)
(0 -4.60814e-10 0 -4.60814e-10 5.76837e-10 0 0 0 0)
(0 -4.70296e-10 0 -4.70296e-10 5.79534e-10 0 0 0 0)
(0 -4.80063e-10 0 -4.80063e-10 5.8192e-10 0 0 0 0)
(0 -4.90132e-10 0 -4.90132e-10 5.83943e-10 0 0 0 0)
(0 -5.00527e-10 0 -5.00527e-10 5.85542e-10 0 0 0 0)
(0 -5.11276e-10 0 -5.11276e-10 5.86648e-10 0 0 0 0)
(0 -5.22402e-10 0 -5.22402e-10 5.87185e-10 0 0 0 0)
(0 -5.33931e-10 0 -5.33931e-10 5.87077e-10 0 0 0 0)
(0 -5.45891e-10 0 -5.45891e-10 5.86245e-10 0 0 0 0)
(0 -5.58315e-10 0 -5.58315e-10 5.84614e-10 0 0 0 0)
(0 -5.71242e-10 0 -5.71242e-10 5.82128e-10 0 0 0 0)
(0 -5.8472e-10 0 -5.8472e-10 5.78755e-10 0 0 0 0)
(0 -5.98808e-10 0 -5.98808e-10 5.74506e-10 0 0 0 0)
(0 -6.13578e-10 0 -6.13578e-10 5.69451e-10 0 0 0 0)
(0 -6.29118e-10 0 -6.29118e-10 5.63741e-10 0 0 0 0)
(0 -6.45528e-10 0 -6.45528e-10 5.57618e-10 0 0 0 0)
(0 -6.62922e-10 0 -6.62922e-10 5.51435e-10 0 0 0 0)
(0 -6.81417e-10 0 -6.81417e-10 5.45665e-10 0 0 0 0)
(0 -7.01133e-10 0 -7.01133e-10 5.40912e-10 0 0 0 0)
(0 -7.22199e-10 0 -7.22199e-10 5.37927e-10 0 0 0 0)
(0 -7.44789e-10 0 -7.44789e-10 5.37626e-10 0 0 0 0)
(0 -7.69179e-10 0 -7.69179e-10 5.41117e-10 0 0 0 0)
(0 -7.95793e-10 0 -7.95793e-10 5.49703e-10 0 0 0 0)
(0 -8.25172e-10 0 -8.25172e-10 5.64841e-10 0 0 0 0)
(0 -8.57744e-10 0 -8.57744e-10 5.8797e-10 0 0 0 0)
(0 -8.93431e-10 0 -8.93431e-10 6.2018e-10 0 0 0 0)
(0 -9.31381e-10 0 -9.31381e-10 6.61727e-10 0 0 0 0)
(0 -9.70631e-10 0 -9.70631e-10 7.1164e-10 0 0 0 0)
(0 -1.01218e-09 0 -1.01218e-09 7.67739e-10 0 0 0 0)
(0 -1.06024e-09 0 -1.06024e-09 8.27024e-10 0 0 0 0)
(0 -1.11741e-09 0 -1.11741e-09 8.85066e-10 0 0 0 0)
(0 -1.17622e-09 0 -1.17622e-09 9.33345e-10 0 0 0 0)
(0 -1.22526e-09 0 -1.22526e-09 9.58207e-10 0 0 0 0)
(0 -1.2723e-09 0 -1.2723e-09 9.46489e-10 0 0 0 0)
(0 -1.35318e-09 0 -1.35318e-09 8.92927e-10 0 0 0 0)
(0 -1.49592e-09 0 -1.49592e-09 7.98443e-10 0 0 0 0)
(0 -1.63603e-09 0 -1.63603e-09 6.57317e-10 0 0 0 0)
(0 -1.63109e-09 0 -1.63109e-09 4.45602e-10 0 0 0 0)
(0 -1.72526e-09 0 -1.72526e-09 2.01079e-10 0 0 0 0)
(0 -2.17323e-09 0 -2.17323e-09 -3.43675e-12 0 0 0 0)
(0 -2.75645e-09 0 -2.75645e-09 -1.86864e-10 0 0 0 0)
(0 -3.88151e-09 0 -3.88151e-09 -8.13323e-10 0 0 0 0)
(0 -1.33161e-08 0 -1.33161e-08 1.0389e-09 0 0 0 0)
(0 -1.5729e-08 0 -1.5729e-08 5.11384e-08 0 0 0 0)
(0 -2.44226e-08 0 -2.44226e-08 -1.10334e-07 0 0 0 0)
(0 -1.57338e-06 0 -1.57338e-06 4.4513e-07 0 0 0 0)
(0 -2.07354e-05 0 -2.07354e-05 6.23996e-06 0 0 0 0)
(0 -4.31963e-05 0 -4.31963e-05 2.98796e-06 0 0 0 0)
(0 0.000282339 0 0.000282339 -5.24829e-05 0 0 0 0)
(0 0.000564292 0 0.000564292 6.12902e-06 0 0 0 0)
(0 0.000794434 0 0.000794434 -2.53603e-05 0 0 0 0)
(0 0.000999041 0 0.000999041 -1.5942e-05 0 0 0 0)
(0 0.00118369 0 0.00118369 -1.56316e-05 0 0 0 0)
(0 0.00135132 0 0.00135132 -1.56571e-05 0 0 0 0)
(0 0.00150396 0 0.00150396 -1.52695e-05 0 0 0 0)
(0 0.00164311 0 0.00164311 -1.45985e-05 0 0 0 0)
(0 0.00176995 0 0.00176995 -1.38317e-05 0 0 0 0)
(0 0.00188541 0 0.00188541 -1.30263e-05 0 0 0 0)
(0 0.00199028 0 0.00199028 -1.21978e-05 0 0 0 0)
(0 0.0020852 0 0.0020852 -1.13591e-05 0 0 0 0)
(0 0.00217072 0 0.00217072 -1.05234e-05 0 0 0 0)
(0 0.0022473 0 0.0022473 -9.70145e-06 0 0 0 0)
(0 0.00231534 0 0.00231534 -8.90102e-06 0 0 0 0)
(0 0.00237518 0 0.00237518 -8.12784e-06 0 0 0 0)
(0 0.00242714 0 0.00242714 -7.38598e-06 0 0 0 0)
(0 0.00247147 0 0.00247147 -6.67827e-06 0 0 0 0)
(0 0.00250841 0 0.00250841 -6.00656e-06 0 0 0 0)
(0 0.00253816 0 0.00253816 -5.3719e-06 0 0 0 0)
(0 0.00256091 0 0.00256091 -4.77465e-06 0 0 0 0)
(0 0.00257682 0 0.00257682 -4.21456e-06 0 0 0 0)
(0 0.00258603 0 0.00258603 -3.69087e-06 0 0 0 0)
(0 0.00258867 0 0.00258867 -3.20296e-06 0 0 0 0)
(0 0.00258484 0 0.00258484 -2.75146e-06 0 0 0 0)
(0 0.00257466 0 0.00257466 -2.33932e-06 0 0 0 0)
(0 0.00255819 0 0.00255819 -1.97155e-06 0 0 0 0)
(0 0.00253553 0 0.00253553 -1.65272e-06 0 0 0 0)
(0 0.00250675 0 0.00250675 -1.38343e-06 0 0 0 0)
(0 0.00247191 0 0.00247191 -1.15874e-06 0 0 0 0)
(0 0.00243111 0 0.00243111 -9.70113e-07 0 0 0 0)
(0 0.00238444 0 0.00238444 -8.09002e-07 0 0 0 0)
(0 0.002332 0 0.002332 -6.68824e-07 0 0 0 0)
(0 0.00227389 0 0.00227389 -5.44598e-07 0 0 0 0)
(0 0.00221021 0 0.00221021 -4.31738e-07 0 0 0 0)
(0 0.00214106 0 0.00214106 -3.25369e-07 0 0 0 0)
(0 0.00206653 0 0.00206653 -2.2123e-07 0 0 0 0)
(0 0.0019867 0 0.0019867 -1.18775e-07 0 0 0 0)
(0 0.00190164 0 0.00190164 -2.48233e-08 0 0 0 0)
(0 0.00181143 0 0.00181143 4.71084e-08 0 0 0 0)
(0 0.00171619 0 0.00171619 8.51631e-08 0 0 0 0)
(0 0.00161606 0 0.00161606 8.92034e-08 0 0 0 0)
(0 0.00151132 0 0.00151132 7.17571e-08 0 0 0 0)
(0 0.00140229 0 0.00140229 4.87066e-08 0 0 0 0)
(0 0.00128939 0 0.00128939 2.99708e-08 0 0 0 0)
(0 0.00117307 0 0.00117307 1.79356e-08 0 0 0 0)
(0 0.00105386 0 0.00105386 1.1051e-08 0 0 0 0)
(0 0.000932338 0 0.000932338 7.1507e-09 0 0 0 0)
(0 0.000809188 0 0.000809188 4.77975e-09 0 0 0 0)
(0 0.000685237 0 0.000685237 3.22996e-09 0 0 0 0)
(0 0.000560261 0 0.000560261 2.18223e-09 0 0 0 0)
(-3.89718e-18 0.000434378 0 0.000434378 1.44891e-09 0 0 0 0)
(0 0.000309685 0 0.000309685 9.02207e-10 0 0 0 0)
(0 0.00019024 0 0.00019024 4.96184e-10 0 0 0 0)
(5.08754e-19 7.44688e-05 0 7.44688e-05 2.16787e-10 0 0 0 0)
(0 8.94446e-06 0 8.94446e-06 4.57052e-11 0 0 0 0)
(-9.70932e-20 8.90523e-07 0 8.90523e-07 1.41831e-11 0 0 0 0)
(0 3.75639e-07 0 3.75639e-07 1.04001e-11 0 0 0 0)
(0 3.24355e-07 0 3.24355e-07 9.44671e-12 0 0 0 0)
(0 2.92588e-07 0 2.92588e-07 7.53386e-12 0 0 0 0)
(0 2.6364e-07 0 2.6364e-07 6.7155e-12 0 0 0 0)
(0 2.37384e-07 0 2.37384e-07 4.85922e-12 0 0 0 0)
(8.15382e-20 2.13312e-07 0 2.13312e-07 5.09017e-12 0 0 0 0)
(0 1.91221e-07 0 1.91221e-07 2.91034e-12 0 0 0 0)
(0 1.7121e-07 0 1.7121e-07 3.91517e-12 0 0 0 0)
(0 1.52958e-07 0 1.52958e-07 1.72684e-12 0 0 0 0)
(0 1.36298e-07 0 1.36298e-07 3.08476e-12 0 0 0 0)
(0 1.21307e-07 0 1.21307e-07 6.49644e-13 0 0 0 0)
(-7.22771e-20 1.07711e-07 0 1.07711e-07 2.57337e-12 0 0 0 0)
(0 9.53387e-08 0 9.53387e-08 1.05872e-13 0 0 0 0)
(-6.943e-20 8.42341e-08 0 8.42341e-08 2.08196e-12 0 0 0 0)
(0 7.42529e-08 0 7.42529e-08 -2.80889e-13 0 0 0 0)
(-6.6695e-20 6.52954e-08 0 6.52954e-08 1.70713e-12 0 0 0 0)
(0 5.73097e-08 0 5.73097e-08 -4.74606e-13 0 0 0 0)
(0 5.01316e-08 0 5.01316e-08 1.42113e-12 0 0 0 0)
(0 4.37237e-08 0 4.37237e-08 -5.83014e-13 0 0 0 0)
(0 3.80746e-08 0 3.80746e-08 1.16339e-12 0 0 0 0)
(6.03198e-20 3.30465e-08 0 3.30465e-08 -6.03172e-13 0 0 0 0)
(5.91198e-20 2.85879e-08 0 2.85879e-08 9.58959e-13 0 0 0 0)
(0 2.46779e-08 0 2.46779e-08 -6.0043e-13 0 0 0 0)
(0 2.12405e-08 0 2.12405e-08 8.07429e-13 0 0 0 0)
(0 1.8219e-08 0 1.8219e-08 -5.82045e-13 0 0 0 0)
(0 1.55824e-08 0 1.55824e-08 6.94856e-13 0 0 0 0)
(0 1.32885e-08 0 1.32885e-08 -5.6084e-13 0 0 0 0)
(0 1.12905e-08 0 1.12905e-08 6.18215e-13 0 0 0 0)
(0 9.5562e-09 0 9.5562e-09 -5.43012e-13 0 0 0 0)
(0 8.05565e-09 0 8.05565e-09 5.70489e-13 0 0 0 0)
(0 6.76011e-09 0 6.76011e-09 -5.41764e-13 0 0 0 0)
(0 5.63637e-09 0 5.63637e-09 5.57226e-13 0 0 0 0)
(0 4.57842e-09 0 4.57842e-09 -5.19268e-13 0 0 0 0)
(0 4.0154e-09 0 4.0154e-09 1.87348e-12 0 0 0 0)
(0 3.51949e-09 0 3.51949e-09 -1.88458e-12 0 0 0 0)
(-8.92459e-20 2.76403e-09 0 2.76403e-09 5.20541e-13 0 0 0 0)
(0 2.258e-09 0 2.258e-09 -5.15697e-13 0 0 0 0)
(0 1.85419e-09 0 1.85419e-09 5.09926e-13 0 0 0 0)
(0 1.51374e-09 0 1.51374e-09 -5.03795e-13 0 0 0 0)
(-8.23534e-20 1.22724e-09 0 1.22724e-09 4.96825e-13 0 0 0 0)
(0 9.89968e-10 0 9.89968e-10 -4.89492e-13 0 0 0 0)
(0 7.95708e-10 0 7.95708e-10 4.81453e-13 0 0 0 0)
(-7.75356e-20 6.37028e-10 0 6.37028e-10 -4.73039e-13 0 0 0 0)
(0 5.07091e-10 0 5.07091e-10 4.64047e-13 0 0 0 0)
(0 4.01524e-10 0 4.01524e-10 -4.54673e-13 0 0 0 0)
(0 3.16853e-10 0 3.16853e-10 4.4482e-13 0 0 0 0)
(0 2.49284e-10 0 2.49284e-10 -4.34571e-13 0 0 0 0)
(0 1.95381e-10 0 1.95381e-10 4.23946e-13 0 0 0 0)
(0 1.52499e-10 0 1.52499e-10 -4.12914e-13 0 0 0 0)
(0 1.18561e-10 0 1.18561e-10 4.01584e-13 0 0 0 0)
(0 9.18182e-11 0 9.18182e-11 -3.89842e-13 0 0 0 0)
(0 7.08028e-11 0 7.08028e-11 3.77867e-13 0 0 0 0)
(0 5.43385e-11 0 5.43385e-11 -3.65475e-13 0 0 0 0)
(0 4.14855e-11 0 4.14855e-11 3.52892e-13 0 0 0 0)
(0 3.15022e-11 0 3.15022e-11 -3.39901e-13 0 0 0 0)
(0 2.37877e-11 0 2.37877e-11 3.26725e-13 0 0 0 0)
(0 1.78605e-11 0 1.78605e-11 -3.13181e-13 0 0 0 0)
(0 1.33327e-11 0 1.33327e-11 2.99396e-13 0 0 0 0)
(5.62177e-20 9.89362e-12 0 9.89362e-12 -2.85278e-13 0 0 0 0)
(0 7.29715e-12 0 7.29715e-12 2.70874e-13 0 0 0 0)
(0 5.34909e-12 0 5.34909e-12 -2.56125e-13 0 0 0 0)
(0 3.89639e-12 0 3.89639e-12 2.4102e-13 0 0 0 0)
(0 2.81972e-12 0 2.81972e-12 -2.25506e-13 0 0 0 0)
(0 2.02791e-12 0 2.02791e-12 2.09558e-13 0 0 0 0)
(0 1.44869e-12 0 1.44869e-12 -1.93071e-13 0 0 0 0)
(0 1.02757e-12 0 1.02757e-12 1.75974e-13 0 0 0 0)
(0 7.23251e-13 0 7.23251e-13 -1.58099e-13 0 0 0 0)
(0 5.06015e-13 0 5.06015e-13 1.39276e-13 0 0 0 0)
(0 3.52114e-13 0 3.52114e-13 -1.1909e-13 0 0 0 0)
(0 2.42877e-13 0 2.42877e-13 9.69789e-14 0 0 0 0)
(0 1.65565e-13 0 1.65565e-13 -7.11759e-14 0 0 0 0)
(0 1.12022e-13 0 1.12022e-13 2.22598e-14 0 0 0 0)
(0 7.56622e-14 0 7.56622e-14 2.987e-14 0 0 0 0)
(0 5.08733e-14 0 5.08733e-14 -5.54028e-14 0 0 0 0)
(0 3.35071e-14 0 3.35071e-14 6.92256e-14 0 0 0 0)
(0 2.21955e-14 0 2.21955e-14 -7.95166e-14 0 0 0 0)
(0 1.46327e-14 0 1.46327e-14 8.79733e-14 0 0 0 0)
(0 9.29205e-15 0 9.29205e-15 -9.50969e-14 0 0 0 0)
(7.5226e-20 5.96053e-15 0 5.96053e-15 1.014e-13 0 0 0 0)
(0 3.7231e-15 0 3.7231e-15 -1.06877e-13 0 0 0 0)
(0 2.32359e-15 0 2.32359e-15 1.11882e-13 0 0 0 0)
(0 1.38355e-15 0 1.38355e-15 -1.1629e-13 0 0 0 0)
(0 7.64117e-16 0 7.64117e-16 1.20366e-13 0 0 0 0)
(0 6.67188e-16 0 6.67188e-16 -1.23948e-13 0 0 0 0)
(0 4.95379e-16 0 4.95379e-16 1.27299e-13 0 0 0 0)
(0 1.94546e-16 0 1.94546e-16 -1.30221e-13 0 0 0 0)
(0 -1.09871e-16 0 -1.09871e-16 1.32968e-13 0 0 0 0)
(0 -2.35899e-16 0 -2.35899e-16 -1.35337e-13 0 0 0 0)
(6.15319e-20 1.50276e-16 0 1.50276e-16 1.37525e-13 0 0 0 0)
(0 2.48875e-16 0 2.48875e-16 -1.39505e-13 0 0 0 0)
(0 7.15356e-17 0 7.15356e-17 1.41246e-13 0 0 0 0)
(-5.79322e-20 -1.27755e-16 0 -1.27755e-16 -1.42773e-13 0 0 0 0)
(0 -6.47999e-17 0 -6.47999e-17 1.44119e-13 0 0 0 0)
(0 -1.74046e-17 0 -1.74046e-17 -1.45281e-13 0 0 0 0)
(0 2.39444e-17 0 2.39444e-17 1.46275e-13 0 0 0 0)
(0 1.56592e-16 0 1.56592e-16 -1.47105e-13 0 0 0 0)
(0 -1.17351e-16 0 -1.17351e-16 1.47787e-13 0 0 0 0)
(0 -2.60318e-16 0 -2.60318e-16 -1.48327e-13 0 0 0 0)
(0 2.02279e-16 0 2.02279e-16 1.48731e-13 0 0 0 0)
(0 3.17657e-16 0 3.17657e-16 -1.49007e-13 0 0 0 0)
(0 -1.74815e-16 0 -1.74815e-16 1.49165e-13 0 0 0 0)
(0 -2.6797e-16 0 -2.6797e-16 -1.49108e-13 0 0 0 0)
(0 1.38834e-17 0 1.38834e-17 1.69263e-13 0 0 0 0)
(0 4.76456e-18 0 4.76456e-18 -1.71307e-13 0 0 0 0)
(0 -2.59271e-17 0 -2.59271e-17 1.73065e-13 0 0 0 0)
(0 3.95326e-17 0 3.95326e-17 -1.74633e-13 0 0 0 0)
(0 -1.031e-17 0 -1.031e-17 1.76021e-13 0 0 0 0)
(0 -1.81583e-17 0 -1.81583e-17 -1.7723e-13 0 0 0 0)
(0 2.9977e-17 0 2.9977e-17 1.78268e-13 0 0 0 0)
(0 -6.92185e-18 0 -6.92185e-18 -1.79135e-13 0 0 0 0)
(0 -1.88332e-17 0 -1.88332e-17 1.7984e-13 0 0 0 0)
(0 9.99234e-18 0 9.99234e-18 -1.80377e-13 0 0 0 0)
(0 2.71712e-17 0 2.71712e-17 1.8076e-13 0 0 0 0)
(0 7.41154e-18 0 7.41154e-18 -1.80983e-13 0 0 0 0)
(0 -2.50139e-17 0 -2.50139e-17 1.81052e-13 0 0 0 0)
(0 4.7778e-18 0 4.7778e-18 -1.80963e-13 0 0 0 0)
(0 -2.36905e-18 0 -2.36905e-18 1.80725e-13 0 0 0 0)
(0 1.50878e-18 0 1.50878e-18 -1.80333e-13 0 0 0 0)
(0 2.43787e-17 0 2.43787e-17 1.79785e-13 0 0 0 0)
(0 -2.16787e-17 0 -2.16787e-17 -1.79106e-13 0 0 0 0)
(0 3.59989e-18 0 3.59989e-18 1.78246e-13 0 0 0 0)
(0 -9.29089e-18 0 -9.29089e-18 -1.7732e-13 0 0 0 0)
(0 -2.60595e-17 0 -2.60595e-17 1.76149e-13 0 0 0 0)
(0 3.11946e-17 0 3.11946e-17 -1.74916e-13 0 0 0 0)
(0 2.54772e-17 0 2.54772e-17 1.73438e-13 0 0 0 0)
(0 -3.30872e-17 0 -3.30872e-17 -1.71876e-13 0 0 0 0)
(0 6.67038e-18 0 6.67038e-18 1.70093e-13 0 0 0 0)
(0 2.24464e-17 0 2.24464e-17 -1.68177e-13 0 0 0 0)
(0 -2.32802e-17 0 -2.32802e-17 1.66075e-13 0 0 0 0)
(0 -2.29625e-17 0 -2.29625e-17 -1.63829e-13 0 0 0 0)
(0 -2.61918e-17 0 -2.61918e-17 1.61397e-13 0 0 0 0)
(0 3.90429e-18 0 3.90429e-18 -1.58744e-13 0 0 0 0)
(0 -3.65812e-17 0 -3.65812e-17 1.55977e-13 0 0 0 0)
(0 5.75718e-18 0 5.75718e-18 -1.52906e-13 0 0 0 0)
(0 3.81165e-17 0 3.81165e-17 1.49776e-13 0 0 0 0)
(0 -2.10964e-17 0 -2.10964e-17 -1.46243e-13 0 0 0 0)
(0 3.93076e-18 0 3.93076e-18 1.42712e-13 0 0 0 0)
(0 5.54542e-18 0 5.54542e-18 -1.38747e-13 0 0 0 0)
(0 1.67157e-17 0 1.67157e-17 1.34773e-13 0 0 0 0)
(0 2.05008e-17 0 2.05008e-17 -1.30263e-13 0 0 0 0)
(0 -1.44657e-17 0 -1.44657e-17 1.25778e-13 0 0 0 0)
(0 -3.66739e-17 0 -3.66739e-17 -1.2065e-13 0 0 0 0)
(0 -2.17052e-18 0 -2.17052e-18 1.1553e-13 0 0 0 0)
(0 6.95229e-17 0 6.95229e-17 -1.09612e-13 0 0 0 0)
(0 2.87727e-17 0 2.87727e-17 1.03698e-13 0 0 0 0)
(0 -3.92547e-17 0 -3.92547e-17 -9.67586e-14 0 0 0 0)
(0 -1.3354e-17 0 -1.3354e-17 8.966e-14 0 0 0 0)
(0 2.09641e-17 0 2.09641e-17 -8.13298e-14 0 0 0 0)
(0 2.23934e-17 0 2.23934e-17 7.22811e-14 0 0 0 0)
(0 -2.25523e-17 0 -2.25523e-17 -6.12241e-14 0 0 0 0)
(0 -7.67624e-19 0 -7.67624e-19 4.74735e-14 0 0 0 0)
(0 2.54639e-17 0 2.54639e-17 -2.10454e-14 0 0 0 0)
)
;

boundaryField
{
    inandouthalf11
    {
        type            cyclic;
    }
    inandouthalf12
    {
        type            cyclic;
    }
    inandouthalf21
    {
        type            cyclic;
    }
    inandouthalf22
    {
        type            cyclic;
    }
    inandouthalf31
    {
        type            cyclic;
    }
    inandouthalf32
    {
        type            cyclic;
    }
    inandouthalf41
    {
        type            cyclic;
    }
    inandouthalf42
    {
        type            cyclic;
    }
    top
    {
        type            symmetryPlane;
    }
    walls
    {
        type            zeroGradient;
    }
    frontAndBackPlanes
    {
        type            empty;
    }
}


// ************************************************************************* //
