/*--------------------------------*- C++ -*----------------------------------*\
| =========                 |                                                 |
| \\      /  F ield         | OpenFOAM: The Open Source CFD Toolbox           |
|  \\    /   O peration     | Version:  2.4.x                                 |
|   \\  /    A nd           | Web:      www.OpenFOAM.org                      |
|    \\/     M anipulation  |                                                 |
\*---------------------------------------------------------------------------*/
FoamFile
{
    version     2.0;
    format      ascii;
    class       volScalarField;
    location    "2.85";
    object      Theta;
}
// * * * * * * * * * * * * * * * * * * * * * * * * * * * * * * * * * * * * * //

dimensions      [0 2 -2 0 0 0 0];

internalField   nonuniform List<scalar> 
360
(
6.68102e-21
6.82695e-21
6.96562e-21
6.96325e-21
6.93051e-21
6.93217e-21
6.98552e-21
7.07831e-21
7.14244e-21
7.08336e-21
6.91532e-21
6.7633e-21
6.68996e-21
6.66774e-21
6.66275e-21
6.66173e-21
6.6615e-21
6.66145e-21
6.66143e-21
6.66144e-21
6.66146e-21
6.66148e-21
6.66151e-21
6.66153e-21
6.66155e-21
6.66155e-21
6.66155e-21
6.66155e-21
6.66154e-21
6.66154e-21
6.66154e-21
6.66154e-21
6.66154e-21
6.66155e-21
6.66155e-21
6.66156e-21
6.66156e-21
6.66157e-21
6.66158e-21
6.66158e-21
6.66159e-21
6.6616e-21
6.6616e-21
6.66161e-21
6.66162e-21
6.66163e-21
6.66164e-21
6.66166e-21
6.66167e-21
6.66169e-21
6.66171e-21
6.66174e-21
6.66177e-21
6.6618e-21
6.66183e-21
6.66187e-21
6.66192e-21
6.66197e-21
6.66202e-21
6.66208e-21
6.66214e-21
6.6622e-21
6.66225e-21
6.6623e-21
6.66234e-21
6.66238e-21
6.66243e-21
6.66249e-21
6.66256e-21
6.66265e-21
6.66277e-21
6.66292e-21
6.66309e-21
6.66327e-21
6.66346e-21
6.66364e-21
6.6638e-21
6.66394e-21
6.66405e-21
6.66415e-21
6.66423e-21
6.66433e-21
6.66443e-21
6.66456e-21
6.66471e-21
6.66487e-21
6.66505e-21
6.66522e-21
6.66538e-21
6.66553e-21
6.66566e-21
6.66577e-21
6.66588e-21
6.66597e-21
6.66606e-21
6.66614e-21
6.66623e-21
6.66631e-21
6.66639e-21
6.6664e-21
0
0
0
0
0
0
0
0
0
0
0
0
0
0
0
6.66688e-21
6.6668e-21
6.66672e-21
6.66663e-21
6.66654e-21
6.66646e-21
6.6664e-21
6.66637e-21
6.66638e-21
6.66647e-21
6.66664e-21
6.66695e-21
6.66741e-21
6.66808e-21
6.67619e-21
2.37439e-20
1.63114e-19
1.11761e-18
7.17033e-18
4.2717e-17
2.34867e-16
1.18338e-15
5.4249e-15
2.25081e-14
8.42874e-14
2.83997e-13
8.64068e-13
2.56661e-12
9.18983e-12
4.99674e-11
4.23131e-10
5.22534e-09
9.20799e-08
2.18158e-06
5.69142e-05
0.000441144
0.00105338
0.00157674
0.0020144
0.0023931
0.00272919
0.00303175
0.00330631
0.00355649
0.00378484
0.00399326
0.00418313
0.00435558
0.00451153
0.00465175
0.00477689
0.00488754
0.00498422
0.00506747
0.00513777
0.00519562
0.00524153
0.00527605
0.00529973
0.00531314
0.00531692
0.00531168
0.00529807
0.00527674
0.00524839
0.00521369
0.00517342
0.00512837
0.00507941
0.00502748
0.00497355
0.0049186
0.00486361
0.00480944
0.00475681
0.00470614
0.00465754
0.00461076
0.00456539
0.00452094
0.00447703
0.00443339
0.00438987
0.00434637
0.00430287
0.00425935
0.00421535
0.00417045
0.0041246
0.00407779
0.00402998
0.00398114
0.00393118
0.00388001
0.00382751
0.0037736
0.00371816
0.0036611
0.00360231
0.00354169
0.00347913
0.00341451
0.00334771
0.00327861
0.00320707
0.00313297
0.00305613
0.00297641
0.00289361
0.00280755
0.00271801
0.00262474
0.00252746
0.00242587
0.00231958
0.00220817
0.00209114
0.00196785
0.00183756
0.00169928
0.00155174
0.00139321
0.00122116
0.00103167
0.000817849
0.000564655
0
0
0
0
0
0
0
0
0
0
0
0
0
0
0
0
0
0
0
0
0
0
0
0
0
0
0
0
0
0
0
0
0
0
0
0
0
0
0
0
0
0
0
0
0
0
0
0
0
0
0
0
0
0
0
0
0
0
0
0
0
0
0
0
0
0
0
0
0
0
0
0
0
0
0
0
0
0
0
0
0
0
0
0
0
0
0
0
0
0
0
0
0
0
0
0
0
0
0
0
0
0
0
0
0
0
0
0
0
0
0
0
0
0
0
0
0
0
0
)
;

boundaryField
{
    inandouthalf11
    {
        type            cyclic;
    }
    inandouthalf12
    {
        type            cyclic;
    }
    inandouthalf21
    {
        type            cyclic;
    }
    inandouthalf22
    {
        type            cyclic;
    }
    inandouthalf31
    {
        type            cyclic;
    }
    inandouthalf32
    {
        type            cyclic;
    }
    inandouthalf41
    {
        type            cyclic;
    }
    inandouthalf42
    {
        type            cyclic;
    }
    top
    {
        type            symmetryPlane;
    }
    walls
    {
        type            zeroGradient;
    }
    frontAndBackPlanes
    {
        type            empty;
    }
}


// ************************************************************************* //
