/*--------------------------------*- C++ -*----------------------------------*\
| =========                 |                                                 |
| \\      /  F ield         | OpenFOAM: The Open Source CFD Toolbox           |
|  \\    /   O peration     | Version:  2.4.x                                 |
|   \\  /    A nd           | Web:      www.OpenFOAM.org                      |
|    \\/     M anipulation  |                                                 |
\*---------------------------------------------------------------------------*/
FoamFile
{
    version     2.0;
    format      ascii;
    class       volScalarField;
    location    "2.85";
    object      Theta_0;
}
// * * * * * * * * * * * * * * * * * * * * * * * * * * * * * * * * * * * * * //

dimensions      [0 2 -2 0 0 0 0];

internalField   nonuniform List<scalar> 
360
(
6.6811e-21
6.82766e-21
6.96696e-21
6.96451e-21
6.93145e-21
6.93285e-21
6.98594e-21
7.07824e-21
7.14151e-21
7.0817e-21
6.91378e-21
6.76249e-21
6.6897e-21
6.66768e-21
6.66274e-21
6.66173e-21
6.6615e-21
6.66145e-21
6.66143e-21
6.66144e-21
6.66146e-21
6.66148e-21
6.66151e-21
6.66153e-21
6.66155e-21
6.66155e-21
6.66155e-21
6.66155e-21
6.66154e-21
6.66154e-21
6.66154e-21
6.66154e-21
6.66154e-21
6.66155e-21
6.66155e-21
6.66156e-21
6.66156e-21
6.66157e-21
6.66158e-21
6.66158e-21
6.66159e-21
6.6616e-21
6.6616e-21
6.66161e-21
6.66162e-21
6.66163e-21
6.66164e-21
6.66166e-21
6.66167e-21
6.66169e-21
6.66171e-21
6.66174e-21
6.66177e-21
6.6618e-21
6.66183e-21
6.66187e-21
6.66192e-21
6.66197e-21
6.66202e-21
6.66208e-21
6.66214e-21
6.6622e-21
6.66225e-21
6.6623e-21
6.66234e-21
6.66239e-21
6.66243e-21
6.66249e-21
6.66256e-21
6.66266e-21
6.66278e-21
6.66292e-21
6.66309e-21
6.66327e-21
6.66346e-21
6.66364e-21
6.6638e-21
6.66394e-21
6.66405e-21
6.66415e-21
6.66424e-21
6.66433e-21
6.66444e-21
6.66457e-21
6.66471e-21
6.66488e-21
6.66505e-21
6.66522e-21
6.66539e-21
6.66553e-21
6.66566e-21
6.66578e-21
6.66588e-21
6.66598e-21
6.66606e-21
6.66615e-21
6.66623e-21
6.66632e-21
6.6664e-21
6.6664e-21
0
0
0
0
0
0
0
0
0
0
0
0
0
0
0
6.66688e-21
6.66681e-21
6.66673e-21
6.66664e-21
6.66655e-21
6.66646e-21
6.6664e-21
6.66637e-21
6.66639e-21
6.66647e-21
6.66665e-21
6.66695e-21
6.66741e-21
6.66809e-21
6.67555e-21
2.37004e-20
1.62848e-19
1.11624e-18
7.16458e-18
4.2701e-17
2.34882e-16
1.18398e-15
5.43018e-15
2.25408e-14
8.44523e-14
2.84702e-13
8.66689e-13
2.57563e-12
9.22386e-12
5.01503e-11
4.24766e-10
5.24773e-09
9.25119e-08
2.19061e-06
5.71145e-05
0.000441847
0.00105427
0.00157777
0.00201552
0.0023943
0.00273045
0.00303306
0.00330766
0.00355788
0.00378627
0.0039947
0.00418459
0.00435706
0.00451302
0.00465324
0.00477838
0.00488902
0.00498569
0.00506892
0.00513919
0.00519702
0.0052429
0.00527737
0.00530101
0.00531439
0.00531811
0.00531282
0.00529916
0.00527778
0.00524936
0.00521461
0.00517428
0.00512917
0.00508016
0.00502817
0.00497419
0.0049192
0.00486417
0.00480997
0.00475731
0.00470662
0.004658
0.00461121
0.00456582
0.00452136
0.00447744
0.00443379
0.00439026
0.00434676
0.00430325
0.00425972
0.00421572
0.0041708
0.00412495
0.00407814
0.00403032
0.00398147
0.00393152
0.00388033
0.00382783
0.00377391
0.00371847
0.0036614
0.00360261
0.00354198
0.00347941
0.00341479
0.00334798
0.00327887
0.00320733
0.00313322
0.00305638
0.00297665
0.00289384
0.00280778
0.00271823
0.00262495
0.00252766
0.00242606
0.00231976
0.00220834
0.0020913
0.00196801
0.0018377
0.00169941
0.00155186
0.00139331
0.00122125
0.00103175
0.000817912
0.000564698
0
0
0
0
0
0
0
0
0
0
0
0
0
0
0
0
0
0
0
0
0
0
0
0
0
0
0
0
0
0
0
0
0
0
0
0
0
0
0
0
0
0
0
0
0
0
0
0
0
0
0
0
0
0
0
0
0
0
0
0
0
0
0
0
0
0
0
0
0
0
0
0
0
0
0
0
0
0
0
0
0
0
0
0
0
0
0
0
0
0
0
0
0
0
0
0
0
0
0
0
0
0
0
0
0
0
0
0
0
0
0
0
0
0
0
0
0
0
0
)
;

boundaryField
{
    inandouthalf11
    {
        type            cyclic;
    }
    inandouthalf12
    {
        type            cyclic;
    }
    inandouthalf21
    {
        type            cyclic;
    }
    inandouthalf22
    {
        type            cyclic;
    }
    inandouthalf31
    {
        type            cyclic;
    }
    inandouthalf32
    {
        type            cyclic;
    }
    inandouthalf41
    {
        type            cyclic;
    }
    inandouthalf42
    {
        type            cyclic;
    }
    top
    {
        type            symmetryPlane;
    }
    walls
    {
        type            zeroGradient;
    }
    frontAndBackPlanes
    {
        type            empty;
    }
}


// ************************************************************************* //
