/*--------------------------------*- C++ -*----------------------------------*\
| =========                 |                                                 |
| \\      /  F ield         | OpenFOAM: The Open Source CFD Toolbox           |
|  \\    /   O peration     | Version:  2.4.x                                 |
|   \\  /    A nd           | Web:      www.OpenFOAM.org                      |
|    \\/     M anipulation  |                                                 |
\*---------------------------------------------------------------------------*/
FoamFile
{
    version     2.0;
    format      ascii;
    class       volScalarField;
    location    "2.85";
    object      tmf;
}
// * * * * * * * * * * * * * * * * * * * * * * * * * * * * * * * * * * * * * //

dimensions      [0 0 0 0 0 0 0];

internalField   nonuniform List<scalar> 
360
(
0.999204
0.999205
0.999205
0.999205
0.999205
0.999205
0.999205
0.999205
0.999204
0.999204
0.999204
0.999204
0.999204
0.999204
0.999204
0.999204
0.999204
0.999204
0.999204
0.999204
0.999204
0.999204
0.999204
0.999204
0.999204
0.999204
0.999204
0.999204
0.999204
0.999204
0.999204
0.999204
0.999204
0.999204
0.999204
0.999204
0.999204
0.999204
0.999204
0.999204
0.999204
0.999204
0.999204
0.999204
0.999204
0.999203
0.999203
0.999203
0.999203
0.999203
0.999203
0.999203
0.999203
0.999203
0.999203
0.999203
0.999203
0.999203
0.999203
0.999203
0.999203
0.999203
0.999202
0.999202
0.999202
0.999202
0.999202
0.999202
0.999202
0.999202
0.999202
0.999201
0.999201
0.999201
0.999201
0.999201
0.999201
0.999201
0.999201
0.9992
0.9992
0.9992
0.9992
0.9992
0.9992
0.999199
0.999199
0.999199
0.999199
0.999199
0.999198
0.999198
0.999198
0.999198
0.999198
0.999197
0.999197
0.999197
0.999197
0.999197
0.999196
0.999196
0.999196
0.999196
0.999195
0.999195
0.999195
0.999194
0.999194
0.999194
0.999194
0.999193
0.999193
0.999193
0.999192
0.999192
0.999192
0.999191
0.999191
0.99919
0.99919
0.99919
0.999189
0.999189
0.999188
0.999188
0.999187
0.999187
0.999186
0.999165
0.998989
0.998949
0.998921
0.998889
0.998854
0.998812
0.99876
0.998695
0.99861
0.998497
0.998335
0.99806
0.997563
0.996725
0.995551
0.994123
0.992444
0.990192
0.986961
0.97342
0.942483
0.949516
0.955269
0.958191
0.959972
0.961101
0.961861
0.962391
0.962767
0.963035
0.963224
0.963355
0.963438
0.963485
0.9635
0.963487
0.963448
0.963384
0.963295
0.963178
0.96303
0.962848
0.962626
0.962359
0.962043
0.961679
0.961275
0.96086
0.96051
0.960384
0.960704
0.96158
0.962879
0.96439
0.965966
0.967538
0.969071
0.970552
0.971976
0.973341
0.974645
0.975889
0.977075
0.978206
0.979286
0.980323
0.981326
0.982306
0.983276
0.98425
0.985243
0.986289
0.987432
0.988727
0.990274
0.99225
0.993949
0.994558
0.99454
0.994492
0.994444
0.994396
0.994348
0.994304
0.994525
0.995628
0.995625
0.995602
0.995579
0.995556
0.995532
0.995509
0.995485
0.995461
0.995436
0.995412
0.995387
0.995362
0.995336
0.99531
0.995284
0.995258
0.995231
0.995204
0.995177
0.99515
0.995123
0.995097
0.995071
0.995046
0.995022
0.994994
0.994201
0.994201
0.994201
0.994201
0.994201
0.994201
0.994201
0.994201
0.994201
0.994201
0.994201
0.994201
0.994201
0.994201
0.994201
0.994201
0.994201
0.994201
0.994201
0.994201
0.994201
0.994201
0.994201
0.994201
0.994201
0.994201
0.994201
0.994201
0.994201
0.994201
0.994201
0.994201
0.994201
0.994201
0.994201
0.994201
0.994201
0.994201
0.994201
0.994201
0.994201
0.994201
0.994201
0.994201
0.994201
0.994201
0.994201
0.994201
0.994201
0.994201
0.994201
0.994201
0.994201
0.994201
0.994201
0.994201
0.994201
0.994201
0.994201
0.994201
0.994201
0.994201
0.994201
0.994201
0.994201
0.994201
0.994201
0.994201
0.994201
0.994201
0.994201
0.994201
0.994201
0.994201
0.994201
0.994201
0.994201
0.994201
0.994201
0.994201
0.994201
0.994201
0.994201
0.994201
0.994201
0.994201
0.994201
0.994201
0.994201
0.994201
0.994201
0.994201
0.994201
0.994201
0.994201
0.994201
0.994201
0.994201
0.994201
0.994201
0.994201
0.994201
0.994201
0.994201
0.994201
0.994201
0.994201
0.994201
0.994201
0.994201
0.994201
0.994201
0.994201
0.994201
0.994201
0.994201
0.994186
0.993286
)
;

boundaryField
{
    inandouthalf11
    {
        type            cyclic;
    }
    inandouthalf12
    {
        type            cyclic;
    }
    inandouthalf21
    {
        type            cyclic;
    }
    inandouthalf22
    {
        type            cyclic;
    }
    inandouthalf31
    {
        type            cyclic;
    }
    inandouthalf32
    {
        type            cyclic;
    }
    inandouthalf41
    {
        type            cyclic;
    }
    inandouthalf42
    {
        type            cyclic;
    }
    top
    {
        type            symmetryPlane;
    }
    walls
    {
        type            calculated;
        value           uniform 0;
    }
    frontAndBackPlanes
    {
        type            empty;
    }
}


// ************************************************************************* //
