/*--------------------------------*- C++ -*----------------------------------*\
| =========                 |                                                 |
| \\      /  F ield         | OpenFOAM: The Open Source CFD Toolbox           |
|  \\    /   O peration     | Version:  2.4.x                                 |
|   \\  /    A nd           | Web:      www.OpenFOAM.org                      |
|    \\/     M anipulation  |                                                 |
\*---------------------------------------------------------------------------*/
FoamFile
{
    version     2.0;
    format      ascii;
    class       volVectorField;
    location    "2.85";
    object      Ua;
}
// * * * * * * * * * * * * * * * * * * * * * * * * * * * * * * * * * * * * * //

dimensions      [0 1 -1 0 0 0 0];

internalField   nonuniform List<vector> 
360
(
(-9.09875e-33 -5.9974e-32 0)
(-7.38658e-08 -3.78234e-07 0)
(-2.27848e-07 -1.09032e-06 0)
(-4.01334e-07 -1.84663e-06 0)
(-5.65979e-07 -2.55241e-06 0)
(-7.23692e-07 -3.22957e-06 0)
(-8.86524e-07 -3.94136e-06 0)
(-1.06572e-06 -4.74919e-06 0)
(-1.26179e-06 -5.66309e-06 0)
(-1.45687e-06 -6.59911e-06 0)
(-1.6209e-06 -7.40398e-06 0)
(-1.73299e-06 -7.96138e-06 0)
(-1.79555e-06 -8.27392e-06 0)
(-1.82572e-06 -8.42415e-06 0)
(-1.83963e-06 -8.4927e-06 0)
(-1.84653e-06 -8.52616e-06 0)
(-1.85059e-06 -8.54536e-06 0)
(-1.85354e-06 -8.55888e-06 0)
(-1.85615e-06 -8.57048e-06 0)
(-1.85885e-06 -8.58205e-06 0)
(-1.86188e-06 -8.59464e-06 0)
(-1.86539e-06 -8.6088e-06 0)
(-1.86942e-06 -8.62463e-06 0)
(-1.8739e-06 -8.64187e-06 0)
(-1.87874e-06 -8.66003e-06 0)
(-1.88381e-06 -8.67862e-06 0)
(-1.889e-06 -8.69727e-06 0)
(-1.89427e-06 -8.71578e-06 0)
(-1.89959e-06 -8.73408e-06 0)
(-1.90496e-06 -8.75222e-06 0)
(-1.91042e-06 -8.77024e-06 0)
(-1.91598e-06 -8.78827e-06 0)
(-1.92168e-06 -8.80638e-06 0)
(-1.92753e-06 -8.82464e-06 0)
(-1.93356e-06 -8.84312e-06 0)
(-1.93978e-06 -8.86183e-06 0)
(-1.94619e-06 -8.88078e-06 0)
(-1.9528e-06 -8.89999e-06 0)
(-1.95961e-06 -8.91949e-06 0)
(-1.96664e-06 -8.93925e-06 0)
(-1.97387e-06 -8.95929e-06 0)
(-1.98132e-06 -8.97962e-06 0)
(-1.98899e-06 -9.00024e-06 0)
(-1.9969e-06 -9.02119e-06 0)
(-2.00506e-06 -9.04251e-06 0)
(-2.01349e-06 -9.06423e-06 0)
(-2.02221e-06 -9.0864e-06 0)
(-2.03122e-06 -9.10904e-06 0)
(-2.04058e-06 -9.13223e-06 0)
(-2.0503e-06 -9.15608e-06 0)
(-2.06044e-06 -9.18066e-06 0)
(-2.07102e-06 -9.20602e-06 0)
(-2.08207e-06 -9.23226e-06 0)
(-2.09363e-06 -9.25945e-06 0)
(-2.10575e-06 -9.28767e-06 0)
(-2.11846e-06 -9.31704e-06 0)
(-2.13182e-06 -9.34765e-06 0)
(-2.14587e-06 -9.37958e-06 0)
(-2.16063e-06 -9.41292e-06 0)
(-2.17613e-06 -9.44767e-06 0)
(-2.19235e-06 -9.48384e-06 0)
(-2.20929e-06 -9.52139e-06 0)
(-2.2269e-06 -9.5602e-06 0)
(-2.24512e-06 -9.60014e-06 0)
(-2.26388e-06 -9.64105e-06 0)
(-2.28314e-06 -9.68284e-06 0)
(-2.30292e-06 -9.72551e-06 0)
(-2.32326e-06 -9.76919e-06 0)
(-2.34426e-06 -9.81411e-06 0)
(-2.36607e-06 -9.86056e-06 0)
(-2.38887e-06 -9.90895e-06 0)
(-2.41282e-06 -9.95966e-06 0)
(-2.43806e-06 -1.0013e-05 0)
(-2.46466e-06 -1.00691e-05 0)
(-2.49266e-06 -1.0128e-05 0)
(-2.52197e-06 -1.01896e-05 0)
(-2.55246e-06 -1.02536e-05 0)
(-2.58394e-06 -1.03196e-05 0)
(-2.61623e-06 -1.03872e-05 0)
(-2.64917e-06 -1.04561e-05 0)
(-2.68269e-06 -1.0526e-05 0)
(-2.71675e-06 -1.05971e-05 0)
(-2.7514e-06 -1.06693e-05 0)
(-2.78672e-06 -1.0743e-05 0)
(-2.82281e-06 -1.08183e-05 0)
(-2.85974e-06 -1.08953e-05 0)
(-2.89756e-06 -1.09743e-05 0)
(-2.93625e-06 -1.10551e-05 0)
(-2.97577e-06 -1.11378e-05 0)
(-3.01603e-06 -1.12221e-05 0)
(-3.05693e-06 -1.13079e-05 0)
(-3.09837e-06 -1.13949e-05 0)
(-3.14027e-06 -1.1483e-05 0)
(-3.18256e-06 -1.15721e-05 0)
(-3.22519e-06 -1.16621e-05 0)
(-3.26815e-06 -1.17529e-05 0)
(-3.31141e-06 -1.18446e-05 0)
(-3.35494e-06 -1.19372e-05 0)
(-3.39873e-06 -1.20305e-05 0)
(-3.44275e-06 -1.21246e-05 0)
(-3.48698e-06 -1.22195e-05 0)
(-3.5314e-06 -1.23151e-05 0)
(-3.57597e-06 -1.24113e-05 0)
(-3.62067e-06 -1.25082e-05 0)
(-3.66547e-06 -1.26058e-05 0)
(-3.71034e-06 -1.27039e-05 0)
(-3.75525e-06 -1.28026e-05 0)
(-3.80015e-06 -1.29017e-05 0)
(-3.84501e-06 -1.30012e-05 0)
(-3.88977e-06 -1.31011e-05 0)
(-3.93438e-06 -1.32012e-05 0)
(-3.97878e-06 -1.33015e-05 0)
(-4.02291e-06 -1.34018e-05 0)
(-4.06669e-06 -1.3502e-05 0)
(-4.11007e-06 -1.36019e-05 0)
(-4.15295e-06 -1.37015e-05 0)
(-4.19528e-06 -1.38006e-05 0)
(-4.23699e-06 -1.38991e-05 0)
(-4.27804e-06 -1.39969e-05 0)
(-4.31839e-06 -1.4094e-05 0)
(-4.35805e-06 -1.41903e-05 0)
(-4.39705e-06 -1.42861e-05 0)
(-4.43547e-06 -1.43816e-05 0)
(-4.47342e-06 -1.44771e-05 0)
(-4.5111e-06 -1.45731e-05 0)
(-4.54874e-06 -1.46704e-05 0)
(-4.58667e-06 -1.477e-05 0)
(-4.62528e-06 -1.48731e-05 0)
(-4.66502e-06 -1.49812e-05 0)
(-4.70634e-06 -1.50958e-05 0)
(-4.74964e-06 -1.52187e-05 0)
(-4.79517e-06 -1.53511e-05 0)
(-4.84301e-06 -1.5494e-05 0)
(-4.89299e-06 -1.56477e-05 0)
(-4.94463e-06 -1.58121e-05 0)
(-4.9968e-06 -1.59847e-05 0)
(-5.04766e-06 -1.61604e-05 0)
(-5.09508e-06 -1.6332e-05 0)
(-5.13727e-06 -1.64936e-05 0)
(-5.17248e-06 -1.66392e-05 0)
(-5.19845e-06 -1.67574e-05 0)
(-5.21389e-06 -1.6835e-05 0)
(-5.22095e-06 -1.68747e-05 0)
(-5.22341e-06 -1.68905e-05 0)
(-5.22403e-06 -1.68947e-05 0)
(-5.22426e-06 -1.68954e-05 0)
(-5.22464e-06 -1.68959e-05 0)
(-8.75403e-06 -2.25989e-05 0)
(-1.8415e-05 -3.12937e-05 0)
(-9.39382e-05 -9.54824e-05 0)
(-0.0108702 -0.008131 0)
(-0.00501538 -0.0117635 0)
(0.00441708 -0.0150524 0)
(0.0139589 -0.0171854 0)
(0.0234546 -0.0183822 0)
(0.0329014 -0.0189623 0)
(0.0423049 -0.0191634 0)
(0.0516672 -0.0191142 0)
(0.0609878 -0.0188904 0)
(0.0702649 -0.0185412 0)
(0.0794959 -0.0181005 0)
(0.0886778 -0.0175916 0)
(0.097807 -0.0170311 0)
(0.106879 -0.0164309 0)
(0.11589 -0.0157998 0)
(0.124834 -0.0151444 0)
(0.133704 -0.0144697 0)
(0.142494 -0.0137798 0)
(0.151194 -0.0130781 0)
(0.159794 -0.0123674 0)
(0.168284 -0.0116507 0)
(0.176651 -0.010931 0)
(0.184881 -0.0102116 0)
(0.19296 -0.00949702 0)
(0.200873 -0.00879219 0)
(0.208605 -0.00810233 0)
(0.216142 -0.00743062 0)
(0.223469 -0.00677532 0)
(0.230574 -0.00612744 0)
(0.237446 -0.00547157 0)
(0.244074 -0.00479032 0)
(0.250449 -0.00407012 0)
(0.25656 -0.00330407 0)
(0.262394 -0.00249132 0)
(0.267938 -0.00163557 0)
(0.273176 -0.000744864 0)
(0.278094 0.000166781 0)
(0.282679 0.00107654 0)
(0.286921 0.0019499 0)
(0.290819 0.00274088 0)
(0.294382 0.00340022 0)
(0.297634 0.00389243 0)
(0.300612 0.0042124 0)
(0.303365 0.00438607 0)
(0.305938 0.0044544 0)
(0.308368 0.00445584 0)
(0.310681 0.00441823 0)
(0.312888 0.00435888 0)
(0.314997 0.00428755 0)
(0.317011 0.00420951 0)
(0.318933 0.00412783 0)
(0.32078 0.00404374 0)
(0.322573 0.00395766 0)
(0.324317 0.00387003 0)
(0.326012 0.00378155 0)
(0.327655 0.00369365 0)
(0.329246 0.00360701 0)
(0.330797 0.0035212 0)
(0.332307 0.00343626 0)
(0.333773 0.0033525 0)
(0.335203 0.0032692 0)
(0.336604 0.00318568 0)
(0.337973 0.00310207 0)
(0.339316 0.00301792 0)
(0.340638 0.00293267 0)
(0.341933 0.00284662 0)
(0.34321 0.00275918 0)
(0.344476 0.00266931 0)
(0.345723 0.00257771 0)
(0.346949 0.00248448 0)
(0.348166 0.00238835 0)
(0.349372 0.00228923 0)
(0.350566 0.00218712 0)
(0.351747 0.00208174 0)
(0.352914 0.00197329 0)
(0.354074 0.00186051 0)
(0.35523 0.00174268 0)
(0.356373 0.00162071 0)
(0.357509 0.00149327 0)
(0.358641 0.00135953 0)
(0.359762 0.00121984 0)
(0.360876 0.00107299 0)
(0.361981 0.000918239 0)
(0.363074 0.000755321 0)
(0.364149 0.000583927 0)
(0.365207 0.000402549 0)
(0.366242 0.000209985 0)
(0.367245 6.3107e-06 0)
(0.368212 -0.000211544 0)
(0.369134 -0.000445531 0)
(0.370014 -0.000704037 0)
(0.370985 -0.000981439 0)
(0.438643 -0.0394688 0)
(0.438647 -0.0394687 0)
(0.43865 -0.0394687 0)
(0.438652 -0.0394687 0)
(0.438654 -0.0394687 0)
(0.438656 -0.0394687 0)
(0.438657 -0.0394687 0)
(0.438658 -0.0394687 0)
(0.438659 -0.0394687 0)
(0.43866 -0.0394687 0)
(0.438661 -0.0394687 0)
(0.438661 -0.0394687 0)
(0.438661 -0.0394687 0)
(0.438662 -0.0394687 0)
(0.438662 -0.0394687 0)
(0.438662 -0.0394687 0)
(0.438662 -0.0394687 0)
(0.438662 -0.0394687 0)
(0.438663 -0.0394687 0)
(0.438663 -0.0394687 0)
(0.438663 -0.0394687 0)
(0.438663 -0.0394687 0)
(0.438663 -0.0394687 0)
(0.438663 -0.0394687 0)
(0.438663 -0.0394687 0)
(0.438663 -0.0394687 0)
(0.438663 -0.0394687 0)
(0.438663 -0.0394687 0)
(0.438663 -0.0394687 0)
(0.438663 -0.0394687 0)
(0.438663 -0.0394687 0)
(0.438663 -0.0394687 0)
(0.438663 -0.0394687 0)
(0.438663 -0.0394687 0)
(0.438663 -0.0394687 0)
(0.438663 -0.0394688 0)
(0.438663 -0.0394687 0)
(0.438663 -0.0394688 0)
(0.438663 -0.0394687 0)
(0.438663 -0.0394688 0)
(0.438663 -0.0394687 0)
(0.438663 -0.0394688 0)
(0.438663 -0.0394687 0)
(0.438663 -0.0394688 0)
(0.438663 -0.0394687 0)
(0.438663 -0.0394688 0)
(0.438663 -0.0394687 0)
(0.438663 -0.0394688 0)
(0.438663 -0.0394687 0)
(0.438663 -0.0394688 0)
(0.438663 -0.0394687 0)
(0.438663 -0.0394688 0)
(0.438663 -0.0394687 0)
(0.438663 -0.0394688 0)
(0.438663 -0.0394687 0)
(0.438663 -0.0394688 0)
(0.438663 -0.0394687 0)
(0.438663 -0.0394688 0)
(0.438663 -0.0394687 0)
(0.438663 -0.0394688 0)
(0.438663 -0.0394687 0)
(0.438663 -0.0394688 0)
(0.438663 -0.0394687 0)
(0.438663 -0.0394688 0)
(0.438663 -0.0394687 0)
(0.438663 -0.0394688 0)
(0.438663 -0.0394687 0)
(0.438663 -0.0394688 0)
(0.438663 -0.0394687 0)
(0.438663 -0.0394688 0)
(0.438663 -0.0394687 0)
(0.438663 -0.0394688 0)
(0.438663 -0.0394687 0)
(0.438663 -0.0394688 0)
(0.438663 -0.0394687 0)
(0.438663 -0.0394688 0)
(0.438663 -0.0394687 0)
(0.438663 -0.0394688 0)
(0.438663 -0.0394687 0)
(0.438663 -0.0394688 0)
(0.438663 -0.0394687 0)
(0.438663 -0.0394688 0)
(0.438663 -0.0394687 0)
(0.438663 -0.0394688 0)
(0.438663 -0.0394687 0)
(0.438663 -0.0394688 0)
(0.438663 -0.0394687 0)
(0.438663 -0.0394688 0)
(0.438663 -0.0394687 0)
(0.438663 -0.0394688 0)
(0.438663 -0.0394687 0)
(0.438663 -0.0394688 0)
(0.438663 -0.0394687 0)
(0.438663 -0.0394688 0)
(0.438663 -0.0394687 0)
(0.438663 -0.0394688 0)
(0.438663 -0.0394687 0)
(0.438663 -0.0394688 0)
(0.438663 -0.0394687 0)
(0.438663 -0.0394688 0)
(0.438663 -0.0394687 0)
(0.438663 -0.0394688 0)
(0.438663 -0.0394687 0)
(0.438663 -0.0394688 0)
(0.438663 -0.0394687 0)
(0.438663 -0.0394688 0)
(0.438663 -0.0394687 0)
(0.438663 -0.0394688 0)
(0.438663 -0.0394687 0)
(0.438663 -0.0394688 0)
(0.438663 -0.0394687 0)
(0.438663 -0.0394688 0)
(0.438663 -0.0394687 0)
(0.438663 -0.0394687 0)
(0.438663 -0.0394685 0)
(0.438664 -0.03946 0)
(0.4387 -0.0391136 0)
(0.439525 -0.0223419 0)
)
;

boundaryField
{
    inandouthalf11
    {
        type            cyclic;
    }
    inandouthalf12
    {
        type            cyclic;
    }
    inandouthalf21
    {
        type            cyclic;
    }
    inandouthalf22
    {
        type            cyclic;
    }
    inandouthalf31
    {
        type            cyclic;
    }
    inandouthalf32
    {
        type            cyclic;
    }
    inandouthalf41
    {
        type            cyclic;
    }
    inandouthalf42
    {
        type            cyclic;
    }
    top
    {
        type            symmetryPlane;
    }
    walls
    {
        type            fixedValue;
        value           uniform (0 0 0);
    }
    frontAndBackPlanes
    {
        type            empty;
    }
}


// ************************************************************************* //
