/*--------------------------------*- C++ -*----------------------------------*\
| =========                 |                                                 |
| \\      /  F ield         | OpenFOAM: The Open Source CFD Toolbox           |
|  \\    /   O peration     | Version:  2.4.x                                 |
|   \\  /    A nd           | Web:      www.OpenFOAM.org                      |
|    \\/     M anipulation  |                                                 |
\*---------------------------------------------------------------------------*/
FoamFile
{
    version     2.0;
    format      ascii;
    class       volVectorField;
    location    "2.85";
    object      Ub;
}
// * * * * * * * * * * * * * * * * * * * * * * * * * * * * * * * * * * * * * //

dimensions      [0 1 -1 0 0 0 0];

internalField   nonuniform List<vector> 
360
(
(-0.000279624 1.1884e-07 0)
(-0.000279752 6.9426e-07 0)
(-0.000279646 1.72285e-06 0)
(-0.000279777 2.86994e-06 0)
(-0.000279969 3.98671e-06 0)
(-0.000280199 5.07131e-06 0)
(-0.000280485 6.20796e-06 0)
(-0.000280813 7.47558e-06 0)
(-0.000281148 8.87231e-06 0)
(-0.000281466 1.02762e-05 0)
(-0.000281726 1.14895e-05 0)
(-0.000281903 1.23613e-05 0)
(-0.000282006 1.28809e-05 0)
(-0.000282058 1.31463e-05 0)
(-0.000282083 1.32711e-05 0)
(-0.000282096 1.33313e-05 0)
(-0.000282103 1.33646e-05 0)
(-0.000282108 1.33872e-05 0)
(-0.000282112 1.3406e-05 0)
(-0.000282119 1.34245e-05 0)
(-0.000282123 1.34443e-05 0)
(-0.00028213 1.34664e-05 0)
(-0.000282138 1.3491e-05 0)
(-0.000282147 1.35176e-05 0)
(-0.000282156 1.35457e-05 0)
(-0.000282165 1.35746e-05 0)
(-0.000282175 1.36035e-05 0)
(-0.000282187 1.36323e-05 0)
(-0.000282199 1.36608e-05 0)
(-0.000282211 1.3689e-05 0)
(-0.000282223 1.37171e-05 0)
(-0.000282237 1.37452e-05 0)
(-0.000282249 1.37732e-05 0)
(-0.000282266 1.38017e-05 0)
(-0.00028228 1.38303e-05 0)
(-0.000282297 1.38593e-05 0)
(-0.000282314 1.38887e-05 0)
(-0.000282333 1.39184e-05 0)
(-0.000282355 1.39486e-05 0)
(-0.000282375 1.39791e-05 0)
(-0.000282399 1.40101e-05 0)
(-0.000282424 1.40414e-05 0)
(-0.000282448 1.40732e-05 0)
(-0.000282477 1.41055e-05 0)
(-0.000282506 1.41383e-05 0)
(-0.000282538 1.41717e-05 0)
(-0.000282572 1.42058e-05 0)
(-0.000282605 1.42405e-05 0)
(-0.000282644 1.42761e-05 0)
(-0.000282686 1.43126e-05 0)
(-0.000282728 1.43501e-05 0)
(-0.000282775 1.43889e-05 0)
(-0.000282824 1.4429e-05 0)
(-0.000282876 1.44705e-05 0)
(-0.000282931 1.45135e-05 0)
(-0.000282991 1.45582e-05 0)
(-0.000283053 1.46048e-05 0)
(-0.00028312 1.46534e-05 0)
(-0.000283189 1.4704e-05 0)
(-0.000283261 1.47567e-05 0)
(-0.000283339 1.48117e-05 0)
(-0.000283418 1.48686e-05 0)
(-0.000283501 1.49275e-05 0)
(-0.000283585 1.4988e-05 0)
(-0.000283671 1.505e-05 0)
(-0.000283759 1.51134e-05 0)
(-0.00028385 1.51781e-05 0)
(-0.000283944 1.52444e-05 0)
(-0.000284042 1.53125e-05 0)
(-0.000284143 1.53829e-05 0)
(-0.00028425 1.54563e-05 0)
(-0.000284361 1.55331e-05 0)
(-0.000284475 1.56138e-05 0)
(-0.000284594 1.56988e-05 0)
(-0.000284717 1.57879e-05 0)
(-0.000284844 1.58811e-05 0)
(-0.000284972 1.59779e-05 0)
(-0.000285104 1.60777e-05 0)
(-0.000285239 1.61799e-05 0)
(-0.000285376 1.62841e-05 0)
(-0.000285517 1.639e-05 0)
(-0.000285661 1.64974e-05 0)
(-0.000285809 1.66067e-05 0)
(-0.00028596 1.6718e-05 0)
(-0.000286116 1.68316e-05 0)
(-0.000286275 1.69479e-05 0)
(-0.000286438 1.70669e-05 0)
(-0.000286604 1.71888e-05 0)
(-0.000286774 1.73133e-05 0)
(-0.000286947 1.74402e-05 0)
(-0.000287123 1.75692e-05 0)
(-0.000287303 1.77e-05 0)
(-0.000287487 1.78324e-05 0)
(-0.000287674 1.79661e-05 0)
(-0.000287865 1.8101e-05 0)
(-0.00028806 1.82372e-05 0)
(-0.000288258 1.83744e-05 0)
(-0.000288461 1.85128e-05 0)
(-0.000288668 1.86522e-05 0)
(-0.000288878 1.87926e-05 0)
(-0.000289093 1.89339e-05 0)
(-0.000289312 1.90762e-05 0)
(-0.000289536 1.92192e-05 0)
(-0.000289764 1.93631e-05 0)
(-0.000289997 1.95077e-05 0)
(-0.000290234 1.96529e-05 0)
(-0.000290477 1.97986e-05 0)
(-0.000290724 1.99448e-05 0)
(-0.000290977 2.00914e-05 0)
(-0.000291236 2.02382e-05 0)
(-0.0002915 2.0385e-05 0)
(-0.000291769 2.05317e-05 0)
(-0.000292045 2.06781e-05 0)
(-0.000292328 2.0824e-05 0)
(-0.000292617 2.09692e-05 0)
(-0.000292913 2.11134e-05 0)
(-0.000293216 2.12564e-05 0)
(-0.000293526 2.13981e-05 0)
(-0.000293845 2.15383e-05 0)
(-0.000294172 2.16769e-05 0)
(-0.000294508 2.1814e-05 0)
(-0.000294853 2.19498e-05 0)
(-0.000295209 2.20845e-05 0)
(-0.000295575 2.22187e-05 0)
(-0.000295953 2.23533e-05 0)
(-0.000296344 2.24893e-05 0)
(-0.000296749 2.26281e-05 0)
(-0.00029717 2.27717e-05 0)
(-0.000297607 2.29221e-05 0)
(-0.000298063 2.30818e-05 0)
(-0.000298538 2.3253e-05 0)
(-0.000299034 2.34376e-05 0)
(-0.000299551 2.36369e-05 0)
(-0.000300094 2.38511e-05 0)
(-0.000300668 2.40794e-05 0)
(-0.00030127 2.43178e-05 0)
(-0.000301893 2.45585e-05 0)
(-0.000302542 2.4791e-05 0)
(-0.000303246 2.5005e-05 0)
(-0.000304038 2.51903e-05 0)
(-0.000304882 2.53336e-05 0)
(-0.000305669 2.54131e-05 0)
(-0.000306608 2.54342e-05 0)
(-0.000307843 2.54113e-05 0)
(-0.000309364 2.53407e-05 0)
(-0.000311724 2.50047e-05 0)
(-0.00032268 2.58602e-05 0)
(-0.000327452 5.05719e-05 0)
(-0.000347081 -2.92577e-05 0)
(-0.00188018 0.000270215 0)
(-0.0148739 0.00215654 0)
(-0.00875492 0.000507984 0)
(-0.000333543 0.000805111 0)
(0.00846959 0.000601526 0)
(0.0174351 0.000521501 0)
(0.0264884 0.00045776 0)
(0.0355894 0.00040163 0)
(0.044713 0.00035218 0)
(0.0538423 0.00030897 0)
(0.0629652 0.000271098 0)
(0.0720731 0.000237736 0)
(0.0811595 0.000208246 0)
(0.0902199 0.000182128 0)
(0.0992508 0.00015897 0)
(0.108249 0.000138425 0)
(0.117214 0.000120197 0)
(0.126143 0.00010403 0)
(0.135036 8.97034e-05 0)
(0.143891 7.70253e-05 0)
(0.152709 6.58262e-05 0)
(0.161488 5.59573e-05 0)
(0.170228 4.7287e-05 0)
(0.178929 3.96985e-05 0)
(0.18759 3.30887e-05 0)
(0.196211 2.73658e-05 0)
(0.204791 2.24473e-05 0)
(0.213329 1.82549e-05 0)
(0.221825 1.47087e-05 0)
(0.230277 1.17241e-05 0)
(0.238685 9.21397e-06 0)
(0.247046 7.09695e-06 0)
(0.25536 5.3057e-06 0)
(0.263624 3.78931e-06 0)
(0.271837 2.51038e-06 0)
(0.279998 1.44128e-06 0)
(0.288103 5.62542e-07 0)
(0.296151 -1.36383e-07 0)
(0.304138 -6.55832e-07 0)
(0.312061 -9.87982e-07 0)
(0.319914 -1.12743e-06 0)
(0.327693 -1.09001e-06 0)
(0.33539 -9.26194e-07 0)
(0.342997 -7.10301e-07 0)
(0.350504 -5.09079e-07 0)
(0.3579 -3.56512e-07 0)
(0.365173 -2.54317e-07 0)
(0.372311 -1.89024e-07 0)
(0.379297 -1.46341e-07 0)
(0.386115 -1.16646e-07 0)
(0.392742 -9.4782e-08 0)
(0.399152 -7.81417e-08 0)
(0.405374 -6.50275e-08 0)
(0.41141 -5.42908e-08 0)
(0.417172 -4.53636e-08 0)
(0.422526 -3.8109e-08 0)
(0.427269 -3.22014e-08 0)
(0.430257 -2.68353e-08 0)
(0.430985 -2.26615e-08 0)
(0.431223 -1.91083e-08 0)
(0.431426 -1.65699e-08 0)
(0.431612 -1.34427e-08 0)
(0.431783 -1.19814e-08 0)
(0.431941 -9.24152e-09 0)
(0.432085 -8.91348e-09 0)
(0.432218 -5.90979e-09 0)
(0.432338 -7.02695e-09 0)
(0.432449 -3.21406e-09 0)
(0.432549 -5.90142e-09 0)
(0.432641 -9.6705e-10 0)
(0.432723 -5.53048e-09 0)
(0.432798 1.02958e-09 0)
(0.432866 -5.58371e-09 0)
(0.432927 2.76739e-09 0)
(0.432981 -5.97395e-09 0)
(0.43303 4.31361e-09 0)
(0.433074 -6.57103e-09 0)
(0.433113 5.72074e-09 0)
(0.433148 -7.31703e-09 0)
(0.433179 6.99626e-09 0)
(0.433206 -8.1423e-09 0)
(0.43323 8.17096e-09 0)
(0.433251 -9.02756e-09 0)
(0.433269 9.28036e-09 0)
(0.433285 -9.95837e-09 0)
(0.4333 1.0352e-08 0)
(0.433312 -1.09315e-08 0)
(0.433322 1.14148e-08 0)
(0.433331 -1.19505e-08 0)
(0.433339 1.24951e-08 0)
(0.433346 -1.30339e-08 0)
(0.433352 1.36295e-08 0)
(0.433356 -1.41609e-08 0)
(0.433361 1.63503e-08 0)
(0.433364 -1.69938e-08 0)
(0.433367 1.7651e-08 0)
(0.43337 -1.83276e-08 0)
(0.433372 1.90174e-08 0)
(0.433374 -1.97268e-08 0)
(0.433375 2.0449e-08 0)
(0.433376 -2.11909e-08 0)
(0.433377 2.19451e-08 0)
(0.433378 -2.2719e-08 0)
(0.433379 2.35048e-08 0)
(0.433379 -2.43101e-08 0)
(0.433379 2.5127e-08 0)
(0.43338 -2.59632e-08 0)
(0.43338 2.68106e-08 0)
(0.43338 -2.76769e-08 0)
(0.43338 2.85542e-08 0)
(0.433381 -2.94498e-08 0)
(0.433381 3.03561e-08 0)
(0.433381 -3.128e-08 0)
(0.433381 3.22143e-08 0)
(0.433381 -3.31655e-08 0)
(0.433381 3.41266e-08 0)
(0.433381 -3.51037e-08 0)
(0.433381 3.60901e-08 0)
(0.433381 -3.70915e-08 0)
(0.433381 3.81012e-08 0)
(0.433381 -3.9125e-08 0)
(0.433381 4.01558e-08 0)
(0.433381 -4.11991e-08 0)
(0.433381 4.22479e-08 0)
(0.433381 -4.33072e-08 0)
(0.433381 4.43697e-08 0)
(0.433381 -4.544e-08 0)
(0.433381 4.65101e-08 0)
(0.433381 -4.75834e-08 0)
(0.433381 4.86501e-08 0)
(0.433381 -4.9709e-08 0)
(0.433381 5.07016e-08 0)
(0.433381 -5.16718e-08 0)
(0.433381 5.2637e-08 0)
(0.433381 -5.36073e-08 0)
(0.433381 5.45806e-08 0)
(0.433381 -5.5563e-08 0)
(0.433381 5.65512e-08 0)
(0.433381 -5.75502e-08 0)
(0.433381 5.8557e-08 0)
(0.433381 -5.95757e-08 0)
(0.433381 6.06036e-08 0)
(0.433381 -6.16441e-08 0)
(0.433381 6.26952e-08 0)
(0.433381 -6.37595e-08 0)
(0.433381 6.48357e-08 0)
(0.433381 -6.59256e-08 0)
(0.433381 6.70287e-08 0)
(0.433381 -6.81462e-08 0)
(0.433381 6.92775e-08 0)
(0.433381 -7.04243e-08 0)
(0.433381 7.1586e-08 0)
(0.433381 -7.27638e-08 0)
(0.433381 7.39574e-08 0)
(0.433381 -7.51682e-08 0)
(0.433381 7.63957e-08 0)
(0.433381 -7.76412e-08 0)
(0.433381 7.89044e-08 0)
(0.433381 -8.01865e-08 0)
(0.433381 8.14873e-08 0)
(0.433381 -8.28081e-08 0)
(0.433381 7.38029e-08 0)
(0.433381 -7.34623e-08 0)
(0.433381 7.31176e-08 0)
(0.433381 -7.27701e-08 0)
(0.433381 7.24191e-08 0)
(0.433381 -7.2066e-08 0)
(0.433381 7.17102e-08 0)
(0.433381 -7.13529e-08 0)
(0.433381 7.09936e-08 0)
(0.433381 -7.06336e-08 0)
(0.433381 7.02721e-08 0)
(0.433381 -6.99105e-08 0)
(0.433381 6.95482e-08 0)
(0.433381 -6.91863e-08 0)
(0.433381 6.88244e-08 0)
(0.433381 -6.84634e-08 0)
(0.433381 6.8103e-08 0)
(0.433381 -6.77443e-08 0)
(0.433381 6.73866e-08 0)
(0.433381 -6.70313e-08 0)
(0.433381 6.66773e-08 0)
(0.433381 -6.63267e-08 0)
(0.433381 6.59777e-08 0)
(0.433381 -6.56329e-08 0)
(0.433381 6.52902e-08 0)
(0.433381 -6.49526e-08 0)
(0.433381 6.46174e-08 0)
(0.433381 -6.42883e-08 0)
(0.433381 6.39621e-08 0)
(0.433381 -6.36427e-08 0)
(0.433381 6.33271e-08 0)
(0.433381 -6.30188e-08 0)
(0.433381 6.27155e-08 0)
(0.433381 -6.24197e-08 0)
(0.433381 6.21306e-08 0)
(0.433381 -6.18488e-08 0)
(0.433381 6.15756e-08 0)
(0.433381 -6.13097e-08 0)
(0.433381 6.10545e-08 0)
(0.433381 -6.08066e-08 0)
(0.433381 6.05719e-08 0)
(0.433381 -6.03445e-08 0)
(0.433381 6.01335e-08 0)
(0.433381 -5.99297e-08 0)
(0.433381 5.97464e-08 0)
(0.433381 -5.95711e-08 0)
(0.433381 5.94211e-08 0)
(0.433381 -5.92819e-08 0)
(0.433381 5.91762e-08 0)
(0.433381 -5.9092e-08 0)
)
;

boundaryField
{
    inandouthalf11
    {
        type            cyclic;
    }
    inandouthalf12
    {
        type            cyclic;
    }
    inandouthalf21
    {
        type            cyclic;
    }
    inandouthalf22
    {
        type            cyclic;
    }
    inandouthalf31
    {
        type            cyclic;
    }
    inandouthalf32
    {
        type            cyclic;
    }
    inandouthalf41
    {
        type            cyclic;
    }
    inandouthalf42
    {
        type            cyclic;
    }
    top
    {
        type            symmetryPlane;
    }
    walls
    {
        type            fixedValue;
        value           uniform (0 0 0);
    }
    frontAndBackPlanes
    {
        type            empty;
    }
}


// ************************************************************************* //
