/*--------------------------------*- C++ -*----------------------------------*\
| =========                 |                                                 |
| \\      /  F ield         | OpenFOAM: The Open Source CFD Toolbox           |
|  \\    /   O peration     | Version:  2.4.x                                 |
|   \\  /    A nd           | Web:      www.OpenFOAM.org                      |
|    \\/     M anipulation  |                                                 |
\*---------------------------------------------------------------------------*/
FoamFile
{
    version     2.0;
    format      ascii;
    class       volVectorField;
    location    "2.85";
    object      Ub_0;
}
// * * * * * * * * * * * * * * * * * * * * * * * * * * * * * * * * * * * * * //

dimensions      [0 1 -1 0 0 0 0];

internalField   nonuniform List<vector> 
360
(
(-0.000279625 1.19067e-07 0)
(-0.000279753 6.95676e-07 0)
(-0.000279648 1.72646e-06 0)
(-0.000279779 2.87594e-06 0)
(-0.000279972 3.99481e-06 0)
(-0.000280202 5.08101e-06 0)
(-0.000280488 6.21871e-06 0)
(-0.000280816 7.48666e-06 0)
(-0.000281151 8.8827e-06 0)
(-0.000281468 1.02846e-05 0)
(-0.000281728 1.14951e-05 0)
(-0.000281905 1.2364e-05 0)
(-0.000282008 1.28814e-05 0)
(-0.000282059 1.31455e-05 0)
(-0.000282084 1.32698e-05 0)
(-0.000282097 1.33298e-05 0)
(-0.000282104 1.33629e-05 0)
(-0.000282109 1.33854e-05 0)
(-0.000282113 1.34042e-05 0)
(-0.000282119 1.34227e-05 0)
(-0.000282124 1.34425e-05 0)
(-0.000282131 1.34647e-05 0)
(-0.000282139 1.34892e-05 0)
(-0.000282147 1.35159e-05 0)
(-0.000282157 1.3544e-05 0)
(-0.000282166 1.35729e-05 0)
(-0.000282176 1.36018e-05 0)
(-0.000282188 1.36306e-05 0)
(-0.0002822 1.36591e-05 0)
(-0.000282211 1.36873e-05 0)
(-0.000282223 1.37153e-05 0)
(-0.000282238 1.37434e-05 0)
(-0.00028225 1.37715e-05 0)
(-0.000282266 1.37999e-05 0)
(-0.000282281 1.38285e-05 0)
(-0.000282298 1.38576e-05 0)
(-0.000282315 1.38869e-05 0)
(-0.000282334 1.39167e-05 0)
(-0.000282356 1.39469e-05 0)
(-0.000282376 1.39773e-05 0)
(-0.0002824 1.40083e-05 0)
(-0.000282424 1.40397e-05 0)
(-0.000282449 1.40714e-05 0)
(-0.000282478 1.41038e-05 0)
(-0.000282507 1.41366e-05 0)
(-0.000282539 1.417e-05 0)
(-0.000282572 1.4204e-05 0)
(-0.000282606 1.42388e-05 0)
(-0.000282644 1.42743e-05 0)
(-0.000282687 1.43109e-05 0)
(-0.000282729 1.43484e-05 0)
(-0.000282776 1.43872e-05 0)
(-0.000282824 1.44273e-05 0)
(-0.000282877 1.44688e-05 0)
(-0.000282931 1.45118e-05 0)
(-0.000282992 1.45566e-05 0)
(-0.000283053 1.46031e-05 0)
(-0.00028312 1.46517e-05 0)
(-0.00028319 1.47024e-05 0)
(-0.000283262 1.47552e-05 0)
(-0.00028334 1.48101e-05 0)
(-0.000283419 1.48671e-05 0)
(-0.000283501 1.4926e-05 0)
(-0.000283585 1.49865e-05 0)
(-0.000283672 1.50486e-05 0)
(-0.00028376 1.5112e-05 0)
(-0.000283851 1.51767e-05 0)
(-0.000283945 1.5243e-05 0)
(-0.000284043 1.53112e-05 0)
(-0.000284144 1.53816e-05 0)
(-0.00028425 1.5455e-05 0)
(-0.000284362 1.55319e-05 0)
(-0.000284476 1.56126e-05 0)
(-0.000284595 1.56977e-05 0)
(-0.000284718 1.57868e-05 0)
(-0.000284844 1.58801e-05 0)
(-0.000284973 1.5977e-05 0)
(-0.000285105 1.60769e-05 0)
(-0.00028524 1.61791e-05 0)
(-0.000285377 1.62834e-05 0)
(-0.000285518 1.63893e-05 0)
(-0.000285662 1.64968e-05 0)
(-0.00028581 1.66062e-05 0)
(-0.000285961 1.67175e-05 0)
(-0.000286117 1.68312e-05 0)
(-0.000286276 1.69475e-05 0)
(-0.000286439 1.70667e-05 0)
(-0.000286605 1.71886e-05 0)
(-0.000286775 1.73132e-05 0)
(-0.000286948 1.74402e-05 0)
(-0.000287124 1.75693e-05 0)
(-0.000287304 1.77002e-05 0)
(-0.000287488 1.78326e-05 0)
(-0.000287675 1.79664e-05 0)
(-0.000287866 1.81014e-05 0)
(-0.000288061 1.82377e-05 0)
(-0.00028826 1.8375e-05 0)
(-0.000288462 1.85134e-05 0)
(-0.000288669 1.86529e-05 0)
(-0.00028888 1.87934e-05 0)
(-0.000289094 1.89349e-05 0)
(-0.000289313 1.90772e-05 0)
(-0.000289537 1.92204e-05 0)
(-0.000289765 1.93643e-05 0)
(-0.000289998 1.95089e-05 0)
(-0.000290235 1.96542e-05 0)
(-0.000290478 1.98001e-05 0)
(-0.000290726 1.99464e-05 0)
(-0.000290979 2.0093e-05 0)
(-0.000291237 2.02399e-05 0)
(-0.000291501 2.03868e-05 0)
(-0.000291771 2.05336e-05 0)
(-0.000292047 2.06801e-05 0)
(-0.000292329 2.08261e-05 0)
(-0.000292618 2.09713e-05 0)
(-0.000292914 2.11156e-05 0)
(-0.000293217 2.12587e-05 0)
(-0.000293528 2.14005e-05 0)
(-0.000293846 2.15408e-05 0)
(-0.000294173 2.16795e-05 0)
(-0.000294509 2.18166e-05 0)
(-0.000294854 2.19524e-05 0)
(-0.00029521 2.20872e-05 0)
(-0.000295577 2.22215e-05 0)
(-0.000295955 2.23562e-05 0)
(-0.000296346 2.24922e-05 0)
(-0.000296751 2.26311e-05 0)
(-0.000297171 2.27747e-05 0)
(-0.000297608 2.29252e-05 0)
(-0.000298064 2.30848e-05 0)
(-0.00029854 2.32561e-05 0)
(-0.000299035 2.34407e-05 0)
(-0.000299552 2.36399e-05 0)
(-0.000300095 2.38542e-05 0)
(-0.000300669 2.40824e-05 0)
(-0.000301271 2.43208e-05 0)
(-0.000301894 2.45615e-05 0)
(-0.000302544 2.47941e-05 0)
(-0.000303247 2.5008e-05 0)
(-0.000304039 2.51934e-05 0)
(-0.000304883 2.53368e-05 0)
(-0.00030567 2.54163e-05 0)
(-0.000306609 2.54374e-05 0)
(-0.000307844 2.54146e-05 0)
(-0.000309365 2.5344e-05 0)
(-0.000311725 2.50077e-05 0)
(-0.000322683 2.58708e-05 0)
(-0.000327463 5.05953e-05 0)
(-0.00034712 -2.92255e-05 0)
(-0.0018833 0.000270313 0)
(-0.0147807 0.00215531 0)
(-0.00862583 0.000509354 0)
(-0.000185614 0.000805229 0)
(0.0086307 0.000602132 0)
(0.0176066 0.000521953 0)
(0.0266684 0.00045812 0)
(0.0357769 0.000401934 0)
(0.0449072 0.000352439 0)
(0.0540424 0.000309188 0)
(0.0631707 0.000271281 0)
(0.0722836 0.000237888 0)
(0.0813748 0.000208372 0)
(0.0904396 0.000182232 0)
(0.0994746 0.000159055 0)
(0.108477 0.000138494 0)
(0.117446 0.000120252 0)
(0.126379 0.000104074 0)
(0.135275 8.97376e-05 0)
(0.144133 7.70512e-05 0)
(0.152954 6.58451e-05 0)
(0.161736 5.59705e-05 0)
(0.17048 4.72953e-05 0)
(0.179183 3.9703e-05 0)
(0.187847 3.309e-05 0)
(0.196471 2.73647e-05 0)
(0.205054 2.24444e-05 0)
(0.213595 1.82507e-05 0)
(0.222094 1.47036e-05 0)
(0.230549 1.17185e-05 0)
(0.238959 9.20797e-06 0)
(0.247322 7.09072e-06 0)
(0.255638 5.29931e-06 0)
(0.263905 3.78285e-06 0)
(0.272121 2.50393e-06 0)
(0.280284 1.43492e-06 0)
(0.288392 5.56407e-07 0)
(0.296442 -1.42165e-07 0)
(0.304431 -6.61082e-07 0)
(0.312356 -9.9248e-07 0)
(0.320211 -1.13097e-06 0)
(0.327992 -1.09252e-06 0)
(0.335691 -9.27765e-07 0)
(0.3433 -7.11192e-07 0)
(0.350808 -5.09573e-07 0)
(0.358206 -3.56813e-07 0)
(0.36548 -2.54533e-07 0)
(0.372619 -1.89197e-07 0)
(0.379607 -1.46485e-07 0)
(0.386425 -1.16767e-07 0)
(0.393053 -9.48838e-08 0)
(0.399463 -7.82286e-08 0)
(0.405684 -6.51023e-08 0)
(0.411719 -5.43551e-08 0)
(0.41748 -4.54191e-08 0)
(0.42283 -3.81578e-08 0)
(0.427567 -3.2242e-08 0)
(0.430531 -2.68698e-08 0)
(0.431248 -2.26957e-08 0)
(0.431485 -1.91362e-08 0)
(0.431687 -1.65948e-08 0)
(0.431873 -1.34633e-08 0)
(0.432045 -1.20005e-08 0)
(0.432202 -9.25677e-09 0)
(0.432347 -8.92818e-09 0)
(0.432479 -5.92086e-09 0)
(0.4326 -7.03843e-09 0)
(0.43271 -3.22184e-09 0)
(0.432811 -5.91033e-09 0)
(0.432902 -9.72354e-10 0)
(0.432985 -5.53771e-09 0)
(0.43306 1.02646e-09 0)
(0.433127 -5.58982e-09 0)
(0.433188 2.76607e-09 0)
(0.433243 -5.97947e-09 0)
(0.433292 4.31386e-09 0)
(0.433336 -6.57631e-09 0)
(0.433375 5.72244e-09 0)
(0.433409 -7.3224e-09 0)
(0.43344 6.99923e-09 0)
(0.433467 -8.14793e-09 0)
(0.433491 8.17504e-09 0)
(0.433512 -9.03356e-09 0)
(0.433531 9.28542e-09 0)
(0.433547 -9.96481e-09 0)
(0.433561 1.03579e-08 0)
(0.433573 -1.09384e-08 0)
(0.433584 1.14215e-08 0)
(0.433593 -1.19578e-08 0)
(0.433601 1.25022e-08 0)
(0.433607 -1.30412e-08 0)
(0.433613 1.36368e-08 0)
(0.433618 -1.41686e-08 0)
(0.433622 1.63582e-08 0)
(0.433626 -1.70018e-08 0)
(0.433629 1.76592e-08 0)
(0.433631 -1.83359e-08 0)
(0.433633 1.90259e-08 0)
(0.433635 -1.97355e-08 0)
(0.433636 2.04578e-08 0)
(0.433638 -2.11999e-08 0)
(0.433639 2.19543e-08 0)
(0.433639 -2.27283e-08 0)
(0.43364 2.35142e-08 0)
(0.433641 -2.43197e-08 0)
(0.433641 2.51368e-08 0)
(0.433641 -2.59731e-08 0)
(0.433642 2.68207e-08 0)
(0.433642 -2.76871e-08 0)
(0.433642 2.85645e-08 0)
(0.433642 -2.94603e-08 0)
(0.433642 3.03667e-08 0)
(0.433642 -3.12908e-08 0)
(0.433642 3.22252e-08 0)
(0.433642 -3.31765e-08 0)
(0.433642 3.41377e-08 0)
(0.433642 -3.51149e-08 0)
(0.433642 3.61014e-08 0)
(0.433642 -3.71029e-08 0)
(0.433642 3.81127e-08 0)
(0.433642 -3.91365e-08 0)
(0.433642 4.01674e-08 0)
(0.433642 -4.12107e-08 0)
(0.433642 4.22595e-08 0)
(0.433642 -4.33188e-08 0)
(0.433642 4.43814e-08 0)
(0.433642 -4.54515e-08 0)
(0.433642 4.65215e-08 0)
(0.433642 -4.75945e-08 0)
(0.433642 4.8661e-08 0)
(0.433642 -4.97193e-08 0)
(0.433642 5.07106e-08 0)
(0.433642 -5.16804e-08 0)
(0.433642 5.26455e-08 0)
(0.433642 -5.36156e-08 0)
(0.433642 5.45888e-08 0)
(0.433642 -5.55711e-08 0)
(0.433642 5.65592e-08 0)
(0.433642 -5.75582e-08 0)
(0.433642 5.8565e-08 0)
(0.433642 -5.95836e-08 0)
(0.433642 6.06114e-08 0)
(0.433642 -6.16519e-08 0)
(0.433642 6.27029e-08 0)
(0.433642 -6.37672e-08 0)
(0.433642 6.48433e-08 0)
(0.433642 -6.59331e-08 0)
(0.433642 6.70361e-08 0)
(0.433642 -6.81535e-08 0)
(0.433642 6.92849e-08 0)
(0.433642 -7.04316e-08 0)
(0.433642 7.15932e-08 0)
(0.433642 -7.27709e-08 0)
(0.433642 7.39646e-08 0)
(0.433642 -7.51752e-08 0)
(0.433642 7.64027e-08 0)
(0.433642 -7.7648e-08 0)
(0.433642 7.89113e-08 0)
(0.433642 -8.01932e-08 0)
(0.433642 8.14941e-08 0)
(0.433642 -8.28147e-08 0)
(0.433642 7.38087e-08 0)
(0.433642 -7.34678e-08 0)
(0.433642 7.31231e-08 0)
(0.433642 -7.27751e-08 0)
(0.433642 7.24242e-08 0)
(0.433642 -7.20706e-08 0)
(0.433642 7.17149e-08 0)
(0.433642 -7.13572e-08 0)
(0.433642 7.0998e-08 0)
(0.433642 -7.06374e-08 0)
(0.433642 7.02761e-08 0)
(0.433642 -6.9914e-08 0)
(0.433642 6.95518e-08 0)
(0.433642 -6.91894e-08 0)
(0.433642 6.88276e-08 0)
(0.433642 -6.84661e-08 0)
(0.433642 6.81059e-08 0)
(0.433642 -6.77466e-08 0)
(0.433642 6.73893e-08 0)
(0.433642 -6.7033e-08 0)
(0.433642 6.66799e-08 0)
(0.433642 -6.63278e-08 0)
(0.433642 6.59802e-08 0)
(0.433642 -6.56334e-08 0)
(0.433642 6.52926e-08 0)
(0.433642 -6.49526e-08 0)
(0.433642 6.46198e-08 0)
(0.433642 -6.42878e-08 0)
(0.433642 6.39643e-08 0)
(0.433642 -6.36418e-08 0)
(0.433642 6.3329e-08 0)
(0.433642 -6.30177e-08 0)
(0.433642 6.27169e-08 0)
(0.433642 -6.24186e-08 0)
(0.433642 6.21315e-08 0)
(0.433642 -6.18477e-08 0)
(0.433642 6.1576e-08 0)
(0.433642 -6.13086e-08 0)
(0.433642 6.10544e-08 0)
(0.433642 -6.08057e-08 0)
(0.433642 6.05711e-08 0)
(0.433642 -6.03439e-08 0)
(0.433642 6.01318e-08 0)
(0.433642 -5.99296e-08 0)
(0.433642 5.9744e-08 0)
(0.433642 -5.95715e-08 0)
(0.433642 5.94179e-08 0)
(0.433642 -5.92827e-08 0)
(0.433642 5.91724e-08 0)
(0.433642 -5.90919e-08 0)
)
;

boundaryField
{
    inandouthalf11
    {
        type            cyclic;
    }
    inandouthalf12
    {
        type            cyclic;
    }
    inandouthalf21
    {
        type            cyclic;
    }
    inandouthalf22
    {
        type            cyclic;
    }
    inandouthalf31
    {
        type            cyclic;
    }
    inandouthalf32
    {
        type            cyclic;
    }
    inandouthalf41
    {
        type            cyclic;
    }
    inandouthalf42
    {
        type            cyclic;
    }
    top
    {
        type            symmetryPlane;
    }
    walls
    {
        type            fixedValue;
        value           uniform (0 0 0);
    }
    frontAndBackPlanes
    {
        type            empty;
    }
}


// ************************************************************************* //
