/*--------------------------------*- C++ -*----------------------------------*\
| =========                 |                                                 |
| \\      /  F ield         | OpenFOAM: The Open Source CFD Toolbox           |
|  \\    /   O peration     | Version:  2.4.x                                 |
|   \\  /    A nd           | Web:      www.OpenFOAM.org                      |
|    \\/     M anipulation  |                                                 |
\*---------------------------------------------------------------------------*/
FoamFile
{
    version     2.0;
    format      ascii;
    class       volScalarField;
    location    "3";
    object      alpha_0;
}
// * * * * * * * * * * * * * * * * * * * * * * * * * * * * * * * * * * * * * //

dimensions      [0 0 0 0 0 0 0];

internalField   nonuniform List<scalar> 
360
(
0.610109
0.610336
0.610468
0.610485
0.61047
0.610442
0.610402
0.61036
0.610325
0.61029
0.610251
0.610206
0.610156
0.610109
0.61007
0.610044
0.61003
0.610023
0.61002
0.610017
0.610016
0.610015
0.610013
0.610012
0.61001
0.610008
0.610007
0.610004
0.610001
0.609998
0.609995
0.609992
0.609989
0.609984
0.609981
0.609976
0.609972
0.609966
0.60996
0.609955
0.609948
0.60994
0.609933
0.609924
0.609915
0.609906
0.609895
0.609885
0.609873
0.609859
0.609845
0.60983
0.609814
0.609797
0.609779
0.609759
0.609739
0.609717
0.609693
0.60967
0.609644
0.609618
0.60959
0.609563
0.609534
0.609505
0.609475
0.609444
0.609412
0.609379
0.609343
0.609307
0.60927
0.609231
0.609191
0.609151
0.609109
0.609067
0.609024
0.60898
0.608936
0.608889
0.608842
0.608793
0.608743
0.608692
0.60864
0.608586
0.608532
0.608476
0.60842
0.608362
0.608302
0.608242
0.60818
0.608116
0.608051
0.607985
0.607917
0.607847
0.607776
0.607703
0.607629
0.607552
0.607474
0.607394
0.607312
0.607227
0.607141
0.607052
0.606961
0.606868
0.606771
0.606672
0.606571
0.606466
0.606358
0.606247
0.606132
0.606014
0.605892
0.605766
0.605635
0.605501
0.605361
0.605217
0.605067
0.604912
0.604751
0.604583
0.604409
0.604227
0.604038
0.60384
0.60363
0.603408
0.603176
0.602932
0.602663
0.602355
0.602021
0.601706
0.601329
0.600836
0.600233
0.599283
0.595596
0.595434
0.593481
0.56354
0.143729
0.0472781
0.0258363
0.0178496
0.0140083
0.0116793
0.0100574
0.00884128
0.00787924
0.00708685
0.00641488
0.0058326
0.00531967
0.00486212
0.00444998
0.00407592
0.0037344
0.00342112
0.00313268
0.00286632
0.00261976
0.00239109
0.00217869
0.00198119
0.00179746
0.00162663
0.00146814
0.00132166
0.00118705
0.00106423
0.000952983
0.000852869
0.000763181
0.00068295
0.000611
0.000546019
0.000486588
0.000431203
0.000378286
0.000326339
0.000274357
0.000222555
0.000173022
0.000129217
9.41444e-05
6.86157e-05
5.11931e-05
3.95111e-05
3.14757e-05
2.5679e-05
2.13402e-05
1.79889e-05
1.52677e-05
1.29425e-05
1.10339e-05
9.52725e-06
8.18908e-06
6.9817e-06
6.0259e-06
5.2288e-06
4.48796e-06
3.86055e-06
3.33906e-06
2.86396e-06
2.46091e-06
2.12982e-06
1.81444e-06
1.54544e-06
1.33646e-06
1.14116e-06
9.66826e-07
8.24568e-07
6.9892e-07
5.94083e-07
5.03644e-07
4.19252e-07
3.52775e-07
2.9664e-07
2.44422e-07
2.03863e-07
1.6814e-07
1.37983e-07
1.12778e-07
9.21761e-08
7.46498e-08
5.97289e-08
4.77352e-08
3.78745e-08
2.8732e-08
2.47426e-08
2.9809e-08
4.57363e-08
3.48041e-13
1.82655e-13
1.60483e-13
1.31326e-13
1.169e-13
9.05396e-14
7.3989e-14
4.89897e-14
3.93384e-14
3.28456e-14
2.98008e-14
2.53623e-14
1.88956e-14
1.18692e-14
9.22467e-15
8.00151e-15
7.04722e-15
5.47437e-15
3.37701e-15
2.38339e-15
1.97275e-15
1.6984e-15
1.27451e-15
7.4235e-16
5.19914e-16
4.23492e-16
3.50282e-16
2.34608e-16
1.35284e-16
9.91329e-17
8.08459e-17
6.11304e-17
3.52997e-17
2.35799e-17
1.80256e-17
1.17116e-17
4.96398e-18
2.45569e-18
1.21864e-18
4.79209e-19
2.02885e-19
9.17979e-20
4.17741e-20
1.87895e-20
8.29354e-21
3.57208e-21
1.49435e-21
6.04801e-22
2.35958e-22
8.84372e-23
3.17353e-23
1.08656e-23
3.53662e-24
1.08999e-24
3.16701e-25
8.63194e-26
2.19438e-26
5.16831e-27
1.11883e-27
2.20484e-28
3.90836e-29
6.13762e-30
8.36823e-31
9.632e-32
8.9763e-33
6.31936e-34
2.92517e-35
5.684e-37
3.42017e-39
7.42794e-41
7.99382e-43
1.08485e-53
7.4173e-65
3.77492e-76
1.40561e-87
4.6739e-99
1.45109e-110
6.99234e-122
8.94312e-130
1.86786e-140
3.07752e-148
6.29146e-159
1.05865e-166
2.69891e-177
3.64074e-185
1.2279e-195
1.25293e-203
8.35353e-214
4.34332e-222
5.55842e-232
1.52332e-240
2.83048e-250
5.40542e-259
1.34473e-268
1.94343e-277
5.95136e-287
7.07532e-296
2.55231e-305
2.60753e-314
3.1719e-321
6.08689e-321
8.5424e-321
0
0
0
0
0
0
0
0
0
0
0
0
0
0
0
0
)
;

boundaryField
{
    inandouthalf11
    {
        type            cyclic;
    }
    inandouthalf12
    {
        type            cyclic;
    }
    inandouthalf21
    {
        type            cyclic;
    }
    inandouthalf22
    {
        type            cyclic;
    }
    inandouthalf31
    {
        type            cyclic;
    }
    inandouthalf32
    {
        type            cyclic;
    }
    inandouthalf41
    {
        type            cyclic;
    }
    inandouthalf42
    {
        type            cyclic;
    }
    top
    {
        type            symmetryPlane;
    }
    walls
    {
        type            zeroGradient;
    }
    frontAndBackPlanes
    {
        type            empty;
    }
}


// ************************************************************************* //
