/*--------------------------------*- C++ -*----------------------------------*\
| =========                 |                                                 |
| \\      /  F ield         | OpenFOAM: The Open Source CFD Toolbox           |
|  \\    /   O peration     | Version:  2.4.x                                 |
|   \\  /    A nd           | Web:      www.OpenFOAM.org                      |
|    \\/     M anipulation  |                                                 |
\*---------------------------------------------------------------------------*/
FoamFile
{
    version     2.0;
    format      ascii;
    class       volScalarField;
    location    "3";
    object      alpha;
}
// * * * * * * * * * * * * * * * * * * * * * * * * * * * * * * * * * * * * * //

dimensions      [0 0 0 0 0 0 0];

internalField   nonuniform List<scalar> 
360
(
0.610109
0.610336
0.610468
0.610486
0.61047
0.610442
0.610402
0.61036
0.610325
0.61029
0.610251
0.610206
0.610157
0.610109
0.61007
0.610045
0.61003
0.610023
0.61002
0.610017
0.610016
0.610015
0.610013
0.610012
0.61001
0.610008
0.610007
0.610004
0.610001
0.609998
0.609995
0.609992
0.609989
0.609984
0.609981
0.609976
0.609972
0.609966
0.60996
0.609955
0.609948
0.60994
0.609933
0.609924
0.609915
0.609906
0.609895
0.609885
0.609873
0.609859
0.609845
0.60983
0.609814
0.609797
0.609779
0.609759
0.609739
0.609717
0.609693
0.60967
0.609644
0.609618
0.60959
0.609563
0.609534
0.609505
0.609475
0.609444
0.609412
0.609379
0.609343
0.609307
0.60927
0.609231
0.609191
0.609151
0.609109
0.609067
0.609024
0.60898
0.608936
0.608889
0.608842
0.608793
0.608743
0.608692
0.60864
0.608586
0.608532
0.608476
0.60842
0.608362
0.608302
0.608242
0.60818
0.608116
0.608051
0.607985
0.607917
0.607847
0.607776
0.607703
0.607629
0.607552
0.607474
0.607394
0.607312
0.607227
0.607141
0.607052
0.606961
0.606868
0.606771
0.606672
0.606571
0.606466
0.606358
0.606247
0.606132
0.606014
0.605892
0.605766
0.605635
0.605501
0.605361
0.605217
0.605067
0.604912
0.604751
0.604583
0.604409
0.604227
0.604038
0.60384
0.60363
0.603408
0.603176
0.602932
0.602663
0.602355
0.602021
0.601706
0.601329
0.600836
0.600233
0.599283
0.595597
0.595436
0.593483
0.563623
0.143762
0.0472767
0.0258271
0.0178394
0.0139984
0.0116702
0.0100491
0.00883373
0.00787237
0.0070806
0.00640919
0.00582741
0.00531495
0.00485783
0.00444608
0.00407238
0.00373118
0.00341821
0.00313004
0.00286394
0.00261762
0.00238917
0.00217697
0.00197966
0.00179609
0.00162542
0.00146707
0.00132072
0.00118624
0.00106352
0.000952368
0.000852336
0.000762719
0.000682548
0.000610652
0.000545717
0.000486329
0.000430981
0.000378101
0.00032619
0.000274243
0.000222475
0.000172972
0.00012919
9.41308e-05
6.86093e-05
5.11902e-05
3.95097e-05
3.1475e-05
2.56787e-05
2.134e-05
1.79887e-05
1.52676e-05
1.29424e-05
1.10339e-05
9.52719e-06
8.18901e-06
6.98163e-06
6.02584e-06
5.22873e-06
4.48788e-06
3.86048e-06
3.33899e-06
2.86389e-06
2.46085e-06
2.12976e-06
1.81437e-06
1.54538e-06
1.33641e-06
1.14111e-06
9.66782e-07
8.24529e-07
6.98885e-07
5.94052e-07
5.03614e-07
4.19225e-07
3.52753e-07
2.96619e-07
2.44404e-07
2.03848e-07
1.68126e-07
1.3797e-07
1.12768e-07
9.2167e-08
7.46417e-08
5.9722e-08
4.77294e-08
3.78687e-08
2.87273e-08
2.47454e-08
2.98243e-08
4.57013e-08
3.47513e-13
1.82437e-13
1.60314e-13
1.3119e-13
1.16773e-13
9.04081e-14
7.38465e-14
4.89057e-14
3.92904e-14
3.28202e-14
2.97801e-14
2.53328e-14
1.88549e-14
1.18482e-14
9.21543e-15
7.99606e-15
7.04103e-15
5.4652e-15
3.36962e-15
2.38058e-15
1.9712e-15
1.69685e-15
1.27222e-15
7.40872e-16
5.19318e-16
4.23144e-16
3.49904e-16
2.34129e-16
1.35077e-16
9.90306e-17
8.07756e-17
6.10427e-17
3.52364e-17
2.35512e-17
1.80054e-17
1.16867e-17
4.95164e-18
2.4498e-18
1.21521e-18
4.77853e-19
2.02367e-19
9.15705e-20
4.16716e-20
1.87434e-20
8.27308e-21
3.56319e-21
1.49058e-21
6.03258e-22
2.35348e-22
8.82048e-23
3.16506e-23
1.08362e-23
3.52688e-24
1.08694e-24
3.15801e-25
8.60703e-26
2.18794e-26
5.15292e-27
1.11545e-27
2.19807e-28
3.89617e-29
6.11818e-30
8.34131e-31
9.60051e-32
8.94645e-33
6.29796e-34
2.91506e-35
5.66368e-37
3.40719e-39
7.39929e-41
7.96248e-43
1.08061e-53
7.38834e-65
3.76027e-76
1.40018e-87
4.65598e-99
1.44552e-110
6.96532e-122
8.90805e-130
1.86058e-140
3.06545e-148
6.2669e-159
1.0545e-166
2.68838e-177
3.62646e-185
1.22311e-195
1.24802e-203
8.32094e-214
4.3263e-222
5.53673e-232
1.51735e-240
2.81943e-250
5.38424e-259
1.33948e-268
1.93581e-277
5.92813e-287
7.04762e-296
2.54234e-305
2.59732e-314
3.1719e-321
6.08689e-321
8.5424e-321
0
0
0
0
0
0
0
0
0
0
0
0
0
0
0
0
)
;

boundaryField
{
    inandouthalf11
    {
        type            cyclic;
    }
    inandouthalf12
    {
        type            cyclic;
    }
    inandouthalf21
    {
        type            cyclic;
    }
    inandouthalf22
    {
        type            cyclic;
    }
    inandouthalf31
    {
        type            cyclic;
    }
    inandouthalf32
    {
        type            cyclic;
    }
    inandouthalf41
    {
        type            cyclic;
    }
    inandouthalf42
    {
        type            cyclic;
    }
    top
    {
        type            symmetryPlane;
    }
    walls
    {
        type            zeroGradient;
    }
    frontAndBackPlanes
    {
        type            empty;
    }
}


// ************************************************************************* //
