/*--------------------------------*- C++ -*----------------------------------*\
| =========                 |                                                 |
| \\      /  F ield         | OpenFOAM: The Open Source CFD Toolbox           |
|  \\    /   O peration     | Version:  2.4.x                                 |
|   \\  /    A nd           | Web:      www.OpenFOAM.org                      |
|    \\/     M anipulation  |                                                 |
\*---------------------------------------------------------------------------*/
FoamFile
{
    version     2.0;
    format      ascii;
    class       surfaceScalarField;
    location    "3";
    object      ddt0(phia);
}
// * * * * * * * * * * * * * * * * * * * * * * * * * * * * * * * * * * * * * //

dimensions      [0 3 -2 0 0 0 0];

internalField   nonuniform List<scalar> 
359
(
-2.96823e-12
-9.49466e-12
-1.56204e-11
-1.98035e-11
-2.21582e-11
-2.27534e-11
-2.11019e-11
-1.63306e-11
-7.72223e-12
4.60007e-12
1.88365e-11
3.07822e-11
3.47265e-11
2.75042e-11
1.26385e-11
-2.19576e-12
-1.21065e-11
-1.71374e-11
-1.93002e-11
-2.01538e-11
-2.04518e-11
-2.04963e-11
-2.04037e-11
-2.02275e-11
-2.0005e-11
-1.97703e-11
-1.95513e-11
-1.93637e-11
-1.92104e-11
-1.90842e-11
-1.89737e-11
-1.88682e-11
-1.87602e-11
-1.8645e-11
-1.85213e-11
-1.83892e-11
-1.82501e-11
-1.81056e-11
-1.79572e-11
-1.78062e-11
-1.76534e-11
-1.74991e-11
-1.73432e-11
-1.71852e-11
-1.70245e-11
-1.68607e-11
-1.6693e-11
-1.65212e-11
-1.63443e-11
-1.61615e-11
-1.59724e-11
-1.57765e-11
-1.55733e-11
-1.53621e-11
-1.51424e-11
-1.49132e-11
-1.46741e-11
-1.44243e-11
-1.41635e-11
-1.3892e-11
-1.36095e-11
-1.33171e-11
-1.30156e-11
-1.27062e-11
-1.23897e-11
-1.20667e-11
-1.17362e-11
-1.13969e-11
-1.10464e-11
-1.0682e-11
-1.03002e-11
-9.89812e-12
-9.4742e-12
-9.02722e-12
-8.55789e-12
-8.06789e-12
-7.56053e-12
-7.03911e-12
-6.50658e-12
-5.96496e-12
-5.4152e-12
-4.85681e-12
-4.28844e-12
-3.7083e-12
-3.11458e-12
-2.50602e-12
-1.88206e-12
-1.24313e-12
-5.90372e-13
7.46223e-14
7.50099e-13
1.43444e-12
2.12642e-12
2.82517e-12
3.53019e-12
4.2412e-12
4.95805e-12
5.68061e-12
6.40878e-12
7.14246e-12
7.88156e-12
8.62605e-12
9.37594e-12
1.01313e-11
1.08921e-11
1.16585e-11
1.24303e-11
1.32076e-11
1.39899e-11
1.47768e-11
1.55675e-11
1.63609e-11
1.71554e-11
1.79491e-11
1.87397e-11
1.95242e-11
2.02996e-11
2.10625e-11
2.18094e-11
2.25373e-11
2.32431e-11
2.39249e-11
2.45814e-11
2.52131e-11
2.58222e-11
2.64139e-11
2.69967e-11
2.75837e-11
2.81923e-11
2.88441e-11
2.95632e-11
3.03727e-11
3.12922e-11
3.23327e-11
3.34891e-11
3.47309e-11
3.60052e-11
3.7257e-11
3.84401e-11
3.94898e-11
4.03025e-11
4.08022e-11
4.1046e-11
4.11315e-11
4.11475e-11
4.11561e-11
-1.13979e-11
-8.0187e-11
2.42048e-10
7.39121e-08
1.6574e-07
2.04364e-07
1.91032e-07
1.616e-07
1.21069e-07
8.83033e-08
6.08148e-08
3.782e-08
1.87266e-08
2.80126e-09
-1.05649e-08
-2.18533e-08
-3.14535e-08
-3.96786e-08
-4.67809e-08
-5.29645e-08
-5.83955e-08
-6.32099e-08
-6.75196e-08
-7.14163e-08
-7.49741e-08
-7.825e-08
-8.12825e-08
-8.40896e-08
-8.66701e-08
-8.9013e-08
-9.11167e-08
-9.30161e-08
-9.48018e-08
-9.66185e-08
-9.86356e-08
-1.01e-07
-1.03791e-07
-1.07003e-07
-1.10565e-07
-1.14371e-07
-1.1829e-07
-1.22151e-07
-1.25707e-07
-1.28629e-07
-1.30547e-07
-1.31188e-07
-1.30564e-07
-1.29018e-07
-1.27024e-07
-1.24939e-07
-1.22933e-07
-1.2106e-07
-1.19326e-07
-1.17724e-07
-1.16239e-07
-1.14834e-07
-1.13504e-07
-1.12254e-07
-1.1108e-07
-1.09977e-07
-1.08957e-07
-1.0804e-07
-1.07216e-07
-1.065e-07
-1.05915e-07
-1.05488e-07
-1.05174e-07
-1.04901e-07
-1.04632e-07
-1.04368e-07
-1.04103e-07
-1.03831e-07
-1.03554e-07
-1.03276e-07
-1.02991e-07
-1.02699e-07
-1.02398e-07
-1.02088e-07
-1.01774e-07
-1.01449e-07
-1.0111e-07
-1.00761e-07
-1.004e-07
-1.0002e-07
-9.9626e-08
-9.92135e-08
-9.87768e-08
-9.83156e-08
-9.78319e-08
-9.73165e-08
-9.6772e-08
-9.62297e-08
-9.5468e-08
-9.38656e-08
-9.1699e-08
-4.58464e-08
-1.31695e-10
-1.31778e-10
-1.31789e-10
-1.31767e-10
-1.31786e-10
-1.31765e-10
-1.31782e-10
-1.31765e-10
-1.31779e-10
-1.31765e-10
-1.31777e-10
-1.31766e-10
-1.31774e-10
-1.31767e-10
-1.31772e-10
-1.31769e-10
-1.3177e-10
-1.31771e-10
-1.31768e-10
-1.31773e-10
-1.31766e-10
-1.31774e-10
-1.31765e-10
-1.31777e-10
-1.3176e-10
-1.31781e-10
-1.3176e-10
-1.31781e-10
-1.31758e-10
-1.31783e-10
-1.31756e-10
-1.31785e-10
-1.31754e-10
-1.31787e-10
-1.31752e-10
-1.31789e-10
-1.3175e-10
-1.31791e-10
-1.31748e-10
-1.31793e-10
-1.31747e-10
-1.31794e-10
-1.31746e-10
-1.31795e-10
-1.31745e-10
-1.31796e-10
-1.31745e-10
-1.31795e-10
-1.31748e-10
-1.31786e-10
-1.31765e-10
-1.31782e-10
-1.31759e-10
-1.31783e-10
-1.31759e-10
-1.31784e-10
-1.31758e-10
-1.31785e-10
-1.31757e-10
-1.31786e-10
-1.31757e-10
-1.31787e-10
-1.31756e-10
-1.31787e-10
-1.31755e-10
-1.31788e-10
-1.31754e-10
-1.31789e-10
-1.31754e-10
-1.3179e-10
-1.31753e-10
-1.3179e-10
-1.31753e-10
-1.31791e-10
-1.31753e-10
-1.31791e-10
-1.31753e-10
-1.31791e-10
-1.31754e-10
-1.31792e-10
-1.31754e-10
-1.31792e-10
-1.31755e-10
-1.31792e-10
-1.31755e-10
-1.31792e-10
-1.31758e-10
-1.31795e-10
-1.31762e-10
-1.31799e-10
-1.31767e-10
-1.31801e-10
-1.31771e-10
-1.31803e-10
-1.31775e-10
-1.31806e-10
-1.31778e-10
-1.31806e-10
-1.3178e-10
-1.31805e-10
-1.3178e-10
-1.31802e-10
-1.31781e-10
-1.31801e-10
-1.31781e-10
-1.31797e-10
-1.31778e-10
-1.3179e-10
-1.31772e-10
-1.31778e-10
-1.31762e-10
-1.31767e-10
-1.31753e-10
-1.31755e-10
-1.31808e-10
-1.33197e-10
-1.98918e-10
)
;

boundaryField
{
    inandouthalf11
    {
        type            cyclic;
        value           nonuniform List<scalar> 
100
(
3.80717e-39
3.01639e-13
7.49445e-13
1.09913e-12
1.32587e-12
1.44789e-12
1.45756e-12
1.31883e-12
9.85978e-13
4.40829e-13
-2.62781e-13
-9.52408e-13
-1.32992e-12
-1.11808e-12
-3.52021e-13
5.66729e-13
1.25199e-12
1.62296e-12
1.78791e-12
1.85464e-12
1.87957e-12
1.8858e-12
1.88202e-12
1.87172e-12
1.85707e-12
1.84025e-12
1.82347e-12
1.80845e-12
1.79593e-12
1.78576e-12
1.77719e-12
1.76935e-12
1.76149e-12
1.75311e-12
1.74395e-12
1.73396e-12
1.72321e-12
1.71182e-12
1.69992e-12
1.68767e-12
1.67514e-12
1.6624e-12
1.64944e-12
1.63624e-12
1.62274e-12
1.60888e-12
1.59461e-12
1.57986e-12
1.56458e-12
1.54868e-12
1.5321e-12
1.51481e-12
1.49674e-12
1.47784e-12
1.45806e-12
1.43731e-12
1.41554e-12
1.39267e-12
1.36866e-12
1.34351e-12
1.31721e-12
1.28981e-12
1.26139e-12
1.23206e-12
1.20194e-12
1.17107e-12
1.13945e-12
1.10696e-12
1.0734e-12
1.0385e-12
1.00196e-12
9.6346e-13
9.22759e-13
8.79733e-13
8.34379e-13
7.86852e-13
7.37453e-13
6.86573e-13
6.34589e-13
5.81802e-13
5.28398e-13
4.74427e-13
4.19811e-13
3.64396e-13
3.08006e-13
2.50489e-13
1.91765e-13
1.31845e-13
7.08336e-14
8.90377e-15
-5.37343e-14
-1.16866e-13
-1.80301e-13
-2.43887e-13
-3.07507e-13
-3.71076e-13
-4.34526e-13
-4.97798e-13
-5.60836e-13
-6.23587e-13
)
;
    }
    inandouthalf12
    {
        type            cyclic;
        value           nonuniform List<scalar> 
100
(
-3.80717e-39
-3.01639e-13
-7.49445e-13
-1.09913e-12
-1.32587e-12
-1.44789e-12
-1.45756e-12
-1.31883e-12
-9.85978e-13
-4.40829e-13
2.62781e-13
9.52408e-13
1.32992e-12
1.11808e-12
3.52021e-13
-5.66729e-13
-1.25199e-12
-1.62296e-12
-1.78791e-12
-1.85464e-12
-1.87957e-12
-1.8858e-12
-1.88202e-12
-1.87172e-12
-1.85707e-12
-1.84025e-12
-1.82347e-12
-1.80845e-12
-1.79593e-12
-1.78576e-12
-1.77719e-12
-1.76935e-12
-1.76149e-12
-1.75311e-12
-1.74395e-12
-1.73396e-12
-1.72321e-12
-1.71182e-12
-1.69992e-12
-1.68767e-12
-1.67514e-12
-1.6624e-12
-1.64944e-12
-1.63624e-12
-1.62274e-12
-1.60888e-12
-1.59461e-12
-1.57986e-12
-1.56458e-12
-1.54868e-12
-1.5321e-12
-1.51481e-12
-1.49674e-12
-1.47784e-12
-1.45806e-12
-1.43731e-12
-1.41554e-12
-1.39267e-12
-1.36866e-12
-1.34351e-12
-1.31721e-12
-1.28981e-12
-1.26139e-12
-1.23206e-12
-1.20194e-12
-1.17107e-12
-1.13945e-12
-1.10696e-12
-1.0734e-12
-1.0385e-12
-1.00196e-12
-9.6346e-13
-9.22759e-13
-8.79733e-13
-8.34379e-13
-7.86852e-13
-7.37453e-13
-6.86573e-13
-6.34589e-13
-5.81802e-13
-5.28398e-13
-4.74427e-13
-4.19811e-13
-3.64396e-13
-3.08006e-13
-2.50489e-13
-1.91765e-13
-1.31845e-13
-7.08336e-14
-8.90377e-15
5.37343e-14
1.16866e-13
1.80301e-13
2.43887e-13
3.07507e-13
3.71076e-13
4.34526e-13
4.97798e-13
5.60836e-13
6.23587e-13
)
;
    }
    inandouthalf21
    {
        type            cyclic;
        value           nonuniform List<scalar> 
100
(
-6.86001e-13
-7.48033e-13
-8.09645e-13
-8.70808e-13
-9.31497e-13
-9.9169e-13
-1.05137e-12
-1.1105e-12
-1.16904e-12
-1.22694e-12
-1.28411e-12
-1.34042e-12
-1.39568e-12
-1.44966e-12
-1.50205e-12
-1.55244e-12
-1.60036e-12
-1.64525e-12
-1.68644e-12
-1.72322e-12
-1.75479e-12
-1.7803e-12
-1.79883e-12
-1.80946e-12
-1.81123e-12
-1.80322e-12
-1.78457e-12
-1.75455e-12
-1.71268e-12
-1.65876e-12
-1.59297e-12
-1.51592e-12
-1.42838e-12
-1.33101e-12
-1.2241e-12
-1.1077e-12
-9.82591e-13
-8.51349e-13
-7.1925e-13
-5.954e-13
-4.93798e-13
-4.27307e-13
-3.94143e-13
-3.80799e-13
-3.75174e-13
-3.71044e-13
-3.64616e-13
3.82267e-11
2.44313e-10
8.07521e-09
2.58178e-07
5.81246e-07
7.16689e-07
7.94798e-07
8.48507e-07
8.89743e-07
9.23662e-07
9.52849e-07
9.7873e-07
1.00216e-06
1.02368e-06
1.04366e-06
1.06236e-06
1.07997e-06
1.09665e-06
1.1125e-06
1.12762e-06
1.14209e-06
1.15595e-06
1.16926e-06
1.18204e-06
1.19433e-06
1.20615e-06
1.2175e-06
1.2284e-06
1.23884e-06
1.24884e-06
1.25838e-06
1.26748e-06
1.27613e-06
1.28434e-06
1.2921e-06
1.29942e-06
1.3063e-06
1.31272e-06
1.31866e-06
1.3241e-06
1.329e-06
1.33335e-06
1.33714e-06
1.34036e-06
1.34305e-06
1.34527e-06
1.34713e-06
1.34871e-06
1.3501e-06
1.35135e-06
1.35251e-06
1.35358e-06
1.35458e-06
)
;
    }
    inandouthalf22
    {
        type            cyclic;
        value           nonuniform List<scalar> 
100
(
6.86001e-13
7.48033e-13
8.09645e-13
8.70808e-13
9.31497e-13
9.9169e-13
1.05137e-12
1.1105e-12
1.16904e-12
1.22694e-12
1.28411e-12
1.34042e-12
1.39568e-12
1.44966e-12
1.50205e-12
1.55244e-12
1.60036e-12
1.64525e-12
1.68644e-12
1.72322e-12
1.75479e-12
1.7803e-12
1.79883e-12
1.80946e-12
1.81123e-12
1.80322e-12
1.78457e-12
1.75455e-12
1.71268e-12
1.65876e-12
1.59297e-12
1.51592e-12
1.42838e-12
1.33101e-12
1.2241e-12
1.1077e-12
9.82591e-13
8.51349e-13
7.1925e-13
5.954e-13
4.93798e-13
4.27307e-13
3.94143e-13
3.80799e-13
3.75174e-13
3.71044e-13
3.64616e-13
-3.82267e-11
-2.44313e-10
-8.07521e-09
-2.58178e-07
-5.81246e-07
-7.16689e-07
-7.94798e-07
-8.48507e-07
-8.89743e-07
-9.23662e-07
-9.52849e-07
-9.7873e-07
-1.00216e-06
-1.02368e-06
-1.04366e-06
-1.06236e-06
-1.07997e-06
-1.09665e-06
-1.1125e-06
-1.12762e-06
-1.14209e-06
-1.15595e-06
-1.16926e-06
-1.18204e-06
-1.19433e-06
-1.20615e-06
-1.2175e-06
-1.2284e-06
-1.23884e-06
-1.24884e-06
-1.25838e-06
-1.26748e-06
-1.27613e-06
-1.28434e-06
-1.2921e-06
-1.29942e-06
-1.3063e-06
-1.31272e-06
-1.31866e-06
-1.3241e-06
-1.329e-06
-1.33335e-06
-1.33714e-06
-1.34036e-06
-1.34305e-06
-1.34527e-06
-1.34713e-06
-1.34871e-06
-1.3501e-06
-1.35135e-06
-1.35251e-06
-1.35358e-06
-1.35458e-06
)
;
    }
    inandouthalf31
    {
        type            cyclic;
        value           nonuniform List<scalar> 
110
(
1.3555e-06
1.38388e-06
1.41279e-06
1.44222e-06
1.4722e-06
1.50272e-06
1.53377e-06
1.56535e-06
1.59746e-06
1.63011e-06
1.66327e-06
1.69695e-06
1.73117e-06
1.76599e-06
1.80151e-06
1.83774e-06
1.87468e-06
1.91235e-06
1.95077e-06
1.98995e-06
2.02989e-06
2.07061e-06
2.11213e-06
2.15447e-06
2.19762e-06
2.24158e-06
2.28641e-06
2.33209e-06
2.37863e-06
2.42604e-06
2.47435e-06
2.52354e-06
2.57363e-06
2.62464e-06
2.67655e-06
2.72935e-06
2.78304e-06
2.83752e-06
2.89268e-06
2.94996e-06
3.01138e-06
3.07526e-06
2.99924e-06
3.06011e-06
3.12222e-06
3.1856e-06
3.25026e-06
3.31623e-06
3.38354e-06
3.45221e-06
3.52229e-06
3.59378e-06
3.66672e-06
3.74115e-06
3.81708e-06
3.89456e-06
3.97361e-06
4.05426e-06
4.13655e-06
4.22051e-06
4.30618e-06
4.39358e-06
4.48276e-06
4.57375e-06
4.66658e-06
4.7613e-06
4.85794e-06
4.95655e-06
5.05715e-06
5.1598e-06
5.26453e-06
5.37139e-06
5.48041e-06
5.59165e-06
5.70514e-06
5.82094e-06
5.93909e-06
6.05964e-06
6.18263e-06
6.30813e-06
6.43616e-06
6.5668e-06
6.70009e-06
6.83608e-06
6.97484e-06
7.11641e-06
7.26085e-06
7.40823e-06
7.5586e-06
7.71201e-06
7.86855e-06
8.02826e-06
8.19121e-06
8.35747e-06
8.5271e-06
8.70018e-06
8.87677e-06
9.05695e-06
9.24078e-06
9.42834e-06
9.61971e-06
9.81497e-06
1.00142e-05
1.02174e-05
1.04248e-05
1.06364e-05
1.08523e-05
1.10726e-05
1.12973e-05
1.15266e-05
)
;
    }
    inandouthalf32
    {
        type            cyclic;
        value           nonuniform List<scalar> 
110
(
-1.3555e-06
-1.38388e-06
-1.41279e-06
-1.44222e-06
-1.4722e-06
-1.50272e-06
-1.53377e-06
-1.56535e-06
-1.59746e-06
-1.63011e-06
-1.66327e-06
-1.69695e-06
-1.73117e-06
-1.76599e-06
-1.80151e-06
-1.83774e-06
-1.87468e-06
-1.91235e-06
-1.95077e-06
-1.98995e-06
-2.02989e-06
-2.07061e-06
-2.11213e-06
-2.15447e-06
-2.19762e-06
-2.24158e-06
-2.28641e-06
-2.33209e-06
-2.37863e-06
-2.42604e-06
-2.47435e-06
-2.52354e-06
-2.57363e-06
-2.62464e-06
-2.67655e-06
-2.72935e-06
-2.78304e-06
-2.83752e-06
-2.89268e-06
-2.94996e-06
-3.01138e-06
-3.07526e-06
-2.99924e-06
-3.06011e-06
-3.12222e-06
-3.1856e-06
-3.25026e-06
-3.31623e-06
-3.38354e-06
-3.45221e-06
-3.52229e-06
-3.59378e-06
-3.66672e-06
-3.74115e-06
-3.81708e-06
-3.89456e-06
-3.97361e-06
-4.05426e-06
-4.13655e-06
-4.22051e-06
-4.30618e-06
-4.39358e-06
-4.48276e-06
-4.57375e-06
-4.66658e-06
-4.7613e-06
-4.85794e-06
-4.95655e-06
-5.05715e-06
-5.1598e-06
-5.26453e-06
-5.37139e-06
-5.48041e-06
-5.59165e-06
-5.70514e-06
-5.82094e-06
-5.93909e-06
-6.05964e-06
-6.18263e-06
-6.30813e-06
-6.43616e-06
-6.5668e-06
-6.70009e-06
-6.83608e-06
-6.97484e-06
-7.11641e-06
-7.26085e-06
-7.40823e-06
-7.5586e-06
-7.71201e-06
-7.86855e-06
-8.02826e-06
-8.19121e-06
-8.35747e-06
-8.5271e-06
-8.70018e-06
-8.87677e-06
-9.05695e-06
-9.24078e-06
-9.42834e-06
-9.61971e-06
-9.81497e-06
-1.00142e-05
-1.02174e-05
-1.04248e-05
-1.06364e-05
-1.08523e-05
-1.10726e-05
-1.12973e-05
-1.15266e-05
)
;
    }
    inandouthalf41
    {
        type            cyclic;
        value           nonuniform List<scalar> 
50
(
1.03175e-05
1.03175e-05
1.03175e-05
1.03175e-05
1.03175e-05
1.03175e-05
1.03175e-05
1.03175e-05
1.03175e-05
1.03175e-05
1.03175e-05
1.03175e-05
1.03175e-05
1.03175e-05
1.03175e-05
1.03175e-05
1.03175e-05
1.03175e-05
1.03175e-05
1.03175e-05
1.03175e-05
1.03175e-05
1.03175e-05
1.03175e-05
1.03175e-05
1.03175e-05
1.03175e-05
1.03175e-05
1.03175e-05
1.03175e-05
1.03175e-05
1.03175e-05
1.03175e-05
1.03175e-05
1.03175e-05
1.03175e-05
1.03175e-05
1.03175e-05
1.03175e-05
1.03175e-05
1.03175e-05
1.03175e-05
1.03175e-05
1.03175e-05
1.03175e-05
1.03175e-05
1.03175e-05
1.03175e-05
1.03176e-05
1.03188e-05
)
;
    }
    inandouthalf42
    {
        type            cyclic;
        value           nonuniform List<scalar> 
50
(
-1.03175e-05
-1.03175e-05
-1.03175e-05
-1.03175e-05
-1.03175e-05
-1.03175e-05
-1.03175e-05
-1.03175e-05
-1.03175e-05
-1.03175e-05
-1.03175e-05
-1.03175e-05
-1.03175e-05
-1.03175e-05
-1.03175e-05
-1.03175e-05
-1.03175e-05
-1.03175e-05
-1.03175e-05
-1.03175e-05
-1.03175e-05
-1.03175e-05
-1.03175e-05
-1.03175e-05
-1.03175e-05
-1.03175e-05
-1.03175e-05
-1.03175e-05
-1.03175e-05
-1.03175e-05
-1.03175e-05
-1.03175e-05
-1.03175e-05
-1.03175e-05
-1.03175e-05
-1.03175e-05
-1.03175e-05
-1.03175e-05
-1.03175e-05
-1.03175e-05
-1.03175e-05
-1.03175e-05
-1.03175e-05
-1.03175e-05
-1.03175e-05
-1.03175e-05
-1.03175e-05
-1.03175e-05
-1.03176e-05
-1.03188e-05
)
;
    }
    top
    {
        type            symmetryPlane;
        value           uniform 0;
    }
    walls
    {
        type            calculated;
        value           uniform 0;
    }
    frontAndBackPlanes
    {
        type            empty;
        value           nonuniform 0();
    }
}


// ************************************************************************* //
