/*--------------------------------*- C++ -*----------------------------------*\
| =========                 |                                                 |
| \\      /  F ield         | OpenFOAM: The Open Source CFD Toolbox           |
|  \\    /   O peration     | Version:  2.4.x                                 |
|   \\  /    A nd           | Web:      www.OpenFOAM.org                      |
|    \\/     M anipulation  |                                                 |
\*---------------------------------------------------------------------------*/
FoamFile
{
    version     2.0;
    format      ascii;
    class       volScalarField;
    location    "3";
    object      ddt0(epsilon);
}
// * * * * * * * * * * * * * * * * * * * * * * * * * * * * * * * * * * * * * //

dimensions      [0 2 -4 0 0 0 0];

internalField   nonuniform List<scalar> 
360
(
0
0
0
0
0
0
0
0
0
0
0
0
0
0
0
0
0
0
0
0
0
0
0
0
0
0
0
0
0
0
0
0
0
0
0
0
0
0
0
0
0
0
0
0
0
0
0
0
0
0
0
0
0
0
0
0
0
0
0
0
0
0
0
0
0
0
0
0
0
0
0
0
0
0
0
0
0
0
0
0
0
0
0
0
0
0
0
0
0
0
0
0
0
0
0
0
0
0
0
0
0
0
0
0
0
0
0
0
0
0
0
0
0
0
0
0
0
0
0
0
0
0
0
0
0
0
0
0
0
8.93709e-20
4.16139e-19
1.39967e-18
2.11121e-18
-1.64583e-17
-2.01663e-16
-1.39951e-15
-7.59626e-15
-3.4672e-14
-1.36686e-13
-4.72463e-13
-1.45836e-12
-4.2265e-12
-1.33361e-11
-5.7208e-11
-3.71684e-10
-3.68853e-09
-4.93468e-08
-5.45248e-07
1.19119e-05
0.00200385
0.10327
0.0438824
-0.000913925
-0.0240435
-0.0385979
-0.0491138
-0.0571161
-0.0633573
-0.0682699
-0.0721323
-0.0751389
-0.0774325
-0.0791228
-0.0802956
-0.0810196
-0.0813503
-0.0813332
-0.0810059
-0.0803995
-0.0795401
-0.0784495
-0.077146
-0.0756453
-0.0739605
-0.0721031
-0.0700828
-0.0679082
-0.0655868
-0.0631255
-0.0605307
-0.0578081
-0.0549634
-0.0520023
-0.0489302
-0.0457528
-0.042476
-0.0391059
-0.0356489
-0.0321122
-0.0285036
-0.0248318
-0.021107
-0.0173409
-0.0135469
-0.00974073
-0.00594036
-0.00216626
0.00155832
0.00520699
0.00874975
0.0121524
0.0154086
0.0184943
0.0213372
0.0238457
0.0259033
0.0273603
0.0280228
0.0276355
0.0258361
0.0220074
0.015493
0.00422071
0.000201127
3.13558e-06
4.29207e-08
5.59362e-10
6.94895e-12
8.22762e-14
9.28368e-16
9.96679e-18
8.36238e-20
0
0
0
0
0
0
0
0
0
0
0
0
0
0
0
0
0
0
0
0
0
0
0
0
0
0
0
0
0
0
0
0
0
0
0
0
0
0
0
0
0
0
0
0
0
0
0
0
0
0
0
0
0
0
0
0
0
0
0
0
0
0
0
0
0
0
0
0
0
0
0
0
0
0
0
0
0
0
0
0
0
0
0
0
0
0
0
0
0
0
0
0
0
0
0
0
0
0
0
0
0
0
0
0
0
0
0
0
0
0
0
0
0
0
0
0
0
0
0
0
0
0
0
0
0
0
0
0
0
0
0
0
0
0
0
0
0
0
)
;

boundaryField
{
    inandouthalf11
    {
        type            cyclic;
    }
    inandouthalf12
    {
        type            cyclic;
    }
    inandouthalf21
    {
        type            cyclic;
    }
    inandouthalf22
    {
        type            cyclic;
    }
    inandouthalf31
    {
        type            cyclic;
    }
    inandouthalf32
    {
        type            cyclic;
    }
    inandouthalf41
    {
        type            cyclic;
    }
    inandouthalf42
    {
        type            cyclic;
    }
    top
    {
        type            symmetryPlane;
    }
    walls
    {
        type            calculated;
        value           uniform 0;
    }
    frontAndBackPlanes
    {
        type            empty;
    }
}


// ************************************************************************* //
