/*--------------------------------*- C++ -*----------------------------------*\
| =========                 |                                                 |
| \\      /  F ield         | OpenFOAM: The Open Source CFD Toolbox           |
|  \\    /   O peration     | Version:  2.4.x                                 |
|   \\  /    A nd           | Web:      www.OpenFOAM.org                      |
|    \\/     M anipulation  |                                                 |
\*---------------------------------------------------------------------------*/
FoamFile
{
    version     2.0;
    format      ascii;
    class       surfaceScalarField;
    location    "3";
    object      ddt0(phib);
}
// * * * * * * * * * * * * * * * * * * * * * * * * * * * * * * * * * * * * * //

dimensions      [0 3 -2 0 0 0 0];

internalField   nonuniform List<scalar> 
359
(
4.64862e-12
1.4885e-11
2.44994e-11
3.10617e-11
3.47543e-11
3.56893e-11
3.31074e-11
2.56454e-11
1.21828e-11
-7.08458e-12
-2.93374e-11
-4.79987e-11
-5.41491e-11
-4.28586e-11
-1.96432e-11
3.51275e-12
1.89782e-11
2.68269e-11
3.02002e-11
3.15316e-11
3.1996e-11
3.20649e-11
3.19201e-11
3.16446e-11
3.12969e-11
3.093e-11
3.05875e-11
3.02941e-11
3.00542e-11
2.98564e-11
2.96832e-11
2.95178e-11
2.93484e-11
2.91678e-11
2.89739e-11
2.87669e-11
2.8549e-11
2.83224e-11
2.80897e-11
2.78531e-11
2.76135e-11
2.73716e-11
2.71271e-11
2.68791e-11
2.66271e-11
2.637e-11
2.6107e-11
2.58374e-11
2.55596e-11
2.52727e-11
2.4976e-11
2.46685e-11
2.43496e-11
2.40181e-11
2.36733e-11
2.33135e-11
2.29383e-11
2.25463e-11
2.21372e-11
2.17112e-11
2.12682e-11
2.08096e-11
2.03368e-11
1.98517e-11
1.93558e-11
1.88495e-11
1.83318e-11
1.78004e-11
1.72516e-11
1.66812e-11
1.60838e-11
1.5455e-11
1.47923e-11
1.40939e-11
1.33607e-11
1.25955e-11
1.18034e-11
1.09896e-11
1.01587e-11
9.3139e-12
8.45668e-12
7.58632e-12
6.7008e-12
5.79731e-12
4.87307e-12
3.92614e-12
2.95566e-12
1.96232e-12
9.47914e-13
-8.50927e-14
-1.13389e-12
-2.19602e-12
-3.26946e-12
-4.35284e-12
-5.44535e-12
-6.54658e-12
-7.65619e-12
-8.77399e-12
-9.89977e-12
-1.10334e-11
-1.21747e-11
-1.33235e-11
-1.44799e-11
-1.56439e-11
-1.68155e-11
-1.79947e-11
-1.91815e-11
-2.03757e-11
-2.15766e-11
-2.27836e-11
-2.39952e-11
-2.52099e-11
-2.64251e-11
-2.76377e-11
-2.88441e-11
-3.00399e-11
-3.122e-11
-3.23794e-11
-3.35126e-11
-3.46146e-11
-3.5681e-11
-3.67084e-11
-3.76951e-11
-3.86414e-11
-3.9551e-11
-4.04314e-11
-4.12957e-11
-4.21637e-11
-4.30619e-11
-4.40233e-11
-4.50843e-11
-4.62803e-11
-4.76407e-11
-4.91814e-11
-5.08945e-11
-5.27341e-11
-5.46196e-11
-5.64655e-11
-5.81986e-11
-5.97212e-11
-6.08834e-11
-6.15638e-11
-6.18289e-11
-6.18221e-11
-6.16758e-11
-6.02789e-11
1.93934e-11
1.22932e-10
-1.58629e-10
-3.67426e-08
-1.57187e-08
-8.80732e-09
-6.95771e-09
-6.02687e-09
-5.17113e-09
-4.4682e-09
-3.87415e-09
-3.36459e-09
-2.92329e-09
-2.53864e-09
-2.20194e-09
-1.90641e-09
-1.64656e-09
-1.41787e-09
-1.21654e-09
-1.03937e-09
-8.83596e-10
-7.46836e-10
-6.27015e-10
-5.22317e-10
-4.31139e-10
-3.52066e-10
-2.8384e-10
-2.25345e-10
-1.75585e-10
-1.33661e-10
-9.87327e-11
-6.99763e-11
-4.65558e-11
-2.76275e-11
-1.23833e-11
-1.09563e-13
9.76522e-12
1.76556e-11
2.38387e-11
2.84851e-11
3.16754e-11
3.34012e-11
3.35692e-11
3.20499e-11
2.88284e-11
2.42322e-11
1.90309e-11
1.41601e-11
1.02573e-11
7.46089e-12
5.57007e-12
4.29793e-12
3.41352e-12
2.77215e-12
2.29273e-12
1.91622e-12
1.60754e-12
1.35203e-12
1.14804e-12
9.79985e-13
8.32033e-13
7.07998e-13
6.08487e-13
5.22299e-13
4.46798e-13
3.84251e-13
3.30517e-13
2.83481e-13
2.44287e-13
2.09804e-13
1.78823e-13
1.53613e-13
1.32238e-13
1.12784e-13
9.6218e-14
8.22524e-14
7.02853e-14
6.01503e-14
5.10883e-14
4.3371e-14
3.71245e-14
3.15757e-14
2.68893e-14
2.30688e-14
1.97575e-14
1.7026e-14
1.47705e-14
1.2906e-14
1.13049e-14
1.0014e-14
8.95186e-15
8.01844e-15
7.68584e-15
8.53203e-15
7.81675e-15
-1.47438e-15
5.18417e-15
5.17453e-15
5.1466e-15
5.12846e-15
5.09655e-15
5.06952e-15
5.0095e-15
4.96709e-15
4.89384e-15
4.83955e-15
4.75877e-15
4.68166e-15
4.5838e-15
4.49853e-15
4.38303e-15
4.27122e-15
4.14871e-15
4.02809e-15
3.8989e-15
3.79209e-15
3.68786e-15
3.59758e-15
3.54538e-15
3.50814e-15
3.47794e-15
3.4681e-15
3.45677e-15
3.45374e-15
3.43475e-15
3.42449e-15
3.43004e-15
3.4152e-15
3.40601e-15
3.35462e-15
3.30576e-15
3.22447e-15
3.14446e-15
3.03634e-15
2.97977e-15
2.90867e-15
2.83665e-15
2.71737e-15
2.61728e-15
2.47277e-15
2.32534e-15
2.13002e-15
1.98118e-15
1.79276e-15
1.61e-15
1.39068e-15
1.19675e-15
9.71265e-16
7.56238e-16
5.53439e-16
4.33268e-16
3.42763e-16
2.64511e-16
1.66246e-16
9.65711e-17
2.58e-18
-9.23141e-17
-2.1336e-16
-2.77939e-16
-3.85177e-16
-4.85964e-16
-6.38337e-16
-7.67245e-16
-9.41755e-16
-1.09734e-15
-1.27693e-15
-1.46029e-15
-1.65603e-15
-1.8612e-15
-2.07582e-15
-2.29658e-15
-2.51218e-15
-2.74023e-15
-2.93222e-15
-3.37515e-15
-3.72968e-15
-4.11819e-15
-4.36424e-15
-5.03137e-15
-5.43727e-15
-6.18264e-15
-6.65555e-15
-1.20833e-14
-1.69474e-14
-2.21333e-14
-2.62777e-14
-3.17147e-14
-3.55559e-14
-3.95152e-14
-4.15342e-14
-4.75062e-14
-5.07172e-14
-5.39812e-14
-5.36207e-14
-5.64631e-14
-5.48284e-14
-5.35006e-14
-4.78071e-14
-5.16966e-14
-5.00996e-14
-4.86712e-14
-4.03474e-14
-3.68416e-14
-2.66897e-14
-1.60071e-14
1.94728e-15
1.34235e-14
2.79184e-14
4.2938e-14
6.23823e-14
7.19454e-14
1.00294e-13
1.54037e-13
)
;

boundaryField
{
    inandouthalf11
    {
        type            cyclic;
        value           nonuniform List<scalar> 
100
(
-6.25473e-11
-6.29822e-11
-6.27203e-11
-6.22817e-11
-6.19466e-11
-6.1817e-11
-6.19172e-11
-6.22542e-11
-6.2835e-11
-6.36596e-11
-6.46495e-11
-6.55612e-11
-6.59702e-11
-6.54784e-11
-6.41589e-11
-6.26278e-11
-6.14795e-11
-6.08464e-11
-6.05597e-11
-6.04426e-11
-6.03971e-11
-6.03839e-11
-6.03869e-11
-6.03997e-11
-6.04187e-11
-6.04404e-11
-6.04616e-11
-6.04805e-11
-6.04957e-11
-6.05074e-11
-6.05168e-11
-6.05257e-11
-6.0534e-11
-6.05441e-11
-6.05548e-11
-6.05669e-11
-6.05801e-11
-6.05945e-11
-6.06101e-11
-6.06255e-11
-6.06422e-11
-6.06591e-11
-6.06761e-11
-6.06944e-11
-6.0713e-11
-6.07325e-11
-6.07529e-11
-6.07737e-11
-6.07962e-11
-6.08203e-11
-6.08451e-11
-6.08716e-11
-6.08993e-11
-6.09289e-11
-6.09597e-11
-6.09928e-11
-6.10272e-11
-6.10639e-11
-6.11023e-11
-6.11421e-11
-6.11842e-11
-6.12272e-11
-6.12719e-11
-6.13172e-11
-6.13636e-11
-6.14108e-11
-6.14595e-11
-6.151e-11
-6.15624e-11
-6.16173e-11
-6.16755e-11
-6.1737e-11
-6.18013e-11
-6.18692e-11
-6.19397e-11
-6.20128e-11
-6.20874e-11
-6.21635e-11
-6.22406e-11
-6.23188e-11
-6.2398e-11
-6.24785e-11
-6.25606e-11
-6.26444e-11
-6.27301e-11
-6.28178e-11
-6.29073e-11
-6.29985e-11
-6.30911e-11
-6.31849e-11
-6.32797e-11
-6.33755e-11
-6.3472e-11
-6.35694e-11
-6.36675e-11
-6.37663e-11
-6.38659e-11
-6.3966e-11
-6.40667e-11
-6.4168e-11
)
;
    }
    inandouthalf12
    {
        type            cyclic;
        value           nonuniform List<scalar> 
100
(
6.25473e-11
6.29822e-11
6.27203e-11
6.22817e-11
6.19466e-11
6.1817e-11
6.19172e-11
6.22542e-11
6.2835e-11
6.36596e-11
6.46495e-11
6.55612e-11
6.59702e-11
6.54784e-11
6.41589e-11
6.26278e-11
6.14795e-11
6.08464e-11
6.05597e-11
6.04426e-11
6.03971e-11
6.03839e-11
6.03869e-11
6.03997e-11
6.04187e-11
6.04404e-11
6.04616e-11
6.04805e-11
6.04957e-11
6.05074e-11
6.05168e-11
6.05257e-11
6.0534e-11
6.05441e-11
6.05548e-11
6.05669e-11
6.05801e-11
6.05945e-11
6.06101e-11
6.06255e-11
6.06422e-11
6.06591e-11
6.06761e-11
6.06944e-11
6.0713e-11
6.07325e-11
6.07529e-11
6.07737e-11
6.07962e-11
6.08203e-11
6.08451e-11
6.08716e-11
6.08993e-11
6.09289e-11
6.09597e-11
6.09928e-11
6.10272e-11
6.10639e-11
6.11023e-11
6.11421e-11
6.11842e-11
6.12272e-11
6.12719e-11
6.13172e-11
6.13636e-11
6.14108e-11
6.14595e-11
6.151e-11
6.15624e-11
6.16173e-11
6.16755e-11
6.1737e-11
6.18013e-11
6.18692e-11
6.19397e-11
6.20128e-11
6.20874e-11
6.21635e-11
6.22406e-11
6.23188e-11
6.2398e-11
6.24785e-11
6.25606e-11
6.26444e-11
6.27301e-11
6.28178e-11
6.29073e-11
6.29985e-11
6.30911e-11
6.31849e-11
6.32797e-11
6.33755e-11
6.3472e-11
6.35694e-11
6.36675e-11
6.37663e-11
6.38659e-11
6.3966e-11
6.40667e-11
6.4168e-11
)
;
    }
    inandouthalf21
    {
        type            cyclic;
        value           nonuniform List<scalar> 
100
(
-6.42698e-11
-6.43721e-11
-6.44748e-11
-6.4578e-11
-6.46816e-11
-6.47857e-11
-6.48902e-11
-6.49952e-11
-6.51006e-11
-6.52063e-11
-6.53124e-11
-6.54188e-11
-6.55253e-11
-6.56317e-11
-6.5738e-11
-6.58439e-11
-6.5949e-11
-6.60531e-11
-6.61557e-11
-6.62565e-11
-6.63551e-11
-6.64509e-11
-6.65437e-11
-6.66328e-11
-6.67179e-11
-6.67986e-11
-6.68747e-11
-6.6946e-11
-6.70126e-11
-6.7074e-11
-6.71296e-11
-6.71788e-11
-6.72209e-11
-6.7256e-11
-6.72828e-11
-6.72961e-11
-6.72902e-11
-6.72676e-11
-6.7241e-11
-6.72242e-11
-6.72201e-11
-6.72279e-11
-6.73276e-11
-6.75441e-11
-6.78451e-11
-6.80327e-11
-8.15376e-11
-4.95433e-11
1.49996e-10
6.08771e-09
3.53626e-07
6.56182e-07
7.66273e-07
8.26327e-07
8.69793e-07
9.05392e-07
9.36213e-07
9.63706e-07
9.88676e-07
1.01163e-06
1.03293e-06
1.05282e-06
1.07152e-06
1.08918e-06
1.10594e-06
1.12189e-06
1.13713e-06
1.15174e-06
1.16577e-06
1.17928e-06
1.19233e-06
1.20494e-06
1.21716e-06
1.22902e-06
1.24054e-06
1.25176e-06
1.26268e-06
1.27333e-06
1.28372e-06
1.29387e-06
1.30379e-06
1.31349e-06
1.32297e-06
1.33225e-06
1.34132e-06
1.3502e-06
1.35889e-06
1.36738e-06
1.37569e-06
1.3838e-06
1.3917e-06
1.39941e-06
1.40689e-06
1.41413e-06
1.42112e-06
1.42784e-06
1.43426e-06
1.44035e-06
1.44609e-06
1.45143e-06
)
;
    }
    inandouthalf22
    {
        type            cyclic;
        value           nonuniform List<scalar> 
100
(
6.42698e-11
6.43721e-11
6.44748e-11
6.4578e-11
6.46816e-11
6.47857e-11
6.48902e-11
6.49952e-11
6.51006e-11
6.52063e-11
6.53124e-11
6.54188e-11
6.55253e-11
6.56317e-11
6.5738e-11
6.58439e-11
6.5949e-11
6.60531e-11
6.61557e-11
6.62565e-11
6.63551e-11
6.64509e-11
6.65437e-11
6.66328e-11
6.67179e-11
6.67986e-11
6.68747e-11
6.6946e-11
6.70126e-11
6.7074e-11
6.71296e-11
6.71788e-11
6.72209e-11
6.7256e-11
6.72828e-11
6.72961e-11
6.72902e-11
6.72676e-11
6.7241e-11
6.72242e-11
6.72201e-11
6.72279e-11
6.73276e-11
6.75441e-11
6.78451e-11
6.80327e-11
8.15376e-11
4.95433e-11
-1.49996e-10
-6.08771e-09
-3.53626e-07
-6.56182e-07
-7.66273e-07
-8.26327e-07
-8.69793e-07
-9.05392e-07
-9.36213e-07
-9.63706e-07
-9.88676e-07
-1.01163e-06
-1.03293e-06
-1.05282e-06
-1.07152e-06
-1.08918e-06
-1.10594e-06
-1.12189e-06
-1.13713e-06
-1.15174e-06
-1.16577e-06
-1.17928e-06
-1.19233e-06
-1.20494e-06
-1.21716e-06
-1.22902e-06
-1.24054e-06
-1.25176e-06
-1.26268e-06
-1.27333e-06
-1.28372e-06
-1.29387e-06
-1.30379e-06
-1.31349e-06
-1.32297e-06
-1.33225e-06
-1.34132e-06
-1.3502e-06
-1.35889e-06
-1.36738e-06
-1.37569e-06
-1.3838e-06
-1.3917e-06
-1.39941e-06
-1.40689e-06
-1.41413e-06
-1.42112e-06
-1.42784e-06
-1.43426e-06
-1.44035e-06
-1.44609e-06
-1.45143e-06
)
;
    }
    inandouthalf31
    {
        type            cyclic;
        value           nonuniform List<scalar> 
110
(
1.45635e-06
1.49046e-06
1.52485e-06
1.55937e-06
1.59382e-06
1.62793e-06
1.66129e-06
1.69335e-06
1.72321e-06
1.74929e-06
1.76843e-06
1.77841e-06
1.71262e-06
1.67877e-06
1.70754e-06
1.74205e-06
1.77738e-06
1.81342e-06
1.85021e-06
1.88774e-06
1.92604e-06
1.96512e-06
2.00499e-06
2.04567e-06
2.08719e-06
2.12954e-06
2.17276e-06
2.21685e-06
2.26184e-06
2.30774e-06
2.35458e-06
2.40237e-06
2.45113e-06
2.50088e-06
2.55164e-06
2.60342e-06
2.65627e-06
2.71018e-06
2.76519e-06
2.82131e-06
2.87858e-06
2.937e-06
2.99662e-06
3.05744e-06
3.1195e-06
3.18281e-06
3.24742e-06
3.31333e-06
3.38058e-06
3.4492e-06
3.51921e-06
3.59064e-06
3.66352e-06
3.73788e-06
3.81375e-06
3.89116e-06
3.97014e-06
4.05072e-06
4.13294e-06
4.21683e-06
4.30242e-06
4.38974e-06
4.47884e-06
4.56975e-06
4.66251e-06
4.75714e-06
4.8537e-06
4.95222e-06
5.05273e-06
5.15529e-06
5.25993e-06
5.36669e-06
5.47562e-06
5.58676e-06
5.70016e-06
5.81586e-06
5.9339e-06
6.05435e-06
6.17723e-06
6.30261e-06
6.43054e-06
6.56106e-06
6.69424e-06
6.83011e-06
6.96874e-06
7.11019e-06
7.25451e-06
7.40176e-06
7.55199e-06
7.70528e-06
7.86167e-06
8.02124e-06
8.18405e-06
8.35017e-06
8.51965e-06
8.69258e-06
8.86902e-06
9.04903e-06
9.23271e-06
9.42011e-06
9.61131e-06
9.80639e-06
1.00054e-05
1.02085e-05
1.04157e-05
1.06271e-05
1.08428e-05
1.10629e-05
1.12875e-05
1.15166e-05
)
;
    }
    inandouthalf32
    {
        type            cyclic;
        value           nonuniform List<scalar> 
110
(
-1.45635e-06
-1.49046e-06
-1.52485e-06
-1.55937e-06
-1.59382e-06
-1.62793e-06
-1.66129e-06
-1.69335e-06
-1.72321e-06
-1.74929e-06
-1.76843e-06
-1.77841e-06
-1.71262e-06
-1.67877e-06
-1.70754e-06
-1.74205e-06
-1.77738e-06
-1.81342e-06
-1.85021e-06
-1.88774e-06
-1.92604e-06
-1.96512e-06
-2.00499e-06
-2.04567e-06
-2.08719e-06
-2.12954e-06
-2.17276e-06
-2.21685e-06
-2.26184e-06
-2.30774e-06
-2.35458e-06
-2.40237e-06
-2.45113e-06
-2.50088e-06
-2.55164e-06
-2.60342e-06
-2.65627e-06
-2.71018e-06
-2.76519e-06
-2.82131e-06
-2.87858e-06
-2.937e-06
-2.99662e-06
-3.05744e-06
-3.1195e-06
-3.18281e-06
-3.24742e-06
-3.31333e-06
-3.38058e-06
-3.4492e-06
-3.51921e-06
-3.59064e-06
-3.66352e-06
-3.73788e-06
-3.81375e-06
-3.89116e-06
-3.97014e-06
-4.05072e-06
-4.13294e-06
-4.21683e-06
-4.30242e-06
-4.38974e-06
-4.47884e-06
-4.56975e-06
-4.66251e-06
-4.75714e-06
-4.8537e-06
-4.95222e-06
-5.05273e-06
-5.15529e-06
-5.25993e-06
-5.36669e-06
-5.47562e-06
-5.58676e-06
-5.70016e-06
-5.81586e-06
-5.9339e-06
-6.05435e-06
-6.17723e-06
-6.30261e-06
-6.43054e-06
-6.56106e-06
-6.69424e-06
-6.83011e-06
-6.96874e-06
-7.11019e-06
-7.25451e-06
-7.40176e-06
-7.55199e-06
-7.70528e-06
-7.86167e-06
-8.02124e-06
-8.18405e-06
-8.35017e-06
-8.51965e-06
-8.69258e-06
-8.86902e-06
-9.04903e-06
-9.23271e-06
-9.42011e-06
-9.61131e-06
-9.80639e-06
-1.00054e-05
-1.02085e-05
-1.04157e-05
-1.06271e-05
-1.08428e-05
-1.10629e-05
-1.12875e-05
-1.15166e-05
)
;
    }
    inandouthalf41
    {
        type            cyclic;
        value           nonuniform List<scalar> 
50
(
1.03085e-05
1.03085e-05
1.03085e-05
1.03085e-05
1.03085e-05
1.03085e-05
1.03085e-05
1.03085e-05
1.03085e-05
1.03085e-05
1.03085e-05
1.03085e-05
1.03085e-05
1.03085e-05
1.03085e-05
1.03085e-05
1.03085e-05
1.03085e-05
1.03085e-05
1.03085e-05
1.03085e-05
1.03085e-05
1.03085e-05
1.03085e-05
1.03085e-05
1.03085e-05
1.03085e-05
1.03085e-05
1.03085e-05
1.03085e-05
1.03085e-05
1.03085e-05
1.03085e-05
1.03085e-05
1.03085e-05
1.03085e-05
1.03085e-05
1.03085e-05
1.03085e-05
1.03085e-05
1.03085e-05
1.03085e-05
1.03085e-05
1.03085e-05
1.03085e-05
1.03085e-05
1.03085e-05
1.03085e-05
1.03085e-05
1.03085e-05
)
;
    }
    inandouthalf42
    {
        type            cyclic;
        value           nonuniform List<scalar> 
50
(
-1.03085e-05
-1.03085e-05
-1.03085e-05
-1.03085e-05
-1.03085e-05
-1.03085e-05
-1.03085e-05
-1.03085e-05
-1.03085e-05
-1.03085e-05
-1.03085e-05
-1.03085e-05
-1.03085e-05
-1.03085e-05
-1.03085e-05
-1.03085e-05
-1.03085e-05
-1.03085e-05
-1.03085e-05
-1.03085e-05
-1.03085e-05
-1.03085e-05
-1.03085e-05
-1.03085e-05
-1.03085e-05
-1.03085e-05
-1.03085e-05
-1.03085e-05
-1.03085e-05
-1.03085e-05
-1.03085e-05
-1.03085e-05
-1.03085e-05
-1.03085e-05
-1.03085e-05
-1.03085e-05
-1.03085e-05
-1.03085e-05
-1.03085e-05
-1.03085e-05
-1.03085e-05
-1.03085e-05
-1.03085e-05
-1.03085e-05
-1.03085e-05
-1.03085e-05
-1.03085e-05
-1.03085e-05
-1.03085e-05
-1.03085e-05
)
;
    }
    top
    {
        type            symmetryPlane;
        value           uniform 0;
    }
    walls
    {
        type            calculated;
        value           uniform 0;
    }
    frontAndBackPlanes
    {
        type            empty;
        value           nonuniform 0();
    }
}


// ************************************************************************* //
