/*--------------------------------*- C++ -*----------------------------------*\
| =========                 |                                                 |
| \\      /  F ield         | OpenFOAM: The Open Source CFD Toolbox           |
|  \\    /   O peration     | Version:  2.4.x                                 |
|   \\  /    A nd           | Web:      www.OpenFOAM.org                      |
|    \\/     M anipulation  |                                                 |
\*---------------------------------------------------------------------------*/
FoamFile
{
    version     2.0;
    format      ascii;
    class       volVectorField;
    location    "3";
    object      ddt0(Ua);
}
// * * * * * * * * * * * * * * * * * * * * * * * * * * * * * * * * * * * * * //

dimensions      [0 1 -2 0 0 0 0];

internalField   nonuniform List<vector> 
360
(
(-3.80717e-33 -1.79459e-32 0)
(-3.01639e-07 -1.45571e-06 0)
(-7.49445e-07 -3.28118e-06 0)
(-1.09913e-06 -4.56095e-06 0)
(-1.32587e-06 -5.34968e-06 0)
(-1.44789e-06 -5.73076e-06 0)
(-1.45756e-06 -5.64563e-06 0)
(-1.31883e-06 -4.90297e-06 0)
(-9.85978e-07 -3.26239e-06 0)
(-4.40829e-07 -5.99917e-07 0)
(2.62781e-07 2.90284e-06 0)
(9.52408e-07 6.52429e-06 0)
(1.32992e-06 8.87547e-06 0)
(1.11808e-06 8.47924e-06 0)
(3.52021e-07 5.25646e-06 0)
(-5.66729e-07 1.05924e-06 0)
(-1.25199e-06 -2.15203e-06 0)
(-1.62296e-06 -3.89774e-06 0)
(-1.78791e-06 -4.66981e-06 0)
(-1.85464e-06 -4.98012e-06 0)
(-1.87957e-06 -5.09671e-06 0)
(-1.8858e-06 -5.12918e-06 0)
(-1.88202e-06 -5.11895e-06 0)
(-1.87172e-06 -5.08289e-06 0)
(-1.85707e-06 -5.03085e-06 0)
(-1.84025e-06 -4.97166e-06 0)
(-1.82347e-06 -4.9135e-06 0)
(-1.80845e-06 -4.86212e-06 0)
(-1.79593e-06 -4.81975e-06 0)
(-1.78576e-06 -4.78547e-06 0)
(-1.77719e-06 -4.75662e-06 0)
(-1.76935e-06 -4.73022e-06 0)
(-1.76149e-06 -4.7039e-06 0)
(-1.75311e-06 -4.67617e-06 0)
(-1.74395e-06 -4.64633e-06 0)
(-1.73396e-06 -4.6143e-06 0)
(-1.72321e-06 -4.58031e-06 0)
(-1.71182e-06 -4.54476e-06 0)
(-1.69992e-06 -4.50804e-06 0)
(-1.68767e-06 -4.47055e-06 0)
(-1.67514e-06 -4.43255e-06 0)
(-1.6624e-06 -4.39416e-06 0)
(-1.64944e-06 -4.3554e-06 0)
(-1.63624e-06 -4.31619e-06 0)
(-1.62274e-06 -4.27639e-06 0)
(-1.60888e-06 -4.23586e-06 0)
(-1.59461e-06 -4.19446e-06 0)
(-1.57986e-06 -4.15207e-06 0)
(-1.56458e-06 -4.10852e-06 0)
(-1.54868e-06 -4.0636e-06 0)
(-1.5321e-06 -4.01714e-06 0)
(-1.51481e-06 -3.96906e-06 0)
(-1.49674e-06 -3.91921e-06 0)
(-1.47784e-06 -3.86745e-06 0)
(-1.45806e-06 -3.81364e-06 0)
(-1.43731e-06 -3.75757e-06 0)
(-1.41554e-06 -3.69906e-06 0)
(-1.39267e-06 -3.63797e-06 0)
(-1.36866e-06 -3.57416e-06 0)
(-1.34351e-06 -3.50763e-06 0)
(-1.31721e-06 -3.43835e-06 0)
(-1.28981e-06 -3.36644e-06 0)
(-1.26139e-06 -3.29212e-06 0)
(-1.23206e-06 -3.21567e-06 0)
(-1.20194e-06 -3.1374e-06 0)
(-1.17107e-06 -3.05748e-06 0)
(-1.13945e-06 -2.97586e-06 0)
(-1.10696e-06 -2.89226e-06 0)
(-1.0734e-06 -2.8062e-06 0)
(-1.0385e-06 -2.71703e-06 0)
(-1.00196e-06 -2.62395e-06 0)
(-9.6346e-07 -2.52612e-06 0)
(-9.22759e-07 -2.42296e-06 0)
(-8.79733e-07 -2.31412e-06 0)
(-8.34379e-07 -2.1995e-06 0)
(-7.86852e-07 -2.07942e-06 0)
(-7.37453e-07 -1.95454e-06 0)
(-6.86573e-07 -1.82573e-06 0)
(-6.34589e-07 -1.69383e-06 0)
(-5.81802e-07 -1.55946e-06 0)
(-5.28398e-07 -1.42303e-06 0)
(-4.74427e-07 -1.28457e-06 0)
(-4.19811e-07 -1.14383e-06 0)
(-3.64396e-07 -1.00039e-06 0)
(-3.08006e-07 -8.53757e-07 0)
(-2.50489e-07 -7.03532e-07 0)
(-1.91765e-07 -5.49471e-07 0)
(-1.31845e-07 -3.91559e-07 0)
(-7.08336e-08 -2.30007e-07 0)
(-8.90377e-09 -6.51787e-08 0)
(5.37343e-08 1.02489e-07 0)
(1.16866e-07 2.72557e-07 0)
(1.80301e-07 4.44663e-07 0)
(2.43887e-07 6.18545e-07 0)
(3.07507e-07 7.94041e-07 0)
(3.71076e-07 9.71057e-07 0)
(4.34526e-07 1.14955e-06 0)
(4.97798e-07 1.32948e-06 0)
(5.60836e-07 1.51083e-06 0)
(6.23587e-07 1.69356e-06 0)
(6.86001e-07 1.87767e-06 0)
(7.48033e-07 2.06312e-06 0)
(8.09645e-07 2.24991e-06 0)
(8.70808e-07 2.43806e-06 0)
(9.31497e-07 2.62758e-06 0)
(9.9169e-07 2.81848e-06 0)
(1.05137e-06 3.01076e-06 0)
(1.1105e-06 3.20441e-06 0)
(1.16904e-06 3.39938e-06 0)
(1.22694e-06 3.59558e-06 0)
(1.28411e-06 3.79283e-06 0)
(1.34042e-06 3.99092e-06 0)
(1.39568e-06 4.18951e-06 0)
(1.44966e-06 4.38818e-06 0)
(1.50205e-06 4.58638e-06 0)
(1.55244e-06 4.78345e-06 0)
(1.60036e-06 4.97865e-06 0)
(1.64525e-06 5.17115e-06 0)
(1.68644e-06 5.36009e-06 0)
(1.72322e-06 5.54463e-06 0)
(1.75479e-06 5.72401e-06 0)
(1.7803e-06 5.89756e-06 0)
(1.79883e-06 6.06488e-06 0)
(1.80946e-06 6.22583e-06 0)
(1.81123e-06 6.38071e-06 0)
(1.80322e-06 6.53039e-06 0)
(1.78457e-06 6.67654e-06 0)
(1.75455e-06 6.82182e-06 0)
(1.71268e-06 6.97002e-06 0)
(1.65876e-06 7.12612e-06 0)
(1.59297e-06 7.29596e-06 0)
(1.51592e-06 7.48563e-06 0)
(1.42838e-06 7.70071e-06 0)
(1.33101e-06 7.94539e-06 0)
(1.2241e-06 8.22106e-06 0)
(1.1077e-06 8.52362e-06 0)
(9.82591e-07 8.84176e-06 0)
(8.51349e-07 9.16045e-06 0)
(7.1925e-07 9.46774e-06 0)
(5.954e-07 9.75285e-06 0)
(4.93798e-07 9.99289e-06 0)
(4.27307e-07 1.0157e-05 0)
(3.94143e-07 1.02442e-05 0)
(3.80799e-07 1.02791e-05 0)
(3.75174e-07 1.02867e-05 0)
(3.71044e-07 1.02874e-05 0)
(3.64616e-07 1.02854e-05 0)
(-3.82267e-05 -4.5891e-06 0)
(-0.000244313 6.64356e-07 0)
(-0.00807521 1.74219e-05 0)
(-0.258178 0.0364787 0)
(-0.581246 0.0502344 0)
(-0.716689 0.0501803 0)
(-0.794798 0.0442812 0)
(-0.848507 0.0351385 0)
(-0.889743 0.02593 0)
(-0.923662 0.0183289 0)
(-0.952849 0.0120667 0)
(-0.97873 0.00685982 0)
(-1.00216 0.00252187 0)
(-1.02368 -0.00110786 0)
(-1.04366 -0.00416381 0)
(-1.06236 -0.00675411 0)
(-1.07997 -0.00896554 0)
(-1.09665 -0.010868 0)
(-1.1125 -0.0125177 0)
(-1.12762 -0.0139605 0)
(-1.14209 -0.0152338 0)
(-1.15595 -0.0163683 0)
(-1.16926 -0.0173892 0)
(-1.18204 -0.0183172 0)
(-1.19433 -0.0191687 0)
(-1.20615 -0.0199558 0)
(-1.2175 -0.0206853 0)
(-1.2284 -0.0213589 0)
(-1.23884 -0.021974 0)
(-1.24884 -0.0225278 0)
(-1.25838 -0.0230236 0)
(-1.26748 -0.0234769 0)
(-1.27613 -0.0239183 0)
(-1.28434 -0.0243892 0)
(-1.2921 -0.0249313 0)
(-1.29942 -0.0255741 0)
(-1.3063 -0.0263269 0)
(-1.31272 -0.027179 0)
(-1.31866 -0.0281075 0)
(-1.3241 -0.0290836 0)
(-1.329 -0.0300707 0)
(-1.33335 -0.0310171 0)
(-1.33714 -0.0318483 0)
(-1.34036 -0.0324694 0)
(-1.34305 -0.0327911 0)
(-1.34527 -0.0327782 0)
(-1.34713 -0.0324833 0)
(-1.34871 -0.0320199 0)
(-1.3501 -0.0314968 0)
(-1.35135 -0.0309788 0)
(-1.35251 -0.0304913 0)
(-1.35358 -0.0300401 0)
(-1.35458 -0.0296237 0)
(-1.35549 -0.0292384 0)
(-1.35634 -0.0288774 0)
(-1.35713 -0.0285359 0)
(-1.35785 -0.0282137 0)
(-1.3585 -0.0279105 0)
(-1.35907 -0.0276254 0)
(-1.35956 -0.0273602 0)
(-1.35995 -0.0271178 0)
(-1.36024 -0.0268991 0)
(-1.36042 -0.0267059 0)
(-1.36048 -0.0265434 0)
(-1.36042 -0.0264177 0)
(-1.36024 -0.0263269 0)
(-1.36 -0.0262563 0)
(-1.35976 -0.0261906 0)
(-1.35951 -0.0261245 0)
(-1.35925 -0.0260587 0)
(-1.35897 -0.0259919 0)
(-1.3587 -0.025923 0)
(-1.35842 -0.0258536 0)
(-1.35811 -0.0257835 0)
(-1.3578 -0.0257114 0)
(-1.35747 -0.0256372 0)
(-1.35713 -0.0255607 0)
(-1.35678 -0.0254826 0)
(-1.35639 -0.0254034 0)
(-1.35599 -0.0253203 0)
(-1.35557 -0.0252339 0)
(-1.35511 -0.0251457 0)
(-1.35463 -0.0250531 0)
(-1.35412 -0.0249562 0)
(-1.35357 -0.0248558 0)
(-1.35297 -0.0247499 0)
(-1.35234 -0.0246374 0)
(-1.35165 -0.0245193 0)
(-1.35089 -0.0243954 0)
(-1.35007 -0.0242613 0)
(-1.34911 -0.0241239 0)
(-1.34798 -0.0239911 0)
(-1.34732 -0.0237383 0)
(-1.34801 -0.0231817 0)
(-1.34922 -0.02267 0)
(-1.28969 -3.28993e-05 0)
(-1.28969 -3.2945e-05 0)
(-1.28969 -3.29498e-05 0)
(-1.28969 -3.29392e-05 0)
(-1.28969 -3.29498e-05 0)
(-1.28969 -3.2938e-05 0)
(-1.28969 -3.29495e-05 0)
(-1.28969 -3.29372e-05 0)
(-1.28969 -3.29494e-05 0)
(-1.28969 -3.29365e-05 0)
(-1.28969 -3.29494e-05 0)
(-1.28969 -3.29359e-05 0)
(-1.28969 -3.29496e-05 0)
(-1.28969 -3.29355e-05 0)
(-1.28969 -3.29498e-05 0)
(-1.28969 -3.29351e-05 0)
(-1.28969 -3.29501e-05 0)
(-1.28969 -3.29347e-05 0)
(-1.28969 -3.29504e-05 0)
(-1.28969 -3.29344e-05 0)
(-1.28969 -3.29507e-05 0)
(-1.28969 -3.29341e-05 0)
(-1.28969 -3.29502e-05 0)
(-1.28969 -3.29359e-05 0)
(-1.28969 -3.29484e-05 0)
(-1.28969 -3.29359e-05 0)
(-1.28969 -3.295e-05 0)
(-1.28969 -3.29349e-05 0)
(-1.28969 -3.29502e-05 0)
(-1.28969 -3.29346e-05 0)
(-1.28969 -3.29505e-05 0)
(-1.28969 -3.29344e-05 0)
(-1.28969 -3.29507e-05 0)
(-1.28969 -3.29341e-05 0)
(-1.28969 -3.29509e-05 0)
(-1.28969 -3.2934e-05 0)
(-1.28969 -3.29511e-05 0)
(-1.28969 -3.29338e-05 0)
(-1.28969 -3.29513e-05 0)
(-1.28969 -3.29337e-05 0)
(-1.28969 -3.29515e-05 0)
(-1.28969 -3.29336e-05 0)
(-1.28969 -3.29515e-05 0)
(-1.28969 -3.29336e-05 0)
(-1.28969 -3.29516e-05 0)
(-1.28969 -3.29336e-05 0)
(-1.28969 -3.29515e-05 0)
(-1.28969 -3.29338e-05 0)
(-1.28969 -3.29513e-05 0)
(-1.28969 -3.29338e-05 0)
(-1.28969 -3.29514e-05 0)
(-1.28969 -3.29366e-05 0)
(-1.28969 -3.29491e-05 0)
(-1.28969 -3.29365e-05 0)
(-1.28969 -3.2949e-05 0)
(-1.28969 -3.29367e-05 0)
(-1.28969 -3.29488e-05 0)
(-1.28969 -3.29368e-05 0)
(-1.28969 -3.29488e-05 0)
(-1.28969 -3.29368e-05 0)
(-1.28969 -3.29488e-05 0)
(-1.28969 -3.29369e-05 0)
(-1.28969 -3.29488e-05 0)
(-1.28969 -3.29369e-05 0)
(-1.28969 -3.29488e-05 0)
(-1.28969 -3.2937e-05 0)
(-1.28969 -3.29488e-05 0)
(-1.28969 -3.2937e-05 0)
(-1.28969 -3.2948e-05 0)
(-1.28969 -3.29379e-05 0)
(-1.28969 -3.29478e-05 0)
(-1.28969 -3.29382e-05 0)
(-1.28969 -3.29476e-05 0)
(-1.28969 -3.29385e-05 0)
(-1.28969 -3.29474e-05 0)
(-1.28969 -3.29388e-05 0)
(-1.28969 -3.29472e-05 0)
(-1.28969 -3.2939e-05 0)
(-1.28969 -3.2947e-05 0)
(-1.28969 -3.29393e-05 0)
(-1.28969 -3.29469e-05 0)
(-1.28969 -3.29396e-05 0)
(-1.28969 -3.29467e-05 0)
(-1.28969 -3.294e-05 0)
(-1.28969 -3.29466e-05 0)
(-1.28969 -3.29403e-05 0)
(-1.28969 -3.29468e-05 0)
(-1.28969 -3.29413e-05 0)
(-1.28969 -3.29475e-05 0)
(-1.28969 -3.29425e-05 0)
(-1.28969 -3.29482e-05 0)
(-1.28969 -3.29436e-05 0)
(-1.28969 -3.29489e-05 0)
(-1.28969 -3.29445e-05 0)
(-1.28969 -3.29494e-05 0)
(-1.28969 -3.29455e-05 0)
(-1.28969 -3.29499e-05 0)
(-1.28969 -3.29462e-05 0)
(-1.28969 -3.295e-05 0)
(-1.28969 -3.29466e-05 0)
(-1.28969 -3.29498e-05 0)
(-1.28969 -3.29463e-05 0)
(-1.28969 -3.29493e-05 0)
(-1.28969 -3.29465e-05 0)
(-1.28969 -3.2949e-05 0)
(-1.28969 -3.29461e-05 0)
(-1.28969 -3.29479e-05 0)
(-1.28969 -3.29451e-05 0)
(-1.28969 -3.29462e-05 0)
(-1.28969 -3.29429e-05 0)
(-1.28969 -3.29433e-05 0)
(-1.28969 -3.29404e-05 0)
(-1.28969 -3.29406e-05 0)
(-1.28969 -3.29375e-05 0)
(-1.28969 -3.29388e-05 0)
(-1.28969 -3.29657e-05 0)
(-1.2897 -3.36312e-05 0)
(-1.28985 -6.17456e-05 0)
)
;

boundaryField
{
    inandouthalf11
    {
        type            cyclic;
    }
    inandouthalf12
    {
        type            cyclic;
    }
    inandouthalf21
    {
        type            cyclic;
    }
    inandouthalf22
    {
        type            cyclic;
    }
    inandouthalf31
    {
        type            cyclic;
    }
    inandouthalf32
    {
        type            cyclic;
    }
    inandouthalf41
    {
        type            cyclic;
    }
    inandouthalf42
    {
        type            cyclic;
    }
    top
    {
        type            symmetryPlane;
    }
    walls
    {
        type            calculated;
        value           uniform (0 0 0);
    }
    frontAndBackPlanes
    {
        type            empty;
    }
}


// ************************************************************************* //
