/*--------------------------------*- C++ -*----------------------------------*\
| =========                 |                                                 |
| \\      /  F ield         | OpenFOAM: The Open Source CFD Toolbox           |
|  \\    /   O peration     | Version:  2.4.x                                 |
|   \\  /    A nd           | Web:      www.OpenFOAM.org                      |
|    \\/     M anipulation  |                                                 |
\*---------------------------------------------------------------------------*/
FoamFile
{
    version     2.0;
    format      ascii;
    class       volScalarField;
    location    "3";
    object      ddt0(((1.5*(alpha+1e-08))*rho),Theta);
}
// * * * * * * * * * * * * * * * * * * * * * * * * * * * * * * * * * * * * * //

dimensions      [1 -1 -3 0 0 0 0];

internalField   nonuniform List<scalar> 
360
(
3.13641e-19
1.90285e-18
2.22938e-18
1.38265e-18
7.15982e-19
1.784e-19
-5.33718e-19
-1.74465e-18
-3.65348e-18
-6.07196e-18
-8.01622e-18
-7.33843e-18
-2.33427e-18
3.95821e-18
5.76038e-18
3.42829e-18
1.17251e-18
2.79043e-19
5.72272e-20
1.22152e-20
2.79817e-21
3.26114e-22
-6.8646e-22
-1.37071e-21
-1.91242e-21
-2.23941e-21
-2.27392e-21
-2.05628e-21
-1.72578e-21
-1.42575e-21
-1.23395e-21
-1.15715e-21
-1.16619e-21
-1.22636e-21
-1.30861e-21
-1.39423e-21
-1.47392e-21
-1.54374e-21
-1.60085e-21
-1.64546e-21
-1.68308e-21
-1.7175e-21
-1.7535e-21
-1.79708e-21
-1.84936e-21
-1.91074e-21
-1.98188e-21
-2.06525e-21
-2.16733e-21
-2.28902e-21
-2.42634e-21
-2.58e-21
-2.75294e-21
-2.94743e-21
-3.16763e-21
-3.41701e-21
-3.69523e-21
-4.00068e-21
-4.32688e-21
-4.66692e-21
-5.01282e-21
-5.34757e-21
-5.65579e-21
-5.92908e-21
-6.1718e-21
-6.4064e-21
-6.66658e-21
-6.98714e-21
-7.39955e-21
-7.93784e-21
-8.63011e-21
-9.47318e-21
-1.0441e-20
-1.15005e-20
-1.2596e-20
-1.36511e-20
-1.45958e-20
-1.53986e-20
-1.60717e-20
-1.66517e-20
-1.71954e-20
-1.77705e-20
-1.84308e-20
-1.92033e-20
-2.00894e-20
-2.1065e-20
-2.20854e-20
-2.30949e-20
-2.40445e-20
-2.49029e-20
-2.5658e-20
-2.63177e-20
-2.69051e-20
-2.74463e-20
-2.79631e-20
-2.84701e-20
-2.89743e-20
-2.94761e-20
-2.99736e-20
-3.04383e-20
0
0
0
0
0
0
0
0
0
0
0
0
0
0
0
-3.3972e-20
-3.33944e-20
-3.26916e-20
-3.18904e-20
-3.10282e-20
-3.01515e-20
-2.93148e-20
-2.85814e-20
-2.80291e-20
-2.7762e-20
-2.79306e-20
-2.87587e-20
-3.05693e-20
-3.28589e-20
1.57634e-16
7.64201e-16
2.86388e-15
7.34093e-15
-1.74471e-15
-1.77464e-13
-1.44073e-12
-8.12017e-12
-3.6892e-11
-1.41047e-10
-4.62277e-10
-1.31147e-09
-3.2801e-09
-8.19438e-09
-2.63233e-08
-1.28226e-07
-1.02479e-06
-1.27415e-05
-3.78134e-05
0.0172601
0.368857
0.45548
0.0814864
-0.105813
-0.15377
-0.169186
-0.173397
-0.171961
-0.167446
-0.161101
-0.153608
-0.145418
-0.13684
-0.128094
-0.119341
-0.1107
-0.102261
-0.0940883
-0.0862322
-0.0787261
-0.0715946
-0.0648521
-0.0585072
-0.0525623
-0.0470159
-0.0418643
-0.0371037
-0.0327308
-0.0287432
-0.0251365
-0.0219053
-0.0190349
-0.0165057
-0.0142908
-0.0123585
-0.0106745
-0.00920405
-0.00791269
-0.00676684
-0.00573411
-0.00478526
-0.00389951
-0.00307322
-0.00232671
-0.00169578
-0.0012078
-0.000861645
-0.000629828
-0.000476577
-0.000372415
-0.00029817
-0.000243271
-0.000201361
-0.000167812
-0.000139681
-0.000116927
-9.91294e-05
-8.36592e-05
-7.00298e-05
-5.93426e-05
-5.05524e-05
-4.25952e-05
-3.59651e-05
-3.05266e-05
-2.56821e-05
-2.16302e-05
-1.83341e-05
-1.52856e-05
-1.27305e-05
-1.07534e-05
-8.96047e-06
-7.4009e-06
-6.14582e-06
-5.06617e-06
-4.18199e-06
-3.43795e-06
-2.77174e-06
-2.25432e-06
-1.82862e-06
-1.45135e-06
-1.1627e-06
-9.19002e-07
-7.20699e-07
-5.60997e-07
-4.34687e-07
-3.32107e-07
-2.49176e-07
-1.84812e-07
-1.34063e-07
-9.15208e-08
-6.5084e-08
-5.15297e-08
0
0
0
0
0
0
0
0
0
0
0
0
0
0
0
0
0
0
0
0
0
0
0
0
0
0
0
0
0
0
0
0
0
0
0
0
0
0
0
0
0
0
0
0
0
0
0
0
0
0
0
0
0
0
0
0
0
0
0
0
0
0
0
0
0
0
0
0
0
0
0
0
0
0
0
0
0
0
0
0
0
0
0
0
0
0
0
0
0
0
0
0
0
0
0
0
0
0
0
0
0
0
0
0
0
0
0
0
0
0
0
0
0
0
0
0
0
0
0
)
;

boundaryField
{
    inandouthalf11
    {
        type            cyclic;
    }
    inandouthalf12
    {
        type            cyclic;
    }
    inandouthalf21
    {
        type            cyclic;
    }
    inandouthalf22
    {
        type            cyclic;
    }
    inandouthalf31
    {
        type            cyclic;
    }
    inandouthalf32
    {
        type            cyclic;
    }
    inandouthalf41
    {
        type            cyclic;
    }
    inandouthalf42
    {
        type            cyclic;
    }
    top
    {
        type            symmetryPlane;
    }
    walls
    {
        type            calculated;
        value           uniform 3.13641e-19;
    }
    frontAndBackPlanes
    {
        type            empty;
    }
}


// ************************************************************************* //
