/*--------------------------------*- C++ -*----------------------------------*\
| =========                 |                                                 |
| \\      /  F ield         | OpenFOAM: The Open Source CFD Toolbox           |
|  \\    /   O peration     | Version:  2.4.x                                 |
|   \\  /    A nd           | Web:      www.OpenFOAM.org                      |
|    \\/     M anipulation  |                                                 |
\*---------------------------------------------------------------------------*/
FoamFile
{
    version     2.0;
    format      ascii;
    class       volScalarField;
    location    "3";
    object      ddt0(k);
}
// * * * * * * * * * * * * * * * * * * * * * * * * * * * * * * * * * * * * * //

dimensions      [0 2 -3 0 0 0 0];

internalField   nonuniform List<scalar> 
360
(
0
0
0
0
0
0
0
0
0
0
0
0
0
0
0
0
0
0
0
0
0
0
0
0
0
0
0
0
0
0
0
0
0
0
0
0
0
0
0
0
0
0
0
0
0
0
0
0
0
0
0
0
0
0
0
0
0
0
0
0
0
0
0
0
0
0
0
0
0
0
0
0
0
0
0
0
0
0
0
0
0
0
0
0
0
0
0
0
0
0
0
0
0
0
0
0
0
0
0
0
0
0
0
0
0
0
0
0
0
0
0
0
0
0
0
0
0
0
0
0
0
0
0
0
0
0
0
0
0
9.84742e-20
4.77163e-19
1.78707e-18
4.57238e-18
-1.169e-18
-1.11273e-16
-9.01953e-16
-5.08087e-15
-2.30779e-14
-8.82237e-14
-2.8916e-13
-8.20463e-13
-2.05262e-12
-5.13142e-12
-1.65055e-11
-8.05807e-11
-6.45207e-10
-8.07871e-09
-1.14408e-07
-1.30398e-06
5.57493e-06
0.00194815
0.000756468
-0.00186074
-0.00370674
-0.00512653
-0.00626552
-0.00718514
-0.0079267
-0.00852128
-0.00899308
-0.00936115
-0.0096406
-0.00984352
-0.0099797
-0.010057
-0.0100819
-0.0100597
-0.00999467
-0.00989042
-0.00974992
-0.00957565
-0.00936965
-0.00913367
-0.00886916
-0.00857737
-0.00825935
-0.00791601
-0.00754814
-0.00715635
-0.00674123
-0.00630326
-0.00584286
-0.00536047
-0.00485656
-0.00433163
-0.00378624
-0.00322105
-0.00263676
-0.00203422
-0.00141438
-0.000778372
-0.000127433
0.000537075
0.00121368
0.00190073
0.00259623
0.00329776
0.00400237
0.00470663
0.00540645
0.00609703
0.00677953
0.0074529
0.00810657
0.00872633
0.00929277
0.00977883
0.0101457
0.0103342
0.0102427
0.00966923
0.00842838
0.00325544
0.000193196
3.07367e-06
4.1923e-08
5.44199e-10
6.73502e-12
7.9454e-14
8.93358e-16
9.56449e-18
8.79862e-20
0
0
0
0
0
0
0
0
0
0
0
0
0
0
0
0
0
0
0
0
0
0
0
0
0
0
0
0
0
0
0
0
0
0
0
0
0
0
0
0
0
0
0
0
0
0
0
0
0
0
0
0
0
0
0
0
0
0
0
0
0
0
0
0
0
0
0
0
0
0
0
0
0
0
0
0
0
0
0
0
0
0
0
0
0
0
0
0
0
0
0
0
0
0
0
0
0
0
0
0
0
0
0
0
0
0
0
0
0
0
0
0
0
0
0
0
0
0
0
0
0
0
0
0
0
0
0
0
0
0
0
0
0
0
0
0
0
0
)
;

boundaryField
{
    inandouthalf11
    {
        type            cyclic;
    }
    inandouthalf12
    {
        type            cyclic;
    }
    inandouthalf21
    {
        type            cyclic;
    }
    inandouthalf22
    {
        type            cyclic;
    }
    inandouthalf31
    {
        type            cyclic;
    }
    inandouthalf32
    {
        type            cyclic;
    }
    inandouthalf41
    {
        type            cyclic;
    }
    inandouthalf42
    {
        type            cyclic;
    }
    top
    {
        type            symmetryPlane;
    }
    walls
    {
        type            calculated;
        value           uniform 0;
    }
    frontAndBackPlanes
    {
        type            empty;
    }
}


// ************************************************************************* //
