/*--------------------------------*- C++ -*----------------------------------*\
| =========                 |                                                 |
| \\      /  F ield         | OpenFOAM: The Open Source CFD Toolbox           |
|  \\    /   O peration     | Version:  2.4.x                                 |
|   \\  /    A nd           | Web:      www.OpenFOAM.org                      |
|    \\/     M anipulation  |                                                 |
\*---------------------------------------------------------------------------*/
FoamFile
{
    version     2.0;
    format      ascii;
    class       volVectorField;
    location    "3";
    object      ddt0(Ub);
}
// * * * * * * * * * * * * * * * * * * * * * * * * * * * * * * * * * * * * * //

dimensions      [0 1 -2 0 0 0 0];

internalField   nonuniform List<vector> 
360
(
(6.25473e-05 5.25817e-07 0)
(6.29822e-05 2.39106e-06 0)
(6.27203e-05 4.92854e-06 0)
(6.22817e-05 6.94807e-06 0)
(6.19466e-05 8.22909e-06 0)
(6.1817e-05 8.8074e-06 0)
(6.19172e-05 8.60438e-06 0)
(6.22542e-05 7.35164e-06 0)
(6.2835e-05 4.7367e-06 0)
(6.36596e-05 6.43166e-07 0)
(6.46495e-05 -4.55204e-06 0)
(6.55612e-05 -9.66977e-06 0)
(6.59702e-05 -1.2779e-05 0)
(6.54784e-05 -1.21443e-05 0)
(6.41589e-05 -7.82211e-06 0)
(6.26278e-05 -2.01146e-06 0)
(6.14795e-05 2.81961e-06 0)
(6.08464e-05 5.73046e-06 0)
(6.05597e-05 7.13037e-06 0)
(6.04426e-05 7.71725e-06 0)
(6.03971e-05 7.94124e-06 0)
(6.03839e-05 8.00775e-06 0)
(6.03869e-05 7.99819e-06 0)
(6.03997e-05 7.94562e-06 0)
(6.04187e-05 7.8677e-06 0)
(6.04404e-05 7.77835e-06 0)
(6.04616e-05 7.68965e-06 0)
(6.04805e-05 7.61018e-06 0)
(6.04957e-05 7.54351e-06 0)
(6.05074e-05 7.4888e-06 0)
(6.05168e-05 7.44243e-06 0)
(6.05257e-05 7.40014e-06 0)
(6.0534e-05 7.35826e-06 0)
(6.05441e-05 7.31455e-06 0)
(6.05548e-05 7.26771e-06 0)
(6.05669e-05 7.21761e-06 0)
(6.05801e-05 7.16448e-06 0)
(6.05945e-05 7.10891e-06 0)
(6.06101e-05 7.05153e-06 0)
(6.06255e-05 6.99283e-06 0)
(6.06422e-05 6.93334e-06 0)
(6.06591e-05 6.87314e-06 0)
(6.06761e-05 6.81231e-06 0)
(6.06944e-05 6.75078e-06 0)
(6.0713e-05 6.68827e-06 0)
(6.07325e-05 6.62463e-06 0)
(6.07529e-05 6.55963e-06 0)
(6.07737e-05 6.49303e-06 0)
(6.07962e-05 6.42461e-06 0)
(6.08203e-05 6.35405e-06 0)
(6.08451e-05 6.28107e-06 0)
(6.08716e-05 6.20555e-06 0)
(6.08993e-05 6.12724e-06 0)
(6.09289e-05 6.04596e-06 0)
(6.09597e-05 5.9614e-06 0)
(6.09928e-05 5.87336e-06 0)
(6.10272e-05 5.78146e-06 0)
(6.10639e-05 5.68556e-06 0)
(6.11023e-05 5.58544e-06 0)
(6.11421e-05 5.48105e-06 0)
(6.11842e-05 5.37244e-06 0)
(6.12272e-05 5.25973e-06 0)
(6.12719e-05 5.14331e-06 0)
(6.13172e-05 5.02357e-06 0)
(6.13636e-05 4.90095e-06 0)
(6.14108e-05 4.77567e-06 0)
(6.14595e-05 4.64768e-06 0)
(6.151e-05 4.51654e-06 0)
(6.15624e-05 4.38152e-06 0)
(6.16173e-05 4.24161e-06 0)
(6.16755e-05 4.09564e-06 0)
(6.1737e-05 3.94238e-06 0)
(6.18013e-05 3.78094e-06 0)
(6.18692e-05 3.61079e-06 0)
(6.19397e-05 3.43184e-06 0)
(6.20128e-05 3.24454e-06 0)
(6.20874e-05 3.04988e-06 0)
(6.21635e-05 2.84915e-06 0)
(6.22406e-05 2.64357e-06 0)
(6.23188e-05 2.4341e-06 0)
(6.2398e-05 2.22135e-06 0)
(6.24785e-05 2.00541e-06 0)
(6.25606e-05 1.78593e-06 0)
(6.26444e-05 1.5623e-06 0)
(6.27301e-05 1.33384e-06 0)
(6.28178e-05 1.09994e-06 0)
(6.29073e-05 8.60268e-07 0)
(6.29985e-05 6.14791e-07 0)
(6.30911e-05 3.63824e-07 0)
(6.31849e-05 1.07899e-07 0)
(6.32797e-05 -1.52324e-07 0)
(6.33755e-05 -4.16186e-07 0)
(6.3472e-05 -6.83128e-07 0)
(6.35694e-05 -9.52727e-07 0)
(6.36675e-05 -1.22471e-06 0)
(6.37663e-05 -1.49893e-06 0)
(6.38659e-05 -1.77528e-06 0)
(6.3966e-05 -2.0537e-06 0)
(6.40667e-05 -2.33415e-06 0)
(6.4168e-05 -2.61657e-06 0)
(6.42698e-05 -2.90093e-06 0)
(6.43721e-05 -3.18719e-06 0)
(6.44748e-05 -3.47534e-06 0)
(6.4578e-05 -3.76538e-06 0)
(6.46816e-05 -4.05732e-06 0)
(6.47857e-05 -4.35117e-06 0)
(6.48902e-05 -4.64693e-06 0)
(6.49952e-05 -4.94454e-06 0)
(6.51006e-05 -5.24392e-06 0)
(6.52063e-05 -5.54491e-06 0)
(6.53124e-05 -5.84723e-06 0)
(6.54188e-05 -6.15051e-06 0)
(6.55253e-05 -6.45423e-06 0)
(6.56317e-05 -6.75771e-06 0)
(6.5738e-05 -7.06008e-06 0)
(6.58439e-05 -7.36035e-06 0)
(6.5949e-05 -7.65733e-06 0)
(6.60531e-05 -7.94976e-06 0)
(6.61557e-05 -8.23632e-06 0)
(6.62565e-05 -8.51571e-06 0)
(6.63551e-05 -8.78674e-06 0)
(6.64509e-05 -9.04846e-06 0)
(6.65437e-05 -9.30021e-06 0)
(6.66328e-05 -9.54182e-06 0)
(6.67179e-05 -9.77379e-06 0)
(6.67986e-05 -9.99752e-06 0)
(6.68747e-05 -1.02156e-05 0)
(6.6946e-05 -1.04321e-05 0)
(6.70126e-05 -1.06529e-05 0)
(6.7074e-05 -1.08853e-05 0)
(6.71296e-05 -1.11381e-05 0)
(6.71788e-05 -1.14202e-05 0)
(6.72209e-05 -1.17397e-05 0)
(6.7256e-05 -1.21023e-05 0)
(6.72828e-05 -1.25091e-05 0)
(6.72961e-05 -1.29533e-05 0)
(6.72902e-05 -1.34188e-05 0)
(6.72676e-05 -1.38849e-05 0)
(6.7241e-05 -1.43319e-05 0)
(6.72242e-05 -1.47393e-05 0)
(6.72201e-05 -1.50762e-05 0)
(6.72279e-05 -1.53034e-05 0)
(6.73276e-05 -1.54197e-05 0)
(6.75441e-05 -1.54528e-05 0)
(6.78451e-05 -1.54336e-05 0)
(6.80327e-05 -1.54791e-05 0)
(8.15376e-05 -5.0972e-06 0)
(4.95433e-05 -8.45852e-06 0)
(-0.000149996 0.000336749 0)
(-0.00608771 -0.00125313 0)
(-0.353626 -0.0127197 0)
(-0.656182 0.0013231 0)
(-0.766273 -0.00362967 0)
(-0.826327 -0.00106231 0)
(-0.869793 -0.00140258 0)
(-0.905392 -0.00122367 0)
(-0.936213 -0.00104314 0)
(-0.963706 -0.000899217 0)
(-0.988676 -0.000781409 0)
(-1.01163 -0.000679454 0)
(-1.03293 -0.000589892 0)
(-1.05282 -0.000511203 0)
(-1.07152 -0.000442062 0)
(-1.08918 -0.000381244 0)
(-1.10594 -0.000327707 0)
(-1.12189 -0.000280578 0)
(-1.13713 -0.000239117 0)
(-1.15174 -0.000202687 0)
(-1.16577 -0.000170735 0)
(-1.17928 -0.000142775 0)
(-1.19233 -0.000118384 0)
(-1.20494 -9.71852e-05 0)
(-1.21716 -7.88462e-05 0)
(-1.22902 -6.30716e-05 0)
(-1.24054 -4.9599e-05 0)
(-1.25176 -3.81935e-05 0)
(-1.26268 -2.86396e-05 0)
(-1.27333 -2.07309e-05 0)
(-1.28372 -1.42603e-05 0)
(-1.29387 -9.01648e-06 0)
(-1.30379 -4.79065e-06 0)
(-1.31349 -1.39002e-06 0)
(-1.32297 1.34766e-06 0)
(-1.33225 3.54591e-06 0)
(-1.34132 5.29041e-06 0)
(-1.3502 6.63614e-06 0)
(-1.35889 7.61377e-06 0)
(-1.36738 8.23116e-06 0)
(-1.37569 8.4721e-06 0)
(-1.3838 8.30195e-06 0)
(-1.3917 7.69528e-06 0)
(-1.39941 6.68829e-06 0)
(-1.40689 5.42244e-06 0)
(-1.41413 4.11966e-06 0)
(-1.42112 2.98811e-06 0)
(-1.42784 2.14008e-06 0)
(-1.43426 1.56895e-06 0)
(-1.44035 1.19534e-06 0)
(-1.44609 9.4138e-07 0)
(-1.45143 7.59436e-07 0)
(-1.45634 6.24118e-07 0)
(-1.46081 5.19631e-07 0)
(-1.46478 4.3564e-07 0)
(-1.46814 3.66307e-07 0)
(-1.47073 3.09581e-07 0)
(-1.47231 2.63542e-07 0)
(-1.4726 2.24611e-07 0)
(-1.47115 1.91033e-07 0)
(-1.46731 1.63257e-07 0)
(-1.45989 1.40064e-07 0)
(-1.4465 1.18149e-07 0)
(-1.42573 1.09197e-07 0)
(-1.34567 8.09624e-08 0)
(-1.29283 8.41772e-08 0)
(-1.28883 5.79069e-08 0)
(-1.28872 6.39245e-08 0)
(-1.28869 4.06223e-08 0)
(-1.28867 4.92474e-08 0)
(-1.28866 2.69837e-08 0)
(-1.28864 3.9595e-08 0)
(-1.28863 1.62939e-08 0)
(-1.28862 3.22006e-08 0)
(-1.28861 8.52871e-09 0)
(-1.2886 2.6913e-08 0)
(-1.2886 2.85192e-09 0)
(-1.28859 2.293e-08 0)
(-1.28859 -1.49514e-09 0)
(-1.28858 2.02637e-08 0)
(-1.28858 -4.71039e-09 0)
(-1.28858 1.83773e-08 0)
(-1.28857 -7.09558e-09 0)
(-1.28857 1.72307e-08 0)
(-1.28857 -9.00959e-09 0)
(-1.28857 1.66996e-08 0)
(-1.28857 -1.05911e-08 0)
(-1.28857 1.66087e-08 0)
(-1.28857 -1.2001e-08 0)
(-1.28857 1.69008e-08 0)
(-1.28857 -1.33561e-08 0)
(-1.28857 1.76677e-08 0)
(-1.28857 -1.37543e-08 0)
(-1.28856 1.81538e-08 0)
(-1.28856 -2.03287e-08 0)
(-1.28856 2.3672e-08 0)
(-1.28856 -2.16938e-08 0)
(-1.28856 2.50723e-08 0)
(-1.28856 -2.32243e-08 0)
(-1.28856 2.6513e-08 0)
(-1.28856 -2.47252e-08 0)
(-1.28856 2.79718e-08 0)
(-1.28856 -2.62304e-08 0)
(-1.28856 2.94145e-08 0)
(-1.28856 -2.7732e-08 0)
(-1.28856 3.08365e-08 0)
(-1.28856 -2.92245e-08 0)
(-1.28856 3.22336e-08 0)
(-1.28856 -3.07051e-08 0)
(-1.28856 3.35975e-08 0)
(-1.28856 -3.21689e-08 0)
(-1.28856 3.4929e-08 0)
(-1.28856 -3.36076e-08 0)
(-1.28856 3.62263e-08 0)
(-1.28856 -3.50088e-08 0)
(-1.28856 3.74961e-08 0)
(-1.28856 -3.63542e-08 0)
(-1.28856 3.87464e-08 0)
(-1.28856 -3.76249e-08 0)
(-1.28856 3.99599e-08 0)
(-1.28856 -3.88246e-08 0)
(-1.28856 4.11178e-08 0)
(-1.28856 -3.99547e-08 0)
(-1.28856 4.22011e-08 0)
(-1.28856 -4.10067e-08 0)
(-1.28856 4.32001e-08 0)
(-1.28856 -4.19642e-08 0)
(-1.28856 4.40888e-08 0)
(-1.28856 -4.28239e-08 0)
(-1.28856 4.48383e-08 0)
(-1.28856 -4.35674e-08 0)
(-1.28856 4.54297e-08 0)
(-1.28856 -4.41581e-08 0)
(-1.28856 4.58471e-08 0)
(-1.28856 -4.45448e-08 0)
(-1.28856 4.60364e-08 0)
(-1.28856 -4.46884e-08 0)
(-1.28856 4.59096e-08 0)
(-1.28856 -4.44919e-08 0)
(-1.28856 4.53305e-08 0)
(-1.28856 -4.3781e-08 0)
(-1.28856 4.40856e-08 0)
(-1.28856 -4.22643e-08 0)
(-1.28856 4.18586e-08 0)
(-1.28856 -3.96911e-08 0)
(-1.28856 3.33204e-08 0)
(-1.28856 -3.17386e-08 0)
(-1.28856 3.13461e-08 0)
(-1.28856 -3.04967e-08 0)
(-1.28856 3.03061e-08 0)
(-1.28856 -2.98197e-08 0)
(-1.28856 2.97044e-08 0)
(-1.28856 -2.94202e-08 0)
(-1.28856 2.93032e-08 0)
(-1.28856 -2.91675e-08 0)
(-1.28856 2.90042e-08 0)
(-1.28856 -2.90055e-08 0)
(-1.28856 2.87786e-08 0)
(-1.28856 -2.89056e-08 0)
(-1.28856 2.8597e-08 0)
(-1.28856 -2.88664e-08 0)
(-1.28856 2.84399e-08 0)
(-1.28856 -2.53349e-08 0)
(-1.28856 2.41863e-08 0)
(-1.28856 -2.42305e-08 0)
(-1.28856 2.29088e-08 0)
(-1.28856 -2.31532e-08 0)
(-1.28856 2.16361e-08 0)
(-1.28856 -2.20958e-08 0)
(-1.28856 2.0369e-08 0)
(-1.28856 -2.10534e-08 0)
(-1.28856 1.9115e-08 0)
(-1.28856 -2.00454e-08 0)
(-1.28856 1.7805e-08 0)
(-1.28856 -1.91097e-08 0)
(-1.28856 1.65142e-08 0)
(-1.28856 -1.81913e-08 0)
(-1.28856 1.51739e-08 0)
(-1.28856 -1.73696e-08 0)
(-1.28856 1.37612e-08 0)
(-1.28856 -1.72113e-08 0)
(-1.28856 1.07045e-08 0)
(-1.28856 -1.86635e-08 0)
(-1.28856 7.22955e-09 0)
(-1.28856 -2.00057e-08 0)
(-1.28856 3.87313e-09 0)
(-1.28856 -2.1118e-08 0)
(-1.28856 1.12483e-09 0)
(-1.28856 -2.19092e-08 0)
(-1.28856 -1.92362e-09 0)
(-1.28856 -2.28626e-08 0)
(-1.28856 -4.0456e-09 0)
(-1.28856 -2.26436e-08 0)
(-1.28856 -5.33735e-09 0)
(-1.28856 -2.15196e-08 0)
(-1.28856 -5.05569e-09 0)
(-1.28856 -1.96619e-08 0)
(-1.28856 -5.78965e-09 0)
(-1.28856 -1.86494e-08 0)
(-1.28856 -4.99592e-09 0)
(-1.28856 -1.52833e-08 0)
(-1.28856 -2.4632e-09 0)
(-1.28856 -1.02737e-08 0)
(-1.28856 2.99246e-09 0)
(-1.28856 -2.455e-09 0)
(-1.28856 9.27831e-09 0)
(-1.28856 4.97692e-09 0)
(-1.28856 1.67559e-08 0)
(-1.28856 1.33573e-08 0)
(-1.28856 2.49196e-08 0)
(-1.28856 2.78995e-08 0)
(-1.28856 2.1437e-08 0)
)
;

boundaryField
{
    inandouthalf11
    {
        type            cyclic;
    }
    inandouthalf12
    {
        type            cyclic;
    }
    inandouthalf21
    {
        type            cyclic;
    }
    inandouthalf22
    {
        type            cyclic;
    }
    inandouthalf31
    {
        type            cyclic;
    }
    inandouthalf32
    {
        type            cyclic;
    }
    inandouthalf41
    {
        type            cyclic;
    }
    inandouthalf42
    {
        type            cyclic;
    }
    top
    {
        type            symmetryPlane;
    }
    walls
    {
        type            calculated;
        value           uniform (0 0 0);
    }
    frontAndBackPlanes
    {
        type            empty;
    }
}


// ************************************************************************* //
