/*--------------------------------*- C++ -*----------------------------------*\
| =========                 |                                                 |
| \\      /  F ield         | OpenFOAM: The Open Source CFD Toolbox           |
|  \\    /   O peration     | Version:  2.4.x                                 |
|   \\  /    A nd           | Web:      www.OpenFOAM.org                      |
|    \\/     M anipulation  |                                                 |
\*---------------------------------------------------------------------------*/
FoamFile
{
    version     2.0;
    format      ascii;
    class       volScalarField;
    location    "3";
    object      ddt0(alpha);
}
// * * * * * * * * * * * * * * * * * * * * * * * * * * * * * * * * * * * * * //

dimensions      [0 0 -1 0 0 0 0];

internalField   nonuniform List<scalar> 
360
(
0.000202049
0.000527028
0.000637491
0.000602486
0.000551494
0.000541492
0.000579625
0.000655508
0.000754164
0.000866719
0.000981437
0.00106778
0.00107164
0.000941685
0.00069461
0.000423474
0.00021878
0.000102905
4.90629e-05
2.65176e-05
1.73578e-05
1.39571e-05
1.32679e-05
1.40205e-05
1.55206e-05
1.72433e-05
1.87559e-05
1.98201e-05
2.03418e-05
2.03915e-05
2.01214e-05
1.97518e-05
1.93506e-05
1.90735e-05
1.88898e-05
1.88283e-05
1.88572e-05
1.89617e-05
1.91393e-05
1.92915e-05
1.94685e-05
1.96501e-05
1.98042e-05
1.99991e-05
2.02043e-05
2.04269e-05
2.06921e-05
2.09752e-05
2.13253e-05
2.17828e-05
2.22722e-05
2.2829e-05
2.34331e-05
2.41204e-05
2.48507e-05
2.56907e-05
2.65689e-05
2.75174e-05
2.84982e-05
2.94521e-05
3.04234e-05
3.12989e-05
3.20963e-05
3.27613e-05
3.33324e-05
3.3849e-05
3.44092e-05
3.5089e-05
3.59585e-05
3.70503e-05
3.84319e-05
4.00792e-05
4.18586e-05
4.37579e-05
4.56276e-05
4.74005e-05
4.89442e-05
5.02544e-05
5.13614e-05
5.23348e-05
5.324e-05
5.41806e-05
5.52195e-05
5.6379e-05
5.76548e-05
5.89999e-05
6.03621e-05
6.16685e-05
6.28702e-05
6.39443e-05
6.48885e-05
6.57204e-05
6.64766e-05
6.71888e-05
6.78825e-05
6.8573e-05
6.92656e-05
6.99579e-05
7.0644e-05
7.13187e-05
7.19763e-05
7.26129e-05
7.32245e-05
7.38056e-05
7.43487e-05
7.48442e-05
7.52813e-05
7.56484e-05
7.59344e-05
7.61297e-05
7.62267e-05
7.62221e-05
7.61179e-05
7.59237e-05
7.5659e-05
7.53557e-05
7.50594e-05
7.48317e-05
7.47508e-05
7.49114e-05
7.54241e-05
7.6414e-05
7.80205e-05
8.03959e-05
8.37066e-05
8.81308e-05
9.38477e-05
0.000101006
0.000109658
0.000119671
0.000130653
0.000141983
0.000152963
0.000162855
0.000170489
0.000173758
0.000170431
0.000159816
0.000142206
0.000116388
8.07833e-05
3.98306e-05
8.77612e-06
-9.38044e-06
-2.18998e-05
-0.00016363
0.00429447
0.00691977
0.0108741
0.41785
0.16736
-0.00706016
-0.0464282
-0.0512803
-0.0497907
-0.0457889
-0.0417023
-0.0379445
-0.0345227
-0.0314172
-0.0285983
-0.0260336
-0.0236944
-0.0215557
-0.0195965
-0.0177987
-0.0161467
-0.0146273
-0.0132287
-0.0119407
-0.0107541
-0.00966066
-0.00865282
-0.0077236
-0.00686679
-0.0060774
-0.00535225
-0.00469021
-0.00409171
-0.00355744
-0.00308677
-0.00267674
-0.00232196
-0.00201525
-0.00174867
-0.0015144
-0.00130491
-0.00111274
-0.00093028
-0.000750799
-0.000571721
-0.00039921
-0.000249112
-0.000137499
-6.81919e-05
-3.16711e-05
-1.44947e-05
-6.80521e-06
-3.35274e-06
-1.74004e-06
-9.48464e-07
-5.71562e-07
-4.30437e-07
-3.54944e-07
-2.69745e-07
-2.669e-07
-3.39028e-07
-3.37453e-07
-2.96024e-07
-3.30983e-07
-3.65939e-07
-3.46704e-07
-3.50797e-07
-3.57921e-07
-3.24013e-07
-3.18837e-07
-3.22743e-07
-2.74222e-07
-2.45022e-07
-2.46257e-07
-2.22288e-07
-1.96461e-07
-1.77599e-07
-1.56692e-07
-1.49347e-07
-1.34869e-07
-1.11938e-07
-1.04303e-07
-9.30586e-08
-7.85495e-08
-7.0907e-08
-6.17291e-08
-5.27056e-08
-4.54051e-08
-4.03175e-08
-3.46908e-08
-2.90951e-08
-2.90366e-08
-2.3471e-08
1.39594e-08
7.67481e-08
-1.75405e-07
-2.65353e-12
-1.09564e-12
-8.50438e-13
-6.84425e-13
-6.36922e-13
-6.60215e-13
-7.15841e-13
-4.23061e-13
-2.41596e-13
-1.2793e-13
-1.03699e-13
-1.48109e-13
-2.04573e-13
-1.06078e-13
-4.64948e-14
-2.73743e-14
-3.10234e-14
-4.5937e-14
-3.72415e-14
-1.41151e-14
-7.79419e-15
-7.75475e-15
-1.14646e-14
-7.43837e-15
-2.99796e-15
-1.74458e-15
-1.89702e-15
-2.40626e-15
-1.04165e-15
-5.14313e-16
-3.5286e-16
-4.39931e-16
-3.18634e-16
-1.44118e-16
-1.01661e-16
-1.25197e-16
-6.20692e-17
-2.96362e-17
-1.72512e-17
-6.82192e-18
-2.60599e-18
-1.14359e-18
-5.15962e-19
-2.31942e-19
-1.02902e-19
-4.47197e-20
-1.89252e-20
-7.7619e-21
-3.07213e-21
-1.16894e-21
-4.26014e-22
-1.48166e-22
-4.89915e-23
-1.53388e-23
-4.52729e-24
-1.2534e-24
-3.23634e-25
-7.74151e-26
-1.70199e-26
-3.40621e-27
-6.13203e-28
-9.78062e-29
-1.35471e-29
-1.58467e-30
-1.50186e-31
-1.07668e-32
-5.09036e-34
-1.02279e-35
-6.53154e-38
-1.44233e-39
-1.57768e-41
-2.12731e-52
-1.44055e-63
-7.23279e-75
-2.65465e-86
-8.68473e-98
-2.68276e-109
-1.31972e-120
-1.76507e-128
-3.63468e-139
-6.07371e-147
-1.22431e-157
-2.08931e-165
-5.25163e-176
-7.18516e-184
-2.39155e-194
-2.47268e-202
-1.62614e-212
-8.56982e-221
-1.08192e-230
-3.00419e-239
-5.51193e-249
-1.06524e-257
-2.62035e-267
-3.82681e-276
-1.16008e-285
-1.39166e-294
-4.97685e-304
-5.12649e-313
-1.61609e-320
0
0
0
0
0
0
0
0
0
0
0
0
0
0
0
0
0
0
)
;

boundaryField
{
    inandouthalf11
    {
        type            cyclic;
    }
    inandouthalf12
    {
        type            cyclic;
    }
    inandouthalf21
    {
        type            cyclic;
    }
    inandouthalf22
    {
        type            cyclic;
    }
    inandouthalf31
    {
        type            cyclic;
    }
    inandouthalf32
    {
        type            cyclic;
    }
    inandouthalf41
    {
        type            cyclic;
    }
    inandouthalf42
    {
        type            cyclic;
    }
    top
    {
        type            symmetryPlane;
    }
    walls
    {
        type            calculated;
        value           uniform 0.000202049;
    }
    frontAndBackPlanes
    {
        type            empty;
    }
}


// ************************************************************************* //
