/*--------------------------------*- C++ -*----------------------------------*\
| =========                 |                                                 |
| \\      /  F ield         | OpenFOAM: The Open Source CFD Toolbox           |
|  \\    /   O peration     | Version:  2.4.x                                 |
|   \\  /    A nd           | Web:      www.OpenFOAM.org                      |
|    \\/     M anipulation  |                                                 |
\*---------------------------------------------------------------------------*/
FoamFile
{
    version     2.0;
    format      ascii;
    class       volVectorField;
    location    "3";
    object      gradPs;
}
// * * * * * * * * * * * * * * * * * * * * * * * * * * * * * * * * * * * * * //

dimensions      [0 1 -2 0 0 0 0];

internalField   nonuniform List<vector> 
360
(
(0 2.76318e-18 0)
(0 4.38873e-18 0)
(0 1.10818e-18 0)
(0 -1.11509e-18 0)
(-1.45323e-32 -7.40373e-19 0)
(-1.45329e-32 2.08116e-19 0)
(-1.45339e-32 1.2095e-18 0)
(0 2.20736e-18 0)
(-2.90714e-32 3.153e-18 0)
(0 3.91631e-18 0)
(-1.45375e-32 3.87224e-18 0)
(0 1.72771e-18 0)
(-1.45397e-32 -2.85033e-18 0)
(0 -7.00462e-18 0)
(0 -7.2549e-18 0)
(0 -4.39104e-18 0)
(0 -1.70143e-18 0)
(-2.90858e-32 -4.65204e-19 0)
(0 -1.07362e-19 0)
(0 -2.66424e-20 0)
(0 -9.17804e-21 0)
(-1.45431e-32 -6.52479e-21 0)
(0 -5.24668e-21 0)
(0 -4.87385e-21 0)
(0 -4.86485e-21 0)
(-2.90865e-32 -5.05971e-21 0)
(0 -7.09756e-21 0)
(0 -9.22134e-21 0)
(0 -9.64524e-21 0)
(0 -9.96137e-21 0)
(0 -1.17612e-20 0)
(0 -1.16852e-20 0)
(0 -1.31947e-20 0)
(0 -1.46583e-20 0)
(0 -1.44363e-20 0)
(1.4544e-32 -1.58975e-20 0)
(0 -1.73645e-20 0)
(0 -2.0539e-20 0)
(0 -2.04064e-20 0)
(0 -2.20164e-20 0)
(0 -2.52715e-20 0)
(0 -2.51117e-20 0)
(1.45451e-32 -2.82535e-20 0)
(0 -3.13166e-20 0)
(0 -3.26802e-20 0)
(0 -3.56781e-20 0)
(0 -3.68721e-20 0)
(0 -3.95565e-20 0)
(0 -4.53821e-20 0)
(0 -4.78018e-20 0)
(1.45472e-32 -5.02011e-20 0)
(0 -5.41462e-20 0)
(0 -5.78284e-20 0)
(0 -6.1209e-20 0)
(0 -6.58409e-20 0)
(0 -7.00683e-20 0)
(0 -7.3865e-20 0)
(0 -7.87542e-20 0)
(0 -8.13955e-20 0)
(0 -8.63191e-20 0)
(0 -9.02119e-20 0)
(0 -9.29371e-20 0)
(0 -9.60423e-20 0)
(0 -9.79604e-20 0)
(0 -1.003e-19 0)
(0 -1.03143e-19 0)
(0 -1.06801e-19 0)
(0 -1.10227e-19 0)
(0 -1.13376e-19 0)
(0 -1.18071e-19 0)
(0 -1.2355e-19 0)
(0 -1.2632e-19 0)
(0 -1.29826e-19 0)
(0 -1.33969e-19 0)
(0 -1.37304e-19 0)
(0 -1.40205e-19 0)
(0 -1.42635e-19 0)
(0 -1.46171e-19 0)
(0 -1.49886e-19 0)
(0 -1.53352e-19 0)
(0 -1.57148e-19 0)
(0 -1.61455e-19 0)
(0 -1.65494e-19 0)
(0 -1.6947e-19 0)
(0 -1.73354e-19 0)
(0 -1.77188e-19 0)
(0 -1.8094e-19 0)
(0 -1.84602e-19 0)
(0 -1.88558e-19 0)
(0 -1.9272e-19 0)
(0 -1.96996e-19 0)
(0 -2.01532e-19 0)
(0 -2.06269e-19 0)
(0 -2.11055e-19 0)
(0 -2.15914e-19 0)
(0 -2.20842e-19 0)
(0 -2.25829e-19 0)
(0 -2.30906e-19 0)
(0 -2.37975e-19 0)
(0 -1.75082e-16 0)
(0 -1.74981e-16 0)
(0 0 0)
(0 0 0)
(0 0 0)
(0 0 0)
(0 0 0)
(0 0 0)
(0 0 0)
(0 0 0)
(0 0 0)
(0 0 0)
(0 0 0)
(0 0 0)
(0 0 0)
(0 1.7296e-16 0)
(0 1.72805e-16 0)
(0 -3.74451e-19 0)
(0 -3.85209e-19 0)
(0 -3.96247e-19 0)
(0 -4.07534e-19 0)
(0 -4.19026e-19 0)
(0 -4.30655e-19 0)
(0 -4.42321e-19 0)
(0 -4.53896e-19 0)
(0 -4.65257e-19 0)
(0 -4.76325e-19 0)
(0 -4.87109e-19 0)
(0 -4.96749e-19 0)
(0 1.57899e-16 0)
(0 1.54247e-15 0)
(0 9.13179e-15 0)
(0 4.75042e-14 0)
(0 2.28688e-13 0)
(0 1.01618e-12 0)
(0 4.13823e-12 0)
(0 1.52936e-11 0)
(0 5.07341e-11 0)
(0 1.49769e-10 0)
(0 3.91774e-10 0)
(0 9.04974e-10 0)
(0 1.873e-09 0)
(0 4.23587e-09 0)
(0 1.60268e-08 0)
(0 1.13992e-07 0)
(0 1.2947e-06 0)
(0 2.07264e-05 0)
(0 0.000583812 0)
(0 0.0294045 0)
(0 0.603425 0)
(0 0.113447 0)
(0 -2.19094 0)
(0 -1.04761 0)
(0 -0.625695 0)
(0 -0.374431 0)
(0 -0.237611 0)
(0 -0.190941 0)
(0 -0.18078 0)
(0 -0.185768 0)
(0 -0.201593 0)
(0 -0.225113 0)
(0 -0.253726 0)
(0 -0.285864 0)
(0 -0.320522 0)
(0 -0.356988 0)
(0 -0.394761 0)
(0 -0.433493 0)
(0 -0.47294 0)
(0 -0.512945 0)
(0 -0.553425 0)
(0 -0.59436 0)
(0 -0.635793 0)
(0 -0.677813 0)
(0 -0.720502 0)
(0 -0.763836 0)
(0 -0.807509 0)
(0 -0.85073 0)
(0 -0.892113 0)
(0 -0.929778 0)
(0 -0.961733 0)
(0 -0.986436 0)
(0 -1.00332 0)
(0 -1.01311 0)
(0 -1.01788 0)
(0 -1.02096 0)
(0 -1.02688 0)
(0 -1.04149 0)
(0 -1.07273 0)
(0 -1.13168 0)
(0 -1.23308 0)
(0 -1.39322 0)
(0 -1.62239 0)
(0 -1.90967 0)
(0 -2.20632 0)
(0 -2.42419 0)
(0 -2.46729 0)
(0 -2.30018 0)
(0 -1.9918 0)
(0 -1.661 0)
(0 -1.38587 0)
(0 -1.17593 0)
(0 -1.00731 0)
(0 -0.873713 0)
(-1.85419e-16 -0.782787 0)
(0 -0.703984 0)
(0 -0.60447 0)
(2.25891e-16 -0.527802 0)
(0 -0.491088 0)
(-2.49521e-16 -0.434775 0)
(0 -0.36406 0)
(0 -0.325585 0)
(0 -0.294792 0)
(0 -0.251505 0)
(0 -0.219479 0)
(0 -0.193984 0)
(0 -0.162667 0)
(0 -0.141958 0)
(0 -0.126854 0)
(0 -0.103251 0)
(0 -0.0859844 0)
(-1.86774e-17 -0.0766683 0)
(0 -0.0643688 0)
(-1.84664e-17 -0.0532034 0)
(0 -0.0445639 0)
(-9.06245e-18 -0.0366996 0)
(0 -0.0315585 0)
(0 -0.0262883 0)
(0 -0.0207093 0)
(0 -0.0174356 0)
(4.23796e-18 -0.0142958 0)
(0 -0.0112596 0)
(0 -0.009215 0)
(0 -0.00734211 0)
(0 -0.00575814 0)
(0 -0.00451318 0)
(0 -0.00357558 0)
(0 -0.00276296 0)
(0 -0.00208671 0)
(0 -0.0016253 0)
(0 -0.00112722 0)
(0 -0.000545035 0)
(0 -0.000834868 0)
(0 -0.000691233 0)
(0 0 0)
(0 0 0)
(0 0 0)
(0 0 0)
(0 0 0)
(0 0 0)
(0 0 0)
(0 0 0)
(0 0 0)
(0 0 0)
(0 0 0)
(0 0 0)
(0 0 0)
(0 0 0)
(0 0 0)
(0 0 0)
(0 0 0)
(0 0 0)
(0 0 0)
(0 0 0)
(0 0 0)
(0 0 0)
(0 0 0)
(0 0 0)
(0 0 0)
(0 0 0)
(0 0 0)
(0 0 0)
(0 0 0)
(0 0 0)
(0 0 0)
(0 0 0)
(0 0 0)
(0 0 0)
(0 0 0)
(0 0 0)
(0 0 0)
(0 0 0)
(0 0 0)
(0 0 0)
(0 0 0)
(0 0 0)
(0 0 0)
(0 0 0)
(0 0 0)
(0 0 0)
(0 0 0)
(0 0 0)
(0 0 0)
(0 0 0)
(0 0 0)
(0 0 0)
(0 0 0)
(0 0 0)
(0 0 0)
(0 0 0)
(0 0 0)
(0 0 0)
(0 0 0)
(0 0 0)
(0 0 0)
(0 0 0)
(0 0 0)
(0 0 0)
(0 0 0)
(0 0 0)
(0 0 0)
(0 0 0)
(0 0 0)
(0 0 0)
(0 0 0)
(0 0 0)
(0 0 0)
(0 0 0)
(0 0 0)
(0 0 0)
(0 0 0)
(0 0 0)
(0 0 0)
(0 0 0)
(0 0 0)
(0 0 0)
(0 0 0)
(0 0 0)
(0 0 0)
(0 0 0)
(0 0 0)
(0 0 0)
(0 0 0)
(0 0 0)
(0 0 0)
(0 0 0)
(0 0 0)
(0 0 0)
(0 0 0)
(0 0 0)
(0 0 0)
(0 0 0)
(0 0 0)
(0 0 0)
(0 0 0)
(0 0 0)
(0 0 0)
(0 0 0)
(0 0 0)
(0 0 0)
(0 0 0)
(0 0 0)
(0 0 0)
(0 0 0)
(0 0 0)
(0 0 0)
(0 0 0)
(0 0 0)
(0 0 0)
(0 0 0)
(0 0 0)
(0 0 0)
)
;

boundaryField
{
    inandouthalf11
    {
        type            cyclic;
    }
    inandouthalf12
    {
        type            cyclic;
    }
    inandouthalf21
    {
        type            cyclic;
    }
    inandouthalf22
    {
        type            cyclic;
    }
    inandouthalf31
    {
        type            cyclic;
    }
    inandouthalf32
    {
        type            cyclic;
    }
    inandouthalf41
    {
        type            cyclic;
    }
    inandouthalf42
    {
        type            cyclic;
    }
    top
    {
        type            symmetryPlane;
    }
    walls
    {
        type            calculated;
        value           uniform (0 0 0);
    }
    frontAndBackPlanes
    {
        type            empty;
    }
}


// ************************************************************************* //
