/*--------------------------------*- C++ -*----------------------------------*\
| =========                 |                                                 |
| \\      /  F ield         | OpenFOAM: The Open Source CFD Toolbox           |
|  \\    /   O peration     | Version:  2.4.x                                 |
|   \\  /    A nd           | Web:      www.OpenFOAM.org                      |
|    \\/     M anipulation  |                                                 |
\*---------------------------------------------------------------------------*/
FoamFile
{
    version     2.0;
    format      ascii;
    class       volVectorField;
    location    "3";
    object      gradPf;
}
// * * * * * * * * * * * * * * * * * * * * * * * * * * * * * * * * * * * * * //

dimensions      [0 1 -2 0 0 0 0];

internalField   nonuniform List<vector> 
360
(
(0 13.5158 0)
(0 21.7866 0)
(0 9.40595 0)
(0 0.127376 0)
(-3.35091e-14 -2.78089 0)
(-3.35106e-14 -4.2955 0)
(-1.67564e-14 -5.13203 0)
(0 -4.81704 0)
(-1.67585e-14 -4.31355 0)
(0 -4.4608 0)
(-3.35211e-14 -5.0324 0)
(0 -5.60915 0)
(-3.35263e-14 -5.68573 0)
(0 -4.96271 0)
(0 -3.6755 0)
(0 -2.29174 0)
(0 -1.2215 0)
(-1.67668e-14 -0.583781 0)
(0 -0.323835 0)
(0 -0.187136 0)
(0 -0.132322 0)
(-3.35341e-14 -0.16754 0)
(0 -0.166826 0)
(0 -0.17483 0)
(0 -0.18582 0)
(-1.67672e-14 -0.195312 0)
(0 -0.254835 0)
(0 -0.311047 0)
(0 -0.311808 0)
(0 -0.311631 0)
(0 -0.362538 0)
(0 -0.358461 0)
(0 -0.406791 0)
(0 -0.45493 0)
(0 -0.450135 0)
(1.67681e-14 -0.497945 0)
(0 -0.545333 0)
(0 -0.645117 0)
(0 -0.640695 0)
(0 -0.689822 0)
(0 -0.789784 0)
(0 -0.783248 0)
(1.67693e-14 -0.8789 0)
(0 -0.971942 0)
(0 -1.01189 0)
(0 -1.10176 0)
(0 -1.13613 0)
(0 -1.21604 0)
(0 -1.39118 0)
(0 -1.46148 0)
(1.67717e-14 -1.52974 0)
(0 -1.64395 0)
(0 -1.74884 0)
(0 -1.84381 0)
(0 -1.97424 0)
(0 -2.09123 0)
(0 -2.19284 0)
(0 -2.32407 0)
(0 -2.38698 0)
(0 -2.5126 0)
(0 -2.60539 0)
(0 -2.66063 0)
(0 -2.72417 0)
(0 -2.75243 0)
(0 -2.79276 0)
(0 -2.84806 0)
(0 -2.92714 0)
(0 -3.00064 0)
(0 -3.06745 0)
(0 -3.17519 0)
(0 -3.3011 0)
(0 -3.35155 0)
(0 -3.41556 0)
(0 -3.48995 0)
(0 -3.53544 0)
(0 -3.56262 0)
(0 -3.57236 0)
(0 -3.60698 0)
(0 -3.64546 0)
(0 -3.67905 0)
(0 -3.7222 0)
(0 -3.77861 0)
(0 -3.82825 0)
(0 -3.87395 0)
(0 -3.91345 0)
(0 -3.94627 0)
(0 -3.97105 0)
(0 -3.9879 0)
(0 -4.00607 0)
(0 -4.02485 0)
(0 -4.04346 0)
(0 -4.06568 0)
(0 -4.09049 0)
(0 -4.11448 0)
(0 -4.13756 0)
(0 -4.15903 0)
(0 -4.17816 0)
(0 -4.19518 0)
(0 -4.21088 0)
(0 -4.22555 0)
(0 -4.23934 0)
(0 -4.25268 0)
(0 -4.26545 0)
(0 -4.27738 0)
(0 -4.28847 0)
(0 -4.29875 0)
(0 -4.30823 0)
(0 -4.31702 0)
(0 -4.32519 0)
(0 -4.33277 0)
(0 -4.33977 0)
(0 -4.34616 0)
(0 -4.35192 0)
(0 -4.35701 0)
(0 -4.36137 0)
(0 -4.36493 0)
(0 -4.3676 0)
(0 -4.36928 0)
(0 -4.36983 0)
(0 -4.36906 0)
(0 -4.36667 0)
(0 -4.36224 0)
(0 -4.35536 0)
(0 -4.34575 0)
(0 -4.33365 0)
(0 -4.31997 0)
(0 -4.30608 0)
(0 -4.29267 0)
(0 -4.27812 0)
(0 -4.25804 0)
(0 -4.22909 0)
(0 -4.19773 0)
(0 -4.18283 0)
(0 -4.1934 0)
(0 -4.19959 0)
(0 -4.16366 0)
(0 -4.11747 0)
(0 -4.16888 0)
(0 -4.37123 0)
(0 -4.50578 0)
(0 -4.21368 0)
(0 -4.11103 0)
(0 -4.67683 0)
(0 -5.23209 0)
(0 -6.2266 0)
(0 -11.5663 0)
(0 -8.3068 0)
(0 -2.26843 0)
(0 -5.39656 0)
(0 -3.51484 0)
(0 0 0)
(0 0 0)
(0 0 0)
(0 0 0)
(0 0 0)
(0 0 0)
(0 0 0)
(0 0 0)
(0 0 0)
(0 0 0)
(0 0 0)
(0 0 0)
(0 0 0)
(0 0 0)
(0 0 0)
(0 0 0)
(0 0 0)
(0 0 0)
(0 0 0)
(0 0 0)
(0 0 0)
(0 0 0)
(0 0 0)
(0 0 0)
(0 0 0)
(0 0 0)
(0 0 0)
(0 0 0)
(0 0 0)
(0 0 0)
(0 0 0)
(0 0 0)
(0 0 0)
(0 0 0)
(0 0 0)
(0 0 0)
(0 0 0)
(0 0 0)
(0 0 0)
(0 0 0)
(0 0 0)
(0 0 0)
(0 0 0)
(0 0 0)
(0 0 0)
(0 0 0)
(0 0 0)
(0 0 0)
(0 0 0)
(0 0 0)
(0 0 0)
(0 0 0)
(0 0 0)
(0 0 0)
(0 0 0)
(0 0 0)
(0 0 0)
(0 0 0)
(0 0 0)
(0 0 0)
(0 0 0)
(0 0 0)
(0 0 0)
(0 0 0)
(0 0 0)
(0 0 0)
(0 0 0)
(0 0 0)
(0 0 0)
(0 0 0)
(0 0 0)
(0 0 0)
(0 0 0)
(0 0 0)
(0 0 0)
(0 0 0)
(0 0 0)
(0 0 0)
(0 0 0)
(0 0 0)
(0 0 0)
(0 0 0)
(0 0 0)
(0 0 0)
(0 0 0)
(0 0 0)
(0 0 0)
(0 0 0)
(0 0 0)
(0 0 0)
(0 0 0)
(0 0 0)
(0 0 0)
(0 0 0)
(0 0 0)
(0 0 0)
(0 0 0)
(0 0 0)
(0 0 0)
(0 0 0)
(0 0 0)
(0 0 0)
(0 0 0)
(0 0 0)
(0 0 0)
(0 0 0)
(0 0 0)
(0 0 0)
(0 0 0)
(0 0 0)
(0 0 0)
(0 0 0)
(0 0 0)
(0 0 0)
(0 0 0)
(0 0 0)
(0 0 0)
(0 0 0)
(0 0 0)
(0 0 0)
(0 0 0)
(0 0 0)
(0 0 0)
(0 0 0)
(0 0 0)
(0 0 0)
(0 0 0)
(0 0 0)
(0 0 0)
(0 0 0)
(0 0 0)
(0 0 0)
(0 0 0)
(0 0 0)
(0 0 0)
(0 0 0)
(0 0 0)
(0 0 0)
(0 0 0)
(0 0 0)
(0 0 0)
(0 0 0)
(0 0 0)
(0 0 0)
(0 0 0)
(0 0 0)
(0 0 0)
(0 0 0)
(0 0 0)
(0 0 0)
(0 0 0)
(0 0 0)
(0 0 0)
(0 0 0)
(0 0 0)
(0 0 0)
(0 0 0)
(0 0 0)
(0 0 0)
(0 0 0)
(0 0 0)
(0 0 0)
(0 0 0)
(0 0 0)
(0 0 0)
(0 0 0)
(0 0 0)
(0 0 0)
(0 0 0)
(0 0 0)
(0 0 0)
(0 0 0)
(0 0 0)
(0 0 0)
(0 0 0)
(0 0 0)
(0 0 0)
(0 0 0)
(0 0 0)
(0 0 0)
(0 0 0)
(0 0 0)
(0 0 0)
(0 0 0)
(0 0 0)
(0 0 0)
(0 0 0)
(0 0 0)
(0 0 0)
(0 0 0)
(0 0 0)
(0 0 0)
(0 0 0)
(0 0 0)
(0 0 0)
(0 0 0)
(0 0 0)
(0 0 0)
(0 0 0)
(0 0 0)
(0 0 0)
(0 0 0)
(0 0 0)
(0 0 0)
(0 0 0)
(0 0 0)
(0 0 0)
(0 0 0)
(0 0 0)
(0 0 0)
)
;

boundaryField
{
    inandouthalf11
    {
        type            cyclic;
    }
    inandouthalf12
    {
        type            cyclic;
    }
    inandouthalf21
    {
        type            cyclic;
    }
    inandouthalf22
    {
        type            cyclic;
    }
    inandouthalf31
    {
        type            cyclic;
    }
    inandouthalf32
    {
        type            cyclic;
    }
    inandouthalf41
    {
        type            cyclic;
    }
    inandouthalf42
    {
        type            cyclic;
    }
    top
    {
        type            symmetryPlane;
    }
    walls
    {
        type            calculated;
        value           uniform (0 0 0);
    }
    frontAndBackPlanes
    {
        type            empty;
    }
}


// ************************************************************************* //
