/*--------------------------------*- C++ -*----------------------------------*\
| =========                 |                                                 |
| \\      /  F ield         | OpenFOAM: The Open Source CFD Toolbox           |
|  \\    /   O peration     | Version:  2.4.x                                 |
|   \\  /    A nd           | Web:      www.OpenFOAM.org                      |
|    \\/     M anipulation  |                                                 |
\*---------------------------------------------------------------------------*/
FoamFile
{
    version     2.0;
    format      ascii;
    class       volScalarField;
    location    "3";
    object      mua;
}
// * * * * * * * * * * * * * * * * * * * * * * * * * * * * * * * * * * * * * //

dimensions      [1 -1 -1 0 0 0 0];

internalField   nonuniform List<scalar> 
360
(
413975
166280
140734
151668
164482
165815
153438
134358
115617
99663
87113.5
79087.8
77786.9
87384.7
117148
190529
366859
778078
1.62945e+06
3.01534e+06
4.59936e+06
5.71108e+06
5.99709e+06
5.66457e+06
5.1069e+06
4.58753e+06
4.20553e+06
3.96926e+06
3.85773e+06
3.83897e+06
3.87769e+06
3.94162e+06
4.00768e+06
4.05498e+06
4.08025e+06
4.08057e+06
4.05884e+06
4.01888e+06
3.9696e+06
3.92004e+06
3.86797e+06
3.81753e+06
3.768e+06
3.71401e+06
3.65789e+06
3.59871e+06
3.53575e+06
3.46776e+06
3.38843e+06
3.29893e+06
3.20565e+06
3.10799e+06
3.00684e+06
2.90229e+06
2.79529e+06
2.6853e+06
2.57598e+06
2.46809e+06
2.36502e+06
2.2685e+06
2.17867e+06
2.099e+06
2.0296e+06
1.97065e+06
1.9196e+06
1.87245e+06
1.82422e+06
1.77126e+06
1.71144e+06
1.64358e+06
1.56779e+06
1.4881e+06
1.40925e+06
1.33374e+06
1.26466e+06
1.20388e+06
1.15239e+06
1.10903e+06
1.07185e+06
1.03882e+06
1.00802e+06
977547
946361
914297
881757
849552
818567
789598
763030
738863
716858
696585
677535
659290
641562
624189
607118
590363
573960
557940
542322
527114
512322
497957
484042
470604
457676
445284
433449
422181
411474
401303
391619
382338
373337
364448
355450
346073
336003
324906
312459
298396
282555
264921
245653
225094
203755
182302
161502
142135
124833
109926
97391
87039.8
78867
73171.9
70233.2
69987.7
72597.5
80787.9
104495
171057
356359
944930
3.09026e+06
4.63384e+06
491.172
136.812
7.44159
0.0130083
0.00190335
0.00221345
0.00259839
0.00291355
0.00317497
0.0033986
0.00359433
0.00376812
0.0039238
0.00406407
0.00419089
0.00430577
0.0044099
0.00450424
0.0045896
0.00466663
0.00473593
0.00479798
0.00485323
0.00490206
0.00494484
0.0049819
0.00501353
0.00504004
0.00506172
0.00507882
0.00509164
0.00510043
0.00510546
0.005107
0.00510532
0.00510066
0.0050933
0.00508349
0.0050715
0.0050576
0.00504205
0.00502515
0.00500718
0.00498839
0.00496904
0.00494933
0.00492939
0.00490928
0.004889
0.00486849
0.00484771
0.0048266
0.00480514
0.00478331
0.00476113
0.00473836
0.00471476
0.00469032
0.00466501
0.00463879
0.00461164
0.00458352
0.00455439
0.00452419
0.00449289
0.00446041
0.0044267
0.00439166
0.0043552
0.00431721
0.00427757
0.00423617
0.00419287
0.00414751
0.00409993
0.00404996
0.00399739
0.00394199
0.00388351
0.00382164
0.00375604
0.0036863
0.00361196
0.00353243
0.00344701
0.00335486
0.00325487
0.00314565
0.00302532
0.00289131
0.00273989
0.00256536
0.00235808
0.00209958
0.00174454
0
0
0
0
0
0
0
0
0
0
0
0
0
0
0
0
0
0
0
0
0
0
0
0
0
0
0
0
0
0
0
0
0
0
0
0
0
0
0
0
0
0
0
0
0
0
0
0
0
0
0
0
0
0
0
0
0
0
0
0
0
0
0
0
0
0
0
0
0
0
0
0
0
0
0
0
0
0
0
0
0
0
0
0
0
0
0
0
0
0
0
0
0
0
0
0
0
0
0
0
0
0
0
0
0
0
0
0
0
0
0
0
0
0
0
0
0
0
0
)
;

boundaryField
{
    inandouthalf11
    {
        type            cyclic;
    }
    inandouthalf12
    {
        type            cyclic;
    }
    inandouthalf21
    {
        type            cyclic;
    }
    inandouthalf22
    {
        type            cyclic;
    }
    inandouthalf31
    {
        type            cyclic;
    }
    inandouthalf32
    {
        type            cyclic;
    }
    inandouthalf41
    {
        type            cyclic;
    }
    inandouthalf42
    {
        type            cyclic;
    }
    top
    {
        type            symmetryPlane;
    }
    walls
    {
        type            calculated;
        value           uniform 1e+30;
    }
    frontAndBackPlanes
    {
        type            empty;
    }
}


// ************************************************************************* //
