/*--------------------------------*- C++ -*----------------------------------*\
| =========                 |                                                 |
| \\      /  F ield         | OpenFOAM: The Open Source CFD Toolbox           |
|  \\    /   O peration     | Version:  2.4.x                                 |
|   \\  /    A nd           | Web:      www.OpenFOAM.org                      |
|    \\/     M anipulation  |                                                 |
\*---------------------------------------------------------------------------*/
FoamFile
{
    version     2.0;
    format      ascii;
    class       volScalarField;
    location    "3";
    object      p;
}
// * * * * * * * * * * * * * * * * * * * * * * * * * * * * * * * * * * * * * //

dimensions      [1 -1 -2 0 0 0 0];

internalField   nonuniform List<scalar> 
360
(
4895.95
4891.04
4886.14
4881.22
4876.31
4871.39
4866.47
4861.55
4856.62
4851.69
4846.76
4841.82
4836.88
4831.93
4826.97
4822.01
4817.05
4812.09
4807.13
4802.17
4797.21
4792.25
4787.29
4782.32
4777.36
4772.4
4767.44
4762.48
4757.51
4752.55
4747.59
4742.63
4737.66
4732.7
4727.74
4722.78
4717.81
4712.85
4707.89
4702.92
4697.96
4693
4688.03
4683.07
4678.11
4673.14
4668.18
4663.21
4658.25
4653.29
4648.32
4643.36
4638.39
4633.43
4628.46
4623.5
4618.53
4613.57
4608.6
4603.64
4598.67
4593.71
4588.74
4583.77
4578.81
4573.84
4568.88
4563.91
4558.94
4553.98
4549.01
4544.04
4539.08
4534.11
4529.14
4524.17
4519.2
4514.24
4509.27
4504.3
4499.33
4494.36
4489.39
4484.42
4479.45
4474.48
4469.51
4464.54
4459.57
4454.6
4449.63
4444.66
4439.68
4434.71
4429.74
4424.77
4419.79
4414.82
4409.85
4404.87
4399.9
4394.92
4389.95
4384.97
4380
4375.02
4370.04
4365.07
4360.09
4355.11
4350.14
4345.16
4340.18
4335.2
4330.22
4325.25
4320.27
4315.29
4310.31
4305.33
4300.35
4295.37
4290.39
4285.4
4280.42
4275.44
4270.46
4265.48
4260.49
4255.51
4250.53
4245.54
4240.56
4235.57
4230.59
4225.6
4220.62
4215.63
4210.64
4205.65
4200.66
4195.67
4190.69
4185.7
4180.71
4175.72
4170.74
4165.74
4160.71
4155.64
4148.64
4142.97
4137.4
4132.03
4126.72
4121.45
4116.22
4111.01
4105.82
4100.65
4095.51
4090.38
4085.27
4080.17
4075.09
4070.03
4064.98
4059.94
4054.92
4049.91
4044.92
4039.94
4034.96
4030
4025.06
4020.12
4015.19
4010.28
4005.37
4000.48
3995.6
3990.72
3985.86
3981
3976.16
3971.32
3966.49
3961.67
3956.86
3952.05
3947.25
3942.46
3937.68
3932.9
3928.14
3923.37
3918.62
3913.87
3909.13
3904.39
3899.65
3894.88
3890
3885.04
3879.97
3874.8
3869.53
3864.15
3858.65
3853.04
3847.29
3841.41
3835.34
3829.06
3822.62
3816.06
3809.36
3802.53
3795.55
3788.44
3781.18
3773.78
3766.22
3758.51
3750.65
3742.62
3734.43
3726.08
3717.55
3708.86
3699.98
3690.93
3681.69
3672.27
3662.65
3652.84
3642.83
3632.61
3622.19
3611.56
3600.71
3589.64
3578.35
3566.83
3555.07
3543.08
3530.84
3518.35
3505.61
3492.61
3479.35
3465.82
3452.01
3437.92
3423.55
3408.88
3393.92
3378.66
3363.08
3347.19
3330.97
3314.43
3297.55
3280.33
3262.76
3244.83
3226.54
3207.87
3188.83
3169.4
3149.58
3129.35
3108.72
3087.66
3066.18
3044.26
3021.9
2999.08
2975.8
2952.05
2927.81
2903.09
2877.86
2852.12
2825.86
2799.06
2771.72
2743.82
2715.36
2686.32
2656.7
2626.47
2595.62
2564.15
2532.05
2499.29
2465.86
2431.76
2396.96
2361.46
2325.24
2288.28
2250.57
2212.1
2172.85
2132.8
2091.93
2050.24
2007.7
1964.3
1922.76
1883.52
1844.28
1805.04
1765.8
1726.56
1687.32
1648.08
1608.84
1569.6
1530.36
1491.12
1451.88
1412.64
1373.4
1334.16
1294.92
1255.68
1216.44
1177.2
1137.96
1098.72
1059.48
1020.24
981
941.76
902.52
863.28
824.04
784.8
745.56
706.32
667.08
627.84
588.6
549.36
510.12
470.88
431.64
392.4
353.16
313.92
274.68
235.44
196.2
156.96
117.72
78.48
39.24
1.68958e-07
)
;

boundaryField
{
    inandouthalf11
    {
        type            cyclic;
    }
    inandouthalf12
    {
        type            cyclic;
    }
    inandouthalf21
    {
        type            cyclic;
    }
    inandouthalf22
    {
        type            cyclic;
    }
    inandouthalf31
    {
        type            cyclic;
    }
    inandouthalf32
    {
        type            cyclic;
    }
    inandouthalf41
    {
        type            cyclic;
    }
    inandouthalf42
    {
        type            cyclic;
    }
    top
    {
        type            symmetryPlane;
    }
    walls
    {
        type            slip;
    }
    frontAndBackPlanes
    {
        type            empty;
    }
}


// ************************************************************************* //
