/*--------------------------------*- C++ -*----------------------------------*\
| =========                 |                                                 |
| \\      /  F ield         | OpenFOAM: The Open Source CFD Toolbox           |
|  \\    /   O peration     | Version:  2.4.x                                 |
|   \\  /    A nd           | Web:      www.OpenFOAM.org                      |
|    \\/     M anipulation  |                                                 |
\*---------------------------------------------------------------------------*/
FoamFile
{
    version     2.0;
    format      ascii;
    class       volScalarField;
    location    "3";
    object      pa;
}
// * * * * * * * * * * * * * * * * * * * * * * * * * * * * * * * * * * * * * //

dimensions      [1 -1 -2 0 0 0 0];

internalField   nonuniform List<scalar> 
360
(
2.88762e-16
2.93229e-16
2.9586e-16
2.95022e-16
2.94056e-16
2.93824e-16
2.94393e-16
2.95781e-16
2.97963e-16
3.0088e-16
3.04297e-16
3.07142e-16
3.07091e-16
3.02534e-16
2.95766e-16
2.90805e-16
2.88667e-16
2.88054e-16
2.87915e-16
2.8788e-16
2.87872e-16
2.87866e-16
2.87861e-16
2.87857e-16
2.87853e-16
2.87849e-16
2.87845e-16
2.87838e-16
2.8783e-16
2.87822e-16
2.87814e-16
2.87803e-16
2.87795e-16
2.87782e-16
2.87771e-16
2.87759e-16
2.87746e-16
2.8773e-16
2.87713e-16
2.87697e-16
2.87677e-16
2.87657e-16
2.87636e-16
2.87611e-16
2.87586e-16
2.87558e-16
2.87528e-16
2.87499e-16
2.87464e-16
2.87425e-16
2.87387e-16
2.87344e-16
2.87299e-16
2.87251e-16
2.87201e-16
2.87144e-16
2.87087e-16
2.87025e-16
2.8696e-16
2.86893e-16
2.86821e-16
2.86748e-16
2.8667e-16
2.86592e-16
2.86512e-16
2.8643e-16
2.86346e-16
2.86258e-16
2.86168e-16
2.86075e-16
2.85977e-16
2.85875e-16
2.85773e-16
2.85666e-16
2.85557e-16
2.85444e-16
2.8533e-16
2.85214e-16
2.85094e-16
2.84972e-16
2.84847e-16
2.84718e-16
2.84586e-16
2.84451e-16
2.84313e-16
2.84172e-16
2.84027e-16
2.8388e-16
2.83729e-16
2.83576e-16
2.83419e-16
2.83258e-16
2.83094e-16
2.82926e-16
2.82754e-16
2.82578e-16
2.82398e-16
2.82214e-16
2.82026e-16
2.8183e-16
0
0
0
0
0
0
0
0
0
0
0
0
0
0
0
2.78022e-16
2.77726e-16
2.77421e-16
2.77107e-16
2.76784e-16
2.76452e-16
2.76111e-16
2.75761e-16
2.75401e-16
2.75033e-16
2.74655e-16
2.74269e-16
2.73874e-16
2.73472e-16
5.26925e-16
2.74477e-15
1.51534e-14
7.88099e-14
3.81221e-13
1.70491e-12
7.00091e-12
2.61603e-11
8.80965e-11
2.6546e-10
7.13792e-10
1.71004e-09
3.70194e-09
8.46434e-09
2.92414e-08
1.89968e-07
2.08865e-06
3.31061e-05
0.000923553
0.0464314
0.949964
0.215879
0.115222
0.0846033
0.0723813
0.0668924
0.0635607
0.0609823
0.0587417
0.0566286
0.0545308
0.0523987
0.0502147
0.0479767
0.0456917
0.0433716
0.0410301
0.0386819
0.0363413
0.034022
0.0317362
0.0294953
0.0273091
0.0251859
0.0231334
0.0211585
0.0192686
0.0174716
0.0157766
0.0141928
0.0127279
0.0113866
0.0101691
0.0090714
0.00808483
0.00719768
0.0063959
0.00566393
0.00498497
0.00434145
0.00371679
0.00310023
0.00249473
0.00192376
0.00142494
0.00102959
0.000744102
0.000550426
0.000421125
0.0003325
0.000268805
0.000221318
0.00018478
0.000155269
0.000130261
0.000109855
9.37911e-05
7.96761e-05
6.71026e-05
5.71822e-05
4.89622e-05
4.14452e-05
3.51376e-05
2.99333e-05
2.52692e-05
2.1354e-05
1.81599e-05
1.51879e-05
1.26871e-05
1.07483e-05
8.98007e-06
7.43462e-06
6.18706e-06
5.10899e-06
4.22311e-06
3.47474e-06
2.80106e-06
2.2767e-06
1.84398e-06
1.45871e-06
1.16366e-06
9.13895e-07
7.10411e-07
5.46547e-07
4.17226e-07
3.12535e-07
2.28401e-07
1.63919e-07
1.14012e-07
7.30783e-08
4.99041e-08
4.15248e-08
0
0
0
0
0
0
0
0
0
0
0
0
0
0
0
0
0
0
0
0
0
0
0
0
0
0
0
0
0
0
0
0
0
0
0
0
0
0
0
0
0
0
0
0
0
0
0
0
0
0
0
0
0
0
0
0
0
0
0
0
0
0
0
0
0
0
0
0
0
0
0
0
0
0
0
0
0
0
0
0
0
0
0
0
0
0
0
0
0
0
0
0
0
0
0
0
0
0
0
0
0
0
0
0
0
0
0
0
0
0
0
0
0
0
0
0
0
0
0
)
;

boundaryField
{
    inandouthalf11
    {
        type            cyclic;
    }
    inandouthalf12
    {
        type            cyclic;
    }
    inandouthalf21
    {
        type            cyclic;
    }
    inandouthalf22
    {
        type            cyclic;
    }
    inandouthalf31
    {
        type            cyclic;
    }
    inandouthalf32
    {
        type            cyclic;
    }
    inandouthalf41
    {
        type            cyclic;
    }
    inandouthalf42
    {
        type            cyclic;
    }
    top
    {
        type            symmetryPlane;
    }
    walls
    {
        type            calculated;
        value           uniform 2.88762e-16;
    }
    frontAndBackPlanes
    {
        type            empty;
    }
}


// ************************************************************************* //
