/*--------------------------------*- C++ -*----------------------------------*\
| =========                 |                                                 |
| \\      /  F ield         | OpenFOAM: The Open Source CFD Toolbox           |
|  \\    /   O peration     | Version:  2.4.x                                 |
|   \\  /    A nd           | Web:      www.OpenFOAM.org                      |
|    \\/     M anipulation  |                                                 |
\*---------------------------------------------------------------------------*/
FoamFile
{
    version     2.0;
    format      ascii;
    class       surfaceScalarField;
    location    "3";
    object      phia;
}
// * * * * * * * * * * * * * * * * * * * * * * * * * * * * * * * * * * * * * //

dimensions      [0 3 -1 0 0 0 0];

internalField   nonuniform List<scalar> 
359
(
-6.63204e-13
-2.39244e-12
-4.48321e-12
-6.45888e-12
-8.26675e-12
-1.00416e-11
-1.19408e-11
-1.40877e-11
-1.65565e-11
-1.9393e-11
-2.26053e-11
-2.61022e-11
-2.96155e-11
-3.27075e-11
-3.49924e-11
-3.63878e-11
-3.71097e-11
-3.74494e-11
-3.76113e-11
-3.76986e-11
-3.77557e-11
-3.78016e-11
-3.78452e-11
-3.78912e-11
-3.79421e-11
-3.79986e-11
-3.80602e-11
-3.81253e-11
-3.81921e-11
-3.8259e-11
-3.83252e-11
-3.83901e-11
-3.84537e-11
-3.85165e-11
-3.85786e-11
-3.86406e-11
-3.87027e-11
-3.87652e-11
-3.88282e-11
-3.88918e-11
-3.89561e-11
-3.90209e-11
-3.90863e-11
-3.91524e-11
-3.92192e-11
-3.92867e-11
-3.93552e-11
-3.94246e-11
-3.94953e-11
-3.95676e-11
-3.96415e-11
-3.97173e-11
-3.97951e-11
-3.98753e-11
-3.9958e-11
-4.00435e-11
-4.01319e-11
-4.02236e-11
-4.03185e-11
-4.04167e-11
-4.05181e-11
-4.06224e-11
-4.07294e-11
-4.08387e-11
-4.09499e-11
-4.10628e-11
-4.11776e-11
-4.12948e-11
-4.14149e-11
-4.15387e-11
-4.16671e-11
-4.1801e-11
-4.19409e-11
-4.2087e-11
-4.22394e-11
-4.23977e-11
-4.25611e-11
-4.27289e-11
-4.29004e-11
-4.30752e-11
-4.32531e-11
-4.34342e-11
-4.36188e-11
-4.38073e-11
-4.40001e-11
-4.41975e-11
-4.43994e-11
-4.46058e-11
-4.48162e-11
-4.50303e-11
-4.52475e-11
-4.54677e-11
-4.56905e-11
-4.59157e-11
-4.61434e-11
-4.63736e-11
-4.66061e-11
-4.68411e-11
-4.70786e-11
-4.73184e-11
-4.75606e-11
-4.78051e-11
-4.80517e-11
-4.83005e-11
-4.85513e-11
-4.8804e-11
-4.90583e-11
-4.9314e-11
-4.9571e-11
-4.98289e-11
-5.00873e-11
-5.03461e-11
-5.06048e-11
-5.08631e-11
-5.1121e-11
-5.13781e-11
-5.16347e-11
-5.18909e-11
-5.21473e-11
-5.24046e-11
-5.2664e-11
-5.29272e-11
-5.31962e-11
-5.34736e-11
-5.37625e-11
-5.40666e-11
-5.43902e-11
-5.47382e-11
-5.51156e-11
-5.55269e-11
-5.59753e-11
-5.64622e-11
-5.69865e-11
-5.75449e-11
-5.813e-11
-5.87274e-11
-5.93153e-11
-5.98703e-11
-6.03705e-11
-6.07888e-11
-6.10897e-11
-6.12571e-11
-6.13305e-11
-6.13553e-11
-6.13617e-11
-6.13606e-11
-7.5693e-11
-9.93354e-11
-1.4379e-10
-5.25717e-09
-1.81396e-08
-3.64881e-08
-5.26679e-08
-6.53226e-08
-7.32917e-08
-7.82088e-08
-8.11432e-08
-8.26487e-08
-8.31198e-08
-8.28343e-08
-8.19827e-08
-8.07004e-08
-7.90868e-08
-7.72158e-08
-7.51436e-08
-7.29136e-08
-7.056e-08
-6.81106e-08
-6.55884e-08
-6.30135e-08
-6.04037e-08
-5.7776e-08
-5.51469e-08
-5.25326e-08
-4.99481e-08
-4.74054e-08
-4.49107e-08
-4.2461e-08
-4.00427e-08
-3.76314e-08
-3.51949e-08
-3.26994e-08
-3.01154e-08
-2.74239e-08
-2.46204e-08
-2.17166e-08
-1.87421e-08
-1.57463e-08
-1.28029e-08
-1.0011e-08
-7.48975e-09
-5.3586e-09
-3.70018e-09
-2.52552e-09
-1.77004e-09
-1.32824e-09
-1.09846e-09
-1.00576e-09
-1.00216e-09
-1.05927e-09
-1.15921e-09
-1.29183e-09
-1.45071e-09
-1.6356e-09
-1.84267e-09
-2.06439e-09
-2.30217e-09
-2.55824e-09
-2.82626e-09
-3.10324e-09
-3.3905e-09
-3.68465e-09
-3.9819e-09
-4.28274e-09
-4.58724e-09
-4.89501e-09
-5.20955e-09
-5.53184e-09
-5.85972e-09
-6.19564e-09
-6.54218e-09
-6.8991e-09
-7.26744e-09
-7.64709e-09
-8.0396e-09
-8.44935e-09
-8.87528e-09
-9.31807e-09
-9.78257e-09
-1.02684e-08
-1.07779e-08
-1.13142e-08
-1.18792e-08
-1.24737e-08
-1.31012e-08
-1.37665e-08
-1.44709e-08
-1.52226e-08
-1.60272e-08
-1.67983e-08
-1.75203e-08
-8.72284e-08
-1.57885e-07
-1.57885e-07
-1.57885e-07
-1.57885e-07
-1.57885e-07
-1.57885e-07
-1.57885e-07
-1.57885e-07
-1.57885e-07
-1.57885e-07
-1.57885e-07
-1.57885e-07
-1.57885e-07
-1.57885e-07
-1.57885e-07
-1.57885e-07
-1.57885e-07
-1.57885e-07
-1.57885e-07
-1.57885e-07
-1.57885e-07
-1.57885e-07
-1.57885e-07
-1.57885e-07
-1.57885e-07
-1.57885e-07
-1.57885e-07
-1.57885e-07
-1.57885e-07
-1.57885e-07
-1.57885e-07
-1.57885e-07
-1.57885e-07
-1.57885e-07
-1.57885e-07
-1.57885e-07
-1.57885e-07
-1.57885e-07
-1.57885e-07
-1.57885e-07
-1.57885e-07
-1.57885e-07
-1.57885e-07
-1.57885e-07
-1.57885e-07
-1.57885e-07
-1.57885e-07
-1.57885e-07
-1.57885e-07
-1.57885e-07
-1.57885e-07
-1.57885e-07
-1.57885e-07
-1.57885e-07
-1.57885e-07
-1.57885e-07
-1.57885e-07
-1.57885e-07
-1.57885e-07
-1.57885e-07
-1.57885e-07
-1.57885e-07
-1.57885e-07
-1.57885e-07
-1.57885e-07
-1.57885e-07
-1.57885e-07
-1.57885e-07
-1.57885e-07
-1.57885e-07
-1.57885e-07
-1.57885e-07
-1.57885e-07
-1.57885e-07
-1.57885e-07
-1.57885e-07
-1.57885e-07
-1.57885e-07
-1.57885e-07
-1.57885e-07
-1.57885e-07
-1.57885e-07
-1.57885e-07
-1.57885e-07
-1.57885e-07
-1.57885e-07
-1.57885e-07
-1.57885e-07
-1.57885e-07
-1.57885e-07
-1.57885e-07
-1.57885e-07
-1.57885e-07
-1.57885e-07
-1.57885e-07
-1.57885e-07
-1.57885e-07
-1.57885e-07
-1.57885e-07
-1.57885e-07
-1.57885e-07
-1.57885e-07
-1.57885e-07
-1.57885e-07
-1.57885e-07
-1.57885e-07
-1.57885e-07
-1.57885e-07
-1.57885e-07
-1.57885e-07
-1.57885e-07
-1.57885e-07
-1.57885e-07
-1.57885e-07
-1.57867e-07
-1.57158e-07
-1.32118e-07
)
;

boundaryField
{
    inandouthalf11
    {
        type            cyclic;
        value           nonuniform List<scalar> 
100
(
9.6967e-39
6.57419e-14
1.87939e-13
3.14108e-13
4.28861e-13
5.36874e-13
6.46746e-13
7.66534e-13
9.01997e-13
1.0564e-12
1.23095e-12
1.42322e-12
1.62276e-12
1.8083e-12
1.95495e-12
2.05035e-12
2.10193e-12
2.12658e-12
2.13816e-12
2.14416e-12
2.14789e-12
2.15076e-12
2.15342e-12
2.15623e-12
2.15942e-12
2.1631e-12
2.16729e-12
2.17192e-12
2.17688e-12
2.18202e-12
2.18725e-12
2.19252e-12
2.19781e-12
2.20313e-12
2.20851e-12
2.21398e-12
2.21956e-12
2.22529e-12
2.23119e-12
2.23726e-12
2.24351e-12
2.24993e-12
2.25653e-12
2.26331e-12
2.27028e-12
2.27744e-12
2.28481e-12
2.2924e-12
2.30022e-12
2.30831e-12
2.3167e-12
2.3254e-12
2.33444e-12
2.34385e-12
2.35365e-12
2.36388e-12
2.37458e-12
2.38575e-12
2.39743e-12
2.40963e-12
2.42233e-12
2.43553e-12
2.44919e-12
2.46326e-12
2.4777e-12
2.49247e-12
2.50757e-12
2.52304e-12
2.53895e-12
2.55538e-12
2.57246e-12
2.59031e-12
2.60901e-12
2.62864e-12
2.6492e-12
2.67068e-12
2.69299e-12
2.71603e-12
2.7397e-12
2.76392e-12
2.78865e-12
2.81387e-12
2.83961e-12
2.86593e-12
2.89287e-12
2.92049e-12
2.94879e-12
2.97777e-12
3.00738e-12
3.03757e-12
3.06828e-12
3.09944e-12
3.13102e-12
3.16297e-12
3.19529e-12
3.22796e-12
3.26099e-12
3.29436e-12
3.32807e-12
3.36212e-12
)
;
    }
    inandouthalf12
    {
        type            cyclic;
        value           nonuniform List<scalar> 
100
(
-9.6967e-39
-6.57419e-14
-1.87939e-13
-3.14108e-13
-4.28861e-13
-5.36874e-13
-6.46746e-13
-7.66534e-13
-9.01997e-13
-1.0564e-12
-1.23095e-12
-1.42322e-12
-1.62276e-12
-1.8083e-12
-1.95495e-12
-2.05035e-12
-2.10193e-12
-2.12658e-12
-2.13816e-12
-2.14416e-12
-2.14789e-12
-2.15076e-12
-2.15342e-12
-2.15623e-12
-2.15942e-12
-2.1631e-12
-2.16729e-12
-2.17192e-12
-2.17688e-12
-2.18202e-12
-2.18725e-12
-2.19252e-12
-2.19781e-12
-2.20313e-12
-2.20851e-12
-2.21398e-12
-2.21956e-12
-2.22529e-12
-2.23119e-12
-2.23726e-12
-2.24351e-12
-2.24993e-12
-2.25653e-12
-2.26331e-12
-2.27028e-12
-2.27744e-12
-2.28481e-12
-2.2924e-12
-2.30022e-12
-2.30831e-12
-2.3167e-12
-2.3254e-12
-2.33444e-12
-2.34385e-12
-2.35365e-12
-2.36388e-12
-2.37458e-12
-2.38575e-12
-2.39743e-12
-2.40963e-12
-2.42233e-12
-2.43553e-12
-2.44919e-12
-2.46326e-12
-2.4777e-12
-2.49247e-12
-2.50757e-12
-2.52304e-12
-2.53895e-12
-2.55538e-12
-2.57246e-12
-2.59031e-12
-2.60901e-12
-2.62864e-12
-2.6492e-12
-2.67068e-12
-2.69299e-12
-2.71603e-12
-2.7397e-12
-2.76392e-12
-2.78865e-12
-2.81387e-12
-2.83961e-12
-2.86593e-12
-2.89287e-12
-2.92049e-12
-2.94879e-12
-2.97777e-12
-3.00738e-12
-3.03757e-12
-3.06828e-12
-3.09944e-12
-3.13102e-12
-3.16297e-12
-3.19529e-12
-3.22796e-12
-3.26099e-12
-3.29436e-12
-3.32807e-12
-3.36212e-12
)
;
    }
    inandouthalf21
    {
        type            cyclic;
        value           nonuniform List<scalar> 
100
(
3.3965e-12
3.4312e-12
3.46619e-12
3.50147e-12
3.53702e-12
3.57281e-12
3.60882e-12
3.64501e-12
3.68135e-12
3.71779e-12
3.75429e-12
3.79079e-12
3.82726e-12
3.86363e-12
3.89988e-12
3.93597e-12
3.9719e-12
4.00768e-12
4.04336e-12
4.07903e-12
4.11482e-12
4.15092e-12
4.18757e-12
4.2251e-12
4.26388e-12
4.30437e-12
4.34711e-12
4.39273e-12
4.44189e-12
4.49523e-12
4.5533e-12
4.61641e-12
4.6846e-12
4.75759e-12
4.8347e-12
4.91447e-12
4.99443e-12
5.07151e-12
5.1427e-12
5.20461e-12
5.25232e-12
5.28202e-12
5.29628e-12
5.30153e-12
5.30304e-12
5.30371e-12
5.30465e-12
1.10175e-11
3.1455e-11
3.41166e-10
6.70279e-08
9.82508e-08
1.05995e-07
1.07041e-07
1.05276e-07
1.02037e-07
9.79027e-08
9.31678e-08
8.80038e-08
8.25202e-08
7.67916e-08
7.08728e-08
6.48052e-08
5.86222e-08
5.23509e-08
4.60148e-08
3.96343e-08
3.3228e-08
2.68133e-08
2.04064e-08
1.40232e-08
7.67902e-09
1.38917e-09
-4.83141e-09
-1.09679e-08
-1.70059e-08
-2.29313e-08
-2.87306e-08
-3.43912e-08
-3.99011e-08
-4.52497e-08
-5.04269e-08
-5.54239e-08
-6.02321e-08
-6.48436e-08
-6.92501e-08
-7.34434e-08
-7.74158e-08
-8.11601e-08
-8.46712e-08
-8.7948e-08
-9.09948e-08
-9.38241e-08
-9.64572e-08
-9.89218e-08
-1.01247e-07
-1.03457e-07
-1.05568e-07
-1.07589e-07
-1.09525e-07
)
;
    }
    inandouthalf22
    {
        type            cyclic;
        value           nonuniform List<scalar> 
100
(
-3.3965e-12
-3.4312e-12
-3.46619e-12
-3.50147e-12
-3.53702e-12
-3.57281e-12
-3.60882e-12
-3.64501e-12
-3.68135e-12
-3.71779e-12
-3.75429e-12
-3.79079e-12
-3.82726e-12
-3.86363e-12
-3.89988e-12
-3.93597e-12
-3.9719e-12
-4.00768e-12
-4.04336e-12
-4.07903e-12
-4.11482e-12
-4.15092e-12
-4.18757e-12
-4.2251e-12
-4.26388e-12
-4.30437e-12
-4.34711e-12
-4.39273e-12
-4.44189e-12
-4.49523e-12
-4.5533e-12
-4.61641e-12
-4.6846e-12
-4.75759e-12
-4.8347e-12
-4.91447e-12
-4.99443e-12
-5.07151e-12
-5.1427e-12
-5.20461e-12
-5.25232e-12
-5.28202e-12
-5.29628e-12
-5.30153e-12
-5.30304e-12
-5.30371e-12
-5.30465e-12
-1.10175e-11
-3.1455e-11
-3.41166e-10
-6.70279e-08
-9.82508e-08
-1.05995e-07
-1.07041e-07
-1.05276e-07
-1.02037e-07
-9.79027e-08
-9.31678e-08
-8.80038e-08
-8.25202e-08
-7.67916e-08
-7.08728e-08
-6.48052e-08
-5.86222e-08
-5.23509e-08
-4.60148e-08
-3.96343e-08
-3.3228e-08
-2.68133e-08
-2.04064e-08
-1.40232e-08
-7.67902e-09
-1.38917e-09
4.83141e-09
1.09679e-08
1.70059e-08
2.29313e-08
2.87306e-08
3.43912e-08
3.99011e-08
4.52497e-08
5.04269e-08
5.54239e-08
6.02321e-08
6.48436e-08
6.92501e-08
7.34434e-08
7.74158e-08
8.11601e-08
8.46712e-08
8.7948e-08
9.09948e-08
9.38241e-08
9.64572e-08
9.89218e-08
1.01247e-07
1.03457e-07
1.05568e-07
1.07589e-07
1.09525e-07
)
;
    }
    inandouthalf31
    {
        type            cyclic;
        value           nonuniform List<scalar> 
110
(
-1.11379e-07
-1.15467e-07
-1.1963e-07
-1.23872e-07
-1.282e-07
-1.32612e-07
-1.37109e-07
-1.41702e-07
-1.46393e-07
-1.51176e-07
-1.56057e-07
-1.61043e-07
-1.66129e-07
-1.71319e-07
-1.76623e-07
-1.82036e-07
-1.87568e-07
-1.93235e-07
-1.9903e-07
-2.0495e-07
-2.11016e-07
-2.17229e-07
-2.2359e-07
-2.30104e-07
-2.36768e-07
-2.43602e-07
-2.50612e-07
-2.57788e-07
-2.65148e-07
-2.72698e-07
-2.80433e-07
-2.88365e-07
-2.96499e-07
-3.0483e-07
-3.13357e-07
-3.22086e-07
-3.31014e-07
-3.40128e-07
-3.4945e-07
-3.58892e-07
-3.68067e-07
-3.77376e-07
-5.65018e-07
-5.76495e-07
-5.88204e-07
-6.00148e-07
-6.12335e-07
-6.24768e-07
-6.37453e-07
-6.50394e-07
-6.63598e-07
-6.77069e-07
-6.90814e-07
-7.04837e-07
-7.19144e-07
-7.33742e-07
-7.48636e-07
-7.63832e-07
-7.79336e-07
-7.95155e-07
-8.11295e-07
-8.27762e-07
-8.44564e-07
-8.61706e-07
-8.79197e-07
-8.97042e-07
-9.1525e-07
-9.33827e-07
-9.52781e-07
-9.7212e-07
-9.91852e-07
-1.01198e-06
-1.03252e-06
-1.05348e-06
-1.07486e-06
-1.09668e-06
-1.11894e-06
-1.14165e-06
-1.16483e-06
-1.18847e-06
-1.21259e-06
-1.2372e-06
-1.26232e-06
-1.28794e-06
-1.31408e-06
-1.34075e-06
-1.36796e-06
-1.39573e-06
-1.42406e-06
-1.45296e-06
-1.48246e-06
-1.51255e-06
-1.54325e-06
-1.57457e-06
-1.60653e-06
-1.63914e-06
-1.67241e-06
-1.70635e-06
-1.74099e-06
-1.77633e-06
-1.81238e-06
-1.84917e-06
-1.8867e-06
-1.925e-06
-1.96407e-06
-2.00393e-06
-2.04461e-06
-2.08611e-06
-2.12845e-06
-2.17165e-06
)
;
    }
    inandouthalf32
    {
        type            cyclic;
        value           nonuniform List<scalar> 
110
(
1.11379e-07
1.15467e-07
1.1963e-07
1.23872e-07
1.282e-07
1.32612e-07
1.37109e-07
1.41702e-07
1.46393e-07
1.51176e-07
1.56057e-07
1.61043e-07
1.66129e-07
1.71319e-07
1.76623e-07
1.82036e-07
1.87568e-07
1.93235e-07
1.9903e-07
2.0495e-07
2.11016e-07
2.17229e-07
2.2359e-07
2.30104e-07
2.36768e-07
2.43602e-07
2.50612e-07
2.57788e-07
2.65148e-07
2.72698e-07
2.80433e-07
2.88365e-07
2.96499e-07
3.0483e-07
3.13357e-07
3.22086e-07
3.31014e-07
3.40128e-07
3.4945e-07
3.58892e-07
3.68067e-07
3.77376e-07
5.65018e-07
5.76495e-07
5.88204e-07
6.00148e-07
6.12335e-07
6.24768e-07
6.37453e-07
6.50394e-07
6.63598e-07
6.77069e-07
6.90814e-07
7.04837e-07
7.19144e-07
7.33742e-07
7.48636e-07
7.63832e-07
7.79336e-07
7.95155e-07
8.11295e-07
8.27762e-07
8.44564e-07
8.61706e-07
8.79197e-07
8.97042e-07
9.1525e-07
9.33827e-07
9.52781e-07
9.7212e-07
9.91852e-07
1.01198e-06
1.03252e-06
1.05348e-06
1.07486e-06
1.09668e-06
1.11894e-06
1.14165e-06
1.16483e-06
1.18847e-06
1.21259e-06
1.2372e-06
1.26232e-06
1.28794e-06
1.31408e-06
1.34075e-06
1.36796e-06
1.39573e-06
1.42406e-06
1.45296e-06
1.48246e-06
1.51255e-06
1.54325e-06
1.57457e-06
1.60653e-06
1.63914e-06
1.67241e-06
1.70635e-06
1.74099e-06
1.77633e-06
1.81238e-06
1.84917e-06
1.8867e-06
1.925e-06
1.96407e-06
2.00393e-06
2.04461e-06
2.08611e-06
2.12845e-06
2.17165e-06
)
;
    }
    inandouthalf41
    {
        type            cyclic;
        value           nonuniform List<scalar> 
50
(
-1.94385e-06
-1.94385e-06
-1.94385e-06
-1.94385e-06
-1.94385e-06
-1.94385e-06
-1.94385e-06
-1.94385e-06
-1.94385e-06
-1.94385e-06
-1.94385e-06
-1.94385e-06
-1.94385e-06
-1.94385e-06
-1.94385e-06
-1.94385e-06
-1.94385e-06
-1.94385e-06
-1.94385e-06
-1.94385e-06
-1.94385e-06
-1.94385e-06
-1.94385e-06
-1.94385e-06
-1.94385e-06
-1.94385e-06
-1.94385e-06
-1.94385e-06
-1.94385e-06
-1.94385e-06
-1.94385e-06
-1.94385e-06
-1.94385e-06
-1.94385e-06
-1.94385e-06
-1.94385e-06
-1.94385e-06
-1.94385e-06
-1.94385e-06
-1.94385e-06
-1.94385e-06
-1.94385e-06
-1.94385e-06
-1.94385e-06
-1.94385e-06
-1.94385e-06
-1.94385e-06
-1.94386e-06
-1.94414e-06
-1.95065e-06
)
;
    }
    inandouthalf42
    {
        type            cyclic;
        value           nonuniform List<scalar> 
50
(
1.94385e-06
1.94385e-06
1.94385e-06
1.94385e-06
1.94385e-06
1.94385e-06
1.94385e-06
1.94385e-06
1.94385e-06
1.94385e-06
1.94385e-06
1.94385e-06
1.94385e-06
1.94385e-06
1.94385e-06
1.94385e-06
1.94385e-06
1.94385e-06
1.94385e-06
1.94385e-06
1.94385e-06
1.94385e-06
1.94385e-06
1.94385e-06
1.94385e-06
1.94385e-06
1.94385e-06
1.94385e-06
1.94385e-06
1.94385e-06
1.94385e-06
1.94385e-06
1.94385e-06
1.94385e-06
1.94385e-06
1.94385e-06
1.94385e-06
1.94385e-06
1.94385e-06
1.94385e-06
1.94385e-06
1.94385e-06
1.94385e-06
1.94385e-06
1.94385e-06
1.94385e-06
1.94385e-06
1.94386e-06
1.94414e-06
1.95065e-06
)
;
    }
    top
    {
        type            symmetryPlane;
        value           uniform 0;
    }
    walls
    {
        type            fixedValue;
        value           uniform 0;
    }
    frontAndBackPlanes
    {
        type            empty;
        value           nonuniform 0();
    }
}


// ************************************************************************* //
