/*--------------------------------*- C++ -*----------------------------------*\
| =========                 |                                                 |
| \\      /  F ield         | OpenFOAM: The Open Source CFD Toolbox           |
|  \\    /   O peration     | Version:  2.4.x                                 |
|   \\  /    A nd           | Web:      www.OpenFOAM.org                      |
|    \\/     M anipulation  |                                                 |
\*---------------------------------------------------------------------------*/
FoamFile
{
    version     2.0;
    format      ascii;
    class       surfaceScalarField;
    location    "3";
    object      phia_0;
}
// * * * * * * * * * * * * * * * * * * * * * * * * * * * * * * * * * * * * * //

dimensions      [0 3 -1 0 0 0 0];

internalField   nonuniform List<scalar> 
359
(
-6.62613e-13
-2.39055e-12
-4.4801e-12
-6.45494e-12
-8.26233e-12
-1.00371e-11
-1.19366e-11
-1.40844e-11
-1.6555e-11
-1.93939e-11
-2.26091e-11
-2.61083e-11
-2.96224e-11
-3.2713e-11
-3.49949e-11
-3.63874e-11
-3.71073e-11
-3.7446e-11
-3.76074e-11
-3.76946e-11
-3.77517e-11
-3.77975e-11
-3.78411e-11
-3.78871e-11
-3.79381e-11
-3.79947e-11
-3.80563e-11
-3.81214e-11
-3.81882e-11
-3.82552e-11
-3.83214e-11
-3.83863e-11
-3.845e-11
-3.85128e-11
-3.85749e-11
-3.86369e-11
-3.8699e-11
-3.87616e-11
-3.88247e-11
-3.88883e-11
-3.89525e-11
-3.90174e-11
-3.90828e-11
-3.91489e-11
-3.92158e-11
-3.92834e-11
-3.93519e-11
-3.94213e-11
-3.94921e-11
-3.95644e-11
-3.96383e-11
-3.97141e-11
-3.9792e-11
-3.98723e-11
-3.9955e-11
-4.00405e-11
-4.0129e-11
-4.02207e-11
-4.03157e-11
-4.04139e-11
-4.05154e-11
-4.06198e-11
-4.07268e-11
-4.08362e-11
-4.09474e-11
-4.10604e-11
-4.11753e-11
-4.12925e-11
-4.14127e-11
-4.15365e-11
-4.16651e-11
-4.17991e-11
-4.1939e-11
-4.20852e-11
-4.22377e-11
-4.23961e-11
-4.25596e-11
-4.27275e-11
-4.28991e-11
-4.3074e-11
-4.3252e-11
-4.34332e-11
-4.36179e-11
-4.38066e-11
-4.39995e-11
-4.4197e-11
-4.43991e-11
-4.46055e-11
-4.48161e-11
-4.50303e-11
-4.52477e-11
-4.5468e-11
-4.56909e-11
-4.59163e-11
-4.61441e-11
-4.63744e-11
-4.66071e-11
-4.68423e-11
-4.70799e-11
-4.73198e-11
-4.75622e-11
-4.78068e-11
-4.80536e-11
-4.83025e-11
-4.85535e-11
-4.88063e-11
-4.90608e-11
-4.93167e-11
-4.95738e-11
-4.98318e-11
-5.00904e-11
-5.03493e-11
-5.06082e-11
-5.08667e-11
-5.11247e-11
-5.1382e-11
-5.16388e-11
-5.18951e-11
-5.21516e-11
-5.24091e-11
-5.26687e-11
-5.2932e-11
-5.32011e-11
-5.34786e-11
-5.37676e-11
-5.40718e-11
-5.43956e-11
-5.47437e-11
-5.51212e-11
-5.55326e-11
-5.59812e-11
-5.64682e-11
-5.69927e-11
-5.75513e-11
-5.81366e-11
-5.87343e-11
-5.93224e-11
-5.98777e-11
-6.03782e-11
-6.07967e-11
-6.10977e-11
-6.12652e-11
-6.13387e-11
-6.13635e-11
-6.13699e-11
-6.13688e-11
-7.56908e-11
-9.93195e-11
-1.43838e-10
-5.27188e-09
-1.81725e-08
-3.65288e-08
-5.2706e-08
-6.53548e-08
-7.33159e-08
-7.82264e-08
-8.11553e-08
-8.26563e-08
-8.31236e-08
-8.28349e-08
-8.19806e-08
-8.0696e-08
-7.90805e-08
-7.72079e-08
-7.51343e-08
-7.29031e-08
-7.05484e-08
-6.8098e-08
-6.5575e-08
-6.29992e-08
-6.03888e-08
-5.77604e-08
-5.51308e-08
-5.25159e-08
-4.99309e-08
-4.73877e-08
-4.48925e-08
-4.24425e-08
-4.00239e-08
-3.76121e-08
-3.51752e-08
-3.26793e-08
-3.00947e-08
-2.74026e-08
-2.45984e-08
-2.16939e-08
-1.87185e-08
-1.5722e-08
-1.27779e-08
-9.98539e-09
-7.46375e-09
-5.33248e-09
-3.67418e-09
-2.49982e-09
-1.74474e-09
-1.30336e-09
-1.07398e-09
-9.81646e-10
-9.78391e-10
-1.03582e-09
-1.13606e-09
-1.26896e-09
-1.42811e-09
-1.61324e-09
-1.82055e-09
-2.04249e-09
-2.28047e-09
-2.53673e-09
-2.80491e-09
-3.08203e-09
-3.3694e-09
-3.66364e-09
-3.96096e-09
-4.26185e-09
-4.5664e-09
-4.87423e-09
-5.18882e-09
-5.51116e-09
-5.83909e-09
-6.17507e-09
-6.52167e-09
-6.87864e-09
-7.24705e-09
-7.62676e-09
-8.01933e-09
-8.42914e-09
-8.85514e-09
-9.298e-09
-9.76258e-09
-1.02485e-08
-1.0758e-08
-1.12945e-08
-1.18596e-08
-1.24541e-08
-1.30817e-08
-1.37471e-08
-1.44516e-08
-1.52035e-08
-1.60081e-08
-1.67796e-08
-1.7502e-08
-8.72193e-08
-1.57885e-07
-1.57885e-07
-1.57885e-07
-1.57885e-07
-1.57885e-07
-1.57885e-07
-1.57885e-07
-1.57885e-07
-1.57885e-07
-1.57885e-07
-1.57885e-07
-1.57885e-07
-1.57885e-07
-1.57885e-07
-1.57885e-07
-1.57885e-07
-1.57885e-07
-1.57885e-07
-1.57885e-07
-1.57885e-07
-1.57885e-07
-1.57885e-07
-1.57885e-07
-1.57885e-07
-1.57885e-07
-1.57885e-07
-1.57885e-07
-1.57885e-07
-1.57885e-07
-1.57885e-07
-1.57885e-07
-1.57885e-07
-1.57885e-07
-1.57885e-07
-1.57885e-07
-1.57885e-07
-1.57885e-07
-1.57885e-07
-1.57885e-07
-1.57885e-07
-1.57885e-07
-1.57885e-07
-1.57885e-07
-1.57885e-07
-1.57885e-07
-1.57885e-07
-1.57885e-07
-1.57885e-07
-1.57885e-07
-1.57885e-07
-1.57885e-07
-1.57885e-07
-1.57885e-07
-1.57885e-07
-1.57885e-07
-1.57885e-07
-1.57885e-07
-1.57885e-07
-1.57885e-07
-1.57885e-07
-1.57885e-07
-1.57885e-07
-1.57885e-07
-1.57885e-07
-1.57885e-07
-1.57885e-07
-1.57885e-07
-1.57885e-07
-1.57885e-07
-1.57885e-07
-1.57885e-07
-1.57885e-07
-1.57885e-07
-1.57885e-07
-1.57885e-07
-1.57885e-07
-1.57885e-07
-1.57885e-07
-1.57885e-07
-1.57885e-07
-1.57885e-07
-1.57885e-07
-1.57885e-07
-1.57885e-07
-1.57885e-07
-1.57885e-07
-1.57885e-07
-1.57885e-07
-1.57885e-07
-1.57885e-07
-1.57885e-07
-1.57885e-07
-1.57885e-07
-1.57885e-07
-1.57885e-07
-1.57885e-07
-1.57885e-07
-1.57885e-07
-1.57885e-07
-1.57885e-07
-1.57885e-07
-1.57885e-07
-1.57885e-07
-1.57885e-07
-1.57885e-07
-1.57885e-07
-1.57885e-07
-1.57885e-07
-1.57885e-07
-1.57885e-07
-1.57885e-07
-1.57885e-07
-1.57885e-07
-1.57885e-07
-1.57867e-07
-1.57158e-07
-1.32118e-07
)
;

boundaryField
{
    inandouthalf11
    {
        type            cyclic;
        value           nonuniform List<scalar> 
100
(
9.69594e-39
6.56818e-14
1.87789e-13
3.13889e-13
4.28597e-13
5.36585e-13
6.46455e-13
7.66271e-13
9.01801e-13
1.05631e-12
1.231e-12
1.42341e-12
1.62302e-12
1.80852e-12
1.95502e-12
2.05024e-12
2.10168e-12
2.12625e-12
2.1378e-12
2.14379e-12
2.14752e-12
2.15038e-12
2.15304e-12
2.15585e-12
2.15905e-12
2.16273e-12
2.16693e-12
2.17156e-12
2.17652e-12
2.18166e-12
2.1869e-12
2.19217e-12
2.19746e-12
2.20278e-12
2.20816e-12
2.21363e-12
2.21922e-12
2.22495e-12
2.23085e-12
2.23692e-12
2.24317e-12
2.2496e-12
2.2562e-12
2.26298e-12
2.26996e-12
2.27712e-12
2.2845e-12
2.29208e-12
2.29991e-12
2.308e-12
2.31639e-12
2.3251e-12
2.33414e-12
2.34355e-12
2.35336e-12
2.3636e-12
2.37429e-12
2.38547e-12
2.39716e-12
2.40936e-12
2.42207e-12
2.43528e-12
2.44894e-12
2.46302e-12
2.47746e-12
2.49224e-12
2.50735e-12
2.52282e-12
2.53873e-12
2.55517e-12
2.57226e-12
2.59012e-12
2.60883e-12
2.62846e-12
2.64904e-12
2.67052e-12
2.69284e-12
2.71589e-12
2.73957e-12
2.76381e-12
2.78854e-12
2.81377e-12
2.83953e-12
2.86586e-12
2.89281e-12
2.92044e-12
2.94875e-12
2.97774e-12
3.00736e-12
3.03757e-12
3.06829e-12
3.09947e-12
3.13105e-12
3.16302e-12
3.19535e-12
3.22804e-12
3.26107e-12
3.29446e-12
3.32818e-12
3.36225e-12
)
;
    }
    inandouthalf12
    {
        type            cyclic;
        value           nonuniform List<scalar> 
100
(
-9.69594e-39
-6.56818e-14
-1.87789e-13
-3.13889e-13
-4.28597e-13
-5.36585e-13
-6.46455e-13
-7.66271e-13
-9.01801e-13
-1.05631e-12
-1.231e-12
-1.42341e-12
-1.62302e-12
-1.80852e-12
-1.95502e-12
-2.05024e-12
-2.10168e-12
-2.12625e-12
-2.1378e-12
-2.14379e-12
-2.14752e-12
-2.15038e-12
-2.15304e-12
-2.15585e-12
-2.15905e-12
-2.16273e-12
-2.16693e-12
-2.17156e-12
-2.17652e-12
-2.18166e-12
-2.1869e-12
-2.19217e-12
-2.19746e-12
-2.20278e-12
-2.20816e-12
-2.21363e-12
-2.21922e-12
-2.22495e-12
-2.23085e-12
-2.23692e-12
-2.24317e-12
-2.2496e-12
-2.2562e-12
-2.26298e-12
-2.26996e-12
-2.27712e-12
-2.2845e-12
-2.29208e-12
-2.29991e-12
-2.308e-12
-2.31639e-12
-2.3251e-12
-2.33414e-12
-2.34355e-12
-2.35336e-12
-2.3636e-12
-2.37429e-12
-2.38547e-12
-2.39716e-12
-2.40936e-12
-2.42207e-12
-2.43528e-12
-2.44894e-12
-2.46302e-12
-2.47746e-12
-2.49224e-12
-2.50735e-12
-2.52282e-12
-2.53873e-12
-2.55517e-12
-2.57226e-12
-2.59012e-12
-2.60883e-12
-2.62846e-12
-2.64904e-12
-2.67052e-12
-2.69284e-12
-2.71589e-12
-2.73957e-12
-2.76381e-12
-2.78854e-12
-2.81377e-12
-2.83953e-12
-2.86586e-12
-2.89281e-12
-2.92044e-12
-2.94875e-12
-2.97774e-12
-3.00736e-12
-3.03757e-12
-3.06829e-12
-3.09947e-12
-3.13105e-12
-3.16302e-12
-3.19535e-12
-3.22804e-12
-3.26107e-12
-3.29446e-12
-3.32818e-12
-3.36225e-12
)
;
    }
    inandouthalf21
    {
        type            cyclic;
        value           nonuniform List<scalar> 
100
(
3.39664e-12
3.43135e-12
3.46635e-12
3.50165e-12
3.53721e-12
3.57301e-12
3.60903e-12
3.64523e-12
3.68158e-12
3.71804e-12
3.75455e-12
3.79106e-12
3.82754e-12
3.86392e-12
3.90018e-12
3.93628e-12
3.97222e-12
4.00801e-12
4.0437e-12
4.07937e-12
4.11517e-12
4.15127e-12
4.18793e-12
4.22546e-12
4.26424e-12
4.30473e-12
4.34747e-12
4.39308e-12
4.44223e-12
4.49556e-12
4.55361e-12
4.61671e-12
4.68488e-12
4.75785e-12
4.83495e-12
4.91469e-12
4.99463e-12
5.07168e-12
5.14285e-12
5.20473e-12
5.25242e-12
5.2821e-12
5.29636e-12
5.30161e-12
5.30312e-12
5.30379e-12
5.30472e-12
1.10099e-11
3.14064e-11
3.39551e-10
6.69765e-08
9.81351e-08
1.05852e-07
1.06883e-07
1.05107e-07
1.0186e-07
9.77188e-08
9.2978e-08
8.78089e-08
8.23206e-08
7.65877e-08
7.06649e-08
6.45937e-08
5.84071e-08
5.21325e-08
4.57932e-08
3.94097e-08
3.30006e-08
2.6583e-08
2.01735e-08
1.37877e-08
7.44116e-09
1.14895e-09
-5.07389e-09
-1.12126e-08
-1.72526e-08
-2.318e-08
-2.89812e-08
-3.46436e-08
-4.01553e-08
-4.55055e-08
-5.06843e-08
-5.56827e-08
-6.04923e-08
-6.5105e-08
-6.95127e-08
-7.37072e-08
-7.76805e-08
-8.14256e-08
-8.49375e-08
-8.82149e-08
-9.12622e-08
-9.4092e-08
-9.67255e-08
-9.91904e-08
-1.01516e-07
-1.03726e-07
-1.05837e-07
-1.07859e-07
-1.09795e-07
)
;
    }
    inandouthalf22
    {
        type            cyclic;
        value           nonuniform List<scalar> 
100
(
-3.39664e-12
-3.43135e-12
-3.46635e-12
-3.50165e-12
-3.53721e-12
-3.57301e-12
-3.60903e-12
-3.64523e-12
-3.68158e-12
-3.71804e-12
-3.75455e-12
-3.79106e-12
-3.82754e-12
-3.86392e-12
-3.90018e-12
-3.93628e-12
-3.97222e-12
-4.00801e-12
-4.0437e-12
-4.07937e-12
-4.11517e-12
-4.15127e-12
-4.18793e-12
-4.22546e-12
-4.26424e-12
-4.30473e-12
-4.34747e-12
-4.39308e-12
-4.44223e-12
-4.49556e-12
-4.55361e-12
-4.61671e-12
-4.68488e-12
-4.75785e-12
-4.83495e-12
-4.91469e-12
-4.99463e-12
-5.07168e-12
-5.14285e-12
-5.20473e-12
-5.25242e-12
-5.2821e-12
-5.29636e-12
-5.30161e-12
-5.30312e-12
-5.30379e-12
-5.30472e-12
-1.10099e-11
-3.14064e-11
-3.39551e-10
-6.69765e-08
-9.81351e-08
-1.05852e-07
-1.06883e-07
-1.05107e-07
-1.0186e-07
-9.77188e-08
-9.2978e-08
-8.78089e-08
-8.23206e-08
-7.65877e-08
-7.06649e-08
-6.45937e-08
-5.84071e-08
-5.21325e-08
-4.57932e-08
-3.94097e-08
-3.30006e-08
-2.6583e-08
-2.01735e-08
-1.37877e-08
-7.44116e-09
-1.14895e-09
5.07389e-09
1.12126e-08
1.72526e-08
2.318e-08
2.89812e-08
3.46436e-08
4.01553e-08
4.55055e-08
5.06843e-08
5.56827e-08
6.04923e-08
6.5105e-08
6.95127e-08
7.37072e-08
7.76805e-08
8.14256e-08
8.49375e-08
8.82149e-08
9.12622e-08
9.4092e-08
9.67255e-08
9.91904e-08
1.01516e-07
1.03726e-07
1.05837e-07
1.07859e-07
1.09795e-07
)
;
    }
    inandouthalf31
    {
        type            cyclic;
        value           nonuniform List<scalar> 
110
(
-1.11649e-07
-1.15743e-07
-1.19911e-07
-1.24159e-07
-1.28493e-07
-1.32911e-07
-1.37414e-07
-1.42013e-07
-1.46711e-07
-1.51501e-07
-1.56388e-07
-1.61381e-07
-1.66473e-07
-1.71671e-07
-1.76981e-07
-1.82402e-07
-1.87941e-07
-1.93616e-07
-1.99418e-07
-2.05347e-07
-2.1142e-07
-2.17641e-07
-2.24011e-07
-2.30533e-07
-2.37206e-07
-2.44049e-07
-2.51068e-07
-2.58253e-07
-2.65622e-07
-2.73181e-07
-2.80926e-07
-2.88868e-07
-2.97012e-07
-3.05353e-07
-3.1389e-07
-3.2263e-07
-3.31568e-07
-3.40693e-07
-3.50026e-07
-3.5948e-07
-3.68667e-07
-3.77988e-07
-5.65616e-07
-5.77105e-07
-5.88825e-07
-6.00783e-07
-6.12982e-07
-6.25428e-07
-6.38127e-07
-6.51082e-07
-6.643e-07
-6.77785e-07
-6.91544e-07
-7.05582e-07
-7.19905e-07
-7.34518e-07
-7.49427e-07
-7.64639e-07
-7.8016e-07
-7.95996e-07
-8.12152e-07
-8.28637e-07
-8.45457e-07
-8.62617e-07
-8.80126e-07
-8.97991e-07
-9.16217e-07
-9.34814e-07
-9.53789e-07
-9.73148e-07
-9.929e-07
-1.01305e-06
-1.03362e-06
-1.0546e-06
-1.076e-06
-1.09784e-06
-1.12012e-06
-1.14286e-06
-1.16606e-06
-1.18972e-06
-1.21387e-06
-1.23851e-06
-1.26365e-06
-1.2893e-06
-1.31547e-06
-1.34217e-06
-1.36941e-06
-1.39721e-06
-1.42557e-06
-1.4545e-06
-1.48402e-06
-1.51415e-06
-1.54488e-06
-1.57624e-06
-1.60823e-06
-1.64087e-06
-1.67418e-06
-1.70816e-06
-1.74283e-06
-1.7782e-06
-1.8143e-06
-1.85112e-06
-1.88869e-06
-1.92703e-06
-1.96614e-06
-2.00605e-06
-2.04677e-06
-2.08831e-06
-2.1307e-06
-2.17395e-06
)
;
    }
    inandouthalf32
    {
        type            cyclic;
        value           nonuniform List<scalar> 
110
(
1.11649e-07
1.15743e-07
1.19911e-07
1.24159e-07
1.28493e-07
1.32911e-07
1.37414e-07
1.42013e-07
1.46711e-07
1.51501e-07
1.56388e-07
1.61381e-07
1.66473e-07
1.71671e-07
1.76981e-07
1.82402e-07
1.87941e-07
1.93616e-07
1.99418e-07
2.05347e-07
2.1142e-07
2.17641e-07
2.24011e-07
2.30533e-07
2.37206e-07
2.44049e-07
2.51068e-07
2.58253e-07
2.65622e-07
2.73181e-07
2.80926e-07
2.88868e-07
2.97012e-07
3.05353e-07
3.1389e-07
3.2263e-07
3.31568e-07
3.40693e-07
3.50026e-07
3.5948e-07
3.68667e-07
3.77988e-07
5.65616e-07
5.77105e-07
5.88825e-07
6.00783e-07
6.12982e-07
6.25428e-07
6.38127e-07
6.51082e-07
6.643e-07
6.77785e-07
6.91544e-07
7.05582e-07
7.19905e-07
7.34518e-07
7.49427e-07
7.64639e-07
7.8016e-07
7.95996e-07
8.12152e-07
8.28637e-07
8.45457e-07
8.62617e-07
8.80126e-07
8.97991e-07
9.16217e-07
9.34814e-07
9.53789e-07
9.73148e-07
9.929e-07
1.01305e-06
1.03362e-06
1.0546e-06
1.076e-06
1.09784e-06
1.12012e-06
1.14286e-06
1.16606e-06
1.18972e-06
1.21387e-06
1.23851e-06
1.26365e-06
1.2893e-06
1.31547e-06
1.34217e-06
1.36941e-06
1.39721e-06
1.42557e-06
1.4545e-06
1.48402e-06
1.51415e-06
1.54488e-06
1.57624e-06
1.60823e-06
1.64087e-06
1.67418e-06
1.70816e-06
1.74283e-06
1.7782e-06
1.8143e-06
1.85112e-06
1.88869e-06
1.92703e-06
1.96614e-06
2.00605e-06
2.04677e-06
2.08831e-06
2.1307e-06
2.17395e-06
)
;
    }
    inandouthalf41
    {
        type            cyclic;
        value           nonuniform List<scalar> 
50
(
-1.9459e-06
-1.9459e-06
-1.9459e-06
-1.9459e-06
-1.9459e-06
-1.9459e-06
-1.9459e-06
-1.9459e-06
-1.9459e-06
-1.9459e-06
-1.9459e-06
-1.9459e-06
-1.9459e-06
-1.9459e-06
-1.9459e-06
-1.9459e-06
-1.9459e-06
-1.9459e-06
-1.9459e-06
-1.9459e-06
-1.9459e-06
-1.9459e-06
-1.9459e-06
-1.9459e-06
-1.9459e-06
-1.9459e-06
-1.9459e-06
-1.9459e-06
-1.9459e-06
-1.9459e-06
-1.9459e-06
-1.9459e-06
-1.9459e-06
-1.9459e-06
-1.9459e-06
-1.9459e-06
-1.9459e-06
-1.9459e-06
-1.9459e-06
-1.9459e-06
-1.9459e-06
-1.9459e-06
-1.9459e-06
-1.9459e-06
-1.9459e-06
-1.9459e-06
-1.9459e-06
-1.94592e-06
-1.9462e-06
-1.9527e-06
)
;
    }
    inandouthalf42
    {
        type            cyclic;
        value           nonuniform List<scalar> 
50
(
1.9459e-06
1.9459e-06
1.9459e-06
1.9459e-06
1.9459e-06
1.9459e-06
1.9459e-06
1.9459e-06
1.9459e-06
1.9459e-06
1.9459e-06
1.9459e-06
1.9459e-06
1.9459e-06
1.9459e-06
1.9459e-06
1.9459e-06
1.9459e-06
1.9459e-06
1.9459e-06
1.9459e-06
1.9459e-06
1.9459e-06
1.9459e-06
1.9459e-06
1.9459e-06
1.9459e-06
1.9459e-06
1.9459e-06
1.9459e-06
1.9459e-06
1.9459e-06
1.9459e-06
1.9459e-06
1.9459e-06
1.9459e-06
1.9459e-06
1.9459e-06
1.9459e-06
1.9459e-06
1.9459e-06
1.9459e-06
1.9459e-06
1.9459e-06
1.9459e-06
1.9459e-06
1.9459e-06
1.94592e-06
1.9462e-06
1.9527e-06
)
;
    }
    top
    {
        type            symmetryPlane;
        value           uniform 0;
    }
    walls
    {
        type            fixedValue;
        value           uniform 0;
    }
    frontAndBackPlanes
    {
        type            empty;
        value           nonuniform 0();
    }
}


// ************************************************************************* //
