/*--------------------------------*- C++ -*----------------------------------*\
| =========                 |                                                 |
| \\      /  F ield         | OpenFOAM: The Open Source CFD Toolbox           |
|  \\    /   O peration     | Version:  2.4.x                                 |
|   \\  /    A nd           | Web:      www.OpenFOAM.org                      |
|    \\/     M anipulation  |                                                 |
\*---------------------------------------------------------------------------*/
FoamFile
{
    version     2.0;
    format      ascii;
    class       surfaceScalarField;
    location    "3";
    object      phib_0;
}
// * * * * * * * * * * * * * * * * * * * * * * * * * * * * * * * * * * * * * //

dimensions      [0 3 -1 0 0 0 0];

internalField   nonuniform List<scalar> 
359
(
1.03737e-12
3.74538e-12
7.02139e-12
1.01165e-11
1.29479e-11
1.57269e-11
1.87001e-11
2.20612e-11
2.59271e-11
3.03686e-11
3.53969e-11
4.08672e-11
4.63584e-11
5.11858e-11
5.47488e-11
5.69225e-11
5.8046e-11
5.85745e-11
5.88264e-11
5.89624e-11
5.90513e-11
5.91227e-11
5.91905e-11
5.92621e-11
5.93414e-11
5.94295e-11
5.95252e-11
5.96264e-11
5.97302e-11
5.98343e-11
5.9937e-11
6.00377e-11
6.01364e-11
6.02335e-11
6.03297e-11
6.04255e-11
6.05214e-11
6.06177e-11
6.07149e-11
6.08128e-11
6.09114e-11
6.1011e-11
6.11113e-11
6.12123e-11
6.13144e-11
6.14175e-11
6.15219e-11
6.16276e-11
6.17348e-11
6.18442e-11
6.19561e-11
6.20706e-11
6.2188e-11
6.23087e-11
6.2433e-11
6.25614e-11
6.26941e-11
6.28314e-11
6.29735e-11
6.31203e-11
6.32719e-11
6.34279e-11
6.35877e-11
6.37508e-11
6.39168e-11
6.40852e-11
6.42563e-11
6.44307e-11
6.46093e-11
6.47932e-11
6.49839e-11
6.51828e-11
6.53906e-11
6.56078e-11
6.58344e-11
6.60699e-11
6.63131e-11
6.65628e-11
6.6818e-11
6.70779e-11
6.73422e-11
6.7611e-11
6.78848e-11
6.81643e-11
6.845e-11
6.87423e-11
6.90413e-11
6.93467e-11
6.96579e-11
6.99743e-11
7.02953e-11
7.06201e-11
7.09485e-11
7.12802e-11
7.1615e-11
7.1953e-11
7.22941e-11
7.26384e-11
7.29858e-11
7.33361e-11
7.36894e-11
7.40455e-11
7.44042e-11
7.47654e-11
7.51289e-11
7.54944e-11
7.58615e-11
7.62299e-11
7.65992e-11
7.69689e-11
7.73384e-11
7.77072e-11
7.80748e-11
7.84406e-11
7.88044e-11
7.91658e-11
7.95248e-11
7.98818e-11
8.02375e-11
8.0593e-11
8.09501e-11
8.13112e-11
8.16793e-11
8.20582e-11
8.24527e-11
8.28682e-11
8.33112e-11
8.37889e-11
8.43086e-11
8.48771e-11
8.54991e-11
8.61762e-11
8.69062e-11
8.7683e-11
8.84949e-11
8.932e-11
9.01248e-11
9.08709e-11
9.15201e-11
9.20311e-11
9.23617e-11
9.24812e-11
9.24244e-11
9.22505e-11
9.19621e-11
9.10775e-11
1.11438e-10
1.45586e-10
1.97424e-10
2.88431e-09
1.91879e-09
1.38606e-09
1.17696e-09
1.05788e-09
9.53905e-10
8.59536e-10
7.74181e-10
6.96854e-10
6.26708e-10
5.63008e-10
5.05121e-10
4.52495e-10
4.04651e-10
3.61166e-10
3.21665e-10
2.85814e-10
2.53311e-10
2.23884e-10
1.97284e-10
1.73285e-10
1.5168e-10
1.32279e-10
1.14908e-10
9.94075e-11
8.56306e-11
7.34407e-11
6.2708e-11
5.33049e-11
4.51034e-11
3.79742e-11
3.17893e-11
2.6427e-11
2.17762e-11
1.77403e-11
1.42386e-11
1.12064e-11
8.59379e-12
6.36598e-12
4.5034e-12
2.99999e-12
1.85487e-12
1.05491e-12
5.55323e-13
2.79212e-13
1.41997e-13
7.80796e-14
4.87071e-14
3.48407e-14
2.79578e-14
2.43492e-14
2.23562e-14
2.11144e-14
2.01563e-14
1.9351e-14
1.87254e-14
1.81013e-14
1.73066e-14
1.65046e-14
1.57892e-14
1.49785e-14
1.40684e-14
1.31906e-14
1.22867e-14
1.13475e-14
1.04808e-14
9.6116e-15
8.71486e-15
7.93772e-15
7.22959e-15
6.50391e-15
5.83585e-15
5.23356e-15
4.67825e-15
4.17845e-15
3.69261e-15
3.24503e-15
2.86608e-15
2.50586e-15
2.17805e-15
1.89571e-15
1.63577e-15
1.40486e-15
1.20377e-15
1.02699e-15
8.66922e-16
7.26357e-16
6.06153e-16
4.93778e-16
4.15098e-16
4.4397e-16
6.46469e-16
2.00137e-15
-1.30855e-17
-1.30514e-17
-1.29201e-17
-1.28257e-17
-1.26316e-17
-1.24808e-17
-1.22389e-17
-1.20456e-17
-1.17357e-17
-1.14838e-17
-1.11333e-17
-1.08208e-17
-1.04175e-17
-1.00543e-17
-9.61696e-18
-9.21375e-18
-8.74147e-18
-8.30228e-18
-7.81936e-18
-7.37572e-18
-6.9093e-18
-6.51153e-18
-6.15214e-18
-5.85942e-18
-5.54369e-18
-5.28767e-18
-5.0497e-18
-4.82227e-18
-4.59054e-18
-4.36554e-18
-4.17688e-18
-3.99222e-18
-3.80569e-18
-3.60636e-18
-3.4193e-18
-3.21871e-18
-3.01689e-18
-2.80942e-18
-2.63823e-18
-2.46753e-18
-2.30147e-18
-2.13054e-18
-1.96627e-18
-1.80173e-18
-1.58682e-18
-1.42461e-18
-1.26016e-18
-1.10184e-18
-9.43581e-19
-7.93491e-19
-6.42173e-19
-5.00781e-19
-3.66038e-19
-2.46276e-19
-3.71e-19
-3.2586e-19
-2.89531e-19
-2.42969e-19
-2.1615e-19
-1.9915e-19
-1.82861e-19
-1.76634e-19
-1.58206e-19
-1.51639e-19
-1.44336e-19
-1.51247e-19
-1.48523e-19
-1.59402e-19
-1.68675e-19
-1.85628e-19
-1.9264e-19
-2.05488e-19
-2.18699e-19
-2.36659e-19
-2.52456e-19
-2.70616e-19
-2.90204e-19
-3.10223e-19
-3.45885e-19
-3.7737e-19
-4.11318e-19
-4.36665e-19
-4.93924e-19
-5.34523e-19
-6.04888e-19
-6.69795e-19
-1.12487e-18
-1.54685e-18
-1.99617e-18
-2.35728e-18
-2.82632e-18
-3.15942e-18
-3.50149e-18
-3.68631e-18
-4.17973e-18
-4.46063e-18
-4.74594e-18
-4.75947e-18
-5.0059e-18
-4.93653e-18
-4.89013e-18
-4.55263e-18
-4.88145e-18
-4.87029e-18
-4.87656e-18
-4.4599e-18
-4.35466e-18
-3.83635e-18
-3.30313e-18
-2.34645e-18
-1.89382e-18
-1.16735e-18
-4.22195e-19
7.08581e-19
1.27937e-18
2.89333e-18
5.52019e-18
)
;

boundaryField
{
    inandouthalf11
    {
        type            cyclic;
        value           nonuniform List<scalar> 
100
(
2.74431e-10
2.74441e-10
2.7426e-10
2.74345e-10
2.74496e-10
2.74668e-10
2.74869e-10
2.75086e-10
2.75304e-10
2.75538e-10
2.75803e-10
2.76099e-10
2.76414e-10
2.76709e-10
2.76944e-10
2.77098e-10
2.77183e-10
2.77224e-10
2.77243e-10
2.77255e-10
2.7726e-10
2.77267e-10
2.77273e-10
2.77279e-10
2.77286e-10
2.77294e-10
2.77302e-10
2.77313e-10
2.77324e-10
2.77336e-10
2.77348e-10
2.77362e-10
2.77373e-10
2.77389e-10
2.77403e-10
2.77419e-10
2.77435e-10
2.77453e-10
2.77473e-10
2.77492e-10
2.77515e-10
2.77538e-10
2.77561e-10
2.77588e-10
2.77616e-10
2.77645e-10
2.77677e-10
2.77709e-10
2.77745e-10
2.77785e-10
2.77825e-10
2.77868e-10
2.77914e-10
2.77964e-10
2.78015e-10
2.78071e-10
2.78129e-10
2.78192e-10
2.78257e-10
2.78324e-10
2.78397e-10
2.7847e-10
2.78547e-10
2.78626e-10
2.78706e-10
2.78788e-10
2.78873e-10
2.78961e-10
2.79052e-10
2.79145e-10
2.79244e-10
2.79347e-10
2.79452e-10
2.79562e-10
2.79674e-10
2.79791e-10
2.79909e-10
2.80029e-10
2.80153e-10
2.8028e-10
2.80409e-10
2.80542e-10
2.80678e-10
2.80818e-10
2.80962e-10
2.81109e-10
2.81259e-10
2.81413e-10
2.8157e-10
2.8173e-10
2.81893e-10
2.8206e-10
2.8223e-10
2.82404e-10
2.82582e-10
2.82763e-10
2.82948e-10
2.83138e-10
2.83331e-10
2.83528e-10
)
;
    }
    inandouthalf12
    {
        type            cyclic;
        value           nonuniform List<scalar> 
100
(
-2.74431e-10
-2.74441e-10
-2.7426e-10
-2.74345e-10
-2.74496e-10
-2.74668e-10
-2.74869e-10
-2.75086e-10
-2.75304e-10
-2.75538e-10
-2.75803e-10
-2.76099e-10
-2.76414e-10
-2.76709e-10
-2.76944e-10
-2.77098e-10
-2.77183e-10
-2.77224e-10
-2.77243e-10
-2.77255e-10
-2.7726e-10
-2.77267e-10
-2.77273e-10
-2.77279e-10
-2.77286e-10
-2.77294e-10
-2.77302e-10
-2.77313e-10
-2.77324e-10
-2.77336e-10
-2.77348e-10
-2.77362e-10
-2.77373e-10
-2.77389e-10
-2.77403e-10
-2.77419e-10
-2.77435e-10
-2.77453e-10
-2.77473e-10
-2.77492e-10
-2.77515e-10
-2.77538e-10
-2.77561e-10
-2.77588e-10
-2.77616e-10
-2.77645e-10
-2.77677e-10
-2.77709e-10
-2.77745e-10
-2.77785e-10
-2.77825e-10
-2.77868e-10
-2.77914e-10
-2.77964e-10
-2.78015e-10
-2.78071e-10
-2.78129e-10
-2.78192e-10
-2.78257e-10
-2.78324e-10
-2.78397e-10
-2.7847e-10
-2.78547e-10
-2.78626e-10
-2.78706e-10
-2.78788e-10
-2.78873e-10
-2.78961e-10
-2.79052e-10
-2.79145e-10
-2.79244e-10
-2.79347e-10
-2.79452e-10
-2.79562e-10
-2.79674e-10
-2.79791e-10
-2.79909e-10
-2.80029e-10
-2.80153e-10
-2.8028e-10
-2.80409e-10
-2.80542e-10
-2.80678e-10
-2.80818e-10
-2.80962e-10
-2.81109e-10
-2.81259e-10
-2.81413e-10
-2.8157e-10
-2.8173e-10
-2.81893e-10
-2.8206e-10
-2.8223e-10
-2.82404e-10
-2.82582e-10
-2.82763e-10
-2.82948e-10
-2.83138e-10
-2.83331e-10
-2.83528e-10
)
;
    }
    inandouthalf21
    {
        type            cyclic;
        value           nonuniform List<scalar> 
100
(
2.8373e-10
2.83936e-10
2.84146e-10
2.84361e-10
2.84581e-10
2.84806e-10
2.85036e-10
2.85271e-10
2.85511e-10
2.85757e-10
2.86009e-10
2.86267e-10
2.86531e-10
2.86802e-10
2.87079e-10
2.87364e-10
2.87656e-10
2.87956e-10
2.88264e-10
2.88581e-10
2.88908e-10
2.89245e-10
2.89593e-10
2.89952e-10
2.90324e-10
2.90711e-10
2.91112e-10
2.9153e-10
2.91966e-10
2.92423e-10
2.92901e-10
2.93401e-10
2.93926e-10
2.94478e-10
2.95065e-10
2.95683e-10
2.96325e-10
2.96997e-10
2.97724e-10
2.98539e-10
2.99404e-10
3.00208e-10
3.0115e-10
3.02373e-10
3.03873e-10
3.06249e-10
3.15602e-10
3.21738e-10
3.47875e-10
1.07687e-09
8.23562e-08
1.0896e-07
1.14514e-07
1.14749e-07
1.12788e-07
1.0959e-07
1.05583e-07
1.00998e-07
9.59782e-08
9.06229e-08
8.50021e-08
7.91684e-08
7.31621e-08
6.70147e-08
6.07517e-08
5.43935e-08
4.79568e-08
4.14558e-08
3.4902e-08
2.83053e-08
2.16743e-08
1.50161e-08
8.33707e-09
1.6427e-09
-5.06215e-09
-1.17732e-08
-1.84865e-08
-2.51985e-08
-3.1906e-08
-3.86061e-08
-4.52958e-08
-5.19726e-08
-5.86339e-08
-6.52773e-08
-7.19005e-08
-7.85012e-08
-8.5077e-08
-9.16258e-08
-9.81451e-08
-1.04632e-07
-1.11085e-07
-1.17499e-07
-1.23871e-07
-1.30198e-07
-1.36475e-07
-1.42697e-07
-1.48859e-07
-1.54956e-07
-1.60983e-07
-1.66933e-07
)
;
    }
    inandouthalf22
    {
        type            cyclic;
        value           nonuniform List<scalar> 
100
(
-2.8373e-10
-2.83936e-10
-2.84146e-10
-2.84361e-10
-2.84581e-10
-2.84806e-10
-2.85036e-10
-2.85271e-10
-2.85511e-10
-2.85757e-10
-2.86009e-10
-2.86267e-10
-2.86531e-10
-2.86802e-10
-2.87079e-10
-2.87364e-10
-2.87656e-10
-2.87956e-10
-2.88264e-10
-2.88581e-10
-2.88908e-10
-2.89245e-10
-2.89593e-10
-2.89952e-10
-2.90324e-10
-2.90711e-10
-2.91112e-10
-2.9153e-10
-2.91966e-10
-2.92423e-10
-2.92901e-10
-2.93401e-10
-2.93926e-10
-2.94478e-10
-2.95065e-10
-2.95683e-10
-2.96325e-10
-2.96997e-10
-2.97724e-10
-2.98539e-10
-2.99404e-10
-3.00208e-10
-3.0115e-10
-3.02373e-10
-3.03873e-10
-3.06249e-10
-3.15602e-10
-3.21738e-10
-3.47875e-10
-1.07687e-09
-8.23562e-08
-1.0896e-07
-1.14514e-07
-1.14749e-07
-1.12788e-07
-1.0959e-07
-1.05583e-07
-1.00998e-07
-9.59782e-08
-9.06229e-08
-8.50021e-08
-7.91684e-08
-7.31621e-08
-6.70147e-08
-6.07517e-08
-5.43935e-08
-4.79568e-08
-4.14558e-08
-3.4902e-08
-2.83053e-08
-2.16743e-08
-1.50161e-08
-8.33707e-09
-1.6427e-09
5.06215e-09
1.17732e-08
1.84865e-08
2.51985e-08
3.1906e-08
3.86061e-08
4.52958e-08
5.19726e-08
5.86339e-08
6.52773e-08
7.19005e-08
7.85012e-08
8.5077e-08
9.16258e-08
9.81451e-08
1.04632e-07
1.11085e-07
1.17499e-07
1.23871e-07
1.30198e-07
1.36475e-07
1.42697e-07
1.48859e-07
1.54956e-07
1.60983e-07
1.66933e-07
)
;
    }
    inandouthalf31
    {
        type            cyclic;
        value           nonuniform List<scalar> 
110
(
-1.72801e-07
-1.82262e-07
-1.9205e-07
-2.02159e-07
-2.12578e-07
-2.23287e-07
-2.3426e-07
-2.45455e-07
-2.56809e-07
-2.68229e-07
-2.79565e-07
-2.90579e-07
-3.00242e-07
-3.07349e-07
-3.13807e-07
-3.20345e-07
-3.27004e-07
-3.33787e-07
-3.40696e-07
-3.47735e-07
-3.54908e-07
-3.62217e-07
-3.69666e-07
-3.77257e-07
-3.84995e-07
-3.92883e-07
-4.00925e-07
-4.09123e-07
-4.17482e-07
-4.26005e-07
-4.34696e-07
-4.43559e-07
-4.52598e-07
-4.61816e-07
-4.71218e-07
-4.80808e-07
-4.90589e-07
-5.00566e-07
-5.10743e-07
-5.21124e-07
-5.31714e-07
-5.42517e-07
-5.5354e-07
-5.64784e-07
-5.76255e-07
-5.87957e-07
-5.99897e-07
-6.12077e-07
-6.24505e-07
-6.37184e-07
-6.50119e-07
-6.63317e-07
-6.76783e-07
-6.90521e-07
-7.04538e-07
-7.18839e-07
-7.33431e-07
-7.48318e-07
-7.63507e-07
-7.79005e-07
-7.94817e-07
-8.1095e-07
-8.2741e-07
-8.44205e-07
-8.6134e-07
-8.78823e-07
-8.96661e-07
-9.1486e-07
-9.3343e-07
-9.52376e-07
-9.71707e-07
-9.9143e-07
-1.01155e-06
-1.03209e-06
-1.05303e-06
-1.07441e-06
-1.09621e-06
-1.11847e-06
-1.14117e-06
-1.16433e-06
-1.18796e-06
-1.21207e-06
-1.23668e-06
-1.26178e-06
-1.28739e-06
-1.31352e-06
-1.34018e-06
-1.36738e-06
-1.39514e-06
-1.42345e-06
-1.45235e-06
-1.48183e-06
-1.5119e-06
-1.54259e-06
-1.5739e-06
-1.60585e-06
-1.63844e-06
-1.6717e-06
-1.70563e-06
-1.74025e-06
-1.77557e-06
-1.81161e-06
-1.84838e-06
-1.8859e-06
-1.92418e-06
-1.96323e-06
-2.00308e-06
-2.04374e-06
-2.08522e-06
-2.12754e-06
)
;
    }
    inandouthalf32
    {
        type            cyclic;
        value           nonuniform List<scalar> 
110
(
1.72801e-07
1.82262e-07
1.9205e-07
2.02159e-07
2.12578e-07
2.23287e-07
2.3426e-07
2.45455e-07
2.56809e-07
2.68229e-07
2.79565e-07
2.90579e-07
3.00242e-07
3.07349e-07
3.13807e-07
3.20345e-07
3.27004e-07
3.33787e-07
3.40696e-07
3.47735e-07
3.54908e-07
3.62217e-07
3.69666e-07
3.77257e-07
3.84995e-07
3.92883e-07
4.00925e-07
4.09123e-07
4.17482e-07
4.26005e-07
4.34696e-07
4.43559e-07
4.52598e-07
4.61816e-07
4.71218e-07
4.80808e-07
4.90589e-07
5.00566e-07
5.10743e-07
5.21124e-07
5.31714e-07
5.42517e-07
5.5354e-07
5.64784e-07
5.76255e-07
5.87957e-07
5.99897e-07
6.12077e-07
6.24505e-07
6.37184e-07
6.50119e-07
6.63317e-07
6.76783e-07
6.90521e-07
7.04538e-07
7.18839e-07
7.33431e-07
7.48318e-07
7.63507e-07
7.79005e-07
7.94817e-07
8.1095e-07
8.2741e-07
8.44205e-07
8.6134e-07
8.78823e-07
8.96661e-07
9.1486e-07
9.3343e-07
9.52376e-07
9.71707e-07
9.9143e-07
1.01155e-06
1.03209e-06
1.05303e-06
1.07441e-06
1.09621e-06
1.11847e-06
1.14117e-06
1.16433e-06
1.18796e-06
1.21207e-06
1.23668e-06
1.26178e-06
1.28739e-06
1.31352e-06
1.34018e-06
1.36738e-06
1.39514e-06
1.42345e-06
1.45235e-06
1.48183e-06
1.5119e-06
1.54259e-06
1.5739e-06
1.60585e-06
1.63844e-06
1.6717e-06
1.70563e-06
1.74025e-06
1.77557e-06
1.81161e-06
1.84838e-06
1.8859e-06
1.92418e-06
1.96323e-06
2.00308e-06
2.04374e-06
2.08522e-06
2.12754e-06
)
;
    }
    inandouthalf41
    {
        type            cyclic;
        value           nonuniform List<scalar> 
50
(
-1.90437e-06
-1.90437e-06
-1.90437e-06
-1.90437e-06
-1.90437e-06
-1.90437e-06
-1.90437e-06
-1.90437e-06
-1.90437e-06
-1.90437e-06
-1.90437e-06
-1.90437e-06
-1.90437e-06
-1.90437e-06
-1.90437e-06
-1.90437e-06
-1.90437e-06
-1.90437e-06
-1.90437e-06
-1.90437e-06
-1.90437e-06
-1.90437e-06
-1.90437e-06
-1.90437e-06
-1.90437e-06
-1.90437e-06
-1.90437e-06
-1.90437e-06
-1.90437e-06
-1.90437e-06
-1.90437e-06
-1.90437e-06
-1.90437e-06
-1.90437e-06
-1.90437e-06
-1.90437e-06
-1.90437e-06
-1.90437e-06
-1.90437e-06
-1.90437e-06
-1.90437e-06
-1.90437e-06
-1.90437e-06
-1.90437e-06
-1.90437e-06
-1.90437e-06
-1.90437e-06
-1.90437e-06
-1.90437e-06
-1.90437e-06
)
;
    }
    inandouthalf42
    {
        type            cyclic;
        value           nonuniform List<scalar> 
50
(
1.90437e-06
1.90437e-06
1.90437e-06
1.90437e-06
1.90437e-06
1.90437e-06
1.90437e-06
1.90437e-06
1.90437e-06
1.90437e-06
1.90437e-06
1.90437e-06
1.90437e-06
1.90437e-06
1.90437e-06
1.90437e-06
1.90437e-06
1.90437e-06
1.90437e-06
1.90437e-06
1.90437e-06
1.90437e-06
1.90437e-06
1.90437e-06
1.90437e-06
1.90437e-06
1.90437e-06
1.90437e-06
1.90437e-06
1.90437e-06
1.90437e-06
1.90437e-06
1.90437e-06
1.90437e-06
1.90437e-06
1.90437e-06
1.90437e-06
1.90437e-06
1.90437e-06
1.90437e-06
1.90437e-06
1.90437e-06
1.90437e-06
1.90437e-06
1.90437e-06
1.90437e-06
1.90437e-06
1.90437e-06
1.90437e-06
1.90437e-06
)
;
    }
    top
    {
        type            symmetryPlane;
        value           uniform 0;
    }
    walls
    {
        type            fixedValue;
        value           uniform 0;
    }
    frontAndBackPlanes
    {
        type            empty;
        value           nonuniform 0();
    }
}


// ************************************************************************* //
