/*--------------------------------*- C++ -*----------------------------------*\
| =========                 |                                                 |
| \\      /  F ield         | OpenFOAM: The Open Source CFD Toolbox           |
|  \\    /   O peration     | Version:  2.4.x                                 |
|   \\  /    A nd           | Web:      www.OpenFOAM.org                      |
|    \\/     M anipulation  |                                                 |
\*---------------------------------------------------------------------------*/
FoamFile
{
    version     2.0;
    format      ascii;
    class       surfaceScalarField;
    location    "3";
    object      phib;
}
// * * * * * * * * * * * * * * * * * * * * * * * * * * * * * * * * * * * * * //

dimensions      [0 3 -1 0 0 0 0];

internalField   nonuniform List<scalar> 
359
(
1.03829e-12
3.74835e-12
7.02627e-12
1.01227e-11
1.29549e-11
1.5734e-11
1.87067e-11
2.20664e-11
2.59296e-11
3.03672e-11
3.53911e-11
4.08577e-11
4.63476e-11
5.11772e-11
5.47449e-11
5.69232e-11
5.80498e-11
5.85799e-11
5.88324e-11
5.89687e-11
5.90577e-11
5.91291e-11
5.91968e-11
5.92684e-11
5.93476e-11
5.94356e-11
5.95313e-11
5.96324e-11
5.97362e-11
5.98403e-11
5.99429e-11
6.00436e-11
6.01422e-11
6.02393e-11
6.03355e-11
6.04313e-11
6.05271e-11
6.06233e-11
6.07205e-11
6.08183e-11
6.09169e-11
6.10165e-11
6.11167e-11
6.12177e-11
6.13197e-11
6.14228e-11
6.15271e-11
6.16327e-11
6.17399e-11
6.18493e-11
6.19611e-11
6.20755e-11
6.21928e-11
6.23135e-11
6.24377e-11
6.2566e-11
6.26986e-11
6.28358e-11
6.29779e-11
6.31247e-11
6.32762e-11
6.3432e-11
6.35918e-11
6.37548e-11
6.39206e-11
6.4089e-11
6.42599e-11
6.44342e-11
6.46127e-11
6.47965e-11
6.49871e-11
6.51859e-11
6.53935e-11
6.56106e-11
6.58371e-11
6.60724e-11
6.63155e-11
6.6565e-11
6.682e-11
6.70798e-11
6.73439e-11
6.76125e-11
6.78862e-11
6.81655e-11
6.8451e-11
6.87431e-11
6.90419e-11
6.9347e-11
6.96581e-11
6.99743e-11
7.0295e-11
7.06197e-11
7.09479e-11
7.12793e-11
7.16139e-11
7.19517e-11
7.22926e-11
7.26366e-11
7.29838e-11
7.33339e-11
7.3687e-11
7.40429e-11
7.44014e-11
7.47623e-11
7.51255e-11
7.54908e-11
7.58577e-11
7.62259e-11
7.65949e-11
7.69643e-11
7.73336e-11
7.77022e-11
7.80695e-11
7.84351e-11
7.87986e-11
7.91598e-11
7.95186e-11
7.98754e-11
8.02308e-11
8.05861e-11
8.0943e-11
8.13039e-11
8.16718e-11
8.20505e-11
8.24448e-11
8.28601e-11
8.3303e-11
8.37805e-11
8.43e-11
8.48683e-11
8.54901e-11
8.6167e-11
8.68967e-11
8.76732e-11
8.84848e-11
8.93095e-11
9.01139e-11
9.08596e-11
9.15085e-11
9.20192e-11
9.23495e-11
9.2469e-11
9.24121e-11
9.22382e-11
9.19498e-11
9.10655e-11
1.11442e-10
1.4561e-10
1.97392e-10
2.877e-09
1.91566e-09
1.38431e-09
1.17558e-09
1.05668e-09
9.52876e-10
8.58646e-10
7.7341e-10
6.96184e-10
6.26126e-10
5.62503e-10
5.04683e-10
4.52115e-10
4.04323e-10
3.60883e-10
3.21423e-10
2.85607e-10
2.53136e-10
2.23735e-10
1.97159e-10
1.73181e-10
1.51594e-10
1.32209e-10
1.14851e-10
9.93626e-11
8.55956e-11
7.34141e-11
6.26883e-11
5.32909e-11
4.50941e-11
3.79686e-11
3.17869e-11
2.6427e-11
2.17781e-11
1.77438e-11
1.42434e-11
1.12121e-11
8.60008e-12
6.37262e-12
4.51008e-12
3.00637e-12
1.86061e-12
1.05973e-12
5.59109e-13
2.82029e-13
1.44038e-13
7.95632e-14
4.98142e-14
3.56945e-14
2.86355e-14
2.48991e-14
2.28106e-14
2.14938e-14
2.04742e-14
1.9618e-14
1.89517e-14
1.82942e-14
1.747e-14
1.66433e-14
1.5908e-14
1.50802e-14
1.4155e-14
1.32648e-14
1.23501e-14
1.14015e-14
1.0527e-14
9.65093e-15
8.74801e-15
7.96584e-15
7.25345e-15
6.52389e-15
5.85251e-15
5.24744e-15
4.68974e-15
4.18791e-15
3.70027e-15
3.25114e-15
2.87095e-15
2.50962e-15
2.18088e-15
1.89778e-15
1.63718e-15
1.40573e-15
1.20421e-15
1.02706e-15
8.66683e-16
7.2587e-16
6.05468e-16
4.92922e-16
4.14194e-16
4.43248e-16
6.45629e-16
1.9987e-15
-1.44026e-17
-1.43447e-17
-1.4186e-17
-1.4065e-17
-1.38397e-17
-1.36587e-17
-1.33817e-17
-1.31549e-17
-1.28058e-17
-1.25159e-17
-1.21244e-17
-1.17705e-17
-1.13239e-17
-1.09174e-17
-1.04333e-17
-9.98362e-18
-9.46418e-18
-8.97776e-18
-8.44683e-18
-7.95632e-18
-7.44404e-18
-7.002e-18
-6.60132e-18
-6.2694e-18
-5.91639e-18
-5.6263e-18
-5.35509e-18
-5.09643e-18
-4.83458e-18
-4.58122e-18
-4.36584e-18
-4.15508e-18
-3.9451e-18
-3.72288e-18
-3.51419e-18
-3.29353e-18
-3.07329e-18
-2.84853e-18
-2.65575e-18
-2.46734e-18
-2.28469e-18
-2.10306e-18
-1.92516e-18
-1.754e-18
-1.53369e-18
-1.37151e-18
-1.20016e-18
-1.04048e-18
-8.82298e-19
-7.41184e-19
-5.92941e-19
-4.61127e-19
-3.36301e-19
-2.30055e-19
-3.5026e-19
-3.02026e-19
-2.60807e-19
-2.1136e-19
-1.78162e-19
-1.57834e-19
-1.37802e-19
-1.29743e-19
-1.06731e-19
-9.64832e-20
-8.58522e-20
-8.96316e-20
-8.30283e-20
-9.0013e-20
-9.59025e-20
-1.09442e-19
-1.11458e-19
-1.18606e-19
-1.25521e-19
-1.36575e-19
-1.45425e-19
-1.56548e-19
-1.68402e-19
-1.80622e-19
-2.01131e-19
-2.18579e-19
-2.37438e-19
-2.49968e-19
-2.80588e-19
-2.9999e-19
-3.35011e-19
-3.66253e-19
-6.00103e-19
-8.12581e-19
-1.03892e-18
-1.20824e-18
-1.44417e-18
-1.5912e-18
-1.74364e-18
-1.7927e-18
-2.04224e-18
-2.15017e-18
-2.25992e-18
-2.1859e-18
-2.2659e-18
-2.128e-18
-2.00127e-18
-1.67309e-18
-1.75005e-18
-1.5849e-18
-1.42454e-18
-9.65711e-19
-6.95737e-19
-1.63712e-19
4.01384e-19
1.22356e-18
1.97118e-18
2.69977e-18
3.45158e-18
4.1264e-18
4.64484e-18
5.50981e-18
7.40579e-18
)
;

boundaryField
{
    inandouthalf11
    {
        type            cyclic;
        value           nonuniform List<scalar> 
100
(
2.74418e-10
2.74428e-10
2.74247e-10
2.74333e-10
2.74483e-10
2.74655e-10
2.74857e-10
2.75073e-10
2.75291e-10
2.75526e-10
2.7579e-10
2.76086e-10
2.76401e-10
2.76696e-10
2.76931e-10
2.77086e-10
2.77171e-10
2.77212e-10
2.77231e-10
2.77243e-10
2.77248e-10
2.77255e-10
2.77261e-10
2.77267e-10
2.77274e-10
2.77282e-10
2.7729e-10
2.77301e-10
2.77312e-10
2.77324e-10
2.77336e-10
2.77349e-10
2.77361e-10
2.77377e-10
2.77391e-10
2.77407e-10
2.77423e-10
2.77441e-10
2.77461e-10
2.7748e-10
2.77503e-10
2.77526e-10
2.77549e-10
2.77576e-10
2.77604e-10
2.77633e-10
2.77665e-10
2.77697e-10
2.77733e-10
2.77773e-10
2.77813e-10
2.77856e-10
2.77902e-10
2.77952e-10
2.78003e-10
2.78059e-10
2.78117e-10
2.78179e-10
2.78245e-10
2.78312e-10
2.78385e-10
2.78458e-10
2.78535e-10
2.78614e-10
2.78694e-10
2.78776e-10
2.78861e-10
2.78949e-10
2.79039e-10
2.79133e-10
2.79232e-10
2.79335e-10
2.79439e-10
2.79549e-10
2.79662e-10
2.79778e-10
2.79896e-10
2.80017e-10
2.80141e-10
2.80267e-10
2.80396e-10
2.80529e-10
2.80666e-10
2.80806e-10
2.80949e-10
2.81096e-10
2.81247e-10
2.814e-10
2.81557e-10
2.81717e-10
2.81881e-10
2.82047e-10
2.82217e-10
2.82391e-10
2.82569e-10
2.8275e-10
2.82936e-10
2.83125e-10
2.83318e-10
2.83516e-10
)
;
    }
    inandouthalf12
    {
        type            cyclic;
        value           nonuniform List<scalar> 
100
(
-2.74418e-10
-2.74428e-10
-2.74247e-10
-2.74333e-10
-2.74483e-10
-2.74655e-10
-2.74857e-10
-2.75073e-10
-2.75291e-10
-2.75526e-10
-2.7579e-10
-2.76086e-10
-2.76401e-10
-2.76696e-10
-2.76931e-10
-2.77086e-10
-2.77171e-10
-2.77212e-10
-2.77231e-10
-2.77243e-10
-2.77248e-10
-2.77255e-10
-2.77261e-10
-2.77267e-10
-2.77274e-10
-2.77282e-10
-2.7729e-10
-2.77301e-10
-2.77312e-10
-2.77324e-10
-2.77336e-10
-2.77349e-10
-2.77361e-10
-2.77377e-10
-2.77391e-10
-2.77407e-10
-2.77423e-10
-2.77441e-10
-2.77461e-10
-2.7748e-10
-2.77503e-10
-2.77526e-10
-2.77549e-10
-2.77576e-10
-2.77604e-10
-2.77633e-10
-2.77665e-10
-2.77697e-10
-2.77733e-10
-2.77773e-10
-2.77813e-10
-2.77856e-10
-2.77902e-10
-2.77952e-10
-2.78003e-10
-2.78059e-10
-2.78117e-10
-2.78179e-10
-2.78245e-10
-2.78312e-10
-2.78385e-10
-2.78458e-10
-2.78535e-10
-2.78614e-10
-2.78694e-10
-2.78776e-10
-2.78861e-10
-2.78949e-10
-2.79039e-10
-2.79133e-10
-2.79232e-10
-2.79335e-10
-2.79439e-10
-2.79549e-10
-2.79662e-10
-2.79778e-10
-2.79896e-10
-2.80017e-10
-2.80141e-10
-2.80267e-10
-2.80396e-10
-2.80529e-10
-2.80666e-10
-2.80806e-10
-2.80949e-10
-2.81096e-10
-2.81247e-10
-2.814e-10
-2.81557e-10
-2.81717e-10
-2.81881e-10
-2.82047e-10
-2.82217e-10
-2.82391e-10
-2.82569e-10
-2.8275e-10
-2.82936e-10
-2.83125e-10
-2.83318e-10
-2.83516e-10
)
;
    }
    inandouthalf21
    {
        type            cyclic;
        value           nonuniform List<scalar> 
100
(
2.83717e-10
2.83923e-10
2.84134e-10
2.84349e-10
2.84568e-10
2.84793e-10
2.85023e-10
2.85258e-10
2.85498e-10
2.85744e-10
2.85996e-10
2.86254e-10
2.86518e-10
2.86789e-10
2.87066e-10
2.87351e-10
2.87643e-10
2.87943e-10
2.88251e-10
2.88568e-10
2.88895e-10
2.89232e-10
2.89579e-10
2.89939e-10
2.90311e-10
2.90697e-10
2.91098e-10
2.91516e-10
2.91953e-10
2.9241e-10
2.92888e-10
2.93388e-10
2.93912e-10
2.94465e-10
2.95051e-10
2.95669e-10
2.96312e-10
2.96983e-10
2.97711e-10
2.98525e-10
2.99391e-10
3.00195e-10
3.01136e-10
3.02359e-10
3.03859e-10
3.06235e-10
3.15586e-10
3.21728e-10
3.47905e-10
1.07809e-09
8.24265e-08
1.09091e-07
1.14666e-07
1.14914e-07
1.12961e-07
1.09771e-07
1.0577e-07
1.0119e-07
9.61752e-08
9.08244e-08
8.52078e-08
7.93781e-08
7.33755e-08
6.72317e-08
6.0972e-08
5.46169e-08
4.81833e-08
4.16851e-08
3.51341e-08
2.85402e-08
2.19117e-08
1.52561e-08
8.57948e-09
1.88748e-09
-4.81508e-09
-1.15239e-08
-1.8235e-08
-2.49449e-08
-3.16504e-08
-3.83484e-08
-4.50361e-08
-5.1711e-08
-5.83704e-08
-6.5012e-08
-7.16333e-08
-7.82323e-08
-8.48064e-08
-9.13535e-08
-9.78711e-08
-1.04357e-07
-1.10807e-07
-1.1722e-07
-1.23591e-07
-1.29917e-07
-1.36192e-07
-1.42412e-07
-1.48573e-07
-1.54669e-07
-1.60695e-07
-1.66644e-07
)
;
    }
    inandouthalf22
    {
        type            cyclic;
        value           nonuniform List<scalar> 
100
(
-2.83717e-10
-2.83923e-10
-2.84134e-10
-2.84349e-10
-2.84568e-10
-2.84793e-10
-2.85023e-10
-2.85258e-10
-2.85498e-10
-2.85744e-10
-2.85996e-10
-2.86254e-10
-2.86518e-10
-2.86789e-10
-2.87066e-10
-2.87351e-10
-2.87643e-10
-2.87943e-10
-2.88251e-10
-2.88568e-10
-2.88895e-10
-2.89232e-10
-2.89579e-10
-2.89939e-10
-2.90311e-10
-2.90697e-10
-2.91098e-10
-2.91516e-10
-2.91953e-10
-2.9241e-10
-2.92888e-10
-2.93388e-10
-2.93912e-10
-2.94465e-10
-2.95051e-10
-2.95669e-10
-2.96312e-10
-2.96983e-10
-2.97711e-10
-2.98525e-10
-2.99391e-10
-3.00195e-10
-3.01136e-10
-3.02359e-10
-3.03859e-10
-3.06235e-10
-3.15586e-10
-3.21728e-10
-3.47905e-10
-1.07809e-09
-8.24265e-08
-1.09091e-07
-1.14666e-07
-1.14914e-07
-1.12961e-07
-1.09771e-07
-1.0577e-07
-1.0119e-07
-9.61752e-08
-9.08244e-08
-8.52078e-08
-7.93781e-08
-7.33755e-08
-6.72317e-08
-6.0972e-08
-5.46169e-08
-4.81833e-08
-4.16851e-08
-3.51341e-08
-2.85402e-08
-2.19117e-08
-1.52561e-08
-8.57948e-09
-1.88748e-09
4.81508e-09
1.15239e-08
1.8235e-08
2.49449e-08
3.16504e-08
3.83484e-08
4.50361e-08
5.1711e-08
5.83704e-08
6.5012e-08
7.16333e-08
7.82323e-08
8.48064e-08
9.13535e-08
9.78711e-08
1.04357e-07
1.10807e-07
1.1722e-07
1.23591e-07
1.29917e-07
1.36192e-07
1.42412e-07
1.48573e-07
1.54669e-07
1.60695e-07
1.66644e-07
)
;
    }
    inandouthalf31
    {
        type            cyclic;
        value           nonuniform List<scalar> 
110
(
-1.72511e-07
-1.81965e-07
-1.91746e-07
-2.01849e-07
-2.1226e-07
-2.22963e-07
-2.33929e-07
-2.45117e-07
-2.56466e-07
-2.6788e-07
-2.79213e-07
-2.90225e-07
-2.99901e-07
-3.07015e-07
-3.13467e-07
-3.19998e-07
-3.2665e-07
-3.33426e-07
-3.40328e-07
-3.47359e-07
-3.54524e-07
-3.61826e-07
-3.69266e-07
-3.7685e-07
-3.8458e-07
-3.92459e-07
-4.00492e-07
-4.08682e-07
-4.17032e-07
-4.25546e-07
-4.34227e-07
-4.43081e-07
-4.5211e-07
-4.61318e-07
-4.7071e-07
-4.80289e-07
-4.9006e-07
-5.00026e-07
-5.10192e-07
-5.20562e-07
-5.31141e-07
-5.41932e-07
-5.52943e-07
-5.64175e-07
-5.75633e-07
-5.87323e-07
-5.9925e-07
-6.11418e-07
-6.23831e-07
-6.36497e-07
-6.49418e-07
-6.62602e-07
-6.76053e-07
-6.89777e-07
-7.03778e-07
-7.18064e-07
-7.3264e-07
-7.47511e-07
-7.62684e-07
-7.78165e-07
-7.9396e-07
-8.10076e-07
-8.26518e-07
-8.43294e-07
-8.60411e-07
-8.77875e-07
-8.95694e-07
-9.13874e-07
-9.32423e-07
-9.51349e-07
-9.70659e-07
-9.90361e-07
-1.01046e-06
-1.03097e-06
-1.0519e-06
-1.07325e-06
-1.09503e-06
-1.11726e-06
-1.13994e-06
-1.16307e-06
-1.18668e-06
-1.21077e-06
-1.23534e-06
-1.26042e-06
-1.286e-06
-1.3121e-06
-1.33874e-06
-1.36591e-06
-1.39363e-06
-1.42192e-06
-1.45078e-06
-1.48023e-06
-1.51027e-06
-1.54093e-06
-1.5722e-06
-1.60412e-06
-1.63667e-06
-1.66989e-06
-1.70379e-06
-1.73837e-06
-1.77366e-06
-1.80966e-06
-1.84639e-06
-1.88386e-06
-1.9221e-06
-1.96111e-06
-2.00092e-06
-2.04153e-06
-2.08297e-06
-2.12525e-06
)
;
    }
    inandouthalf32
    {
        type            cyclic;
        value           nonuniform List<scalar> 
110
(
1.72511e-07
1.81965e-07
1.91746e-07
2.01849e-07
2.1226e-07
2.22963e-07
2.33929e-07
2.45117e-07
2.56466e-07
2.6788e-07
2.79213e-07
2.90225e-07
2.99901e-07
3.07015e-07
3.13467e-07
3.19998e-07
3.2665e-07
3.33426e-07
3.40328e-07
3.47359e-07
3.54524e-07
3.61826e-07
3.69266e-07
3.7685e-07
3.8458e-07
3.92459e-07
4.00492e-07
4.08682e-07
4.17032e-07
4.25546e-07
4.34227e-07
4.43081e-07
4.5211e-07
4.61318e-07
4.7071e-07
4.80289e-07
4.9006e-07
5.00026e-07
5.10192e-07
5.20562e-07
5.31141e-07
5.41932e-07
5.52943e-07
5.64175e-07
5.75633e-07
5.87323e-07
5.9925e-07
6.11418e-07
6.23831e-07
6.36497e-07
6.49418e-07
6.62602e-07
6.76053e-07
6.89777e-07
7.03778e-07
7.18064e-07
7.3264e-07
7.47511e-07
7.62684e-07
7.78165e-07
7.9396e-07
8.10076e-07
8.26518e-07
8.43294e-07
8.60411e-07
8.77875e-07
8.95694e-07
9.13874e-07
9.32423e-07
9.51349e-07
9.70659e-07
9.90361e-07
1.01046e-06
1.03097e-06
1.0519e-06
1.07325e-06
1.09503e-06
1.11726e-06
1.13994e-06
1.16307e-06
1.18668e-06
1.21077e-06
1.23534e-06
1.26042e-06
1.286e-06
1.3121e-06
1.33874e-06
1.36591e-06
1.39363e-06
1.42192e-06
1.45078e-06
1.48023e-06
1.51027e-06
1.54093e-06
1.5722e-06
1.60412e-06
1.63667e-06
1.66989e-06
1.70379e-06
1.73837e-06
1.77366e-06
1.80966e-06
1.84639e-06
1.88386e-06
1.9221e-06
1.96111e-06
2.00092e-06
2.04153e-06
2.08297e-06
2.12525e-06
)
;
    }
    inandouthalf41
    {
        type            cyclic;
        value           nonuniform List<scalar> 
50
(
-1.90232e-06
-1.90232e-06
-1.90232e-06
-1.90232e-06
-1.90232e-06
-1.90232e-06
-1.90232e-06
-1.90232e-06
-1.90232e-06
-1.90232e-06
-1.90232e-06
-1.90232e-06
-1.90232e-06
-1.90232e-06
-1.90232e-06
-1.90232e-06
-1.90232e-06
-1.90232e-06
-1.90232e-06
-1.90232e-06
-1.90232e-06
-1.90232e-06
-1.90232e-06
-1.90232e-06
-1.90232e-06
-1.90232e-06
-1.90232e-06
-1.90232e-06
-1.90232e-06
-1.90232e-06
-1.90232e-06
-1.90232e-06
-1.90232e-06
-1.90232e-06
-1.90232e-06
-1.90232e-06
-1.90232e-06
-1.90232e-06
-1.90232e-06
-1.90232e-06
-1.90232e-06
-1.90232e-06
-1.90232e-06
-1.90232e-06
-1.90232e-06
-1.90232e-06
-1.90232e-06
-1.90232e-06
-1.90232e-06
-1.90232e-06
)
;
    }
    inandouthalf42
    {
        type            cyclic;
        value           nonuniform List<scalar> 
50
(
1.90232e-06
1.90232e-06
1.90232e-06
1.90232e-06
1.90232e-06
1.90232e-06
1.90232e-06
1.90232e-06
1.90232e-06
1.90232e-06
1.90232e-06
1.90232e-06
1.90232e-06
1.90232e-06
1.90232e-06
1.90232e-06
1.90232e-06
1.90232e-06
1.90232e-06
1.90232e-06
1.90232e-06
1.90232e-06
1.90232e-06
1.90232e-06
1.90232e-06
1.90232e-06
1.90232e-06
1.90232e-06
1.90232e-06
1.90232e-06
1.90232e-06
1.90232e-06
1.90232e-06
1.90232e-06
1.90232e-06
1.90232e-06
1.90232e-06
1.90232e-06
1.90232e-06
1.90232e-06
1.90232e-06
1.90232e-06
1.90232e-06
1.90232e-06
1.90232e-06
1.90232e-06
1.90232e-06
1.90232e-06
1.90232e-06
1.90232e-06
)
;
    }
    top
    {
        type            symmetryPlane;
        value           uniform 0;
    }
    walls
    {
        type            fixedValue;
        value           uniform 0;
    }
    frontAndBackPlanes
    {
        type            empty;
        value           nonuniform 0();
    }
}


// ************************************************************************* //
