/*--------------------------------*- C++ -*----------------------------------*\
| =========                 |                                                 |
| \\      /  F ield         | OpenFOAM: The Open Source CFD Toolbox           |
|  \\    /   O peration     | Version:  2.4.x                                 |
|   \\  /    A nd           | Web:      www.OpenFOAM.org                      |
|    \\/     M anipulation  |                                                 |
\*---------------------------------------------------------------------------*/
FoamFile
{
    version     2.0;
    format      ascii;
    class       volVectorField;
    location    "3";
    object      susb;
}
// * * * * * * * * * * * * * * * * * * * * * * * * * * * * * * * * * * * * * //

dimensions      [0 1 -2 0 0 0 0];

internalField   nonuniform List<vector> 
360
(
(0 1.56876e-18 0)
(0 2.48331e-18 0)
(0 1.03509e-18 0)
(0 1.37778e-20 0)
(-3.66968e-31 -3.01219e-19 0)
(-7.33798e-31 -4.69066e-19 0)
(-7.33601e-31 -5.66123e-19 0)
(0 -5.37257e-19 0)
(-3.66608e-31 -4.86505e-19 0)
(0 -5.08626e-19 0)
(-3.66426e-31 -5.80477e-19 0)
(0 -6.55393e-19 0)
(-7.32383e-31 -6.73303e-19 0)
(0 -5.95244e-19 0)
(0 -4.45569e-19 0)
(0 -2.79968e-19 0)
(0 -1.49941e-19 0)
(-3.65861e-31 -7.18463e-20 0)
(0 -3.99106e-20 0)
(0 -2.30769e-20 0)
(0 -1.63272e-20 0)
(-3.65841e-31 -2.06795e-20 0)
(0 -2.06004e-20 0)
(0 -2.15984e-20 0)
(0 -2.29668e-20 0)
(-3.65825e-31 -2.41518e-20 0)
(0 -3.15328e-20 0)
(0 -3.85137e-20 0)
(0 -3.8639e-20 0)
(0 -3.86483e-20 0)
(0 -4.50043e-20 0)
(0 -4.45333e-20 0)
(0 -5.05989e-20 0)
(0 -5.66377e-20 0)
(0 -5.6115e-20 0)
(3.65746e-31 -6.21473e-20 0)
(0 -6.81593e-20 0)
(0 -8.07565e-20 0)
(0 -8.03264e-20 0)
(0 -8.66555e-20 0)
(0 -9.9391e-20 0)
(0 -9.87725e-20 0)
(3.6564e-31 -1.11094e-19 0)
(0 -1.23137e-19 0)
(0 -1.28544e-19 0)
(0 -1.40354e-19 0)
(0 -1.45153e-19 0)
(0 -1.55873e-19 0)
(0 -1.78944e-19 0)
(0 -1.88682e-19 0)
(7.30844e-31 -1.98319e-19 0)
(0 -2.14028e-19 0)
(0 -2.2875e-19 0)
(0 -2.42339e-19 0)
(0 -2.60877e-19 0)
(0 -2.77849e-19 0)
(0 -2.9312e-19 0)
(0 -3.12596e-19 0)
(0 -3.23181e-19 0)
(0 -3.42586e-19 0)
(0 -3.57771e-19 0)
(0 -3.68155e-19 0)
(0 -3.79845e-19 0)
(0 -3.86861e-19 0)
(0 -3.95714e-19 0)
(0 -4.06933e-19 0)
(0 -4.21827e-19 0)
(0 -4.3627e-19 0)
(0 -4.50079e-19 0)
(0 -4.70369e-19 0)
(0 -4.93886e-19 0)
(0 -5.0659e-19 0)
(0 -5.21813e-19 0)
(0 -5.38983e-19 0)
(0 -5.52188e-19 0)
(0 -5.62803e-19 0)
(0 -5.70968e-19 0)
(0 -5.83368e-19 0)
(0 -5.96764e-19 0)
(0 -6.0974e-19 0)
(0 -6.24748e-19 0)
(0 -6.42479e-19 0)
(0 -6.59624e-19 0)
(0 -6.76659e-19 0)
(0 -6.93157e-19 0)
(0 -7.09017e-19 0)
(0 -7.23931e-19 0)
(0 -7.37879e-19 0)
(0 -7.52539e-19 0)
(0 -7.67809e-19 0)
(0 -7.83574e-19 0)
(0 -8.00613e-19 0)
(0 -8.18787e-19 0)
(0 -8.37472e-19 0)
(0 -8.56678e-19 0)
(0 -8.76279e-19 0)
(0 -8.96144e-19 0)
(0 -9.16328e-19 0)
(0 -9.37021e-19 0)
(0 -9.58314e-19 0)
(0 -9.80281e-19 0)
(0 -1.00306e-18 0)
(0 -1.02666e-18 0)
(0 -1.05109e-18 0)
(0 -1.07637e-18 0)
(0 -1.10259e-18 0)
(0 -1.12979e-18 0)
(0 -1.15807e-18 0)
(0 -1.18753e-18 0)
(0 -1.21825e-18 0)
(0 -1.25033e-18 0)
(0 -1.28385e-18 0)
(0 -1.31891e-18 0)
(0 -1.35563e-18 0)
(0 -1.3941e-18 0)
(0 -1.43445e-18 0)
(0 -1.47679e-18 0)
(0 -1.52126e-18 0)
(0 -1.56797e-18 0)
(0 -1.61706e-18 0)
(0 -1.6686e-18 0)
(0 -1.72264e-18 0)
(0 -1.77923e-18 0)
(0 -1.83847e-18 0)
(0 -1.90068e-18 0)
(0 -1.96656e-18 0)
(0 -2.03714e-18 0)
(0 -2.11328e-18 0)
(0 -2.19477e-18 0)
(0 -4.25312e-18 0)
(0 -2.2312e-17 0)
(0 -1.25566e-16 0)
(0 -6.69036e-16 0)
(0 -3.33591e-15 0)
(0 -1.53611e-14 0)
(0 -6.42388e-14 0)
(0 -2.43133e-13 0)
(0 -8.44914e-13 0)
(0 -2.70471e-12 0)
(0 -7.51928e-12 0)
(0 -1.63997e-11 0)
(0 -3.14145e-11 0)
(0 -6.60243e-11 0)
(0 -1.95181e-10 0)
(0 -1.26622e-09 0)
(0 -3.11497e-08 0)
(0 -3.18055e-07 0)
(0 -2.77319e-06 0)
(0 -0.000840206 0)
(0 -0.268565 0)
(0 -0.719944 0)
(0 -0.570132 0)
(0 -0.286635 0)
(0 -0.172008 0)
(0 -0.116812 0)
(0 -0.0901661 0)
(0 -0.0745932 0)
(0 -0.0640081 0)
(0 -0.0564541 0)
(0 -0.0508081 0)
(0 -0.046369 0)
(0 -0.0427335 0)
(0 -0.0396547 0)
(0 -0.0369715 0)
(0 -0.0345765 0)
(0 -0.0323976 0)
(0 -0.0303854 0)
(0 -0.0285056 0)
(0 -0.0267344 0)
(0 -0.0250556 0)
(0 -0.0234577 0)
(0 -0.0219324 0)
(0 -0.0204725 0)
(0 -0.0190693 0)
(0 -0.0177113 0)
(0 -0.0163835 0)
(0 -0.0150704 0)
(0 -0.0137623 0)
(0 -0.0124614 0)
(0 -0.0111857 0)
(0 -0.0099665 0)
(0 -0.00884253 0)
(0 -0.00785 0)
(0 -0.0070127 0)
(0 -0.00633651 0)
(0 -0.00581472 0)
(0 -0.00543992 0)
(0 -0.00521035 0)
(0 -0.00512301 0)
(0 -0.00515064 0)
(0 -0.00520824 0)
(0 -0.00513714 0)
(0 -0.00476614 0)
(0 -0.00404337 0)
(0 -0.00310667 0)
(0 -0.0021926 0)
(0 -0.00147266 0)
(0 -0.000983973 0)
(0 -0.000677178 0)
(0 -0.000484013 0)
(0 -0.000354434 0)
(0 -0.000265426 0)
(-6.59513e-20 -0.000206162 0)
(0 -0.000160028 0)
(0 -0.000117894 0)
(2.5023e-20 -8.81775e-05 0)
(0 -6.94161e-05 0)
(-1.8835e-20 -5.04968e-05 0)
(0 -3.36295e-05 0)
(5.98559e-21 -2.28003e-05 0)
(0 -1.40804e-05 0)
(0 -6.37664e-06 0)
(0 -1.24276e-06 0)
(0 -4.58708e-08 0)
(0 -5.65542e-10 0)
(0 -6.53326e-12 0)
(0 -7.38981e-14 0)
(0 -7.20981e-16 0)
(0 -6.92466e-18 0)
(-1.87646e-35 -6.87292e-20 0)
(0 -7.12247e-22 0)
(-3.48328e-38 -9.24734e-23 0)
(0 -7.39792e-23 0)
(0 -6.11076e-23 0)
(0 -5.3326e-23 0)
(0 -4.49051e-23 0)
(0 -3.5569e-23 0)
(0 -3.06309e-23 0)
(6.95484e-39 -2.55918e-23 0)
(0 -2.04996e-23 0)
(0 -1.72621e-23 0)
(0 -1.41403e-23 0)
(0 -1.1405e-23 0)
(0 -9.25105e-24 0)
(0 -7.67314e-24 0)
(0 -6.20507e-24 0)
(0 -4.91033e-24 0)
(0 -4.15911e-24 0)
(0 -2.80969e-24 0)
(0 2.09134e-25 0)
(0 4.23019e-24 0)
(0 -5.78473e-24 0)
(0 -7.32581e-24 0)
(-7.48928e-45 -2.93416e-29 0)
(7.3403e-45 -7.80208e-30 0)
(0 -6.52796e-30 0)
(0 -5.95476e-30 0)
(-3.45544e-45 -6.17552e-30 0)
(0 -5.82663e-30 0)
(0 -4.7858e-30 0)
(-8.13323e-46 -2.178e-30 0)
(0 -1.26418e-30 0)
(0 -9.70134e-31 0)
(0 -1.38743e-30 0)
(0 -1.68086e-30 0)
(0 -1.1835e-30 0)
(0 -4.63135e-31 0)
(0 -2.55596e-31 0)
(0 -2.90506e-31 0)
(0 -4.13473e-31 0)
(0 -3.42192e-31 0)
(0 -1.52131e-31 0)
(0 -7.27436e-32 0)
(0 -7.25856e-32 0)
(0 -9.74003e-32 0)
(0 -7.55793e-32 0)
(1.84283e-47 -3.12549e-32 0)
(0 -1.62913e-32 0)
(0 -1.77502e-32 0)
(0 -1.98332e-32 0)
(0 -1.22721e-32 0)
(0 -4.82777e-33 0)
(0 -3.29806e-33 0)
(0 -3.87133e-33 0)
(0 -3.13981e-33 0)
(0 -1.41406e-33 0)
(0 -9.50259e-34 0)
(0 -1.02505e-33 0)
(0 -7.14406e-34 0)
(0 -2.82898e-34 0)
(0 -1.46205e-34 0)
(0 -7.37513e-35 0)
(0 -2.75599e-35 0)
(0 -1.12316e-35 0)
(0 -4.98849e-36 0)
(0 -2.24227e-36 0)
(1.88135e-52 -9.98938e-37 0)
(0 -4.37487e-37 0)
(0 -1.87146e-37 0)
(0 -7.77959e-38 0)
(0 -3.12911e-38 0)
(0 -1.2131e-38 0)
(0 -4.51673e-39 0)
(0 -1.60948e-39 0)
(0 -5.46941e-40 0)
(0 -1.76596e-40 0)
(9.39253e-57 -5.39601e-41 0)
(0 -1.55345e-41 0)
(0 -4.19258e-42 0)
(-1.38173e-58 -1.0547e-42 0)
(0 -2.45655e-43 0)
(0 -5.25539e-44 0)
(0 -1.02276e-44 0)
(0 -1.7891e-45 0)
(0 -2.77053e-46 0)
(0 -3.72204e-47 0)
(0 -4.21791e-48 0)
(0 -3.8667e-49 0)
(0 -2.67534e-50 0)
(0 -1.21677e-51 0)
(0 -2.46878e-53 0)
(0 -1.57151e-55 0)
(0 -3.41359e-57 0)
(0 -3.67341e-59 0)
(0 -4.98528e-70 0)
(0 -3.40854e-81 0)
(0 -1.73476e-92 0)
(0 -6.4596e-104 0)
(0 -2.14799e-115 0)
(0 -6.66878e-127 0)
(0 -3.21339e-138 0)
(0 -4.10964e-146 0)
(0 -8.58363e-157 0)
(0 -1.41422e-164 0)
(0 -2.89118e-175 0)
(0 -4.86483e-183 0)
(0 -1.24026e-193 0)
(0 -1.67303e-201 0)
(0 -5.64269e-212 0)
(0 -5.75763e-220 0)
(0 -3.83879e-230 0)
(0 -1.9959e-238 0)
(0 -2.55432e-248 0)
(0 -7.00016e-257 0)
(0 -1.30072e-266 0)
(0 -2.48396e-275 0)
(0 -6.17956e-285 0)
(0 -8.93069e-294 0)
(0 -2.73489e-303 0)
(0 -3.25135e-312 0)
(0 -1.17094e-321 0)
(0 -0 0)
(0 0 0)
(0 0 0)
(0 0 0)
(0 0 0)
(0 0 0)
(0 0 0)
(0 0 0)
(0 0 0)
(0 0 0)
(0 0 0)
(0 0 0)
(0 0 0)
(0 0 0)
(0 0 0)
(0 0 0)
(0 0 0)
(0 0 0)
(0 0 0)
)
;

boundaryField
{
    inandouthalf11
    {
        type            cyclic;
    }
    inandouthalf12
    {
        type            cyclic;
    }
    inandouthalf21
    {
        type            cyclic;
    }
    inandouthalf22
    {
        type            cyclic;
    }
    inandouthalf31
    {
        type            cyclic;
    }
    inandouthalf32
    {
        type            cyclic;
    }
    inandouthalf41
    {
        type            cyclic;
    }
    inandouthalf42
    {
        type            cyclic;
    }
    top
    {
        type            symmetryPlane;
    }
    walls
    {
        type            zeroGradient;
    }
    frontAndBackPlanes
    {
        type            empty;
    }
}


// ************************************************************************* //
