/*--------------------------------*- C++ -*----------------------------------*\
| =========                 |                                                 |
| \\      /  F ield         | OpenFOAM: The Open Source CFD Toolbox           |
|  \\    /   O peration     | Version:  2.4.x                                 |
|   \\  /    A nd           | Web:      www.OpenFOAM.org                      |
|    \\/     M anipulation  |                                                 |
\*---------------------------------------------------------------------------*/
FoamFile
{
    version     2.0;
    format      ascii;
    class       volTensorField;
    location    "3";
    object      Tauf;
}
// * * * * * * * * * * * * * * * * * * * * * * * * * * * * * * * * * * * * * //

dimensions      [0 2 -2 0 0 0 0];

internalField   nonuniform List<tensor> 
360
(
(0 -5.48847e-07 0 -5.48847e-07 1.37088e-09 0 0 0 0)
(0 1.70689e-10 0 1.70689e-10 2.47504e-09 0 0 0 0)
(0 9.56612e-11 0 9.56612e-11 3.13372e-09 0 0 0 0)
(0 -2.35924e-10 0 -2.35924e-10 3.07691e-09 0 0 0 0)
(5.16988e-23 -3.22675e-10 0 -3.22675e-10 2.88457e-09 0 0 0 0)
(5.16988e-23 -3.73747e-10 0 -3.73747e-10 2.84029e-09 0 0 0 0)
(5.16988e-23 -4.17967e-10 0 -4.17967e-10 3.02079e-09 0 0 0 0)
(0 -4.34191e-10 0 -4.34191e-10 3.38846e-09 0 0 0 0)
(5.16988e-23 -4.52126e-10 0 -4.52126e-10 3.8805e-09 0 0 0 0)
(0 -4.98734e-10 0 -4.98734e-10 4.44045e-09 0 0 0 0)
(5.16988e-23 -5.60619e-10 0 -5.60619e-10 4.98832e-09 0 0 0 0)
(0 -6.10505e-10 0 -6.10505e-10 5.36278e-09 0 0 0 0)
(5.16988e-23 -6.09521e-10 0 -6.09521e-10 5.3211e-09 0 0 0 0)
(0 -5.30317e-10 0 -5.30317e-10 4.68161e-09 0 0 0 0)
(0 -3.90106e-10 0 -3.90106e-10 3.53667e-09 0 0 0 0)
(0 -2.39865e-10 0 -2.39865e-10 2.26158e-09 0 0 0 0)
(0 -1.2592e-10 0 -1.2592e-10 1.23877e-09 0 0 0 0)
(5.16988e-23 -6.00372e-11 0 -6.00372e-11 6.0875e-10 0 0 0 0)
(0 -3.08329e-11 0 -3.08329e-11 2.92471e-10 0 0 0 0)
(0 -1.74154e-11 0 -1.74154e-11 1.5334e-10 0 0 0 0)
(0 -1.20464e-11 0 -1.20464e-11 9.62865e-11 0 0 0 0)
(5.16988e-23 -1.24317e-11 0 -1.24317e-11 7.49132e-11 0 0 0 0)
(0 -1.23572e-11 0 -1.23572e-11 6.95982e-11 0 0 0 0)
(0 -1.32272e-11 0 -1.32272e-11 7.25125e-11 0 0 0 0)
(0 -1.456e-11 0 -1.456e-11 7.94955e-11 0 0 0 0)
(5.16988e-23 -1.59626e-11 0 -1.59626e-11 8.76787e-11 0 0 0 0)
(0 -1.93762e-11 0 -1.93762e-11 9.51339e-11 0 0 0 0)
(0 -2.24659e-11 0 -2.24659e-11 1.00486e-10 0 0 0 0)
(0 -2.30198e-11 0 -2.30198e-11 1.0319e-10 0 0 0 0)
(0 -2.33078e-11 0 -2.33078e-11 1.03578e-10 0 0 0 0)
(0 -2.55578e-11 0 -2.55578e-11 1.02569e-10 0 0 0 0)
(0 -2.54587e-11 0 -2.54587e-11 1.00608e-10 0 0 0 0)
(0 -2.75361e-11 0 -2.75361e-11 9.8758e-11 0 0 0 0)
(0 -2.96445e-11 0 -2.96445e-11 9.73019e-11 0 0 0 0)
(0 -2.96212e-11 0 -2.96212e-11 9.62395e-11 0 0 0 0)
(-5.16988e-23 -3.18465e-11 0 -3.18465e-11 9.58866e-11 0 0 0 0)
(0 -3.41266e-11 0 -3.41266e-11 9.58628e-11 0 0 0 0)
(0 -3.86498e-11 0 -3.86498e-11 9.64831e-11 0 0 0 0)
(0 -3.88525e-11 0 -3.88525e-11 9.70294e-11 0 0 0 0)
(0 -4.13224e-11 0 -4.13224e-11 9.78025e-11 0 0 0 0)
(0 -4.59366e-11 0 -4.59366e-11 9.87738e-11 0 0 0 0)
(0 -4.60951e-11 0 -4.60951e-11 9.9349e-11 0 0 0 0)
(-5.16988e-23 -5.05777e-11 0 -5.05777e-11 1.00242e-10 0 0 0 0)
(0 -5.49822e-11 0 -5.49822e-11 1.01136e-10 0 0 0 0)
(0 -5.71854e-11 0 -5.71854e-11 1.01972e-10 0 0 0 0)
(0 -6.15419e-11 0 -6.15419e-11 1.03166e-10 0 0 0 0)
(0 -6.35806e-11 0 -6.35806e-11 1.04274e-10 0 0 0 0)
(0 -6.76354e-11 0 -6.76354e-11 1.05579e-10 0 0 0 0)
(0 -7.58749e-11 0 -7.58749e-11 1.07465e-10 0 0 0 0)
(0 -7.9717e-11 0 -7.9717e-11 1.09429e-10 0 0 0 0)
(-5.16988e-23 -8.35729e-11 0 -8.35729e-11 1.11785e-10 0 0 0 0)
(0 -8.95084e-11 0 -8.95084e-11 1.14506e-10 0 0 0 0)
(0 -9.51697e-11 0 -9.51697e-11 1.17466e-10 0 0 0 0)
(0 -1.00511e-10 0 -1.00511e-10 1.20689e-10 0 0 0 0)
(0 -1.07574e-10 0 -1.07574e-10 1.24367e-10 0 0 0 0)
(0 -1.14182e-10 0 -1.14182e-10 1.28366e-10 0 0 0 0)
(0 -1.20283e-10 0 -1.20283e-10 1.32637e-10 0 0 0 0)
(0 -1.27842e-10 0 -1.27842e-10 1.37362e-10 0 0 0 0)
(0 -1.32455e-10 0 -1.32455e-10 1.41945e-10 0 0 0 0)
(0 -1.40033e-10 0 -1.40033e-10 1.468e-10 0 0 0 0)
(0 -1.46185e-10 0 -1.46185e-10 1.51434e-10 0 0 0 0)
(0 -1.50679e-10 0 -1.50679e-10 1.55716e-10 0 0 0 0)
(0 -1.5553e-10 0 -1.5553e-10 1.59641e-10 0 0 0 0)
(0 -1.58722e-10 0 -1.58722e-10 1.62903e-10 0 0 0 0)
(0 -1.62453e-10 0 -1.62453e-10 1.65737e-10 0 0 0 0)
(0 -1.66952e-10 0 -1.66952e-10 1.68329e-10 0 0 0 0)
(0 -1.7273e-10 0 -1.7273e-10 1.71138e-10 0 0 0 0)
(0 -1.78465e-10 0 -1.78465e-10 1.74504e-10 0 0 0 0)
(0 -1.84157e-10 0 -1.84157e-10 1.78704e-10 0 0 0 0)
(0 -1.92251e-10 0 -1.92251e-10 1.84136e-10 0 0 0 0)
(0 -2.01681e-10 0 -2.01681e-10 1.91031e-10 0 0 0 0)
(0 -2.07689e-10 0 -2.07689e-10 1.98917e-10 0 0 0 0)
(0 -2.14702e-10 0 -2.14702e-10 2.07779e-10 0 0 0 0)
(0 -2.22462e-10 0 -2.22462e-10 2.17119e-10 0 0 0 0)
(0 -2.28885e-10 0 -2.28885e-10 2.26363e-10 0 0 0 0)
(0 -2.34333e-10 0 -2.34333e-10 2.35072e-10 0 0 0 0)
(0 -2.38779e-10 0 -2.38779e-10 2.42714e-10 0 0 0 0)
(0 -2.44456e-10 0 -2.44456e-10 2.49282e-10 0 0 0 0)
(0 -2.503e-10 0 -2.503e-10 2.54822e-10 0 0 0 0)
(0 -2.55885e-10 0 -2.55885e-10 2.59624e-10 0 0 0 0)
(0 -2.62112e-10 0 -2.62112e-10 2.64121e-10 0 0 0 0)
(0 -2.69296e-10 0 -2.69296e-10 2.68762e-10 0 0 0 0)
(0 -2.76372e-10 0 -2.76372e-10 2.73805e-10 0 0 0 0)
(0 -2.83526e-10 0 -2.83526e-10 2.79439e-10 0 0 0 0)
(0 -2.90603e-10 0 -2.90603e-10 2.85609e-10 0 0 0 0)
(0 -2.97535e-10 0 -2.97535e-10 2.92132e-10 0 0 0 0)
(0 -3.04163e-10 0 -3.04163e-10 2.98719e-10 0 0 0 0)
(0 -3.10422e-10 0 -3.10422e-10 3.05034e-10 0 0 0 0)
(0 -3.16839e-10 0 -3.16839e-10 3.10859e-10 0 0 0 0)
(0 -3.23356e-10 0 -3.23356e-10 3.16046e-10 0 0 0 0)
(0 -3.29934e-10 0 -3.29934e-10 3.20572e-10 0 0 0 0)
(0 -3.36856e-10 0 -3.36856e-10 3.2454e-10 0 0 0 0)
(0 -3.44104e-10 0 -3.44104e-10 3.28103e-10 0 0 0 0)
(0 -3.51496e-10 0 -3.51496e-10 3.31413e-10 0 0 0 0)
(0 -3.59058e-10 0 -3.59058e-10 3.34605e-10 0 0 0 0)
(0 -3.66763e-10 0 -3.66763e-10 3.37758e-10 0 0 0 0)
(0 -3.74571e-10 0 -3.74571e-10 3.409e-10 0 0 0 0)
(0 -3.82501e-10 0 -3.82501e-10 3.44024e-10 0 0 0 0)
(0 -3.90616e-10 0 -3.90616e-10 3.47105e-10 0 0 0 0)
(0 -3.98941e-10 0 -3.98941e-10 3.50114e-10 0 0 0 0)
(0 -4.07501e-10 0 -4.07501e-10 3.53021e-10 0 0 0 0)
(0 -4.16338e-10 0 -4.16338e-10 3.55806e-10 0 0 0 0)
(0 -4.25459e-10 0 -4.25459e-10 3.58443e-10 0 0 0 0)
(0 -4.34854e-10 0 -4.34854e-10 3.60903e-10 0 0 0 0)
(0 -4.44537e-10 0 -4.44537e-10 3.63147e-10 0 0 0 0)
(0 -4.54521e-10 0 -4.54521e-10 3.65126e-10 0 0 0 0)
(0 -4.6482e-10 0 -4.6482e-10 3.66786e-10 0 0 0 0)
(0 -4.7546e-10 0 -4.7546e-10 3.68067e-10 0 0 0 0)
(0 -4.86465e-10 0 -4.86465e-10 3.68913e-10 0 0 0 0)
(0 -4.97861e-10 0 -4.97861e-10 3.69274e-10 0 0 0 0)
(0 -5.09676e-10 0 -5.09676e-10 3.69114e-10 0 0 0 0)
(0 -5.21945e-10 0 -5.21945e-10 3.68415e-10 0 0 0 0)
(0 -5.34707e-10 0 -5.34707e-10 3.6719e-10 0 0 0 0)
(0 -5.48015e-10 0 -5.48015e-10 3.6549e-10 0 0 0 0)
(0 -5.6193e-10 0 -5.6193e-10 3.63414e-10 0 0 0 0)
(0 -5.76529e-10 0 -5.76529e-10 3.61126e-10 0 0 0 0)
(0 -5.91903e-10 0 -5.91903e-10 3.58857e-10 0 0 0 0)
(0 -6.08162e-10 0 -6.08162e-10 3.56919e-10 0 0 0 0)
(0 -6.25429e-10 0 -6.25429e-10 3.55706e-10 0 0 0 0)
(0 -6.43841e-10 0 -6.43841e-10 3.55695e-10 0 0 0 0)
(0 -6.63538e-10 0 -6.63538e-10 3.57441e-10 0 0 0 0)
(0 -6.84661e-10 0 -6.84661e-10 3.61573e-10 0 0 0 0)
(0 -7.07356e-10 0 -7.07356e-10 3.68791e-10 0 0 0 0)
(0 -7.31808e-10 0 -7.31808e-10 3.79856e-10 0 0 0 0)
(0 -7.58293e-10 0 -7.58293e-10 3.95592e-10 0 0 0 0)
(0 -7.87234e-10 0 -7.87234e-10 4.16868e-10 0 0 0 0)
(0 -8.1917e-10 0 -8.1917e-10 4.44528e-10 0 0 0 0)
(0 -8.54557e-10 0 -8.54557e-10 4.79229e-10 0 0 0 0)
(0 -8.93383e-10 0 -8.93383e-10 5.21117e-10 0 0 0 0)
(0 -9.34897e-10 0 -9.34897e-10 5.69406e-10 0 0 0 0)
(0 -9.78207e-10 0 -9.78207e-10 6.22066e-10 0 0 0 0)
(0 -1.02425e-09 0 -1.02425e-09 6.76016e-10 0 0 0 0)
(0 -1.07708e-09 0 -1.07708e-09 7.27771e-10 0 0 0 0)
(0 -1.13937e-09 0 -1.13937e-09 7.73343e-10 0 0 0 0)
(0 -1.20419e-09 0 -1.20419e-09 8.06213e-10 0 0 0 0)
(0 -1.2603e-09 0 -1.2603e-09 8.16204e-10 0 0 0 0)
(0 -1.31408e-09 0 -1.31408e-09 7.93401e-10 0 0 0 0)
(0 -1.399e-09 0 -1.399e-09 7.33726e-10 0 0 0 0)
(0 -1.54213e-09 0 -1.54213e-09 6.38529e-10 0 0 0 0)
(0 -1.67979e-09 0 -1.67979e-09 5.05793e-10 0 0 0 0)
(0 -1.66914e-09 0 -1.66914e-09 3.19503e-10 0 0 0 0)
(0 -1.74566e-09 0 -1.74566e-09 1.1541e-10 0 0 0 0)
(0 -2.1648e-09 0 -2.1648e-09 -4.64726e-11 0 0 0 0)
(0 -2.72311e-09 0 -2.72311e-09 -1.94333e-10 0 0 0 0)
(0 -3.87599e-09 0 -3.87599e-09 -7.87334e-10 0 0 0 0)
(0 -1.17264e-08 0 -1.17264e-08 4.7385e-09 0 0 0 0)
(0 -1.54928e-08 0 -1.54928e-08 1.92729e-08 0 0 0 0)
(0 -3.23255e-08 0 -3.23255e-08 1.44558e-08 0 0 0 0)
(0 -7.5927e-07 0 -7.5927e-07 1.3888e-07 0 0 0 0)
(0 -9.07177e-05 0 -9.07177e-05 2.3681e-06 0 0 0 0)
(0 -0.000378752 0 -0.000378752 1.14348e-07 0 0 0 0)
(0 -0.00045322 0 -0.00045322 -1.92535e-05 0 0 0 0)
(0 -0.000167539 0 -0.000167539 7.75669e-06 0 0 0 0)
(0 7.21981e-05 0 7.21981e-05 -1.45204e-05 0 0 0 0)
(0 0.000278479 0 0.000278479 -2.82648e-06 0 0 0 0)
(0 0.000464241 0 0.000464241 -5.63006e-06 0 0 0 0)
(0 0.0006341 0 0.0006341 -6.38422e-06 0 0 0 0)
(0 0.000790497 0 0.000790497 -6.44592e-06 0 0 0 0)
(0 0.000934833 0 0.000934833 -6.33182e-06 0 0 0 0)
(0 0.00106814 0 0.00106814 -6.19228e-06 0 0 0 0)
(0 0.00119124 0 0.00119124 -6.01584e-06 0 0 0 0)
(0 0.00130482 0 0.00130482 -5.79744e-06 0 0 0 0)
(0 0.00140946 0 0.00140946 -5.54653e-06 0 0 0 0)
(0 0.00150567 0 0.00150567 -5.27355e-06 0 0 0 0)
(0 0.00159389 0 0.00159389 -4.9861e-06 0 0 0 0)
(0 0.00167451 0 0.00167451 -4.68976e-06 0 0 0 0)
(0 0.00174787 0 0.00174787 -4.38906e-06 0 0 0 0)
(0 0.00181429 0 0.00181429 -4.08777e-06 0 0 0 0)
(0 0.00187404 0 0.00187404 -3.78899e-06 0 0 0 0)
(0 0.00192736 0 0.00192736 -3.49526e-06 0 0 0 0)
(0 0.0019745 0 0.0019745 -3.20866e-06 0 0 0 0)
(0 0.00201565 0 0.00201565 -2.93081e-06 0 0 0 0)
(0 0.002051 0 0.002051 -2.66297e-06 0 0 0 0)
(0 0.00208073 0 0.00208073 -2.40604e-06 0 0 0 0)
(0 0.00210498 0 0.00210498 -2.16075e-06 0 0 0 0)
(0 0.00212391 0 0.00212391 -1.92784e-06 0 0 0 0)
(0 0.00213763 0 0.00213763 -1.7083e-06 0 0 0 0)
(0 0.00214628 0 0.00214628 -1.50346e-06 0 0 0 0)
(0 0.00214996 0 0.00214996 -1.31489e-06 0 0 0 0)
(0 0.00214877 0 0.00214877 -1.14396e-06 0 0 0 0)
(0 0.0021428 0 0.0021428 -9.91442e-07 0 0 0 0)
(0 0.00213215 0 0.00213215 -8.5715e-07 0 0 0 0)
(0 0.0021169 0 0.0021169 -7.39932e-07 0 0 0 0)
(0 0.00209714 0 0.00209714 -6.37912e-07 0 0 0 0)
(0 0.00207295 0 0.00207295 -5.48853e-07 0 0 0 0)
(0 0.00204443 0 0.00204443 -4.70456e-07 0 0 0 0)
(0 0.00201167 0 0.00201167 -4.00467e-07 0 0 0 0)
(0 0.00197474 0 0.00197474 -3.36639e-07 0 0 0 0)
(0 0.00193373 0 0.00193373 -2.76763e-07 0 0 0 0)
(0 0.00188871 0 0.00188871 -2.19118e-07 0 0 0 0)
(0 0.00183974 0 0.00183974 -1.6347e-07 0 0 0 0)
(0 0.00178688 0 0.00178688 -1.11995e-07 0 0 0 0)
(0 0.00173019 0 0.00173019 -6.87581e-08 0 0 0 0)
(0 0.00166976 0 0.00166976 -3.72338e-08 0 0 0 0)
(0 0.00160567 0 0.00160567 -1.78389e-08 0 0 0 0)
(0 0.00153808 0 0.00153808 -7.83911e-09 0 0 0 0)
(0 0.00146714 0 0.00146714 -3.38639e-09 0 0 0 0)
(0 0.00139302 0 0.00139302 -1.53065e-09 0 0 0 0)
(0 0.00131591 0 0.00131591 -7.37788e-10 0 0 0 0)
(0 0.00123601 0 0.00123601 -3.76224e-10 0 0 0 0)
(0 0.00115354 0 0.00115354 -2.02658e-10 0 0 0 0)
(0 0.00106787 0 0.00106787 -1.2017e-10 0 0 0 0)
(-2.21413e-18 0.000978267 0 0.000978267 -8.27139e-11 0 0 0 0)
(0 0.000884901 0 0.000884901 -6.19682e-11 0 0 0 0)
(0 0.00078802 0 0.00078802 -4.73347e-11 0 0 0 0)
(1.58454e-18 0.000687995 0 0.000687995 -4.12538e-11 0 0 0 0)
(0 0.000585364 0 0.000585364 -4.00921e-11 0 0 0 0)
(-2.30954e-18 0.000480901 0 0.000480901 -3.52263e-11 0 0 0 0)
(0 0.000375738 0 0.000375738 -2.74848e-11 0 0 0 0)
(1.43689e-18 0.000271626 0 0.000271626 -2.17976e-11 0 0 0 0)
(0 0.000171502 0 0.000171502 -2.05854e-11 0 0 0 0)
(0 7.56309e-05 0 7.56309e-05 -4.39779e-12 0 0 0 0)
(0 1.10955e-05 0 1.10955e-05 -4.82113e-12 0 0 0 0)
(4.55342e-20 8.2874e-07 0 8.2874e-07 -1.27924e-13 0 0 0 0)
(0 2.20874e-07 0 2.20874e-07 -1.24525e-12 0 0 0 0)
(0 1.76669e-07 0 1.76669e-07 -1.0294e-13 0 0 0 0)
(0 1.57261e-07 0 1.57261e-07 -1.18386e-12 0 0 0 0)
(0 1.39846e-07 0 1.39846e-07 -2.24143e-14 0 0 0 0)
(0 1.24221e-07 0 1.24221e-07 -1.04606e-12 0 0 0 0)
(-3.61385e-20 1.10222e-07 0 1.10222e-07 6.79188e-14 0 0 0 0)
(0 9.74745e-08 0 9.74745e-08 -1.03045e-12 0 0 0 0)
(-3.4715e-20 8.60025e-08 0 8.60025e-08 1.9936e-13 0 0 0 0)
(0 7.57306e-08 0 7.57306e-08 -9.6914e-13 0 0 0 0)
(0 6.65293e-08 0 6.65293e-08 3.07248e-13 0 0 0 0)
(0 5.83523e-08 0 5.83523e-08 -9.34526e-13 0 0 0 0)
(0 5.10133e-08 0 5.10133e-08 3.67963e-13 0 0 0 0)
(0 4.44488e-08 0 4.44488e-08 -8.69522e-13 0 0 0 0)
(0 3.86773e-08 0 3.86773e-08 4.35628e-13 0 0 0 0)
(3.01599e-20 3.35505e-08 0 3.35505e-08 -8.31131e-13 0 0 0 0)
(2.95599e-20 2.90038e-08 0 2.90038e-08 4.82165e-13 0 0 0 0)
(0 2.50219e-08 0 2.50219e-08 -7.77562e-13 0 0 0 0)
(0 2.15226e-08 0 2.15226e-08 5.03445e-13 0 0 0 0)
(0 1.84506e-08 0 1.84506e-08 -7.25155e-13 0 0 0 0)
(0 1.57715e-08 0 1.57715e-08 5.18855e-13 0 0 0 0)
(0 1.34434e-08 0 1.34434e-08 -6.81072e-13 0 0 0 0)
(0 1.14169e-08 0 1.14169e-08 5.19559e-13 0 0 0 0)
(0 9.65785e-09 0 9.65785e-09 -6.36898e-13 0 0 0 0)
(0 8.13918e-09 0 8.13918e-09 5.1374e-13 0 0 0 0)
(0 6.82382e-09 0 6.82382e-09 -5.94046e-13 0 0 0 0)
(0 5.66394e-09 0 5.66394e-09 5.72676e-13 0 0 0 0)
(0 4.57635e-09 0 4.57635e-09 -4.97021e-13 0 0 0 0)
(0 4.07586e-09 0 4.07586e-09 1.3139e-12 0 0 0 0)
(0 3.60617e-09 0 3.60617e-09 -1.5199e-12 0 0 0 0)
(-4.4623e-20 2.7946e-09 0 2.7946e-09 4.8342e-13 0 0 0 0)
(4.37353e-20 2.27016e-09 0 2.27016e-09 -4.83303e-13 0 0 0 0)
(0 1.86135e-09 0 1.86135e-09 4.82554e-13 0 0 0 0)
(0 1.51947e-09 0 1.51947e-09 -4.8077e-13 0 0 0 0)
(-4.11767e-20 1.23219e-09 0 1.23219e-09 4.78552e-13 0 0 0 0)
(0 9.94103e-10 0 9.94103e-10 -4.75325e-13 0 0 0 0)
(0 7.98998e-10 0 7.98998e-10 4.71842e-13 0 0 0 0)
(-3.87678e-20 6.39589e-10 0 6.39589e-10 -4.67374e-13 0 0 0 0)
(0 5.09165e-10 0 5.09165e-10 4.62812e-13 0 0 0 0)
(0 4.03221e-10 0 4.03221e-10 -4.57277e-13 0 0 0 0)
(0 3.18187e-10 0 3.18187e-10 4.5178e-13 0 0 0 0)
(0 2.50309e-10 0 2.50309e-10 -4.45319e-13 0 0 0 0)
(0 1.96174e-10 0 1.96174e-10 4.39016e-13 0 0 0 0)
(0 1.53116e-10 0 1.53116e-10 -4.31766e-13 0 0 0 0)
(0 1.19037e-10 0 1.19037e-10 4.24763e-13 0 0 0 0)
(0 9.2182e-11 0 9.2182e-11 -4.16835e-13 0 0 0 0)
(0 7.10802e-11 0 7.10802e-11 4.09226e-13 0 0 0 0)
(0 5.45497e-11 0 5.45497e-11 -4.00725e-13 0 0 0 0)
(0 4.16465e-11 0 4.16465e-11 3.92581e-13 0 0 0 0)
(0 3.16243e-11 0 3.16243e-11 -3.83611e-13 0 0 0 0)
(0 2.38799e-11 0 2.38799e-11 3.74989e-13 0 0 0 0)
(0 1.79298e-11 0 1.79298e-11 -3.65667e-13 0 0 0 0)
(0 1.33844e-11 0 1.33844e-11 3.56601e-13 0 0 0 0)
(2.81089e-20 9.93201e-12 0 9.93201e-12 -3.46978e-13 0 0 0 0)
(0 7.32547e-12 0 7.32547e-12 3.37545e-13 0 0 0 0)
(0 5.36986e-12 0 5.36986e-12 -3.2765e-13 0 0 0 0)
(0 3.91153e-12 0 3.91153e-12 3.1789e-13 0 0 0 0)
(0 2.8307e-12 0 2.8307e-12 -3.07729e-13 0 0 0 0)
(0 2.03578e-12 0 2.03578e-12 2.97692e-13 0 0 0 0)
(0 1.45431e-12 0 1.45431e-12 -2.87297e-13 0 0 0 0)
(0 1.03155e-12 0 1.03155e-12 2.76994e-13 0 0 0 0)
(0 7.26068e-13 0 7.26068e-13 -2.66379e-13 0 0 0 0)
(0 5.07992e-13 0 5.07992e-13 2.5584e-13 0 0 0 0)
(0 3.53488e-13 0 3.53488e-13 -2.44992e-13 0 0 0 0)
(0 2.43814e-13 0 2.43814e-13 2.34213e-13 0 0 0 0)
(0 1.66218e-13 0 1.66218e-13 -2.23126e-13 0 0 0 0)
(0 1.12461e-13 0 1.12461e-13 2.12092e-13 0 0 0 0)
(0 7.59588e-14 0 7.59588e-14 -2.00742e-13 0 0 0 0)
(0 5.10701e-14 0 5.10701e-14 1.89398e-13 0 0 0 0)
(0 3.36441e-14 0 3.36441e-14 -1.7773e-13 0 0 0 0)
(0 2.22781e-14 0 2.22781e-14 1.66e-13 0 0 0 0)
(0 1.46812e-14 0 1.46812e-14 -1.53894e-13 0 0 0 0)
(0 9.33846e-15 0 9.33846e-15 1.41631e-13 0 0 0 0)
(3.7613e-20 5.98715e-15 0 5.98715e-15 -1.28877e-13 0 0 0 0)
(0 3.74151e-15 0 3.74151e-15 1.1581e-13 0 0 0 0)
(0 2.33218e-15 0 2.33218e-15 -1.02025e-13 0 0 0 0)
(0 1.3857e-15 0 1.3857e-15 8.75159e-14 0 0 0 0)
(0 7.69401e-16 0 7.69401e-16 -7.15959e-14 0 0 0 0)
(0 6.67852e-16 0 6.67852e-16 5.32895e-14 0 0 0 0)
(0 4.96521e-16 0 4.96521e-16 -2.02729e-14 0 0 0 0)
(0 1.95429e-16 0 1.95429e-16 -1.75143e-14 0 0 0 0)
(0 -1.11112e-16 0 -1.11112e-16 3.84949e-14 0 0 0 0)
(0 -2.34989e-16 0 -2.34989e-16 -4.86002e-14 0 0 0 0)
(3.0766e-20 1.46861e-16 0 1.46861e-16 5.60897e-14 0 0 0 0)
(0 2.49282e-16 0 2.49282e-16 -6.21359e-14 0 0 0 0)
(0 7.48235e-17 0 7.48235e-17 6.7234e-14 0 0 0 0)
(-2.89661e-20 -1.2798e-16 0 -1.2798e-16 -7.16292e-14 0 0 0 0)
(0 -6.09673e-17 0 -6.09673e-17 7.55312e-14 0 0 0 0)
(0 -1.08448e-17 0 -1.08448e-17 -7.90014e-14 0 0 0 0)
(0 1.99082e-17 0 1.99082e-17 8.21405e-14 0 0 0 0)
(0 1.48941e-16 0 1.48941e-16 -8.49779e-14 0 0 0 0)
(0 -1.18471e-16 0 -1.18471e-16 8.75677e-14 0 0 0 0)
(0 -2.58527e-16 0 -2.58527e-16 -8.9924e-14 0 0 0 0)
(0 2.01644e-16 0 2.01644e-16 9.20847e-14 0 0 0 0)
(0 3.18736e-16 0 3.18736e-16 -9.40592e-14 0 0 0 0)
(0 -1.7421e-16 0 -1.7421e-16 9.58679e-14 0 0 0 0)
(0 -2.71725e-16 0 -2.71725e-16 -9.73792e-14 0 0 0 0)
(0 1.16467e-17 0 1.16467e-17 1.11876e-13 0 0 0 0)
(0 -1.53525e-18 0 -1.53525e-18 -1.14177e-13 0 0 0 0)
(0 -2.45441e-17 0 -2.45441e-17 1.16143e-13 0 0 0 0)
(0 4.60839e-17 0 4.60839e-17 -1.1793e-13 0 0 0 0)
(0 -1.16202e-17 0 -1.16202e-17 1.1954e-13 0 0 0 0)
(0 -1.74039e-17 0 -1.74039e-17 -1.20989e-13 0 0 0 0)
(0 2.99241e-17 0 2.99241e-17 1.22275e-13 0 0 0 0)
(0 -6.71671e-18 0 -6.71671e-18 -1.23413e-13 0 0 0 0)
(0 -1.76752e-17 0 -1.76752e-17 1.24398e-13 0 0 0 0)
(0 1.31687e-18 0 1.31687e-18 -1.25246e-13 0 0 0 0)
(0 2.62249e-17 0 2.62249e-17 1.25948e-13 0 0 0 0)
(0 1.44525e-17 0 1.44525e-17 -1.26523e-13 0 0 0 0)
(0 -2.31743e-17 0 -2.31743e-17 1.26956e-13 0 0 0 0)
(0 4.84397e-18 0 4.84397e-18 -1.27267e-13 0 0 0 0)
(0 -3.82488e-18 0 -3.82488e-18 1.2744e-13 0 0 0 0)
(0 1.92568e-18 0 1.92568e-18 -1.27497e-13 0 0 0 0)
(0 2.38427e-17 0 2.38427e-17 1.27421e-13 0 0 0 0)
(0 -1.9859e-17 0 -1.9859e-17 -1.27231e-13 0 0 0 0)
(0 3.82488e-18 0 3.82488e-18 1.26883e-13 0 0 0 0)
(0 -1.12364e-17 0 -1.12364e-17 -1.26507e-13 0 0 0 0)
(0 -2.59073e-17 0 -2.59073e-17 1.25892e-13 0 0 0 0)
(0 3.12608e-17 0 3.12608e-17 -1.25261e-13 0 0 0 0)
(0 2.5272e-17 0 2.5272e-17 1.24404e-13 0 0 0 0)
(0 -3.29483e-17 0 -3.29483e-17 -1.23519e-13 0 0 0 0)
(0 6.51157e-18 0 6.51157e-18 1.22422e-13 0 0 0 0)
(0 2.20361e-17 0 2.20361e-17 -1.21256e-13 0 0 0 0)
(0 -2.38625e-17 0 -2.38625e-17 1.19898e-13 0 0 0 0)
(0 -2.33199e-17 0 -2.33199e-17 -1.18488e-13 0 0 0 0)
(0 -3.33718e-17 0 -3.33718e-17 1.16867e-13 0 0 0 0)
(0 -3.59989e-18 0 -3.59989e-18 -1.15136e-13 0 0 0 0)
(0 -3.50063e-17 0 -3.50063e-17 1.13253e-13 0 0 0 0)
(0 6.53142e-18 0 6.53142e-18 -1.11211e-13 0 0 0 0)
(0 3.80106e-17 0 3.80106e-17 1.09054e-13 0 0 0 0)
(0 -1.4254e-17 0 -1.4254e-17 -1.06644e-13 0 0 0 0)
(0 9.28428e-18 0 9.28428e-18 1.04156e-13 0 0 0 0)
(0 5.59174e-18 0 5.59174e-18 -1.01444e-13 0 0 0 0)
(0 1.89656e-17 0 1.89656e-17 9.85928e-14 0 0 0 0)
(0 2.19302e-17 0 2.19302e-17 -9.54181e-14 0 0 0 0)
(0 -1.68348e-17 0 -1.68348e-17 9.21858e-14 0 0 0 0)
(0 -4.52964e-17 0 -4.52964e-17 -8.85207e-14 0 0 0 0)
(0 -1.08526e-18 0 -1.08526e-18 8.48329e-14 0 0 0 0)
(0 8.43261e-17 0 8.43261e-17 -8.05432e-14 0 0 0 0)
(0 3.78253e-17 0 3.78253e-17 7.62938e-14 0 0 0 0)
(0 -4.52633e-17 0 -4.52633e-17 -7.12924e-14 0 0 0 0)
(0 -2.14339e-17 0 -2.14339e-17 6.6186e-14 0 0 0 0)
(0 2.02295e-17 0 2.02295e-17 -6.0144e-14 0 0 0 0)
(0 2.17912e-17 0 2.17912e-17 5.36623e-14 0 0 0 0)
(0 -2.32338e-17 0 -2.32338e-17 -4.56897e-14 0 0 0 0)
(0 -8.0402e-18 0 -8.0402e-18 3.58111e-14 0 0 0 0)
(0 1.88134e-17 0 1.88134e-17 -1.57277e-14 0 0 0 0)
)
;

boundaryField
{
    inandouthalf11
    {
        type            cyclic;
    }
    inandouthalf12
    {
        type            cyclic;
    }
    inandouthalf21
    {
        type            cyclic;
    }
    inandouthalf22
    {
        type            cyclic;
    }
    inandouthalf31
    {
        type            cyclic;
    }
    inandouthalf32
    {
        type            cyclic;
    }
    inandouthalf41
    {
        type            cyclic;
    }
    inandouthalf42
    {
        type            cyclic;
    }
    top
    {
        type            symmetryPlane;
    }
    walls
    {
        type            zeroGradient;
    }
    frontAndBackPlanes
    {
        type            empty;
    }
}


// ************************************************************************* //
