/*--------------------------------*- C++ -*----------------------------------*\
| =========                 |                                                 |
| \\      /  F ield         | OpenFOAM: The Open Source CFD Toolbox           |
|  \\    /   O peration     | Version:  2.4.x                                 |
|   \\  /    A nd           | Web:      www.OpenFOAM.org                      |
|    \\/     M anipulation  |                                                 |
\*---------------------------------------------------------------------------*/
FoamFile
{
    version     2.0;
    format      ascii;
    class       volTensorField;
    location    "3";
    object      Taus;
}
// * * * * * * * * * * * * * * * * * * * * * * * * * * * * * * * * * * * * * //

dimensions      [0 2 -2 0 0 0 0];

internalField   nonuniform List<tensor> 
360
(
(0 -0.0168328 0 -0.0168328 -0.167473 0 0 0 0)
(0 -0.0193212 0 -0.0193212 -0.177779 0 0 0 0)
(0 -0.021606 0 -0.021606 -0.183792 0 0 0 0)
(0 -0.0225862 0 -0.0225862 -0.184342 0 0 0 0)
(1.02662e-17 -0.022649 0 -0.022649 -0.183458 0 0 0 0)
(1.03499e-17 -0.0223333 0 -0.0223333 -0.182069 0 0 0 0)
(9.57799e-18 -0.0217846 0 -0.0217846 -0.180143 0 0 0 0)
(0 -0.0212028 0 -0.0212028 -0.178146 0 0 0 0)
(1.44361e-17 -0.0207205 0 -0.0207205 -0.176453 0 0 0 0)
(0 -0.0202711 0 -0.0202711 -0.174841 0 0 0 0)
(2.17568e-17 -0.0197599 0 -0.0197599 -0.173078 0 0 0 0)
(0 -0.0191626 0 -0.0191626 -0.17111 0 0 0 0)
(1.94305e-17 -0.0185252 0 -0.0185252 -0.168993 0 0 0 0)
(0 -0.0179539 0 -0.0179539 -0.16703 0 0 0 0)
(0 -0.0175391 0 -0.0175391 -0.165491 0 0 0 0)
(0 -0.0173223 0 -0.0173223 -0.16449 0 0 0 0)
(0 -0.0172976 0 -0.0172976 -0.163927 0 0 0 0)
(1.94399e-16 -0.0174369 0 -0.0174369 -0.16359 0 0 0 0)
(0 -0.0177237 0 -0.0177237 -0.163297 0 0 0 0)
(0 -0.0181638 0 -0.0181638 -0.162914 0 0 0 0)
(0 -0.0187787 0 -0.0187787 -0.162512 0 0 0 0)
(1.4269e-15 -0.0195111 0 -0.0195111 -0.162039 0 0 0 0)
(0 -0.0202803 0 -0.0202803 -0.161583 0 0 0 0)
(0 -0.0210224 0 -0.0210224 -0.161171 0 0 0 0)
(0 -0.0217121 0 -0.0217121 -0.160803 0 0 0 0)
(1.1462e-15 -0.0223539 0 -0.0223539 -0.160467 0 0 0 0)
(0 -0.0229585 0 -0.0229585 -0.160148 0 0 0 0)
(0 -0.0235303 0 -0.0235303 -0.159793 0 0 0 0)
(0 -0.0240895 0 -0.0240895 -0.159432 0 0 0 0)
(0 -0.0246469 0 -0.0246469 -0.15906 0 0 0 0)
(0 -0.0252021 0 -0.0252021 -0.158676 0 0 0 0)
(0 -0.0257497 0 -0.0257497 -0.15824 0 0 0 0)
(0 -0.0263031 0 -0.0263031 -0.157837 0 0 0 0)
(0 -0.0268361 0 -0.0268361 -0.157348 0 0 0 0)
(0 -0.0273725 0 -0.0273725 -0.156897 0 0 0 0)
(-1.01959e-15 -0.0278978 0 -0.0278978 -0.156402 0 0 0 0)
(0 -0.0284139 0 -0.0284139 -0.15591 0 0 0 0)
(0 -0.0289083 0 -0.0289083 -0.155382 0 0 0 0)
(0 -0.0293856 0 -0.0293856 -0.154816 0 0 0 0)
(0 -0.0298661 0 -0.0298661 -0.15429 0 0 0 0)
(0 -0.0303169 0 -0.0303169 -0.153687 0 0 0 0)
(0 -0.0307594 0 -0.0307594 -0.153087 0 0 0 0)
(-9.41556e-16 -0.0311945 0 -0.0311945 -0.152489 0 0 0 0)
(0 -0.0315962 0 -0.0315962 -0.15182 0 0 0 0)
(0 -0.0319865 0 -0.0319865 -0.151159 0 0 0 0)
(0 -0.0323578 0 -0.0323578 -0.150465 0 0 0 0)
(0 -0.032711 0 -0.032711 -0.149741 0 0 0 0)
(0 -0.0330566 0 -0.0330566 -0.149025 0 0 0 0)
(0 -0.0333631 0 -0.0333631 -0.148253 0 0 0 0)
(0 -0.0336321 0 -0.0336321 -0.147428 0 0 0 0)
(-8.0115e-16 -0.0338928 0 -0.0338928 -0.146619 0 0 0 0)
(0 -0.0341234 0 -0.0341234 -0.145755 0 0 0 0)
(0 -0.0343295 0 -0.0343295 -0.144878 0 0 0 0)
(0 -0.0345058 0 -0.0345058 -0.143955 0 0 0 0)
(0 -0.0346589 0 -0.0346589 -0.143027 0 0 0 0)
(0 -0.0347705 0 -0.0347705 -0.142031 0 0 0 0)
(0 -0.0348623 0 -0.0348623 -0.141042 0 0 0 0)
(0 -0.0349167 0 -0.0349167 -0.139995 0 0 0 0)
(0 -0.0349486 0 -0.0349486 -0.138931 0 0 0 0)
(0 -0.0349602 0 -0.0349602 -0.137858 0 0 0 0)
(0 -0.034934 0 -0.034934 -0.136724 0 0 0 0)
(0 -0.0348979 0 -0.0348979 -0.135603 0 0 0 0)
(0 -0.0348414 0 -0.0348414 -0.134441 0 0 0 0)
(0 -0.0347791 0 -0.0347791 -0.133282 0 0 0 0)
(0 -0.0347083 0 -0.0347083 -0.132105 0 0 0 0)
(0 -0.0346283 0 -0.0346283 -0.130922 0 0 0 0)
(0 -0.034529 0 -0.034529 -0.129716 0 0 0 0)
(0 -0.034409 0 -0.034409 -0.128492 0 0 0 0)
(0 -0.0342702 0 -0.0342702 -0.127251 0 0 0 0)
(0 -0.0341097 0 -0.0341097 -0.125999 0 0 0 0)
(0 -0.0339113 0 -0.0339113 -0.124708 0 0 0 0)
(0 -0.0336877 0 -0.0336877 -0.123394 0 0 0 0)
(0 -0.0334557 0 -0.0334557 -0.122085 0 0 0 0)
(0 -0.0331999 0 -0.0331999 -0.12074 0 0 0 0)
(0 -0.0329325 0 -0.0329325 -0.119393 0 0 0 0)
(0 -0.0326543 0 -0.0326543 -0.118025 0 0 0 0)
(0 -0.0323775 0 -0.0323775 -0.116662 0 0 0 0)
(0 -0.032096 0 -0.032096 -0.115288 0 0 0 0)
(0 -0.0318057 0 -0.0318057 -0.113905 0 0 0 0)
(0 -0.0315062 0 -0.0315062 -0.112512 0 0 0 0)
(0 -0.031198 0 -0.031198 -0.111114 0 0 0 0)
(0 -0.030875 0 -0.030875 -0.109701 0 0 0 0)
(0 -0.0305368 0 -0.0305368 -0.108277 0 0 0 0)
(0 -0.0301854 0 -0.0301854 -0.106844 0 0 0 0)
(0 -0.029822 0 -0.029822 -0.1054 0 0 0 0)
(0 -0.0294492 0 -0.0294492 -0.103949 0 0 0 0)
(0 -0.0290689 0 -0.0290689 -0.102489 0 0 0 0)
(0 -0.0286845 0 -0.0286845 -0.101026 0 0 0 0)
(0 -0.0282967 0 -0.0282967 -0.0995574 0 0 0 0)
(0 -0.0279048 0 -0.0279048 -0.0980839 0 0 0 0)
(0 -0.0275089 0 -0.0275089 -0.0966058 0 0 0 0)
(0 -0.0271084 0 -0.0271084 -0.095123 0 0 0 0)
(0 -0.0267018 0 -0.0267018 -0.0936341 0 0 0 0)
(0 -0.026289 0 -0.026289 -0.0921396 0 0 0 0)
(0 -0.02587 0 -0.02587 -0.0906398 0 0 0 0)
(0 -0.0254454 0 -0.0254454 -0.0891346 0 0 0 0)
(0 -0.0250157 0 -0.0250157 -0.0876247 0 0 0 0)
(0 -0.0245816 0 -0.0245816 -0.0861105 0 0 0 0)
(0 -0.0241437 0 -0.0241437 -0.0845923 0 0 0 0)
(0 -0.0237024 0 -0.0237024 -0.0830702 0 0 0 0)
(0 -0.0232578 0 -0.0232578 -0.0815445 0 0 0 0)
(0 -0.0228101 0 -0.0228101 -0.0800153 0 0 0 0)
(0 -0.0223595 0 -0.0223595 -0.0784827 0 0 0 0)
(0 -0.0219062 0 -0.0219062 -0.0769469 0 0 0 0)
(0 -0.0214503 0 -0.0214503 -0.075408 0 0 0 0)
(0 -0.0209922 0 -0.0209922 -0.0738662 0 0 0 0)
(0 -0.020532 0 -0.020532 -0.0723217 0 0 0 0)
(0 -0.02007 0 -0.02007 -0.0707746 0 0 0 0)
(0 -0.0196064 0 -0.0196064 -0.069225 0 0 0 0)
(0 -0.0191414 0 -0.0191414 -0.0676731 0 0 0 0)
(0 -0.0186751 0 -0.0186751 -0.0661189 0 0 0 0)
(0 -0.0182078 0 -0.0182078 -0.0645627 0 0 0 0)
(0 -0.0177396 0 -0.0177396 -0.0630044 0 0 0 0)
(0 -0.0172707 0 -0.0172707 -0.0614444 0 0 0 0)
(0 -0.0168014 0 -0.0168014 -0.0598826 0 0 0 0)
(0 -0.0163319 0 -0.0163319 -0.0583194 0 0 0 0)
(0 -0.0158625 0 -0.0158625 -0.0567549 0 0 0 0)
(0 -0.0153932 0 -0.0153932 -0.0551893 0 0 0 0)
(0 -0.0149245 0 -0.0149245 -0.053623 0 0 0 0)
(0 -0.0144565 0 -0.0144565 -0.0520564 0 0 0 0)
(0 -0.0139894 0 -0.0139894 -0.0504898 0 0 0 0)
(0 -0.0135237 0 -0.0135237 -0.0489237 0 0 0 0)
(0 -0.0130596 0 -0.0130596 -0.0473589 0 0 0 0)
(0 -0.0125977 0 -0.0125977 -0.0457959 0 0 0 0)
(0 -0.0121385 0 -0.0121385 -0.0442356 0 0 0 0)
(0 -0.0116822 0 -0.0116822 -0.0426785 0 0 0 0)
(0 -0.0112287 0 -0.0112287 -0.0411251 0 0 0 0)
(0 -0.0107777 0 -0.0107777 -0.0395754 0 0 0 0)
(0 -0.010329 0 -0.010329 -0.0380291 0 0 0 0)
(0 -0.00988371 0 -0.00988371 -0.0364867 0 0 0 0)
(0 -0.00944448 0 -0.00944448 -0.0349498 0 0 0 0)
(0 -0.00901378 0 -0.00901378 -0.0334207 0 0 0 0)
(0 -0.00858968 0 -0.00858968 -0.0318989 0 0 0 0)
(0 -0.00816472 0 -0.00816472 -0.0303782 0 0 0 0)
(0 -0.00773482 0 -0.00773482 -0.0288517 0 0 0 0)
(0 -0.00730932 0 -0.00730932 -0.0273261 0 0 0 0)
(0 -0.00690004 0 -0.00690004 -0.0258154 0 0 0 0)
(0 -0.00649455 0 -0.00649455 -0.0243151 0 0 0 0)
(0 -0.00605002 0 -0.00605002 -0.0227868 0 0 0 0)
(0 -0.00554768 0 -0.00554768 -0.0211832 0 0 0 0)
(0 -0.00507021 0 -0.00507021 -0.0195608 0 0 0 0)
(0 -0.00471567 0 -0.00471567 -0.0180998 0 0 0 0)
(0 -0.00436397 0 -0.00436397 -0.0164693 0 0 0 0)
(0 -0.00401402 0 -0.00401402 -0.0145003 0 0 0 0)
(0 -0.00424089 0 -0.00424089 -0.0118028 0 0 0 0)
(0 -0.00469502 0 -0.00469502 -0.00750759 0 0 0 0)
(0 -0.00177807 0 -0.00177807 -0.00335321 0 0 0 0)
(0 -0.00226734 0 -0.00226734 -0.00194077 0 0 0 0)
(0 -0.00156212 0 -0.00156212 -0.000352653 0 0 0 0)
(0 -0.000583485 0 -0.000583485 -4.41338e-05 0 0 0 0)
(0 -0.000489129 0 -0.000489129 -6.87577e-05 0 0 0 0)
(0 -0.000688304 0 -0.000688304 -0.000310675 0 0 0 0)
(0 -0.000333587 0 -0.000333587 -0.000608993 0 0 0 0)
(0 4.42949e-05 0 4.42949e-05 -0.00075563 0 0 0 0)
(0 0.000427945 0 0.000427945 -0.000701794 0 0 0 0)
(0 0.000809552 0 0.000809552 -0.000554384 0 0 0 0)
(0 0.00119595 0 0.00119595 -0.000397741 0 0 0 0)
(0 0.00159158 0 0.00159158 -0.000243725 0 0 0 0)
(0 0.00200012 0 0.00200012 -9.05132e-05 0 0 0 0)
(0 0.00242507 0 0.00242507 6.04527e-05 0 0 0 0)
(0 0.00286952 0 0.00286952 0.000208991 0 0 0 0)
(0 0.00333636 0 0.00333636 0.000356302 0 0 0 0)
(0 0.00382846 0 0.00382846 0.000503812 0 0 0 0)
(0 0.00434871 0 0.00434871 0.000652949 0 0 0 0)
(0 0.00490006 0 0.00490006 0.000805143 0 0 0 0)
(0 0.0054855 0 0.0054855 0.000961781 0 0 0 0)
(0 0.00610815 0 0.00610815 0.00112418 0 0 0 0)
(0 0.00677123 0 0.00677123 0.00129356 0 0 0 0)
(0 0.00747812 0 0.00747812 0.001471 0 0 0 0)
(0 0.00823246 0 0.00823246 0.00165738 0 0 0 0)
(0 0.00903822 0 0.00903822 0.00185331 0 0 0 0)
(0 0.00989985 0 0.00989985 0.00205898 0 0 0 0)
(0 0.0108225 0 0.0108225 0.0022742 0 0 0 0)
(0 0.0118121 0 0.0118121 0.00249865 0 0 0 0)
(0 0.0128755 0 0.0128755 0.00273273 0 0 0 0)
(0 0.0140197 0 0.0140197 0.002979 0 0 0 0)
(0 0.0152515 0 0.0152515 0.00324447 0 0 0 0)
(0 0.016575 0 0.016575 0.00354275 0 0 0 0)
(0 0.0179906 0 0.0179906 0.00389527 0 0 0 0)
(0 0.019493 0 0.019493 0.00433037 0 0 0 0)
(0 0.0210713 0 0.0210713 0.00487975 0 0 0 0)
(0 0.0227093 0 0.0227093 0.00557274 0 0 0 0)
(0 0.0243887 0 0.0243887 0.00642968 0 0 0 0)
(0 0.0260917 0 0.0260917 0.00745715 0 0 0 0)
(0 0.0278067 0 0.0278067 0.00864656 0 0 0 0)
(0 0.029535 0 0.029535 0.00997552 0 0 0 0)
(0 0.0313031 0 0.0313031 0.0114076 0 0 0 0)
(0 0.0331826 0 0.0331826 0.0128877 0 0 0 0)
(0 0.0353237 0 0.0353237 0.0143329 0 0 0 0)
(0 0.0380072 0 0.0380072 0.0156233 0 0 0 0)
(0 0.0417155 0 0.0417155 0.0165982 0 0 0 0)
(0 0.0472081 0 0.0472081 0.0170639 0 0 0 0)
(0 0.0555328 0 0.0555328 0.0168101 0 0 0 0)
(0 0.0678484 0 0.0678484 0.0156455 0 0 0 0)
(0 0.0848622 0 0.0848622 0.0134785 0 0 0 0)
(0 0.105992 0 0.105992 0.0104447 0 0 0 0)
(0 0.129179 0 0.129179 0.00694062 0 0 0 0)
(0 0.152004 0 0.152004 0.00341752 0 0 0 0)
(0 0.172991 0 0.172991 0.000122856 0 0 0 0)
(0 0.191726 0 0.191726 -0.00291695 0 0 0 0)
(0 0.207908 0 0.207908 -0.00572018 0 0 0 0)
(0 0.22156 0 0.22156 -0.00830483 0 0 0 0)
(-1.79038e-15 0.233755 0 0.233755 -0.010818 0 0 0 0)
(0 0.245672 0 0.245672 -0.0134198 0 0 0 0)
(0 0.255671 0 0.255671 -0.0158987 0 0 0 0)
(2.14602e-15 0.262442 0 0.262442 -0.0180439 0 0 0 0)
(0 0.269091 0 0.269091 -0.0202378 0 0 0 0)
(-2.34226e-15 0.275928 0 0.275928 -0.0225629 0 0 0 0)
(0 0.279248 0 0.279248 -0.0244664 0 0 0 0)
(2.47651e-15 0.280222 0 0.280222 -0.0259842 0 0 0 0)
(0 0.281433 0 0.281433 -0.027458 0 0 0 0)
(0 0.280927 0 0.280927 -0.0285949 0 0 0 0)
(0 0.278366 0 0.278366 -0.02928 0 0 0 0)
(2.6261e-15 0.275715 0 0.275715 -0.0298603 0 0 0 0)
(0 0.271833 0 0.271833 -0.0303 0 0 0 0)
(0 0.266741 0 0.266741 -0.0306083 0 0 0 0)
(0 0.262952 0 0.262952 -0.0311577 0 0 0 0)
(0 0.258389 0 0.258389 -0.0316818 0 0 0 0)
(0 0.25159 0 0.25159 -0.0318949 0 0 0 0)
(-2.53836e-15 0.245394 0 0.245394 -0.0322194 0 0 0 0)
(0 0.239779 0 0.239779 -0.0326921 0 0 0 0)
(-2.45066e-15 0.233361 0 0.233361 -0.0330582 0 0 0 0)
(0 0.226487 0 0.226487 -0.0333689 0 0 0 0)
(-4.68243e-15 0.218952 0 0.218952 -0.0335745 0 0 0 0)
(0 0.211747 0 0.211747 -0.0338343 0 0 0 0)
(0 0.205389 0 0.205389 -0.0342955 0 0 0 0)
(0 0.198085 0 0.198085 -0.0345802 0 0 0 0)
(0 0.190541 0 0.190541 -0.0347967 0 0 0 0)
(0 0.183608 0 0.183608 -0.0351825 0 0 0 0)
(0 0.17612 0 0.17612 -0.0354497 0 0 0 0)
(0 0.168429 0 0.168429 -0.0356662 0 0 0 0)
(0 0.160799 0 0.160799 -0.0359274 0 0 0 0)
(0 0.152653 0 0.152653 -0.03607 0 0 0 0)
(0 0.143824 0 0.143824 -0.0360298 0 0 0 0)
(0 0.134701 0 0.134701 -0.0359127 0 0 0 0)
(0 0.125205 0 0.125205 -0.0357066 0 0 0 0)
(0 0.114743 0 0.114743 -0.0351607 0 0 0 0)
(0 0.103897 0 0.103897 -0.0344981 0 0 0 0)
(0 0.0909845 0 0.0909845 -0.0332509 0 0 0 0)
(0 0.0693602 0 0.0693602 -0.0277328 0 0 0 0)
(0 0.0485666 0 0.0485666 -0.0217079 0 0 0 0)
(0 0 0 0 -0 0 0 0 0)
(0 0 0 0 -0 0 0 0 0)
(-0 0 0 0 0 0 0 0 0)
(0 0 0 0 -0 0 0 0 0)
(0 0 0 0 -0 0 0 0 0)
(0 0 0 0 -0 0 0 0 0)
(-0 0 0 0 -0 0 0 0 0)
(0 0 0 0 -0 0 0 0 0)
(0 0 0 0 -0 0 0 0 0)
(-0 0 0 0 -0 0 0 0 0)
(0 0 0 0 -0 0 0 0 0)
(0 0 0 0 -0 0 0 0 0)
(0 0 0 0 -0 0 0 0 0)
(0 0 0 0 -0 0 0 0 0)
(0 0 0 0 -0 0 0 0 0)
(0 0 0 0 -0 0 0 0 0)
(0 0 0 0 -0 0 0 0 0)
(0 0 0 0 -0 0 0 0 0)
(0 0 0 0 -0 0 0 0 0)
(0 0 0 0 -0 0 0 0 0)
(0 0 0 0 -0 0 0 0 0)
(0 0 0 0 -0 0 0 0 0)
(0 0 0 0 -0 0 0 0 0)
(0 0 0 0 0 0 0 0 0)
(0 0 0 0 -0 0 0 0 0)
(0 0 0 0 0 0 0 0 0)
(0 0 0 0 -0 0 0 0 0)
(0 0 0 0 -0 0 0 0 0)
(0 0 0 0 0 0 0 0 0)
(0 0 0 0 -0 0 0 0 0)
(0 0 0 0 0 0 0 0 0)
(0 0 0 0 -0 0 0 0 0)
(0 0 0 0 0 0 0 0 0)
(0 0 0 0 -0 0 0 0 0)
(0 0 0 0 0 0 0 0 0)
(0 0 0 0 -0 0 0 0 0)
(0 0 0 0 0 0 0 0 0)
(0 0 0 0 -0 0 0 0 0)
(0 0 0 0 0 0 0 0 0)
(0 0 0 0 -0 0 0 0 0)
(0 0 0 0 0 0 0 0 0)
(0 0 0 0 -0 0 0 0 0)
(0 0 0 0 0 0 0 0 0)
(0 0 0 0 -0 0 0 0 0)
(0 0 0 0 0 0 0 0 0)
(0 0 0 0 -0 0 0 0 0)
(0 0 0 0 0 0 0 0 0)
(0 0 0 0 -0 0 0 0 0)
(0 -0 0 -0 0 0 0 0 0)
(0 0 0 0 -0 0 0 0 0)
(0 -0 0 -0 0 0 0 0 0)
(0 0 0 0 -0 0 0 0 0)
(0 -0 0 -0 0 0 0 0 0)
(0 0 0 0 -0 0 0 0 0)
(0 -0 0 -0 0 0 0 0 0)
(0 0 0 0 -0 0 0 0 0)
(0 0 0 0 0 0 0 0 0)
(0 0 0 0 -0 0 0 0 0)
(-0 -0 0 -0 -0 0 0 0 0)
(0 -0 0 -0 0 0 0 0 0)
(0 0 0 0 -0 0 0 0 0)
(0 -0 0 -0 0 0 0 0 0)
(0 0 0 0 -0 0 0 0 0)
(0 -0 0 -0 0 0 0 0 0)
(0 0 0 0 -0 0 0 0 0)
(0 -0 0 -0 0 0 0 0 0)
(0 0 0 0 -0 0 0 0 0)
(0 0 0 0 -0 0 0 0 0)
(0 0 0 0 -0 0 0 0 0)
(0 -0 0 -0 0 0 0 0 0)
(0 0 0 0 -0 0 0 0 0)
(0 -0 0 -0 0 0 0 0 0)
(0 0 0 0 -0 0 0 0 0)
(0 -0 0 -0 0 0 0 0 0)
(0 0 0 0 -0 0 0 0 0)
(0 -0 0 -0 0 0 0 0 0)
(0 0 0 0 -0 0 0 0 0)
(0 -0 0 -0 0 0 0 0 0)
(0 0 0 0 -0 0 0 0 0)
(0 -0 0 -0 0 0 0 0 0)
(0 0 0 0 -0 0 0 0 0)
(0 -0 0 -0 0 0 0 0 0)
(0 0 0 0 -0 0 0 0 0)
(0 -0 0 -0 0 0 0 0 0)
(0 0 0 0 -0 0 0 0 0)
(0 -0 0 -0 0 0 0 0 0)
(0 0 0 0 -0 0 0 0 0)
(0 -0 0 -0 0 0 0 0 0)
(0 0 0 0 -0 0 0 0 0)
(0 -0 0 -0 0 0 0 0 0)
(0 0 0 0 -0 0 0 0 0)
(0 -0 0 -0 0 0 0 0 0)
(0 0 0 0 -0 0 0 0 0)
(0 -0 0 -0 0 0 0 0 0)
(0 0 0 0 -0 0 0 0 0)
(0 -0 0 -0 0 0 0 0 0)
(0 0 0 0 -0 0 0 0 0)
(0 -0 0 -0 0 0 0 0 0)
(0 0 0 0 -0 0 0 0 0)
(0 -0 0 -0 0 0 0 0 0)
(0 0 0 0 -0 0 0 0 0)
(0 -0 0 -0 0 0 0 0 0)
(0 0 0 0 -0 0 0 0 0)
(0 -0 0 -0 0 0 0 0 0)
(0 0 0 0 -0 0 0 0 0)
(0 -0 0 -0 0 0 0 0 0)
(0 0 0 0 -0 0 0 0 0)
(0 -0 0 -0 0 0 0 0 0)
(0 0 0 0 -0 0 0 0 0)
(0 -0 0 -0 0 0 0 0 0)
(0 0 0 0 -0 0 0 0 0)
(0 -0 0 -0 0 0 0 0 0)
(0 0 0 0 0 0 0 0 0)
(0 0 0 0 0 0 0 0 0)
(0 0 0 0 0 0 0 0 0)
(0 0 0 0 0 0 0 0 0)
(0 0 0 0 0 0 0 0 0)
(0 0 0 0 0 0 0 0 0)
(0 0 0 0 0 0 0 0 0)
)
;

boundaryField
{
    inandouthalf11
    {
        type            cyclic;
    }
    inandouthalf12
    {
        type            cyclic;
    }
    inandouthalf21
    {
        type            cyclic;
    }
    inandouthalf22
    {
        type            cyclic;
    }
    inandouthalf31
    {
        type            cyclic;
    }
    inandouthalf32
    {
        type            cyclic;
    }
    inandouthalf41
    {
        type            cyclic;
    }
    inandouthalf42
    {
        type            cyclic;
    }
    top
    {
        type            symmetryPlane;
    }
    walls
    {
        type            zeroGradient;
    }
    frontAndBackPlanes
    {
        type            empty;
    }
}


// ************************************************************************* //
