/*--------------------------------*- C++ -*----------------------------------*\
| =========                 |                                                 |
| \\      /  F ield         | OpenFOAM: The Open Source CFD Toolbox           |
|  \\    /   O peration     | Version:  2.4.x                                 |
|   \\  /    A nd           | Web:      www.OpenFOAM.org                      |
|    \\/     M anipulation  |                                                 |
\*---------------------------------------------------------------------------*/
FoamFile
{
    version     2.0;
    format      ascii;
    class       volScalarField;
    location    "3";
    object      Theta_0;
}
// * * * * * * * * * * * * * * * * * * * * * * * * * * * * * * * * * * * * * //

dimensions      [0 2 -2 0 0 0 0];

internalField   nonuniform List<scalar> 
360
(
6.67586e-21
6.76375e-21
6.81549e-21
6.79506e-21
6.77392e-21
6.7705e-21
6.78634e-21
6.82127e-21
6.8742e-21
6.94408e-21
7.0258e-21
7.0946e-21
7.09651e-21
6.99399e-21
6.83998e-21
6.72717e-21
6.67886e-21
6.66523e-21
6.66224e-21
6.66162e-21
6.66147e-21
6.66143e-21
6.66143e-21
6.66143e-21
6.66145e-21
6.66147e-21
6.66149e-21
6.66151e-21
6.66152e-21
6.66152e-21
6.66151e-21
6.66151e-21
6.6615e-21
6.6615e-21
6.6615e-21
6.66149e-21
6.6615e-21
6.6615e-21
6.6615e-21
6.6615e-21
6.66151e-21
6.66151e-21
6.66151e-21
6.66151e-21
6.66152e-21
6.66152e-21
6.66153e-21
6.66153e-21
6.66154e-21
6.66155e-21
6.66156e-21
6.66157e-21
6.66158e-21
6.66159e-21
6.66161e-21
6.66162e-21
6.66164e-21
6.66166e-21
6.66169e-21
6.66171e-21
6.66173e-21
6.66175e-21
6.66178e-21
6.66179e-21
6.66181e-21
6.66182e-21
6.66184e-21
6.66186e-21
6.66188e-21
6.66192e-21
6.66196e-21
6.66202e-21
6.66208e-21
6.66214e-21
6.66221e-21
6.66228e-21
6.66234e-21
6.6624e-21
6.66244e-21
6.66248e-21
6.66253e-21
6.66257e-21
6.66262e-21
6.66267e-21
6.66273e-21
6.6628e-21
6.66286e-21
6.66293e-21
6.66299e-21
6.66305e-21
6.6631e-21
6.66315e-21
6.66319e-21
6.66323e-21
6.66327e-21
6.66331e-21
6.66335e-21
6.66339e-21
6.66343e-21
6.6634e-21
0
0
0
0
0
0
0
0
0
0
0
0
0
0
0
6.66374e-21
6.66372e-21
6.66371e-21
6.66371e-21
6.66372e-21
6.66376e-21
6.66382e-21
6.66393e-21
6.66409e-21
6.66433e-21
6.66465e-21
6.66509e-21
6.66568e-21
6.66649e-21
1.28531e-20
6.70722e-20
3.71068e-19
1.93407e-18
9.3769e-18
4.20366e-17
1.73052e-16
6.4834e-16
2.18936e-15
6.61709e-15
1.78533e-14
4.29282e-14
9.32557e-14
2.14069e-13
7.42939e-13
4.8515e-12
5.38054e-11
8.83673e-10
2.46636e-08
1.26203e-06
3.42789e-05
0.000320858
0.000771361
0.00112471
0.00143514
0.00171438
0.00197076
0.0022089
0.00243125
0.00263923
0.00283379
0.00301557
0.00318509
0.00334273
0.00348884
0.00362376
0.00374774
0.00386108
0.00396404
0.00405689
0.0041399
0.00421337
0.00427757
0.00433283
0.00437949
0.00441789
0.0044484
0.00447144
0.0044874
0.00449673
0.00449986
0.00449727
0.0044894
0.00447674
0.00445977
0.00443898
0.00441487
0.00438796
0.00435876
0.00432778
0.00429552
0.00426242
0.00422882
0.00419496
0.00416093
0.00412673
0.00409226
0.00405744
0.00402221
0.00398653
0.00395041
0.00391386
0.00387652
0.00383801
0.00379833
0.00375744
0.00371532
0.00367196
0.00362732
0.00358136
0.00353403
0.00348529
0.00343509
0.00338335
0.00333
0.00327493
0.00321805
0.00315924
0.00309838
0.00303535
0.00297003
0.00290228
0.00283197
0.00275892
0.00268298
0.00260396
0.00252165
0.00243582
0.00234621
0.00225253
0.00215442
0.00205149
0.00194327
0.00182916
0.00170846
0.00158025
0.00144335
0.00129614
0.00113626
0.000960065
0.000761114
0.000525467
0
0
0
0
0
0
0
0
0
0
0
0
0
0
0
0
0
0
0
0
0
0
0
0
0
0
0
0
0
0
0
0
0
0
0
0
0
0
0
0
0
0
0
0
0
0
0
0
0
0
0
0
0
0
0
0
0
0
0
0
0
0
0
0
0
0
0
0
0
0
0
0
0
0
0
0
0
0
0
0
0
0
0
0
0
0
0
0
0
0
0
0
0
0
0
0
0
0
0
0
0
0
0
0
0
0
0
0
0
0
0
0
0
0
0
0
0
0
0
)
;

boundaryField
{
    inandouthalf11
    {
        type            cyclic;
    }
    inandouthalf12
    {
        type            cyclic;
    }
    inandouthalf21
    {
        type            cyclic;
    }
    inandouthalf22
    {
        type            cyclic;
    }
    inandouthalf31
    {
        type            cyclic;
    }
    inandouthalf32
    {
        type            cyclic;
    }
    inandouthalf41
    {
        type            cyclic;
    }
    inandouthalf42
    {
        type            cyclic;
    }
    top
    {
        type            symmetryPlane;
    }
    walls
    {
        type            zeroGradient;
    }
    frontAndBackPlanes
    {
        type            empty;
    }
}


// ************************************************************************* //
