/*--------------------------------*- C++ -*----------------------------------*\
| =========                 |                                                 |
| \\      /  F ield         | OpenFOAM: The Open Source CFD Toolbox           |
|  \\    /   O peration     | Version:  2.4.x                                 |
|   \\  /    A nd           | Web:      www.OpenFOAM.org                      |
|    \\/     M anipulation  |                                                 |
\*---------------------------------------------------------------------------*/
FoamFile
{
    version     2.0;
    format      ascii;
    class       volScalarField;
    location    "3";
    object      Theta;
}
// * * * * * * * * * * * * * * * * * * * * * * * * * * * * * * * * * * * * * //

dimensions      [0 2 -2 0 0 0 0];

internalField   nonuniform List<scalar> 
360
(
6.67588e-21
6.76391e-21
6.81567e-21
6.79518e-21
6.77398e-21
6.77051e-21
6.7863e-21
6.82113e-21
6.8739e-21
6.94358e-21
7.02514e-21
7.094e-21
7.09631e-21
6.99431e-21
6.84045e-21
6.72745e-21
6.67896e-21
6.66525e-21
6.66225e-21
6.66162e-21
6.66147e-21
6.66143e-21
6.66142e-21
6.66143e-21
6.66145e-21
6.66147e-21
6.66149e-21
6.66151e-21
6.66151e-21
6.66152e-21
6.66151e-21
6.66151e-21
6.6615e-21
6.6615e-21
6.6615e-21
6.66149e-21
6.6615e-21
6.6615e-21
6.6615e-21
6.6615e-21
6.66151e-21
6.66151e-21
6.66151e-21
6.66151e-21
6.66152e-21
6.66152e-21
6.66153e-21
6.66153e-21
6.66154e-21
6.66155e-21
6.66155e-21
6.66157e-21
6.66158e-21
6.66159e-21
6.66161e-21
6.66162e-21
6.66164e-21
6.66166e-21
6.66168e-21
6.66171e-21
6.66173e-21
6.66175e-21
6.66177e-21
6.66179e-21
6.66181e-21
6.66182e-21
6.66184e-21
6.66186e-21
6.66188e-21
6.66192e-21
6.66196e-21
6.66201e-21
6.66208e-21
6.66214e-21
6.66221e-21
6.66228e-21
6.66234e-21
6.66239e-21
6.66244e-21
6.66248e-21
6.66252e-21
6.66257e-21
6.66261e-21
6.66267e-21
6.66273e-21
6.66279e-21
6.66286e-21
6.66293e-21
6.66299e-21
6.66305e-21
6.6631e-21
6.66314e-21
6.66319e-21
6.66323e-21
6.66327e-21
6.66331e-21
6.66335e-21
6.66339e-21
6.66343e-21
6.6634e-21
0
0
0
0
0
0
0
0
0
0
0
0
0
0
0
6.66374e-21
6.66372e-21
6.66371e-21
6.66371e-21
6.66372e-21
6.66375e-21
6.66382e-21
6.66393e-21
6.66409e-21
6.66432e-21
6.66465e-21
6.66509e-21
6.66568e-21
6.66649e-21
1.28662e-20
6.71355e-20
3.71305e-19
1.93468e-18
9.37675e-18
4.20218e-17
1.72932e-16
6.47666e-16
2.1863e-15
6.60537e-15
1.78149e-14
4.28192e-14
9.29831e-14
2.13388e-13
7.40749e-13
4.84081e-12
5.37198e-11
8.82602e-10
2.46604e-08
1.26348e-06
3.43117e-05
0.000321017
0.000771448
0.0011245
0.00143471
0.00171378
0.00197002
0.00220804
0.0024303
0.00263821
0.0028327
0.00301444
0.00318391
0.00334152
0.00348761
0.00362251
0.00374648
0.00385982
0.00396278
0.00405563
0.00413865
0.00421212
0.00427634
0.00433162
0.0043783
0.00441672
0.00444726
0.00447032
0.00448631
0.00449567
0.00449883
0.00449626
0.00448843
0.0044758
0.00445886
0.00443811
0.00441403
0.00438714
0.00435797
0.00432702
0.00429479
0.00426171
0.00422813
0.00419429
0.00416028
0.00412608
0.00409163
0.00405682
0.0040216
0.00398594
0.00394983
0.00391329
0.00387596
0.00383746
0.00379779
0.00375691
0.0037148
0.00367145
0.00362682
0.00358086
0.00353354
0.00348482
0.00343462
0.00338289
0.00332955
0.00327449
0.00321762
0.00315882
0.00309797
0.00303495
0.00296964
0.0029019
0.0028316
0.00275856
0.00268263
0.00260362
0.00252132
0.00243551
0.00234591
0.00225224
0.00215415
0.00205124
0.00194302
0.00182893
0.00170824
0.00158005
0.00144317
0.00129598
0.00113612
0.000959947
0.00076102
0.000525402
0
0
0
0
0
0
0
0
0
0
0
0
0
0
0
0
0
0
0
0
0
0
0
0
0
0
0
0
0
0
0
0
0
0
0
0
0
0
0
0
0
0
0
0
0
0
0
0
0
0
0
0
0
0
0
0
0
0
0
0
0
0
0
0
0
0
0
0
0
0
0
0
0
0
0
0
0
0
0
0
0
0
0
0
0
0
0
0
0
0
0
0
0
0
0
0
0
0
0
0
0
0
0
0
0
0
0
0
0
0
0
0
0
0
0
0
0
0
0
)
;

boundaryField
{
    inandouthalf11
    {
        type            cyclic;
    }
    inandouthalf12
    {
        type            cyclic;
    }
    inandouthalf21
    {
        type            cyclic;
    }
    inandouthalf22
    {
        type            cyclic;
    }
    inandouthalf31
    {
        type            cyclic;
    }
    inandouthalf32
    {
        type            cyclic;
    }
    inandouthalf41
    {
        type            cyclic;
    }
    inandouthalf42
    {
        type            cyclic;
    }
    top
    {
        type            symmetryPlane;
    }
    walls
    {
        type            zeroGradient;
    }
    frontAndBackPlanes
    {
        type            empty;
    }
}


// ************************************************************************* //
