/*--------------------------------*- C++ -*----------------------------------*\
| =========                 |                                                 |
| \\      /  F ield         | OpenFOAM: The Open Source CFD Toolbox           |
|  \\    /   O peration     | Version:  2.4.x                                 |
|   \\  /    A nd           | Web:      www.OpenFOAM.org                      |
|    \\/     M anipulation  |                                                 |
\*---------------------------------------------------------------------------*/
FoamFile
{
    version     2.0;
    format      ascii;
    class       volScalarField;
    location    "3";
    object      tmf;
}
// * * * * * * * * * * * * * * * * * * * * * * * * * * * * * * * * * * * * * //

dimensions      [0 0 0 0 0 0 0];

internalField   nonuniform List<scalar> 
360
(
0.999204
0.999205
0.999205
0.999205
0.999205
0.999205
0.999205
0.999205
0.999205
0.999205
0.999205
0.999204
0.999204
0.999204
0.999204
0.999204
0.999204
0.999204
0.999204
0.999204
0.999204
0.999204
0.999204
0.999204
0.999204
0.999204
0.999204
0.999204
0.999204
0.999204
0.999204
0.999204
0.999204
0.999204
0.999204
0.999204
0.999204
0.999204
0.999204
0.999204
0.999204
0.999204
0.999204
0.999204
0.999204
0.999203
0.999203
0.999203
0.999203
0.999203
0.999203
0.999203
0.999203
0.999203
0.999203
0.999203
0.999203
0.999203
0.999203
0.999203
0.999203
0.999203
0.999202
0.999202
0.999202
0.999202
0.999202
0.999202
0.999202
0.999202
0.999202
0.999201
0.999201
0.999201
0.999201
0.999201
0.999201
0.999201
0.999201
0.9992
0.9992
0.9992
0.9992
0.9992
0.9992
0.999199
0.999199
0.999199
0.999199
0.999199
0.999199
0.999198
0.999198
0.999198
0.999198
0.999197
0.999197
0.999197
0.999197
0.999197
0.999196
0.999196
0.999196
0.999196
0.999195
0.999195
0.999195
0.999194
0.999194
0.999194
0.999194
0.999193
0.999193
0.999193
0.999192
0.999192
0.999192
0.999191
0.999191
0.99919
0.99919
0.99919
0.999189
0.999189
0.999188
0.999188
0.999187
0.999187
0.999186
0.999156
0.999128
0.999109
0.999088
0.999066
0.99904
0.999009
0.998972
0.998924
0.998859
0.998771
0.998632
0.998349
0.997737
0.99665
0.995222
0.993587
0.991673
0.989249
0.985942
0.9802
0.907014
0.947333
0.962159
0.967675
0.970305
0.971644
0.972367
0.972766
0.972979
0.973077
0.973103
0.973081
0.973026
0.972949
0.972854
0.972747
0.972628
0.972501
0.972364
0.972217
0.97206
0.97189
0.971707
0.971509
0.971294
0.971062
0.970813
0.970552
0.970285
0.970031
0.969821
0.96971
0.96977
0.970065
0.970616
0.971381
0.97229
0.973277
0.974293
0.975308
0.976305
0.977273
0.978205
0.979096
0.979947
0.980755
0.981526
0.982261
0.982966
0.983646
0.984306
0.984957
0.985611
0.986272
0.986946
0.987644
0.988375
0.989157
0.990014
0.990986
0.992142
0.993635
0.995076
0.995736
0.995751
0.995714
0.995677
0.99564
0.995603
0.995566
0.995581
0.995762
0.995707
0.995685
0.995663
0.99564
0.995618
0.995594
0.995571
0.995547
0.995523
0.995498
0.995474
0.995448
0.995423
0.995397
0.995372
0.995346
0.99532
0.995295
0.995276
0.995256
0.994201
0.994201
0.994201
0.994201
0.994201
0.994201
0.994201
0.994201
0.994201
0.994201
0.994201
0.994201
0.994201
0.994201
0.994201
0.994201
0.994201
0.994201
0.994201
0.994201
0.994201
0.994201
0.994201
0.994201
0.994201
0.994201
0.994201
0.994201
0.994201
0.994201
0.994201
0.994201
0.994201
0.994201
0.994201
0.994201
0.994201
0.994201
0.994201
0.994201
0.994201
0.994201
0.994201
0.994201
0.994201
0.994201
0.994201
0.994201
0.994201
0.994201
0.994201
0.994201
0.994201
0.994201
0.994201
0.994201
0.994201
0.994201
0.994201
0.994201
0.994201
0.994201
0.994201
0.994201
0.994201
0.994201
0.994201
0.994201
0.994201
0.994201
0.994201
0.994201
0.994201
0.994201
0.994201
0.994201
0.994201
0.994201
0.994201
0.994201
0.994201
0.994201
0.994201
0.994201
0.994201
0.994201
0.994201
0.994201
0.994201
0.994201
0.994201
0.994201
0.994201
0.994201
0.994201
0.994201
0.994201
0.994201
0.994201
0.994201
0.994201
0.994201
0.994201
0.994201
0.994201
0.994201
0.994201
0.994201
0.994201
0.994201
0.994201
0.994201
0.994201
0.994201
0.994201
0.994201
0.994186
0.993284
)
;

boundaryField
{
    inandouthalf11
    {
        type            cyclic;
    }
    inandouthalf12
    {
        type            cyclic;
    }
    inandouthalf21
    {
        type            cyclic;
    }
    inandouthalf22
    {
        type            cyclic;
    }
    inandouthalf31
    {
        type            cyclic;
    }
    inandouthalf32
    {
        type            cyclic;
    }
    inandouthalf41
    {
        type            cyclic;
    }
    inandouthalf42
    {
        type            cyclic;
    }
    top
    {
        type            symmetryPlane;
    }
    walls
    {
        type            calculated;
        value           uniform 0;
    }
    frontAndBackPlanes
    {
        type            empty;
    }
}


// ************************************************************************* //
