/*--------------------------------*- C++ -*----------------------------------*\
| =========                 |                                                 |
| \\      /  F ield         | OpenFOAM: The Open Source CFD Toolbox           |
|  \\    /   O peration     | Version:  2.4.x                                 |
|   \\  /    A nd           | Web:      www.OpenFOAM.org                      |
|    \\/     M anipulation  |                                                 |
\*---------------------------------------------------------------------------*/
FoamFile
{
    version     2.0;
    format      ascii;
    class       volVectorField;
    location    "3";
    object      U;
}
// * * * * * * * * * * * * * * * * * * * * * * * * * * * * * * * * * * * * * //

dimensions      [0 1 -1 0 0 0 0];

internalField   nonuniform List<vector> 
360
(
(-0.000106993 4.23755e-08 0)
(-0.000106975 2.51356e-08 0)
(-0.000106943 -3.44122e-09 0)
(-0.000107048 -9.57904e-09 0)
(-0.000107181 -4.36733e-09 0)
(-0.000107322 1.68418e-09 0)
(-0.000107478 7.1164e-09 0)
(-0.000107647 1.10983e-08 0)
(-0.000107825 1.3405e-08 0)
(-0.00010802 1.45893e-08 0)
(-0.00010824 1.37356e-08 0)
(-0.000108485 7.45083e-09 0)
(-0.000108743 -7.01809e-09 0)
(-0.000108984 -2.531e-08 0)
(-0.000109176 -3.54248e-08 0)
(-0.000109302 -3.1083e-08 0)
(-0.000109371 -1.92811e-08 0)
(-0.000109404 -9.36733e-09 0)
(-0.000109419 -4.00381e-09 0)
(-0.000109428 -1.61338e-09 0)
(-0.000109433 -6.63104e-10 0)
(-0.000109437 -2.02996e-10 0)
(-0.000109442 2.72766e-11 0)
(-0.000109446 1.55612e-10 0)
(-0.000109451 2.13918e-10 0)
(-0.000109457 2.12512e-10 0)
(-0.000109463 1.4944e-10 0)
(-0.000109471 9.90181e-11 0)
(-0.000109479 3.13088e-11 0)
(-0.000109488 -1.87377e-11 0)
(-0.000109496 -6.19766e-11 0)
(-0.000109506 -3.27463e-11 0)
(-0.000109515 -7.75324e-11 0)
(-0.000109525 -1.09386e-11 0)
(-0.000109535 -3.15e-11 0)
(-0.000109546 -1.5197e-13 0)
(-0.000109556 -5.90218e-12 0)
(-0.000109569 1.86795e-12 0)
(-0.000109582 3.98458e-11 0)
(-0.000109594 -1.26704e-11 0)
(-0.000109609 2.325e-11 0)
(-0.000109624 2.29985e-11 0)
(-0.000109639 -1.10054e-11 0)
(-0.000109656 2.74691e-11 0)
(-0.000109674 1.2003e-11 0)
(-0.000109692 1.49596e-11 0)
(-0.000109712 3.75543e-11 0)
(-0.000109732 1.0304e-11 0)
(-0.000109754 2.13825e-11 0)
(-0.000109778 6.54264e-11 0)
(-0.000109803 3.64879e-11 0)
(-0.000109829 6.22186e-11 0)
(-0.000109857 5.40863e-11 0)
(-0.000109887 8.18664e-11 0)
(-0.000109918 5.84285e-11 0)
(-0.000109951 1.04971e-10 0)
(-0.000109986 7.99729e-11 0)
(-0.000110023 1.05739e-10 0)
(-0.000110062 1.11485e-10 0)
(-0.000110103 8.15964e-11 0)
(-0.000110146 1.1674e-10 0)
(-0.00011019 7.84451e-11 0)
(-0.000110236 8.68623e-11 0)
(-0.000110283 6.1625e-11 0)
(-0.000110331 5.66249e-11 0)
(-0.00011038 4.45606e-11 0)
(-0.00011043 5.62658e-11 0)
(-0.000110483 7.55081e-11 0)
(-0.000110537 1.04617e-10 0)
(-0.000110592 1.18036e-10 0)
(-0.000110651 1.63189e-10 0)
(-0.000110712 2.09463e-10 0)
(-0.000110775 1.97777e-10 0)
(-0.000110841 2.24998e-10 0)
(-0.000110908 2.06089e-10 0)
(-0.000110978 2.01499e-10 0)
(-0.000111049 1.60762e-10 0)
(-0.000111122 1.30217e-10 0)
(-0.000111197 1.07081e-10 0)
(-0.000111273 9.68749e-11 0)
(-0.000111351 8.68732e-11 0)
(-0.000111431 9.61233e-11 0)
(-0.000111514 1.12218e-10 0)
(-0.000111598 1.26528e-10 0)
(-0.000111684 1.41213e-10 0)
(-0.000111773 1.45773e-10 0)
(-0.000111864 1.46363e-10 0)
(-0.000111956 1.34996e-10 0)
(-0.000112051 1.18014e-10 0)
(-0.000112147 1.00716e-10 0)
(-0.000112246 8.39321e-11 0)
(-0.000112346 6.91194e-11 0)
(-0.000112449 6.08174e-11 0)
(-0.000112553 5.61751e-11 0)
(-0.00011266 5.40965e-11 0)
(-0.000112768 5.35509e-11 0)
(-0.000112879 5.31816e-11 0)
(-0.000112992 5.19289e-11 0)
(-0.000113107 4.95869e-11 0)
(-0.000113225 4.65644e-11 0)
(-0.000113345 4.2708e-11 0)
(-0.000113467 3.81771e-11 0)
(-0.000113592 3.31792e-11 0)
(-0.000113719 2.73095e-11 0)
(-0.000113849 2.0227e-11 0)
(-0.000113982 1.17709e-11 0)
(-0.000114117 1.74515e-12 0)
(-0.000114255 -9.89829e-12 0)
(-0.000114396 -2.30257e-11 0)
(-0.00011454 -3.74136e-11 0)
(-0.000114686 -5.26916e-11 0)
(-0.000114836 -6.82834e-11 0)
(-0.000114989 -8.33886e-11 0)
(-0.000115146 -9.69336e-11 0)
(-0.000115306 -1.07552e-10 0)
(-0.000115469 -1.13611e-10 0)
(-0.000115637 -1.13261e-10 0)
(-0.000115808 -1.0449e-10 0)
(-0.000115984 -8.52224e-11 0)
(-0.000116164 -5.34175e-11 0)
(-0.000116349 -7.15153e-12 0)
(-0.000116539 5.53548e-11 0)
(-0.000116736 1.35723e-10 0)
(-0.000116939 2.35396e-10 0)
(-0.000117149 3.55537e-10 0)
(-0.000117367 4.96572e-10 0)
(-0.000117595 6.56908e-10 0)
(-0.000117832 8.30256e-10 0)
(-0.00011808 1.0017e-09 0)
(-0.000118342 1.14451e-09 0)
(-0.000118616 1.22299e-09 0)
(-0.000118904 1.20384e-09 0)
(-0.000119208 1.07038e-09 0)
(-0.000119528 8.19354e-10 0)
(-0.000119868 4.13449e-10 0)
(-0.000120226 -2.52608e-10 0)
(-0.000120596 -1.20412e-09 0)
(-0.00012098 -2.33441e-09 0)
(-0.000121391 -3.61916e-09 0)
(-0.000121842 -4.70344e-09 0)
(-0.000122313 -4.68576e-09 0)
(-0.000122744 -6.20546e-09 0)
(-0.000123239 -5.91966e-09 0)
(-0.000123876 -4.21315e-09 0)
(-0.000124656 -9.94142e-09 0)
(-0.000125892 -1.04102e-07 0)
(-0.000130783 1.12517e-06 0)
(-0.00013672 7.32676e-07 0)
(-0.000160097 -2.4933e-06 0)
(-0.000662744 1.16023e-05 0)
(-0.0802128 0.000577123 0)
(-0.108578 -0.000215855 0)
(-0.114442 0.000115017 0)
(-0.114773 -1.88451e-05 0)
(-0.112853 -6.98125e-07 0)
(-0.10968 1.34884e-06 0)
(-0.105691 8.08826e-07 0)
(-0.101119 2.26623e-07 0)
(-0.0961108 3.83884e-08 0)
(-0.0907656 -1.87498e-09 0)
(-0.0851539 -2.00538e-08 0)
(-0.0793285 -3.49751e-08 0)
(-0.0733299 -4.42192e-08 0)
(-0.0671898 -4.84582e-08 0)
(-0.0609337 -4.97252e-08 0)
(-0.0545819 -4.93866e-08 0)
(-0.0481514 -4.81029e-08 0)
(-0.0416562 -4.62483e-08 0)
(-0.0351081 -4.40447e-08 0)
(-0.0285169 -4.16465e-08 0)
(-0.0218911 -3.91544e-08 0)
(-0.015238 -3.66426e-08 0)
(-0.00856383 -3.41569e-08 0)
(-0.00187418 -3.17165e-08 0)
(0.00482613 -2.93119e-08 0)
(0.0115328 -2.69209e-08 0)
(0.0182419 -2.45487e-08 0)
(0.0249499 -2.22518e-08 0)
(0.0316536 -2.01226e-08 0)
(0.03835 -1.82348e-08 0)
(0.0450363 -1.66148e-08 0)
(0.0517099 -1.52419e-08 0)
(0.0583681 -1.40763e-08 0)
(0.0650087 -1.30717e-08 0)
(0.0716292 -1.21927e-08 0)
(0.0782274 -1.14226e-08 0)
(0.0848009 -1.07577e-08 0)
(0.0913475 -1.01639e-08 0)
(0.0978648 -9.49448e-09 0)
(0.10435 -8.50644e-09 0)
(0.110801 -7.11456e-09 0)
(0.117214 -5.6469e-09 0)
(0.123586 -4.57463e-09 0)
(0.129912 -3.7526e-09 0)
(0.136188 -2.6859e-09 0)
(0.14241 -1.48649e-09 0)
(0.148571 -6.35551e-10 0)
(0.154667 -2.22823e-10 0)
(0.160693 -6.3938e-11 0)
(0.166643 -5.49349e-12 0)
(0.172509 1.75902e-11 0)
(0.178343 2.15562e-11 0)
(0.184192 1.76895e-11 0)
(0.190039 2.88396e-11 0)
(0.195866 3.46738e-11 0)
(0.201649 1.28362e-11 0)
(0.207358 1.25006e-11 0)
(0.212953 3.33598e-11 0)
(0.21838 1.96048e-11 0)
(0.223562 8.68488e-12 0)
(0.228384 2.90697e-11 0)
(0.232669 -7.9421e-11 0)
(0.235643 2.64319e-10 0)
(0.236434 -4.57828e-10 0)
(0.2366 6.80039e-10 0)
(0.236725 -8.73701e-10 0)
(0.236839 1.08285e-09 0)
(0.236942 -1.28372e-09 0)
(0.237036 1.50782e-09 0)
(0.237121 -1.73987e-09 0)
(0.237197 1.99163e-09 0)
(0.237266 -2.25565e-09 0)
(0.237328 2.53621e-09 0)
(0.237384 -2.83373e-09 0)
(0.237434 3.14434e-09 0)
(0.237478 -3.47361e-09 0)
(0.237518 3.81181e-09 0)
(0.237553 -4.17051e-09 0)
(0.237585 4.53461e-09 0)
(0.237612 -4.9186e-09 0)
(0.237637 5.30529e-09 0)
(0.237658 -5.71244e-09 0)
(0.237677 6.11956e-09 0)
(0.237693 -6.5478e-09 0)
(0.237707 6.97453e-09 0)
(0.23772 -7.42261e-09 0)
(0.23773 7.86783e-09 0)
(0.237739 -8.33541e-09 0)
(0.237747 8.79925e-09 0)
(0.237754 -9.28776e-09 0)
(0.23776 9.78415e-09 0)
(0.237764 -1.03392e-08 0)
(0.237769 1.18315e-08 0)
(0.237773 -1.23655e-08 0)
(0.237776 1.2902e-08 0)
(0.237778 -1.34694e-08 0)
(0.23778 1.40393e-08 0)
(0.237782 -1.46397e-08 0)
(0.237783 1.52429e-08 0)
(0.237785 -1.58761e-08 0)
(0.237786 1.65124e-08 0)
(0.237786 -1.71782e-08 0)
(0.237787 1.78476e-08 0)
(0.237788 -1.85457e-08 0)
(0.237788 1.92482e-08 0)
(0.237788 -1.99785e-08 0)
(0.237789 2.0714e-08 0)
(0.237789 -2.14764e-08 0)
(0.237789 2.22448e-08 0)
(0.237789 -2.30391e-08 0)
(0.237789 2.38403e-08 0)
(0.237789 -2.46664e-08 0)
(0.237789 2.55003e-08 0)
(0.237789 -2.63581e-08 0)
(0.237789 2.72246e-08 0)
(0.237789 -2.81139e-08 0)
(0.237789 2.90128e-08 0)
(0.237789 -2.99336e-08 0)
(0.237789 3.08644e-08 0)
(0.237789 -3.18165e-08 0)
(0.237789 3.2779e-08 0)
(0.237789 -3.37621e-08 0)
(0.237789 3.47559e-08 0)
(0.237789 -3.57694e-08 0)
(0.237789 3.67939e-08 0)
(0.237789 -3.78374e-08 0)
(0.237789 3.8892e-08 0)
(0.237789 -3.99647e-08 0)
(0.237789 4.10483e-08 0)
(0.237789 -4.21493e-08 0)
(0.237789 4.3261e-08 0)
(0.237789 -4.43889e-08 0)
(0.237789 4.55271e-08 0)
(0.237789 -4.66803e-08 0)
(0.237789 4.78431e-08 0)
(0.237789 -4.90192e-08 0)
(0.237789 5.02039e-08 0)
(0.237789 -5.13996e-08 0)
(0.237789 5.26021e-08 0)
(0.237789 -5.38126e-08 0)
(0.237789 5.50264e-08 0)
(0.237789 -5.62424e-08 0)
(0.237789 5.74524e-08 0)
(0.237789 -5.86151e-08 0)
(0.237789 5.97509e-08 0)
(0.237789 -6.08891e-08 0)
(0.237789 6.2034e-08 0)
(0.237789 -6.31891e-08 0)
(0.237789 6.43553e-08 0)
(0.237789 -6.55346e-08 0)
(0.237789 6.67273e-08 0)
(0.237789 -6.79346e-08 0)
(0.237789 6.91569e-08 0)
(0.237789 -7.0395e-08 0)
(0.237789 7.16494e-08 0)
(0.237789 -7.29207e-08 0)
(0.237789 7.42092e-08 0)
(0.237789 -7.55156e-08 0)
(0.237789 7.68403e-08 0)
(0.237789 -7.81839e-08 0)
(0.237789 6.97729e-08 0)
(0.237789 -6.95467e-08 0)
(0.237789 6.93162e-08 0)
(0.237789 -6.90821e-08 0)
(0.237789 6.88445e-08 0)
(0.237789 -6.86039e-08 0)
(0.237789 6.83605e-08 0)
(0.237789 -6.81148e-08 0)
(0.237789 6.78669e-08 0)
(0.237789 -6.76173e-08 0)
(0.237789 6.73659e-08 0)
(0.237789 -6.71135e-08 0)
(0.237789 6.68598e-08 0)
(0.237789 -6.66056e-08 0)
(0.237789 6.63507e-08 0)
(0.237789 -6.60959e-08 0)
(0.237789 6.58408e-08 0)
(0.237789 -6.55862e-08 0)
(0.237789 6.53318e-08 0)
(0.237789 -6.50787e-08 0)
(0.237789 6.48258e-08 0)
(0.237789 -6.45751e-08 0)
(0.237789 6.43248e-08 0)
(0.237789 -6.40775e-08 0)
(0.237789 6.38307e-08 0)
(0.237789 -6.35878e-08 0)
(0.237789 6.33457e-08 0)
(0.237789 -6.31082e-08 0)
(0.237789 6.28717e-08 0)
(0.237789 -6.26407e-08 0)
(0.237789 6.24112e-08 0)
(0.237789 -6.21877e-08 0)
(0.237789 6.19663e-08 0)
(0.237789 -6.17515e-08 0)
(0.237789 6.15397e-08 0)
(0.237789 -6.13349e-08 0)
(0.237789 6.1134e-08 0)
(0.237789 -6.09405e-08 0)
(0.237789 6.07523e-08 0)
(0.237789 -6.05718e-08 0)
(0.237789 6.03982e-08 0)
(0.237789 -6.02324e-08 0)
(0.237789 6.0076e-08 0)
(0.237789 -5.99273e-08 0)
(0.237789 5.97909e-08 0)
(0.237789 -5.96625e-08 0)
(0.237789 5.95503e-08 0)
(0.237789 -5.94479e-08 0)
(0.237789 5.93675e-08 0)
(0.237789 -5.93046e-08 0)
)
;

boundaryField
{
    inandouthalf11
    {
        type            cyclic;
    }
    inandouthalf12
    {
        type            cyclic;
    }
    inandouthalf21
    {
        type            cyclic;
    }
    inandouthalf22
    {
        type            cyclic;
    }
    inandouthalf31
    {
        type            cyclic;
    }
    inandouthalf32
    {
        type            cyclic;
    }
    inandouthalf41
    {
        type            cyclic;
    }
    inandouthalf42
    {
        type            cyclic;
    }
    top
    {
        type            symmetryPlane;
    }
    walls
    {
        type            calculated;
        value           uniform (0 0 0);
    }
    frontAndBackPlanes
    {
        type            empty;
    }
}


// ************************************************************************* //
