/*--------------------------------*- C++ -*----------------------------------*\
| =========                 |                                                 |
| \\      /  F ield         | OpenFOAM: The Open Source CFD Toolbox           |
|  \\    /   O peration     | Version:  2.4.x                                 |
|   \\  /    A nd           | Web:      www.OpenFOAM.org                      |
|    \\/     M anipulation  |                                                 |
\*---------------------------------------------------------------------------*/
FoamFile
{
    version     2.0;
    format      ascii;
    class       volVectorField;
    location    "3";
    object      Ua;
}
// * * * * * * * * * * * * * * * * * * * * * * * * * * * * * * * * * * * * * //

dimensions      [0 1 -1 0 0 0 0];

internalField   nonuniform List<vector> 
360
(
(-9.6967e-33 -6.2408e-32 0)
(-6.57419e-08 -3.2704e-07 0)
(-1.87939e-07 -8.64634e-07 0)
(-3.14108e-07 -1.3834e-06 0)
(-4.28861e-07 -1.8478e-06 0)
(-5.36874e-07 -2.28561e-06 0)
(-6.46746e-07 -2.73594e-06 0)
(-7.66534e-07 -3.23517e-06 0)
(-9.01997e-07 -3.80825e-06 0)
(-1.0564e-06 -4.46938e-06 0)
(-1.23095e-06 -5.22688e-06 0)
(-1.42322e-06 -6.07591e-06 0)
(-1.62276e-06 -6.97618e-06 0)
(-1.8083e-06 -7.83232e-06 0)
(-1.95495e-06 -8.5214e-06 0)
(-2.05035e-06 -8.97426e-06 0)
(-2.10193e-06 -9.21926e-06 0)
(-2.12658e-06 -9.33544e-06 0)
(-2.13816e-06 -9.3892e-06 0)
(-2.14416e-06 -9.41645e-06 0)
(-2.14789e-06 -9.43287e-06 0)
(-2.15076e-06 -9.44501e-06 0)
(-2.15342e-06 -9.4558e-06 0)
(-2.15623e-06 -9.46678e-06 0)
(-2.15942e-06 -9.4788e-06 0)
(-2.1631e-06 -9.49223e-06 0)
(-2.16729e-06 -9.50707e-06 0)
(-2.17192e-06 -9.52301e-06 0)
(-2.17688e-06 -9.53961e-06 0)
(-2.18202e-06 -9.55642e-06 0)
(-2.18725e-06 -9.5731e-06 0)
(-2.19252e-06 -9.58949e-06 0)
(-2.19781e-06 -9.60555e-06 0)
(-2.20313e-06 -9.62132e-06 0)
(-2.20851e-06 -9.63691e-06 0)
(-2.21398e-06 -9.6524e-06 0)
(-2.21956e-06 -9.66789e-06 0)
(-2.22529e-06 -9.68345e-06 0)
(-2.23119e-06 -9.69914e-06 0)
(-2.23726e-06 -9.71497e-06 0)
(-2.24351e-06 -9.73095e-06 0)
(-2.24993e-06 -9.74708e-06 0)
(-2.25653e-06 -9.76336e-06 0)
(-2.26331e-06 -9.77979e-06 0)
(-2.27028e-06 -9.79639e-06 0)
(-2.27744e-06 -9.81318e-06 0)
(-2.28481e-06 -9.83018e-06 0)
(-2.2924e-06 -9.84741e-06 0)
(-2.30022e-06 -9.86491e-06 0)
(-2.30831e-06 -9.88276e-06 0)
(-2.3167e-06 -9.90102e-06 0)
(-2.3254e-06 -9.91972e-06 0)
(-2.33444e-06 -9.93892e-06 0)
(-2.34385e-06 -9.95866e-06 0)
(-2.35365e-06 -9.97899e-06 0)
(-2.36388e-06 -1e-05 0)
(-2.37458e-06 -1.00217e-05 0)
(-2.38575e-06 -1.00442e-05 0)
(-2.39743e-06 -1.00676e-05 0)
(-2.40963e-06 -1.00917e-05 0)
(-2.42233e-06 -1.01166e-05 0)
(-2.43553e-06 -1.01424e-05 0)
(-2.44919e-06 -1.01688e-05 0)
(-2.46326e-06 -1.01959e-05 0)
(-2.4777e-06 -1.02235e-05 0)
(-2.49247e-06 -1.02515e-05 0)
(-2.50757e-06 -1.02799e-05 0)
(-2.52304e-06 -1.03089e-05 0)
(-2.53895e-06 -1.03385e-05 0)
(-2.55538e-06 -1.03689e-05 0)
(-2.57246e-06 -1.04004e-05 0)
(-2.59031e-06 -1.04332e-05 0)
(-2.60901e-06 -1.04673e-05 0)
(-2.62864e-06 -1.05031e-05 0)
(-2.6492e-06 -1.05404e-05 0)
(-2.67068e-06 -1.05793e-05 0)
(-2.69299e-06 -1.06196e-05 0)
(-2.71603e-06 -1.0661e-05 0)
(-2.7397e-06 -1.07034e-05 0)
(-2.76392e-06 -1.07468e-05 0)
(-2.78865e-06 -1.07908e-05 0)
(-2.81387e-06 -1.08357e-05 0)
(-2.83961e-06 -1.08814e-05 0)
(-2.86593e-06 -1.0928e-05 0)
(-2.89287e-06 -1.09756e-05 0)
(-2.92049e-06 -1.10244e-05 0)
(-2.94879e-06 -1.10743e-05 0)
(-2.97777e-06 -1.11254e-05 0)
(-3.00738e-06 -1.11775e-05 0)
(-3.03757e-06 -1.12306e-05 0)
(-3.06828e-06 -1.12845e-05 0)
(-3.09944e-06 -1.13392e-05 0)
(-3.13102e-06 -1.13946e-05 0)
(-3.16297e-06 -1.14506e-05 0)
(-3.19529e-06 -1.15072e-05 0)
(-3.22796e-06 -1.15645e-05 0)
(-3.26099e-06 -1.16223e-05 0)
(-3.29436e-06 -1.16808e-05 0)
(-3.32807e-06 -1.17398e-05 0)
(-3.36212e-06 -1.17995e-05 0)
(-3.3965e-06 -1.18597e-05 0)
(-3.4312e-06 -1.19206e-05 0)
(-3.46619e-06 -1.1982e-05 0)
(-3.50147e-06 -1.20439e-05 0)
(-3.53702e-06 -1.21064e-05 0)
(-3.57281e-06 -1.21693e-05 0)
(-3.60882e-06 -1.22327e-05 0)
(-3.64501e-06 -1.22965e-05 0)
(-3.68135e-06 -1.23606e-05 0)
(-3.71779e-06 -1.24249e-05 0)
(-3.75429e-06 -1.24895e-05 0)
(-3.79079e-06 -1.25542e-05 0)
(-3.82726e-06 -1.26189e-05 0)
(-3.86363e-06 -1.26835e-05 0)
(-3.89988e-06 -1.27481e-05 0)
(-3.93597e-06 -1.28124e-05 0)
(-3.9719e-06 -1.28766e-05 0)
(-4.00768e-06 -1.29407e-05 0)
(-4.04336e-06 -1.30047e-05 0)
(-4.07903e-06 -1.30689e-05 0)
(-4.11482e-06 -1.31334e-05 0)
(-4.15092e-06 -1.31986e-05 0)
(-4.18757e-06 -1.3265e-05 0)
(-4.2251e-06 -1.33331e-05 0)
(-4.26388e-06 -1.34037e-05 0)
(-4.30437e-06 -1.34776e-05 0)
(-4.34711e-06 -1.35557e-05 0)
(-4.39273e-06 -1.36394e-05 0)
(-4.44189e-06 -1.37297e-05 0)
(-4.49523e-06 -1.38281e-05 0)
(-4.5533e-06 -1.39354e-05 0)
(-4.61641e-06 -1.40523e-05 0)
(-4.6846e-06 -1.41788e-05 0)
(-4.75759e-06 -1.43144e-05 0)
(-4.8347e-06 -1.4458e-05 0)
(-4.91447e-06 -1.4607e-05 0)
(-4.99443e-06 -1.47566e-05 0)
(-5.07151e-06 -1.49008e-05 0)
(-5.1427e-06 -1.50342e-05 0)
(-5.20461e-06 -1.51514e-05 0)
(-5.25232e-06 -1.52434e-05 0)
(-5.28202e-06 -1.53008e-05 0)
(-5.29628e-06 -1.53278e-05 0)
(-5.30153e-06 -1.53376e-05 0)
(-5.30304e-06 -1.534e-05 0)
(-5.30371e-06 -1.53406e-05 0)
(-5.30465e-06 -1.53413e-05 0)
(-1.10175e-05 -2.07283e-05 0)
(-3.1455e-05 -2.65333e-05 0)
(-0.000341166 -5.79944e-05 0)
(-0.0670279 -0.00256028 0)
(-0.0982508 -0.00693965 0)
(-0.105995 -0.0113544 0)
(-0.107041 -0.0149632 0)
(-0.105276 -0.0174881 0)
(-0.102037 -0.0190659 0)
(-0.0979027 -0.0200126 0)
(-0.0931678 -0.0205408 0)
(-0.0880038 -0.0207706 0)
(-0.0825202 -0.0207817 0)
(-0.0767916 -0.0206308 0)
(-0.0708728 -0.0203576 0)
(-0.0648052 -0.0199908 0)
(-0.0586222 -0.0195515 0)
(-0.0523509 -0.0190558 0)
(-0.0460148 -0.0185157 0)
(-0.0396343 -0.017941 0)
(-0.033228 -0.0173391 0)
(-0.0268133 -0.0167163 0)
(-0.0204064 -0.016078 0)
(-0.0140232 -0.0154289 0)
(-0.00767902 -0.0147731 0)
(-0.00138917 -0.014115 0)
(0.00483141 -0.0134587 0)
(0.0109679 -0.0128081 0)
(0.0170059 -0.0121667 0)
(0.0229313 -0.011537 0)
(0.0287306 -0.0109196 0)
(0.0343912 -0.0103123 0)
(0.0399011 -0.0097103 0)
(0.0452497 -0.00910622 0)
(0.0504269 -0.0084915 0)
(0.0554239 -0.00785787 0)
(0.0602321 -0.00719901 0)
(0.0648436 -0.00651178 0)
(0.0692501 -0.00579693 0)
(0.0734434 -0.00505946 0)
(0.0774158 -0.00430904 0)
(0.0811601 -0.00356094 0)
(0.0846712 -0.00283706 0)
(0.087948 -0.00216582 0)
(0.0909948 -0.00157902 0)
(0.0938241 -0.00110382 0)
(0.0964572 -0.000752262 0)
(0.0989218 -0.000516065 0)
(0.101247 -0.000371882 0)
(0.103457 -0.000292608 0)
(0.105568 -0.000255801 0)
(0.107589 -0.000246159 0)
(0.109525 -0.000254396 0)
(0.111379 -0.000274988 0)
(0.11317 -0.000304584 0)
(0.114917 -0.000341378 0)
(0.116625 -0.000384618 0)
(0.118299 -0.000433818 0)
(0.119935 -0.000487597 0)
(0.121535 -0.000545136 0)
(0.123108 -0.000606954 0)
(0.124653 -0.000672666 0)
(0.126166 -0.000740946 0)
(0.127648 -0.000811554 0)
(0.129106 -0.000884396 0)
(0.130534 -0.000958425 0)
(0.131934 -0.00103319 0)
(0.133312 -0.00110892 0)
(0.134665 -0.00118538 0)
(0.135997 -0.00126297 0)
(0.137319 -0.00134266 0)
(0.138623 -0.00142398 0)
(0.139907 -0.00150673 0)
(0.141182 -0.00159199 0)
(0.142447 -0.00167994 0)
(0.143702 -0.00177055 0)
(0.144946 -0.00186409 0)
(0.146177 -0.00196038 0)
(0.147405 -0.00206052 0)
(0.14863 -0.00216517 0)
(0.149844 -0.00227351 0)
(0.151056 -0.00238677 0)
(0.152266 -0.00250564 0)
(0.15347 -0.00262982 0)
(0.154672 -0.00276043 0)
(0.155871 -0.00289808 0)
(0.157063 -0.00304296 0)
(0.158244 -0.00319542 0)
(0.159417 -0.00335684 0)
(0.160577 -0.0035281 0)
(0.161715 -0.00370913 0)
(0.162842 -0.00390442 0)
(0.163915 -0.00411133 0)
(0.164761 -0.00428826 0)
(0.165568 -0.00448091 0)
(0.242962 -0.0394714 0)
(0.242965 -0.0394713 0)
(0.242968 -0.0394713 0)
(0.24297 -0.0394713 0)
(0.242972 -0.0394713 0)
(0.242974 -0.0394713 0)
(0.242975 -0.0394713 0)
(0.242977 -0.0394713 0)
(0.242977 -0.0394713 0)
(0.242978 -0.0394713 0)
(0.242979 -0.0394713 0)
(0.242979 -0.0394713 0)
(0.24298 -0.0394713 0)
(0.24298 -0.0394713 0)
(0.24298 -0.0394713 0)
(0.24298 -0.0394713 0)
(0.242981 -0.0394713 0)
(0.242981 -0.0394713 0)
(0.242981 -0.0394713 0)
(0.242981 -0.0394713 0)
(0.242981 -0.0394713 0)
(0.242981 -0.0394713 0)
(0.242981 -0.0394713 0)
(0.242981 -0.0394713 0)
(0.242981 -0.0394713 0)
(0.242981 -0.0394713 0)
(0.242981 -0.0394713 0)
(0.242981 -0.0394713 0)
(0.242981 -0.0394713 0)
(0.242981 -0.0394713 0)
(0.242981 -0.0394713 0)
(0.242981 -0.0394713 0)
(0.242981 -0.0394713 0)
(0.242981 -0.0394713 0)
(0.242981 -0.0394713 0)
(0.242981 -0.0394713 0)
(0.242981 -0.0394713 0)
(0.242981 -0.0394713 0)
(0.242981 -0.0394713 0)
(0.242981 -0.0394713 0)
(0.242981 -0.0394713 0)
(0.242981 -0.0394713 0)
(0.242981 -0.0394713 0)
(0.242981 -0.0394713 0)
(0.242981 -0.0394713 0)
(0.242981 -0.0394713 0)
(0.242981 -0.0394713 0)
(0.242981 -0.0394713 0)
(0.242981 -0.0394713 0)
(0.242981 -0.0394713 0)
(0.242981 -0.0394713 0)
(0.242981 -0.0394713 0)
(0.242981 -0.0394713 0)
(0.242981 -0.0394713 0)
(0.242981 -0.0394713 0)
(0.242981 -0.0394713 0)
(0.242981 -0.0394713 0)
(0.242981 -0.0394713 0)
(0.242981 -0.0394713 0)
(0.242981 -0.0394713 0)
(0.242981 -0.0394713 0)
(0.242981 -0.0394713 0)
(0.242981 -0.0394713 0)
(0.242981 -0.0394713 0)
(0.242981 -0.0394713 0)
(0.242981 -0.0394713 0)
(0.242981 -0.0394713 0)
(0.242981 -0.0394713 0)
(0.242981 -0.0394713 0)
(0.242981 -0.0394713 0)
(0.242981 -0.0394713 0)
(0.242981 -0.0394713 0)
(0.242981 -0.0394713 0)
(0.242981 -0.0394713 0)
(0.242981 -0.0394713 0)
(0.242981 -0.0394713 0)
(0.242981 -0.0394713 0)
(0.242981 -0.0394713 0)
(0.242981 -0.0394713 0)
(0.242981 -0.0394713 0)
(0.242981 -0.0394713 0)
(0.242981 -0.0394713 0)
(0.242981 -0.0394713 0)
(0.242981 -0.0394713 0)
(0.242981 -0.0394713 0)
(0.242981 -0.0394713 0)
(0.242981 -0.0394713 0)
(0.242981 -0.0394713 0)
(0.242981 -0.0394713 0)
(0.242981 -0.0394713 0)
(0.242981 -0.0394713 0)
(0.242981 -0.0394713 0)
(0.242981 -0.0394713 0)
(0.242981 -0.0394713 0)
(0.242981 -0.0394713 0)
(0.242981 -0.0394713 0)
(0.242981 -0.0394713 0)
(0.242981 -0.0394713 0)
(0.242981 -0.0394713 0)
(0.242981 -0.0394713 0)
(0.242981 -0.0394713 0)
(0.242981 -0.0394713 0)
(0.242981 -0.0394713 0)
(0.242981 -0.0394713 0)
(0.242981 -0.0394713 0)
(0.242981 -0.0394713 0)
(0.242981 -0.0394713 0)
(0.242981 -0.0394713 0)
(0.242981 -0.0394713 0)
(0.242981 -0.0394713 0)
(0.242981 -0.0394713 0)
(0.242981 -0.0394713 0)
(0.242981 -0.0394713 0)
(0.242981 -0.0394713 0)
(0.242981 -0.0394711 0)
(0.242983 -0.0394626 0)
(0.243018 -0.0391162 0)
(0.243831 -0.0223466 0)
)
;

boundaryField
{
    inandouthalf11
    {
        type            cyclic;
    }
    inandouthalf12
    {
        type            cyclic;
    }
    inandouthalf21
    {
        type            cyclic;
    }
    inandouthalf22
    {
        type            cyclic;
    }
    inandouthalf31
    {
        type            cyclic;
    }
    inandouthalf32
    {
        type            cyclic;
    }
    inandouthalf41
    {
        type            cyclic;
    }
    inandouthalf42
    {
        type            cyclic;
    }
    top
    {
        type            symmetryPlane;
    }
    walls
    {
        type            fixedValue;
        value           uniform (0 0 0);
    }
    frontAndBackPlanes
    {
        type            empty;
    }
}


// ************************************************************************* //
