/*--------------------------------*- C++ -*----------------------------------*\
| =========                 |                                                 |
| \\      /  F ield         | OpenFOAM: The Open Source CFD Toolbox           |
|  \\    /   O peration     | Version:  2.4.x                                 |
|   \\  /    A nd           | Web:      www.OpenFOAM.org                      |
|    \\/     M anipulation  |                                                 |
\*---------------------------------------------------------------------------*/
FoamFile
{
    version     2.0;
    format      ascii;
    class       volVectorField;
    location    "3";
    object      Ua_0;
}
// * * * * * * * * * * * * * * * * * * * * * * * * * * * * * * * * * * * * * //

dimensions      [0 1 -1 0 0 0 0];

internalField   nonuniform List<vector> 
360
(
(-9.69594e-33 -6.24044e-32 0)
(-6.56818e-08 -3.2675e-07 0)
(-1.87789e-07 -8.6398e-07 0)
(-3.13889e-07 -1.38249e-06 0)
(-4.28597e-07 -1.84674e-06 0)
(-5.36585e-07 -2.28447e-06 0)
(-6.46455e-07 -2.73482e-06 0)
(-7.66271e-07 -3.23419e-06 0)
(-9.01801e-07 -3.8076e-06 0)
(-1.05631e-06 -4.46926e-06 0)
(-1.231e-06 -5.22745e-06 0)
(-1.42341e-06 -6.0772e-06 0)
(-1.62302e-06 -6.97795e-06 0)
(-1.80852e-06 -7.83401e-06 0)
(-1.95502e-06 -8.52245e-06 0)
(-2.05024e-06 -8.97447e-06 0)
(-2.10168e-06 -9.21883e-06 0)
(-2.12625e-06 -9.33467e-06 0)
(-2.1378e-06 -9.38827e-06 0)
(-2.14379e-06 -9.41546e-06 0)
(-2.14752e-06 -9.43186e-06 0)
(-2.15038e-06 -9.44399e-06 0)
(-2.15304e-06 -9.45478e-06 0)
(-2.15585e-06 -9.46577e-06 0)
(-2.15905e-06 -9.4778e-06 0)
(-2.16273e-06 -9.49124e-06 0)
(-2.16693e-06 -9.50609e-06 0)
(-2.17156e-06 -9.52205e-06 0)
(-2.17652e-06 -9.53865e-06 0)
(-2.18166e-06 -9.55547e-06 0)
(-2.1869e-06 -9.57215e-06 0)
(-2.19217e-06 -9.58855e-06 0)
(-2.19746e-06 -9.60461e-06 0)
(-2.20278e-06 -9.62039e-06 0)
(-2.20816e-06 -9.63599e-06 0)
(-2.21363e-06 -9.65148e-06 0)
(-2.21922e-06 -9.66698e-06 0)
(-2.22495e-06 -9.68254e-06 0)
(-2.23085e-06 -9.69824e-06 0)
(-2.23692e-06 -9.71408e-06 0)
(-2.24317e-06 -9.73007e-06 0)
(-2.2496e-06 -9.74621e-06 0)
(-2.2562e-06 -9.76249e-06 0)
(-2.26298e-06 -9.77893e-06 0)
(-2.26996e-06 -9.79554e-06 0)
(-2.27712e-06 -9.81234e-06 0)
(-2.2845e-06 -9.82935e-06 0)
(-2.29208e-06 -9.84658e-06 0)
(-2.29991e-06 -9.86409e-06 0)
(-2.308e-06 -9.88196e-06 0)
(-2.31639e-06 -9.90022e-06 0)
(-2.3251e-06 -9.91893e-06 0)
(-2.33414e-06 -9.93814e-06 0)
(-2.34355e-06 -9.95789e-06 0)
(-2.35336e-06 -9.97823e-06 0)
(-2.3636e-06 -9.99925e-06 0)
(-2.37429e-06 -1.0021e-05 0)
(-2.38547e-06 -1.00435e-05 0)
(-2.39716e-06 -1.00668e-05 0)
(-2.40936e-06 -1.0091e-05 0)
(-2.42207e-06 -1.0116e-05 0)
(-2.43528e-06 -1.01417e-05 0)
(-2.44894e-06 -1.01682e-05 0)
(-2.46302e-06 -1.01952e-05 0)
(-2.47746e-06 -1.02228e-05 0)
(-2.49224e-06 -1.02509e-05 0)
(-2.50735e-06 -1.02793e-05 0)
(-2.52282e-06 -1.03083e-05 0)
(-2.53873e-06 -1.03379e-05 0)
(-2.55517e-06 -1.03684e-05 0)
(-2.57226e-06 -1.03999e-05 0)
(-2.59012e-06 -1.04327e-05 0)
(-2.60883e-06 -1.04669e-05 0)
(-2.62846e-06 -1.05026e-05 0)
(-2.64904e-06 -1.054e-05 0)
(-2.67052e-06 -1.05789e-05 0)
(-2.69284e-06 -1.06192e-05 0)
(-2.71589e-06 -1.06606e-05 0)
(-2.73957e-06 -1.07031e-05 0)
(-2.76381e-06 -1.07464e-05 0)
(-2.78854e-06 -1.07906e-05 0)
(-2.81377e-06 -1.08354e-05 0)
(-2.83953e-06 -1.08812e-05 0)
(-2.86586e-06 -1.09278e-05 0)
(-2.89281e-06 -1.09755e-05 0)
(-2.92044e-06 -1.10243e-05 0)
(-2.94875e-06 -1.10742e-05 0)
(-2.97774e-06 -1.11253e-05 0)
(-3.00736e-06 -1.11775e-05 0)
(-3.03757e-06 -1.12306e-05 0)
(-3.06829e-06 -1.12846e-05 0)
(-3.09947e-06 -1.13393e-05 0)
(-3.13105e-06 -1.13947e-05 0)
(-3.16302e-06 -1.14507e-05 0)
(-3.19535e-06 -1.15074e-05 0)
(-3.22804e-06 -1.15647e-05 0)
(-3.26107e-06 -1.16225e-05 0)
(-3.29446e-06 -1.1681e-05 0)
(-3.32818e-06 -1.17401e-05 0)
(-3.36225e-06 -1.17998e-05 0)
(-3.39664e-06 -1.18601e-05 0)
(-3.43135e-06 -1.1921e-05 0)
(-3.46635e-06 -1.19824e-05 0)
(-3.50165e-06 -1.20444e-05 0)
(-3.53721e-06 -1.21069e-05 0)
(-3.57301e-06 -1.21699e-05 0)
(-3.60903e-06 -1.22333e-05 0)
(-3.64523e-06 -1.22971e-05 0)
(-3.68158e-06 -1.23612e-05 0)
(-3.71804e-06 -1.24257e-05 0)
(-3.75455e-06 -1.24903e-05 0)
(-3.79106e-06 -1.2555e-05 0)
(-3.82754e-06 -1.26197e-05 0)
(-3.86392e-06 -1.26844e-05 0)
(-3.90018e-06 -1.2749e-05 0)
(-3.93628e-06 -1.28134e-05 0)
(-3.97222e-06 -1.28776e-05 0)
(-4.00801e-06 -1.29417e-05 0)
(-4.0437e-06 -1.30058e-05 0)
(-4.07937e-06 -1.307e-05 0)
(-4.11517e-06 -1.31345e-05 0)
(-4.15127e-06 -1.31998e-05 0)
(-4.18793e-06 -1.32662e-05 0)
(-4.22546e-06 -1.33344e-05 0)
(-4.26424e-06 -1.3405e-05 0)
(-4.30473e-06 -1.34789e-05 0)
(-4.34747e-06 -1.35571e-05 0)
(-4.39308e-06 -1.36407e-05 0)
(-4.44223e-06 -1.37311e-05 0)
(-4.49556e-06 -1.38295e-05 0)
(-4.55361e-06 -1.39368e-05 0)
(-4.61671e-06 -1.40538e-05 0)
(-4.68488e-06 -1.41803e-05 0)
(-4.75785e-06 -1.4316e-05 0)
(-4.83495e-06 -1.44597e-05 0)
(-4.91469e-06 -1.46087e-05 0)
(-4.99463e-06 -1.47584e-05 0)
(-5.07168e-06 -1.49026e-05 0)
(-5.14285e-06 -1.50361e-05 0)
(-5.20473e-06 -1.51534e-05 0)
(-5.25242e-06 -1.52454e-05 0)
(-5.2821e-06 -1.53028e-05 0)
(-5.29636e-06 -1.53299e-05 0)
(-5.30161e-06 -1.53396e-05 0)
(-5.30312e-06 -1.53421e-05 0)
(-5.30379e-06 -1.53427e-05 0)
(-5.30472e-06 -1.53434e-05 0)
(-1.10099e-05 -2.07274e-05 0)
(-3.14064e-05 -2.65335e-05 0)
(-0.000339551 -5.7998e-05 0)
(-0.0669765 -0.00256754 0)
(-0.0981351 -0.00694966 0)
(-0.105852 -0.0113644 0)
(-0.106883 -0.014972 0)
(-0.105107 -0.0174951 0)
(-0.10186 -0.0190711 0)
(-0.0977188 -0.0200163 0)
(-0.092978 -0.0205432 0)
(-0.0878089 -0.0207719 0)
(-0.0823206 -0.0207823 0)
(-0.0765877 -0.0206306 0)
(-0.0706649 -0.0203568 0)
(-0.0645937 -0.0199894 0)
(-0.0584071 -0.0195497 0)
(-0.0521325 -0.0190536 0)
(-0.0457932 -0.0185133 0)
(-0.0394097 -0.0179382 0)
(-0.0330006 -0.017336 0)
(-0.026583 -0.0167131 0)
(-0.0201735 -0.0160746 0)
(-0.0137877 -0.0154252 0)
(-0.00744116 -0.0147693 0)
(-0.00114895 -0.0141111 0)
(0.00507389 -0.0134546 0)
(0.0112126 -0.0128038 0)
(0.0172526 -0.0121623 0)
(0.02318 -0.0115326 0)
(0.0289812 -0.010915 0)
(0.0346436 -0.0103077 0)
(0.0401553 -0.00970554 0)
(0.0455055 -0.00910136 0)
(0.0506843 -0.00848654 0)
(0.0556827 -0.00785278 0)
(0.0604923 -0.00719377 0)
(0.065105 -0.00650636 0)
(0.0695127 -0.00579134 0)
(0.0737072 -0.00505367 0)
(0.0776805 -0.00430305 0)
(0.0814256 -0.00355477 0)
(0.0849375 -0.00283072 0)
(0.0882149 -0.00215935 0)
(0.0912622 -0.00157249 0)
(0.094092 -0.00109729 0)
(0.0967255 -0.000745793 0)
(0.0991904 -0.000509688 0)
(0.101516 -0.000365609 0)
(0.103726 -0.000286438 0)
(0.105837 -0.000249728 0)
(0.107859 -0.000240176 0)
(0.109795 -0.000248496 0)
(0.111649 -0.000269164 0)
(0.11344 -0.000298832 0)
(0.115187 -0.000335695 0)
(0.116896 -0.000378999 0)
(0.118569 -0.000428259 0)
(0.120206 -0.000482095 0)
(0.121806 -0.000539686 0)
(0.123379 -0.000601553 0)
(0.124924 -0.000667309 0)
(0.126437 -0.000735627 0)
(0.127919 -0.000806267 0)
(0.129376 -0.000879134 0)
(0.130804 -0.000953182 0)
(0.132205 -0.00102796 0)
(0.133583 -0.00110371 0)
(0.134935 -0.00118018 0)
(0.136268 -0.00125778 0)
(0.13759 -0.00133749 0)
(0.138893 -0.00141882 0)
(0.140177 -0.00150158 0)
(0.141452 -0.00158686 0)
(0.142718 -0.00167482 0)
(0.143972 -0.00176545 0)
(0.145217 -0.001859 0)
(0.146448 -0.0019553 0)
(0.147675 -0.00205546 0)
(0.1489 -0.00216012 0)
(0.150114 -0.00226848 0)
(0.151326 -0.00238176 0)
(0.152536 -0.00250065 0)
(0.15374 -0.00262485 0)
(0.154942 -0.00275548 0)
(0.156141 -0.00289315 0)
(0.157332 -0.00303806 0)
(0.158513 -0.00319054 0)
(0.159686 -0.00335198 0)
(0.160845 -0.00352327 0)
(0.161984 -0.00370432 0)
(0.163111 -0.00389964 0)
(0.164183 -0.00410661 0)
(0.16503 -0.00428365 0)
(0.165836 -0.00447639 0)
(0.243218 -0.0394714 0)
(0.243222 -0.0394713 0)
(0.243225 -0.0394713 0)
(0.243227 -0.0394713 0)
(0.243229 -0.0394713 0)
(0.243231 -0.0394713 0)
(0.243232 -0.0394713 0)
(0.243233 -0.0394713 0)
(0.243234 -0.0394713 0)
(0.243235 -0.0394713 0)
(0.243236 -0.0394713 0)
(0.243236 -0.0394713 0)
(0.243237 -0.0394713 0)
(0.243237 -0.0394713 0)
(0.243237 -0.0394713 0)
(0.243237 -0.0394713 0)
(0.243238 -0.0394713 0)
(0.243238 -0.0394713 0)
(0.243238 -0.0394713 0)
(0.243238 -0.0394713 0)
(0.243238 -0.0394713 0)
(0.243238 -0.0394713 0)
(0.243238 -0.0394713 0)
(0.243238 -0.0394713 0)
(0.243238 -0.0394713 0)
(0.243238 -0.0394713 0)
(0.243238 -0.0394713 0)
(0.243238 -0.0394713 0)
(0.243238 -0.0394713 0)
(0.243238 -0.0394713 0)
(0.243238 -0.0394713 0)
(0.243238 -0.0394713 0)
(0.243238 -0.0394713 0)
(0.243238 -0.0394713 0)
(0.243238 -0.0394713 0)
(0.243238 -0.0394713 0)
(0.243238 -0.0394713 0)
(0.243238 -0.0394713 0)
(0.243238 -0.0394713 0)
(0.243238 -0.0394713 0)
(0.243238 -0.0394713 0)
(0.243238 -0.0394713 0)
(0.243238 -0.0394713 0)
(0.243238 -0.0394713 0)
(0.243238 -0.0394713 0)
(0.243238 -0.0394713 0)
(0.243238 -0.0394713 0)
(0.243238 -0.0394713 0)
(0.243238 -0.0394713 0)
(0.243238 -0.0394713 0)
(0.243238 -0.0394713 0)
(0.243238 -0.0394713 0)
(0.243238 -0.0394713 0)
(0.243238 -0.0394713 0)
(0.243238 -0.0394713 0)
(0.243238 -0.0394713 0)
(0.243238 -0.0394713 0)
(0.243238 -0.0394713 0)
(0.243238 -0.0394713 0)
(0.243238 -0.0394713 0)
(0.243238 -0.0394713 0)
(0.243238 -0.0394713 0)
(0.243238 -0.0394713 0)
(0.243238 -0.0394713 0)
(0.243238 -0.0394713 0)
(0.243238 -0.0394713 0)
(0.243238 -0.0394713 0)
(0.243238 -0.0394713 0)
(0.243238 -0.0394713 0)
(0.243238 -0.0394713 0)
(0.243238 -0.0394713 0)
(0.243238 -0.0394713 0)
(0.243238 -0.0394713 0)
(0.243238 -0.0394713 0)
(0.243238 -0.0394713 0)
(0.243238 -0.0394713 0)
(0.243238 -0.0394713 0)
(0.243238 -0.0394713 0)
(0.243238 -0.0394713 0)
(0.243238 -0.0394713 0)
(0.243238 -0.0394713 0)
(0.243238 -0.0394713 0)
(0.243238 -0.0394713 0)
(0.243238 -0.0394713 0)
(0.243238 -0.0394713 0)
(0.243238 -0.0394713 0)
(0.243238 -0.0394713 0)
(0.243238 -0.0394713 0)
(0.243238 -0.0394713 0)
(0.243238 -0.0394713 0)
(0.243238 -0.0394713 0)
(0.243238 -0.0394713 0)
(0.243238 -0.0394713 0)
(0.243238 -0.0394713 0)
(0.243238 -0.0394713 0)
(0.243238 -0.0394713 0)
(0.243238 -0.0394713 0)
(0.243238 -0.0394713 0)
(0.243238 -0.0394713 0)
(0.243238 -0.0394713 0)
(0.243238 -0.0394713 0)
(0.243238 -0.0394713 0)
(0.243238 -0.0394713 0)
(0.243238 -0.0394713 0)
(0.243238 -0.0394713 0)
(0.243238 -0.0394713 0)
(0.243238 -0.0394713 0)
(0.243238 -0.0394713 0)
(0.243238 -0.0394713 0)
(0.243238 -0.0394713 0)
(0.243238 -0.0394713 0)
(0.243238 -0.0394713 0)
(0.243238 -0.0394713 0)
(0.243238 -0.0394713 0)
(0.243238 -0.0394711 0)
(0.24324 -0.0394626 0)
(0.243275 -0.0391162 0)
(0.244088 -0.0223466 0)
)
;

boundaryField
{
    inandouthalf11
    {
        type            cyclic;
    }
    inandouthalf12
    {
        type            cyclic;
    }
    inandouthalf21
    {
        type            cyclic;
    }
    inandouthalf22
    {
        type            cyclic;
    }
    inandouthalf31
    {
        type            cyclic;
    }
    inandouthalf32
    {
        type            cyclic;
    }
    inandouthalf41
    {
        type            cyclic;
    }
    inandouthalf42
    {
        type            cyclic;
    }
    top
    {
        type            symmetryPlane;
    }
    walls
    {
        type            fixedValue;
        value           uniform (0 0 0);
    }
    frontAndBackPlanes
    {
        type            empty;
    }
}


// ************************************************************************* //
