/*--------------------------------*- C++ -*----------------------------------*\
| =========                 |                                                 |
| \\      /  F ield         | OpenFOAM: The Open Source CFD Toolbox           |
|  \\    /   O peration     | Version:  2.4.x                                 |
|   \\  /    A nd           | Web:      www.OpenFOAM.org                      |
|    \\/     M anipulation  |                                                 |
\*---------------------------------------------------------------------------*/
FoamFile
{
    version     2.0;
    format      ascii;
    class       volVectorField;
    location    "3";
    object      Ub;
}
// * * * * * * * * * * * * * * * * * * * * * * * * * * * * * * * * * * * * * //

dimensions      [0 1 -1 0 0 0 0];

internalField   nonuniform List<vector> 
360
(
(-0.000274418 1.08686e-07 0)
(-0.000274428 5.76754e-07 0)
(-0.000274247 1.3462e-06 0)
(-0.000274333 2.14361e-06 0)
(-0.000274483 2.88466e-06 0)
(-0.000274655 3.5859e-06 0)
(-0.000274857 4.3048e-06 0)
(-0.000275073 5.0963e-06 0)
(-0.000275291 5.99903e-06 0)
(-0.000275526 7.03655e-06 0)
(-0.00027579 8.21926e-06 0)
(-0.000276086 9.5307e-06 0)
(-0.000276401 1.09006e-05 0)
(-0.000276696 1.21913e-05 0)
(-0.000276931 1.32414e-05 0)
(-0.000277086 1.39596e-05 0)
(-0.000277171 1.43722e-05 0)
(-0.000277212 1.4579e-05 0)
(-0.000277231 1.46766e-05 0)
(-0.000277243 1.47252e-05 0)
(-0.000277248 1.47533e-05 0)
(-0.000277255 1.47734e-05 0)
(-0.000277261 1.47907e-05 0)
(-0.000277267 1.48082e-05 0)
(-0.000277274 1.4827e-05 0)
(-0.000277282 1.48479e-05 0)
(-0.00027729 1.48708e-05 0)
(-0.000277301 1.48955e-05 0)
(-0.000277312 1.49211e-05 0)
(-0.000277324 1.49471e-05 0)
(-0.000277336 1.49729e-05 0)
(-0.000277349 1.49983e-05 0)
(-0.000277361 1.50232e-05 0)
(-0.000277377 1.50477e-05 0)
(-0.000277391 1.50718e-05 0)
(-0.000277407 1.50958e-05 0)
(-0.000277423 1.51198e-05 0)
(-0.000277441 1.51438e-05 0)
(-0.000277461 1.5168e-05 0)
(-0.00027748 1.51923e-05 0)
(-0.000277503 1.52169e-05 0)
(-0.000277526 1.52417e-05 0)
(-0.000277549 1.52666e-05 0)
(-0.000277576 1.52918e-05 0)
(-0.000277604 1.53171e-05 0)
(-0.000277633 1.53428e-05 0)
(-0.000277665 1.53687e-05 0)
(-0.000277697 1.53949e-05 0)
(-0.000277733 1.54215e-05 0)
(-0.000277773 1.54487e-05 0)
(-0.000277813 1.54762e-05 0)
(-0.000277856 1.55045e-05 0)
(-0.000277902 1.55335e-05 0)
(-0.000277952 1.55633e-05 0)
(-0.000278003 1.55938e-05 0)
(-0.000278059 1.56255e-05 0)
(-0.000278117 1.5658e-05 0)
(-0.000278179 1.56918e-05 0)
(-0.000278245 1.57267e-05 0)
(-0.000278312 1.57628e-05 0)
(-0.000278385 1.58001e-05 0)
(-0.000278458 1.58385e-05 0)
(-0.000278535 1.5878e-05 0)
(-0.000278614 1.59183e-05 0)
(-0.000278694 1.59594e-05 0)
(-0.000278776 1.60012e-05 0)
(-0.000278861 1.60436e-05 0)
(-0.000278949 1.60867e-05 0)
(-0.000279039 1.61308e-05 0)
(-0.000279133 1.61761e-05 0)
(-0.000279232 1.62229e-05 0)
(-0.000279335 1.62716e-05 0)
(-0.000279439 1.63224e-05 0)
(-0.000279549 1.63755e-05 0)
(-0.000279662 1.64309e-05 0)
(-0.000279778 1.64887e-05 0)
(-0.000279896 1.65484e-05 0)
(-0.000280017 1.661e-05 0)
(-0.000280141 1.66731e-05 0)
(-0.000280267 1.67374e-05 0)
(-0.000280396 1.68029e-05 0)
(-0.000280529 1.68695e-05 0)
(-0.000280666 1.69373e-05 0)
(-0.000280806 1.70064e-05 0)
(-0.000280949 1.7077e-05 0)
(-0.000281096 1.71492e-05 0)
(-0.000281247 1.72231e-05 0)
(-0.0002814 1.72986e-05 0)
(-0.000281557 1.73756e-05 0)
(-0.000281717 1.7454e-05 0)
(-0.000281881 1.75336e-05 0)
(-0.000282047 1.76143e-05 0)
(-0.000282217 1.76959e-05 0)
(-0.000282391 1.77783e-05 0)
(-0.000282569 1.78616e-05 0)
(-0.00028275 1.79456e-05 0)
(-0.000282936 1.80305e-05 0)
(-0.000283125 1.81161e-05 0)
(-0.000283318 1.82025e-05 0)
(-0.000283516 1.82896e-05 0)
(-0.000283717 1.83775e-05 0)
(-0.000283923 1.84661e-05 0)
(-0.000284134 1.85554e-05 0)
(-0.000284349 1.86454e-05 0)
(-0.000284568 1.87359e-05 0)
(-0.000284793 1.88269e-05 0)
(-0.000285023 1.89184e-05 0)
(-0.000285258 1.90103e-05 0)
(-0.000285498 1.91025e-05 0)
(-0.000285744 1.91948e-05 0)
(-0.000285996 1.92871e-05 0)
(-0.000286254 1.93793e-05 0)
(-0.000286518 1.94713e-05 0)
(-0.000286789 1.95629e-05 0)
(-0.000287066 1.96541e-05 0)
(-0.000287351 1.97446e-05 0)
(-0.000287643 1.98346e-05 0)
(-0.000287943 1.99241e-05 0)
(-0.000288251 2.00131e-05 0)
(-0.000288568 2.01019e-05 0)
(-0.000288895 2.01909e-05 0)
(-0.000289232 2.02806e-05 0)
(-0.000289579 2.03717e-05 0)
(-0.000289939 2.0465e-05 0)
(-0.000290311 2.05617e-05 0)
(-0.000290697 2.06628e-05 0)
(-0.000291098 2.07701e-05 0)
(-0.000291516 2.08851e-05 0)
(-0.000291953 2.10097e-05 0)
(-0.00029241 2.11457e-05 0)
(-0.000292888 2.12944e-05 0)
(-0.000293388 2.14567e-05 0)
(-0.000293912 2.16324e-05 0)
(-0.000294465 2.18206e-05 0)
(-0.000295051 2.20191e-05 0)
(-0.000295669 2.22237e-05 0)
(-0.000296312 2.24272e-05 0)
(-0.000296983 2.26204e-05 0)
(-0.000297711 2.27941e-05 0)
(-0.000298525 2.29397e-05 0)
(-0.000299391 2.30469e-05 0)
(-0.000300195 2.30994e-05 0)
(-0.000301136 2.31047e-05 0)
(-0.000302359 2.30762e-05 0)
(-0.000303859 2.30075e-05 0)
(-0.000306235 2.26825e-05 0)
(-0.000315586 2.53767e-05 0)
(-0.000321728 3.23188e-05 0)
(-0.000347905 3.26033e-05 0)
(-0.00107809 0.000101493 0)
(-0.0824265 0.00110389 0)
(-0.109091 0.000117798 0)
(-0.114666 0.000419092 0)
(-0.114914 0.000252595 0)
(-0.112961 0.000247573 0)
(-0.109771 0.000226495 0)
(-0.10577 0.000203968 0)
(-0.10119 0.000183298 0)
(-0.0961752 0.00016485 0)
(-0.0908244 0.000148195 0)
(-0.0852078 0.00013306 0)
(-0.0793781 0.000119292 0)
(-0.0733755 0.000106773 0)
(-0.0672317 9.5393e-05 0)
(-0.060972 8.5052e-05 0)
(-0.0546169 7.56619e-05 0)
(-0.0481833 6.71435e-05 0)
(-0.0416851 5.94254e-05 0)
(-0.0351341 5.2443e-05 0)
(-0.0285402 4.6137e-05 0)
(-0.0219117 4.04536e-05 0)
(-0.0152561 3.53433e-05 0)
(-0.00857948 3.07609e-05 0)
(-0.00188748 2.66646e-05 0)
(0.00481508 2.30165e-05 0)
(0.0115239 1.97813e-05 0)
(0.018235 1.6926e-05 0)
(0.0249449 1.44186e-05 0)
(0.0316504 1.22273e-05 0)
(0.0383484 1.03199e-05 0)
(0.0450361 8.66411e-06 0)
(0.051711 7.22853e-06 0)
(0.0583704 5.98384e-06 0)
(0.065012 4.90395e-06 0)
(0.0716333 3.96666e-06 0)
(0.0782323 3.15378e-06 0)
(0.0848064 2.45099e-06 0)
(0.0913535 1.84775e-06 0)
(0.0978711 1.33741e-06 0)
(0.104357 9.17212e-07 0)
(0.110807 5.87006e-07 0)
(0.11722 3.45723e-07 0)
(0.123591 1.86387e-07 0)
(0.129917 9.34439e-08 0)
(0.136192 4.5896e-08 0)
(0.142412 2.40297e-08 0)
(0.148573 1.43438e-08 0)
(0.154669 9.88419e-09 0)
(0.160695 7.68417e-09 0)
(0.166644 6.52722e-09 0)
(0.17251 5.88596e-09 0)
(0.178345 5.50073e-09 0)
(0.184193 5.2298e-09 0)
(0.19004 5.0068e-09 0)
(0.195867 4.82142e-09 0)
(0.20165 4.65831e-09 0)
(0.207359 4.47666e-09 0)
(0.212954 4.27092e-09 0)
(0.21838 4.07301e-09 0)
(0.223562 3.88291e-09 0)
(0.228384 3.67124e-09 0)
(0.232669 3.33478e-09 0)
(0.235643 3.4645e-09 0)
(0.236434 2.50111e-09 0)
(0.2366 3.40894e-09 0)
(0.236726 1.65087e-09 0)
(0.236839 3.37434e-09 0)
(0.236942 7.91212e-10 0)
(0.237036 3.41084e-09 0)
(0.237121 -2.05248e-11 0)
(0.237197 3.53074e-09 0)
(0.237266 -8.70497e-10 0)
(0.237328 3.77363e-09 0)
(0.237384 -1.72637e-09 0)
(0.237434 4.13162e-09 0)
(0.237478 -2.60979e-09 0)
(0.237518 4.57558e-09 0)
(0.237553 -3.49615e-09 0)
(0.237585 5.11794e-09 0)
(0.237612 -4.40784e-09 0)
(0.237637 5.74743e-09 0)
(0.237658 -5.33158e-09 0)
(0.237677 6.44637e-09 0)
(0.237693 -6.26734e-09 0)
(0.237707 7.21304e-09 0)
(0.23772 -7.22213e-09 0)
(0.23773 8.03622e-09 0)
(0.23774 -8.19495e-09 0)
(0.237747 8.91141e-09 0)
(0.237754 -9.18603e-09 0)
(0.23776 9.91204e-09 0)
(0.237764 -1.01345e-08 0)
(0.237769 1.18315e-08 0)
(0.237773 -1.23655e-08 0)
(0.237776 1.2902e-08 0)
(0.237778 -1.34694e-08 0)
(0.23778 1.40393e-08 0)
(0.237782 -1.46397e-08 0)
(0.237783 1.52429e-08 0)
(0.237785 -1.5876e-08 0)
(0.237786 1.65124e-08 0)
(0.237786 -1.71782e-08 0)
(0.237787 1.78476e-08 0)
(0.237788 -1.85457e-08 0)
(0.237788 1.92482e-08 0)
(0.237788 -1.99785e-08 0)
(0.237789 2.0714e-08 0)
(0.237789 -2.14764e-08 0)
(0.237789 2.22448e-08 0)
(0.237789 -2.30391e-08 0)
(0.237789 2.38403e-08 0)
(0.237789 -2.46664e-08 0)
(0.237789 2.55003e-08 0)
(0.237789 -2.63581e-08 0)
(0.237789 2.72246e-08 0)
(0.237789 -2.81139e-08 0)
(0.237789 2.90128e-08 0)
(0.237789 -2.99336e-08 0)
(0.237789 3.08644e-08 0)
(0.237789 -3.18165e-08 0)
(0.237789 3.2779e-08 0)
(0.237789 -3.37621e-08 0)
(0.237789 3.47559e-08 0)
(0.237789 -3.57694e-08 0)
(0.237789 3.67939e-08 0)
(0.237789 -3.78374e-08 0)
(0.237789 3.8892e-08 0)
(0.237789 -3.99647e-08 0)
(0.237789 4.10483e-08 0)
(0.237789 -4.21493e-08 0)
(0.237789 4.3261e-08 0)
(0.237789 -4.43889e-08 0)
(0.237789 4.55271e-08 0)
(0.237789 -4.66803e-08 0)
(0.237789 4.78431e-08 0)
(0.237789 -4.90192e-08 0)
(0.237789 5.02039e-08 0)
(0.237789 -5.13996e-08 0)
(0.237789 5.26021e-08 0)
(0.237789 -5.38126e-08 0)
(0.237789 5.50264e-08 0)
(0.237789 -5.62424e-08 0)
(0.237789 5.74524e-08 0)
(0.237789 -5.86151e-08 0)
(0.237789 5.97509e-08 0)
(0.237789 -6.08891e-08 0)
(0.237789 6.2034e-08 0)
(0.237789 -6.31891e-08 0)
(0.237789 6.43553e-08 0)
(0.237789 -6.55346e-08 0)
(0.237789 6.67273e-08 0)
(0.237789 -6.79346e-08 0)
(0.237789 6.91569e-08 0)
(0.237789 -7.0395e-08 0)
(0.237789 7.16494e-08 0)
(0.237789 -7.29207e-08 0)
(0.237789 7.42092e-08 0)
(0.237789 -7.55156e-08 0)
(0.237789 7.68403e-08 0)
(0.237789 -7.81839e-08 0)
(0.237789 6.97729e-08 0)
(0.237789 -6.95467e-08 0)
(0.237789 6.93162e-08 0)
(0.237789 -6.90821e-08 0)
(0.237789 6.88445e-08 0)
(0.237789 -6.86039e-08 0)
(0.237789 6.83605e-08 0)
(0.237789 -6.81148e-08 0)
(0.237789 6.78669e-08 0)
(0.237789 -6.76173e-08 0)
(0.237789 6.73659e-08 0)
(0.237789 -6.71135e-08 0)
(0.237789 6.68598e-08 0)
(0.237789 -6.66056e-08 0)
(0.237789 6.63507e-08 0)
(0.237789 -6.60959e-08 0)
(0.237789 6.58408e-08 0)
(0.237789 -6.55862e-08 0)
(0.237789 6.53318e-08 0)
(0.237789 -6.50787e-08 0)
(0.237789 6.48258e-08 0)
(0.237789 -6.45751e-08 0)
(0.237789 6.43248e-08 0)
(0.237789 -6.40775e-08 0)
(0.237789 6.38307e-08 0)
(0.237789 -6.35878e-08 0)
(0.237789 6.33457e-08 0)
(0.237789 -6.31082e-08 0)
(0.237789 6.28717e-08 0)
(0.237789 -6.26407e-08 0)
(0.237789 6.24112e-08 0)
(0.237789 -6.21877e-08 0)
(0.237789 6.19663e-08 0)
(0.237789 -6.17515e-08 0)
(0.237789 6.15397e-08 0)
(0.237789 -6.13349e-08 0)
(0.237789 6.1134e-08 0)
(0.237789 -6.09405e-08 0)
(0.237789 6.07523e-08 0)
(0.237789 -6.05718e-08 0)
(0.237789 6.03982e-08 0)
(0.237789 -6.02324e-08 0)
(0.237789 6.0076e-08 0)
(0.237789 -5.99273e-08 0)
(0.237789 5.97909e-08 0)
(0.237789 -5.96625e-08 0)
(0.237789 5.95503e-08 0)
(0.237789 -5.94479e-08 0)
(0.237789 5.93675e-08 0)
(0.237789 -5.93046e-08 0)
)
;

boundaryField
{
    inandouthalf11
    {
        type            cyclic;
    }
    inandouthalf12
    {
        type            cyclic;
    }
    inandouthalf21
    {
        type            cyclic;
    }
    inandouthalf22
    {
        type            cyclic;
    }
    inandouthalf31
    {
        type            cyclic;
    }
    inandouthalf32
    {
        type            cyclic;
    }
    inandouthalf41
    {
        type            cyclic;
    }
    inandouthalf42
    {
        type            cyclic;
    }
    top
    {
        type            symmetryPlane;
    }
    walls
    {
        type            fixedValue;
        value           uniform (0 0 0);
    }
    frontAndBackPlanes
    {
        type            empty;
    }
}


// ************************************************************************* //
