/*--------------------------------*- C++ -*----------------------------------*\
| =========                 |                                                 |
| \\      /  F ield         | OpenFOAM: The Open Source CFD Toolbox           |
|  \\    /   O peration     | Version:  2.4.x                                 |
|   \\  /    A nd           | Web:      www.OpenFOAM.org                      |
|    \\/     M anipulation  |                                                 |
\*---------------------------------------------------------------------------*/
FoamFile
{
    version     2.0;
    format      ascii;
    class       volVectorField;
    location    "3";
    object      Ub_0;
}
// * * * * * * * * * * * * * * * * * * * * * * * * * * * * * * * * * * * * * //

dimensions      [0 1 -1 0 0 0 0];

internalField   nonuniform List<vector> 
360
(
(-0.000274431 1.08581e-07 0)
(-0.000274441 5.76278e-07 0)
(-0.00027426 1.34522e-06 0)
(-0.000274345 2.14223e-06 0)
(-0.000274496 2.88302e-06 0)
(-0.000274668 3.58415e-06 0)
(-0.000274869 4.30309e-06 0)
(-0.000275086 5.09483e-06 0)
(-0.000275304 5.99809e-06 0)
(-0.000275538 7.03641e-06 0)
(-0.000275803 8.22016e-06 0)
(-0.000276099 9.53263e-06 0)
(-0.000276414 1.09032e-05 0)
(-0.000276709 1.21937e-05 0)
(-0.000276944 1.3243e-05 0)
(-0.000277098 1.396e-05 0)
(-0.000277183 1.43717e-05 0)
(-0.000277224 1.45778e-05 0)
(-0.000277243 1.46752e-05 0)
(-0.000277255 1.47237e-05 0)
(-0.00027726 1.47517e-05 0)
(-0.000277267 1.47718e-05 0)
(-0.000277273 1.47891e-05 0)
(-0.000277279 1.48066e-05 0)
(-0.000277286 1.48254e-05 0)
(-0.000277294 1.48463e-05 0)
(-0.000277302 1.48693e-05 0)
(-0.000277313 1.48939e-05 0)
(-0.000277324 1.49196e-05 0)
(-0.000277336 1.49456e-05 0)
(-0.000277348 1.49714e-05 0)
(-0.000277362 1.49969e-05 0)
(-0.000277373 1.50217e-05 0)
(-0.000277389 1.50463e-05 0)
(-0.000277403 1.50704e-05 0)
(-0.000277419 1.50944e-05 0)
(-0.000277435 1.51183e-05 0)
(-0.000277453 1.51424e-05 0)
(-0.000277473 1.51666e-05 0)
(-0.000277492 1.51909e-05 0)
(-0.000277515 1.52155e-05 0)
(-0.000277538 1.52403e-05 0)
(-0.000277561 1.52652e-05 0)
(-0.000277588 1.52905e-05 0)
(-0.000277616 1.53158e-05 0)
(-0.000277645 1.53415e-05 0)
(-0.000277677 1.53674e-05 0)
(-0.000277709 1.53936e-05 0)
(-0.000277745 1.54202e-05 0)
(-0.000277785 1.54474e-05 0)
(-0.000277825 1.5475e-05 0)
(-0.000277868 1.55033e-05 0)
(-0.000277914 1.55323e-05 0)
(-0.000277964 1.55621e-05 0)
(-0.000278015 1.55926e-05 0)
(-0.000278071 1.56243e-05 0)
(-0.000278129 1.56569e-05 0)
(-0.000278192 1.56906e-05 0)
(-0.000278257 1.57256e-05 0)
(-0.000278324 1.57617e-05 0)
(-0.000278397 1.5799e-05 0)
(-0.00027847 1.58374e-05 0)
(-0.000278547 1.58769e-05 0)
(-0.000278626 1.59173e-05 0)
(-0.000278706 1.59584e-05 0)
(-0.000278788 1.60002e-05 0)
(-0.000278873 1.60426e-05 0)
(-0.000278961 1.60858e-05 0)
(-0.000279052 1.613e-05 0)
(-0.000279145 1.61752e-05 0)
(-0.000279244 1.62221e-05 0)
(-0.000279347 1.62708e-05 0)
(-0.000279452 1.63216e-05 0)
(-0.000279562 1.63748e-05 0)
(-0.000279674 1.64302e-05 0)
(-0.000279791 1.6488e-05 0)
(-0.000279909 1.65478e-05 0)
(-0.000280029 1.66095e-05 0)
(-0.000280153 1.66726e-05 0)
(-0.00028028 1.67369e-05 0)
(-0.000280409 1.68025e-05 0)
(-0.000280542 1.68691e-05 0)
(-0.000280678 1.69369e-05 0)
(-0.000280818 1.70061e-05 0)
(-0.000280962 1.70767e-05 0)
(-0.000281109 1.7149e-05 0)
(-0.000281259 1.72229e-05 0)
(-0.000281413 1.72984e-05 0)
(-0.00028157 1.73755e-05 0)
(-0.00028173 1.7454e-05 0)
(-0.000281893 1.75336e-05 0)
(-0.00028206 1.76144e-05 0)
(-0.00028223 1.7696e-05 0)
(-0.000282404 1.77785e-05 0)
(-0.000282582 1.78618e-05 0)
(-0.000282763 1.79459e-05 0)
(-0.000282948 1.80308e-05 0)
(-0.000283138 1.81165e-05 0)
(-0.000283331 1.82029e-05 0)
(-0.000283528 1.82902e-05 0)
(-0.00028373 1.83781e-05 0)
(-0.000283936 1.84668e-05 0)
(-0.000284146 1.85561e-05 0)
(-0.000284361 1.86461e-05 0)
(-0.000284581 1.87367e-05 0)
(-0.000284806 1.88278e-05 0)
(-0.000285036 1.89194e-05 0)
(-0.000285271 1.90113e-05 0)
(-0.000285511 1.91035e-05 0)
(-0.000285757 1.91959e-05 0)
(-0.000286009 1.92883e-05 0)
(-0.000286267 1.93806e-05 0)
(-0.000286531 1.94726e-05 0)
(-0.000286802 1.95643e-05 0)
(-0.000287079 1.96555e-05 0)
(-0.000287364 1.97461e-05 0)
(-0.000287656 1.98362e-05 0)
(-0.000287956 1.99257e-05 0)
(-0.000288264 2.00147e-05 0)
(-0.000288581 2.01036e-05 0)
(-0.000288908 2.01927e-05 0)
(-0.000289245 2.02824e-05 0)
(-0.000289593 2.03736e-05 0)
(-0.000289952 2.04669e-05 0)
(-0.000290324 2.05636e-05 0)
(-0.000290711 2.06648e-05 0)
(-0.000291112 2.07721e-05 0)
(-0.00029153 2.08872e-05 0)
(-0.000291966 2.10118e-05 0)
(-0.000292423 2.11478e-05 0)
(-0.000292901 2.12966e-05 0)
(-0.000293401 2.1459e-05 0)
(-0.000293926 2.16348e-05 0)
(-0.000294478 2.1823e-05 0)
(-0.000295065 2.20216e-05 0)
(-0.000295683 2.22263e-05 0)
(-0.000296325 2.24299e-05 0)
(-0.000296997 2.26232e-05 0)
(-0.000297724 2.27969e-05 0)
(-0.000298539 2.29426e-05 0)
(-0.000299404 2.305e-05 0)
(-0.000300208 2.31025e-05 0)
(-0.00030115 2.31077e-05 0)
(-0.000302373 2.30792e-05 0)
(-0.000303873 2.30106e-05 0)
(-0.000306249 2.26856e-05 0)
(-0.000315602 2.53778e-05 0)
(-0.000321738 3.23205e-05 0)
(-0.000347875 3.25365e-05 0)
(-0.00107687 0.000101743 0)
(-0.0823562 0.00110643 0)
(-0.10896 0.000117534 0)
(-0.114514 0.000419814 0)
(-0.114749 0.000252807 0)
(-0.112788 0.000247852 0)
(-0.10959 0.000226739 0)
(-0.105583 0.000204176 0)
(-0.100998 0.000183477 0)
(-0.0959782 0.000165005 0)
(-0.0906229 0.00014833 0)
(-0.0850021 0.000133177 0)
(-0.0791684 0.000119394 0)
(-0.0731621 0.000106861 0)
(-0.0670147 9.54689e-05 0)
(-0.0607517 8.51172e-05 0)
(-0.0543935 7.57177e-05 0)
(-0.0479568 6.71911e-05 0)
(-0.0414558 5.94658e-05 0)
(-0.034902 5.2477e-05 0)
(-0.0283053 4.61654e-05 0)
(-0.0216743 4.04772e-05 0)
(-0.0150161 3.53627e-05 0)
(-0.00833707 3.07766e-05 0)
(-0.0016427 2.66772e-05 0)
(0.00506215 2.30264e-05 0)
(0.0117732 1.97889e-05 0)
(0.0184865 1.69317e-05 0)
(0.0251985 1.44227e-05 0)
(0.031906 1.22301e-05 0)
(0.0386061 1.03217e-05 0)
(0.0452958 8.66506e-06 0)
(0.0519726 7.22881e-06 0)
(0.0586339 5.98357e-06 0)
(0.0652773 4.90324e-06 0)
(0.0719005 3.96561e-06 0)
(0.0785012 3.15247e-06 0)
(0.085077 2.44948e-06 0)
(0.0916258 1.84611e-06 0)
(0.0981451 1.33572e-06 0)
(0.104632 9.15561e-07 0)
(0.111085 5.85475e-07 0)
(0.117499 3.44393e-07 0)
(0.123871 1.85308e-07 0)
(0.130198 9.26242e-08 0)
(0.136475 4.53015e-08 0)
(0.142697 2.3604e-08 0)
(0.148859 1.40319e-08 0)
(0.154956 9.64665e-09 0)
(0.160983 7.49722e-09 0)
(0.166933 6.37651e-09 0)
(0.1728 5.7622e-09 0)
(0.178636 5.39779e-09 0)
(0.184484 5.14359e-09 0)
(0.190332 4.9344e-09 0)
(0.19616 4.76033e-09 0)
(0.201943 4.60639e-09 0)
(0.207652 4.4325e-09 0)
(0.213247 4.23345e-09 0)
(0.218673 4.04108e-09 0)
(0.223853 3.85561e-09 0)
(0.228673 3.6483e-09 0)
(0.232953 3.31364e-09 0)
(0.235911 3.44898e-09 0)
(0.236691 2.48494e-09 0)
(0.236857 3.39801e-09 0)
(0.236982 1.63875e-09 0)
(0.237096 3.36686e-09 0)
(0.237199 7.82021e-10 0)
(0.237293 3.40608e-09 0)
(0.237377 -2.77892e-11 0)
(0.237454 3.52812e-09 0)
(0.237523 -8.76285e-10 0)
(0.237585 3.77255e-09 0)
(0.237641 -1.7311e-09 0)
(0.237691 4.13168e-09 0)
(0.237735 -2.61373e-09 0)
(0.237775 4.57651e-09 0)
(0.23781 -3.49955e-09 0)
(0.237841 5.11951e-09 0)
(0.237869 -4.41087e-09 0)
(0.237893 5.74948e-09 0)
(0.237915 -5.33438e-09 0)
(0.237933 6.4488e-09 0)
(0.23795 -6.27004e-09 0)
(0.237964 7.21577e-09 0)
(0.237976 -7.22482e-09 0)
(0.237987 8.03923e-09 0)
(0.237996 -8.1977e-09 0)
(0.238004 8.91469e-09 0)
(0.238011 -9.18894e-09 0)
(0.238016 9.91538e-09 0)
(0.238021 -1.01375e-08 0)
(0.238026 1.18361e-08 0)
(0.238029 -1.23697e-08 0)
(0.238032 1.29069e-08 0)
(0.238035 -1.34738e-08 0)
(0.238037 1.40444e-08 0)
(0.238039 -1.46444e-08 0)
(0.23804 1.52483e-08 0)
(0.238041 -1.58811e-08 0)
(0.238042 1.65182e-08 0)
(0.238043 -1.71835e-08 0)
(0.238044 1.78536e-08 0)
(0.238044 -1.85514e-08 0)
(0.238045 1.92545e-08 0)
(0.238045 -1.99845e-08 0)
(0.238045 2.07205e-08 0)
(0.238045 -2.14827e-08 0)
(0.238046 2.22516e-08 0)
(0.238046 -2.30456e-08 0)
(0.238046 2.38474e-08 0)
(0.238046 -2.46732e-08 0)
(0.238046 2.55076e-08 0)
(0.238046 -2.63652e-08 0)
(0.238046 2.72321e-08 0)
(0.238046 -2.81214e-08 0)
(0.238046 2.90205e-08 0)
(0.238046 -2.99413e-08 0)
(0.238046 3.08724e-08 0)
(0.238046 -3.18245e-08 0)
(0.238046 3.27872e-08 0)
(0.238046 -3.37703e-08 0)
(0.238046 3.47643e-08 0)
(0.238046 -3.57778e-08 0)
(0.238046 3.68025e-08 0)
(0.238046 -3.7846e-08 0)
(0.238046 3.89007e-08 0)
(0.238046 -3.99734e-08 0)
(0.238046 4.10572e-08 0)
(0.238046 -4.21582e-08 0)
(0.238046 4.32699e-08 0)
(0.238046 -4.43978e-08 0)
(0.238046 4.55361e-08 0)
(0.238046 -4.66893e-08 0)
(0.238046 4.78521e-08 0)
(0.238046 -4.90282e-08 0)
(0.238046 5.02128e-08 0)
(0.238046 -5.14086e-08 0)
(0.238046 5.2611e-08 0)
(0.238046 -5.38213e-08 0)
(0.238046 5.50349e-08 0)
(0.238046 -5.62506e-08 0)
(0.238046 5.74604e-08 0)
(0.238046 -5.86217e-08 0)
(0.238046 5.97573e-08 0)
(0.238046 -6.08953e-08 0)
(0.238046 6.20401e-08 0)
(0.238046 -6.31951e-08 0)
(0.238046 6.43613e-08 0)
(0.238046 -6.55405e-08 0)
(0.238046 6.67331e-08 0)
(0.238046 -6.79404e-08 0)
(0.238046 6.91627e-08 0)
(0.238046 -7.04008e-08 0)
(0.238046 7.16551e-08 0)
(0.238046 -7.29264e-08 0)
(0.238046 7.42149e-08 0)
(0.238046 -7.55214e-08 0)
(0.238046 7.6846e-08 0)
(0.238046 -7.81896e-08 0)
(0.238046 6.97779e-08 0)
(0.238046 -6.95516e-08 0)
(0.238046 6.93209e-08 0)
(0.238046 -6.90868e-08 0)
(0.238046 6.8849e-08 0)
(0.238046 -6.86084e-08 0)
(0.238046 6.83648e-08 0)
(0.238046 -6.8119e-08 0)
(0.238046 6.78709e-08 0)
(0.238046 -6.76212e-08 0)
(0.238046 6.73697e-08 0)
(0.238046 -6.71172e-08 0)
(0.238046 6.68634e-08 0)
(0.238046 -6.66092e-08 0)
(0.238046 6.63541e-08 0)
(0.238046 -6.60992e-08 0)
(0.238046 6.58439e-08 0)
(0.238046 -6.55894e-08 0)
(0.238046 6.53346e-08 0)
(0.238046 -6.50817e-08 0)
(0.238046 6.48283e-08 0)
(0.238046 -6.4578e-08 0)
(0.238046 6.4327e-08 0)
(0.238046 -6.40803e-08 0)
(0.238046 6.38326e-08 0)
(0.238046 -6.35905e-08 0)
(0.238046 6.33473e-08 0)
(0.238046 -6.31108e-08 0)
(0.238046 6.28731e-08 0)
(0.238046 -6.26432e-08 0)
(0.238046 6.24123e-08 0)
(0.238046 -6.21901e-08 0)
(0.238046 6.19672e-08 0)
(0.238046 -6.17538e-08 0)
(0.238046 6.15404e-08 0)
(0.238046 -6.1337e-08 0)
(0.238046 6.11344e-08 0)
(0.238046 -6.09426e-08 0)
(0.238046 6.07525e-08 0)
(0.238046 -6.05737e-08 0)
(0.238046 6.03983e-08 0)
(0.238046 -6.02343e-08 0)
(0.238046 6.0076e-08 0)
(0.238046 -5.99291e-08 0)
(0.238046 5.97907e-08 0)
(0.238046 -5.96642e-08 0)
(0.238046 5.95501e-08 0)
(0.238046 -5.94492e-08 0)
(0.238046 5.93675e-08 0)
(0.238046 -5.93055e-08 0)
)
;

boundaryField
{
    inandouthalf11
    {
        type            cyclic;
    }
    inandouthalf12
    {
        type            cyclic;
    }
    inandouthalf21
    {
        type            cyclic;
    }
    inandouthalf22
    {
        type            cyclic;
    }
    inandouthalf31
    {
        type            cyclic;
    }
    inandouthalf32
    {
        type            cyclic;
    }
    inandouthalf41
    {
        type            cyclic;
    }
    inandouthalf42
    {
        type            cyclic;
    }
    top
    {
        type            symmetryPlane;
    }
    walls
    {
        type            fixedValue;
        value           uniform (0 0 0);
    }
    frontAndBackPlanes
    {
        type            empty;
    }
}


// ************************************************************************* //
