/*--------------------------------*- C++ -*----------------------------------*\
| =========                 |                                                 |
| \\      /  F ield         | OpenFOAM: The Open Source CFD Toolbox           |
|  \\    /   O peration     | Version:  2.4.x                                 |
|   \\  /    A nd           | Web:      www.OpenFOAM.org                      |
|    \\/     M anipulation  |                                                 |
\*---------------------------------------------------------------------------*/
FoamFile
{
    version     2.0;
    format      ascii;
    class       volVectorField;
    location    "3";
    object      Ur;
}
// * * * * * * * * * * * * * * * * * * * * * * * * * * * * * * * * * * * * * //

dimensions      [0 1 -1 0 0 0 0];

internalField   nonuniform List<vector> 
360
(
(-0.000274418 1.08686e-07 0)
(-0.000274363 9.03794e-07 0)
(-0.00027406 2.21084e-06 0)
(-0.000274019 3.52702e-06 0)
(-0.000274055 4.73246e-06 0)
(-0.000274119 5.87151e-06 0)
(-0.00027421 7.04075e-06 0)
(-0.000274307 8.33147e-06 0)
(-0.000274389 9.80729e-06 0)
(-0.000274469 1.15059e-05 0)
(-0.000274559 1.34461e-05 0)
(-0.000274663 1.56066e-05 0)
(-0.000274778 1.78768e-05 0)
(-0.000274887 2.00236e-05 0)
(-0.000274976 2.17629e-05 0)
(-0.000275035 2.29338e-05 0)
(-0.000275069 2.35915e-05 0)
(-0.000275085 2.39144e-05 0)
(-0.000275093 2.40658e-05 0)
(-0.000275098 2.41417e-05 0)
(-0.0002751 2.41862e-05 0)
(-0.000275104 2.42184e-05 0)
(-0.000275107 2.42465e-05 0)
(-0.000275111 2.42749e-05 0)
(-0.000275114 2.43058e-05 0)
(-0.000275118 2.43401e-05 0)
(-0.000275123 2.43779e-05 0)
(-0.000275129 2.44185e-05 0)
(-0.000275135 2.44607e-05 0)
(-0.000275142 2.45035e-05 0)
(-0.000275148 2.4546e-05 0)
(-0.000275157 2.45878e-05 0)
(-0.000275163 2.46287e-05 0)
(-0.000275174 2.4669e-05 0)
(-0.000275182 2.47087e-05 0)
(-0.000275193 2.47482e-05 0)
(-0.000275203 2.47877e-05 0)
(-0.000275215 2.48272e-05 0)
(-0.00027523 2.48671e-05 0)
(-0.000275242 2.49073e-05 0)
(-0.000275259 2.49479e-05 0)
(-0.000275276 2.49888e-05 0)
(-0.000275292 2.50299e-05 0)
(-0.000275313 2.50716e-05 0)
(-0.000275333 2.51135e-05 0)
(-0.000275356 2.5156e-05 0)
(-0.00027538 2.51989e-05 0)
(-0.000275404 2.52423e-05 0)
(-0.000275433 2.52864e-05 0)
(-0.000275464 2.53314e-05 0)
(-0.000275496 2.53773e-05 0)
(-0.000275531 2.54243e-05 0)
(-0.000275568 2.54724e-05 0)
(-0.000275608 2.55219e-05 0)
(-0.000275649 2.55728e-05 0)
(-0.000275695 2.56255e-05 0)
(-0.000275742 2.56797e-05 0)
(-0.000275794 2.5736e-05 0)
(-0.000275847 2.57943e-05 0)
(-0.000275902 2.58544e-05 0)
(-0.000275962 2.59167e-05 0)
(-0.000276022 2.59809e-05 0)
(-0.000276086 2.60468e-05 0)
(-0.00027615 2.61142e-05 0)
(-0.000276216 2.61829e-05 0)
(-0.000276284 2.62526e-05 0)
(-0.000276353 2.63235e-05 0)
(-0.000276426 2.63956e-05 0)
(-0.0002765 2.64693e-05 0)
(-0.000276577 2.6545e-05 0)
(-0.000276659 2.66233e-05 0)
(-0.000276744 2.67047e-05 0)
(-0.00027683 2.67897e-05 0)
(-0.000276921 2.68786e-05 0)
(-0.000277013 2.69713e-05 0)
(-0.000277107 2.7068e-05 0)
(-0.000277203 2.7168e-05 0)
(-0.000277301 2.7271e-05 0)
(-0.000277401 2.73765e-05 0)
(-0.000277503 2.74842e-05 0)
(-0.000277608 2.75937e-05 0)
(-0.000277715 2.77052e-05 0)
(-0.000277826 2.78187e-05 0)
(-0.00027794 2.79344e-05 0)
(-0.000278056 2.80526e-05 0)
(-0.000278176 2.81736e-05 0)
(-0.000278298 2.82974e-05 0)
(-0.000278423 2.84239e-05 0)
(-0.00027855 2.85531e-05 0)
(-0.00027868 2.86846e-05 0)
(-0.000278812 2.88181e-05 0)
(-0.000278948 2.89535e-05 0)
(-0.000279086 2.90905e-05 0)
(-0.000279228 2.9229e-05 0)
(-0.000279374 2.93688e-05 0)
(-0.000279522 2.95101e-05 0)
(-0.000279675 2.96528e-05 0)
(-0.000279831 2.97968e-05 0)
(-0.00027999 2.99423e-05 0)
(-0.000280153 3.00891e-05 0)
(-0.000280321 3.02373e-05 0)
(-0.000280492 3.03867e-05 0)
(-0.000280667 3.05374e-05 0)
(-0.000280847 3.06893e-05 0)
(-0.000281031 3.08422e-05 0)
(-0.00028122 3.09962e-05 0)
(-0.000281414 3.11511e-05 0)
(-0.000281613 3.13068e-05 0)
(-0.000281817 3.1463e-05 0)
(-0.000282027 3.16197e-05 0)
(-0.000282242 3.17766e-05 0)
(-0.000282463 3.19335e-05 0)
(-0.000282691 3.20902e-05 0)
(-0.000282925 3.22465e-05 0)
(-0.000283166 3.24021e-05 0)
(-0.000283415 3.25571e-05 0)
(-0.000283671 3.27113e-05 0)
(-0.000283935 3.28648e-05 0)
(-0.000284207 3.30178e-05 0)
(-0.000284489 3.31708e-05 0)
(-0.00028478 3.33243e-05 0)
(-0.000285081 3.34793e-05 0)
(-0.000285392 3.36367e-05 0)
(-0.000285714 3.37982e-05 0)
(-0.000286047 3.39653e-05 0)
(-0.000286393 3.41404e-05 0)
(-0.000286751 3.43258e-05 0)
(-0.000287124 3.45245e-05 0)
(-0.000287511 3.47394e-05 0)
(-0.000287915 3.49737e-05 0)
(-0.000288335 3.52298e-05 0)
(-0.000288772 3.5509e-05 0)
(-0.000289228 3.58112e-05 0)
(-0.000289707 3.6135e-05 0)
(-0.000290217 3.64771e-05 0)
(-0.000290755 3.68307e-05 0)
(-0.000291317 3.71838e-05 0)
(-0.000291912 3.75212e-05 0)
(-0.000292568 3.78282e-05 0)
(-0.000293321 3.80911e-05 0)
(-0.000294138 3.82904e-05 0)
(-0.000294913 3.84002e-05 0)
(-0.00029584 3.84325e-05 0)
(-0.000297058 3.84137e-05 0)
(-0.000298556 3.83475e-05 0)
(-0.000300932 3.80231e-05 0)
(-0.000310281 4.0718e-05 0)
(-0.00031071 5.30472e-05 0)
(-0.00031645 5.91366e-05 0)
(-0.000736927 0.000159488 0)
(-0.0153986 0.00366418 0)
(-0.0108398 0.00705745 0)
(-0.00867165 0.0117735 0)
(-0.00787276 0.0152158 0)
(-0.00768512 0.0177357 0)
(-0.00773335 0.0192924 0)
(-0.00786704 0.0202166 0)
(-0.00802194 0.0207241 0)
(-0.00817131 0.0209354 0)
(-0.00830422 0.0209299 0)
(-0.00841621 0.0207639 0)
(-0.00850531 0.0204769 0)
(-0.00857023 0.0200975 0)
(-0.00860951 0.0196469 0)
(-0.00862109 0.0191408 0)
(-0.00860217 0.0185914 0)
(-0.00854905 0.0180081 0)
(-0.00845713 0.0173985 0)
(-0.00832086 0.0167688 0)
(-0.0081338 0.0161242 0)
(-0.00788858 0.0154693 0)
(-0.00757705 0.0148085 0)
(-0.00719032 0.0141458 0)
(-0.00671889 0.0134854 0)
(-0.00615285 0.0128311 0)
(-0.00548205 0.0121865 0)
(-0.00469631 0.011554 0)
(-0.00378572 0.010934 0)
(-0.00274081 0.0103246 0)
(-0.00155276 0.00972062 0)
(-0.000213561 0.00911488 0)
(0.00128403 0.00849873 0)
(0.00294649 0.00786386 0)
(0.00477981 0.00720391 0)
(0.00678977 0.00651574 0)
(0.00898219 0.00580009 0)
(0.011363 0.00506191 0)
(0.0139377 0.00431089 0)
(0.0167111 0.00356228 0)
(0.0196855 0.00283798 0)
(0.0228595 0.0021664 0)
(0.0262254 0.00157937 0)
(0.0297671 0.00110401 0)
(0.0334594 0.000752356 0)
(0.0372701 0.000516111 0)
(0.0411655 0.000371906 0)
(0.0451163 0.000292622 0)
(0.0491014 0.000255811 0)
(0.0531061 0.000246167 0)
(0.0571194 0.000254402 0)
(0.0611318 0.000274994 0)
(0.065175 0.000304589 0)
(0.0692759 0.000341383 0)
(0.0734146 0.000384623 0)
(0.0775679 0.000433823 0)
(0.0817146 0.000487601 0)
(0.0858234 0.00054514 0)
(0.0898458 0.000606959 0)
(0.093727 0.00067267 0)
(0.0973965 0.000740949 0)
(0.100736 0.000811557 0)
(0.103564 0.000884399 0)
(0.10511 0.000958429 0)
(0.1045 0.00103319 0)
(0.103288 0.00110893 0)
(0.102061 0.00118538 0)
(0.100842 0.00126297 0)
(0.0996235 0.00134266 0)
(0.0984131 0.00142398 0)
(0.0972138 0.00150673 0)
(0.0960156 0.001592 0)
(0.0948192 0.00167994 0)
(0.0936263 0.00177056 0)
(0.0924376 0.00186409 0)
(0.0912565 0.00196038 0)
(0.0900739 0.00206052 0)
(0.0888884 0.00216517 0)
(0.0877093 0.0022735 0)
(0.0865286 0.00238678 0)
(0.0853458 0.00250564 0)
(0.0841661 0.00262982 0)
(0.0829857 0.00276043 0)
(0.0818055 0.00289809 0)
(0.08063 0.00304296 0)
(0.079463 0.00319543 0)
(0.0783029 0.00335683 0)
(0.0771538 0.00352811 0)
(0.0760243 0.00370912 0)
(0.0749051 0.00390443 0)
(0.073839 0.00411132 0)
(0.0729983 0.00428827 0)
(0.0721966 0.0044809 0)
(-0.00519246 0.0394714 0)
(-0.00519242 0.0394713 0)
(-0.00519227 0.0394713 0)
(-0.00519218 0.0394713 0)
(-0.00519209 0.0394713 0)
(-0.00519202 0.0394713 0)
(-0.00519196 0.0394713 0)
(-0.00519192 0.0394713 0)
(-0.00519188 0.0394713 0)
(-0.00519185 0.0394713 0)
(-0.00519182 0.0394713 0)
(-0.0051918 0.0394713 0)
(-0.00519178 0.0394713 0)
(-0.00519177 0.0394713 0)
(-0.00519176 0.0394713 0)
(-0.00519175 0.0394713 0)
(-0.00519174 0.0394713 0)
(-0.00519174 0.0394713 0)
(-0.00519173 0.0394713 0)
(-0.00519173 0.0394713 0)
(-0.00519173 0.0394713 0)
(-0.00519173 0.0394713 0)
(-0.00519173 0.0394713 0)
(-0.00519173 0.0394713 0)
(-0.00519172 0.0394713 0)
(-0.00519172 0.0394713 0)
(-0.00519172 0.0394713 0)
(-0.00519172 0.0394713 0)
(-0.00519172 0.0394713 0)
(-0.00519172 0.0394713 0)
(-0.00519172 0.0394713 0)
(-0.00519172 0.0394713 0)
(-0.00519172 0.0394713 0)
(-0.00519172 0.0394713 0)
(-0.00519172 0.0394713 0)
(-0.00519172 0.0394713 0)
(-0.00519172 0.0394713 0)
(-0.00519172 0.0394713 0)
(-0.00519172 0.0394713 0)
(-0.00519172 0.0394713 0)
(-0.00519172 0.0394714 0)
(-0.00519172 0.0394713 0)
(-0.00519172 0.0394714 0)
(-0.00519172 0.0394713 0)
(-0.00519172 0.0394714 0)
(-0.00519172 0.0394713 0)
(-0.00519172 0.0394714 0)
(-0.00519172 0.0394713 0)
(-0.00519172 0.0394714 0)
(-0.00519172 0.0394713 0)
(-0.00519172 0.0394714 0)
(-0.00519172 0.0394713 0)
(-0.00519172 0.0394714 0)
(-0.00519172 0.0394713 0)
(-0.00519172 0.0394714 0)
(-0.00519172 0.0394713 0)
(-0.00519172 0.0394714 0)
(-0.00519172 0.0394713 0)
(-0.00519172 0.0394714 0)
(-0.00519172 0.0394713 0)
(-0.00519172 0.0394714 0)
(-0.00519172 0.0394713 0)
(-0.00519172 0.0394714 0)
(-0.00519172 0.0394713 0)
(-0.00519172 0.0394714 0)
(-0.00519172 0.0394713 0)
(-0.00519172 0.0394714 0)
(-0.00519172 0.0394713 0)
(-0.00519172 0.0394714 0)
(-0.00519172 0.0394713 0)
(-0.00519172 0.0394714 0)
(-0.00519172 0.0394713 0)
(-0.00519172 0.0394714 0)
(-0.00519172 0.0394713 0)
(-0.00519172 0.0394714 0)
(-0.00519172 0.0394713 0)
(-0.00519172 0.0394714 0)
(-0.00519172 0.0394713 0)
(-0.00519172 0.0394714 0)
(-0.00519172 0.0394713 0)
(-0.00519172 0.0394714 0)
(-0.00519172 0.0394713 0)
(-0.00519172 0.0394714 0)
(-0.00519172 0.0394713 0)
(-0.00519172 0.0394714 0)
(-0.00519172 0.0394713 0)
(-0.00519172 0.0394714 0)
(-0.00519172 0.0394713 0)
(-0.00519172 0.0394714 0)
(-0.00519172 0.0394713 0)
(-0.00519172 0.0394714 0)
(-0.00519172 0.0394713 0)
(-0.00519172 0.0394714 0)
(-0.00519172 0.0394713 0)
(-0.00519172 0.0394714 0)
(-0.00519172 0.0394713 0)
(-0.00519172 0.0394714 0)
(-0.00519172 0.0394713 0)
(-0.00519172 0.0394714 0)
(-0.00519172 0.0394713 0)
(-0.00519172 0.0394714 0)
(-0.00519172 0.0394713 0)
(-0.00519172 0.0394714 0)
(-0.00519172 0.0394713 0)
(-0.00519172 0.0394714 0)
(-0.00519172 0.0394713 0)
(-0.00519172 0.0394714 0)
(-0.00519172 0.0394713 0)
(-0.00519172 0.0394714 0)
(-0.00519172 0.0394713 0)
(-0.00519172 0.0394714 0)
(-0.00519172 0.0394713 0)
(-0.00519172 0.0394714 0)
(-0.00519172 0.0394713 0)
(-0.00519178 0.0394711 0)
(-0.00519322 0.0394625 0)
(-0.00522838 0.0391162 0)
(-0.00604138 0.0223466 0)
)
;

boundaryField
{
    inandouthalf11
    {
        type            cyclic;
    }
    inandouthalf12
    {
        type            cyclic;
    }
    inandouthalf21
    {
        type            cyclic;
    }
    inandouthalf22
    {
        type            cyclic;
    }
    inandouthalf31
    {
        type            cyclic;
    }
    inandouthalf32
    {
        type            cyclic;
    }
    inandouthalf41
    {
        type            cyclic;
    }
    inandouthalf42
    {
        type            cyclic;
    }
    top
    {
        type            symmetryPlane;
    }
    walls
    {
        type            calculated;
        value           uniform (0 0 0);
    }
    frontAndBackPlanes
    {
        type            empty;
    }
}


// ************************************************************************* //
