/*--------------------------------*- C++ -*----------------------------------*\
| =========                 |                                                 |
| \\      /  F ield         | OpenFOAM: The Open Source CFD Toolbox           |
|  \\    /   O peration     | Version:  2.4.x                                 |
|   \\  /    A nd           | Web:      www.OpenFOAM.org                      |
|    \\/     M anipulation  |                                                 |
\*---------------------------------------------------------------------------*/
FoamFile
{
    version     2.0;
    format      ascii;
    class       volScalarField;
    location    "12.2";
    object      alpha;
}
// * * * * * * * * * * * * * * * * * * * * * * * * * * * * * * * * * * * * * //

dimensions      [0 0 0 0 0 0 0];

internalField   nonuniform List<scalar> 
360
(
0.610895
0.611764
0.611853
0.611763
0.611721
0.611708
0.611691
0.611669
0.611647
0.611624
0.611601
0.611578
0.611555
0.611531
0.611508
0.611484
0.61146
0.611435
0.611411
0.611386
0.611361
0.611336
0.61131
0.611284
0.611258
0.611232
0.611205
0.611178
0.611151
0.611123
0.611095
0.611067
0.611039
0.61101
0.610981
0.610952
0.610922
0.610892
0.610862
0.610832
0.6108
0.610769
0.610738
0.610705
0.610673
0.61064
0.610607
0.610574
0.61054
0.610505
0.610471
0.610435
0.6104
0.610364
0.610328
0.61029
0.610253
0.610215
0.610177
0.610138
0.610099
0.610059
0.610019
0.609978
0.609937
0.609895
0.609852
0.609809
0.609765
0.609721
0.609676
0.60963
0.609585
0.609537
0.60949
0.609441
0.609393
0.609343
0.609292
0.609241
0.609189
0.609136
0.609082
0.609027
0.608972
0.608915
0.608857
0.608799
0.608739
0.608679
0.608617
0.608554
0.60849
0.608425
0.608359
0.608291
0.608222
0.608151
0.608079
0.608006
0.607931
0.607855
0.607776
0.607696
0.607615
0.607531
0.607446
0.607358
0.607268
0.607177
0.607082
0.606986
0.606887
0.606785
0.606681
0.606574
0.606464
0.606351
0.606234
0.606114
0.605991
0.605863
0.605732
0.605596
0.605455
0.60531
0.60516
0.605004
0.604842
0.604674
0.604499
0.604317
0.604127
0.603926
0.603713
0.603485
0.603244
0.602987
0.602702
0.602378
0.602028
0.601615
0.598783
0.599204
0.598689
0.597837
0.594536
0.433463
0.285136
0.227628
0.1915
0.161238
0.134969
0.112026
0.0922105
0.0753807
0.0613267
0.0497567
0.0403315
0.0327062
0.0265601
0.021613
0.0176291
0.0144157
0.0118175
0.00971073
0.00799725
0.00659926
0.00545515
0.00451601
0.00374291
0.00310473
0.00257641
0.00213749
0.00177101
0.00146319
0.00120363
0.000985567
0.000804915
0.000658373
0.000541882
0.000450459
0.000378949
0.00032276
0.000278178
0.000242365
0.000213209
0.000189154
0.000169053
0.000152054
0.000137519
0.000124966
0.000114025
0.000104408
9.58916e-05
8.82978e-05
8.14844e-05
7.53369e-05
6.97622e-05
6.46839e-05
6.00392e-05
5.57327e-05
5.16931e-05
4.78991e-05
4.43324e-05
4.09774e-05
3.7821e-05
3.4852e-05
3.20608e-05
2.94391e-05
2.69794e-05
2.46748e-05
2.25188e-05
2.05051e-05
1.86272e-05
1.6879e-05
1.52542e-05
1.37469e-05
1.23511e-05
1.10613e-05
9.87235e-06
8.7794e-06
7.77781e-06
6.86306e-06
6.0305e-06
5.27482e-06
4.58923e-06
3.96448e-06
3.38871e-06
2.84942e-06
2.34047e-06
1.87502e-06
1.49263e-06
1.22992e-06
1.06351e-06
9.21821e-07
7.92834e-07
6.40463e-07
5.11087e-07
4.05813e-07
3.20247e-07
2.50822e-07
1.94661e-07
1.49404e-07
1.13115e-07
8.41869e-08
6.13142e-08
4.33561e-08
2.9337e-08
1.88423e-08
1.03169e-08
4.90575e-09
1.89498e-10
4.60204e-22
5.61768e-34
4.43552e-46
3.36844e-58
1.52216e-69
5.74246e-75
2.98084e-75
1.48873e-75
7.49492e-76
3.70619e-76
1.807e-76
8.66822e-77
4.0891e-77
1.89597e-77
8.63596e-78
3.86213e-78
1.69484e-78
7.29374e-79
3.07623e-79
1.2707e-79
5.13706e-80
2.031e-80
7.84667e-81
2.95987e-81
1.08914e-81
3.90568e-82
1.36355e-82
4.62869e-83
1.52615e-83
4.8819e-84
1.51305e-84
4.53688e-85
1.31409e-85
3.67044e-86
9.86808e-87
2.54854e-87
6.30857e-88
1.4931e-88
3.36971e-89
7.22981e-90
1.46969e-90
2.81989e-91
5.08462e-92
8.57322e-93
1.34394e-93
1.94545e-94
2.5797e-95
3.10307e-96
3.34548e-97
3.18391e-98
2.62217e-99
1.81882e-100
1.02182e-101
4.37257e-103
1.27554e-104
1.94684e-106
1.69645e-109
6.58446e-117
3.64743e-119
9.98558e-122
4.49515e-132
1.03644e-142
1.80823e-153
2.30413e-164
2.57194e-175
2.22135e-186
1.64861e-197
2.14558e-208
7.93685e-219
3.86561e-227
2.12601e-237
1.32924e-245
8.66331e-256
4.57792e-264
3.65738e-274
1.57967e-282
2.35221e-292
5.63314e-301
1.56614e-310
1.53681e-318
6.60072e-321
7.96928e-321
7.83094e-321
2.51973e-321
8.86848e-321
4.57737e-319
2.8055e-319
6.80328e-321
7.09478e-321
6.08689e-321
8.5424e-321
0
0
0
0
0
0
0
0
0
0
0
0
0
0
0
0
)
;

boundaryField
{
    inandouthalf11
    {
        type            cyclic;
    }
    inandouthalf12
    {
        type            cyclic;
    }
    inandouthalf21
    {
        type            cyclic;
    }
    inandouthalf22
    {
        type            cyclic;
    }
    inandouthalf31
    {
        type            cyclic;
    }
    inandouthalf32
    {
        type            cyclic;
    }
    inandouthalf41
    {
        type            cyclic;
    }
    inandouthalf42
    {
        type            cyclic;
    }
    top
    {
        type            symmetryPlane;
    }
    walls
    {
        type            zeroGradient;
    }
    frontAndBackPlanes
    {
        type            empty;
    }
}


// ************************************************************************* //
