/*--------------------------------*- C++ -*----------------------------------*\
| =========                 |                                                 |
| \\      /  F ield         | OpenFOAM: The Open Source CFD Toolbox           |
|  \\    /   O peration     | Version:  2.4.x                                 |
|   \\  /    A nd           | Web:      www.OpenFOAM.org                      |
|    \\/     M anipulation  |                                                 |
\*---------------------------------------------------------------------------*/
FoamFile
{
    version     2.0;
    format      ascii;
    class       volScalarField;
    location    "12.2";
    object      ddt0(((1.5*(alpha+1e-08))*rho),Theta);
}
// * * * * * * * * * * * * * * * * * * * * * * * * * * * * * * * * * * * * * //

dimensions      [1 -1 -3 0 0 0 0];

internalField   nonuniform List<scalar> 
360
(
-6.13892e-24
-1.5907e-23
-1.20807e-23
-1.1935e-23
-1.36193e-23
-1.4972e-23
-1.58834e-23
-1.67736e-23
-1.77569e-23
-1.87971e-23
-1.98424e-23
-2.0844e-23
-2.17676e-23
-2.25907e-23
-2.32969e-23
-2.38721e-23
-2.42987e-23
-2.45609e-23
-2.46528e-23
-2.45719e-23
-2.43183e-23
-2.39024e-23
-2.33358e-23
-2.26303e-23
-2.18027e-23
-2.08702e-23
-1.98545e-23
-1.87785e-23
-1.76596e-23
-1.65162e-23
-1.53697e-23
-1.42359e-23
-1.31296e-23
-1.20654e-23
-1.10518e-23
-1.00965e-23
-9.20779e-24
-8.39091e-24
-7.64622e-24
-6.97405e-24
-6.37623e-24
-5.84911e-24
-5.38985e-24
-4.99681e-24
-4.66503e-24
-4.39016e-24
-4.16701e-24
-3.99093e-24
-3.85911e-24
-3.76635e-24
-3.70744e-24
-3.67866e-24
-3.67674e-24
-3.69761e-24
-3.73835e-24
-3.79587e-24
-3.86735e-24
-3.95026e-24
-4.04197e-24
-4.1409e-24
-4.24616e-24
-4.35594e-24
-4.46873e-24
-4.58302e-24
-4.69723e-24
-4.81102e-24
-4.92396e-24
-5.03473e-24
-5.14158e-24
-5.24507e-24
-5.34723e-24
-5.44544e-24
-5.53805e-24
-5.62689e-24
-5.71258e-24
-5.79306e-24
-5.86661e-24
-5.93377e-24
-5.99574e-24
-6.05176e-24
-6.1016e-24
-6.14615e-24
-6.18604e-24
-6.22077e-24
-6.2501e-24
-6.27375e-24
-6.29126e-24
-6.30194e-24
-6.30585e-24
-6.30342e-24
-6.29518e-24
-6.28151e-24
-6.26333e-24
-6.24087e-24
-6.21432e-24
-6.18338e-24
-6.14817e-24
-6.1087e-24
-6.06501e-24
-6.01755e-24
-5.96687e-24
-5.91352e-24
-5.85816e-24
-5.80147e-24
-5.74387e-24
-5.68594e-24
-5.62808e-24
-5.57096e-24
-5.51473e-24
-5.45997e-24
-5.40645e-24
-5.35458e-24
-5.30389e-24
-5.25368e-24
-5.20343e-24
-5.15184e-24
-5.09767e-24
-5.03934e-24
-4.97553e-24
-4.90503e-24
-4.82717e-24
-4.74209e-24
-4.65121e-24
-4.55746e-24
-4.46567e-24
-4.38244e-24
-4.31636e-24
-4.27653e-24
-4.27058e-24
-4.30258e-24
-4.36938e-24
6.81277e-24
1.12597e-16
5.98411e-16
2.77446e-15
1.12779e-14
3.40892e-14
-2.19225e-14
-2.01754e-12
-3.28968e-11
-4.90437e-10
-7.95928e-09
-1.52025e-07
-3.84076e-06
-0.000278409
-0.0141367
-0.196191
-1.0917
-0.992302
-0.57934
-0.410773
-0.314171
-0.241133
-0.180739
-0.130576
-0.0897075
-0.0571242
-0.0315577
-0.0117904
0.00322704
0.0143601
0.0223091
0.027642
0.0308638
0.0323849
0.0325759
0.0317553
0.0301933
0.0281194
0.0257227
0.0231581
0.0205481
0.0179869
0.0155426
0.0132601
0.0111673
0.00928481
0.00763196
0.00622466
0.00506466
0.00413389
0.00339891
0.00282127
0.00236545
0.00200242
0.00170989
0.00147126
0.00127429
0.00110993
0.000971444
0.000853758
0.00075299
0.000666138
0.000590845
0.000525241
0.000467822
0.000417368
0.00037288
0.000333532
0.000298637
0.000267618
0.000239716
0.000214368
0.000191358
0.000170491
0.000151588
0.00013449
0.000119049
0.000105132
9.26145e-05
8.1381e-05
7.13227e-05
6.23381e-05
5.43317e-05
4.72142e-05
4.09018e-05
3.53163e-05
3.03859e-05
2.60449e-05
2.22333e-05
1.88833e-05
1.59597e-05
1.34147e-05
1.12079e-05
9.3013e-06
7.65937e-06
6.24845e-06
5.03555e-06
3.98904e-06
3.08207e-06
2.29971e-06
1.64736e-06
1.14583e-06
7.9543e-07
5.43586e-07
3.24427e-07
0
0
0
0
0
0
0
0
0
0
0
0
0
0
0
0
0
0
0
0
0
0
0
0
0
0
0
0
0
0
0
0
0
0
0
0
0
0
0
0
0
0
0
0
0
0
0
0
0
0
0
0
0
0
0
0
0
0
0
0
0
0
0
0
0
0
0
0
0
0
0
0
0
0
0
0
0
0
0
0
0
0
0
0
0
0
0
0
0
0
0
0
0
0
0
0
0
0
0
0
0
0
0
0
0
0
0
0
0
0
0
0
0
0
0
0
0
0
0
0
0
0
0
0
)
;

boundaryField
{
    inandouthalf11
    {
        type            cyclic;
    }
    inandouthalf12
    {
        type            cyclic;
    }
    inandouthalf21
    {
        type            cyclic;
    }
    inandouthalf22
    {
        type            cyclic;
    }
    inandouthalf31
    {
        type            cyclic;
    }
    inandouthalf32
    {
        type            cyclic;
    }
    inandouthalf41
    {
        type            cyclic;
    }
    inandouthalf42
    {
        type            cyclic;
    }
    top
    {
        type            symmetryPlane;
    }
    walls
    {
        type            calculated;
        value           uniform -6.13892e-24;
    }
    frontAndBackPlanes
    {
        type            empty;
    }
}


// ************************************************************************* //
