/*--------------------------------*- C++ -*----------------------------------*\
| =========                 |                                                 |
| \\      /  F ield         | OpenFOAM: The Open Source CFD Toolbox           |
|  \\    /   O peration     | Version:  2.4.x                                 |
|   \\  /    A nd           | Web:      www.OpenFOAM.org                      |
|    \\/     M anipulation  |                                                 |
\*---------------------------------------------------------------------------*/
FoamFile
{
    version     2.0;
    format      ascii;
    class       surfaceScalarField;
    location    "12.2";
    object      ddt0(phia);
}
// * * * * * * * * * * * * * * * * * * * * * * * * * * * * * * * * * * * * * //

dimensions      [0 3 -2 0 0 0 0];

internalField   nonuniform List<scalar> 
359
(
5.73581e-15
1.43806e-14
2.26981e-14
3.10767e-14
4.00347e-14
4.95197e-14
5.93939e-14
6.96126e-14
8.01671e-14
9.10476e-14
1.02226e-13
1.13655e-13
1.25285e-13
1.37056e-13
1.4891e-13
1.60786e-13
1.72623e-13
1.84358e-13
1.95928e-13
2.07277e-13
2.18347e-13
2.29088e-13
2.39455e-13
2.49408e-13
2.58913e-13
2.67942e-13
2.76475e-13
2.84499e-13
2.92004e-13
2.98989e-13
3.05458e-13
3.11421e-13
3.1689e-13
3.21885e-13
3.26426e-13
3.30539e-13
3.3425e-13
3.37588e-13
3.40584e-13
3.43267e-13
3.45671e-13
3.47825e-13
3.49761e-13
3.51508e-13
3.53096e-13
3.54552e-13
3.55903e-13
3.57174e-13
3.58387e-13
3.59565e-13
3.60729e-13
3.61895e-13
3.63082e-13
3.64304e-13
3.65574e-13
3.66906e-13
3.6831e-13
3.69795e-13
3.7137e-13
3.7304e-13
3.74813e-13
3.76693e-13
3.78684e-13
3.80789e-13
3.8301e-13
3.85348e-13
3.87804e-13
3.90378e-13
3.9307e-13
3.95876e-13
3.98799e-13
4.01835e-13
4.0498e-13
4.08234e-13
4.11593e-13
4.15056e-13
4.18616e-13
4.2227e-13
4.26014e-13
4.29844e-13
4.33755e-13
4.37744e-13
4.41806e-13
4.45937e-13
4.50133e-13
4.54388e-13
4.58699e-13
4.63059e-13
4.67464e-13
4.71909e-13
4.76388e-13
4.80897e-13
4.85431e-13
4.89987e-13
4.9456e-13
4.99146e-13
5.03741e-13
5.0834e-13
5.1294e-13
5.17536e-13
5.22125e-13
5.26704e-13
5.31269e-13
5.35818e-13
5.40348e-13
5.44859e-13
5.49348e-13
5.53814e-13
5.58257e-13
5.62676e-13
5.6707e-13
5.71439e-13
5.75783e-13
5.80099e-13
5.84387e-13
5.88643e-13
5.92864e-13
5.97046e-13
6.01182e-13
6.05265e-13
6.09288e-13
6.13244e-13
6.17126e-13
6.20931e-13
6.24658e-13
6.28311e-13
6.31903e-13
6.35451e-13
6.38979e-13
6.42513e-13
6.46071e-13
6.4966e-13
6.53259e-13
6.56804e-13
6.60164e-13
6.63128e-13
6.6546e-13
6.67026e-13
6.67891e-13
6.68277e-13
6.68445e-13
6.6841e-13
6.68868e-13
6.68962e-13
6.69051e-13
6.68828e-13
6.56552e-12
-1.03787e-09
-1.8497e-09
-2.29732e-09
-2.52703e-09
-2.66585e-09
-2.7677e-09
-2.87391e-09
-3.00745e-09
-3.23279e-09
-3.52656e-09
-3.94976e-09
-4.49393e-09
-5.16701e-09
-5.9609e-09
-6.86828e-09
-7.87555e-09
-8.96445e-09
-1.01086e-08
-1.12791e-08
-1.24361e-08
-1.35341e-08
-1.45151e-08
-1.53108e-08
-1.5837e-08
-1.59849e-08
-1.55939e-08
-1.44095e-08
-1.20722e-08
-8.22819e-09
-2.79381e-09
3.81197e-09
1.07581e-08
1.71985e-08
2.26076e-08
2.6827e-08
2.99362e-08
3.21166e-08
3.35677e-08
3.44686e-08
3.49659e-08
3.51744e-08
3.51816e-08
3.50535e-08
3.48395e-08
3.4576e-08
3.429e-08
3.40007e-08
3.3722e-08
3.34636e-08
3.32319e-08
3.30308e-08
3.28626e-08
3.27284e-08
3.26282e-08
3.25605e-08
3.25263e-08
3.25265e-08
3.25615e-08
3.26315e-08
3.27365e-08
3.28763e-08
3.30506e-08
3.32587e-08
3.34998e-08
3.37729e-08
3.40768e-08
3.44101e-08
3.47711e-08
3.51582e-08
3.55694e-08
3.60029e-08
3.64565e-08
3.69283e-08
3.74159e-08
3.79168e-08
3.8428e-08
3.89459e-08
3.94653e-08
3.99782e-08
4.04723e-08
4.09269e-08
4.1309e-08
4.15674e-08
4.16421e-08
4.13519e-08
4.0734e-08
4.00538e-08
3.93307e-08
3.80299e-08
3.19927e-08
2.72735e-08
2.36751e-08
2.0239e-08
1.69621e-08
1.38627e-08
1.09232e-08
8.10775e-09
5.371e-09
2.71849e-09
5.72908e-10
-2.0536e-09
-1.92468e-09
7.24631e-10
6.66218e-09
-1.41423e-07
-1.30475e-07
-5.05774e-09
1.63359e-09
4.6227e-11
1.28686e-10
9.49696e-11
6.72413e-11
3.81709e-11
9.33124e-12
-1.79979e-11
-4.23186e-11
-6.22104e-11
-7.79121e-11
-8.28125e-11
-8.18797e-11
-7.90776e-11
-6.9309e-11
-5.72079e-11
-4.42932e-11
-3.21379e-11
-2.19009e-11
-1.43764e-11
-1.00966e-11
-9.56908e-12
-1.37331e-11
-3.80735e-11
-6.42251e-11
-1.38008e-11
-6.80203e-12
-7.18612e-12
-7.19895e-12
-7.199e-12
-7.1991e-12
-7.19899e-12
-7.19909e-12
-7.19899e-12
-7.1991e-12
-7.19899e-12
-7.1991e-12
-7.19899e-12
-7.1991e-12
-7.19899e-12
-7.1991e-12
-7.19898e-12
-7.1991e-12
-7.199e-12
-7.1991e-12
-7.199e-12
-7.1991e-12
-7.199e-12
-7.1991e-12
-7.19901e-12
-7.1991e-12
-7.19901e-12
-7.1991e-12
-7.19901e-12
-7.1991e-12
-7.19902e-12
-7.1991e-12
-7.19902e-12
-7.19909e-12
-7.19902e-12
-7.19909e-12
-7.19903e-12
-7.19909e-12
-7.19903e-12
-7.19908e-12
-7.19902e-12
-7.19907e-12
-7.19902e-12
-7.19907e-12
-7.19902e-12
-7.19906e-12
-7.19902e-12
-7.19905e-12
-7.19897e-12
-7.19905e-12
-7.19902e-12
-7.19906e-12
-7.19903e-12
-7.19906e-12
-7.19904e-12
-7.19906e-12
-7.19904e-12
-7.19907e-12
-7.19904e-12
-7.19906e-12
-7.19904e-12
-7.19906e-12
-7.19904e-12
-7.19905e-12
-7.19904e-12
-7.19905e-12
-7.19903e-12
-7.19904e-12
-7.19903e-12
-7.19903e-12
-7.19902e-12
-7.19902e-12
-7.19902e-12
-7.19898e-12
-7.19903e-12
-7.19901e-12
-7.19922e-12
-7.20368e-12
-7.29993e-12
-1.15034e-11
)
;

boundaryField
{
    inandouthalf11
    {
        type            cyclic;
        value           nonuniform List<scalar> 
100
(
-6.88983e-39
-8.74536e-16
-1.84362e-15
-2.74646e-15
-3.70087e-15
-4.73028e-15
-5.81185e-15
-6.93483e-15
-8.09931e-15
-9.30618e-15
-1.05545e-14
-1.18415e-14
-1.31631e-14
-1.45143e-14
-1.58898e-14
-1.72841e-14
-1.86912e-14
-2.01051e-14
-2.15194e-14
-2.29279e-14
-2.43244e-14
-2.57032e-14
-2.70587e-14
-2.83861e-14
-2.96806e-14
-3.09384e-14
-3.2156e-14
-3.33306e-14
-3.446e-14
-3.55426e-14
-3.65775e-14
-3.75641e-14
-3.85026e-14
-3.93937e-14
-4.02382e-14
-4.10378e-14
-4.17939e-14
-4.25089e-14
-4.3185e-14
-4.38245e-14
-4.44302e-14
-4.50047e-14
-4.55508e-14
-4.60713e-14
-4.65688e-14
-4.70461e-14
-4.75059e-14
-4.79506e-14
-4.83827e-14
-4.88045e-14
-4.92182e-14
-4.9626e-14
-5.00296e-14
-5.04309e-14
-5.08316e-14
-5.12333e-14
-5.16372e-14
-5.20446e-14
-5.24567e-14
-5.28744e-14
-5.32987e-14
-5.37305e-14
-5.41703e-14
-5.46189e-14
-5.50768e-14
-5.55442e-14
-5.60217e-14
-5.65094e-14
-5.70076e-14
-5.75163e-14
-5.80356e-14
-5.85657e-14
-5.91065e-14
-5.9658e-14
-6.022e-14
-6.07926e-14
-6.13754e-14
-6.19682e-14
-6.25707e-14
-6.31826e-14
-6.38036e-14
-6.44333e-14
-6.50715e-14
-6.5718e-14
-6.63723e-14
-6.70342e-14
-6.77032e-14
-6.83788e-14
-6.90607e-14
-6.97482e-14
-7.0441e-14
-7.11386e-14
-7.18406e-14
-7.25466e-14
-7.32563e-14
-7.39694e-14
-7.46855e-14
-7.54041e-14
-7.6125e-14
-7.68478e-14
)
;
    }
    inandouthalf12
    {
        type            cyclic;
        value           nonuniform List<scalar> 
100
(
6.88983e-39
8.74536e-16
1.84362e-15
2.74646e-15
3.70087e-15
4.73028e-15
5.81185e-15
6.93483e-15
8.09931e-15
9.30618e-15
1.05545e-14
1.18415e-14
1.31631e-14
1.45143e-14
1.58898e-14
1.72841e-14
1.86912e-14
2.01051e-14
2.15194e-14
2.29279e-14
2.43244e-14
2.57032e-14
2.70587e-14
2.83861e-14
2.96806e-14
3.09384e-14
3.2156e-14
3.33306e-14
3.446e-14
3.55426e-14
3.65775e-14
3.75641e-14
3.85026e-14
3.93937e-14
4.02382e-14
4.10378e-14
4.17939e-14
4.25089e-14
4.3185e-14
4.38245e-14
4.44302e-14
4.50047e-14
4.55508e-14
4.60713e-14
4.65688e-14
4.70461e-14
4.75059e-14
4.79506e-14
4.83827e-14
4.88045e-14
4.92182e-14
4.9626e-14
5.00296e-14
5.04309e-14
5.08316e-14
5.12333e-14
5.16372e-14
5.20446e-14
5.24567e-14
5.28744e-14
5.32987e-14
5.37305e-14
5.41703e-14
5.46189e-14
5.50768e-14
5.55442e-14
5.60217e-14
5.65094e-14
5.70076e-14
5.75163e-14
5.80356e-14
5.85657e-14
5.91065e-14
5.9658e-14
6.022e-14
6.07926e-14
6.13754e-14
6.19682e-14
6.25707e-14
6.31826e-14
6.38036e-14
6.44333e-14
6.50715e-14
6.5718e-14
6.63723e-14
6.70342e-14
6.77032e-14
6.83788e-14
6.90607e-14
6.97482e-14
7.0441e-14
7.11386e-14
7.18406e-14
7.25466e-14
7.32563e-14
7.39694e-14
7.46855e-14
7.54041e-14
7.6125e-14
7.68478e-14
)
;
    }
    inandouthalf21
    {
        type            cyclic;
        value           nonuniform List<scalar> 
100
(
-7.75721e-14
-7.82976e-14
-7.90242e-14
-7.97517e-14
-8.04799e-14
-8.12089e-14
-8.19387e-14
-8.26694e-14
-8.34011e-14
-8.4134e-14
-8.48684e-14
-8.56047e-14
-8.63431e-14
-8.7084e-14
-8.78276e-14
-8.8574e-14
-8.93234e-14
-9.00756e-14
-9.08303e-14
-9.1587e-14
-9.23451e-14
-9.31039e-14
-9.38629e-14
-9.46217e-14
-9.53808e-14
-9.61414e-14
-9.69062e-14
-9.76799e-14
-9.84689e-14
-9.92814e-14
-1.00126e-13
-1.01012e-13
-1.01943e-13
-1.02915e-13
-1.03909e-13
-1.04873e-13
-1.0573e-13
-1.06394e-13
-1.06823e-13
-1.07048e-13
-1.07148e-13
-1.07204e-13
-1.07266e-13
-1.0737e-13
-1.07448e-13
-1.07532e-13
-1.0778e-13
-4.09917e-08
-6.15336e-08
-6.10059e-08
-6.31391e-08
-6.69425e-08
-7.16634e-08
-7.69086e-08
-8.24383e-08
-8.80814e-08
-9.37071e-08
-9.92141e-08
-1.04524e-07
-1.09574e-07
-1.14315e-07
-1.18701e-07
-1.22691e-07
-1.26244e-07
-1.29321e-07
-1.31884e-07
-1.33899e-07
-1.35334e-07
-1.36165e-07
-1.36375e-07
-1.35956e-07
-1.34915e-07
-1.33272e-07
-1.31066e-07
-1.28358e-07
-1.25234e-07
-1.21809e-07
-1.18217e-07
-1.14583e-07
-1.11004e-07
-1.07532e-07
-1.04181e-07
-1.00944e-07
-9.78091e-08
-9.47608e-08
-9.17893e-08
-8.8889e-08
-8.60578e-08
-8.32964e-08
-8.06069e-08
-7.79922e-08
-7.54552e-08
-7.29985e-08
-7.06241e-08
-6.83333e-08
-6.61267e-08
-6.40045e-08
-6.1966e-08
-6.00106e-08
-5.81369e-08
)
;
    }
    inandouthalf22
    {
        type            cyclic;
        value           nonuniform List<scalar> 
100
(
7.75721e-14
7.82976e-14
7.90242e-14
7.97517e-14
8.04799e-14
8.12089e-14
8.19387e-14
8.26694e-14
8.34011e-14
8.4134e-14
8.48684e-14
8.56047e-14
8.63431e-14
8.7084e-14
8.78276e-14
8.8574e-14
8.93234e-14
9.00756e-14
9.08303e-14
9.1587e-14
9.23451e-14
9.31039e-14
9.38629e-14
9.46217e-14
9.53808e-14
9.61414e-14
9.69062e-14
9.76799e-14
9.84689e-14
9.92814e-14
1.00126e-13
1.01012e-13
1.01943e-13
1.02915e-13
1.03909e-13
1.04873e-13
1.0573e-13
1.06394e-13
1.06823e-13
1.07048e-13
1.07148e-13
1.07204e-13
1.07266e-13
1.0737e-13
1.07448e-13
1.07532e-13
1.0778e-13
4.09917e-08
6.15336e-08
6.10059e-08
6.31391e-08
6.69425e-08
7.16634e-08
7.69086e-08
8.24383e-08
8.80814e-08
9.37071e-08
9.92141e-08
1.04524e-07
1.09574e-07
1.14315e-07
1.18701e-07
1.22691e-07
1.26244e-07
1.29321e-07
1.31884e-07
1.33899e-07
1.35334e-07
1.36165e-07
1.36375e-07
1.35956e-07
1.34915e-07
1.33272e-07
1.31066e-07
1.28358e-07
1.25234e-07
1.21809e-07
1.18217e-07
1.14583e-07
1.11004e-07
1.07532e-07
1.04181e-07
1.00944e-07
9.78091e-08
9.47608e-08
9.17893e-08
8.8889e-08
8.60578e-08
8.32964e-08
8.06069e-08
7.79922e-08
7.54552e-08
7.29985e-08
7.06241e-08
6.83333e-08
6.61267e-08
6.40045e-08
6.1966e-08
6.00106e-08
5.81369e-08
)
;
    }
    inandouthalf31
    {
        type            cyclic;
        value           nonuniform List<scalar> 
110
(
-5.63437e-08
-5.57199e-08
-5.50939e-08
-5.44677e-08
-5.38432e-08
-5.32223e-08
-5.26068e-08
-5.19985e-08
-5.1399e-08
-5.081e-08
-5.02332e-08
-4.967e-08
-4.91222e-08
-4.85911e-08
-4.80782e-08
-4.75848e-08
-4.71123e-08
-4.66621e-08
-4.62353e-08
-4.58332e-08
-4.54573e-08
-4.51087e-08
-4.47892e-08
-4.45007e-08
-4.42454e-08
-4.40261e-08
-4.3846e-08
-4.37083e-08
-4.36153e-08
-4.35661e-08
-4.35557e-08
-4.35743e-08
-4.35804e-08
-4.36388e-08
-4.37663e-08
-4.4009e-08
-4.41168e-08
1.25707e-07
1.309e-07
1.36468e-07
1.42128e-07
1.47897e-07
1.53761e-07
1.5971e-07
1.65732e-07
1.71825e-07
1.77871e-07
1.84252e-07
1.90917e-07
1.95869e-07
2.01574e-07
2.0841e-07
2.11666e-07
2.17511e-07
2.22125e-07
2.26952e-07
2.3126e-07
2.35092e-07
2.3836e-07
2.41001e-07
2.42964e-07
2.44223e-07
2.44782e-07
2.44693e-07
2.44063e-07
2.43182e-07
2.41195e-07
2.40871e-07
2.3939e-07
2.38738e-07
2.38593e-07
2.39103e-07
2.40355e-07
2.42416e-07
2.45337e-07
2.49163e-07
2.53931e-07
2.59643e-07
2.68296e-07
2.77604e-07
2.83905e-07
2.89683e-07
2.95564e-07
3.01563e-07
3.07684e-07
3.13929e-07
3.20301e-07
3.26802e-07
3.33435e-07
3.40203e-07
3.47108e-07
3.54154e-07
3.61342e-07
3.68676e-07
3.76159e-07
3.83794e-07
3.91584e-07
3.99533e-07
4.07642e-07
4.15916e-07
4.24358e-07
4.32971e-07
4.41759e-07
4.50726e-07
4.59875e-07
4.69209e-07
4.78732e-07
4.88449e-07
4.98364e-07
5.08479e-07
)
;
    }
    inandouthalf32
    {
        type            cyclic;
        value           nonuniform List<scalar> 
110
(
5.63437e-08
5.57199e-08
5.50939e-08
5.44677e-08
5.38432e-08
5.32223e-08
5.26068e-08
5.19985e-08
5.1399e-08
5.081e-08
5.02332e-08
4.967e-08
4.91222e-08
4.85911e-08
4.80782e-08
4.75848e-08
4.71123e-08
4.66621e-08
4.62353e-08
4.58332e-08
4.54573e-08
4.51087e-08
4.47892e-08
4.45007e-08
4.42454e-08
4.40261e-08
4.3846e-08
4.37083e-08
4.36153e-08
4.35661e-08
4.35557e-08
4.35743e-08
4.35804e-08
4.36388e-08
4.37663e-08
4.4009e-08
4.41168e-08
-1.25707e-07
-1.309e-07
-1.36468e-07
-1.42128e-07
-1.47897e-07
-1.53761e-07
-1.5971e-07
-1.65732e-07
-1.71825e-07
-1.77871e-07
-1.84252e-07
-1.90917e-07
-1.95869e-07
-2.01574e-07
-2.0841e-07
-2.11666e-07
-2.17511e-07
-2.22125e-07
-2.26952e-07
-2.3126e-07
-2.35092e-07
-2.3836e-07
-2.41001e-07
-2.42964e-07
-2.44223e-07
-2.44782e-07
-2.44693e-07
-2.44063e-07
-2.43182e-07
-2.41195e-07
-2.40871e-07
-2.3939e-07
-2.38738e-07
-2.38593e-07
-2.39103e-07
-2.40355e-07
-2.42416e-07
-2.45337e-07
-2.49163e-07
-2.53931e-07
-2.59643e-07
-2.68296e-07
-2.77604e-07
-2.83905e-07
-2.89683e-07
-2.95564e-07
-3.01563e-07
-3.07684e-07
-3.13929e-07
-3.20301e-07
-3.26802e-07
-3.33435e-07
-3.40203e-07
-3.47108e-07
-3.54154e-07
-3.61342e-07
-3.68676e-07
-3.76159e-07
-3.83794e-07
-3.91584e-07
-3.99533e-07
-4.07642e-07
-4.15916e-07
-4.24358e-07
-4.32971e-07
-4.41759e-07
-4.50726e-07
-4.59875e-07
-4.69209e-07
-4.78732e-07
-4.88449e-07
-4.98364e-07
-5.08479e-07
)
;
    }
    inandouthalf41
    {
        type            cyclic;
        value           nonuniform List<scalar> 
50
(
4.55141e-07
4.55141e-07
4.55141e-07
4.55141e-07
4.55141e-07
4.55141e-07
4.55141e-07
4.55141e-07
4.55141e-07
4.55141e-07
4.55141e-07
4.55141e-07
4.55141e-07
4.55141e-07
4.55141e-07
4.55141e-07
4.55141e-07
4.55141e-07
4.55141e-07
4.55141e-07
4.55141e-07
4.55141e-07
4.55141e-07
4.55141e-07
4.55141e-07
4.55141e-07
4.55141e-07
4.55141e-07
4.55141e-07
4.55141e-07
4.55141e-07
4.55141e-07
4.55141e-07
4.55141e-07
4.55141e-07
4.55141e-07
4.55141e-07
4.55141e-07
4.55141e-07
4.55141e-07
4.55141e-07
4.55141e-07
4.55141e-07
4.55141e-07
4.55141e-07
4.55141e-07
4.55141e-07
4.55144e-07
4.55217e-07
4.56893e-07
)
;
    }
    inandouthalf42
    {
        type            cyclic;
        value           nonuniform List<scalar> 
50
(
-4.55141e-07
-4.55141e-07
-4.55141e-07
-4.55141e-07
-4.55141e-07
-4.55141e-07
-4.55141e-07
-4.55141e-07
-4.55141e-07
-4.55141e-07
-4.55141e-07
-4.55141e-07
-4.55141e-07
-4.55141e-07
-4.55141e-07
-4.55141e-07
-4.55141e-07
-4.55141e-07
-4.55141e-07
-4.55141e-07
-4.55141e-07
-4.55141e-07
-4.55141e-07
-4.55141e-07
-4.55141e-07
-4.55141e-07
-4.55141e-07
-4.55141e-07
-4.55141e-07
-4.55141e-07
-4.55141e-07
-4.55141e-07
-4.55141e-07
-4.55141e-07
-4.55141e-07
-4.55141e-07
-4.55141e-07
-4.55141e-07
-4.55141e-07
-4.55141e-07
-4.55141e-07
-4.55141e-07
-4.55141e-07
-4.55141e-07
-4.55141e-07
-4.55141e-07
-4.55141e-07
-4.55144e-07
-4.55217e-07
-4.56893e-07
)
;
    }
    top
    {
        type            symmetryPlane;
        value           uniform 0;
    }
    walls
    {
        type            calculated;
        value           uniform 0;
    }
    frontAndBackPlanes
    {
        type            empty;
        value           nonuniform 0();
    }
}


// ************************************************************************* //
