/*--------------------------------*- C++ -*----------------------------------*\
| =========                 |                                                 |
| \\      /  F ield         | OpenFOAM: The Open Source CFD Toolbox           |
|  \\    /   O peration     | Version:  2.4.x                                 |
|   \\  /    A nd           | Web:      www.OpenFOAM.org                      |
|    \\/     M anipulation  |                                                 |
\*---------------------------------------------------------------------------*/
FoamFile
{
    version     2.0;
    format      ascii;
    class       volVectorField;
    location    "12.2";
    object      ddt0(Ub);
}
// * * * * * * * * * * * * * * * * * * * * * * * * * * * * * * * * * * * * * //

dimensions      [0 1 -2 0 0 0 0];

internalField   nonuniform List<vector> 
360
(
(6.51927e-05 -1.10863e-09 0)
(6.48287e-05 -3.93806e-09 0)
(6.47808e-05 -7.30787e-09 0)
(6.48308e-05 -1.05986e-08 0)
(6.48548e-05 -1.40102e-08 0)
(6.4863e-05 -1.76365e-08 0)
(6.48734e-05 -2.14459e-08 0)
(6.48865e-05 -2.53996e-08 0)
(6.49e-05 -2.94855e-08 0)
(6.49137e-05 -3.37029e-08 0)
(6.49275e-05 -3.8047e-08 0)
(6.49413e-05 -4.2497e-08 0)
(6.49553e-05 -4.70268e-08 0)
(6.49694e-05 -5.16244e-08 0)
(6.49837e-05 -5.62637e-08 0)
(6.49982e-05 -6.09185e-08 0)
(6.50128e-05 -6.55728e-08 0)
(6.50276e-05 -7.02031e-08 0)
(6.50424e-05 -7.4785e-08 0)
(6.50575e-05 -7.92882e-08 0)
(6.50726e-05 -8.3691e-08 0)
(6.50879e-05 -8.79714e-08 0)
(6.51033e-05 -9.21085e-08 0)
(6.51188e-05 -9.60886e-08 0)
(6.51344e-05 -9.98968e-08 0)
(6.51501e-05 -1.03526e-07 0)
(6.51659e-05 -1.06966e-07 0)
(6.51819e-05 -1.10207e-07 0)
(6.5198e-05 -1.13242e-07 0)
(6.52142e-05 -1.16074e-07 0)
(6.52305e-05 -1.18704e-07 0)
(6.52469e-05 -1.21131e-07 0)
(6.52633e-05 -1.2336e-07 0)
(6.52801e-05 -1.25398e-07 0)
(6.52968e-05 -1.27253e-07 0)
(6.53138e-05 -1.28931e-07 0)
(6.53308e-05 -1.30448e-07 0)
(6.5348e-05 -1.31815e-07 0)
(6.53654e-05 -1.3304e-07 0)
(6.53827e-05 -1.34136e-07 0)
(6.54005e-05 -1.35116e-07 0)
(6.54183e-05 -1.3599e-07 0)
(6.54361e-05 -1.36769e-07 0)
(6.54544e-05 -1.37473e-07 0)
(6.54727e-05 -1.38113e-07 0)
(6.54912e-05 -1.3869e-07 0)
(6.551e-05 -1.39219e-07 0)
(6.55288e-05 -1.39714e-07 0)
(6.55479e-05 -1.40179e-07 0)
(6.55674e-05 -1.40622e-07 0)
(6.55868e-05 -1.41058e-07 0)
(6.56067e-05 -1.41494e-07 0)
(6.56267e-05 -1.41933e-07 0)
(6.5647e-05 -1.42387e-07 0)
(6.56674e-05 -1.42858e-07 0)
(6.56883e-05 -1.43351e-07 0)
(6.57092e-05 -1.43866e-07 0)
(6.57306e-05 -1.44407e-07 0)
(6.57522e-05 -1.44985e-07 0)
(6.57739e-05 -1.45598e-07 0)
(6.57962e-05 -1.46246e-07 0)
(6.58185e-05 -1.46935e-07 0)
(6.58413e-05 -1.47665e-07 0)
(6.58644e-05 -1.48438e-07 0)
(6.58877e-05 -1.49259e-07 0)
(6.59114e-05 -1.50122e-07 0)
(6.59354e-05 -1.51031e-07 0)
(6.59598e-05 -1.51989e-07 0)
(6.59846e-05 -1.52991e-07 0)
(6.60095e-05 -1.54035e-07 0)
(6.6035e-05 -1.55123e-07 0)
(6.6061e-05 -1.56256e-07 0)
(6.6087e-05 -1.57432e-07 0)
(6.61136e-05 -1.58652e-07 0)
(6.61406e-05 -1.59909e-07 0)
(6.61681e-05 -1.61206e-07 0)
(6.61959e-05 -1.62541e-07 0)
(6.62241e-05 -1.63911e-07 0)
(6.62529e-05 -1.65318e-07 0)
(6.62821e-05 -1.66758e-07 0)
(6.63117e-05 -1.68228e-07 0)
(6.63418e-05 -1.69727e-07 0)
(6.63725e-05 -1.71258e-07 0)
(6.64036e-05 -1.72814e-07 0)
(6.64353e-05 -1.74396e-07 0)
(6.64675e-05 -1.76001e-07 0)
(6.65003e-05 -1.77625e-07 0)
(6.65336e-05 -1.79267e-07 0)
(6.65676e-05 -1.80923e-07 0)
(6.66021e-05 -1.82593e-07 0)
(6.66373e-05 -1.84279e-07 0)
(6.66731e-05 -1.85976e-07 0)
(6.67096e-05 -1.87682e-07 0)
(6.67469e-05 -1.89399e-07 0)
(6.67848e-05 -1.91121e-07 0)
(6.68235e-05 -1.92846e-07 0)
(6.6863e-05 -1.9457e-07 0)
(6.69032e-05 -1.96296e-07 0)
(6.69443e-05 -1.98023e-07 0)
(6.69862e-05 -1.99749e-07 0)
(6.70291e-05 -2.01466e-07 0)
(6.70728e-05 -2.03173e-07 0)
(6.71176e-05 -2.04876e-07 0)
(6.71633e-05 -2.0657e-07 0)
(6.721e-05 -2.08255e-07 0)
(6.72579e-05 -2.09927e-07 0)
(6.73068e-05 -2.11591e-07 0)
(6.7357e-05 -2.13246e-07 0)
(6.74083e-05 -2.14889e-07 0)
(6.7461e-05 -2.1652e-07 0)
(6.75149e-05 -2.18135e-07 0)
(6.75703e-05 -2.19734e-07 0)
(6.7627e-05 -2.21324e-07 0)
(6.76853e-05 -2.22906e-07 0)
(6.77452e-05 -2.24468e-07 0)
(6.78067e-05 -2.26012e-07 0)
(6.787e-05 -2.27538e-07 0)
(6.79351e-05 -2.29047e-07 0)
(6.80022e-05 -2.30536e-07 0)
(6.80712e-05 -2.32001e-07 0)
(6.81425e-05 -2.33439e-07 0)
(6.8216e-05 -2.3485e-07 0)
(6.82919e-05 -2.3623e-07 0)
(6.83703e-05 -2.37573e-07 0)
(6.84514e-05 -2.38878e-07 0)
(6.85354e-05 -2.40147e-07 0)
(6.86224e-05 -2.41384e-07 0)
(6.87126e-05 -2.42591e-07 0)
(6.88064e-05 -2.43777e-07 0)
(6.89041e-05 -2.44956e-07 0)
(6.90058e-05 -2.46133e-07 0)
(6.91117e-05 -2.4731e-07 0)
(6.92225e-05 -2.48483e-07 0)
(6.93396e-05 -2.49633e-07 0)
(6.94645e-05 -2.50724e-07 0)
(6.95975e-05 -2.51689e-07 0)
(6.97384e-05 -2.52436e-07 0)
(6.98889e-05 -2.52897e-07 0)
(7.00557e-05 -2.53052e-07 0)
(7.02459e-05 -2.5296e-07 0)
(7.04513e-05 -2.52676e-07 0)
(7.06954e-05 -2.50431e-07 0)
(7.23797e-05 -2.5516e-07 0)
(7.21292e-05 -1.11378e-07 0)
(7.24388e-05 -1.00404e-06 0)
(7.31533e-05 1.56352e-06 0)
(0.000258588 -8.16789e-06 0)
(0.0447961 2.43159e-05 0)
(0.0619776 0.000227247 0)
(0.0609654 0.000145567 0)
(0.0635187 0.000144412 0)
(0.067557 0.000122446 0)
(0.0723944 0.000101549 0)
(0.0776862 8.39601e-05 0)
(0.0832193 7.00845e-05 0)
(0.0888486 5.99492e-05 0)
(0.094472 5.28334e-05 0)
(0.100017 4.7862e-05 0)
(0.105434 4.4331e-05 0)
(0.110685 4.15753e-05 0)
(0.115744 3.91944e-05 0)
(0.120586 3.68403e-05 0)
(0.125192 3.43844e-05 0)
(0.129539 3.17817e-05 0)
(0.133606 2.90311e-05 0)
(0.137369 2.61614e-05 0)
(0.1408 2.32164e-05 0)
(0.143869 2.02435e-05 0)
(0.146545 1.72897e-05 0)
(0.148791 1.43983e-05 0)
(0.150568 1.16076e-05 0)
(0.151834 8.94429e-06 0)
(0.152544 6.40994e-06 0)
(0.152651 3.9726e-06 0)
(0.15211 1.59271e-06 0)
(0.150872 -7.01103e-07 0)
(0.148895 -2.74101e-06 0)
(0.146143 -4.25992e-06 0)
(0.142593 -5.06083e-06 0)
(0.13824 -5.16503e-06 0)
(0.133103 -4.79003e-06 0)
(0.127225 -4.20019e-06 0)
(0.120676 -3.58499e-06 0)
(0.113551 -3.03541e-06 0)
(0.105972 -2.57668e-06 0)
(0.0980757 -2.204e-06 0)
(0.0900134 -1.90352e-06 0)
(0.0819353 -1.66122e-06 0)
(0.0739827 -1.46412e-06 0)
(0.066279 -1.30189e-06 0)
(0.0589229 -1.16727e-06 0)
(0.0519855 -1.05423e-06 0)
(0.0455102 -9.58185e-07 0)
(0.0395159 -8.75666e-07 0)
(0.0340012 -8.0401e-07 0)
(0.028949 -7.41169e-07 0)
(0.0243321 -6.8555e-07 0)
(0.0201167 -6.35912e-07 0)
(0.0162663 -5.91269e-07 0)
(0.0127437 -5.50838e-07 0)
(0.0095132 -5.13999e-07 0)
(0.00651105 -4.79903e-07 0)
(0.0036872 -4.47927e-07 0)
(0.00102399 -4.17857e-07 0)
(-0.00149557 -3.89512e-07 0)
(-0.00388749 -3.62754e-07 0)
(-0.00616662 -3.37463e-07 0)
(-0.00834654 -3.13546e-07 0)
(-0.0104396 -2.90921e-07 0)
(-0.0124567 -2.69525e-07 0)
(-0.0144079 -2.49307e-07 0)
(-0.0163017 -2.30219e-07 0)
(-0.0181459 -2.12214e-07 0)
(-0.019947 -1.9525e-07 0)
(-0.0217108 -1.79281e-07 0)
(-0.0234423 -1.64268e-07 0)
(-0.0251456 -1.50165e-07 0)
(-0.0268246 -1.36928e-07 0)
(-0.028482 -1.24522e-07 0)
(-0.0301206 -1.12905e-07 0)
(-0.0317423 -1.02044e-07 0)
(-0.0333488 -9.19092e-08 0)
(-0.0349416 -8.24753e-08 0)
(-0.0365216 -7.37181e-08 0)
(-0.0380896 -6.56141e-08 0)
(-0.039646 -5.81365e-08 0)
(-0.0411913 -5.12488e-08 0)
(-0.0427255 -4.48781e-08 0)
(-0.0442484 -3.89048e-08 0)
(-0.0457598 -3.31767e-08 0)
(-0.0472592 -2.75728e-08 0)
(-0.0487459 -2.21627e-08 0)
(-0.050219 -1.73778e-08 0)
(-0.0516776 -1.37983e-08 0)
(-0.0531203 -1.14653e-08 0)
(-0.0545457 -9.65308e-09 0)
(-0.0559521 -7.51474e-09 0)
(-0.0573375 -5.44039e-09 0)
(-0.0586997 -4.02766e-09 0)
(-0.0600359 -3.00239e-09 0)
(-0.0613434 -2.21477e-09 0)
(-0.0626187 -1.60822e-09 0)
(-0.0638581 -1.14889e-09 0)
(-0.0650572 -8.02811e-10 0)
(-0.0662113 -5.45525e-10 0)
(-0.0673148 -3.57203e-10 0)
(-0.0683616 -2.23585e-10 0)
(-0.0693448 -1.31762e-10 0)
(-0.0702567 -8.08504e-11 0)
(-0.0710885 -6.28565e-11 0)
(-0.0718308 -5.83969e-11 0)
(-0.0724728 -2.01231e-11 0)
(-0.0730029 -8.02104e-12 0)
(-0.0734085 -2.02697e-11 0)
(-0.073676 4.87951e-12 0)
(-0.0737915 8.35397e-12 0)
(-0.0737404 7.59656e-12 0)
(-0.0735092 7.40418e-12 0)
(-0.0730856 7.05955e-12 0)
(-0.0724602 6.94938e-12 0)
(-0.0716285 6.82904e-12 0)
(-0.0705933 6.66062e-12 0)
(-0.0693663 6.10731e-12 0)
(-0.0679712 5.07884e-12 0)
(-0.0664435 4.70804e-12 0)
(-0.0648303 3.96076e-12 0)
(-0.0631866 2.92062e-12 0)
(-0.06157 3.1895e-12 0)
(-0.060034 3.90981e-12 0)
(-0.0586233 2.88635e-12 0)
(-0.0573709 1.58936e-12 0)
(-0.0562983 1.13357e-11 0)
(-0.0554181 -2.31615e-11 0)
(-0.054736 5.13871e-11 0)
(-0.0542533 -7.15775e-11 0)
(-0.0539681 1.08304e-10 0)
(-0.0538782 -1.29268e-10 0)
(-0.0539951 1.66161e-10 0)
(-0.0545325 -1.82885e-10 0)
(-0.0554567 2.0896e-10 0)
(-0.0556235 -2.18693e-10 0)
(-0.0556274 2.40601e-10 0)
(-0.0556275 -2.51413e-10 0)
(-0.0556275 2.70903e-10 0)
(-0.0556275 -2.86328e-10 0)
(-0.0556275 3.04499e-10 0)
(-0.0556275 -3.17529e-10 0)
(-0.0556275 3.43034e-10 0)
(-0.0556275 -3.53131e-10 0)
(-0.0556275 3.78535e-10 0)
(-0.0556275 -3.90131e-10 0)
(-0.0556275 4.17853e-10 0)
(-0.0556275 -4.2987e-10 0)
(-0.0556275 4.56097e-10 0)
(-0.0556275 -4.68954e-10 0)
(-0.0556275 5.03329e-10 0)
(-0.0556275 -5.08115e-10 0)
(-0.0556275 5.39745e-10 0)
(-0.0556275 -5.58805e-10 0)
(-0.0556275 5.82782e-10 0)
(-0.0556275 -6.05476e-10 0)
(-0.0556275 6.27637e-10 0)
(-0.0556275 -6.52344e-10 0)
(-0.0556275 6.74434e-10 0)
(-0.0556275 -7.02852e-10 0)
(-0.0556275 7.22272e-10 0)
(-0.0556275 -7.53045e-10 0)
(-0.0556275 7.73892e-10 0)
(-0.0556275 -8.04975e-10 0)
(-0.0556275 8.23093e-10 0)
(-0.0556275 -7.56379e-10 0)
(-0.0556275 7.55492e-10 0)
(-0.0556275 -7.74312e-10 0)
(-0.0556275 7.75924e-10 0)
(-0.0556275 -7.91467e-10 0)
(-0.0556275 7.95501e-10 0)
(-0.0556275 -8.09529e-10 0)
(-0.0556275 8.14744e-10 0)
(-0.0556275 -8.26131e-10 0)
(-0.0556275 8.35455e-10 0)
(-0.0556275 -8.39097e-10 0)
(-0.0556275 8.56091e-10 0)
(-0.0556275 -8.55291e-10 0)
(-0.0556275 8.74221e-10 0)
(-0.0556275 -8.68952e-10 0)
(-0.0556275 8.92853e-10 0)
(-0.0556275 -8.81336e-10 0)
(-0.0556275 9.25755e-10 0)
(-0.0556275 -8.84033e-10 0)
(-0.0556275 9.24551e-10 0)
(-0.0556275 -9.17273e-10 0)
(-0.0556275 9.34391e-10 0)
(-0.0556275 -9.35437e-10 0)
(-0.0556275 9.44132e-10 0)
(-0.0556275 -9.52674e-10 0)
(-0.0556275 9.57618e-10 0)
(-0.0556275 -9.66466e-10 0)
(-0.0556275 9.67321e-10 0)
(-0.0556275 -9.81937e-10 0)
(-0.0556275 9.7917e-10 0)
(-0.0556275 -9.93262e-10 0)
(-0.0556275 9.91525e-10 0)
(-0.0556275 -1.00419e-09 0)
(-0.0556275 1.00604e-09 0)
(-0.0556275 -1.01094e-09 0)
(-0.0556275 1.01891e-09 0)
(-0.0556275 -1.01828e-09 0)
(-0.0556275 1.03378e-09 0)
(-0.0556275 -1.02436e-09 0)
(-0.0556275 1.04534e-09 0)
(-0.0556275 -1.03152e-09 0)
(-0.0556275 1.05466e-09 0)
(-0.0556275 -1.03521e-09 0)
(-0.0556275 1.07014e-09 0)
(-0.0556275 -1.03753e-09 0)
(-0.0556275 1.07204e-09 0)
(-0.0556275 -1.05023e-09 0)
(-0.0556275 1.05725e-09 0)
(-0.0556275 -1.09095e-09 0)
(-0.0556275 1.04658e-09 0)
)
;

boundaryField
{
    inandouthalf11
    {
        type            cyclic;
    }
    inandouthalf12
    {
        type            cyclic;
    }
    inandouthalf21
    {
        type            cyclic;
    }
    inandouthalf22
    {
        type            cyclic;
    }
    inandouthalf31
    {
        type            cyclic;
    }
    inandouthalf32
    {
        type            cyclic;
    }
    inandouthalf41
    {
        type            cyclic;
    }
    inandouthalf42
    {
        type            cyclic;
    }
    top
    {
        type            symmetryPlane;
    }
    walls
    {
        type            calculated;
        value           uniform (0 0 0);
    }
    frontAndBackPlanes
    {
        type            empty;
    }
}


// ************************************************************************* //
