/*--------------------------------*- C++ -*----------------------------------*\
| =========                 |                                                 |
| \\      /  F ield         | OpenFOAM: The Open Source CFD Toolbox           |
|  \\    /   O peration     | Version:  2.4.x                                 |
|   \\  /    A nd           | Web:      www.OpenFOAM.org                      |
|    \\/     M anipulation  |                                                 |
\*---------------------------------------------------------------------------*/
FoamFile
{
    version     2.0;
    format      ascii;
    class       volScalarField;
    location    "12.2";
    object      epsilon;
}
// * * * * * * * * * * * * * * * * * * * * * * * * * * * * * * * * * * * * * //

dimensions      [0 2 -3 0 0 0 0];

internalField   nonuniform List<scalar> 
360
(
1e-20
1e-20
1e-20
1e-20
1e-20
1e-20
1e-20
1e-20
1e-20
1e-20
1e-20
1e-20
1e-20
1e-20
1e-20
1e-20
1e-20
1e-20
1e-20
1e-20
1e-20
1e-20
1e-20
1e-20
1e-20
1e-20
1e-20
1e-20
1e-20
1e-20
1e-20
1e-20
1e-20
1e-20
1e-20
1e-20
1e-20
1e-20
1e-20
1e-20
1e-20
1e-20
1e-20
1e-20
1e-20
1e-20
1e-20
1e-20
1e-20
1e-20
1e-20
1e-20
1e-20
1e-20
1e-20
1e-20
1e-20
1e-20
1e-20
1e-20
1e-20
1e-20
1e-20
1e-20
1e-20
1e-20
1e-20
1e-20
1e-20
1e-20
1e-20
1e-20
1e-20
1e-20
1e-20
1e-20
1e-20
1e-20
1e-20
1e-20
1e-20
1e-20
1e-20
1e-20
1e-20
1e-20
1e-20
1e-20
1e-20
1e-20
1e-20
1e-20
1e-20
1e-20
1e-20
1e-20
1e-20
1e-20
1e-20
1e-20
1e-20
1e-20
1e-20
1e-20
1e-20
1e-20
1e-20
1e-20
1e-20
1e-20
1e-20
1e-20
1e-20
1e-20
1e-20
1e-20
1e-20
1e-20
1e-20
1e-20
1e-20
1e-20
1e-20
1e-20
1e-20
1e-20
1e-20
1e-20
1e-20
1e-20
1e-20
1e-20
3.15645e-20
2.17712e-19
1.6445e-18
1.3035e-17
1.1071e-16
1.03474e-15
1.09305e-14
1.33624e-13
1.92748e-12
3.33352e-11
7.00149e-10
1.76233e-08
5.46907e-07
2.11843e-05
0.000971374
0.028217
0.154078
0.202719
0.207097
0.198233
0.185066
0.170843
0.156914
0.143837
0.131805
0.120845
0.1109
0.101883
0.093695
0.0862413
0.0794331
0.0731918
0.0674491
0.0621462
0.0572332
0.0526679
0.0484149
0.0444447
0.0407332
0.0372601
0.0340094
0.030968
0.0281256
0.025474
0.0230068
0.0207189
0.0186062
0.0166647
0.0148905
0.0132791
0.0118251
0.0105223
0.00936298
0.00833854
0.00743922
0.00665451
0.00597345
0.00538502
0.00487842
0.00444342
0.00407051
0.0037511
0.00347753
0.0032431
0.00304201
0.00286928
0.00272069
0.00259265
0.00248213
0.00238562
0.0023006
0.00222584
0.0021602
0.00210268
0.00205241
0.00200858
0.00197047
0.00193747
0.00190898
0.0018845
0.00186354
0.00184568
0.00183053
0.00181771
0.00180689
0.00179774
0.00178995
0.00178326
0.00177737
0.00177202
0.00176697
0.00176197
0.00175677
0.00175116
0.00174489
0.00173776
0.00172954
0.00172004
0.00170905
0.00169637
0.00168183
0.00166524
0.00164643
0.00162525
0.00160156
0.00157521
0.00154611
0.00151414
0.00147924
0.00144135
0.00140043
0.0013565
0.00130958
0.00125974
0.00120708
0.00115174
0.00109392
0.00103386
0.000971853
0.000908239
0.000843424
0.000777865
0.000712078
0.000646626
0.000582119
0.000519197
0.000458517
0.000400732
0.000346458
0.000296247
0.000250547
0.000209671
0.00017376
0.000142773
0.000116484
9.45066e-05
7.63331e-05
6.13896e-05
4.90914e-05
3.88923e-05
3.03221e-05
2.30111e-05
1.67043e-05
1.12662e-05
6.68349e-06
3.07459e-06
7.3445e-07
4.71524e-08
8.32311e-10
1.10243e-11
1.36753e-13
1.59669e-15
1.75588e-17
1.89228e-19
1.04272e-20
1e-20
1e-20
1e-20
1e-20
1e-20
1e-20
1e-20
1e-20
1e-20
1e-20
1e-20
1e-20
1e-20
1e-20
1e-20
1e-20
1e-20
1e-20
1e-20
1e-20
1e-20
1e-20
1e-20
1e-20
1e-20
1e-20
1e-20
1e-20
1e-20
1e-20
1e-20
1e-20
1e-20
1e-20
1e-20
1e-20
1e-20
1e-20
1e-20
1e-20
1e-20
1e-20
1e-20
1e-20
1e-20
1e-20
1e-20
1e-20
1e-20
1e-20
1e-20
1e-20
1e-20
1e-20
1e-20
1e-20
1e-20
1e-20
1e-20
1e-20
1e-20
1e-20
1e-20
1e-20
1e-20
1e-20
1e-20
1e-20
1e-20
1e-20
1e-20
1e-20
1e-20
)
;

boundaryField
{
    inandouthalf11
    {
        type            cyclic;
    }
    inandouthalf12
    {
        type            cyclic;
    }
    inandouthalf21
    {
        type            cyclic;
    }
    inandouthalf22
    {
        type            cyclic;
    }
    inandouthalf31
    {
        type            cyclic;
    }
    inandouthalf32
    {
        type            cyclic;
    }
    inandouthalf41
    {
        type            cyclic;
    }
    inandouthalf42
    {
        type            cyclic;
    }
    top
    {
        type            symmetryPlane;
    }
    walls
    {
        type            zeroGradient;
    }
    frontAndBackPlanes
    {
        type            empty;
    }
}


// ************************************************************************* //
