/*--------------------------------*- C++ -*----------------------------------*\
| =========                 |                                                 |
| \\      /  F ield         | OpenFOAM: The Open Source CFD Toolbox           |
|  \\    /   O peration     | Version:  2.4.x                                 |
|   \\  /    A nd           | Web:      www.OpenFOAM.org                      |
|    \\/     M anipulation  |                                                 |
\*---------------------------------------------------------------------------*/
FoamFile
{
    version     2.0;
    format      ascii;
    class       volScalarField;
    location    "12.2";
    object      epsilon_0;
}
// * * * * * * * * * * * * * * * * * * * * * * * * * * * * * * * * * * * * * //

dimensions      [0 2 -3 0 0 0 0];

internalField   nonuniform List<scalar> 
360
(
1.60309e-27
1e-20
1e-20
1e-20
1e-20
1e-20
1e-20
1e-20
1e-20
1e-20
1e-20
1e-20
1e-20
1e-20
1e-20
1e-20
1e-20
1e-20
1e-20
1e-20
1e-20
1e-20
1e-20
1e-20
1e-20
1e-20
1e-20
1e-20
1e-20
1e-20
1e-20
1e-20
1e-20
1e-20
1e-20
1e-20
1e-20
1e-20
1e-20
1e-20
1e-20
1e-20
1e-20
1e-20
1e-20
1e-20
1e-20
1e-20
1e-20
1e-20
1e-20
1e-20
1e-20
1e-20
1e-20
1e-20
1e-20
1e-20
1e-20
1e-20
1e-20
1e-20
1e-20
1e-20
1e-20
1e-20
1e-20
1e-20
1e-20
1e-20
1e-20
1e-20
1e-20
1e-20
1e-20
1e-20
1e-20
1e-20
1e-20
1e-20
1e-20
1e-20
1e-20
1e-20
1e-20
1e-20
1e-20
1e-20
1e-20
1e-20
1e-20
1e-20
1e-20
1e-20
1e-20
1e-20
1e-20
1e-20
1e-20
1e-20
1e-20
1e-20
1e-20
1e-20
1e-20
1e-20
1e-20
1e-20
1e-20
1e-20
1e-20
1e-20
1e-20
1e-20
1e-20
1e-20
1e-20
1e-20
1e-20
1e-20
1e-20
1e-20
1e-20
1e-20
1e-20
1e-20
1e-20
1e-20
1e-20
1e-20
1e-20
1e-20
3.15435e-20
2.17593e-19
1.64392e-18
1.30326e-17
1.10704e-16
1.03479e-15
1.09319e-14
1.33648e-13
1.92789e-12
3.33433e-11
7.00338e-10
1.76286e-08
5.47083e-07
2.11916e-05
0.000971719
0.0282245
0.154092
0.202729
0.207106
0.198241
0.185074
0.170851
0.156922
0.143844
0.131812
0.12085
0.110905
0.101887
0.093699
0.0862446
0.0794357
0.0731937
0.0674503
0.0621467
0.057233
0.052667
0.0484134
0.0444427
0.0407305
0.037257
0.0340058
0.0309641
0.0281213
0.0254694
0.023002
0.0207141
0.0186013
0.0166599
0.0148858
0.0132745
0.0118208
0.0105182
0.00935922
0.00833511
0.00743613
0.00665175
0.00597102
0.0053829
0.00487659
0.00444185
0.00406918
0.00374998
0.00347659
0.00324232
0.00304137
0.00286877
0.00272028
0.00259233
0.0024819
0.00238545
0.0023005
0.00222579
0.0021602
0.00210273
0.0020525
0.0020087
0.00197063
0.00193765
0.00190919
0.00188472
0.00186379
0.00184595
0.00183081
0.00181801
0.00180719
0.00179805
0.00179028
0.00178359
0.00177771
0.00177237
0.00176732
0.00176232
0.00175713
0.00175151
0.00174524
0.00173811
0.00172989
0.00172038
0.00170939
0.0016967
0.00168215
0.00166555
0.00164674
0.00162555
0.00160184
0.00157549
0.00154637
0.00151439
0.00147948
0.00144157
0.00140064
0.0013567
0.00130976
0.0012599
0.00120722
0.00115187
0.00109403
0.00103396
0.000971931
0.000908301
0.00084347
0.000777898
0.000712097
0.000646634
0.000582116
0.000519185
0.000458499
0.000400708
0.00034643
0.000296218
0.000250519
0.000209644
0.000173735
0.000142751
0.000116466
9.44922e-05
7.6322e-05
6.13813e-05
4.90853e-05
3.88878e-05
3.03187e-05
2.30084e-05
1.6702e-05
1.12642e-05
6.68173e-06
3.07317e-06
7.33728e-07
4.70674e-08
8.30477e-10
1.09994e-11
1.36436e-13
1.59291e-15
1.75163e-17
1.8878e-19
1.04241e-20
1e-20
1e-20
1e-20
1e-20
1e-20
1e-20
1e-20
1e-20
1e-20
1e-20
1e-20
1e-20
1e-20
1e-20
1e-20
1e-20
1e-20
1e-20
1e-20
1e-20
1e-20
1e-20
1e-20
1e-20
1e-20
1e-20
1e-20
1e-20
1e-20
1e-20
1e-20
1e-20
1e-20
1e-20
1e-20
1e-20
1e-20
1e-20
1e-20
1e-20
1e-20
1e-20
1e-20
1e-20
1e-20
1e-20
1e-20
1e-20
1e-20
1e-20
1e-20
1e-20
1e-20
1e-20
1e-20
1e-20
1e-20
1e-20
1e-20
1e-20
1e-20
1e-20
1e-20
1e-20
1e-20
1e-20
1e-20
1e-20
1e-20
1e-20
1e-20
1e-20
1e-20
)
;

boundaryField
{
    inandouthalf11
    {
        type            cyclic;
    }
    inandouthalf12
    {
        type            cyclic;
    }
    inandouthalf21
    {
        type            cyclic;
    }
    inandouthalf22
    {
        type            cyclic;
    }
    inandouthalf31
    {
        type            cyclic;
    }
    inandouthalf32
    {
        type            cyclic;
    }
    inandouthalf41
    {
        type            cyclic;
    }
    inandouthalf42
    {
        type            cyclic;
    }
    top
    {
        type            symmetryPlane;
    }
    walls
    {
        type            zeroGradient;
    }
    frontAndBackPlanes
    {
        type            empty;
    }
}


// ************************************************************************* //
