/*--------------------------------*- C++ -*----------------------------------*\
| =========                 |                                                 |
| \\      /  F ield         | OpenFOAM: The Open Source CFD Toolbox           |
|  \\    /   O peration     | Version:  2.4.x                                 |
|   \\  /    A nd           | Web:      www.OpenFOAM.org                      |
|    \\/     M anipulation  |                                                 |
\*---------------------------------------------------------------------------*/
FoamFile
{
    version     2.0;
    format      ascii;
    class       volVectorField;
    location    "12.2";
    object      gradPs;
}
// * * * * * * * * * * * * * * * * * * * * * * * * * * * * * * * * * * * * * //

dimensions      [0 1 -2 0 0 0 0];

internalField   nonuniform List<vector> 
360
(
(0 1.55805e-18 0)
(0 1.71645e-18 0)
(0 -1.79162e-21 0)
(0 -2.37944e-19 0)
(-1.45025e-32 -9.92182e-20 0)
(-1.45029e-32 -5.4162e-20 0)
(-2.90065e-32 -7.00287e-20 0)
(0 -8.01024e-20 0)
(-1.45043e-32 -8.14435e-20 0)
(0 -8.21259e-20 0)
(-1.45054e-32 -8.24242e-20 0)
(0 -8.27651e-20 0)
(-2.9013e-32 -8.34812e-20 0)
(0 -8.4221e-20 0)
(0 -8.51864e-20 0)
(0 -8.61653e-20 0)
(0 -8.69459e-20 0)
(-1.45093e-32 -8.76544e-20 0)
(0 -8.87228e-20 0)
(0 -8.94765e-20 0)
(0 -9.02613e-20 0)
(-2.90234e-32 -9.13807e-20 0)
(0 -9.2196e-20 0)
(0 -9.31436e-20 0)
(0 -9.4116e-20 0)
(-1.45142e-32 -9.49027e-20 0)
(0 -9.59783e-20 0)
(0 -9.70961e-20 0)
(0 -9.7898e-20 0)
(0 -9.88366e-20 0)
(0 -1.00147e-19 0)
(0 -1.00835e-19 0)
(0 -1.02052e-19 0)
(0 -1.03298e-19 0)
(0 -1.04091e-19 0)
(1.45208e-32 -1.05221e-19 0)
(0 -1.06301e-19 0)
(0 -1.07901e-19 0)
(0 -1.08428e-19 0)
(0 -1.09732e-19 0)
(0 -1.11496e-19 0)
(0 -1.1187e-19 0)
(1.45259e-32 -1.13471e-19 0)
(0 -1.14939e-19 0)
(0 -1.15879e-19 0)
(0 -1.17639e-19 0)
(0 -1.1839e-19 0)
(0 -1.19538e-19 0)
(0 -1.21911e-19 0)
(0 -1.22757e-19 0)
(1.45322e-32 -1.23855e-19 0)
(0 -1.25698e-19 0)
(0 -1.27189e-19 0)
(0 -1.2839e-19 0)
(0 -1.30219e-19 0)
(0 -1.31728e-19 0)
(0 -1.3317e-19 0)
(0 -1.35208e-19 0)
(0 -1.36065e-19 0)
(0 -1.38334e-19 0)
(0 -1.40127e-19 0)
(0 -1.4164e-19 0)
(0 -1.4375e-19 0)
(0 -1.45348e-19 0)
(0 -1.47173e-19 0)
(0 -1.49152e-19 0)
(0 -1.51416e-19 0)
(0 -1.53291e-19 0)
(0 -1.54792e-19 0)
(0 -1.57258e-19 0)
(0 -1.60183e-19 0)
(0 -1.61497e-19 0)
(0 -1.63704e-19 0)
(0 -1.66524e-19 0)
(0 -1.68963e-19 0)
(0 -1.71287e-19 0)
(0 -1.73401e-19 0)
(0 -1.76246e-19 0)
(0 -1.79041e-19 0)
(0 -1.81543e-19 0)
(0 -1.8427e-19 0)
(0 -1.87352e-19 0)
(0 -1.90281e-19 0)
(0 -1.93307e-19 0)
(0 -1.96437e-19 0)
(0 -1.99688e-19 0)
(0 -2.02985e-19 0)
(0 -2.06282e-19 0)
(0 -2.0982e-19 0)
(0 -2.13476e-19 0)
(0 -2.17182e-19 0)
(0 -2.21081e-19 0)
(0 -2.25145e-19 0)
(0 -2.2929e-19 0)
(0 -2.33569e-19 0)
(0 -2.3799e-19 0)
(0 -2.42544e-19 0)
(0 -2.47249e-19 0)
(0 -2.52135e-19 0)
(0 -2.57204e-19 0)
(0 -2.62461e-19 0)
(0 -2.67926e-19 0)
(0 -2.73599e-19 0)
(0 -2.79479e-19 0)
(0 -2.85579e-19 0)
(0 -2.9191e-19 0)
(0 -2.98483e-19 0)
(0 -3.05314e-19 0)
(0 -3.12419e-19 0)
(0 -3.19811e-19 0)
(0 -3.27508e-19 0)
(0 -3.35528e-19 0)
(0 -3.43892e-19 0)
(0 -3.52624e-19 0)
(0 -3.61752e-19 0)
(0 -3.71306e-19 0)
(0 -3.81322e-19 0)
(0 -3.91841e-19 0)
(0 -4.02906e-19 0)
(0 -4.14565e-19 0)
(0 -4.2686e-19 0)
(0 -4.39826e-19 0)
(0 -4.53488e-19 0)
(0 -4.67869e-19 0)
(0 -4.83031e-19 0)
(0 -4.99105e-19 0)
(0 -5.16314e-19 0)
(0 -5.34884e-19 0)
(0 -5.54865e-19 0)
(0 -5.75991e-19 0)
(0 -5.98072e-19 0)
(0 1.54832e-16 0)
(0 1.78245e-15 0)
(0 1.28156e-14 0)
(0 8.93564e-14 0)
(0 6.53922e-13 0)
(0 5.17282e-12 0)
(0 4.55188e-11 0)
(0 4.57308e-10 0)
(0 5.35797e-09 0)
(0 7.45242e-08 0)
(0 1.24397e-06 0)
(0 2.66913e-05 0)
(0 0.00128268 0)
(0 0.0750843 0)
(0 1.42321 0)
(0 3.76629 0)
(0 3.11356 0)
(0 -1.30892 0)
(0 -2.78155 0)
(0 -3.38757 0)
(0 -3.48199 0)
(0 -3.43577 0)
(0 -3.34697 0)
(0 -3.24362 0)
(0 -3.13891 0)
(0 -3.03859 0)
(0 -2.94457 0)
(0 -2.85689 0)
(0 -2.77483 0)
(0 -2.69745 0)
(0 -2.62385 0)
(0 -2.55328 0)
(0 -2.48516 0)
(0 -2.41897 0)
(0 -2.35438 0)
(0 -2.29114 0)
(0 -2.22914 0)
(0 -2.16836 0)
(0 -2.10892 0)
(0 -2.05106 0)
(0 -1.99539 0)
(0 -1.94334 0)
(0 -1.89772 0)
(0 -1.86232 0)
(0 -1.83896 0)
(0 -1.82289 0)
(0 -1.8008 0)
(0 -1.75609 0)
(0 -1.67902 0)
(0 -1.57251 0)
(0 -1.4487 0)
(0 -1.3211 0)
(0 -1.19936 0)
(0 -1.08847 0)
(0 -0.990092 0)
(0 -0.903994 0)
(0 -0.829099 0)
(0 -0.764049 0)
(0 -0.707491 0)
(0 -0.658196 0)
(0 -0.615089 0)
(0 -0.577259 0)
(0 -0.543933 0)
(0 -0.514462 0)
(0 -0.488301 0)
(0 -0.464983 0)
(0 -0.444115 0)
(0 -0.425353 0)
(0 -0.408403 0)
(0 -0.392978 0)
(0 -0.378789 0)
(-3.03768e-16 -0.365545 0)
(0 -0.353074 0)
(0 -0.341235 0)
(1.73058e-16 -0.32989 0)
(0 -0.318905 0)
(-1.88944e-16 -0.308159 0)
(0 -0.29754 0)
(1.03206e-16 -0.286958 0)
(0 -0.276343 0)
(0 -0.265645 0)
(0 -0.254834 0)
(1.23127e-16 -0.243896 0)
(0 -0.232827 0)
(0 -0.22163 0)
(0 -0.210309 0)
(0 -0.198868 0)
(0 -0.187307 0)
(0 -0.175628 0)
(0 -0.163838 0)
(-4.25765e-17 -0.15196 0)
(0 -0.140036 0)
(-4.55472e-17 -0.128145 0)
(0 -0.116416 0)
(0 -0.10505 0)
(0 -0.0943325 0)
(0 -0.0845606 0)
(0 -0.0758656 0)
(1.32463e-17 -0.0678959 0)
(0 -0.0595094 0)
(0 -0.0491759 0)
(0 -0.036987 0)
(0 -0.0263046 0)
(0 -0.0205257 0)
(0 -0.0236191 0)
(0 -0.0141874 0)
(0 0 0)
(0 0 0)
(0 0 0)
(0 0 0)
(0 0 0)
(0 0 0)
(0 0 0)
(0 0 0)
(0 0 0)
(0 0 0)
(0 0 0)
(0 0 0)
(0 0 0)
(0 0 0)
(0 0 0)
(0 0 0)
(0 0 0)
(0 0 0)
(0 0 0)
(0 0 0)
(0 0 0)
(0 0 0)
(0 0 0)
(0 0 0)
(0 0 0)
(0 0 0)
(0 0 0)
(0 0 0)
(0 0 0)
(0 0 0)
(0 0 0)
(0 0 0)
(0 0 0)
(0 0 0)
(0 0 0)
(0 0 0)
(0 0 0)
(0 0 0)
(0 0 0)
(0 0 0)
(0 0 0)
(0 0 0)
(0 0 0)
(0 0 0)
(0 0 0)
(0 0 0)
(0 0 0)
(0 0 0)
(0 0 0)
(0 0 0)
(0 0 0)
(0 0 0)
(0 0 0)
(0 0 0)
(0 0 0)
(0 0 0)
(0 0 0)
(0 0 0)
(0 0 0)
(0 0 0)
(0 0 0)
(0 0 0)
(0 0 0)
(0 0 0)
(0 0 0)
(0 0 0)
(0 0 0)
(0 0 0)
(0 0 0)
(0 0 0)
(0 0 0)
(0 0 0)
(0 0 0)
(0 0 0)
(0 0 0)
(0 0 0)
(0 0 0)
(0 0 0)
(0 0 0)
(0 0 0)
(0 0 0)
(0 0 0)
(0 0 0)
(0 0 0)
(0 0 0)
(0 0 0)
(0 0 0)
(0 0 0)
(0 0 0)
(0 0 0)
(0 0 0)
(0 0 0)
(0 0 0)
(0 0 0)
(0 0 0)
(0 0 0)
(0 0 0)
(0 0 0)
(0 0 0)
(0 0 0)
(0 0 0)
(0 0 0)
(0 0 0)
(0 0 0)
(0 0 0)
(0 0 0)
(0 0 0)
(0 0 0)
(0 0 0)
(0 0 0)
(0 0 0)
(0 0 0)
(0 0 0)
(0 0 0)
(0 0 0)
(0 0 0)
(0 0 0)
(0 0 0)
(0 0 0)
(0 0 0)
(0 0 0)
(0 0 0)
(0 0 0)
)
;

boundaryField
{
    inandouthalf11
    {
        type            cyclic;
    }
    inandouthalf12
    {
        type            cyclic;
    }
    inandouthalf21
    {
        type            cyclic;
    }
    inandouthalf22
    {
        type            cyclic;
    }
    inandouthalf31
    {
        type            cyclic;
    }
    inandouthalf32
    {
        type            cyclic;
    }
    inandouthalf41
    {
        type            cyclic;
    }
    inandouthalf42
    {
        type            cyclic;
    }
    top
    {
        type            symmetryPlane;
    }
    walls
    {
        type            calculated;
        value           uniform (0 0 0);
    }
    frontAndBackPlanes
    {
        type            empty;
    }
}


// ************************************************************************* //
