/*--------------------------------*- C++ -*----------------------------------*\
| =========                 |                                                 |
| \\      /  F ield         | OpenFOAM: The Open Source CFD Toolbox           |
|  \\    /   O peration     | Version:  2.4.x                                 |
|   \\  /    A nd           | Web:      www.OpenFOAM.org                      |
|    \\/     M anipulation  |                                                 |
\*---------------------------------------------------------------------------*/
FoamFile
{
    version     2.0;
    format      ascii;
    class       volVectorField;
    location    "12.2";
    object      gradPf;
}
// * * * * * * * * * * * * * * * * * * * * * * * * * * * * * * * * * * * * * //

dimensions      [0 1 -2 0 0 0 0];

internalField   nonuniform List<vector> 
360
(
(0 72.5997 0)
(0 81.1094 0)
(0 -0.0935413 0)
(0 -12.6767 0)
(-3.34406e-14 -5.20437 0)
(-3.34413e-14 -2.81598 0)
(-3.34422e-14 -3.62148 0)
(0 -4.11787 0)
(-3.34447e-14 -4.15881 0)
(0 -4.16511 0)
(-3.34472e-14 -4.15171 0)
(0 -4.14015 0)
(-3.34497e-14 -4.14712 0)
(0 -4.15467 0)
(0 -4.17269 0)
(0 -4.19061 0)
(0 -4.19819 0)
(-3.34562e-14 -4.20171 0)
(0 -4.22174 0)
(0 -4.22625 0)
(0 -4.23143 0)
(-3.34617e-14 -4.25173 0)
(0 -4.25705 0)
(0 -4.2678 0)
(0 -4.27898 0)
(-3.34674e-14 -4.28105 0)
(0 -4.29538 0)
(0 -4.31084 0)
(0 -4.31149 0)
(0 -4.31752 0)
(0 -4.33889 0)
(0 -4.33271 0)
(0 -4.34818 0)
(0 -4.3644 0)
(0 -4.36028 0)
(3.34827e-14 -4.36989 0)
(0 -4.37638 0)
(0 -4.40329 0)
(0 -4.3858 0)
(0 -4.39862 0)
(0 -4.42918 0)
(0 -4.40349 0)
(1.67472e-14 -4.42525 0)
(0 -4.44098 0)
(0 -4.43505 0)
(0 -4.45963 0)
(0 -4.44514 0)
(0 -4.44459 0)
(0 -4.48839 0)
(0 -4.47491 0)
(1.67545e-14 -4.46948 0)
(0 -4.49027 0)
(0 -4.49688 0)
(0 -4.49255 0)
(0 -4.50861 0)
(0 -4.51293 0)
(0 -4.5132 0)
(0 -4.53287 0)
(0 -4.51172 0)
(0 -4.53598 0)
(0 -4.54363 0)
(0 -4.54033 0)
(0 -4.55533 0)
(0 -4.5524 0)
(0 -4.55555 0)
(0 -4.56186 0)
(0 -4.57543 0)
(0 -4.57563 0)
(0 -4.56356 0)
(0 -4.57825 0)
(0 -4.60448 0)
(0 -4.58288 0)
(0 -4.585 0)
(0 -4.6029 0)
(0 -4.60789 0)
(0 -4.60831 0)
(0 -4.60124 0)
(0 -4.61189 0)
(0 -4.61913 0)
(0 -4.61689 0)
(0 -4.6184 0)
(0 -4.62678 0)
(0 -4.62912 0)
(0 -4.63164 0)
(0 -4.63444 0)
(0 -4.63772 0)
(0 -4.63976 0)
(0 -4.6394 0)
(0 -4.642 0)
(0 -4.64462 0)
(0 -4.64568 0)
(0 -4.64811 0)
(0 -4.65115 0)
(0 -4.65289 0)
(0 -4.65434 0)
(0 -4.65551 0)
(0 -4.65609 0)
(0 -4.65626 0)
(0 -4.65643 0)
(0 -4.65648 0)
(0 -4.65627 0)
(0 -4.65597 0)
(0 -4.65538 0)
(0 -4.65425 0)
(0 -4.6526 0)
(0 -4.65039 0)
(0 -4.64757 0)
(0 -4.64414 0)
(0 -4.64009 0)
(0 -4.63537 0)
(0 -4.62993 0)
(0 -4.62375 0)
(0 -4.6168 0)
(0 -4.60908 0)
(0 -4.6006 0)
(0 -4.59136 0)
(0 -4.58141 0)
(0 -4.57079 0)
(0 -4.55953 0)
(0 -4.54764 0)
(0 -4.53502 0)
(0 -4.52147 0)
(0 -4.50662 0)
(0 -4.49012 0)
(0 -4.47191 0)
(0 -4.45252 0)
(0 -4.43304 0)
(0 -4.4143 0)
(0 -4.39545 0)
(0 -4.37328 0)
(0 -4.3457 0)
(0 -4.32011 0)
(0 -4.31615 0)
(0 -4.34449 0)
(0 -4.37935 0)
(0 -4.38462 0)
(0 -4.38251 0)
(0 -4.46295 0)
(0 -4.66289 0)
(0 -4.76405 0)
(0 -4.91272 0)
(0 -14.4377 0)
(0 -10.6566 0)
(0 -0.272544 0)
(0 -3.76391 0)
(0 -7.50729 0)
(0 -9.65729 0)
(0 -5.92651 0)
(0 0 0)
(0 0 0)
(0 0 0)
(0 0 0)
(0 0 0)
(0 0 0)
(0 0 0)
(0 0 0)
(0 0 0)
(0 0 0)
(0 0 0)
(0 0 0)
(0 0 0)
(0 0 0)
(0 0 0)
(0 0 0)
(0 0 0)
(0 0 0)
(0 0 0)
(0 0 0)
(0 0 0)
(0 0 0)
(0 0 0)
(0 0 0)
(0 0 0)
(0 0 0)
(0 0 0)
(0 0 0)
(0 0 0)
(0 0 0)
(0 0 0)
(0 0 0)
(0 0 0)
(0 0 0)
(0 0 0)
(0 0 0)
(0 0 0)
(0 0 0)
(0 0 0)
(0 0 0)
(0 0 0)
(0 0 0)
(0 0 0)
(0 0 0)
(0 0 0)
(0 0 0)
(0 0 0)
(0 0 0)
(0 0 0)
(0 0 0)
(0 0 0)
(0 0 0)
(0 0 0)
(0 0 0)
(0 0 0)
(0 0 0)
(0 0 0)
(0 0 0)
(0 0 0)
(0 0 0)
(0 0 0)
(0 0 0)
(0 0 0)
(0 0 0)
(0 0 0)
(0 0 0)
(0 0 0)
(0 0 0)
(0 0 0)
(0 0 0)
(0 0 0)
(0 0 0)
(0 0 0)
(0 0 0)
(0 0 0)
(0 0 0)
(0 0 0)
(0 0 0)
(0 0 0)
(0 0 0)
(0 0 0)
(0 0 0)
(0 0 0)
(0 0 0)
(0 0 0)
(0 0 0)
(0 0 0)
(0 0 0)
(0 0 0)
(0 0 0)
(0 0 0)
(0 0 0)
(0 0 0)
(0 0 0)
(0 0 0)
(0 0 0)
(0 0 0)
(0 0 0)
(0 0 0)
(0 0 0)
(0 0 0)
(0 0 0)
(0 0 0)
(0 0 0)
(0 0 0)
(0 0 0)
(0 0 0)
(0 0 0)
(0 0 0)
(0 0 0)
(0 0 0)
(0 0 0)
(0 0 0)
(0 0 0)
(0 0 0)
(0 0 0)
(0 0 0)
(0 0 0)
(0 0 0)
(0 0 0)
(0 0 0)
(0 0 0)
(0 0 0)
(0 0 0)
(0 0 0)
(0 0 0)
(0 0 0)
(0 0 0)
(0 0 0)
(0 0 0)
(0 0 0)
(0 0 0)
(0 0 0)
(0 0 0)
(0 0 0)
(0 0 0)
(0 0 0)
(0 0 0)
(0 0 0)
(0 0 0)
(0 0 0)
(0 0 0)
(0 0 0)
(0 0 0)
(0 0 0)
(0 0 0)
(0 0 0)
(0 0 0)
(0 0 0)
(0 0 0)
(0 0 0)
(0 0 0)
(0 0 0)
(0 0 0)
(0 0 0)
(0 0 0)
(0 0 0)
(0 0 0)
(0 0 0)
(0 0 0)
(0 0 0)
(0 0 0)
(0 0 0)
(0 0 0)
(0 0 0)
(0 0 0)
(0 0 0)
(0 0 0)
(0 0 0)
(0 0 0)
(0 0 0)
(0 0 0)
(0 0 0)
(0 0 0)
(0 0 0)
(0 0 0)
(0 0 0)
(0 0 0)
(0 0 0)
(0 0 0)
(0 0 0)
(0 0 0)
(0 0 0)
(0 0 0)
(0 0 0)
(0 0 0)
(0 0 0)
(0 0 0)
(0 0 0)
(0 0 0)
(0 0 0)
(0 0 0)
(0 0 0)
(0 0 0)
(0 0 0)
(0 0 0)
(0 0 0)
(0 0 0)
(0 0 0)
(0 0 0)
(0 0 0)
(0 0 0)
(0 0 0)
(0 0 0)
(0 0 0)
(0 0 0)
(0 0 0)
(0 0 0)
(0 0 0)
(0 0 0)
(0 0 0)
(0 0 0)
)
;

boundaryField
{
    inandouthalf11
    {
        type            cyclic;
    }
    inandouthalf12
    {
        type            cyclic;
    }
    inandouthalf21
    {
        type            cyclic;
    }
    inandouthalf22
    {
        type            cyclic;
    }
    inandouthalf31
    {
        type            cyclic;
    }
    inandouthalf32
    {
        type            cyclic;
    }
    inandouthalf41
    {
        type            cyclic;
    }
    inandouthalf42
    {
        type            cyclic;
    }
    top
    {
        type            symmetryPlane;
    }
    walls
    {
        type            calculated;
        value           uniform (0 0 0);
    }
    frontAndBackPlanes
    {
        type            empty;
    }
}


// ************************************************************************* //
