/*--------------------------------*- C++ -*----------------------------------*\
| =========                 |                                                 |
| \\      /  F ield         | OpenFOAM: The Open Source CFD Toolbox           |
|  \\    /   O peration     | Version:  2.4.x                                 |
|   \\  /    A nd           | Web:      www.OpenFOAM.org                      |
|    \\/     M anipulation  |                                                 |
\*---------------------------------------------------------------------------*/
FoamFile
{
    version     2.0;
    format      ascii;
    class       volScalarField;
    location    "12.2";
    object      k_0;
}
// * * * * * * * * * * * * * * * * * * * * * * * * * * * * * * * * * * * * * //

dimensions      [0 2 -2 0 0 0 0];

internalField   nonuniform List<scalar> 
360
(
1e-20
1e-20
1e-20
1e-20
1e-20
1e-20
1e-20
1e-20
1e-20
1e-20
1e-20
1e-20
1e-20
1e-20
1e-20
1e-20
1e-20
1e-20
1e-20
1e-20
1e-20
1e-20
1e-20
1e-20
1e-20
1e-20
1e-20
1e-20
1e-20
1e-20
1e-20
1e-20
1e-20
1e-20
1e-20
1e-20
1e-20
1e-20
1e-20
1e-20
1e-20
1e-20
1e-20
1e-20
1e-20
1e-20
1e-20
1e-20
1e-20
1e-20
1e-20
1e-20
1e-20
1e-20
1e-20
1e-20
1e-20
1e-20
1e-20
1e-20
1e-20
1e-20
1e-20
1e-20
1e-20
1e-20
1e-20
1e-20
1e-20
1e-20
1e-20
1e-20
1e-20
1e-20
1e-20
1e-20
1e-20
1e-20
1e-20
1e-20
1e-20
1e-20
1e-20
1e-20
1e-20
1e-20
1e-20
1e-20
1e-20
1e-20
1e-20
1e-20
1e-20
1e-20
1e-20
1e-20
1e-20
1e-20
1e-20
1e-20
1e-20
1e-20
1e-20
1e-20
1e-20
1e-20
1e-20
1e-20
1e-20
1e-20
1e-20
1e-20
1e-20
1e-20
1e-20
1e-20
1e-20
1e-20
1e-20
1e-20
1e-20
1e-20
1e-20
1e-20
1e-20
1e-20
1e-20
1e-20
1e-20
1e-20
1e-20
1e-20
1.91803e-20
1.15422e-19
7.78338e-19
5.41961e-18
3.96832e-17
3.13948e-16
2.76246e-15
2.77611e-14
3.25532e-13
4.53579e-12
7.75222e-11
1.5621e-09
3.82088e-08
1.16474e-06
4.13452e-05
0.000927698
0.0043313
0.00650966
0.00764887
0.00831
0.00870967
0.00894844
0.00908169
0.00914155
0.00914717
0.00911033
0.00903859
0.00893719
0.00881001
0.00866013
0.00849018
0.00830246
0.00809903
0.0078818
0.00765257
0.00741301
0.00716475
0.00690937
0.00664843
0.00638349
0.00611612
0.00584792
0.0055805
0.00531556
0.00505479
0.0047999
0.00455258
0.00431446
0.00408706
0.00387178
0.00366982
0.00348217
0.00330953
0.00315229
0.00301052
0.00288395
0.00277205
0.00267403
0.00258892
0.00251565
0.00245309
0.00240009
0.00235556
0.00231848
0.0022879
0.00226298
0.00224296
0.00222716
0.00221501
0.00220591
0.00219945
0.00219538
0.00219346
0.00219345
0.00219514
0.00219834
0.00220287
0.00220854
0.0022152
0.00222267
0.00223081
0.00223947
0.0022485
0.00225776
0.0022671
0.00227638
0.00228546
0.00229419
0.00230243
0.00231003
0.00231685
0.00232273
0.00232752
0.00233107
0.00233322
0.00233382
0.0023327
0.00232972
0.0023247
0.00231749
0.00230794
0.00229588
0.00228117
0.00226364
0.00224315
0.00221957
0.00219276
0.0021626
0.00212897
0.00209177
0.00205093
0.00200637
0.00195804
0.00190593
0.00185004
0.00179042
0.00172713
0.0016603
0.0015901
0.00151673
0.00144049
0.00136171
0.00128081
0.00119827
0.00111466
0.00103061
0.000946852
0.000864144
0.000783303
0.000705158
0.000630508
0.00056008
0.000494469
0.000434089
0.000379127
0.000329528
0.000285001
0.00024506
0.000209093
0.000176432
0.000146433
0.000118548
9.23877e-05
6.77784e-05
4.48466e-05
2.41962e-05
7.34783e-06
5.85614e-07
1.08953e-08
1.43574e-10
1.76986e-12
2.05403e-14
2.24512e-16
2.31594e-18
2.92131e-20
1e-20
1e-20
1e-20
1e-20
1e-20
1e-20
1e-20
1e-20
1e-20
1e-20
1e-20
1e-20
1e-20
1e-20
1e-20
1e-20
1e-20
1e-20
1e-20
1e-20
1e-20
1e-20
1e-20
1e-20
1e-20
1e-20
1e-20
1e-20
1e-20
1e-20
1e-20
1e-20
1e-20
1e-20
1e-20
1e-20
1e-20
1e-20
1e-20
1e-20
1e-20
1e-20
1e-20
1e-20
1e-20
1e-20
1e-20
1e-20
1e-20
1e-20
1e-20
1e-20
1e-20
1e-20
1e-20
1e-20
1e-20
1e-20
1e-20
1e-20
1e-20
1e-20
1e-20
1e-20
1e-20
1e-20
1e-20
1e-20
1e-20
1e-20
1e-20
1e-20
1e-20
)
;

boundaryField
{
    inandouthalf11
    {
        type            cyclic;
    }
    inandouthalf12
    {
        type            cyclic;
    }
    inandouthalf21
    {
        type            cyclic;
    }
    inandouthalf22
    {
        type            cyclic;
    }
    inandouthalf31
    {
        type            cyclic;
    }
    inandouthalf32
    {
        type            cyclic;
    }
    inandouthalf41
    {
        type            cyclic;
    }
    inandouthalf42
    {
        type            cyclic;
    }
    top
    {
        type            symmetryPlane;
    }
    walls
    {
        type            zeroGradient;
    }
    frontAndBackPlanes
    {
        type            empty;
    }
}


// ************************************************************************* //
