/*--------------------------------*- C++ -*----------------------------------*\
| =========                 |                                                 |
| \\      /  F ield         | OpenFOAM: The Open Source CFD Toolbox           |
|  \\    /   O peration     | Version:  2.4.x                                 |
|   \\  /    A nd           | Web:      www.OpenFOAM.org                      |
|    \\/     M anipulation  |                                                 |
\*---------------------------------------------------------------------------*/
FoamFile
{
    version     2.0;
    format      ascii;
    class       volScalarField;
    location    "12.2";
    object      pa;
}
// * * * * * * * * * * * * * * * * * * * * * * * * * * * * * * * * * * * * * //

dimensions      [1 -1 -2 0 0 0 0];

internalField   nonuniform List<scalar> 
360
(
2.90393e-16
2.92916e-16
2.93176e-16
2.92913e-16
2.9279e-16
2.92752e-16
2.92702e-16
2.92638e-16
2.92573e-16
2.92506e-16
2.92439e-16
2.92373e-16
2.92305e-16
2.92237e-16
2.92169e-16
2.92099e-16
2.92029e-16
2.91959e-16
2.91887e-16
2.91815e-16
2.91742e-16
2.91669e-16
2.91594e-16
2.91519e-16
2.91443e-16
2.91367e-16
2.9129e-16
2.91211e-16
2.91132e-16
2.91053e-16
2.90972e-16
2.90891e-16
2.90809e-16
2.90725e-16
2.90642e-16
2.90557e-16
2.90471e-16
2.90385e-16
2.90297e-16
2.90209e-16
2.90119e-16
2.90029e-16
2.89938e-16
2.89845e-16
2.89752e-16
2.89657e-16
2.89562e-16
2.89466e-16
2.89368e-16
2.89269e-16
2.8917e-16
2.89068e-16
2.88966e-16
2.88863e-16
2.88759e-16
2.88652e-16
2.88546e-16
2.88437e-16
2.88327e-16
2.88217e-16
2.88103e-16
2.8799e-16
2.87874e-16
2.87758e-16
2.87639e-16
2.8752e-16
2.87398e-16
2.87275e-16
2.8715e-16
2.87025e-16
2.86896e-16
2.86766e-16
2.86635e-16
2.86502e-16
2.86366e-16
2.86229e-16
2.8609e-16
2.85949e-16
2.85805e-16
2.8566e-16
2.85512e-16
2.85362e-16
2.8521e-16
2.85055e-16
2.84898e-16
2.84738e-16
2.84575e-16
2.8441e-16
2.84243e-16
2.84072e-16
2.83898e-16
2.83722e-16
2.83542e-16
2.83359e-16
2.83172e-16
2.82982e-16
2.82788e-16
2.82591e-16
2.8239e-16
2.82185e-16
2.81976e-16
2.81762e-16
2.81544e-16
2.81321e-16
2.81094e-16
2.80862e-16
2.80624e-16
2.80381e-16
2.80133e-16
2.79878e-16
2.79618e-16
2.79351e-16
2.79078e-16
2.78798e-16
2.78511e-16
2.78217e-16
2.77914e-16
2.77604e-16
2.77285e-16
2.76957e-16
2.76619e-16
2.76271e-16
2.75913e-16
2.75543e-16
2.75162e-16
2.74768e-16
2.74361e-16
2.7394e-16
2.73504e-16
2.73051e-16
2.72581e-16
2.72093e-16
5.20539e-16
3.12573e-15
2.1031e-14
1.46084e-13
1.06682e-12
8.41549e-12
7.38033e-11
7.38823e-10
8.62689e-09
1.19635e-07
1.9919e-06
4.24734e-05
0.00203879
0.119168
2.25682
6.05313
5.83337
5.06406
4.15543
3.34486
2.66755
2.11591
1.67385
1.32322
1.04674
0.82932
0.658408
0.523905
0.417837
0.333976
0.267488
0.214626
0.172485
0.138809
0.111837
0.0901927
0.0727945
0.058789
0.0475003
0.0383908
0.0310303
0.0250712
0.0202306
0.0162816
0.0130514
0.010419
0.00830047
0.00662664
0.00532661
0.00432688
0.00355888
0.0029652
0.00250127
0.00213396
0.00183913
0.00159925
0.00140156
0.00123671
0.00109774
0.000979406
0.000877742
0.00078968
0.000712832
0.000645316
0.000585635
0.000532588
0.000485202
0.000442681
0.000404374
0.000369391
0.000337079
0.000307203
0.000279562
0.00025398
0.000230306
0.000208406
0.000188164
0.000169474
0.000152242
0.00013638
0.000121807
0.000108444
9.62167e-05
8.50536e-05
7.48868e-05
6.56511e-05
5.7285e-05
4.97305e-05
4.29333e-05
3.68418e-05
3.14075e-05
2.65831e-05
2.23223e-05
1.8578e-05
1.52997e-05
1.24327e-05
9.91979e-06
7.71096e-06
5.78213e-06
4.15798e-06
2.9007e-06
2.01899e-06
1.38389e-06
8.28145e-07
0
0
0
0
0
0
0
0
0
0
0
0
0
0
0
0
0
0
0
0
0
0
0
0
0
0
0
0
0
0
0
0
0
0
0
0
0
0
0
0
0
0
0
0
0
0
0
0
0
0
0
0
0
0
0
0
0
0
0
0
0
0
0
0
0
0
0
0
0
0
0
0
0
0
0
0
0
0
0
0
0
0
0
0
0
0
0
0
0
0
0
0
0
0
0
0
0
0
0
0
0
0
0
0
0
0
0
0
0
0
0
0
0
0
0
0
0
0
0
0
0
0
0
0
)
;

boundaryField
{
    inandouthalf11
    {
        type            cyclic;
    }
    inandouthalf12
    {
        type            cyclic;
    }
    inandouthalf21
    {
        type            cyclic;
    }
    inandouthalf22
    {
        type            cyclic;
    }
    inandouthalf31
    {
        type            cyclic;
    }
    inandouthalf32
    {
        type            cyclic;
    }
    inandouthalf41
    {
        type            cyclic;
    }
    inandouthalf42
    {
        type            cyclic;
    }
    top
    {
        type            symmetryPlane;
    }
    walls
    {
        type            calculated;
        value           uniform 2.90393e-16;
    }
    frontAndBackPlanes
    {
        type            empty;
    }
}


// ************************************************************************* //
