/*--------------------------------*- C++ -*----------------------------------*\
| =========                 |                                                 |
| \\      /  F ield         | OpenFOAM: The Open Source CFD Toolbox           |
|  \\    /   O peration     | Version:  2.4.x                                 |
|   \\  /    A nd           | Web:      www.OpenFOAM.org                      |
|    \\/     M anipulation  |                                                 |
\*---------------------------------------------------------------------------*/
FoamFile
{
    version     2.0;
    format      ascii;
    class       surfaceScalarField;
    location    "12.2";
    object      phia_0;
}
// * * * * * * * * * * * * * * * * * * * * * * * * * * * * * * * * * * * * * //

dimensions      [0 3 -1 0 0 0 0];

internalField   nonuniform List<scalar> 
359
(
-5.19764e-15
-1.2984e-14
-2.02633e-14
-2.73838e-14
-3.48512e-14
-4.26509e-14
-5.06921e-14
-5.89669e-14
-6.75002e-14
-7.63176e-14
-8.54305e-14
-9.48372e-14
-1.04532e-13
-1.14505e-13
-1.24743e-13
-1.35235e-13
-1.45964e-13
-1.5691e-13
-1.68052e-13
-1.79369e-13
-1.90835e-13
-2.0243e-13
-2.14128e-13
-2.25906e-13
-2.3774e-13
-2.49607e-13
-2.61484e-13
-2.73352e-13
-2.8519e-13
-2.96978e-13
-3.08699e-13
-3.20339e-13
-3.31878e-13
-3.43311e-13
-3.54619e-13
-3.65797e-13
-3.76832e-13
-3.87721e-13
-3.98458e-13
-4.09034e-13
-4.19451e-13
-4.29705e-13
-4.3979e-13
-4.49714e-13
-4.59472e-13
-4.69067e-13
-4.78502e-13
-4.87773e-13
-4.96888e-13
-5.05853e-13
-5.14665e-13
-5.23333e-13
-5.31857e-13
-5.40245e-13
-5.48497e-13
-5.56623e-13
-5.6462e-13
-5.72499e-13
-5.8026e-13
-5.87905e-13
-5.95444e-13
-6.02877e-13
-6.10211e-13
-6.17448e-13
-6.24592e-13
-6.31646e-13
-6.38612e-13
-6.45495e-13
-6.52296e-13
-6.59016e-13
-6.65661e-13
-6.72235e-13
-6.78734e-13
-6.85166e-13
-6.91531e-13
-6.97833e-13
-7.04069e-13
-7.10242e-13
-7.16353e-13
-7.22403e-13
-7.28391e-13
-7.3432e-13
-7.40191e-13
-7.46004e-13
-7.51762e-13
-7.57463e-13
-7.63108e-13
-7.68696e-13
-7.74227e-13
-7.797e-13
-7.85115e-13
-7.90471e-13
-7.95769e-13
-8.01008e-13
-8.0619e-13
-8.11314e-13
-8.16379e-13
-8.21385e-13
-8.26332e-13
-8.31219e-13
-8.36046e-13
-8.40814e-13
-8.45521e-13
-8.50169e-13
-8.54758e-13
-8.59289e-13
-8.63763e-13
-8.68181e-13
-8.72544e-13
-8.76853e-13
-8.8111e-13
-8.85315e-13
-8.8947e-13
-8.93576e-13
-8.97633e-13
-9.01641e-13
-9.05597e-13
-9.095e-13
-9.13347e-13
-9.17133e-13
-9.20853e-13
-9.24502e-13
-9.28074e-13
-9.31565e-13
-9.34974e-13
-9.38303e-13
-9.41561e-13
-9.44763e-13
-9.4793e-13
-9.51086e-13
-9.54253e-13
-9.57444e-13
-9.60651e-13
-9.63829e-13
-9.6687e-13
-9.69583e-13
-9.7174e-13
-9.73198e-13
-9.74001e-13
-9.74354e-13
-9.74508e-13
-9.7449e-13
-9.75003e-13
-9.75187e-13
-9.75293e-13
-9.75224e-13
-1.15082e-11
-5.14995e-10
-8.38411e-10
-1.01185e-09
-1.10529e-09
-1.1501e-09
-1.14627e-09
-1.08883e-09
-9.71293e-10
-7.87808e-10
-5.34255e-10
-2.08347e-10
1.90335e-10
6.60385e-10
1.19923e-09
1.80318e-09
2.4676e-09
3.18705e-09
3.9552e-09
4.76478e-09
5.60747e-09
6.4736e-09
7.35192e-09
8.22923e-09
9.08985e-09
9.91486e-09
1.06799e-08
1.13506e-08
1.18768e-08
1.219e-08
1.22146e-08
1.18951e-08
1.12226e-08
1.02405e-08
9.02588e-09
7.66367e-09
6.22943e-09
4.78225e-09
3.36457e-09
2.00481e-09
7.20703e-10
-4.77789e-10
-1.58614e-09
-2.60356e-09
-3.5317e-09
-4.37386e-09
-5.13432e-09
-5.81795e-09
-6.42987e-09
-6.97533e-09
-7.45951e-09
-7.88745e-09
-8.26402e-09
-8.59384e-09
-8.88128e-09
-9.13519e-09
-9.35759e-09
-9.55062e-09
-9.71647e-09
-9.85739e-09
-9.97562e-09
-1.00734e-08
-1.01527e-08
-1.02157e-08
-1.02643e-08
-1.03e-08
-1.03246e-08
-1.03393e-08
-1.03454e-08
-1.0344e-08
-1.0336e-08
-1.03224e-08
-1.03037e-08
-1.02808e-08
-1.0254e-08
-1.02237e-08
-1.019e-08
-1.01526e-08
-1.01111e-08
-1.00648e-08
-1.00131e-08
-9.95729e-09
-9.90177e-09
-9.85781e-09
-9.84646e-09
-9.89649e-09
-1.0026e-08
-1.01993e-08
-1.03352e-08
-1.0468e-08
-1.1603e-08
-1.25099e-08
-1.32678e-08
-1.38435e-08
-1.42434e-08
-1.44742e-08
-1.45448e-08
-1.44664e-08
-1.42539e-08
-1.39326e-08
-1.35192e-08
-1.3005e-08
-1.27855e-08
-1.17979e-08
-1.34282e-08
-3.72187e-08
-1.2847e-07
-1.5858e-07
-1.58588e-07
-1.58461e-07
-1.58466e-07
-1.58459e-07
-1.58451e-07
-1.5844e-07
-1.58427e-07
-1.58413e-07
-1.58397e-07
-1.58379e-07
-1.58362e-07
-1.58344e-07
-1.58328e-07
-1.58313e-07
-1.58299e-07
-1.58287e-07
-1.58278e-07
-1.5827e-07
-1.58264e-07
-1.58259e-07
-1.58255e-07
-1.5825e-07
-1.58244e-07
-1.58235e-07
-1.58212e-07
-1.582e-07
-1.582e-07
-1.582e-07
-1.582e-07
-1.582e-07
-1.582e-07
-1.582e-07
-1.582e-07
-1.582e-07
-1.582e-07
-1.582e-07
-1.582e-07
-1.582e-07
-1.582e-07
-1.582e-07
-1.582e-07
-1.582e-07
-1.582e-07
-1.582e-07
-1.582e-07
-1.582e-07
-1.582e-07
-1.582e-07
-1.582e-07
-1.582e-07
-1.582e-07
-1.582e-07
-1.582e-07
-1.582e-07
-1.582e-07
-1.582e-07
-1.582e-07
-1.582e-07
-1.582e-07
-1.582e-07
-1.582e-07
-1.582e-07
-1.582e-07
-1.582e-07
-1.582e-07
-1.582e-07
-1.582e-07
-1.582e-07
-1.582e-07
-1.582e-07
-1.582e-07
-1.582e-07
-1.582e-07
-1.582e-07
-1.582e-07
-1.582e-07
-1.582e-07
-1.582e-07
-1.582e-07
-1.582e-07
-1.582e-07
-1.582e-07
-1.582e-07
-1.582e-07
-1.582e-07
-1.582e-07
-1.582e-07
-1.582e-07
-1.582e-07
-1.582e-07
-1.582e-07
-1.582e-07
-1.582e-07
-1.582e-07
-1.582e-07
-1.582e-07
-1.582e-07
-1.582e-07
-1.582e-07
-1.582e-07
-1.582e-07
-1.58199e-07
-1.58182e-07
-1.57476e-07
-1.32606e-07
)
;

boundaryField
{
    inandouthalf11
    {
        type            cyclic;
        value           nonuniform List<scalar> 
100
(
1.72114e-38
5.73703e-16
1.19665e-15
1.7652e-15
2.35716e-15
2.9888e-15
3.64737e-15
4.32798e-15
5.03265e-15
5.76402e-15
6.52374e-15
7.31246e-15
8.13007e-15
8.9761e-15
9.84983e-15
1.07504e-14
1.16767e-14
1.26274e-14
1.36008e-14
1.45953e-14
1.56089e-14
1.66396e-14
1.76854e-14
1.87443e-14
1.98142e-14
2.0893e-14
2.19786e-14
2.30691e-14
2.41626e-14
2.52572e-14
2.63511e-14
2.74428e-14
2.85306e-14
2.96134e-14
3.06898e-14
3.17586e-14
3.28189e-14
3.38697e-14
3.49105e-14
3.59405e-14
3.69591e-14
3.79662e-14
3.89611e-14
3.99438e-14
4.09141e-14
4.18722e-14
4.28178e-14
4.3751e-14
4.46718e-14
4.55807e-14
4.64779e-14
4.73634e-14
4.82377e-14
4.91009e-14
4.99535e-14
5.07957e-14
5.1628e-14
5.24506e-14
5.32639e-14
5.4068e-14
5.48635e-14
5.56508e-14
5.64302e-14
5.7202e-14
5.79667e-14
5.87243e-14
5.94753e-14
6.02199e-14
6.09583e-14
6.16907e-14
6.24174e-14
6.31388e-14
6.3855e-14
6.45662e-14
6.52727e-14
6.59748e-14
6.66725e-14
6.73658e-14
6.80548e-14
6.87398e-14
6.94206e-14
7.00975e-14
7.07706e-14
7.144e-14
7.21058e-14
7.27681e-14
7.34269e-14
7.40823e-14
7.4734e-14
7.53822e-14
7.60267e-14
7.66675e-14
7.73047e-14
7.79383e-14
7.85683e-14
7.91949e-14
7.98179e-14
8.04374e-14
8.10535e-14
8.1666e-14
)
;
    }
    inandouthalf12
    {
        type            cyclic;
        value           nonuniform List<scalar> 
100
(
-1.72114e-38
-5.73703e-16
-1.19665e-15
-1.7652e-15
-2.35716e-15
-2.9888e-15
-3.64737e-15
-4.32798e-15
-5.03265e-15
-5.76402e-15
-6.52374e-15
-7.31246e-15
-8.13007e-15
-8.9761e-15
-9.84983e-15
-1.07504e-14
-1.16767e-14
-1.26274e-14
-1.36008e-14
-1.45953e-14
-1.56089e-14
-1.66396e-14
-1.76854e-14
-1.87443e-14
-1.98142e-14
-2.0893e-14
-2.19786e-14
-2.30691e-14
-2.41626e-14
-2.52572e-14
-2.63511e-14
-2.74428e-14
-2.85306e-14
-2.96134e-14
-3.06898e-14
-3.17586e-14
-3.28189e-14
-3.38697e-14
-3.49105e-14
-3.59405e-14
-3.69591e-14
-3.79662e-14
-3.89611e-14
-3.99438e-14
-4.09141e-14
-4.18722e-14
-4.28178e-14
-4.3751e-14
-4.46718e-14
-4.55807e-14
-4.64779e-14
-4.73634e-14
-4.82377e-14
-4.91009e-14
-4.99535e-14
-5.07957e-14
-5.1628e-14
-5.24506e-14
-5.32639e-14
-5.4068e-14
-5.48635e-14
-5.56508e-14
-5.64302e-14
-5.7202e-14
-5.79667e-14
-5.87243e-14
-5.94753e-14
-6.02199e-14
-6.09583e-14
-6.16907e-14
-6.24174e-14
-6.31388e-14
-6.3855e-14
-6.45662e-14
-6.52727e-14
-6.59748e-14
-6.66725e-14
-6.73658e-14
-6.80548e-14
-6.87398e-14
-6.94206e-14
-7.00975e-14
-7.07706e-14
-7.144e-14
-7.21058e-14
-7.27681e-14
-7.34269e-14
-7.40823e-14
-7.4734e-14
-7.53822e-14
-7.60267e-14
-7.66675e-14
-7.73047e-14
-7.79383e-14
-7.85683e-14
-7.91949e-14
-7.98179e-14
-8.04374e-14
-8.10535e-14
-8.1666e-14
)
;
    }
    inandouthalf21
    {
        type            cyclic;
        value           nonuniform List<scalar> 
100
(
8.2275e-14
8.28806e-14
8.34829e-14
8.40818e-14
8.46777e-14
8.52707e-14
8.58609e-14
8.64488e-14
8.70344e-14
8.76183e-14
8.82007e-14
8.8782e-14
8.93626e-14
8.99429e-14
9.05233e-14
9.11041e-14
9.16855e-14
9.22677e-14
9.28506e-14
9.34341e-14
9.4018e-14
9.4602e-14
9.51855e-14
9.57685e-14
9.63509e-14
9.69336e-14
9.75182e-14
9.81078e-14
9.87072e-14
9.93224e-14
9.99606e-14
1.00629e-13
1.01332e-13
1.0207e-13
1.02829e-13
1.03574e-13
1.04243e-13
1.04764e-13
1.051e-13
1.05273e-13
1.05348e-13
1.0539e-13
1.0544e-13
1.05546e-13
1.05609e-13
1.0566e-13
1.05772e-13
2.80248e-08
1.30313e-07
2.25795e-07
3.02663e-07
3.66654e-07
4.20896e-07
4.67546e-07
5.08146e-07
5.43845e-07
5.75525e-07
6.03877e-07
6.29447e-07
6.52667e-07
6.73883e-07
6.93366e-07
7.11337e-07
7.27969e-07
7.43401e-07
7.57748e-07
7.71099e-07
7.8353e-07
7.95101e-07
8.05864e-07
8.15863e-07
8.25136e-07
8.33718e-07
8.41643e-07
8.48942e-07
8.55649e-07
8.618e-07
8.67433e-07
8.72592e-07
8.77319e-07
8.81657e-07
8.85645e-07
8.89317e-07
8.92704e-07
8.9583e-07
8.98718e-07
9.01388e-07
9.03856e-07
9.06139e-07
9.0825e-07
9.10202e-07
9.12007e-07
9.13675e-07
9.15216e-07
9.1664e-07
9.17955e-07
9.19169e-07
9.2029e-07
9.21323e-07
9.22276e-07
)
;
    }
    inandouthalf22
    {
        type            cyclic;
        value           nonuniform List<scalar> 
100
(
-8.2275e-14
-8.28806e-14
-8.34829e-14
-8.40818e-14
-8.46777e-14
-8.52707e-14
-8.58609e-14
-8.64488e-14
-8.70344e-14
-8.76183e-14
-8.82007e-14
-8.8782e-14
-8.93626e-14
-8.99429e-14
-9.05233e-14
-9.11041e-14
-9.16855e-14
-9.22677e-14
-9.28506e-14
-9.34341e-14
-9.4018e-14
-9.4602e-14
-9.51855e-14
-9.57685e-14
-9.63509e-14
-9.69336e-14
-9.75182e-14
-9.81078e-14
-9.87072e-14
-9.93224e-14
-9.99606e-14
-1.00629e-13
-1.01332e-13
-1.0207e-13
-1.02829e-13
-1.03574e-13
-1.04243e-13
-1.04764e-13
-1.051e-13
-1.05273e-13
-1.05348e-13
-1.0539e-13
-1.0544e-13
-1.05546e-13
-1.05609e-13
-1.0566e-13
-1.05772e-13
-2.80248e-08
-1.30313e-07
-2.25795e-07
-3.02663e-07
-3.66654e-07
-4.20896e-07
-4.67546e-07
-5.08146e-07
-5.43845e-07
-5.75525e-07
-6.03877e-07
-6.29447e-07
-6.52667e-07
-6.73883e-07
-6.93366e-07
-7.11337e-07
-7.27969e-07
-7.43401e-07
-7.57748e-07
-7.71099e-07
-7.8353e-07
-7.95101e-07
-8.05864e-07
-8.15863e-07
-8.25136e-07
-8.33718e-07
-8.41643e-07
-8.48942e-07
-8.55649e-07
-8.618e-07
-8.67433e-07
-8.72592e-07
-8.77319e-07
-8.81657e-07
-8.85645e-07
-8.89317e-07
-8.92704e-07
-8.9583e-07
-8.98718e-07
-9.01388e-07
-9.03856e-07
-9.06139e-07
-9.0825e-07
-9.10202e-07
-9.12007e-07
-9.13675e-07
-9.15216e-07
-9.1664e-07
-9.17955e-07
-9.19169e-07
-9.2029e-07
-9.21323e-07
-9.22276e-07
)
;
    }
    inandouthalf31
    {
        type            cyclic;
        value           nonuniform List<scalar> 
110
(
9.23158e-07
9.42729e-07
9.62663e-07
9.82964e-07
1.00364e-06
1.0247e-06
1.04616e-06
1.06801e-06
1.09028e-06
1.11296e-06
1.13607e-06
1.15962e-06
1.18361e-06
1.20806e-06
1.23297e-06
1.25836e-06
1.28424e-06
1.31062e-06
1.3375e-06
1.36491e-06
1.39285e-06
1.42133e-06
1.45037e-06
1.47998e-06
1.51017e-06
1.54095e-06
1.57233e-06
1.60434e-06
1.63698e-06
1.67026e-06
1.70421e-06
1.73883e-06
1.77414e-06
1.81016e-06
1.84689e-06
1.88437e-06
1.92258e-06
1.94735e-06
1.98233e-06
2.01776e-06
2.05373e-06
2.09024e-06
2.12731e-06
2.16495e-06
2.20318e-06
2.24201e-06
2.28147e-06
2.32157e-06
2.36232e-06
2.40381e-06
2.44615e-06
2.48892e-06
2.53239e-06
2.57776e-06
2.62295e-06
2.6697e-06
2.71749e-06
2.76644e-06
2.81663e-06
2.86817e-06
2.92115e-06
2.97568e-06
3.03188e-06
3.08984e-06
3.14967e-06
3.21144e-06
3.27527e-06
3.3412e-06
3.40915e-06
3.47925e-06
3.55144e-06
3.62569e-06
3.70196e-06
3.78017e-06
3.86024e-06
3.94208e-06
4.02554e-06
4.11047e-06
4.19639e-06
4.28245e-06
4.36945e-06
4.45814e-06
4.54863e-06
4.64095e-06
4.73515e-06
4.83126e-06
4.92933e-06
5.02938e-06
5.13146e-06
5.23562e-06
5.34189e-06
5.45031e-06
5.56094e-06
5.67381e-06
5.78897e-06
5.90647e-06
6.02636e-06
6.14868e-06
6.27348e-06
6.40082e-06
6.53074e-06
6.66329e-06
6.79854e-06
6.93653e-06
7.07732e-06
7.22098e-06
7.36754e-06
7.51708e-06
7.66966e-06
7.82533e-06
)
;
    }
    inandouthalf32
    {
        type            cyclic;
        value           nonuniform List<scalar> 
110
(
-9.23158e-07
-9.42729e-07
-9.62663e-07
-9.82964e-07
-1.00364e-06
-1.0247e-06
-1.04616e-06
-1.06801e-06
-1.09028e-06
-1.11296e-06
-1.13607e-06
-1.15962e-06
-1.18361e-06
-1.20806e-06
-1.23297e-06
-1.25836e-06
-1.28424e-06
-1.31062e-06
-1.3375e-06
-1.36491e-06
-1.39285e-06
-1.42133e-06
-1.45037e-06
-1.47998e-06
-1.51017e-06
-1.54095e-06
-1.57233e-06
-1.60434e-06
-1.63698e-06
-1.67026e-06
-1.70421e-06
-1.73883e-06
-1.77414e-06
-1.81016e-06
-1.84689e-06
-1.88437e-06
-1.92258e-06
-1.94735e-06
-1.98233e-06
-2.01776e-06
-2.05373e-06
-2.09024e-06
-2.12731e-06
-2.16495e-06
-2.20318e-06
-2.24201e-06
-2.28147e-06
-2.32157e-06
-2.36232e-06
-2.40381e-06
-2.44615e-06
-2.48892e-06
-2.53239e-06
-2.57776e-06
-2.62295e-06
-2.6697e-06
-2.71749e-06
-2.76644e-06
-2.81663e-06
-2.86817e-06
-2.92115e-06
-2.97568e-06
-3.03188e-06
-3.08984e-06
-3.14967e-06
-3.21144e-06
-3.27527e-06
-3.3412e-06
-3.40915e-06
-3.47925e-06
-3.55144e-06
-3.62569e-06
-3.70196e-06
-3.78017e-06
-3.86024e-06
-3.94208e-06
-4.02554e-06
-4.11047e-06
-4.19639e-06
-4.28245e-06
-4.36945e-06
-4.45814e-06
-4.54863e-06
-4.64095e-06
-4.73515e-06
-4.83126e-06
-4.92933e-06
-5.02938e-06
-5.13146e-06
-5.23562e-06
-5.34189e-06
-5.45031e-06
-5.56094e-06
-5.67381e-06
-5.78897e-06
-5.90647e-06
-6.02636e-06
-6.14868e-06
-6.27348e-06
-6.40082e-06
-6.53074e-06
-6.66329e-06
-6.79854e-06
-6.93653e-06
-7.07732e-06
-7.22098e-06
-7.36754e-06
-7.51708e-06
-7.66966e-06
-7.82533e-06
)
;
    }
    inandouthalf41
    {
        type            cyclic;
        value           nonuniform List<scalar> 
50
(
7.00447e-06
7.00447e-06
7.00447e-06
7.00447e-06
7.00447e-06
7.00447e-06
7.00447e-06
7.00447e-06
7.00447e-06
7.00447e-06
7.00447e-06
7.00447e-06
7.00447e-06
7.00447e-06
7.00447e-06
7.00447e-06
7.00447e-06
7.00447e-06
7.00447e-06
7.00447e-06
7.00447e-06
7.00447e-06
7.00447e-06
7.00447e-06
7.00447e-06
7.00447e-06
7.00447e-06
7.00447e-06
7.00447e-06
7.00447e-06
7.00447e-06
7.00447e-06
7.00447e-06
7.00447e-06
7.00447e-06
7.00447e-06
7.00447e-06
7.00447e-06
7.00447e-06
7.00447e-06
7.00447e-06
7.00447e-06
7.00447e-06
7.00447e-06
7.00447e-06
7.00447e-06
7.00447e-06
7.00447e-06
7.00446e-06
7.00414e-06
)
;
    }
    inandouthalf42
    {
        type            cyclic;
        value           nonuniform List<scalar> 
50
(
-7.00447e-06
-7.00447e-06
-7.00447e-06
-7.00447e-06
-7.00447e-06
-7.00447e-06
-7.00447e-06
-7.00447e-06
-7.00447e-06
-7.00447e-06
-7.00447e-06
-7.00447e-06
-7.00447e-06
-7.00447e-06
-7.00447e-06
-7.00447e-06
-7.00447e-06
-7.00447e-06
-7.00447e-06
-7.00447e-06
-7.00447e-06
-7.00447e-06
-7.00447e-06
-7.00447e-06
-7.00447e-06
-7.00447e-06
-7.00447e-06
-7.00447e-06
-7.00447e-06
-7.00447e-06
-7.00447e-06
-7.00447e-06
-7.00447e-06
-7.00447e-06
-7.00447e-06
-7.00447e-06
-7.00447e-06
-7.00447e-06
-7.00447e-06
-7.00447e-06
-7.00447e-06
-7.00447e-06
-7.00447e-06
-7.00447e-06
-7.00447e-06
-7.00447e-06
-7.00447e-06
-7.00447e-06
-7.00446e-06
-7.00414e-06
)
;
    }
    top
    {
        type            symmetryPlane;
        value           uniform 0;
    }
    walls
    {
        type            fixedValue;
        value           uniform 0;
    }
    frontAndBackPlanes
    {
        type            empty;
        value           nonuniform 0();
    }
}


// ************************************************************************* //
