/*--------------------------------*- C++ -*----------------------------------*\
| =========                 |                                                 |
| \\      /  F ield         | OpenFOAM: The Open Source CFD Toolbox           |
|  \\    /   O peration     | Version:  2.4.x                                 |
|   \\  /    A nd           | Web:      www.OpenFOAM.org                      |
|    \\/     M anipulation  |                                                 |
\*---------------------------------------------------------------------------*/
FoamFile
{
    version     2.0;
    format      ascii;
    class       surfaceScalarField;
    location    "12.2";
    object      phib;
}
// * * * * * * * * * * * * * * * * * * * * * * * * * * * * * * * * * * * * * //

dimensions      [0 3 -1 0 0 0 0];

internalField   nonuniform List<scalar> 
359
(
8.17392e-15
2.04598e-14
3.19302e-14
4.31383e-14
5.48953e-14
6.71764e-14
7.98348e-14
9.28577e-14
1.06285e-13
1.20157e-13
1.34492e-13
1.49286e-13
1.6453e-13
1.80209e-13
1.96303e-13
2.12793e-13
2.29651e-13
2.46847e-13
2.64348e-13
2.82121e-13
3.00125e-13
3.18326e-13
3.36685e-13
3.55166e-13
3.73732e-13
3.92345e-13
4.10969e-13
4.29574e-13
4.48126e-13
4.66597e-13
4.84956e-13
5.03184e-13
5.21249e-13
5.3914e-13
5.56833e-13
5.74315e-13
5.91569e-13
6.08586e-13
6.25362e-13
6.41879e-13
6.58141e-13
6.74143e-13
6.89875e-13
7.05348e-13
7.20556e-13
7.35503e-13
7.50193e-13
7.64622e-13
7.788e-13
7.92737e-13
8.06431e-13
8.19892e-13
8.33122e-13
8.46134e-13
8.58927e-13
8.71516e-13
8.839e-13
8.96091e-13
9.08093e-13
9.19907e-13
9.3155e-13
9.4302e-13
9.54331e-13
9.65483e-13
9.76483e-13
9.87336e-13
9.98046e-13
1.00862e-12
1.01906e-12
1.02936e-12
1.03955e-12
1.04961e-12
1.05955e-12
1.06938e-12
1.0791e-12
1.08871e-12
1.09821e-12
1.1076e-12
1.11689e-12
1.12608e-12
1.13516e-12
1.14415e-12
1.15303e-12
1.16182e-12
1.17051e-12
1.1791e-12
1.1876e-12
1.196e-12
1.2043e-12
1.2125e-12
1.2206e-12
1.2286e-12
1.2365e-12
1.2443e-12
1.25199e-12
1.25959e-12
1.26708e-12
1.27447e-12
1.28175e-12
1.28893e-12
1.29601e-12
1.30297e-12
1.30983e-12
1.31658e-12
1.32323e-12
1.32977e-12
1.33621e-12
1.34255e-12
1.34878e-12
1.35491e-12
1.36094e-12
1.36688e-12
1.37272e-12
1.37846e-12
1.3841e-12
1.38965e-12
1.39509e-12
1.40043e-12
1.40566e-12
1.41076e-12
1.41574e-12
1.42058e-12
1.42527e-12
1.4298e-12
1.43418e-12
1.43839e-12
1.44246e-12
1.44641e-12
1.45025e-12
1.45404e-12
1.45779e-12
1.46152e-12
1.46522e-12
1.4688e-12
1.47207e-12
1.47476e-12
1.4765e-12
1.47704e-12
1.47638e-12
1.47484e-12
1.47273e-12
1.46277e-12
1.45621e-12
1.4562e-12
1.45222e-12
1.43963e-12
1.21699e-11
2.88921e-10
2.89191e-10
2.68388e-10
2.36789e-10
2.00038e-10
1.61585e-10
1.239e-10
8.88887e-11
5.78477e-11
3.14598e-11
9.86454e-12
-7.18035e-12
-2.01355e-11
-2.95689e-11
-3.60609e-11
-4.01551e-11
-4.23351e-11
-4.30155e-11
-4.25441e-11
-4.12074e-11
-3.9238e-11
-3.68228e-11
-3.41105e-11
-3.12181e-11
-2.8235e-11
-2.5224e-11
-2.22198e-11
-1.92332e-11
-1.62737e-11
-1.33841e-11
-1.06592e-11
-8.21854e-12
-6.15136e-12
-4.48281e-12
-3.18167e-12
-2.18847e-12
-1.43925e-12
-8.77648e-13
-4.58316e-13
-1.464e-13
8.43569e-14
2.536e-13
3.76028e-13
4.62685e-13
5.21921e-13
5.60092e-13
5.82071e-13
5.91618e-13
5.91653e-13
5.84457e-13
5.71821e-13
5.55155e-13
5.35578e-13
5.13973e-13
4.90566e-13
4.65876e-13
4.40352e-13
4.14385e-13
3.88314e-13
3.62429e-13
3.36976e-13
3.12161e-13
2.88149e-13
2.65073e-13
2.43029e-13
2.22088e-13
2.0229e-13
1.83656e-13
1.66189e-13
1.49876e-13
1.34696e-13
1.2062e-13
1.07611e-13
9.56334e-14
8.46453e-14
7.46034e-14
6.5461e-14
5.71647e-14
4.96503e-14
4.28363e-14
3.66217e-14
3.08986e-14
2.55967e-14
2.07712e-14
1.66804e-14
1.36609e-14
1.17051e-14
1.02683e-14
8.98355e-15
8.32771e-15
7.21542e-15
6.09446e-15
5.03652e-15
4.07691e-15
3.23288e-15
2.51004e-15
1.90574e-15
1.41215e-15
1.01876e-15
7.11952e-16
4.76437e-16
3.11163e-16
1.7465e-16
1.0441e-16
9.73272e-17
1.36116e-17
1.06931e-18
8.78407e-19
6.79794e-19
5.29082e-19
3.73132e-19
2.65326e-19
1.55605e-19
8.32541e-20
1.0803e-20
-3.21724e-20
-8.26287e-20
-1.25819e-19
-1.76046e-19
-2.10323e-19
-2.41793e-19
-2.65977e-19
-2.81457e-19
-2.83771e-19
-2.79002e-19
-2.79944e-19
-2.76509e-19
-2.67809e-19
-2.48846e-19
-2.32166e-19
-2.06932e-19
-1.80032e-19
-1.463e-19
-1.20703e-19
-9.42233e-20
-6.91895e-20
-4.65471e-20
-2.32686e-20
-7.59765e-21
5.7245e-20
6.63961e-20
8.57182e-20
9.59232e-20
1.06956e-19
1.03604e-19
1.10621e-19
1.05905e-19
1.0585e-19
1.1288e-19
8.89045e-20
1.16918e-19
1.5065e-19
3.27237e-19
3.64266e-19
3.85533e-19
4.10021e-19
4.17407e-19
4.56989e-19
4.77041e-19
5.00122e-19
4.9512e-19
5.17636e-19
5.09574e-19
5.05914e-19
4.86294e-19
5.05713e-19
5.11332e-19
5.207e-19
5.12223e-19
5.19877e-19
5.10947e-19
5.0488e-19
4.87002e-19
4.96677e-19
4.93922e-19
4.94857e-19
4.81927e-19
4.92287e-19
4.89332e-19
5.08442e-19
5.87981e-19
7.55265e-19
9.73798e-19
1.21482e-18
1.41765e-18
1.67767e-18
1.87242e-18
2.0785e-18
2.20995e-18
2.505e-18
2.69245e-18
2.89351e-18
2.94399e-18
3.15205e-18
3.16246e-18
3.21063e-18
3.10123e-18
3.42077e-18
3.53198e-18
3.68458e-18
3.54433e-18
3.64352e-18
3.46487e-18
3.31856e-18
3.11718e-18
2.83184e-18
2.61375e-18
2.43839e-18
2.66337e-18
2.04453e-18
3.03836e-18
5.08404e-18
)
;

boundaryField
{
    inandouthalf11
    {
        type            cyclic;
        value           nonuniform List<scalar> 
100
(
1.17759e-11
1.17105e-11
1.17023e-11
1.17118e-11
1.17165e-11
1.17185e-11
1.17208e-11
1.17236e-11
1.17266e-11
1.17296e-11
1.17326e-11
1.17356e-11
1.17387e-11
1.17419e-11
1.17451e-11
1.17484e-11
1.17517e-11
1.1755e-11
1.17584e-11
1.17619e-11
1.17654e-11
1.17689e-11
1.17725e-11
1.17761e-11
1.17798e-11
1.17835e-11
1.17872e-11
1.1791e-11
1.17948e-11
1.17986e-11
1.18025e-11
1.18063e-11
1.18102e-11
1.18142e-11
1.18181e-11
1.18221e-11
1.18261e-11
1.18301e-11
1.18342e-11
1.18383e-11
1.18424e-11
1.18465e-11
1.18506e-11
1.18548e-11
1.1859e-11
1.18632e-11
1.18675e-11
1.18717e-11
1.1876e-11
1.18804e-11
1.18847e-11
1.18891e-11
1.18935e-11
1.1898e-11
1.19025e-11
1.1907e-11
1.19116e-11
1.19162e-11
1.19208e-11
1.19255e-11
1.19302e-11
1.1935e-11
1.19398e-11
1.19446e-11
1.19495e-11
1.19545e-11
1.19595e-11
1.19646e-11
1.19697e-11
1.19748e-11
1.19801e-11
1.19854e-11
1.19907e-11
1.19961e-11
1.20016e-11
1.20072e-11
1.20128e-11
1.20185e-11
1.20243e-11
1.20301e-11
1.2036e-11
1.20421e-11
1.20482e-11
1.20543e-11
1.20606e-11
1.2067e-11
1.20734e-11
1.208e-11
1.20867e-11
1.20934e-11
1.21003e-11
1.21073e-11
1.21144e-11
1.21216e-11
1.2129e-11
1.21365e-11
1.21441e-11
1.21519e-11
1.21598e-11
1.21679e-11
)
;
    }
    inandouthalf12
    {
        type            cyclic;
        value           nonuniform List<scalar> 
100
(
-1.17759e-11
-1.17105e-11
-1.17023e-11
-1.17118e-11
-1.17165e-11
-1.17185e-11
-1.17208e-11
-1.17236e-11
-1.17266e-11
-1.17296e-11
-1.17326e-11
-1.17356e-11
-1.17387e-11
-1.17419e-11
-1.17451e-11
-1.17484e-11
-1.17517e-11
-1.1755e-11
-1.17584e-11
-1.17619e-11
-1.17654e-11
-1.17689e-11
-1.17725e-11
-1.17761e-11
-1.17798e-11
-1.17835e-11
-1.17872e-11
-1.1791e-11
-1.17948e-11
-1.17986e-11
-1.18025e-11
-1.18063e-11
-1.18102e-11
-1.18142e-11
-1.18181e-11
-1.18221e-11
-1.18261e-11
-1.18301e-11
-1.18342e-11
-1.18383e-11
-1.18424e-11
-1.18465e-11
-1.18506e-11
-1.18548e-11
-1.1859e-11
-1.18632e-11
-1.18675e-11
-1.18717e-11
-1.1876e-11
-1.18804e-11
-1.18847e-11
-1.18891e-11
-1.18935e-11
-1.1898e-11
-1.19025e-11
-1.1907e-11
-1.19116e-11
-1.19162e-11
-1.19208e-11
-1.19255e-11
-1.19302e-11
-1.1935e-11
-1.19398e-11
-1.19446e-11
-1.19495e-11
-1.19545e-11
-1.19595e-11
-1.19646e-11
-1.19697e-11
-1.19748e-11
-1.19801e-11
-1.19854e-11
-1.19907e-11
-1.19961e-11
-1.20016e-11
-1.20072e-11
-1.20128e-11
-1.20185e-11
-1.20243e-11
-1.20301e-11
-1.2036e-11
-1.20421e-11
-1.20482e-11
-1.20543e-11
-1.20606e-11
-1.2067e-11
-1.20734e-11
-1.208e-11
-1.20867e-11
-1.20934e-11
-1.21003e-11
-1.21073e-11
-1.21144e-11
-1.21216e-11
-1.2129e-11
-1.21365e-11
-1.21441e-11
-1.21519e-11
-1.21598e-11
-1.21679e-11
)
;
    }
    inandouthalf21
    {
        type            cyclic;
        value           nonuniform List<scalar> 
100
(
1.21761e-11
1.21845e-11
1.2193e-11
1.22018e-11
1.22107e-11
1.22198e-11
1.22291e-11
1.22386e-11
1.22483e-11
1.22583e-11
1.22685e-11
1.2279e-11
1.22897e-11
1.23007e-11
1.23119e-11
1.23235e-11
1.23354e-11
1.23476e-11
1.23601e-11
1.23731e-11
1.23864e-11
1.24001e-11
1.24143e-11
1.24289e-11
1.2444e-11
1.24596e-11
1.24758e-11
1.24926e-11
1.251e-11
1.25281e-11
1.2547e-11
1.25666e-11
1.25872e-11
1.26089e-11
1.26321e-11
1.26567e-11
1.26827e-11
1.27103e-11
1.27407e-11
1.27752e-11
1.28124e-11
1.28566e-11
1.3161e-11
1.31159e-11
1.31719e-11
1.33539e-11
1.00076e-10
3.12396e-08
1.40232e-07
2.34117e-07
3.09635e-07
3.72435e-07
4.25805e-07
4.71835e-07
5.12017e-07
5.47466e-07
5.79042e-07
6.07416e-07
6.33121e-07
6.5658e-07
6.78131e-07
6.98049e-07
7.16552e-07
7.3382e-07
7.49998e-07
7.65206e-07
7.79542e-07
7.93087e-07
8.05907e-07
8.18057e-07
8.29581e-07
8.40516e-07
8.50891e-07
8.60728e-07
8.70046e-07
8.78856e-07
8.8717e-07
8.94992e-07
9.02327e-07
9.09178e-07
9.15548e-07
9.2144e-07
9.2686e-07
9.31816e-07
9.36317e-07
9.40378e-07
9.44016e-07
9.47253e-07
9.50113e-07
9.52622e-07
9.54808e-07
9.56698e-07
9.58321e-07
9.59703e-07
9.6087e-07
9.61844e-07
9.62647e-07
9.63297e-07
9.63812e-07
9.64205e-07
)
;
    }
    inandouthalf22
    {
        type            cyclic;
        value           nonuniform List<scalar> 
100
(
-1.21761e-11
-1.21845e-11
-1.2193e-11
-1.22018e-11
-1.22107e-11
-1.22198e-11
-1.22291e-11
-1.22386e-11
-1.22483e-11
-1.22583e-11
-1.22685e-11
-1.2279e-11
-1.22897e-11
-1.23007e-11
-1.23119e-11
-1.23235e-11
-1.23354e-11
-1.23476e-11
-1.23601e-11
-1.23731e-11
-1.23864e-11
-1.24001e-11
-1.24143e-11
-1.24289e-11
-1.2444e-11
-1.24596e-11
-1.24758e-11
-1.24926e-11
-1.251e-11
-1.25281e-11
-1.2547e-11
-1.25666e-11
-1.25872e-11
-1.26089e-11
-1.26321e-11
-1.26567e-11
-1.26827e-11
-1.27103e-11
-1.27407e-11
-1.27752e-11
-1.28124e-11
-1.28566e-11
-1.3161e-11
-1.31159e-11
-1.31719e-11
-1.33539e-11
-1.00076e-10
-3.12396e-08
-1.40232e-07
-2.34117e-07
-3.09635e-07
-3.72435e-07
-4.25805e-07
-4.71835e-07
-5.12017e-07
-5.47466e-07
-5.79042e-07
-6.07416e-07
-6.33121e-07
-6.5658e-07
-6.78131e-07
-6.98049e-07
-7.16552e-07
-7.3382e-07
-7.49998e-07
-7.65206e-07
-7.79542e-07
-7.93087e-07
-8.05907e-07
-8.18057e-07
-8.29581e-07
-8.40516e-07
-8.50891e-07
-8.60728e-07
-8.70046e-07
-8.78856e-07
-8.8717e-07
-8.94992e-07
-9.02327e-07
-9.09178e-07
-9.15548e-07
-9.2144e-07
-9.2686e-07
-9.31816e-07
-9.36317e-07
-9.40378e-07
-9.44016e-07
-9.47253e-07
-9.50113e-07
-9.52622e-07
-9.54808e-07
-9.56698e-07
-9.58321e-07
-9.59703e-07
-9.6087e-07
-9.61844e-07
-9.62647e-07
-9.63297e-07
-9.63812e-07
-9.64205e-07
)
;
    }
    inandouthalf31
    {
        type            cyclic;
        value           nonuniform List<scalar> 
110
(
9.64493e-07
9.84263e-07
1.00435e-06
1.02475e-06
1.04548e-06
1.06655e-06
1.08796e-06
1.10971e-06
1.13182e-06
1.15428e-06
1.17711e-06
1.2003e-06
1.22388e-06
1.24783e-06
1.27216e-06
1.29689e-06
1.322e-06
1.34752e-06
1.37344e-06
1.39976e-06
1.4265e-06
1.45365e-06
1.48123e-06
1.50922e-06
1.53765e-06
1.56651e-06
1.5958e-06
1.62554e-06
1.65573e-06
1.68637e-06
1.71746e-06
1.74901e-06
1.78104e-06
1.81353e-06
1.84651e-06
1.87997e-06
1.91393e-06
1.94839e-06
1.98336e-06
2.01885e-06
2.05487e-06
2.09144e-06
2.12856e-06
2.16625e-06
2.20453e-06
2.24341e-06
2.28293e-06
2.32309e-06
2.36393e-06
2.40547e-06
2.44776e-06
2.49083e-06
2.53472e-06
2.57949e-06
2.62519e-06
2.67189e-06
2.71965e-06
2.76856e-06
2.8187e-06
2.87017e-06
2.92307e-06
2.97752e-06
3.03361e-06
3.09146e-06
3.15116e-06
3.21283e-06
3.27651e-06
3.34228e-06
3.41015e-06
3.48015e-06
3.55225e-06
3.62643e-06
3.70264e-06
3.78082e-06
3.86089e-06
3.94274e-06
4.02624e-06
4.11121e-06
4.19735e-06
4.28363e-06
4.37067e-06
4.45938e-06
4.54989e-06
4.64224e-06
4.73647e-06
4.83261e-06
4.9307e-06
5.03078e-06
5.13289e-06
5.23707e-06
5.34337e-06
5.45183e-06
5.56248e-06
5.67539e-06
5.79058e-06
5.90812e-06
6.02804e-06
6.15039e-06
6.27523e-06
6.4026e-06
6.53255e-06
6.66515e-06
6.80043e-06
6.93846e-06
7.07929e-06
7.22298e-06
7.36959e-06
7.51917e-06
7.67179e-06
7.82751e-06
)
;
    }
    inandouthalf32
    {
        type            cyclic;
        value           nonuniform List<scalar> 
110
(
-9.64493e-07
-9.84263e-07
-1.00435e-06
-1.02475e-06
-1.04548e-06
-1.06655e-06
-1.08796e-06
-1.10971e-06
-1.13182e-06
-1.15428e-06
-1.17711e-06
-1.2003e-06
-1.22388e-06
-1.24783e-06
-1.27216e-06
-1.29689e-06
-1.322e-06
-1.34752e-06
-1.37344e-06
-1.39976e-06
-1.4265e-06
-1.45365e-06
-1.48123e-06
-1.50922e-06
-1.53765e-06
-1.56651e-06
-1.5958e-06
-1.62554e-06
-1.65573e-06
-1.68637e-06
-1.71746e-06
-1.74901e-06
-1.78104e-06
-1.81353e-06
-1.84651e-06
-1.87997e-06
-1.91393e-06
-1.94839e-06
-1.98336e-06
-2.01885e-06
-2.05487e-06
-2.09144e-06
-2.12856e-06
-2.16625e-06
-2.20453e-06
-2.24341e-06
-2.28293e-06
-2.32309e-06
-2.36393e-06
-2.40547e-06
-2.44776e-06
-2.49083e-06
-2.53472e-06
-2.57949e-06
-2.62519e-06
-2.67189e-06
-2.71965e-06
-2.76856e-06
-2.8187e-06
-2.87017e-06
-2.92307e-06
-2.97752e-06
-3.03361e-06
-3.09146e-06
-3.15116e-06
-3.21283e-06
-3.27651e-06
-3.34228e-06
-3.41015e-06
-3.48015e-06
-3.55225e-06
-3.62643e-06
-3.70264e-06
-3.78082e-06
-3.86089e-06
-3.94274e-06
-4.02624e-06
-4.11121e-06
-4.19735e-06
-4.28363e-06
-4.37067e-06
-4.45938e-06
-4.54989e-06
-4.64224e-06
-4.73647e-06
-4.83261e-06
-4.9307e-06
-5.03078e-06
-5.13289e-06
-5.23707e-06
-5.34337e-06
-5.45183e-06
-5.56248e-06
-5.67539e-06
-5.79058e-06
-5.90812e-06
-6.02804e-06
-6.15039e-06
-6.27523e-06
-6.4026e-06
-6.53255e-06
-6.66515e-06
-6.80043e-06
-6.93846e-06
-7.07929e-06
-7.22298e-06
-7.36959e-06
-7.51917e-06
-7.67179e-06
-7.82751e-06
)
;
    }
    inandouthalf41
    {
        type            cyclic;
        value           nonuniform List<scalar> 
50
(
7.00642e-06
7.00642e-06
7.00642e-06
7.00642e-06
7.00642e-06
7.00642e-06
7.00642e-06
7.00642e-06
7.00642e-06
7.00642e-06
7.00642e-06
7.00642e-06
7.00642e-06
7.00642e-06
7.00642e-06
7.00642e-06
7.00642e-06
7.00642e-06
7.00642e-06
7.00642e-06
7.00642e-06
7.00642e-06
7.00642e-06
7.00642e-06
7.00642e-06
7.00642e-06
7.00642e-06
7.00642e-06
7.00642e-06
7.00642e-06
7.00642e-06
7.00642e-06
7.00642e-06
7.00642e-06
7.00642e-06
7.00642e-06
7.00642e-06
7.00642e-06
7.00642e-06
7.00642e-06
7.00642e-06
7.00642e-06
7.00642e-06
7.00642e-06
7.00642e-06
7.00642e-06
7.00642e-06
7.00642e-06
7.00642e-06
7.00642e-06
)
;
    }
    inandouthalf42
    {
        type            cyclic;
        value           nonuniform List<scalar> 
50
(
-7.00642e-06
-7.00642e-06
-7.00642e-06
-7.00642e-06
-7.00642e-06
-7.00642e-06
-7.00642e-06
-7.00642e-06
-7.00642e-06
-7.00642e-06
-7.00642e-06
-7.00642e-06
-7.00642e-06
-7.00642e-06
-7.00642e-06
-7.00642e-06
-7.00642e-06
-7.00642e-06
-7.00642e-06
-7.00642e-06
-7.00642e-06
-7.00642e-06
-7.00642e-06
-7.00642e-06
-7.00642e-06
-7.00642e-06
-7.00642e-06
-7.00642e-06
-7.00642e-06
-7.00642e-06
-7.00642e-06
-7.00642e-06
-7.00642e-06
-7.00642e-06
-7.00642e-06
-7.00642e-06
-7.00642e-06
-7.00642e-06
-7.00642e-06
-7.00642e-06
-7.00642e-06
-7.00642e-06
-7.00642e-06
-7.00642e-06
-7.00642e-06
-7.00642e-06
-7.00642e-06
-7.00642e-06
-7.00642e-06
-7.00642e-06
)
;
    }
    top
    {
        type            symmetryPlane;
        value           uniform 0;
    }
    walls
    {
        type            fixedValue;
        value           uniform 0;
    }
    frontAndBackPlanes
    {
        type            empty;
        value           nonuniform 0();
    }
}


// ************************************************************************* //
