/*--------------------------------*- C++ -*----------------------------------*\
| =========                 |                                                 |
| \\      /  F ield         | OpenFOAM: The Open Source CFD Toolbox           |
|  \\    /   O peration     | Version:  2.4.x                                 |
|   \\  /    A nd           | Web:      www.OpenFOAM.org                      |
|    \\/     M anipulation  |                                                 |
\*---------------------------------------------------------------------------*/
FoamFile
{
    version     2.0;
    format      ascii;
    class       volTensorField;
    location    "12.2";
    object      Tauf;
}
// * * * * * * * * * * * * * * * * * * * * * * * * * * * * * * * * * * * * * //

dimensions      [0 2 -2 0 0 0 0];

internalField   nonuniform List<tensor> 
360
(
(0 -2.34865e-08 0 -2.34865e-08 9.13185e-12 0 0 0 0)
(0 7.35851e-11 0 7.35851e-11 1.10793e-11 0 0 0 0)
(0 -1.23636e-12 0 -1.23636e-12 1.165e-11 0 0 0 0)
(0 -1.41895e-11 0 -1.41895e-11 1.14154e-11 0 0 0 0)
(3.23117e-24 -6.67359e-12 0 -6.67359e-12 1.17495e-11 0 0 0 0)
(3.23117e-24 -4.26755e-12 0 -4.26755e-12 1.22428e-11 0 0 0 0)
(1.61559e-24 -5.18573e-12 0 -5.18573e-12 1.26553e-11 0 0 0 0)
(0 -5.78654e-12 0 -5.78654e-12 1.30332e-11 0 0 0 0)
(3.23117e-24 -5.91317e-12 0 -5.91317e-12 1.34374e-11 0 0 0 0)
(0 -6.00758e-12 0 -6.00758e-12 1.38765e-11 0 0 0 0)
(3.23117e-24 -6.08319e-12 0 -6.08319e-12 1.43338e-11 0 0 0 0)
(0 -6.1617e-12 0 -6.1617e-12 1.47918e-11 0 0 0 0)
(1.61559e-24 -6.26026e-12 0 -6.26026e-12 1.52405e-11 0 0 0 0)
(0 -6.35899e-12 0 -6.35899e-12 1.56741e-11 0 0 0 0)
(0 -6.4686e-12 0 -6.4686e-12 1.60891e-11 0 0 0 0)
(0 -6.57706e-12 0 -6.57706e-12 1.64826e-11 0 0 0 0)
(0 -6.67221e-12 0 -6.67221e-12 1.68505e-11 0 0 0 0)
(3.23117e-24 -6.76044e-12 0 -6.76044e-12 1.71879e-11 0 0 0 0)
(0 -6.8652e-12 0 -6.8652e-12 1.74928e-11 0 0 0 0)
(0 -6.94904e-12 0 -6.94904e-12 1.77626e-11 0 0 0 0)
(0 -7.03074e-12 0 -7.03074e-12 1.79953e-11 0 0 0 0)
(3.23117e-24 -7.12697e-12 0 -7.12697e-12 1.81914e-11 0 0 0 0)
(0 -7.20247e-12 0 -7.20247e-12 1.83503e-11 0 0 0 0)
(0 -7.28119e-12 0 -7.28119e-12 1.84717e-11 0 0 0 0)
(0 -7.35715e-12 0 -7.35715e-12 1.85561e-11 0 0 0 0)
(3.23117e-24 -7.41877e-12 0 -7.41877e-12 1.86037e-11 0 0 0 0)
(0 -7.4924e-12 0 -7.4924e-12 1.86165e-11 0 0 0 0)
(0 -7.56462e-12 0 -7.56462e-12 1.85968e-11 0 0 0 0)
(0 -7.61569e-12 0 -7.61569e-12 1.85452e-11 0 0 0 0)
(0 -7.67076e-12 0 -7.67076e-12 1.84631e-11 0 0 0 0)
(0 -7.74318e-12 0 -7.74318e-12 1.83543e-11 0 0 0 0)
(0 -7.77803e-12 0 -7.77803e-12 1.82197e-11 0 0 0 0)
(0 -7.83945e-12 0 -7.83945e-12 1.80622e-11 0 0 0 0)
(0 -7.89998e-12 0 -7.89998e-12 1.78854e-11 0 0 0 0)
(0 -7.93308e-12 0 -7.93308e-12 1.76896e-11 0 0 0 0)
(-3.23117e-24 -7.9827e-12 0 -7.9827e-12 1.74775e-11 0 0 0 0)
(0 -8.02787e-12 0 -8.02787e-12 1.72516e-11 0 0 0 0)
(0 -8.10052e-12 0 -8.10052e-12 1.70166e-11 0 0 0 0)
(0 -8.11221e-12 0 -8.11221e-12 1.67712e-11 0 0 0 0)
(0 -8.16602e-12 0 -8.16602e-12 1.65178e-11 0 0 0 0)
(0 -8.24466e-12 0 -8.24466e-12 1.62613e-11 0 0 0 0)
(0 -8.2453e-12 0 -8.2453e-12 1.5999e-11 0 0 0 0)
(-3.23117e-24 -8.31379e-12 0 -8.31379e-12 1.57349e-11 0 0 0 0)
(0 -8.37472e-12 0 -8.37472e-12 1.54716e-11 0 0 0 0)
(0 -8.40633e-12 0 -8.40633e-12 1.52085e-11 0 0 0 0)
(0 -8.4837e-12 0 -8.4837e-12 1.49484e-11 0 0 0 0)
(0 -8.5047e-12 0 -8.5047e-12 1.46889e-11 0 0 0 0)
(0 -8.54812e-12 0 -8.54812e-12 1.4431e-11 0 0 0 0)
(0 -8.66068e-12 0 -8.66068e-12 1.41813e-11 0 0 0 0)
(0 -8.68861e-12 0 -8.68861e-12 1.39366e-11 0 0 0 0)
(-1.61559e-24 -8.73106e-12 0 -8.73106e-12 1.3696e-11 0 0 0 0)
(0 -8.81578e-12 0 -8.81578e-12 1.34615e-11 0 0 0 0)
(0 -8.88162e-12 0 -8.88162e-12 1.32337e-11 0 0 0 0)
(0 -8.93198e-12 0 -8.93198e-12 1.30115e-11 0 0 0 0)
(0 -9.01838e-12 0 -9.01838e-12 1.27968e-11 0 0 0 0)
(0 -9.08775e-12 0 -9.08775e-12 1.25889e-11 0 0 0 0)
(0 -9.15419e-12 0 -9.15419e-12 1.23868e-11 0 0 0 0)
(0 -9.2549e-12 0 -9.2549e-12 1.21926e-11 0 0 0 0)
(0 -9.28997e-12 0 -9.28997e-12 1.20015e-11 0 0 0 0)
(0 -9.40535e-12 0 -9.40535e-12 1.18185e-11 0 0 0 0)
(0 -9.495e-12 0 -9.495e-12 1.16426e-11 0 0 0 0)
(0 -9.56996e-12 0 -9.56996e-12 1.14731e-11 0 0 0 0)
(0 -9.67945e-12 0 -9.67945e-12 1.1311e-11 0 0 0 0)
(0 -9.76093e-12 0 -9.76093e-12 1.11536e-11 0 0 0 0)
(0 -9.85598e-12 0 -9.85598e-12 1.10013e-11 0 0 0 0)
(0 -9.96054e-12 0 -9.96054e-12 1.08537e-11 0 0 0 0)
(0 -1.00822e-11 0 -1.00822e-11 1.07118e-11 0 0 0 0)
(0 -1.01825e-11 0 -1.01825e-11 1.05743e-11 0 0 0 0)
(0 -1.02621e-11 0 -1.02621e-11 1.04388e-11 0 0 0 0)
(0 -1.03973e-11 0 -1.03973e-11 1.03077e-11 0 0 0 0)
(0 -1.05597e-11 0 -1.05597e-11 1.0184e-11 0 0 0 0)
(0 -1.06313e-11 0 -1.06313e-11 1.00619e-11 0 0 0 0)
(0 -1.07543e-11 0 -1.07543e-11 9.94335e-12 0 0 0 0)
(0 -1.09129e-11 0 -1.09129e-11 9.8289e-12 0 0 0 0)
(0 -1.10509e-11 0 -1.10509e-11 9.71796e-12 0 0 0 0)
(0 -1.11829e-11 0 -1.11829e-11 9.60991e-12 0 0 0 0)
(0 -1.13034e-11 0 -1.13034e-11 9.50188e-12 0 0 0 0)
(0 -1.1466e-11 0 -1.1466e-11 9.39556e-12 0 0 0 0)
(0 -1.16265e-11 0 -1.16265e-11 9.29078e-12 0 0 0 0)
(0 -1.17709e-11 0 -1.17709e-11 9.18697e-12 0 0 0 0)
(0 -1.19287e-11 0 -1.19287e-11 9.08432e-12 0 0 0 0)
(0 -1.21077e-11 0 -1.21077e-11 8.98368e-12 0 0 0 0)
(0 -1.22786e-11 0 -1.22786e-11 8.88447e-12 0 0 0 0)
(0 -1.24558e-11 0 -1.24558e-11 8.78684e-12 0 0 0 0)
(0 -1.26397e-11 0 -1.26397e-11 8.6901e-12 0 0 0 0)
(0 -1.28312e-11 0 -1.28312e-11 8.59377e-12 0 0 0 0)
(0 -1.3026e-11 0 -1.3026e-11 8.4972e-12 0 0 0 0)
(0 -1.32213e-11 0 -1.32213e-11 8.39948e-12 0 0 0 0)
(0 -1.3431e-11 0 -1.3431e-11 8.30076e-12 0 0 0 0)
(0 -1.36481e-11 0 -1.36481e-11 8.20103e-12 0 0 0 0)
(0 -1.38687e-11 0 -1.38687e-11 8.10039e-12 0 0 0 0)
(0 -1.41013e-11 0 -1.41013e-11 7.99936e-12 0 0 0 0)
(0 -1.43443e-11 0 -1.43443e-11 7.89825e-12 0 0 0 0)
(0 -1.45929e-11 0 -1.45929e-11 7.79707e-12 0 0 0 0)
(0 -1.48503e-11 0 -1.48503e-11 7.69577e-12 0 0 0 0)
(0 -1.51169e-11 0 -1.51169e-11 7.59407e-12 0 0 0 0)
(0 -1.53923e-11 0 -1.53923e-11 7.49166e-12 0 0 0 0)
(0 -1.56774e-11 0 -1.56774e-11 7.38829e-12 0 0 0 0)
(0 -1.59741e-11 0 -1.59741e-11 7.28391e-12 0 0 0 0)
(0 -1.62828e-11 0 -1.62828e-11 7.1786e-12 0 0 0 0)
(0 -1.66036e-11 0 -1.66036e-11 7.07255e-12 0 0 0 0)
(0 -1.69381e-11 0 -1.69381e-11 6.96609e-12 0 0 0 0)
(0 -1.72864e-11 0 -1.72864e-11 6.85954e-12 0 0 0 0)
(0 -1.76485e-11 0 -1.76485e-11 6.75319e-12 0 0 0 0)
(0 -1.80255e-11 0 -1.80255e-11 6.64731e-12 0 0 0 0)
(0 -1.84181e-11 0 -1.84181e-11 6.54212e-12 0 0 0 0)
(0 -1.88272e-11 0 -1.88272e-11 6.43782e-12 0 0 0 0)
(0 -1.9254e-11 0 -1.9254e-11 6.33462e-12 0 0 0 0)
(0 -1.96995e-11 0 -1.96995e-11 6.23267e-12 0 0 0 0)
(0 -2.01649e-11 0 -2.01649e-11 6.13209e-12 0 0 0 0)
(0 -2.06514e-11 0 -2.06514e-11 6.03288e-12 0 0 0 0)
(0 -2.11602e-11 0 -2.11602e-11 5.93488e-12 0 0 0 0)
(0 -2.16929e-11 0 -2.16929e-11 5.83776e-12 0 0 0 0)
(0 -2.22511e-11 0 -2.22511e-11 5.74096e-12 0 0 0 0)
(0 -2.28366e-11 0 -2.28366e-11 5.64365e-12 0 0 0 0)
(0 -2.34514e-11 0 -2.34514e-11 5.54472e-12 0 0 0 0)
(0 -2.40977e-11 0 -2.40977e-11 5.44283e-12 0 0 0 0)
(0 -2.47781e-11 0 -2.47781e-11 5.33642e-12 0 0 0 0)
(0 -2.54953e-11 0 -2.54953e-11 5.22383e-12 0 0 0 0)
(0 -2.62523e-11 0 -2.62523e-11 5.10351e-12 0 0 0 0)
(0 -2.7052e-11 0 -2.7052e-11 4.97419e-12 0 0 0 0)
(0 -2.78968e-11 0 -2.78968e-11 4.83526e-12 0 0 0 0)
(0 -2.87889e-11 0 -2.87889e-11 4.68715e-12 0 0 0 0)
(0 -2.97308e-11 0 -2.97308e-11 4.5318e-12 0 0 0 0)
(0 -3.07279e-11 0 -3.07279e-11 4.37316e-12 0 0 0 0)
(0 -3.17907e-11 0 -3.17907e-11 4.21745e-12 0 0 0 0)
(0 -3.2936e-11 0 -3.2936e-11 4.07294e-12 0 0 0 0)
(0 -3.4182e-11 0 -3.4182e-11 3.94897e-12 0 0 0 0)
(0 -3.5536e-11 0 -3.5536e-11 3.85376e-12 0 0 0 0)
(0 -3.69854e-11 0 -3.69854e-11 3.79082e-12 0 0 0 0)
(0 -3.85216e-11 0 -3.85216e-11 3.7544e-12 0 0 0 0)
(0 -4.02191e-11 0 -4.02191e-11 3.72534e-12 0 0 0 0)
(0 -4.22841e-11 0 -4.22841e-11 3.66835e-12 0 0 0 0)
(0 -4.48736e-11 0 -4.48736e-11 3.52515e-12 0 0 0 0)
(0 -4.77774e-11 0 -4.77774e-11 3.20326e-12 0 0 0 0)
(0 -5.06035e-11 0 -5.06035e-11 2.59515e-12 0 0 0 0)
(0 -5.35898e-11 0 -5.35898e-11 1.65805e-12 0 0 0 0)
(0 -5.80182e-11 0 -5.80182e-11 5.06852e-13 0 0 0 0)
(0 -6.4925e-11 0 -6.4925e-11 -5.74937e-13 0 0 0 0)
(0 -7.17026e-11 0 -7.17026e-11 -1.49157e-12 0 0 0 0)
(0 -8.13836e-11 0 -8.13836e-11 -7.53109e-12 0 0 0 0)
(0 -3.48617e-10 0 -3.48617e-10 -2.51939e-12 0 0 0 0)
(0 -2.59256e-10 0 -2.59256e-10 3.20277e-11 0 0 0 0)
(0 -1.08973e-11 0 -1.08973e-11 -3.8786e-10 0 0 0 0)
(0 -2.38085e-10 0 -2.38085e-10 1.51716e-09 0 0 0 0)
(0 -8.74049e-08 0 -8.74049e-08 -5.73459e-09 0 0 0 0)
(0 -3.61687e-05 0 -3.61687e-05 3.46638e-08 0 0 0 0)
(0 -0.000524617 0 -0.000524617 7.51167e-07 0 0 0 0)
(0 -0.00242567 0 -0.00242567 1.19179e-06 0 0 0 0)
(0 -0.00335616 0 -0.00335616 -1.30861e-06 0 0 0 0)
(0 -0.00365483 0 -0.00365483 -5.53232e-07 0 0 0 0)
(0 -0.00375813 0 -0.00375813 -1.23136e-06 0 0 0 0)
(0 -0.00376615 0 -0.00376615 -1.49183e-06 0 0 0 0)
(0 -0.00372276 0 -0.00372276 -1.64598e-06 0 0 0 0)
(0 -0.00365327 0 -0.00365327 -1.70251e-06 0 0 0 0)
(0 -0.00357157 0 -0.00357157 -1.66277e-06 0 0 0 0)
(0 -0.00348492 0 -0.00348492 -1.54107e-06 0 0 0 0)
(0 -0.00339682 0 -0.00339682 -1.36179e-06 0 0 0 0)
(0 -0.00330868 0 -0.00330868 -1.15046e-06 0 0 0 0)
(0 -0.00322087 0 -0.00322087 -9.29257e-07 0 0 0 0)
(0 -0.00313325 0 -0.00313325 -7.1433e-07 0 0 0 0)
(0 -0.00304551 0 -0.00304551 -5.15716e-07 0 0 0 0)
(0 -0.00295734 0 -0.00295734 -3.39182e-07 0 0 0 0)
(0 -0.00286845 0 -0.00286845 -1.87344e-07 0 0 0 0)
(0 -0.00277862 0 -0.00277862 -6.04328e-08 0 0 0 0)
(0 -0.00268772 0 -0.00268772 4.28007e-08 0 0 0 0)
(0 -0.00259567 0 -0.00259567 1.24437e-07 0 0 0 0)
(0 -0.00250245 0 -0.00250245 1.86958e-07 0 0 0 0)
(0 -0.0024081 0 -0.0024081 2.32964e-07 0 0 0 0)
(0 -0.00231269 0 -0.00231269 2.64981e-07 0 0 0 0)
(0 -0.00221635 0 -0.00221635 2.85403e-07 0 0 0 0)
(0 -0.00211922 0 -0.00211922 2.9661e-07 0 0 0 0)
(0 -0.00202149 0 -0.00202149 3.01217e-07 0 0 0 0)
(0 -0.00192338 0 -0.00192338 3.02056e-07 0 0 0 0)
(0 -0.00182515 0 -0.00182515 3.01287e-07 0 0 0 0)
(0 -0.00172707 0 -0.00172707 2.98792e-07 0 0 0 0)
(0 -0.00162945 0 -0.00162945 2.9139e-07 0 0 0 0)
(0 -0.00153262 0 -0.00153262 2.74667e-07 0 0 0 0)
(0 -0.00143698 0 -0.00143698 2.46667e-07 0 0 0 0)
(0 -0.0013429 0 -0.0013429 2.1006e-07 0 0 0 0)
(0 -0.00125083 0 -0.00125083 1.70645e-07 0 0 0 0)
(0 -0.00116116 0 -0.00116116 1.33949e-07 0 0 0 0)
(0 -0.00107431 0 -0.00107431 1.03035e-07 0 0 0 0)
(0 -0.000990626 0 -0.000990626 7.85296e-08 0 0 0 0)
(0 -0.000910393 0 -0.000910393 5.96925e-08 0 0 0 0)
(0 -0.00083383 0 -0.00083383 4.53739e-08 0 0 0 0)
(0 -0.000761076 0 -0.000761076 3.44905e-08 0 0 0 0)
(0 -0.000692186 0 -0.000692186 2.61703e-08 0 0 0 0)
(0 -0.000627142 0 -0.000627142 1.97506e-08 0 0 0 0)
(0 -0.000565854 0 -0.000565854 1.47429e-08 0 0 0 0)
(0 -0.00050818 0 -0.00050818 1.07935e-08 0 0 0 0)
(0 -0.000453937 0 -0.000453937 7.64568e-09 0 0 0 0)
(0 -0.000402914 0 -0.000402914 5.11194e-09 0 0 0 0)
(0 -0.000354886 0 -0.000354886 3.05589e-09 0 0 0 0)
(0 -0.000309626 0 -0.000309626 1.37761e-09 0 0 0 0)
(0 -0.000266909 0 -0.000266909 3.09738e-12 0 0 0 0)
(0 -0.000226522 0 -0.000226522 -1.12317e-09 0 0 0 0)
(0 -0.000188266 0 -0.000188266 -2.04352e-09 0 0 0 0)
(0 -0.00015196 0 -0.00015196 -2.79078e-09 0 0 0 0)
(0 -0.000117439 0 -0.000117439 -3.39095e-09 0 0 0 0)
(0 -8.45535e-05 0 -8.45535e-05 -3.8653e-09 0 0 0 0)
(0 -5.28806e-05 0 -5.28806e-05 -4.23405e-09 0 0 0 0)
(3.86946e-17 -2.20203e-05 0 -2.20203e-05 -4.51182e-09 0 0 0 0)
(0 8.06595e-06 0 8.06595e-06 -4.70665e-09 0 0 0 0)
(0 3.74119e-05 0 3.74119e-05 -4.82635e-09 0 0 0 0)
(0 6.60459e-05 0 6.60459e-05 -4.87846e-09 0 0 0 0)
(0 9.39911e-05 0 9.39911e-05 -4.87043e-09 0 0 0 0)
(0 0.000121265 0 0.000121265 -4.80967e-09 0 0 0 0)
(0 0.000147881 0 0.000147881 -4.7036e-09 0 0 0 0)
(-4.02102e-17 0.000173845 0 0.000173845 -4.55958e-09 0 0 0 0)
(0 0.000199162 0 0.000199162 -4.38484e-09 0 0 0 0)
(0 0.000223831 0 0.000223831 -4.18631e-09 0 0 0 0)
(0 0.000247845 0 0.000247845 -3.97046e-09 0 0 0 0)
(-4.00346e-17 0.000271196 0 0.000271196 -3.74313e-09 0 0 0 0)
(0 0.000293873 0 0.000293873 -3.50941e-09 0 0 0 0)
(0 0.000315858 0 0.000315858 -3.27357e-09 0 0 0 0)
(0 0.000337134 0 0.000337134 -3.03908e-09 0 0 0 0)
(0 0.000357679 0 0.000357679 -2.8086e-09 0 0 0 0)
(0 0.00037747 0 0.00037747 -2.58415e-09 0 0 0 0)
(3.85336e-17 0.000396481 0 0.000396481 -2.36716e-09 0 0 0 0)
(0 0.000414683 0 0.000414683 -2.15869e-09 0 0 0 0)
(3.77637e-17 0.000432047 0 0.000432047 -1.95956e-09 0 0 0 0)
(0 0.000448541 0 0.000448541 -1.77049e-09 0 0 0 0)
(3.68831e-17 0.000464133 0 0.000464133 -1.59229e-09 0 0 0 0)
(0 0.000478786 0 0.000478786 -1.42614e-09 0 0 0 0)
(0 0.000492465 0 0.000492465 -1.27401e-09 0 0 0 0)
(0 0.000505134 0 0.000505134 -1.13879e-09 0 0 0 0)
(0 0.000516753 0 0.000516753 -1.02352e-09 0 0 0 0)
(-3.42724e-17 0.000527284 0 0.000527284 -9.28385e-10 0 0 0 0)
(-3.36895e-17 0.000536688 0 0.000536688 -8.44705e-10 0 0 0 0)
(0 0.000544924 0 0.000544924 -7.50156e-10 0 0 0 0)
(0 0.000551952 0 0.000551952 -6.18784e-10 0 0 0 0)
(0 0.000557732 0 0.000557732 -4.5306e-10 0 0 0 0)
(0 0.000562221 0 0.000562221 -3.02119e-10 0 0 0 0)
(0 0.000565381 0 0.000565381 -2.11078e-10 0 0 0 0)
(0 0.000567171 0 0.000567171 -1.55804e-10 0 0 0 0)
(0 0.000567553 0 0.000567553 -1.22476e-10 0 0 0 0)
(0 0.000566489 0 0.000566489 -1.31754e-10 0 0 0 0)
(0 0.000563943 0 0.000563943 -1.45804e-10 0 0 0 0)
(0 0.000559883 0 0.000559883 -1.36389e-10 0 0 0 0)
(0 0.000554278 0 0.000554278 -1.19378e-10 0 0 0 0)
(0 0.000547103 0 0.000547103 -1.01542e-10 0 0 0 0)
(0 0.000538333 0 0.000538333 -8.4327e-11 0 0 0 0)
(4.78431e-17 0.000527952 0 0.000527952 -6.82943e-11 0 0 0 0)
(-4.62626e-17 0.00051595 0 0.00051595 -5.39252e-11 0 0 0 0)
(0 0.000502322 0 0.000502322 -4.15304e-11 0 0 0 0)
(0 0.000487076 0 0.000487076 -3.12261e-11 0 0 0 0)
(4.14185e-17 0.000470226 0 0.000470226 -2.2763e-11 0 0 0 0)
(0 0.000451802 0 0.000451802 -1.63274e-11 0 0 0 0)
(0 0.000431847 0 0.000431847 -1.12223e-11 0 0 0 0)
(3.64624e-17 0.000410421 0 0.000410421 -5.66876e-12 0 0 0 0)
(0 0.000387603 0 0.000387603 -3.05224e-12 0 0 0 0)
(0 0.000363495 0 0.000363495 -3.77531e-12 0 0 0 0)
(0 0.000338225 0 0.000338225 -2.20385e-12 0 0 0 0)
(0 0.000311947 0 0.000311947 -4.92966e-14 0 0 0 0)
(0 0.000284848 0 0.000284848 1.52542e-13 0 0 0 0)
(0 0.000257151 0 0.000257151 1.65652e-14 0 0 0 0)
(0 0.000229112 0 0.000229112 -1.70119e-14 0 0 0 0)
(0 0.000201028 0 0.000201028 -1.00679e-14 0 0 0 0)
(0 0.000173228 0 0.000173228 -4.98325e-15 0 0 0 0)
(0 0.000146077 0 0.000146077 -3.62065e-15 0 0 0 0)
(0 0.000119959 0 0.000119959 -2.84409e-15 0 0 0 0)
(0 9.5269e-05 0 9.5269e-05 -2.13559e-15 0 0 0 0)
(0 7.23918e-05 0 7.23918e-05 -1.76267e-15 0 0 0 0)
(0 5.16791e-05 0 5.16791e-05 -1.66823e-15 0 0 0 0)
(0 3.34237e-05 0 3.34237e-05 -1.548e-15 0 0 0 0)
(-1.26018e-17 1.78372e-05 0 1.78372e-05 -1.25767e-15 0 0 0 0)
(0 5.03443e-06 0 5.03443e-06 -2.06654e-16 0 0 0 0)
(0 -4.97246e-06 0 -4.97246e-06 1.36152e-15 0 0 0 0)
(0 -1.22687e-05 0 -1.22687e-05 -5.36416e-15 0 0 0 0)
(0 -1.70248e-05 0 -1.70248e-05 -5.55749e-14 0 0 0 0)
(0 -1.94809e-05 0 -1.94809e-05 2.46861e-13 0 0 0 0)
(0 -1.9932e-05 0 -1.9932e-05 -5.25228e-13 0 0 0 0)
(0 -1.87144e-05 0 -1.87144e-05 7.9337e-13 0 0 0 0)
(0 -1.61957e-05 0 -1.61957e-05 -9.77821e-13 0 0 0 0)
(0 -1.27658e-05 0 -1.27658e-05 1.03143e-12 0 0 0 0)
(0 -8.83013e-06 0 -8.83013e-06 -9.30761e-13 0 0 0 0)
(0 -4.83975e-06 0 -4.83975e-06 6.81505e-13 0 0 0 0)
(0 -1.2498e-06 0 -1.2498e-06 -3.06234e-13 0 0 0 0)
(0 -8.2253e-08 0 -8.2253e-08 6.79833e-14 0 0 0 0)
(0 -3.90856e-09 0 -3.90856e-09 -4.12621e-14 0 0 0 0)
(0 -6.97419e-11 0 -6.97419e-11 4.00198e-14 0 0 0 0)
(0 -8.49502e-13 0 -8.49502e-13 -3.92009e-14 0 0 0 0)
(0 1.75308e-14 0 1.75308e-14 3.84332e-14 0 0 0 0)
(0 1.82845e-14 0 1.82845e-14 -3.76766e-14 0 0 0 0)
(0 1.18388e-14 0 1.18388e-14 3.696e-14 0 0 0 0)
(0 7.59565e-15 0 7.59565e-15 -3.62423e-14 0 0 0 0)
(0 4.79942e-15 0 4.79942e-15 3.55682e-14 0 0 0 0)
(0 2.9898e-15 0 2.9898e-15 -3.48882e-14 0 0 0 0)
(0 1.81128e-15 0 1.81128e-15 3.42274e-14 0 0 0 0)
(0 1.14058e-15 0 1.14058e-15 -3.35644e-14 0 0 0 0)
(0 7.54375e-16 0 7.54375e-16 3.29102e-14 0 0 0 0)
(0 4.56671e-16 0 4.56671e-16 -3.22558e-14 0 0 0 0)
(0 2.32567e-16 0 2.32567e-16 3.16022e-14 0 0 0 0)
(0 1.04954e-16 0 1.04954e-16 -3.09471e-14 0 0 0 0)
(0 3.51887e-17 0 3.51887e-17 3.02889e-14 0 0 0 0)
(0 2.9443e-17 0 2.9443e-17 -2.96272e-14 0 0 0 0)
(0 6.14839e-17 0 6.14839e-17 2.89576e-14 0 0 0 0)
(0 1.31516e-17 0 1.31516e-17 -2.82721e-14 0 0 0 0)
(1.15864e-19 -3.51359e-17 0 -3.51359e-17 2.7617e-14 0 0 0 0)
(0 6.78802e-17 0 6.78802e-17 -2.68948e-14 0 0 0 0)
(0 6.22448e-17 0 6.22448e-17 2.61985e-14 0 0 0 0)
(0 -3.75802e-17 0 -3.75802e-17 -2.54774e-14 0 0 0 0)
(0 4.27665e-18 0 4.27665e-18 2.47544e-14 0 0 0 0)
(0 -9.65895e-17 0 -9.65895e-17 -2.40089e-14 0 0 0 0)
(0 -9.81599e-17 0 -9.81599e-17 2.3263e-14 0 0 0 0)
(0 1.09142e-16 0 1.09142e-16 -2.24899e-14 0 0 0 0)
(0 1.49444e-16 0 1.49444e-16 2.17082e-14 0 0 0 0)
(0 -2.03304e-17 0 -2.03304e-17 -2.09051e-14 0 0 0 0)
(0 -1.67984e-16 0 -1.67984e-16 2.01103e-14 0 0 0 0)
(0 -1.29781e-16 0 -1.29781e-16 -2.21036e-14 0 0 0 0)
(0 -6.74979e-17 0 -6.74979e-17 2.18159e-14 0 0 0 0)
(0 3.17108e-17 0 3.17108e-17 -2.15523e-14 0 0 0 0)
(0 5.1219e-17 0 5.1219e-17 2.12906e-14 0 0 0 0)
(0 2.85344e-17 0 2.85344e-17 -2.10224e-14 0 0 0 0)
(0 4.12399e-17 0 4.12399e-17 2.07546e-14 0 0 0 0)
(0 3.44107e-18 0 3.44107e-18 -2.04852e-14 0 0 0 0)
(0 -1.05879e-17 0 -1.05879e-17 2.02139e-14 0 0 0 0)
(0 -2.78991e-17 0 -2.78991e-17 -1.99426e-14 0 0 0 0)
(0 -1.07282e-16 0 -1.07282e-16 1.96645e-14 0 0 0 0)
(0 -3.60518e-17 0 -3.60518e-17 -1.93885e-14 0 0 0 0)
(0 9.4153e-17 0 9.4153e-17 1.91101e-14 0 0 0 0)
(0 5.30984e-17 0 5.30984e-17 -1.88287e-14 0 0 0 0)
(0 -1.58554e-17 0 -1.58554e-17 1.85431e-14 0 0 0 0)
(0 -2.22346e-18 0 -2.22346e-18 -1.82567e-14 0 0 0 0)
(0 3.28225e-18 0 3.28225e-18 1.7968e-14 0 0 0 0)
(0 4.71162e-18 0 4.71162e-18 -1.76736e-14 0 0 0 0)
(0 1.70995e-17 0 1.70995e-17 1.7391e-14 0 0 0 0)
(0 -1.82906e-17 0 -1.82906e-17 -1.70622e-14 0 0 0 0)
(0 2.85874e-18 0 2.85874e-18 1.68091e-14 0 0 0 0)
(0 4.10282e-18 0 4.10282e-18 -1.64471e-14 0 0 0 0)
(0 -3.21343e-17 0 -3.21343e-17 1.61941e-14 0 0 0 0)
(0 -1.27849e-17 0 -1.27849e-17 -1.58234e-14 0 0 0 0)
(0 3.08902e-17 0 3.08902e-17 1.55627e-14 0 0 0 0)
(0 1.32878e-17 0 1.32878e-17 -1.51898e-14 0 0 0 0)
(0 1.89788e-17 0 1.89788e-17 1.49037e-14 0 0 0 0)
(0 2.1017e-17 0 2.1017e-17 -1.45167e-14 0 0 0 0)
(0 -2.85609e-17 0 -2.85609e-17 1.42374e-14 0 0 0 0)
(0 -1.02359e-16 0 -1.02359e-16 -1.38423e-14 0 0 0 0)
(0 -1.99741e-16 0 -1.99741e-16 1.35196e-14 0 0 0 0)
(0 -4.29419e-16 0 -4.29419e-16 -1.31252e-14 0 0 0 0)
(0 -3.58136e-17 0 -3.58136e-17 1.27818e-14 0 0 0 0)
(0 4.13167e-16 0 4.13167e-16 -1.23936e-14 0 0 0 0)
(0 2.26211e-16 0 2.26211e-16 1.19943e-14 0 0 0 0)
(0 9.29619e-17 0 9.29619e-17 -1.15654e-14 0 0 0 0)
(0 2.85609e-17 0 2.85609e-17 1.12041e-14 0 0 0 0)
(0 4.06841e-17 0 4.06841e-17 -1.07405e-14 0 0 0 0)
(0 1.29967e-17 0 1.29967e-17 1.02938e-14 0 0 0 0)
(0 -2.87462e-17 0 -2.87462e-17 -9.83092e-15 0 0 0 0)
(0 -8.82767e-17 0 -8.82767e-17 9.3303e-15 0 0 0 0)
(0 2.06994e-17 0 2.06994e-17 -8.85334e-15 0 0 0 0)
(0 1.71021e-16 0 1.71021e-16 8.26115e-15 0 0 0 0)
(0 9.99234e-17 0 9.99234e-17 -7.73454e-15 0 0 0 0)
(0 -5.88423e-17 0 -5.88423e-17 7.0354e-15 0 0 0 0)
(0 -1.022e-16 0 -1.022e-16 -6.38649e-15 0 0 0 0)
(0 -7.708e-17 0 -7.708e-17 5.61067e-15 0 0 0 0)
(0 -3.7693e-17 0 -3.7693e-17 -4.75233e-15 0 0 0 0)
(0 8.86738e-18 0 8.86738e-18 3.66333e-15 0 0 0 0)
(0 -9.62706e-17 0 -9.62706e-17 -1.85334e-15 0 0 0 0)
(0 -9.83088e-17 0 -9.83088e-17 2.59304e-17 0 0 0 0)
)
;

boundaryField
{
    inandouthalf11
    {
        type            cyclic;
    }
    inandouthalf12
    {
        type            cyclic;
    }
    inandouthalf21
    {
        type            cyclic;
    }
    inandouthalf22
    {
        type            cyclic;
    }
    inandouthalf31
    {
        type            cyclic;
    }
    inandouthalf32
    {
        type            cyclic;
    }
    inandouthalf41
    {
        type            cyclic;
    }
    inandouthalf42
    {
        type            cyclic;
    }
    top
    {
        type            symmetryPlane;
    }
    walls
    {
        type            zeroGradient;
    }
    frontAndBackPlanes
    {
        type            empty;
    }
}


// ************************************************************************* //
