/*--------------------------------*- C++ -*----------------------------------*\
| =========                 |                                                 |
| \\      /  F ield         | OpenFOAM: The Open Source CFD Toolbox           |
|  \\    /   O peration     | Version:  2.4.x                                 |
|   \\  /    A nd           | Web:      www.OpenFOAM.org                      |
|    \\/     M anipulation  |                                                 |
\*---------------------------------------------------------------------------*/
FoamFile
{
    version     2.0;
    format      ascii;
    class       volVectorField;
    location    "12.2";
    object      U;
}
// * * * * * * * * * * * * * * * * * * * * * * * * * * * * * * * * * * * * * //

dimensions      [0 1 -1 0 0 0 0];

internalField   nonuniform List<vector> 
360
(
(-4.58206e-06 3.91878e-10 0)
(-4.5468e-06 -7.73084e-11 0)
(-4.54295e-06 -6.67102e-11 0)
(-4.54802e-06 9.6319e-12 0)
(-4.55072e-06 2.13129e-11 0)
(-4.55201e-06 1.1028e-11 0)
(-4.55352e-06 7.80183e-12 0)
(-4.5553e-06 9.31709e-12 0)
(-4.55713e-06 1.07517e-11 0)
(-4.559e-06 1.14419e-11 0)
(-4.56091e-06 1.16538e-11 0)
(-4.56285e-06 1.15104e-11 0)
(-4.56483e-06 1.12137e-11 0)
(-4.56685e-06 1.0833e-11 0)
(-4.5689e-06 1.03966e-11 0)
(-4.571e-06 9.87888e-12 0)
(-4.57314e-06 9.23593e-12 0)
(-4.57531e-06 8.49974e-12 0)
(-4.57751e-06 7.69746e-12 0)
(-4.57976e-06 6.88242e-12 0)
(-4.58203e-06 5.98345e-12 0)
(-4.58433e-06 5.14363e-12 0)
(-4.58667e-06 4.28042e-12 0)
(-4.58902e-06 3.39939e-12 0)
(-4.59141e-06 2.53647e-12 0)
(-4.59382e-06 1.70249e-12 0)
(-4.59624e-06 9.00518e-13 0)
(-4.59869e-06 1.85934e-13 0)
(-4.60115e-06 -5.47253e-13 0)
(-4.60363e-06 -1.22156e-12 0)
(-4.60612e-06 -1.84619e-12 0)
(-4.60864e-06 -2.32553e-12 0)
(-4.61115e-06 -2.926e-12 0)
(-4.61369e-06 -3.22518e-12 0)
(-4.61622e-06 -3.7175e-12 0)
(-4.61877e-06 -4.00887e-12 0)
(-4.62132e-06 -4.28448e-12 0)
(-4.62389e-06 -4.48697e-12 0)
(-4.62646e-06 -4.57483e-12 0)
(-4.62902e-06 -4.88151e-12 0)
(-4.63162e-06 -4.79774e-12 0)
(-4.63421e-06 -4.86284e-12 0)
(-4.63679e-06 -5.009e-12 0)
(-4.6394e-06 -4.77395e-12 0)
(-4.64201e-06 -4.80314e-12 0)
(-4.64462e-06 -4.75005e-12 0)
(-4.64725e-06 -4.5837e-12 0)
(-4.64987e-06 -4.61985e-12 0)
(-4.65251e-06 -4.38571e-12 0)
(-4.65517e-06 -4.054e-12 0)
(-4.65781e-06 -4.16699e-12 0)
(-4.66049e-06 -3.86076e-12 0)
(-4.66316e-06 -3.74776e-12 0)
(-4.66585e-06 -3.45495e-12 0)
(-4.66855e-06 -3.47534e-12 0)
(-4.67127e-06 -3.02594e-12 0)
(-4.67399e-06 -3.10251e-12 0)
(-4.67674e-06 -2.79075e-12 0)
(-4.6795e-06 -2.6251e-12 0)
(-4.68226e-06 -2.66721e-12 0)
(-4.68507e-06 -2.14004e-12 0)
(-4.68787e-06 -2.23258e-12 0)
(-4.69071e-06 -1.89867e-12 0)
(-4.69356e-06 -1.85838e-12 0)
(-4.69643e-06 -1.67789e-12 0)
(-4.69932e-06 -1.60976e-12 0)
(-4.70224e-06 -1.43043e-12 0)
(-4.70518e-06 -1.31832e-12 0)
(-4.70815e-06 -1.20696e-12 0)
(-4.71113e-06 -1.2522e-12 0)
(-4.71416e-06 -9.74287e-13 0)
(-4.71722e-06 -7.42762e-13 0)
(-4.72028e-06 -1.00459e-12 0)
(-4.7234e-06 -6.5208e-13 0)
(-4.72653e-06 -6.96141e-13 0)
(-4.72972e-06 -4.92675e-13 0)
(-4.73292e-06 -6.13278e-13 0)
(-4.73616e-06 -5.70621e-13 0)
(-4.73944e-06 -5.02918e-13 0)
(-4.74275e-06 -4.27991e-13 0)
(-4.74611e-06 -4.80239e-13 0)
(-4.7495e-06 -4.03195e-13 0)
(-4.75294e-06 -3.3902e-13 0)
(-4.75642e-06 -3.35417e-13 0)
(-4.75994e-06 -3.01901e-13 0)
(-4.76351e-06 -3.28437e-13 0)
(-4.76714e-06 -3.15643e-13 0)
(-4.7708e-06 -3.67671e-13 0)
(-4.77452e-06 -4.15909e-13 0)
(-4.77829e-06 -4.33023e-13 0)
(-4.78212e-06 -4.54466e-13 0)
(-4.786e-06 -4.86416e-13 0)
(-4.78994e-06 -4.847e-13 0)
(-4.79394e-06 -4.93188e-13 0)
(-4.79801e-06 -5.12708e-13 0)
(-4.80214e-06 -5.38255e-13 0)
(-4.80634e-06 -5.71533e-13 0)
(-4.81061e-06 -6.13507e-13 0)
(-4.81495e-06 -6.58155e-13 0)
(-4.81937e-06 -6.96779e-13 0)
(-4.82387e-06 -7.31781e-13 0)
(-4.82845e-06 -7.60641e-13 0)
(-4.83312e-06 -7.80064e-13 0)
(-4.83788e-06 -7.9437e-13 0)
(-4.84273e-06 -8.05178e-13 0)
(-4.84768e-06 -8.11718e-13 0)
(-4.85273e-06 -8.15229e-13 0)
(-4.85789e-06 -8.16387e-13 0)
(-4.86315e-06 -8.15492e-13 0)
(-4.86854e-06 -8.14695e-13 0)
(-4.87405e-06 -8.17337e-13 0)
(-4.87968e-06 -8.27779e-13 0)
(-4.88545e-06 -8.51598e-13 0)
(-4.89136e-06 -8.95085e-13 0)
(-4.89742e-06 -9.65228e-13 0)
(-4.90363e-06 -1.06958e-12 0)
(-4.91001e-06 -1.21476e-12 0)
(-4.91655e-06 -1.40538e-12 0)
(-4.92328e-06 -1.64288e-12 0)
(-4.9302e-06 -1.92356e-12 0)
(-4.93732e-06 -2.23644e-12 0)
(-4.94465e-06 -2.56082e-12 0)
(-4.95221e-06 -2.86454e-12 0)
(-4.96e-06 -3.10391e-12 0)
(-4.96805e-06 -3.22663e-12 0)
(-4.97636e-06 -3.18069e-12 0)
(-4.98496e-06 -2.92658e-12 0)
(-4.99386e-06 -2.4505e-12 0)
(-5.00311e-06 -1.78022e-12 0)
(-5.01274e-06 -1.02561e-12 0)
(-5.02276e-06 -4.744e-13 0)
(-5.03321e-06 -7.17957e-13 0)
(-5.04414e-06 -2.53763e-12 0)
(-5.05569e-06 -6.41676e-12 0)
(-5.068e-06 -1.2467e-11 0)
(-5.08106e-06 -2.08637e-11 0)
(-5.0948e-06 -3.04792e-11 0)
(-5.10931e-06 -3.78885e-11 0)
(-5.12518e-06 -3.78041e-11 0)
(-5.14311e-06 -2.11291e-11 0)
(-5.16239e-06 -2.72206e-11 0)
(-5.18527e-06 -1.09234e-09 0)
(-5.34355e-06 1.42012e-09 0)
(-5.32002e-06 6.69944e-09 0)
(-5.34926e-06 -7.64373e-08 0)
(-5.43359e-06 3.1253e-07 0)
(-4.06402e-05 -1.23063e-06 0)
(-0.0298426 2.1722e-06 0)
(-0.1374 1.4637e-05 0)
(-0.23222 -3.43142e-06 0)
(-0.308297 1.91495e-07 0)
(-0.371501 6.03616e-07 0)
(-0.42514 3.32431e-07 0)
(-0.471353 1.32726e-07 0)
(-0.511659 1.35709e-08 0)
(-0.547192 -6.76817e-08 0)
(-0.578825 -1.24553e-07 0)
(-0.607239 -1.60978e-07 0)
(-0.632972 -1.76763e-07 0)
(-0.656451 -1.76203e-07 0)
(-0.678018 -1.6802e-07 0)
(-0.697947 -1.56029e-07 0)
(-0.71646 -1.41374e-07 0)
(-0.733735 -1.25521e-07 0)
(-0.749919 -1.0968e-07 0)
(-0.765133 -9.45926e-08 0)
(-0.779474 -8.06273e-08 0)
(-0.793023 -6.79511e-08 0)
(-0.805848 -5.65947e-08 0)
(-0.818002 -4.65323e-08 0)
(-0.82953 -3.76435e-08 0)
(-0.840469 -2.96849e-08 0)
(-0.850847 -2.22656e-08 0)
(-0.860688 -1.50569e-08 0)
(-0.870008 -8.24827e-09 0)
(-0.878822 -2.75009e-09 0)
(-0.887139 5.44529e-10 0)
(-0.894964 1.99324e-09 0)
(-0.902303 3.06329e-09 0)
(-0.909157 4.581e-09 0)
(-0.91553 5.98644e-09 0)
(-0.921424 6.49757e-09 0)
(-0.926846 6.05418e-09 0)
(-0.931803 5.09818e-09 0)
(-0.936305 4.05696e-09 0)
(-0.940368 3.14452e-09 0)
(-0.944007 2.41265e-09 0)
(-0.947245 1.84918e-09 0)
(-0.950106 1.42464e-09 0)
(-0.952615 1.1033e-09 0)
(-0.954801 8.57465e-10 0)
(-0.956692 6.69654e-10 0)
(-0.958316 5.2588e-10 0)
(-0.959698 4.15197e-10 0)
(-0.960866 3.29429e-10 0)
(-0.96184 2.62545e-10 0)
(-0.962643 2.10077e-10 0)
(-0.963294 1.6868e-10 0)
(-0.963809 1.35864e-10 0)
(-0.964202 1.09789e-10 0)
(-0.964487 8.91105e-11 0)
(-0.964677 7.48998e-11 0)
(-0.964779 6.2832e-11 0)
(-0.964797 5.25777e-11 0)
(-0.964735 4.38013e-11 0)
(-0.964596 3.64381e-11 0)
(-0.964382 3.01918e-11 0)
(-0.964096 2.50112e-11 0)
(-0.96374 2.06437e-11 0)
(-0.963315 1.70557e-11 0)
(-0.962824 1.40391e-11 0)
(-0.962266 1.15773e-11 0)
(-0.961645 9.50673e-12 0)
(-0.960959 7.83717e-12 0)
(-0.96021 6.43979e-12 0)
(-0.959398 5.33504e-12 0)
(-0.958524 4.41451e-12 0)
(-0.957588 3.71458e-12 0)
(-0.95659 3.14647e-12 0)
(-0.955531 2.73899e-12 0)
(-0.954411 2.41946e-12 0)
(-0.953229 2.19299e-12 0)
(-0.951987 2.03761e-12 0)
(-0.950685 1.99428e-12 0)
(-0.949322 2.08468e-12 0)
(-0.947899 2.24503e-12 0)
(-0.946417 2.22373e-12 0)
(-0.944875 1.44521e-12 0)
(-0.943275 -1.03057e-12 0)
(-0.941617 -4.97349e-12 0)
(-0.939901 -5.12745e-12 0)
(-0.938129 6.69238e-12 0)
(-0.936301 2.36899e-11 0)
(-0.934419 1.43904e-11 0)
(-0.932483 -2.00377e-11 0)
(-0.930495 -3.6271e-12 0)
(-0.928457 8.38318e-11 0)
(-0.926371 -1.2386e-10 0)
(-0.924238 4.42673e-11 0)
(-0.922061 8.10269e-12 0)
(-0.919843 6.99149e-12 0)
(-0.917586 4.72305e-12 0)
(-0.915294 3.33392e-12 0)
(-0.912971 2.20787e-12 0)
(-0.91062 1.34874e-12 0)
(-0.908247 1.5954e-12 0)
(-0.905857 -4.50381e-12 0)
(-0.903455 1.11265e-11 0)
(-0.901049 -1.64282e-11 0)
(-0.898645 1.88866e-11 0)
(-0.896251 -1.58295e-11 0)
(-0.893878 2.02905e-11 0)
(-0.891534 9.79658e-12 0)
(-0.889232 3.4275e-13 0)
(-0.886983 -9.14314e-13 0)
(-0.884801 1.45598e-14 0)
(-0.882701 2.25184e-13 0)
(-0.880699 1.43779e-13 0)
(-0.878812 8.09383e-14 0)
(-0.877057 5.29039e-14 0)
(-0.875454 3.26921e-14 0)
(-0.874018 1.52496e-14 0)
(-0.872768 8.69767e-16 0)
(-0.871718 -1.05256e-14 0)
(-0.870878 -2.21699e-14 0)
(-0.870256 -3.41702e-14 0)
(-0.869851 -4.60188e-14 0)
(-0.869658 -5.52777e-14 0)
(-0.869667 -4.9672e-14 0)
(-0.869862 -2.75316e-14 0)
(-0.87022 -1.7183e-13 0)
(-0.870719 -1.43625e-12 0)
(-0.871332 6.96288e-12 0)
(-0.87203 -1.90416e-11 0)
(-0.872782 3.85272e-11 0)
(-0.873555 -6.66946e-11 0)
(-0.87431 1.03014e-10 0)
(-0.875001 -1.47193e-10 0)
(-0.875561 1.97196e-10 0)
(-0.875783 -2.51392e-10 0)
(-0.875802 3.07664e-10 0)
(-0.875802 -3.6542e-10 0)
(-0.875802 4.24228e-10 0)
(-0.875802 -4.84307e-10 0)
(-0.875802 5.45562e-10 0)
(-0.875802 -6.08125e-10 0)
(-0.875802 6.71984e-10 0)
(-0.875802 -7.37164e-10 0)
(-0.875802 8.03778e-10 0)
(-0.875802 -8.71715e-10 0)
(-0.875802 9.4116e-10 0)
(-0.875802 -1.01194e-09 0)
(-0.875802 1.08427e-09 0)
(-0.875802 -1.15796e-09 0)
(-0.875802 1.23322e-09 0)
(-0.875802 -1.30984e-09 0)
(-0.875802 1.38804e-09 0)
(-0.875802 -1.4676e-09 0)
(-0.875802 1.54871e-09 0)
(-0.875802 -1.63113e-09 0)
(-0.875802 1.71522e-09 0)
(-0.875802 -1.80038e-09 0)
(-0.875802 1.88728e-09 0)
(-0.875802 -1.97514e-09 0)
(-0.875802 2.06473e-09 0)
(-0.875802 -2.15516e-09 0)
(-0.875802 2.24729e-09 0)
(-0.875802 -2.3401e-09 0)
(-0.875802 2.43453e-09 0)
(-0.875802 -2.5295e-09 0)
(-0.875802 2.30658e-09 0)
(-0.875802 -2.35023e-09 0)
(-0.875802 2.39385e-09 0)
(-0.875802 -2.43644e-09 0)
(-0.875802 2.47901e-09 0)
(-0.875802 -2.52053e-09 0)
(-0.875802 2.56203e-09 0)
(-0.875802 -2.60247e-09 0)
(-0.875802 2.64288e-09 0)
(-0.875802 -2.68224e-09 0)
(-0.875802 2.72154e-09 0)
(-0.875802 -2.7598e-09 0)
(-0.875802 2.79798e-09 0)
(-0.875802 -2.83511e-09 0)
(-0.875802 2.87215e-09 0)
(-0.875802 -2.90814e-09 0)
(-0.875802 2.94403e-09 0)
(-0.875802 -2.97883e-09 0)
(-0.875802 3.01359e-09 0)
(-0.875802 -3.04708e-09 0)
(-0.875802 3.08083e-09 0)
(-0.875802 -3.11287e-09 0)
(-0.875802 3.1456e-09 0)
(-0.875802 -3.17616e-09 0)
(-0.875802 3.20785e-09 0)
(-0.875802 -3.23692e-09 0)
(-0.875802 3.26747e-09 0)
(-0.875802 -3.29499e-09 0)
(-0.875802 3.32442e-09 0)
(-0.875802 -3.35036e-09 0)
(-0.875802 3.3785e-09 0)
(-0.875802 -3.40286e-09 0)
(-0.875802 3.42962e-09 0)
(-0.875802 -3.45243e-09 0)
(-0.875802 3.4776e-09 0)
(-0.875802 -3.49869e-09 0)
(-0.875802 3.52242e-09 0)
(-0.875802 -3.54166e-09 0)
(-0.875802 3.56359e-09 0)
(-0.875802 -3.58098e-09 0)
(-0.875802 3.60091e-09 0)
(-0.875802 -3.61639e-09 0)
(-0.875802 3.63396e-09 0)
(-0.875802 -3.64733e-09 0)
(-0.875802 3.6621e-09 0)
(-0.875802 -3.67288e-09 0)
(-0.875802 3.68454e-09 0)
(-0.875802 -3.69189e-09 0)
(-0.875802 3.6992e-09 0)
(-0.875802 -3.6993e-09 0)
)
;

boundaryField
{
    inandouthalf11
    {
        type            cyclic;
    }
    inandouthalf12
    {
        type            cyclic;
    }
    inandouthalf21
    {
        type            cyclic;
    }
    inandouthalf22
    {
        type            cyclic;
    }
    inandouthalf31
    {
        type            cyclic;
    }
    inandouthalf32
    {
        type            cyclic;
    }
    inandouthalf41
    {
        type            cyclic;
    }
    inandouthalf42
    {
        type            cyclic;
    }
    top
    {
        type            symmetryPlane;
    }
    walls
    {
        type            calculated;
        value           uniform (0 0 0);
    }
    frontAndBackPlanes
    {
        type            empty;
    }
}


// ************************************************************************* //
