/*--------------------------------*- C++ -*----------------------------------*\
| =========                 |                                                 |
| \\      /  F ield         | OpenFOAM: The Open Source CFD Toolbox           |
|  \\    /   O peration     | Version:  2.4.x                                 |
|   \\  /    A nd           | Web:      www.OpenFOAM.org                      |
|    \\/     M anipulation  |                                                 |
\*---------------------------------------------------------------------------*/
FoamFile
{
    version     2.0;
    format      ascii;
    class       volVectorField;
    location    "12.2";
    object      Ua;
}
// * * * * * * * * * * * * * * * * * * * * * * * * * * * * * * * * * * * * * //

dimensions      [0 1 -1 0 0 0 0];

internalField   nonuniform List<vector> 
360
(
(-1.721e-32 -1.0265e-31 0)
(-5.73528e-10 -2.38484e-09 0)
(-1.19628e-09 -4.26216e-09 0)
(-1.76466e-09 -5.93941e-09 0)
(-2.35642e-09 -7.74348e-09 0)
(-2.98786e-09 -9.66759e-09 0)
(-3.64621e-09 -1.16525e-08 0)
(-4.3266e-09 -1.36892e-08 0)
(-5.03104e-09 -1.57874e-08 0)
(-5.76217e-09 -1.79547e-08 0)
(-6.52164e-09 -2.01952e-08 0)
(-7.3101e-09 -2.25098e-08 0)
(-8.12745e-09 -2.48975e-08 0)
(-8.97321e-09 -2.7356e-08 0)
(-9.84666e-09 -2.98826e-08 0)
(-1.07469e-08 -3.24743e-08 0)
(-1.1673e-08 -3.51274e-08 0)
(-1.26234e-08 -3.78374e-08 0)
(-1.35965e-08 -4.05991e-08 0)
(-1.45907e-08 -4.34073e-08 0)
(-1.5604e-08 -4.62562e-08 0)
(-1.66345e-08 -4.91398e-08 0)
(-1.768e-08 -5.20523e-08 0)
(-1.87387e-08 -5.49877e-08 0)
(-1.98083e-08 -5.79402e-08 0)
(-2.08869e-08 -6.09039e-08 0)
(-2.19722e-08 -6.38729e-08 0)
(-2.30625e-08 -6.68419e-08 0)
(-2.41557e-08 -6.9806e-08 0)
(-2.52501e-08 -7.276e-08 0)
(-2.63438e-08 -7.56994e-08 0)
(-2.74353e-08 -7.86201e-08 0)
(-2.8523e-08 -8.1518e-08 0)
(-2.96055e-08 -8.439e-08 0)
(-3.06818e-08 -8.72331e-08 0)
(-3.17505e-08 -9.00442e-08 0)
(-3.28106e-08 -9.28211e-08 0)
(-3.38613e-08 -9.55618e-08 0)
(-3.49019e-08 -9.82652e-08 0)
(-3.59318e-08 -1.00929e-07 0)
(-3.69503e-08 -1.03554e-07 0)
(-3.79572e-08 -1.06137e-07 0)
(-3.8952e-08 -1.0868e-07 0)
(-3.99346e-08 -1.11181e-07 0)
(-4.09049e-08 -1.13641e-07 0)
(-4.18628e-08 -1.1606e-07 0)
(-4.28083e-08 -1.18439e-07 0)
(-4.37414e-08 -1.20777e-07 0)
(-4.46622e-08 -1.23074e-07 0)
(-4.5571e-08 -1.25334e-07 0)
(-4.64681e-08 -1.27556e-07 0)
(-4.73536e-08 -1.29741e-07 0)
(-4.82277e-08 -1.31889e-07 0)
(-4.90909e-08 -1.34003e-07 0)
(-4.99433e-08 -1.36083e-07 0)
(-5.07855e-08 -1.3813e-07 0)
(-5.16177e-08 -1.40145e-07 0)
(-5.24402e-08 -1.42129e-07 0)
(-5.32534e-08 -1.44084e-07 0)
(-5.40575e-08 -1.46009e-07 0)
(-5.48529e-08 -1.47907e-07 0)
(-5.56401e-08 -1.49778e-07 0)
(-5.64194e-08 -1.51623e-07 0)
(-5.71912e-08 -1.53444e-07 0)
(-5.79557e-08 -1.55242e-07 0)
(-5.87132e-08 -1.57016e-07 0)
(-5.94641e-08 -1.58768e-07 0)
(-6.02086e-08 -1.60499e-07 0)
(-6.0947e-08 -1.6221e-07 0)
(-6.16792e-08 -1.63899e-07 0)
(-6.24058e-08 -1.6557e-07 0)
(-6.31271e-08 -1.67222e-07 0)
(-6.38432e-08 -1.68855e-07 0)
(-6.45543e-08 -1.70472e-07 0)
(-6.52607e-08 -1.72071e-07 0)
(-6.59627e-08 -1.73654e-07 0)
(-6.66603e-08 -1.75221e-07 0)
(-6.73535e-08 -1.76772e-07 0)
(-6.80424e-08 -1.78307e-07 0)
(-6.87272e-08 -1.79827e-07 0)
(-6.94079e-08 -1.81331e-07 0)
(-7.00847e-08 -1.82821e-07 0)
(-7.07576e-08 -1.84296e-07 0)
(-7.14269e-08 -1.85756e-07 0)
(-7.20926e-08 -1.87202e-07 0)
(-7.27547e-08 -1.88634e-07 0)
(-7.34134e-08 -1.90052e-07 0)
(-7.40686e-08 -1.91456e-07 0)
(-7.47203e-08 -1.92846e-07 0)
(-7.53683e-08 -1.94221e-07 0)
(-7.60126e-08 -1.95582e-07 0)
(-7.66533e-08 -1.96928e-07 0)
(-7.72904e-08 -1.9826e-07 0)
(-7.79238e-08 -1.99576e-07 0)
(-7.85537e-08 -2.00879e-07 0)
(-7.91801e-08 -2.02167e-07 0)
(-7.9803e-08 -2.0344e-07 0)
(-8.04224e-08 -2.04699e-07 0)
(-8.10383e-08 -2.05943e-07 0)
(-8.16507e-08 -2.07172e-07 0)
(-8.22596e-08 -2.08386e-07 0)
(-8.2865e-08 -2.09585e-07 0)
(-8.34671e-08 -2.10769e-07 0)
(-8.40659e-08 -2.11938e-07 0)
(-8.46617e-08 -2.13093e-07 0)
(-8.52545e-08 -2.14233e-07 0)
(-8.58446e-08 -2.15358e-07 0)
(-8.64323e-08 -2.16469e-07 0)
(-8.70178e-08 -2.17566e-07 0)
(-8.76015e-08 -2.1865e-07 0)
(-8.81838e-08 -2.1972e-07 0)
(-8.87649e-08 -2.20778e-07 0)
(-8.93454e-08 -2.21823e-07 0)
(-8.99256e-08 -2.22855e-07 0)
(-9.05058e-08 -2.23875e-07 0)
(-9.10865e-08 -2.24883e-07 0)
(-9.16677e-08 -2.25879e-07 0)
(-9.22497e-08 -2.26861e-07 0)
(-9.28325e-08 -2.2783e-07 0)
(-9.34159e-08 -2.28784e-07 0)
(-9.39996e-08 -2.29722e-07 0)
(-9.45834e-08 -2.30644e-07 0)
(-9.51668e-08 -2.31546e-07 0)
(-9.57497e-08 -2.32429e-07 0)
(-9.63319e-08 -2.33292e-07 0)
(-9.69144e-08 -2.34133e-07 0)
(-9.74989e-08 -2.34956e-07 0)
(-9.80884e-08 -2.35762e-07 0)
(-9.86875e-08 -2.36556e-07 0)
(-9.93026e-08 -2.37345e-07 0)
(-9.99406e-08 -2.38134e-07 0)
(-1.00609e-07 -2.38928e-07 0)
(-1.01312e-07 -2.39729e-07 0)
(-1.02049e-07 -2.40531e-07 0)
(-1.02809e-07 -2.41318e-07 0)
(-1.03553e-07 -2.42051e-07 0)
(-1.04222e-07 -2.42674e-07 0)
(-1.04743e-07 -2.4313e-07 0)
(-1.05079e-07 -2.43403e-07 0)
(-1.05252e-07 -2.43532e-07 0)
(-1.05326e-07 -2.43579e-07 0)
(-1.05368e-07 -2.43595e-07 0)
(-1.05419e-07 -2.43634e-07 0)
(-1.05524e-07 -2.43753e-07 0)
(-1.05588e-07 -2.43784e-07 0)
(-1.05638e-07 -2.43789e-07 0)
(-1.0575e-07 -2.43781e-07 0)
(-0.0280166 -1.60354e-05 0)
(-0.130301 -0.000193474 0)
(-0.225783 -0.000238826 0)
(-0.30265 -0.000271818 0)
(-0.36664 -0.000284832 0)
(-0.420882 -0.000289715 0)
(-0.467531 -0.000282479 0)
(-0.50813 -0.000261022 0)
(-0.543827 -0.000223697 0)
(-0.575506 -0.000169278 0)
(-0.603857 -9.69831e-05 0)
(-0.629426 -6.4456e-06 0)
(-0.652645 0.000102224 0)
(-0.67386 0.000228471 0)
(-0.693343 0.000371485 0)
(-0.711312 0.000530243 0)
(-0.727943 0.000703495 0)
(-0.743376 0.00088977 0)
(-0.757722 0.00108738 0)
(-0.771073 0.0012944 0)
(-0.783503 0.00150858 0)
(-0.795074 0.00172733 0)
(-0.805837 0.00194764 0)
(-0.815836 0.00216595 0)
(-0.825109 0.0023781 0)
(-0.833692 0.00257894 0)
(-0.841617 0.00276143 0)
(-0.848916 0.00291495 0)
(-0.855624 0.00302406 0)
(-0.861776 0.00306961 0)
(-0.86741 0.00303413 0)
(-0.872569 0.00290911 0)
(-0.877297 0.00269925 0)
(-0.881636 0.00242052 0)
(-0.885624 0.00209413 0)
(-0.889297 0.00174081 0)
(-0.892684 0.0013777 0)
(-0.895811 0.00101748 0)
(-0.8987 0.000668899 0)
(-0.90137 0.000337556 0)
(-0.903839 2.67654e-05 0)
(-0.906123 -0.000261779 0)
(-0.908234 -0.000527499 0)
(-0.910186 -0.000770567 0)
(-0.911992 -0.000991646 0)
(-0.91366 -0.00119171 0)
(-0.915202 -0.00137194 0)
(-0.916626 -0.00153358 0)
(-0.917942 -0.00167794 0)
(-0.919156 -0.00180635 0)
(-0.920277 -0.00192007 0)
(-0.921311 -0.00202035 0)
(-0.922265 -0.00210838 0)
(-0.923144 -0.00218527 0)
(-0.923961 -0.00225278 0)
(-0.924728 -0.00231216 0)
(-0.925446 -0.00236391 0)
(-0.926117 -0.0024086 0)
(-0.926742 -0.00244678 0)
(-0.927324 -0.002479 0)
(-0.927863 -0.00250583 0)
(-0.928363 -0.00252781 0)
(-0.928824 -0.00254546 0)
(-0.929249 -0.00255926 0)
(-0.929639 -0.00256967 0)
(-0.929997 -0.00257708 0)
(-0.930324 -0.00258188 0)
(-0.930622 -0.00258438 0)
(-0.930892 -0.00258487 0)
(-0.931137 -0.00258362 0)
(-0.931358 -0.00258083 0)
(-0.931556 -0.00257672 0)
(-0.931733 -0.00257147 0)
(-0.93189 -0.0025652 0)
(-0.932029 -0.00255802 0)
(-0.932151 -0.00254999 0)
(-0.932258 -0.0025411 0)
(-0.932349 -0.00253124 0)
(-0.932427 -0.00252024 0)
(-0.932493 -0.00250792 0)
(-0.932546 -0.00249425 0)
(-0.932589 -0.00247978 0)
(-0.932622 -0.00246641 0)
(-0.932646 -0.00245835 0)
(-0.932662 -0.00246253 0)
(-0.932672 -0.0024852 0)
(-0.932675 -0.00252505 0)
(-0.932672 -0.00256651 0)
(-0.932665 -0.00259511 0)
(-0.932649 -0.00261555 0)
(-0.92589 -0.00322841 0)
(-0.923768 -0.00317366 0)
(-0.921576 -0.00339721 0)
(-0.919344 -0.00351056 0)
(-0.917074 -0.00358997 0)
(-0.91477 -0.0036275 0)
(-0.912436 -0.00362649 0)
(-0.910075 -0.00359042 0)
(-0.907692 -0.00351433 0)
(-0.905294 -0.00351167 0)
(-0.902878 -0.00306594 0)
(-0.900451 -0.00378477 0)
(-0.898039 -0.0020361 0)
(-0.895677 -0.00467439 0)
(-0.893207 -0.000858074 0)
(-0.890727 -0.0210916 0)
(-0.888648 -0.0387479 0)
(-0.886238 -0.0396798 0)
(-0.884092 -0.0396132 0)
(-0.882014 -0.0396171 0)
(-0.880038 -0.0396155 0)
(-0.878181 -0.0396137 0)
(-0.876459 -0.0396113 0)
(-0.874891 -0.0396084 0)
(-0.873494 -0.039605 0)
(-0.872285 -0.0396011 0)
(-0.871277 -0.039597 0)
(-0.87048 -0.0395926 0)
(-0.869894 -0.0395882 0)
(-0.869534 -0.0395839 0)
(-0.869391 -0.0395802 0)
(-0.869425 -0.0395764 0)
(-0.86965 -0.0395733 0)
(-0.870034 -0.0395707 0)
(-0.870554 -0.0395686 0)
(-0.871182 -0.0395669 0)
(-0.871891 -0.0395655 0)
(-0.872648 -0.0395643 0)
(-0.87342 -0.0395631 0)
(-0.874169 -0.0395617 0)
(-0.874854 -0.0395597 0)
(-0.875372 -0.0395557 0)
(-0.875555 -0.0395516 0)
(-0.87557 -0.03955 0)
(-0.87557 -0.0395499 0)
(-0.87557 -0.0395499 0)
(-0.87557 -0.0395499 0)
(-0.87557 -0.0395499 0)
(-0.87557 -0.0395499 0)
(-0.87557 -0.0395499 0)
(-0.87557 -0.0395499 0)
(-0.87557 -0.0395499 0)
(-0.87557 -0.0395499 0)
(-0.87557 -0.0395499 0)
(-0.87557 -0.0395499 0)
(-0.87557 -0.0395499 0)
(-0.87557 -0.0395499 0)
(-0.87557 -0.0395499 0)
(-0.87557 -0.0395499 0)
(-0.87557 -0.0395499 0)
(-0.87557 -0.0395499 0)
(-0.87557 -0.0395499 0)
(-0.87557 -0.0395499 0)
(-0.87557 -0.0395499 0)
(-0.87557 -0.0395499 0)
(-0.87557 -0.0395499 0)
(-0.87557 -0.0395499 0)
(-0.87557 -0.0395499 0)
(-0.87557 -0.0395499 0)
(-0.87557 -0.0395499 0)
(-0.87557 -0.0395499 0)
(-0.87557 -0.0395499 0)
(-0.87557 -0.0395499 0)
(-0.87557 -0.0395499 0)
(-0.87557 -0.0395499 0)
(-0.87557 -0.0395499 0)
(-0.87557 -0.0395499 0)
(-0.87557 -0.0395499 0)
(-0.87557 -0.0395499 0)
(-0.87557 -0.0395499 0)
(-0.87557 -0.0395499 0)
(-0.87557 -0.0395499 0)
(-0.87557 -0.0395499 0)
(-0.87557 -0.0395499 0)
(-0.87557 -0.0395499 0)
(-0.87557 -0.0395499 0)
(-0.87557 -0.0395499 0)
(-0.87557 -0.0395499 0)
(-0.87557 -0.0395499 0)
(-0.87557 -0.0395499 0)
(-0.87557 -0.0395499 0)
(-0.87557 -0.0395499 0)
(-0.87557 -0.0395499 0)
(-0.87557 -0.0395499 0)
(-0.87557 -0.0395499 0)
(-0.87557 -0.0395499 0)
(-0.87557 -0.0395499 0)
(-0.87557 -0.0395499 0)
(-0.87557 -0.0395499 0)
(-0.87557 -0.0395499 0)
(-0.87557 -0.0395499 0)
(-0.87557 -0.0395499 0)
(-0.87557 -0.0395499 0)
(-0.87557 -0.0395499 0)
(-0.87557 -0.0395499 0)
(-0.87557 -0.0395499 0)
(-0.87557 -0.0395499 0)
(-0.87557 -0.0395499 0)
(-0.87557 -0.0395499 0)
(-0.87557 -0.0395499 0)
(-0.87557 -0.0395499 0)
(-0.87557 -0.0395499 0)
(-0.87557 -0.0395499 0)
(-0.87557 -0.0395499 0)
(-0.87557 -0.0395499 0)
(-0.87557 -0.0395499 0)
(-0.87557 -0.0395499 0)
(-0.87557 -0.0395499 0)
(-0.87557 -0.0395499 0)
(-0.87557 -0.0395497 0)
(-0.87557 -0.0395413 0)
(-0.875568 -0.0391967 0)
(-0.875529 -0.0224999 0)
)
;

boundaryField
{
    inandouthalf11
    {
        type            cyclic;
    }
    inandouthalf12
    {
        type            cyclic;
    }
    inandouthalf21
    {
        type            cyclic;
    }
    inandouthalf22
    {
        type            cyclic;
    }
    inandouthalf31
    {
        type            cyclic;
    }
    inandouthalf32
    {
        type            cyclic;
    }
    inandouthalf41
    {
        type            cyclic;
    }
    inandouthalf42
    {
        type            cyclic;
    }
    top
    {
        type            symmetryPlane;
    }
    walls
    {
        type            fixedValue;
        value           uniform (0 0 0);
    }
    frontAndBackPlanes
    {
        type            empty;
    }
}


// ************************************************************************* //
