/*--------------------------------*- C++ -*----------------------------------*\
| =========                 |                                                 |
| \\      /  F ield         | OpenFOAM: The Open Source CFD Toolbox           |
|  \\    /   O peration     | Version:  2.4.x                                 |
|   \\  /    A nd           | Web:      www.OpenFOAM.org                      |
|    \\/     M anipulation  |                                                 |
\*---------------------------------------------------------------------------*/
FoamFile
{
    version     2.0;
    format      ascii;
    class       volVectorField;
    location    "12.2";
    object      Ua_0;
}
// * * * * * * * * * * * * * * * * * * * * * * * * * * * * * * * * * * * * * //

dimensions      [0 1 -1 0 0 0 0];

internalField   nonuniform List<vector> 
360
(
(-1.72114e-32 -1.02649e-31 0)
(-5.73703e-10 -2.38537e-09 0)
(-1.19665e-09 -4.26311e-09 0)
(-1.7652e-09 -5.94074e-09 0)
(-2.35716e-09 -7.74524e-09 0)
(-2.9888e-09 -9.66982e-09 0)
(-3.64737e-09 -1.16552e-08 0)
(-4.32798e-09 -1.36924e-08 0)
(-5.03265e-09 -1.57912e-08 0)
(-5.76402e-09 -1.79589e-08 0)
(-6.52374e-09 -2.02e-08 0)
(-7.31246e-09 -2.25152e-08 0)
(-8.13007e-09 -2.49035e-08 0)
(-8.9761e-09 -2.73626e-08 0)
(-9.84983e-09 -2.98898e-08 0)
(-1.07504e-08 -3.2482e-08 0)
(-1.16767e-08 -3.51357e-08 0)
(-1.26274e-08 -3.78463e-08 0)
(-1.36008e-08 -4.06086e-08 0)
(-1.45953e-08 -4.34174e-08 0)
(-1.56089e-08 -4.62668e-08 0)
(-1.66396e-08 -4.91509e-08 0)
(-1.76854e-08 -5.20639e-08 0)
(-1.87443e-08 -5.49999e-08 0)
(-1.98142e-08 -5.79529e-08 0)
(-2.0893e-08 -6.0917e-08 0)
(-2.19786e-08 -6.38864e-08 0)
(-2.30691e-08 -6.68559e-08 0)
(-2.41626e-08 -6.98204e-08 0)
(-2.52572e-08 -7.27748e-08 0)
(-2.63511e-08 -7.57144e-08 0)
(-2.74428e-08 -7.86355e-08 0)
(-2.85306e-08 -8.15337e-08 0)
(-2.96134e-08 -8.44059e-08 0)
(-3.06898e-08 -8.72492e-08 0)
(-3.17586e-08 -9.00606e-08 0)
(-3.28189e-08 -9.28376e-08 0)
(-3.38697e-08 -9.55785e-08 0)
(-3.49105e-08 -9.82821e-08 0)
(-3.59405e-08 -1.00946e-07 0)
(-3.69591e-08 -1.03571e-07 0)
(-3.79662e-08 -1.06155e-07 0)
(-3.89611e-08 -1.08697e-07 0)
(-3.99438e-08 -1.11198e-07 0)
(-4.09141e-08 -1.13658e-07 0)
(-4.18722e-08 -1.16078e-07 0)
(-4.28178e-08 -1.18456e-07 0)
(-4.3751e-08 -1.20794e-07 0)
(-4.46718e-08 -1.23092e-07 0)
(-4.55807e-08 -1.25352e-07 0)
(-4.64779e-08 -1.27574e-07 0)
(-4.73634e-08 -1.29759e-07 0)
(-4.82377e-08 -1.31908e-07 0)
(-4.91009e-08 -1.34021e-07 0)
(-4.99535e-08 -1.36101e-07 0)
(-5.07957e-08 -1.38148e-07 0)
(-5.1628e-08 -1.40163e-07 0)
(-5.24506e-08 -1.42147e-07 0)
(-5.32639e-08 -1.44102e-07 0)
(-5.4068e-08 -1.46028e-07 0)
(-5.48635e-08 -1.47925e-07 0)
(-5.56508e-08 -1.49796e-07 0)
(-5.64302e-08 -1.51642e-07 0)
(-5.7202e-08 -1.53463e-07 0)
(-5.79667e-08 -1.55261e-07 0)
(-5.87243e-08 -1.57035e-07 0)
(-5.94753e-08 -1.58788e-07 0)
(-6.02199e-08 -1.60519e-07 0)
(-6.09583e-08 -1.62229e-07 0)
(-6.16907e-08 -1.63919e-07 0)
(-6.24174e-08 -1.65589e-07 0)
(-6.31388e-08 -1.67242e-07 0)
(-6.3855e-08 -1.68876e-07 0)
(-6.45662e-08 -1.70492e-07 0)
(-6.52727e-08 -1.72091e-07 0)
(-6.59748e-08 -1.73675e-07 0)
(-6.66725e-08 -1.75242e-07 0)
(-6.73658e-08 -1.76793e-07 0)
(-6.80548e-08 -1.78328e-07 0)
(-6.87398e-08 -1.79848e-07 0)
(-6.94206e-08 -1.81353e-07 0)
(-7.00975e-08 -1.82843e-07 0)
(-7.07706e-08 -1.84317e-07 0)
(-7.144e-08 -1.85778e-07 0)
(-7.21058e-08 -1.87224e-07 0)
(-7.27681e-08 -1.88657e-07 0)
(-7.34269e-08 -1.90075e-07 0)
(-7.40823e-08 -1.91479e-07 0)
(-7.4734e-08 -1.92869e-07 0)
(-7.53822e-08 -1.94245e-07 0)
(-7.60267e-08 -1.95605e-07 0)
(-7.66675e-08 -1.96952e-07 0)
(-7.73047e-08 -1.98284e-07 0)
(-7.79383e-08 -1.99601e-07 0)
(-7.85683e-08 -2.00903e-07 0)
(-7.91949e-08 -2.02192e-07 0)
(-7.98179e-08 -2.03465e-07 0)
(-8.04374e-08 -2.04724e-07 0)
(-8.10535e-08 -2.05968e-07 0)
(-8.1666e-08 -2.07198e-07 0)
(-8.2275e-08 -2.08412e-07 0)
(-8.28806e-08 -2.09611e-07 0)
(-8.34829e-08 -2.10796e-07 0)
(-8.40818e-08 -2.11965e-07 0)
(-8.46777e-08 -2.1312e-07 0)
(-8.52707e-08 -2.1426e-07 0)
(-8.58609e-08 -2.15385e-07 0)
(-8.64488e-08 -2.16497e-07 0)
(-8.70344e-08 -2.17594e-07 0)
(-8.76183e-08 -2.18678e-07 0)
(-8.82007e-08 -2.19749e-07 0)
(-8.8782e-08 -2.20806e-07 0)
(-8.93626e-08 -2.21851e-07 0)
(-8.99429e-08 -2.22884e-07 0)
(-9.05233e-08 -2.23904e-07 0)
(-9.11041e-08 -2.24912e-07 0)
(-9.16855e-08 -2.25908e-07 0)
(-9.22677e-08 -2.26891e-07 0)
(-9.28506e-08 -2.2786e-07 0)
(-9.34341e-08 -2.28814e-07 0)
(-9.4018e-08 -2.29753e-07 0)
(-9.4602e-08 -2.30674e-07 0)
(-9.51855e-08 -2.31577e-07 0)
(-9.57685e-08 -2.3246e-07 0)
(-9.63509e-08 -2.33323e-07 0)
(-9.69336e-08 -2.34164e-07 0)
(-9.75182e-08 -2.34987e-07 0)
(-9.81078e-08 -2.35793e-07 0)
(-9.87072e-08 -2.36588e-07 0)
(-9.93224e-08 -2.37377e-07 0)
(-9.99606e-08 -2.38166e-07 0)
(-1.00629e-07 -2.3896e-07 0)
(-1.01332e-07 -2.39761e-07 0)
(-1.0207e-07 -2.40564e-07 0)
(-1.02829e-07 -2.41351e-07 0)
(-1.03574e-07 -2.42084e-07 0)
(-1.04243e-07 -2.42707e-07 0)
(-1.04764e-07 -2.43163e-07 0)
(-1.051e-07 -2.43436e-07 0)
(-1.05273e-07 -2.43565e-07 0)
(-1.05348e-07 -2.43612e-07 0)
(-1.0539e-07 -2.43628e-07 0)
(-1.0544e-07 -2.43667e-07 0)
(-1.05546e-07 -2.43786e-07 0)
(-1.05609e-07 -2.43817e-07 0)
(-1.0566e-07 -2.43822e-07 0)
(-1.05772e-07 -2.43814e-07 0)
(-0.0280248 -1.60317e-05 0)
(-0.130313 -0.000193393 0)
(-0.225795 -0.000238719 0)
(-0.302663 -0.000271695 0)
(-0.366654 -0.000284702 0)
(-0.420896 -0.000289579 0)
(-0.467546 -0.000282339 0)
(-0.508146 -0.000260876 0)
(-0.543845 -0.000223543 0)
(-0.575525 -0.000169111 0)
(-0.603877 -9.67985e-05 0)
(-0.629447 -6.23689e-06 0)
(-0.652667 0.000102463 0)
(-0.673883 0.000228746 0)
(-0.693366 0.000371803 0)
(-0.711337 0.000530609 0)
(-0.727969 0.000703913 0)
(-0.743401 0.000890245 0)
(-0.757748 0.00108792 0)
(-0.771099 0.00129499 0)
(-0.78353 0.00150922 0)
(-0.795101 0.00172803 0)
(-0.805864 0.00194838 0)
(-0.815863 0.00216673 0)
(-0.825136 0.0023789 0)
(-0.833718 0.00257974 0)
(-0.841643 0.00276219 0)
(-0.848942 0.00291563 0)
(-0.855649 0.00302458 0)
(-0.8618 0.0030699 0)
(-0.867433 0.00303411 0)
(-0.872592 0.00290874 0)
(-0.877319 0.00269855 0)
(-0.881657 0.00241952 0)
(-0.885645 0.00209288 0)
(-0.889317 0.00173939 0)
(-0.892704 0.00137614 0)
(-0.89583 0.00101584 0)
(-0.898718 0.000667199 0)
(-0.901388 0.000335823 0)
(-0.903856 2.5016e-05 0)
(-0.906139 -0.000263533 0)
(-0.90825 -0.000529249 0)
(-0.910202 -0.000772308 0)
(-0.912007 -0.000993375 0)
(-0.913675 -0.00119343 0)
(-0.915216 -0.00137364 0)
(-0.91664 -0.00153526 0)
(-0.917955 -0.00167962 0)
(-0.919169 -0.00180801 0)
(-0.92029 -0.00192172 0)
(-0.921323 -0.00202199 0)
(-0.922276 -0.00211001 0)
(-0.923155 -0.0021869 0)
(-0.923972 -0.00225441 0)
(-0.924739 -0.00231378 0)
(-0.925456 -0.00236553 0)
(-0.926127 -0.00241022 0)
(-0.926752 -0.0024484 0)
(-0.927333 -0.00248063 0)
(-0.927872 -0.00250746 0)
(-0.928371 -0.00252945 0)
(-0.928832 -0.00254711 0)
(-0.929257 -0.00256092 0)
(-0.929647 -0.00257134 0)
(-0.930005 -0.00257877 0)
(-0.930332 -0.00258359 0)
(-0.930629 -0.0025861 0)
(-0.930899 -0.00258661 0)
(-0.931144 -0.00258538 0)
(-0.931364 -0.00258261 0)
(-0.931562 -0.00257853 0)
(-0.931739 -0.00257329 0)
(-0.931896 -0.00256705 0)
(-0.932035 -0.0025599 0)
(-0.932157 -0.0025519 0)
(-0.932263 -0.00254302 0)
(-0.932355 -0.00253319 0)
(-0.932433 -0.00252222 0)
(-0.932498 -0.00250993 0)
(-0.932551 -0.00249627 0)
(-0.932594 -0.00248183 0)
(-0.932627 -0.00246848 0)
(-0.932651 -0.00246042 0)
(-0.932667 -0.0024646 0)
(-0.932676 -0.00248725 0)
(-0.932679 -0.00252706 0)
(-0.932676 -0.00256849 0)
(-0.932669 -0.00259705 0)
(-0.932654 -0.00261745 0)
(-0.925878 -0.00322962 0)
(-0.923755 -0.00317504 0)
(-0.921564 -0.00339827 0)
(-0.919331 -0.00351149 0)
(-0.917061 -0.00359073 0)
(-0.914757 -0.00362811 0)
(-0.912422 -0.00362697 0)
(-0.910061 -0.00359076 0)
(-0.907678 -0.00351447 0)
(-0.90528 -0.00351203 0)
(-0.902864 -0.00306525 0)
(-0.900436 -0.00378583 0)
(-0.898024 -0.00203408 0)
(-0.895662 -0.0046775 0)
(-0.893192 -0.000854271 0)
(-0.890713 -0.0210811 0)
(-0.888633 -0.0387457 0)
(-0.886224 -0.03968 0)
(-0.884077 -0.0396132 0)
(-0.881999 -0.0396171 0)
(-0.880024 -0.0396155 0)
(-0.878166 -0.0396137 0)
(-0.876444 -0.0396113 0)
(-0.874877 -0.0396084 0)
(-0.87348 -0.039605 0)
(-0.872271 -0.0396011 0)
(-0.871263 -0.039597 0)
(-0.870466 -0.0395926 0)
(-0.869881 -0.0395882 0)
(-0.869521 -0.0395839 0)
(-0.869378 -0.0395802 0)
(-0.869413 -0.0395764 0)
(-0.869638 -0.0395733 0)
(-0.870023 -0.0395707 0)
(-0.870543 -0.0395686 0)
(-0.871171 -0.0395669 0)
(-0.87188 -0.0395655 0)
(-0.872637 -0.0395643 0)
(-0.873409 -0.0395631 0)
(-0.874158 -0.0395617 0)
(-0.874843 -0.0395597 0)
(-0.875361 -0.0395557 0)
(-0.875544 -0.0395516 0)
(-0.875559 -0.03955 0)
(-0.875559 -0.0395499 0)
(-0.875559 -0.0395499 0)
(-0.875559 -0.0395499 0)
(-0.875559 -0.0395499 0)
(-0.875559 -0.0395499 0)
(-0.875559 -0.0395499 0)
(-0.875559 -0.0395499 0)
(-0.875559 -0.0395499 0)
(-0.875559 -0.0395499 0)
(-0.875559 -0.0395499 0)
(-0.875559 -0.0395499 0)
(-0.875559 -0.0395499 0)
(-0.875559 -0.0395499 0)
(-0.875559 -0.0395499 0)
(-0.875559 -0.0395499 0)
(-0.875559 -0.0395499 0)
(-0.875559 -0.0395499 0)
(-0.875559 -0.0395499 0)
(-0.875559 -0.0395499 0)
(-0.875559 -0.0395499 0)
(-0.875559 -0.0395499 0)
(-0.875559 -0.0395499 0)
(-0.875559 -0.0395499 0)
(-0.875559 -0.0395499 0)
(-0.875559 -0.0395499 0)
(-0.875559 -0.0395499 0)
(-0.875559 -0.0395499 0)
(-0.875559 -0.0395499 0)
(-0.875559 -0.0395499 0)
(-0.875559 -0.0395499 0)
(-0.875559 -0.0395499 0)
(-0.875559 -0.0395499 0)
(-0.875559 -0.0395499 0)
(-0.875559 -0.0395499 0)
(-0.875559 -0.0395499 0)
(-0.875559 -0.0395499 0)
(-0.875559 -0.0395499 0)
(-0.875559 -0.0395499 0)
(-0.875559 -0.0395499 0)
(-0.875559 -0.0395499 0)
(-0.875559 -0.0395499 0)
(-0.875559 -0.0395499 0)
(-0.875559 -0.0395499 0)
(-0.875559 -0.0395499 0)
(-0.875559 -0.0395499 0)
(-0.875559 -0.0395499 0)
(-0.875559 -0.0395499 0)
(-0.875559 -0.0395499 0)
(-0.875559 -0.0395499 0)
(-0.875559 -0.0395499 0)
(-0.875559 -0.0395499 0)
(-0.875559 -0.0395499 0)
(-0.875559 -0.0395499 0)
(-0.875559 -0.0395499 0)
(-0.875559 -0.0395499 0)
(-0.875559 -0.0395499 0)
(-0.875559 -0.0395499 0)
(-0.875559 -0.0395499 0)
(-0.875559 -0.0395499 0)
(-0.875559 -0.0395499 0)
(-0.875559 -0.0395499 0)
(-0.875559 -0.0395499 0)
(-0.875559 -0.0395499 0)
(-0.875559 -0.0395499 0)
(-0.875559 -0.0395499 0)
(-0.875559 -0.0395499 0)
(-0.875559 -0.0395499 0)
(-0.875559 -0.0395499 0)
(-0.875559 -0.0395499 0)
(-0.875559 -0.0395499 0)
(-0.875559 -0.0395499 0)
(-0.875559 -0.0395499 0)
(-0.875559 -0.0395499 0)
(-0.875559 -0.0395499 0)
(-0.875559 -0.0395499 0)
(-0.875559 -0.0395497 0)
(-0.875559 -0.0395413 0)
(-0.875557 -0.0391967 0)
(-0.875518 -0.0224999 0)
)
;

boundaryField
{
    inandouthalf11
    {
        type            cyclic;
    }
    inandouthalf12
    {
        type            cyclic;
    }
    inandouthalf21
    {
        type            cyclic;
    }
    inandouthalf22
    {
        type            cyclic;
    }
    inandouthalf31
    {
        type            cyclic;
    }
    inandouthalf32
    {
        type            cyclic;
    }
    inandouthalf41
    {
        type            cyclic;
    }
    inandouthalf42
    {
        type            cyclic;
    }
    top
    {
        type            symmetryPlane;
    }
    walls
    {
        type            fixedValue;
        value           uniform (0 0 0);
    }
    frontAndBackPlanes
    {
        type            empty;
    }
}


// ************************************************************************* //
