/*--------------------------------*- C++ -*----------------------------------*\
| =========                 |                                                 |
| \\      /  F ield         | OpenFOAM: The Open Source CFD Toolbox           |
|  \\    /   O peration     | Version:  2.4.x                                 |
|   \\  /    A nd           | Web:      www.OpenFOAM.org                      |
|    \\/     M anipulation  |                                                 |
\*---------------------------------------------------------------------------*/
FoamFile
{
    version     2.0;
    format      ascii;
    class       volVectorField;
    location    "12.2";
    object      Ub;
}
// * * * * * * * * * * * * * * * * * * * * * * * * * * * * * * * * * * * * * //

dimensions      [0 1 -1 0 0 0 0];

internalField   nonuniform List<vector> 
360
(
(-1.17759e-05 1.00713e-09 0)
(-1.17105e-05 3.5588e-09 0)
(-1.17023e-05 6.54677e-09 0)
(-1.17118e-05 9.38382e-09 0)
(-1.17165e-05 1.22545e-08 0)
(-1.17185e-05 1.52586e-08 0)
(-1.17208e-05 1.83759e-08 0)
(-1.17236e-05 2.15862e-08 0)
(-1.17266e-05 2.48925e-08 0)
(-1.17296e-05 2.83049e-08 0)
(-1.17326e-05 3.18307e-08 0)
(-1.17356e-05 3.54718e-08 0)
(-1.17387e-05 3.92266e-08 0)
(-1.17419e-05 4.3092e-08 0)
(-1.17451e-05 4.70637e-08 0)
(-1.17484e-05 5.11366e-08 0)
(-1.17517e-05 5.5305e-08 0)
(-1.1755e-05 5.95618e-08 0)
(-1.17584e-05 6.38989e-08 0)
(-1.17619e-05 6.83082e-08 0)
(-1.17654e-05 7.27803e-08 0)
(-1.17689e-05 7.73059e-08 0)
(-1.17725e-05 8.18759e-08 0)
(-1.17761e-05 8.6481e-08 0)
(-1.17798e-05 9.11118e-08 0)
(-1.17835e-05 9.57591e-08 0)
(-1.17872e-05 1.00414e-07 0)
(-1.1791e-05 1.05067e-07 0)
(-1.17948e-05 1.09712e-07 0)
(-1.17986e-05 1.1434e-07 0)
(-1.18025e-05 1.18944e-07 0)
(-1.18063e-05 1.23517e-07 0)
(-1.18102e-05 1.28053e-07 0)
(-1.18142e-05 1.32548e-07 0)
(-1.18181e-05 1.36996e-07 0)
(-1.18221e-05 1.41393e-07 0)
(-1.18261e-05 1.45735e-07 0)
(-1.18301e-05 1.50019e-07 0)
(-1.18342e-05 1.54243e-07 0)
(-1.18383e-05 1.58404e-07 0)
(-1.18424e-05 1.62502e-07 0)
(-1.18465e-05 1.66535e-07 0)
(-1.18506e-05 1.70502e-07 0)
(-1.18548e-05 1.74403e-07 0)
(-1.1859e-05 1.78237e-07 0)
(-1.18632e-05 1.82007e-07 0)
(-1.18675e-05 1.85712e-07 0)
(-1.18717e-05 1.89351e-07 0)
(-1.1876e-05 1.92927e-07 0)
(-1.18804e-05 1.96442e-07 0)
(-1.18847e-05 1.99895e-07 0)
(-1.18891e-05 2.0329e-07 0)
(-1.18935e-05 2.06626e-07 0)
(-1.1898e-05 2.09907e-07 0)
(-1.19025e-05 2.13132e-07 0)
(-1.1907e-05 2.16305e-07 0)
(-1.19116e-05 2.19426e-07 0)
(-1.19162e-05 2.22498e-07 0)
(-1.19208e-05 2.25523e-07 0)
(-1.19255e-05 2.28499e-07 0)
(-1.19302e-05 2.31432e-07 0)
(-1.1935e-05 2.3432e-07 0)
(-1.19398e-05 2.37168e-07 0)
(-1.19446e-05 2.39976e-07 0)
(-1.19495e-05 2.42745e-07 0)
(-1.19545e-05 2.45477e-07 0)
(-1.19595e-05 2.48172e-07 0)
(-1.19646e-05 2.50833e-07 0)
(-1.19697e-05 2.53459e-07 0)
(-1.19748e-05 2.56052e-07 0)
(-1.19801e-05 2.58613e-07 0)
(-1.19854e-05 2.61144e-07 0)
(-1.19907e-05 2.63644e-07 0)
(-1.19961e-05 2.66116e-07 0)
(-1.20016e-05 2.68558e-07 0)
(-1.20072e-05 2.70975e-07 0)
(-1.20128e-05 2.73363e-07 0)
(-1.20185e-05 2.75726e-07 0)
(-1.20243e-05 2.78061e-07 0)
(-1.20301e-05 2.80371e-07 0)
(-1.2036e-05 2.82655e-07 0)
(-1.20421e-05 2.84913e-07 0)
(-1.20482e-05 2.87147e-07 0)
(-1.20543e-05 2.89355e-07 0)
(-1.20606e-05 2.9154e-07 0)
(-1.2067e-05 2.937e-07 0)
(-1.20734e-05 2.95837e-07 0)
(-1.208e-05 2.97949e-07 0)
(-1.20867e-05 3.00037e-07 0)
(-1.20934e-05 3.02099e-07 0)
(-1.21003e-05 3.04137e-07 0)
(-1.21073e-05 3.0615e-07 0)
(-1.21144e-05 3.08137e-07 0)
(-1.21216e-05 3.10099e-07 0)
(-1.2129e-05 3.12035e-07 0)
(-1.21365e-05 3.13947e-07 0)
(-1.21441e-05 3.15832e-07 0)
(-1.21519e-05 3.17692e-07 0)
(-1.21598e-05 3.19526e-07 0)
(-1.21679e-05 3.21334e-07 0)
(-1.21761e-05 3.23116e-07 0)
(-1.21845e-05 3.24871e-07 0)
(-1.2193e-05 3.26599e-07 0)
(-1.22018e-05 3.283e-07 0)
(-1.22107e-05 3.29975e-07 0)
(-1.22198e-05 3.31624e-07 0)
(-1.22291e-05 3.33246e-07 0)
(-1.22386e-05 3.34843e-07 0)
(-1.22483e-05 3.36414e-07 0)
(-1.22583e-05 3.37959e-07 0)
(-1.22685e-05 3.3948e-07 0)
(-1.2279e-05 3.40976e-07 0)
(-1.22897e-05 3.42447e-07 0)
(-1.23007e-05 3.43895e-07 0)
(-1.23119e-05 3.45318e-07 0)
(-1.23235e-05 3.46716e-07 0)
(-1.23354e-05 3.4809e-07 0)
(-1.23476e-05 3.49438e-07 0)
(-1.23601e-05 3.50758e-07 0)
(-1.23731e-05 3.5205e-07 0)
(-1.23864e-05 3.5331e-07 0)
(-1.24001e-05 3.54537e-07 0)
(-1.24143e-05 3.55728e-07 0)
(-1.24289e-05 3.5688e-07 0)
(-1.2444e-05 3.57994e-07 0)
(-1.24596e-05 3.59067e-07 0)
(-1.24758e-05 3.60102e-07 0)
(-1.24926e-05 3.61103e-07 0)
(-1.251e-05 3.62077e-07 0)
(-1.25281e-05 3.6303e-07 0)
(-1.2547e-05 3.63972e-07 0)
(-1.25666e-05 3.64908e-07 0)
(-1.25872e-05 3.65835e-07 0)
(-1.26089e-05 3.66742e-07 0)
(-1.26321e-05 3.67597e-07 0)
(-1.26567e-05 3.68343e-07 0)
(-1.26827e-05 3.68895e-07 0)
(-1.27103e-05 3.69172e-07 0)
(-1.27407e-05 3.69148e-07 0)
(-1.27752e-05 3.68885e-07 0)
(-1.28124e-05 3.68403e-07 0)
(-1.28566e-05 3.65119e-07 0)
(-1.3161e-05 3.67143e-07 0)
(-1.31159e-05 3.81133e-07 0)
(-1.31719e-05 1.73216e-07 0)
(-1.33539e-05 1.13953e-06 0)
(-0.000100076 -2.67766e-06 0)
(-0.0312396 1.6103e-05 0)
(-0.140232 9.76455e-05 0)
(-0.234117 6.59423e-05 0)
(-0.309635 6.46194e-05 0)
(-0.372435 5.54737e-05 0)
(-0.425805 4.55877e-05 0)
(-0.471835 3.57869e-05 0)
(-0.512017 2.65288e-05 0)
(-0.547466 1.8164e-05 0)
(-0.579042 1.09269e-05 0)
(-0.607416 4.90883e-06 0)
(-0.633121 8.66946e-08 0)
(-0.65658 -3.63856e-06 0)
(-0.678131 -6.40638e-06 0)
(-0.698049 -8.36573e-06 0)
(-0.716552 -9.65937e-06 0)
(-0.73382 -1.0417e-05 0)
(-0.749998 -1.07516e-05 0)
(-0.765206 -1.07583e-05 0)
(-0.779542 -1.05163e-05 0)
(-0.793087 -1.009e-05 0)
(-0.805907 -9.53147e-06 0)
(-0.818057 -8.8822e-06 0)
(-0.829581 -8.17519e-06 0)
(-0.840516 -7.43612e-06 0)
(-0.850891 -6.68391e-06 0)
(-0.860728 -5.93025e-06 0)
(-0.870046 -5.17985e-06 0)
(-0.878856 -4.43401e-06 0)
(-0.88717 -3.69859e-06 0)
(-0.894992 -2.99129e-06 0)
(-0.902327 -2.3404e-06 0)
(-0.909178 -1.7737e-06 0)
(-0.915548 -1.30636e-06 0)
(-0.92144 -9.37243e-07 0)
(-0.92686 -6.53873e-07 0)
(-0.931816 -4.39709e-07 0)
(-0.936317 -2.79061e-07 0)
(-0.940378 -1.59012e-07 0)
(-0.944016 -6.95721e-08 0)
(-0.947253 -3.21423e-09 0)
(-0.950113 4.56869e-08 0)
(-0.952622 8.1324e-08 0)
(-0.954808 1.0684e-07 0)
(-0.956698 1.24608e-07 0)
(-0.958321 1.36426e-07 0)
(-0.959703 1.43671e-07 0)
(-0.96087 1.47401e-07 0)
(-0.961844 1.48434e-07 0)
(-0.962647 1.47411e-07 0)
(-0.963297 1.44832e-07 0)
(-0.963812 1.4109e-07 0)
(-0.964205 1.36497e-07 0)
(-0.96449 1.31299e-07 0)
(-0.96468 1.25636e-07 0)
(-0.964781 1.19592e-07 0)
(-0.964799 1.13287e-07 0)
(-0.964737 1.06828e-07 0)
(-0.964597 1.00303e-07 0)
(-0.964383 9.37921e-08 0)
(-0.964097 8.73613e-08 0)
(-0.963741 8.10668e-08 0)
(-0.963316 7.49551e-08 0)
(-0.962825 6.90631e-08 0)
(-0.962267 6.34191e-08 0)
(-0.961645 5.80437e-08 0)
(-0.960959 5.29506e-08 0)
(-0.96021 4.81472e-08 0)
(-0.959398 4.36362e-08 0)
(-0.958524 3.94161e-08 0)
(-0.957588 3.54826e-08 0)
(-0.95659 3.18288e-08 0)
(-0.955531 2.84467e-08 0)
(-0.954411 2.53272e-08 0)
(-0.95323 2.24603e-08 0)
(-0.951987 1.98356e-08 0)
(-0.950685 1.74418e-08 0)
(-0.949322 1.52668e-08 0)
(-0.947899 1.32962e-08 0)
(-0.946417 1.15117e-08 0)
(-0.944875 9.88988e-09 0)
(-0.943275 8.40224e-09 0)
(-0.941617 7.02288e-09 0)
(-0.939901 5.74857e-09 0)
(-0.938129 4.62399e-09 0)
(-0.936301 3.7332e-09 0)
(-0.934419 3.11999e-09 0)
(-0.932483 2.70949e-09 0)
(-0.930495 2.38861e-09 0)
(-0.928457 2.15753e-09 0)
(-0.926371 1.94382e-09 0)
(-0.924238 1.66628e-09 0)
(-0.922061 1.38673e-09 0)
(-0.919843 1.13124e-09 0)
(-0.917586 9.05166e-10 0)
(-0.915294 7.09465e-10 0)
(-0.912971 5.44022e-10 0)
(-0.91062 4.07478e-10 0)
(-0.908247 2.97456e-10 0)
(-0.905857 2.10811e-10 0)
(-0.903455 1.44054e-10 0)
(-0.901049 9.46058e-11 0)
(-0.898645 5.72514e-11 0)
(-0.896251 3.23959e-11 0)
(-0.893878 2.45e-11 0)
(-0.891534 1.37934e-11 0)
(-0.889232 3.4275e-13 0)
(-0.886983 -9.14314e-13 0)
(-0.884801 1.45598e-14 0)
(-0.882701 2.25184e-13 0)
(-0.880699 1.43779e-13 0)
(-0.878812 8.09383e-14 0)
(-0.877057 5.29039e-14 0)
(-0.875454 3.26921e-14 0)
(-0.874018 1.52496e-14 0)
(-0.872768 8.69767e-16 0)
(-0.871718 -1.05256e-14 0)
(-0.870878 -2.21699e-14 0)
(-0.870256 -3.41702e-14 0)
(-0.869851 -4.60188e-14 0)
(-0.869658 -5.52777e-14 0)
(-0.869667 -4.9672e-14 0)
(-0.869862 -2.75316e-14 0)
(-0.87022 -1.7183e-13 0)
(-0.870719 -1.43625e-12 0)
(-0.871332 6.96288e-12 0)
(-0.87203 -1.90416e-11 0)
(-0.872782 3.85272e-11 0)
(-0.873555 -6.66946e-11 0)
(-0.87431 1.03014e-10 0)
(-0.875001 -1.47193e-10 0)
(-0.875561 1.97196e-10 0)
(-0.875783 -2.51392e-10 0)
(-0.875802 3.07664e-10 0)
(-0.875802 -3.6542e-10 0)
(-0.875802 4.24228e-10 0)
(-0.875802 -4.84307e-10 0)
(-0.875802 5.45562e-10 0)
(-0.875802 -6.08125e-10 0)
(-0.875802 6.71984e-10 0)
(-0.875802 -7.37164e-10 0)
(-0.875802 8.03778e-10 0)
(-0.875802 -8.71715e-10 0)
(-0.875802 9.4116e-10 0)
(-0.875802 -1.01194e-09 0)
(-0.875802 1.08427e-09 0)
(-0.875802 -1.15796e-09 0)
(-0.875802 1.23322e-09 0)
(-0.875802 -1.30984e-09 0)
(-0.875802 1.38804e-09 0)
(-0.875802 -1.4676e-09 0)
(-0.875802 1.54871e-09 0)
(-0.875802 -1.63113e-09 0)
(-0.875802 1.71522e-09 0)
(-0.875802 -1.80038e-09 0)
(-0.875802 1.88728e-09 0)
(-0.875802 -1.97514e-09 0)
(-0.875802 2.06473e-09 0)
(-0.875802 -2.15516e-09 0)
(-0.875802 2.24729e-09 0)
(-0.875802 -2.3401e-09 0)
(-0.875802 2.43453e-09 0)
(-0.875802 -2.5295e-09 0)
(-0.875802 2.30658e-09 0)
(-0.875802 -2.35023e-09 0)
(-0.875802 2.39385e-09 0)
(-0.875802 -2.43644e-09 0)
(-0.875802 2.47901e-09 0)
(-0.875802 -2.52053e-09 0)
(-0.875802 2.56203e-09 0)
(-0.875802 -2.60247e-09 0)
(-0.875802 2.64288e-09 0)
(-0.875802 -2.68224e-09 0)
(-0.875802 2.72154e-09 0)
(-0.875802 -2.7598e-09 0)
(-0.875802 2.79798e-09 0)
(-0.875802 -2.83511e-09 0)
(-0.875802 2.87215e-09 0)
(-0.875802 -2.90814e-09 0)
(-0.875802 2.94403e-09 0)
(-0.875802 -2.97883e-09 0)
(-0.875802 3.01359e-09 0)
(-0.875802 -3.04708e-09 0)
(-0.875802 3.08083e-09 0)
(-0.875802 -3.11287e-09 0)
(-0.875802 3.1456e-09 0)
(-0.875802 -3.17616e-09 0)
(-0.875802 3.20785e-09 0)
(-0.875802 -3.23692e-09 0)
(-0.875802 3.26747e-09 0)
(-0.875802 -3.29499e-09 0)
(-0.875802 3.32442e-09 0)
(-0.875802 -3.35036e-09 0)
(-0.875802 3.3785e-09 0)
(-0.875802 -3.40286e-09 0)
(-0.875802 3.42962e-09 0)
(-0.875802 -3.45243e-09 0)
(-0.875802 3.4776e-09 0)
(-0.875802 -3.49869e-09 0)
(-0.875802 3.52242e-09 0)
(-0.875802 -3.54166e-09 0)
(-0.875802 3.56359e-09 0)
(-0.875802 -3.58098e-09 0)
(-0.875802 3.60091e-09 0)
(-0.875802 -3.61639e-09 0)
(-0.875802 3.63396e-09 0)
(-0.875802 -3.64733e-09 0)
(-0.875802 3.6621e-09 0)
(-0.875802 -3.67288e-09 0)
(-0.875802 3.68454e-09 0)
(-0.875802 -3.69189e-09 0)
(-0.875802 3.6992e-09 0)
(-0.875802 -3.6993e-09 0)
)
;

boundaryField
{
    inandouthalf11
    {
        type            cyclic;
    }
    inandouthalf12
    {
        type            cyclic;
    }
    inandouthalf21
    {
        type            cyclic;
    }
    inandouthalf22
    {
        type            cyclic;
    }
    inandouthalf31
    {
        type            cyclic;
    }
    inandouthalf32
    {
        type            cyclic;
    }
    inandouthalf41
    {
        type            cyclic;
    }
    inandouthalf42
    {
        type            cyclic;
    }
    top
    {
        type            symmetryPlane;
    }
    walls
    {
        type            fixedValue;
        value           uniform (0 0 0);
    }
    frontAndBackPlanes
    {
        type            empty;
    }
}


// ************************************************************************* //
