/*--------------------------------*- C++ -*----------------------------------*\
| =========                 |                                                 |
| \\      /  F ield         | OpenFOAM: The Open Source CFD Toolbox           |
|  \\    /   O peration     | Version:  2.4.x                                 |
|   \\  /    A nd           | Web:      www.OpenFOAM.org                      |
|    \\/     M anipulation  |                                                 |
\*---------------------------------------------------------------------------*/
FoamFile
{
    version     2.0;
    format      ascii;
    class       volScalarField;
    location    "6.4";
    object      alpha;
}
// * * * * * * * * * * * * * * * * * * * * * * * * * * * * * * * * * * * * * //

dimensions      [0 0 0 0 0 0 0];

internalField   nonuniform List<scalar> 
360
(
0.610712
0.611483
0.611596
0.611519
0.611471
0.611452
0.611433
0.611411
0.611388
0.611364
0.611339
0.611315
0.611291
0.611267
0.611242
0.611217
0.611192
0.611166
0.611141
0.611115
0.611089
0.611062
0.611036
0.611009
0.610982
0.610954
0.610927
0.610899
0.610871
0.610842
0.610814
0.610785
0.610756
0.610726
0.610696
0.610666
0.610636
0.610606
0.610574
0.610543
0.610511
0.610479
0.610447
0.610414
0.610381
0.610348
0.610314
0.61028
0.610246
0.610211
0.610177
0.610143
0.610108
0.610073
0.610038
0.610002
0.609967
0.60993
0.609892
0.609854
0.609813
0.60977
0.609725
0.609678
0.609629
0.609578
0.609528
0.60948
0.609435
0.609395
0.609356
0.609318
0.609281
0.609242
0.609203
0.609162
0.609122
0.60908
0.609037
0.608994
0.608949
0.608903
0.608856
0.608807
0.608758
0.608707
0.608655
0.608602
0.608548
0.608492
0.608436
0.608378
0.608319
0.608258
0.608197
0.608133
0.608068
0.608002
0.607934
0.607865
0.607794
0.607721
0.607646
0.60757
0.607492
0.607411
0.607329
0.607245
0.607158
0.607069
0.606978
0.606884
0.606788
0.606688
0.606586
0.606481
0.606373
0.606262
0.606147
0.606029
0.605907
0.605781
0.605651
0.605516
0.605378
0.605234
0.605085
0.604931
0.604771
0.604604
0.604431
0.60425
0.604062
0.603863
0.603652
0.603429
0.603195
0.602946
0.602671
0.602355
0.602014
0.601689
0.601299
0.600794
0.600168
0.599012
0.595388
0.594018
0.431474
0.247757
0.17719
0.133324
0.101019
0.0766804
0.0585087
0.0450488
0.035084
0.0276629
0.0220813
0.0178331
0.014559
0.0120042
0.00998714
0.00837684
0.00707805
0.0060206
0.00515218
0.00443332
0.00383392
0.00333078
0.00290584
0.00254492
0.00223675
0.00197236
0.0017445
0.0015473
0.00137597
0.00122658
0.00109587
0.000981138
0.000880127
0.000790943
0.000711991
0.00064192
0.000579581
0.000523995
0.000474322
0.000429843
0.000389935
0.000354062
0.000321754
0.000292606
0.000266258
0.000242396
0.00022074
0.000201043
0.000183085
0.00016667
0.000151624
0.000137801
0.000125097
0.000113303
0.00010225
9.19021e-05
8.22255e-05
7.31515e-05
6.46276e-05
5.6655e-05
4.9244e-05
4.24279e-05
3.62407e-05
3.07013e-05
2.58314e-05
2.16014e-05
1.79645e-05
1.48848e-05
1.22953e-05
1.013e-05
8.3302e-06
6.84264e-06
5.61419e-06
4.59526e-06
3.75685e-06
3.06682e-06
2.49666e-06
2.02778e-06
1.64342e-06
1.32692e-06
1.06892e-06
8.54713e-07
6.84192e-07
5.3853e-07
4.28327e-07
3.26112e-07
2.68766e-07
1.81521e-07
2.31838e-07
1.78157e-07
6.09932e-08
3.44865e-08
5.64875e-09
3.10718e-28
2.80216e-29
2.33547e-29
2.02694e-29
1.43858e-29
8.05734e-30
3.22631e-30
1.50893e-30
8.37648e-31
5.29919e-31
3.74948e-31
2.85081e-31
2.08165e-31
1.2146e-31
5.07258e-32
2.41908e-32
1.31719e-32
7.81392e-33
4.96504e-33
3.0038e-33
1.41413e-33
6.83553e-34
3.56484e-34
1.91162e-34
1.00243e-34
4.92372e-35
2.4563e-35
1.21019e-35
5.85867e-36
2.78488e-36
1.29899e-36
5.94181e-37
2.66344e-37
1.16913e-37
5.02167e-38
2.10884e-38
8.65118e-39
3.46373e-39
1.35216e-39
5.1413e-40
1.90193e-40
6.83719e-41
2.3854e-41
8.06579e-42
2.63928e-42
8.34396e-43
2.54416e-43
7.46735e-44
2.10534e-44
5.6886e-45
1.46927e-45
3.61715e-46
8.46093e-47
1.87366e-47
3.91209e-48
7.6655e-49
1.40196e-49
2.37817e-50
3.71364e-51
5.29026e-52
6.79897e-53
7.77349e-54
7.7643e-55
6.6106e-56
4.63255e-57
2.53124e-58
9.80616e-60
2.17622e-61
9.50651e-64
9.99582e-68
1.04048e-69
5.37397e-72
1.76805e-82
2.88255e-93
3.28375e-104
2.72521e-115
1.86674e-126
1.0041e-137
4.57052e-149
6.14195e-159
2.4373e-169
2.07255e-177
7.34726e-188
7.12894e-196
2.92773e-206
2.45263e-214
1.23158e-224
8.44518e-233
7.7567e-243
2.94506e-251
5.04294e-261
1.04599e-269
2.48605e-279
3.7798e-288
1.17505e-297
1.3865e-306
5.16289e-316
4.50321e-319
2.8055e-319
6.80328e-321
7.09478e-321
6.08689e-321
8.5424e-321
0
0
0
0
0
0
0
0
0
0
0
0
0
0
0
0
)
;

boundaryField
{
    inandouthalf11
    {
        type            cyclic;
    }
    inandouthalf12
    {
        type            cyclic;
    }
    inandouthalf21
    {
        type            cyclic;
    }
    inandouthalf22
    {
        type            cyclic;
    }
    inandouthalf31
    {
        type            cyclic;
    }
    inandouthalf32
    {
        type            cyclic;
    }
    inandouthalf41
    {
        type            cyclic;
    }
    inandouthalf42
    {
        type            cyclic;
    }
    top
    {
        type            symmetryPlane;
    }
    walls
    {
        type            zeroGradient;
    }
    frontAndBackPlanes
    {
        type            empty;
    }
}


// ************************************************************************* //
