/*--------------------------------*- C++ -*----------------------------------*\
| =========                 |                                                 |
| \\      /  F ield         | OpenFOAM: The Open Source CFD Toolbox           |
|  \\    /   O peration     | Version:  2.4.x                                 |
|   \\  /    A nd           | Web:      www.OpenFOAM.org                      |
|    \\/     M anipulation  |                                                 |
\*---------------------------------------------------------------------------*/
FoamFile
{
    version     2.0;
    format      ascii;
    class       volVectorField;
    location    "6.4";
    object      ddt0(Ub);
}
// * * * * * * * * * * * * * * * * * * * * * * * * * * * * * * * * * * * * * //

dimensions      [0 1 -2 0 0 0 0];

internalField   nonuniform List<vector> 
360
(
(0.000148197 -3.01734e-08 0)
(0.000147484 -1.15473e-07 0)
(0.000147376 -2.20992e-07 0)
(0.000147497 -3.18303e-07 0)
(0.000147577 -4.12886e-07 0)
(0.000147622 -5.09452e-07 0)
(0.000147667 -6.08319e-07 0)
(0.000147718 -7.08362e-07 0)
(0.00014777 -8.08818e-07 0)
(0.000147823 -9.09542e-07 0)
(0.000147876 -1.01072e-06 0)
(0.000147929 -1.11251e-06 0)
(0.000147983 -1.21495e-06 0)
(0.000148037 -1.318e-06 0)
(0.000148091 -1.42159e-06 0)
(0.000148146 -1.52569e-06 0)
(0.000148201 -1.63031e-06 0)
(0.000148257 -1.73547e-06 0)
(0.000148313 -1.84117e-06 0)
(0.00014837 -1.94744e-06 0)
(0.000148427 -2.05423e-06 0)
(0.000148484 -2.16153e-06 0)
(0.000148542 -2.2693e-06 0)
(0.0001486 -2.3775e-06 0)
(0.000148659 -2.48601e-06 0)
(0.000148719 -2.59473e-06 0)
(0.000148778 -2.70348e-06 0)
(0.000148838 -2.81216e-06 0)
(0.000148899 -2.92065e-06 0)
(0.00014896 -3.02888e-06 0)
(0.000149021 -3.13687e-06 0)
(0.000149082 -3.24482e-06 0)
(0.000149144 -3.35303e-06 0)
(0.000149207 -3.4621e-06 0)
(0.00014927 -3.57272e-06 0)
(0.000149334 -3.68578e-06 0)
(0.000149399 -3.8022e-06 0)
(0.000149465 -3.92289e-06 0)
(0.000149532 -4.04857e-06 0)
(0.0001496 -4.17936e-06 0)
(0.00014967 -4.31483e-06 0)
(0.000149741 -4.45354e-06 0)
(0.000149812 -4.59285e-06 0)
(0.000149884 -4.72902e-06 0)
(0.000149955 -4.85712e-06 0)
(0.000150025 -4.97146e-06 0)
(0.000150092 -5.06632e-06 0)
(0.000150155 -5.13687e-06 0)
(0.000150215 -5.1806e-06 0)
(0.000150271 -5.19838e-06 0)
(0.000150322 -5.19519e-06 0)
(0.000150372 -5.18074e-06 0)
(0.000150422 -5.16921e-06 0)
(0.000150475 -5.17907e-06 0)
(0.000150536 -5.23256e-06 0)
(0.000150609 -5.35614e-06 0)
(0.0001507 -5.58124e-06 0)
(0.000150817 -5.94661e-06 0)
(0.00015097 -6.50064e-06 0)
(0.00015117 -7.30229e-06 0)
(0.000151432 -8.41738e-06 0)
(0.000151769 -9.8966e-06 0)
(0.000152183 -1.17241e-05 0)
(0.000152646 -1.3723e-05 0)
(0.000153075 -1.54539e-05 0)
(0.000153318 -1.62273e-05 0)
(0.000153216 -1.53857e-05 0)
(0.000152717 -1.27992e-05 0)
(0.00015197 -9.14292e-06 0)
(0.000151244 -5.5412e-06 0)
(0.000150733 -2.84387e-06 0)
(0.000150468 -1.24602e-06 0)
(0.000150373 -4.75736e-07 0)
(0.000150368 -1.64897e-07 0)
(0.0001504 -5.65011e-08 0)
(0.000150446 -2.27044e-08 0)
(0.000150496 -1.2899e-08 0)
(0.000150548 -1.01266e-08 0)
(0.000150602 -9.30902e-09 0)
(0.000150657 -9.0257e-09 0)
(0.000150713 -8.88864e-09 0)
(0.000150772 -8.7937e-09 0)
(0.000150831 -8.71147e-09 0)
(0.000150893 -8.62697e-09 0)
(0.000150956 -8.53916e-09 0)
(0.00015102 -8.44818e-09 0)
(0.000151086 -8.35557e-09 0)
(0.000151153 -8.26374e-09 0)
(0.000151222 -8.16714e-09 0)
(0.000151292 -8.06607e-09 0)
(0.000151364 -7.96617e-09 0)
(0.000151437 -7.86671e-09 0)
(0.000151513 -7.76215e-09 0)
(0.000151589 -7.65749e-09 0)
(0.000151668 -7.55422e-09 0)
(0.000151749 -7.44701e-09 0)
(0.000151831 -7.34136e-09 0)
(0.000151916 -7.23438e-09 0)
(0.000152002 -7.12362e-09 0)
(0.000152091 -7.01468e-09 0)
(0.000152182 -6.90332e-09 0)
(0.000152275 -6.78923e-09 0)
(0.00015237 -6.67748e-09 0)
(0.000152467 -6.56229e-09 0)
(0.000152568 -6.44482e-09 0)
(0.00015267 -6.33092e-09 0)
(0.000152776 -6.21557e-09 0)
(0.000152884 -6.09848e-09 0)
(0.000152995 -5.98222e-09 0)
(0.000153109 -5.86713e-09 0)
(0.000153226 -5.75059e-09 0)
(0.000153346 -5.63076e-09 0)
(0.00015347 -5.51376e-09 0)
(0.000153598 -5.40053e-09 0)
(0.000153729 -5.28555e-09 0)
(0.000153865 -5.17476e-09 0)
(0.000154004 -5.06222e-09 0)
(0.000154148 -4.9471e-09 0)
(0.000154296 -4.83723e-09 0)
(0.000154449 -4.72681e-09 0)
(0.000154607 -4.61605e-09 0)
(0.00015477 -4.50844e-09 0)
(0.000154939 -4.40282e-09 0)
(0.000155113 -4.29327e-09 0)
(0.000155293 -4.18435e-09 0)
(0.00015548 -4.08e-09 0)
(0.000155674 -3.9761e-09 0)
(0.000155875 -3.87617e-09 0)
(0.000156084 -3.78453e-09 0)
(0.000156302 -3.69492e-09 0)
(0.000156528 -3.60174e-09 0)
(0.000156765 -3.51135e-09 0)
(0.000157012 -3.42578e-09 0)
(0.000157273 -3.34451e-09 0)
(0.00015755 -3.26632e-09 0)
(0.000157844 -3.19057e-09 0)
(0.000158153 -3.12455e-09 0)
(0.000158482 -3.07257e-09 0)
(0.000158847 -3.01812e-09 0)
(0.000159267 -2.94833e-09 0)
(0.000159721 -2.92888e-09 0)
(0.000160155 -2.93396e-09 0)
(0.000160677 -2.92843e-09 0)
(0.000161356 -3.39499e-09 0)
(0.000162205 -3.90335e-09 0)
(0.00016381 -7.25827e-07 0)
(0.000169109 1.4565e-05 0)
(0.000497193 -5.82787e-05 0)
(0.131475 -1.6923e-05 0)
(0.187465 0.00121092 0)
(0.180944 0.000344733 0)
(0.189433 0.000568688 0)
(0.201296 0.000368206 0)
(0.213563 0.000274668 0)
(0.225114 0.000209275 0)
(0.235567 0.000160738 0)
(0.244864 0.000125116 0)
(0.253081 9.92159e-05 0)
(0.26034 8.01491e-05 0)
(0.266771 6.58337e-05 0)
(0.272493 5.48601e-05 0)
(0.277608 4.62842e-05 0)
(0.282204 3.94591e-05 0)
(0.286356 3.39359e-05 0)
(0.290125 2.93999e-05 0)
(0.293562 2.56281e-05 0)
(0.29671 2.24594e-05 0)
(0.299606 1.97757e-05 0)
(0.302279 1.74879e-05 0)
(0.304756 1.55275e-05 0)
(0.307058 1.38405e-05 0)
(0.309205 1.23832e-05 0)
(0.311212 1.11198e-05 0)
(0.313094 1.00205e-05 0)
(0.314862 9.06028e-06 0)
(0.316526 8.21809e-06 0)
(0.318097 7.47622e-06 0)
(0.319581 6.81971e-06 0)
(0.320986 6.23598e-06 0)
(0.322318 5.71447e-06 0)
(0.323582 5.24632e-06 0)
(0.324782 4.82409e-06 0)
(0.325924 4.44157e-06 0)
(0.327009 4.09357e-06 0)
(0.328042 3.77574e-06 0)
(0.329025 3.4844e-06 0)
(0.329961 3.21649e-06 0)
(0.330852 2.96944e-06 0)
(0.331698 2.74104e-06 0)
(0.332503 2.52937e-06 0)
(0.333266 2.33279e-06 0)
(0.33399 2.14984e-06 0)
(0.334675 1.97918e-06 0)
(0.335321 1.81954e-06 0)
(0.335929 1.66977e-06 0)
(0.336499 1.52871e-06 0)
(0.337031 1.39529e-06 0)
(0.337524 1.26852e-06 0)
(0.33798 1.14765e-06 0)
(0.338395 1.0323e-06 0)
(0.338771 9.22573e-07 0)
(0.33911 8.17665e-07 0)
(0.339412 7.16904e-07 0)
(0.339674 6.20618e-07 0)
(0.339892 5.28881e-07 0)
(0.340062 4.41638e-07 0)
(0.34018 3.59467e-07 0)
(0.340239 2.83805e-07 0)
(0.340234 2.16331e-07 0)
(0.340156 1.58484e-07 0)
(0.339998 1.11113e-07 0)
(0.339752 7.42456e-08 0)
(0.339408 4.6978e-08 0)
(0.338955 2.77003e-08 0)
(0.338383 1.47622e-08 0)
(0.337678 6.62044e-09 0)
(0.336826 1.78306e-09 0)
(0.335814 -8.79272e-10 0)
(0.334626 -2.11649e-09 0)
(0.333244 -2.51973e-09 0)
(0.331653 -2.51383e-09 0)
(0.329834 -2.28588e-09 0)
(0.327772 -1.91853e-09 0)
(0.325453 -1.51887e-09 0)
(0.322867 -1.13936e-09 0)
(0.320008 -7.7724e-10 0)
(0.316881 -4.48039e-10 0)
(0.3135 -1.71665e-10 0)
(0.309893 5.60338e-11 0)
(0.306103 2.40697e-10 0)
(0.302188 3.84377e-10 0)
(0.298218 4.88552e-10 0)
(0.294268 5.76786e-10 0)
(0.290415 6.73076e-10 0)
(0.286724 8.04836e-10 0)
(0.283245 5.97631e-10 0)
(0.280009 9.64095e-10 0)
(0.27703 4.60195e-10 0)
(0.274306 3.34385e-11 0)
(0.271826 4.27155e-10 0)
(0.269576 5.237e-10 0)
(0.26754 8.39275e-10 0)
(0.265704 5.35667e-10 0)
(0.264055 6.112e-10 0)
(0.262582 5.42327e-10 0)
(0.261276 4.90471e-10 0)
(0.260127 4.4964e-10 0)
(0.259129 4.05998e-10 0)
(0.258275 4.03137e-10 0)
(0.257563 2.65013e-10 0)
(0.256995 3.71341e-10 0)
(0.256581 2.09479e-10 0)
(0.256341 1.93095e-10 0)
(0.25632 3.42781e-10 0)
(0.256605 -1.41002e-10 0)
(0.25729 6.02872e-10 0)
(0.260005 -5.18191e-10 0)
(0.262182 8.61839e-10 0)
(0.262387 -8.47076e-10 0)
(0.262392 1.08089e-09 0)
(0.262392 -1.10591e-09 0)
(0.262392 1.25262e-09 0)
(0.262392 -1.30146e-09 0)
(0.262392 1.39084e-09 0)
(0.262392 -1.47106e-09 0)
(0.262392 1.50063e-09 0)
(0.262392 -1.65568e-09 0)
(0.262392 1.61398e-09 0)
(0.262392 -1.83689e-09 0)
(0.262392 1.74692e-09 0)
(0.262392 -2.01833e-09 0)
(0.262392 1.90386e-09 0)
(0.262392 -2.20014e-09 0)
(0.262392 2.07222e-09 0)
(0.262392 -2.39082e-09 0)
(0.262392 2.26012e-09 0)
(0.262392 -2.58125e-09 0)
(0.262392 2.46546e-09 0)
(0.262392 -2.77394e-09 0)
(0.262392 2.69179e-09 0)
(0.262392 -2.97153e-09 0)
(0.262392 2.92076e-09 0)
(0.262392 -3.18993e-09 0)
(0.262392 3.15919e-09 0)
(0.262392 -3.41445e-09 0)
(0.262392 3.41214e-09 0)
(0.262392 -3.64523e-09 0)
(0.262392 3.68279e-09 0)
(0.262392 -3.88334e-09 0)
(0.262392 3.9577e-09 0)
(0.262392 -4.13808e-09 0)
(0.262392 4.2452e-09 0)
(0.262392 -4.40413e-09 0)
(0.262392 4.53961e-09 0)
(0.262392 -4.67865e-09 0)
(0.262392 4.86318e-09 0)
(0.262392 -4.9533e-09 0)
(0.262392 5.17533e-09 0)
(0.262392 -5.25947e-09 0)
(0.262392 5.51621e-09 0)
(0.262392 -5.55591e-09 0)
(0.262392 5.87504e-09 0)
(0.262392 -5.86407e-09 0)
(0.262392 6.24175e-09 0)
(0.262392 -6.18809e-09 0)
(0.262392 6.62483e-09 0)
(0.262392 -6.51711e-09 0)
(0.262392 7.00705e-09 0)
(0.262392 -6.86264e-09 0)
(0.262392 7.3855e-09 0)
(0.262392 -6.3182e-09 0)
(0.262392 6.70273e-09 0)
(0.262392 -6.38797e-09 0)
(0.262392 6.78712e-09 0)
(0.262392 -6.44605e-09 0)
(0.262392 6.86796e-09 0)
(0.262392 -6.51931e-09 0)
(0.262392 6.93948e-09 0)
(0.262392 -6.60031e-09 0)
(0.262392 6.99754e-09 0)
(0.262392 -6.68709e-09 0)
(0.262392 7.05795e-09 0)
(0.262392 -6.77076e-09 0)
(0.262392 7.1068e-09 0)
(0.262392 -6.86121e-09 0)
(0.262392 7.15633e-09 0)
(0.262392 -6.93523e-09 0)
(0.262392 7.2291e-09 0)
(0.262392 -6.93318e-09 0)
(0.262392 7.4358e-09 0)
(0.262392 -6.81487e-09 0)
(0.262392 7.65799e-09 0)
(0.262392 -6.7372e-09 0)
(0.262392 7.83471e-09 0)
(0.262392 -6.72686e-09 0)
(0.262392 7.90388e-09 0)
(0.262392 -6.80272e-09 0)
(0.262392 7.93325e-09 0)
(0.262392 -6.87478e-09 0)
(0.262392 7.97857e-09 0)
(0.262392 -6.93089e-09 0)
(0.262392 8.04914e-09 0)
(0.262392 -6.83951e-09 0)
(0.262392 8.39897e-09 0)
(0.262392 -6.60607e-09 0)
(0.262392 8.59948e-09 0)
(0.262392 -6.25547e-09 0)
(0.262392 9.61657e-09 0)
(0.262392 -4.81241e-09 0)
(0.262392 1.14978e-08 0)
(0.262392 -2.42837e-09 0)
(0.262392 1.46092e-08 0)
(0.262392 1.54847e-09 0)
(0.262392 1.9681e-08 0)
(0.262392 6.74773e-09 0)
(0.262392 2.38172e-08 0)
(0.262392 1.07538e-08 0)
(0.262392 2.70748e-08 0)
(0.262392 7.9505e-09 0)
(0.262392 1.44114e-08 0)
)
;

boundaryField
{
    inandouthalf11
    {
        type            cyclic;
    }
    inandouthalf12
    {
        type            cyclic;
    }
    inandouthalf21
    {
        type            cyclic;
    }
    inandouthalf22
    {
        type            cyclic;
    }
    inandouthalf31
    {
        type            cyclic;
    }
    inandouthalf32
    {
        type            cyclic;
    }
    inandouthalf41
    {
        type            cyclic;
    }
    inandouthalf42
    {
        type            cyclic;
    }
    top
    {
        type            symmetryPlane;
    }
    walls
    {
        type            calculated;
        value           uniform (0 0 0);
    }
    frontAndBackPlanes
    {
        type            empty;
    }
}


// ************************************************************************* //
