/*--------------------------------*- C++ -*----------------------------------*\
| =========                 |                                                 |
| \\      /  F ield         | OpenFOAM: The Open Source CFD Toolbox           |
|  \\    /   O peration     | Version:  2.4.x                                 |
|   \\  /    A nd           | Web:      www.OpenFOAM.org                      |
|    \\/     M anipulation  |                                                 |
\*---------------------------------------------------------------------------*/
FoamFile
{
    version     2.0;
    format      ascii;
    class       volScalarField;
    location    "6.4";
    object      epsilon_0;
}
// * * * * * * * * * * * * * * * * * * * * * * * * * * * * * * * * * * * * * //

dimensions      [0 2 -3 0 0 0 0];

internalField   nonuniform List<scalar> 
360
(
1.60309e-27
1e-20
1e-20
1e-20
1e-20
1e-20
1e-20
1e-20
1e-20
1e-20
1e-20
1e-20
1e-20
1e-20
1e-20
1e-20
1e-20
1e-20
1e-20
1e-20
1e-20
1e-20
1e-20
1e-20
1e-20
1e-20
1e-20
1e-20
1e-20
1e-20
1e-20
1e-20
1e-20
1e-20
1e-20
1e-20
1e-20
1e-20
1e-20
1e-20
1e-20
1e-20
1e-20
1e-20
1e-20
1e-20
1e-20
1e-20
1e-20
1e-20
1e-20
1e-20
1e-20
1e-20
1e-20
1e-20
1e-20
1e-20
1e-20
1e-20
1e-20
1e-20
1e-20
1e-20
1e-20
1e-20
1e-20
1e-20
1e-20
1e-20
1e-20
1e-20
1e-20
1e-20
1e-20
1e-20
1e-20
1e-20
1e-20
1e-20
1e-20
1e-20
1e-20
1e-20
1e-20
1e-20
1e-20
1e-20
1e-20
1e-20
1e-20
1e-20
1e-20
1e-20
1e-20
1e-20
1e-20
1e-20
1e-20
1e-20
1e-20
1e-20
1e-20
1e-20
1e-20
1e-20
1e-20
1e-20
1e-20
1e-20
1e-20
1e-20
1e-20
1e-20
1e-20
1e-20
1e-20
1e-20
1e-20
1e-20
1e-20
1e-20
1e-20
1e-20
1e-20
1e-20
1e-20
1e-20
1e-20
1e-20
1e-20
1e-20
1.66177e-20
7.86918e-20
4.42287e-19
2.70048e-18
1.80074e-17
1.32769e-16
1.09812e-15
1.03469e-14
1.12838e-13
1.44823e-12
2.22644e-11
4.16221e-10
9.57232e-09
2.73421e-07
9.73874e-06
0.000417472
0.0139799
0.0958678
0.123622
0.120717
0.111891
0.10226
0.0932858
0.0853296
0.0783919
0.0723624
0.0671085
0.0625061
0.0584484
0.0548469
0.0516291
0.0487359
0.0461189
0.0437388
0.0415629
0.0395642
0.0377203
0.0360123
0.0344241
0.0329423
0.0315553
0.0302531
0.0290271
0.0278699
0.026775
0.0257366
0.0247499
0.0238103
0.022914
0.0220576
0.0212378
0.020452
0.0196977
0.0189726
0.0182749
0.0176025
0.016954
0.0163279
0.0157228
0.0151375
0.0145709
0.014022
0.01349
0.0129739
0.012473
0.0119867
0.0115142
0.0110552
0.010609
0.0101707
0.00973612
0.00930537
0.00887863
0.00845613
0.0080381
0.00762484
0.00721666
0.00681392
0.00641705
0.0060265
0.00564279
0.0052665
0.00489826
0.00453877
0.00418877
0.00384909
0.00352061
0.00320424
0.00290095
0.00261174
0.00233761
0.00207952
0.00183841
0.00161509
0.00141023
0.00122429
0.00105746
0.000909625
0.000780315
0.000668695
0.00057359
0.000493542
0.000426888
0.000371865
0.000326701
0.000289705
0.00025932
0.000234159
0.000213017
0.000194865
0.000178839
0.000164228
0.000150456
0.000137075
0.000123753
0.000110266
9.64974e-05
8.24346e-05
6.81701e-05
5.39096e-05
3.99856e-05
2.68829e-05
1.52781e-05
6.08949e-06
1.03155e-06
4.70349e-08
9.98908e-10
1.87612e-11
3.30693e-13
5.48106e-15
8.54842e-17
1.26219e-18
2.53551e-20
1e-20
1e-20
1e-20
1e-20
1e-20
1e-20
1e-20
1e-20
1e-20
1e-20
1e-20
1e-20
1e-20
1e-20
1e-20
1e-20
1e-20
1e-20
1e-20
1e-20
1e-20
1e-20
1e-20
1e-20
1e-20
1e-20
1e-20
1e-20
1e-20
1e-20
1e-20
1e-20
1e-20
1e-20
1e-20
1e-20
1e-20
1e-20
1e-20
1e-20
1e-20
1e-20
1e-20
1e-20
1e-20
1e-20
1e-20
1e-20
1e-20
1e-20
1e-20
1e-20
1e-20
1e-20
1e-20
1e-20
1e-20
1e-20
1e-20
1e-20
1e-20
1e-20
1e-20
1e-20
1e-20
1e-20
1e-20
1e-20
1e-20
1e-20
1e-20
1e-20
1e-20
1e-20
1e-20
1e-20
1e-20
1e-20
1e-20
1e-20
1e-20
1e-20
1e-20
1e-20
1e-20
1e-20
1e-20
1e-20
1e-20
1e-20
1e-20
1e-20
1e-20
1e-20
1e-20
)
;

boundaryField
{
    inandouthalf11
    {
        type            cyclic;
    }
    inandouthalf12
    {
        type            cyclic;
    }
    inandouthalf21
    {
        type            cyclic;
    }
    inandouthalf22
    {
        type            cyclic;
    }
    inandouthalf31
    {
        type            cyclic;
    }
    inandouthalf32
    {
        type            cyclic;
    }
    inandouthalf41
    {
        type            cyclic;
    }
    inandouthalf42
    {
        type            cyclic;
    }
    top
    {
        type            symmetryPlane;
    }
    walls
    {
        type            zeroGradient;
    }
    frontAndBackPlanes
    {
        type            empty;
    }
}


// ************************************************************************* //
