/*--------------------------------*- C++ -*----------------------------------*\
| =========                 |                                                 |
| \\      /  F ield         | OpenFOAM: The Open Source CFD Toolbox           |
|  \\    /   O peration     | Version:  2.4.x                                 |
|   \\  /    A nd           | Web:      www.OpenFOAM.org                      |
|    \\/     M anipulation  |                                                 |
\*---------------------------------------------------------------------------*/
FoamFile
{
    version     2.0;
    format      ascii;
    class       volVectorField;
    location    "6.4";
    object      gradPs;
}
// * * * * * * * * * * * * * * * * * * * * * * * * * * * * * * * * * * * * * //

dimensions      [0 1 -2 0 0 0 0];

internalField   nonuniform List<vector> 
360
(
(0 1.5923e-18 0)
(0 1.704e-18 0)
(0 -5.2912e-20 0)
(0 -2.38818e-19 0)
(-2.90169e-32 -9.42785e-20 0)
(-1.45089e-32 -5.1816e-20 0)
(-1.45094e-32 -6.84938e-20 0)
(0 -7.84519e-20 0)
(-2.90209e-32 -7.97681e-20 0)
(0 -8.03343e-20 0)
(-1.45116e-32 -8.01825e-20 0)
(0 -8.02614e-20 0)
(-1.45127e-32 -8.09718e-20 0)
(0 -8.17306e-20 0)
(0 -8.27049e-20 0)
(0 -8.361e-20 0)
(0 -8.42647e-20 0)
(-1.45157e-32 -8.47966e-20 0)
(0 -8.57864e-20 0)
(0 -8.63881e-20 0)
(0 -8.70128e-20 0)
(-1.45182e-32 -8.80327e-20 0)
(0 -8.86647e-20 0)
(0 -8.95196e-20 0)
(0 -9.04559e-20 0)
(-1.45207e-32 -9.11831e-20 0)
(0 -9.22705e-20 0)
(0 -9.34495e-20 0)
(0 -9.43116e-20 0)
(0 -9.52876e-20 0)
(0 -9.6688e-20 0)
(0 -9.71456e-20 0)
(0 -9.80862e-20 0)
(0 -9.88331e-20 0)
(0 -9.87876e-20 0)
(2.90552e-32 -9.88957e-20 0)
(0 -9.84657e-20 0)
(0 -9.86238e-20 0)
(0 -9.74004e-20 0)
(0 -9.72269e-20 0)
(0 -9.80899e-20 0)
(0 -9.7937e-20 0)
(1.45328e-32 -1.00388e-19 0)
(0 -1.03997e-19 0)
(0 -1.0866e-19 0)
(0 -1.16224e-19 0)
(0 -1.23837e-19 0)
(0 -1.32224e-19 0)
(0 -1.416e-19 0)
(0 -1.47685e-19 0)
(1.45392e-32 -1.51607e-19 0)
(0 -1.52753e-19 0)
(0 -1.49344e-19 0)
(0 -1.41111e-19 0)
(0 -1.28769e-19 0)
(0 -1.10186e-19 0)
(0 -8.341e-20 0)
(0 -4.51414e-20 0)
(0 1.4801e-20 0)
(0 1.0488e-19 0)
(0 2.41126e-19 0)
(0 4.26257e-19 0)
(0 6.18655e-19 0)
(0 6.86227e-19 0)
(0 4.13501e-19 0)
(0 -2.91968e-19 0)
(0 -1.11781e-18 0)
(0 -1.495e-18 0)
(0 -1.233e-18 0)
(0 -7.1239e-19 0)
(0 -3.39447e-19 0)
(0 -1.82822e-19 0)
(0 -1.42273e-19 0)
(0 -1.37725e-19 0)
(0 -1.39642e-19 0)
(0 -1.4221e-19 0)
(0 -1.44458e-19 0)
(0 -1.47831e-19 0)
(0 -1.51376e-19 0)
(0 -1.54765e-19 0)
(0 -1.58622e-19 0)
(0 -1.63074e-19 0)
(0 -1.67318e-19 0)
(0 -1.7153e-19 0)
(0 -1.75626e-19 0)
(0 -1.79603e-19 0)
(0 -1.83393e-19 0)
(0 -1.87003e-19 0)
(0 -1.90835e-19 0)
(0 -1.94825e-19 0)
(0 -1.98934e-19 0)
(0 -2.03343e-19 0)
(0 -2.08e-19 0)
(0 -2.12755e-19 0)
(0 -2.17624e-19 0)
(0 -2.22584e-19 0)
(0 -2.2761e-19 0)
(0 -2.32726e-19 0)
(0 -2.37979e-19 0)
(0 -2.43392e-19 0)
(0 -2.48982e-19 0)
(0 -2.54782e-19 0)
(0 -2.60795e-19 0)
(0 -2.67018e-19 0)
(0 -2.73466e-19 0)
(0 -2.80152e-19 0)
(0 -2.87091e-19 0)
(0 -2.94304e-19 0)
(0 -3.01811e-19 0)
(0 -3.09628e-19 0)
(0 -3.17774e-19 0)
(0 -3.26264e-19 0)
(0 -3.35114e-19 0)
(0 -3.44344e-19 0)
(0 -3.53971e-19 0)
(0 -3.64015e-19 0)
(0 -3.74498e-19 0)
(0 -3.85445e-19 0)
(0 -3.96884e-19 0)
(0 -4.08843e-19 0)
(0 -4.21347e-19 0)
(0 -4.34416e-19 0)
(0 -4.48073e-19 0)
(0 -4.6236e-19 0)
(0 -4.77381e-19 0)
(0 -4.93338e-19 0)
(0 -5.10516e-19 0)
(0 -5.29171e-19 0)
(0 -5.49311e-19 0)
(0 -5.70575e-19 0)
(0 -5.92428e-19 0)
(0 4.7777e-17 0)
(0 7.21332e-16 0)
(0 4.22442e-15 0)
(0 2.29341e-14 0)
(0 1.33298e-13 0)
(0 8.44538e-13 0)
(0 5.92034e-12 0)
(0 4.66573e-11 0)
(0 4.19895e-10 0)
(0 4.38697e-09 0)
(0 5.42469e-08 0)
(0 8.09007e-07 0)
(0 1.49809e-05 0)
(0 0.000459804 0)
(0 0.0251488 0)
(0 0.623187 0)
(0 2.15871 0)
(0 1.80614 0)
(0 -1.5966 0)
(0 -2.69429 0)
(0 -3.0065 0)
(0 -2.94077 0)
(0 -2.79886 0)
(0 -2.64561 0)
(0 -2.50095 0)
(0 -2.37009 0)
(0 -2.25325 0)
(0 -2.14911 0)
(0 -2.05595 0)
(0 -1.9722 0)
(0 -1.89645 0)
(0 -1.82755 0)
(0 -1.7645 0)
(0 -1.70653 0)
(0 -1.65295 0)
(0 -1.60322 0)
(0 -1.55685 0)
(0 -1.51347 0)
(0 -1.47271 0)
(0 -1.4343 0)
(0 -1.39797 0)
(0 -1.36353 0)
(0 -1.33076 0)
(0 -1.29952 0)
(0 -1.26966 0)
(0 -1.24105 0)
(0 -1.21358 0)
(0 -1.18717 0)
(0 -1.16172 0)
(0 -1.13717 0)
(0 -1.11345 0)
(0 -1.0905 0)
(0 -1.06828 0)
(0 -1.04675 0)
(0 -1.02587 0)
(0 -1.0056 0)
(0 -0.985934 0)
(0 -0.966844 0)
(0 -0.948335 0)
(0 -0.930437 0)
(0 -0.913213 0)
(0 -0.896758 0)
(0 -0.881193 0)
(0 -0.866676 0)
(0 -0.853424 0)
(0 -0.841672 0)
(0 -0.83162 0)
(0 -0.823278 0)
(0 -0.816012 0)
(0 -0.808927 0)
(0 -0.802311 0)
(-3.33904e-16 -0.796579 0)
(0 -0.791529 0)
(0 -0.788519 0)
(4.24384e-16 -0.789169 0)
(0 -0.791639 0)
(-2.5428e-16 -0.793238 0)
(0 -0.791796 0)
(1.55275e-16 -0.78443 0)
(0 -0.769375 0)
(0 -0.744522 0)
(0 -0.709582 0)
(2.37711e-16 -0.667443 0)
(0 -0.618008 0)
(0 -0.562548 0)
(0 -0.505122 0)
(0 -0.447272 0)
(0 -0.390224 0)
(-9.88381e-17 -0.335945 0)
(0 -0.286622 0)
(-5.47822e-17 -0.24193 0)
(0 -0.201426 0)
(-2.93899e-17 -0.166361 0)
(0 -0.136172 0)
(0 -0.11011 0)
(0 -0.0882831 0)
(0 -0.0701032 0)
(0 -0.0552839 0)
(7.84023e-18 -0.0430093 0)
(0 -0.0332866 0)
(0 -0.0253702 0)
(0 -0.0192848 0)
(0 -0.0139997 0)
(0 -0.0106153 0)
(0 -0.00986308 0)
(0 -0.0045269 0)
(0 0 0)
(0 0 0)
(0 0 0)
(0 0 0)
(0 0 0)
(0 0 0)
(0 0 0)
(0 0 0)
(0 0 0)
(0 0 0)
(0 0 0)
(0 0 0)
(0 0 0)
(0 0 0)
(0 0 0)
(0 0 0)
(0 0 0)
(0 0 0)
(0 0 0)
(0 0 0)
(0 0 0)
(0 0 0)
(0 0 0)
(0 0 0)
(0 0 0)
(0 0 0)
(0 0 0)
(0 0 0)
(0 0 0)
(0 0 0)
(0 0 0)
(0 0 0)
(0 0 0)
(0 0 0)
(0 0 0)
(0 0 0)
(0 0 0)
(0 0 0)
(0 0 0)
(0 0 0)
(0 0 0)
(0 0 0)
(0 0 0)
(0 0 0)
(0 0 0)
(0 0 0)
(0 0 0)
(0 0 0)
(0 0 0)
(0 0 0)
(0 0 0)
(0 0 0)
(0 0 0)
(0 0 0)
(0 0 0)
(0 0 0)
(0 0 0)
(0 0 0)
(0 0 0)
(0 0 0)
(0 0 0)
(0 0 0)
(0 0 0)
(0 0 0)
(0 0 0)
(0 0 0)
(0 0 0)
(0 0 0)
(0 0 0)
(0 0 0)
(0 0 0)
(0 0 0)
(0 0 0)
(0 0 0)
(0 0 0)
(0 0 0)
(0 0 0)
(0 0 0)
(0 0 0)
(0 0 0)
(0 0 0)
(0 0 0)
(0 0 0)
(0 0 0)
(0 0 0)
(0 0 0)
(0 0 0)
(0 0 0)
(0 0 0)
(0 0 0)
(0 0 0)
(0 0 0)
(0 0 0)
(0 0 0)
(0 0 0)
(0 0 0)
(0 0 0)
(0 0 0)
(0 0 0)
(0 0 0)
(0 0 0)
(0 0 0)
(0 0 0)
(0 0 0)
(0 0 0)
(0 0 0)
(0 0 0)
(0 0 0)
(0 0 0)
(0 0 0)
(0 0 0)
(0 0 0)
(0 0 0)
(0 0 0)
(0 0 0)
(0 0 0)
(0 0 0)
(0 0 0)
(0 0 0)
(0 0 0)
(0 0 0)
(0 0 0)
(0 0 0)
)
;

boundaryField
{
    inandouthalf11
    {
        type            cyclic;
    }
    inandouthalf12
    {
        type            cyclic;
    }
    inandouthalf21
    {
        type            cyclic;
    }
    inandouthalf22
    {
        type            cyclic;
    }
    inandouthalf31
    {
        type            cyclic;
    }
    inandouthalf32
    {
        type            cyclic;
    }
    inandouthalf41
    {
        type            cyclic;
    }
    inandouthalf42
    {
        type            cyclic;
    }
    top
    {
        type            symmetryPlane;
    }
    walls
    {
        type            calculated;
        value           uniform (0 0 0);
    }
    frontAndBackPlanes
    {
        type            empty;
    }
}


// ************************************************************************* //
