/*--------------------------------*- C++ -*----------------------------------*\
| =========                 |                                                 |
| \\      /  F ield         | OpenFOAM: The Open Source CFD Toolbox           |
|  \\    /   O peration     | Version:  2.4.x                                 |
|   \\  /    A nd           | Web:      www.OpenFOAM.org                      |
|    \\/     M anipulation  |                                                 |
\*---------------------------------------------------------------------------*/
FoamFile
{
    version     2.0;
    format      ascii;
    class       volVectorField;
    location    "6.4";
    object      gradPf;
}
// * * * * * * * * * * * * * * * * * * * * * * * * * * * * * * * * * * * * * //

dimensions      [0 1 -2 0 0 0 0];

internalField   nonuniform List<vector> 
360
(
(0 59.9384 0)
(0 69.8843 0)
(0 3.13334 0)
(0 -11.0648 0)
(-3.34543e-14 -5.82224 0)
(-3.34553e-14 -3.2686 0)
(-3.34563e-14 -3.54992 0)
(0 -3.89172 0)
(-3.34588e-14 -3.97351 0)
(0 -4.03996 0)
(-1.67307e-14 -4.04418 0)
(0 -4.02232 0)
(-3.34641e-14 -4.01157 0)
(0 -4.00429 0)
(0 -4.01794 0)
(0 -4.03573 0)
(0 -4.04085 0)
(-3.34709e-14 -4.03818 0)
(0 -4.05449 0)
(0 -4.05092 0)
(0 -4.04888 0)
(-3.34766e-14 -4.06722 0)
(0 -4.06706 0)
(0 -4.0727 0)
(0 -4.07799 0)
(-3.34826e-14 -4.07246 0)
(0 -4.08304 0)
(0 -4.09454 0)
(0 -4.08637 0)
(0 -4.08334 0)
(0 -4.10074 0)
(0 -4.08389 0)
(0 -4.09479 0)
(0 -4.10613 0)
(0 -4.09133 0)
(1.67492e-14 -4.09662 0)
(0 -4.09946 0)
(0 -4.1311 0)
(0 -4.10616 0)
(0 -4.11924 0)
(0 -4.15658 0)
(0 -4.12203 0)
(3.35104e-14 -4.14789 0)
(0 -4.16538 0)
(0 -4.14941 0)
(0 -4.16446 0)
(0 -4.12539 0)
(0 -4.10215 0)
(0 -4.13392 0)
(0 -4.08662 0)
(3.35252e-14 -4.04331 0)
(0 -4.03225 0)
(0 -4.00874 0)
(0 -3.97798 0)
(0 -3.98336 0)
(0 -3.98888 0)
(0 -4.00535 0)
(0 -4.07034 0)
(0 -4.11126 0)
(0 -4.24433 0)
(0 -4.39055 0)
(0 -4.55032 0)
(0 -4.74522 0)
(0 -4.89921 0)
(0 -4.99304 0)
(0 -4.96124 0)
(0 -4.77127 0)
(0 -4.42403 0)
(0 -4.01828 0)
(0 -3.7143 0)
(0 -3.55056 0)
(0 -3.43784 0)
(0 -3.42809 0)
(0 -3.47346 0)
(0 -3.51028 0)
(0 -3.53808 0)
(0 -3.55341 0)
(0 -3.59439 0)
(0 -3.63712 0)
(0 -3.67368 0)
(0 -3.71864 0)
(0 -3.77462 0)
(0 -3.82255 0)
(0 -3.86659 0)
(0 -3.90502 0)
(0 -3.9378 0)
(0 -3.96376 0)
(0 -3.9832 0)
(0 -4.00475 0)
(0 -4.0269 0)
(0 -4.04865 0)
(0 -4.07347 0)
(0 -4.10003 0)
(0 -4.12514 0)
(0 -4.149 0)
(0 -4.17108 0)
(0 -4.19087 0)
(0 -4.2087 0)
(0 -4.22538 0)
(0 -4.24116 0)
(0 -4.25619 0)
(0 -4.27081 0)
(0 -4.28491 0)
(0 -4.2982 0)
(0 -4.3107 0)
(0 -4.32243 0)
(0 -4.33336 0)
(0 -4.34355 0)
(0 -4.35304 0)
(0 -4.36177 0)
(0 -4.36969 0)
(0 -4.37669 0)
(0 -4.38268 0)
(0 -4.38755 0)
(0 -4.39116 0)
(0 -4.39342 0)
(0 -4.39419 0)
(0 -4.39339 0)
(0 -4.39093 0)
(0 -4.38667 0)
(0 -4.38045 0)
(0 -4.37203 0)
(0 -4.36119 0)
(0 -4.34788 0)
(0 -4.33255 0)
(0 -4.31637 0)
(0 -4.30088 0)
(0 -4.28704 0)
(0 -4.27355 0)
(0 -4.25647 0)
(0 -4.23297 0)
(0 -4.20964 0)
(0 -4.20455 0)
(0 -4.2251 0)
(0 -4.24176 0)
(0 -4.22021 0)
(0 -4.19485 0)
(0 -4.27044 0)
(0 -4.48795 0)
(0 -4.61464 0)
(0 -4.31848 0)
(0 -4.22594 0)
(0 -4.77431 0)
(0 -5.33709 0)
(0 -6.88937 0)
(0 -11.5797 0)
(0 -9.02037 0)
(0 -5.32952 0)
(0 -5.24043 0)
(0 0 0)
(0 0 0)
(0 0 0)
(0 0 0)
(0 0 0)
(0 0 0)
(0 0 0)
(0 0 0)
(0 0 0)
(0 0 0)
(0 0 0)
(0 0 0)
(0 0 0)
(0 0 0)
(0 0 0)
(0 0 0)
(0 0 0)
(0 0 0)
(0 0 0)
(0 0 0)
(0 0 0)
(0 0 0)
(0 0 0)
(0 0 0)
(0 0 0)
(0 0 0)
(0 0 0)
(0 0 0)
(0 0 0)
(0 0 0)
(0 0 0)
(0 0 0)
(0 0 0)
(0 0 0)
(0 0 0)
(0 0 0)
(0 0 0)
(0 0 0)
(0 0 0)
(0 0 0)
(0 0 0)
(0 0 0)
(0 0 0)
(0 0 0)
(0 0 0)
(0 0 0)
(0 0 0)
(0 0 0)
(0 0 0)
(0 0 0)
(0 0 0)
(0 0 0)
(0 0 0)
(0 0 0)
(0 0 0)
(0 0 0)
(0 0 0)
(0 0 0)
(0 0 0)
(0 0 0)
(0 0 0)
(0 0 0)
(0 0 0)
(0 0 0)
(0 0 0)
(0 0 0)
(0 0 0)
(0 0 0)
(0 0 0)
(0 0 0)
(0 0 0)
(0 0 0)
(0 0 0)
(0 0 0)
(0 0 0)
(0 0 0)
(0 0 0)
(0 0 0)
(0 0 0)
(0 0 0)
(0 0 0)
(0 0 0)
(0 0 0)
(0 0 0)
(0 0 0)
(0 0 0)
(0 0 0)
(0 0 0)
(0 0 0)
(0 0 0)
(0 0 0)
(0 0 0)
(0 0 0)
(0 0 0)
(0 0 0)
(0 0 0)
(0 0 0)
(0 0 0)
(0 0 0)
(0 0 0)
(0 0 0)
(0 0 0)
(0 0 0)
(0 0 0)
(0 0 0)
(0 0 0)
(0 0 0)
(0 0 0)
(0 0 0)
(0 0 0)
(0 0 0)
(0 0 0)
(0 0 0)
(0 0 0)
(0 0 0)
(0 0 0)
(0 0 0)
(0 0 0)
(0 0 0)
(0 0 0)
(0 0 0)
(0 0 0)
(0 0 0)
(0 0 0)
(0 0 0)
(0 0 0)
(0 0 0)
(0 0 0)
(0 0 0)
(0 0 0)
(0 0 0)
(0 0 0)
(0 0 0)
(0 0 0)
(0 0 0)
(0 0 0)
(0 0 0)
(0 0 0)
(0 0 0)
(0 0 0)
(0 0 0)
(0 0 0)
(0 0 0)
(0 0 0)
(0 0 0)
(0 0 0)
(0 0 0)
(0 0 0)
(0 0 0)
(0 0 0)
(0 0 0)
(0 0 0)
(0 0 0)
(0 0 0)
(0 0 0)
(0 0 0)
(0 0 0)
(0 0 0)
(0 0 0)
(0 0 0)
(0 0 0)
(0 0 0)
(0 0 0)
(0 0 0)
(0 0 0)
(0 0 0)
(0 0 0)
(0 0 0)
(0 0 0)
(0 0 0)
(0 0 0)
(0 0 0)
(0 0 0)
(0 0 0)
(0 0 0)
(0 0 0)
(0 0 0)
(0 0 0)
(0 0 0)
(0 0 0)
(0 0 0)
(0 0 0)
(0 0 0)
(0 0 0)
(0 0 0)
(0 0 0)
(0 0 0)
(0 0 0)
(0 0 0)
(0 0 0)
(0 0 0)
(0 0 0)
(0 0 0)
(0 0 0)
(0 0 0)
(0 0 0)
(0 0 0)
(0 0 0)
(0 0 0)
(0 0 0)
(0 0 0)
(0 0 0)
(0 0 0)
(0 0 0)
(0 0 0)
(0 0 0)
(0 0 0)
(0 0 0)
(0 0 0)
(0 0 0)
(0 0 0)
)
;

boundaryField
{
    inandouthalf11
    {
        type            cyclic;
    }
    inandouthalf12
    {
        type            cyclic;
    }
    inandouthalf21
    {
        type            cyclic;
    }
    inandouthalf22
    {
        type            cyclic;
    }
    inandouthalf31
    {
        type            cyclic;
    }
    inandouthalf32
    {
        type            cyclic;
    }
    inandouthalf41
    {
        type            cyclic;
    }
    inandouthalf42
    {
        type            cyclic;
    }
    top
    {
        type            symmetryPlane;
    }
    walls
    {
        type            calculated;
        value           uniform (0 0 0);
    }
    frontAndBackPlanes
    {
        type            empty;
    }
}


// ************************************************************************* //
