/*--------------------------------*- C++ -*----------------------------------*\
| =========                 |                                                 |
| \\      /  F ield         | OpenFOAM: The Open Source CFD Toolbox           |
|  \\    /   O peration     | Version:  2.4.x                                 |
|   \\  /    A nd           | Web:      www.OpenFOAM.org                      |
|    \\/     M anipulation  |                                                 |
\*---------------------------------------------------------------------------*/
FoamFile
{
    version     2.0;
    format      ascii;
    class       volScalarField;
    location    "6.4";
    object      k;
}
// * * * * * * * * * * * * * * * * * * * * * * * * * * * * * * * * * * * * * //

dimensions      [0 2 -2 0 0 0 0];

internalField   nonuniform List<scalar> 
360
(
1e-20
1e-20
1e-20
1e-20
1e-20
1e-20
1e-20
1e-20
1e-20
1e-20
1e-20
1e-20
1e-20
1e-20
1e-20
1e-20
1e-20
1e-20
1e-20
1e-20
1e-20
1e-20
1e-20
1e-20
1e-20
1e-20
1e-20
1e-20
1e-20
1e-20
1e-20
1e-20
1e-20
1e-20
1e-20
1e-20
1e-20
1e-20
1e-20
1e-20
1e-20
1e-20
1e-20
1e-20
1e-20
1e-20
1e-20
1e-20
1e-20
1e-20
1e-20
1e-20
1e-20
1e-20
1e-20
1e-20
1e-20
1e-20
1e-20
1e-20
1e-20
1e-20
1e-20
1e-20
1e-20
1e-20
1e-20
1e-20
1e-20
1e-20
1e-20
1e-20
1e-20
1e-20
1e-20
1e-20
1e-20
1e-20
1e-20
1e-20
1e-20
1e-20
1e-20
1e-20
1e-20
1e-20
1e-20
1e-20
1e-20
1e-20
1e-20
1e-20
1e-20
1e-20
1e-20
1e-20
1e-20
1e-20
1e-20
1e-20
1e-20
1e-20
1e-20
1e-20
1e-20
1e-20
1e-20
1e-20
1e-20
1e-20
1e-20
1e-20
1e-20
1e-20
1e-20
1e-20
1e-20
1e-20
1e-20
1e-20
1e-20
1e-20
1e-20
1e-20
1e-20
1e-20
1e-20
1e-20
1e-20
1e-20
1e-20
1e-20
1.2857e-20
5.26797e-20
2.63089e-19
1.4138e-18
8.19078e-18
5.17547e-17
3.61995e-16
2.84843e-15
2.56143e-14
2.67533e-13
3.31123e-12
4.94459e-11
9.02402e-10
2.03707e-08
5.73988e-07
1.9168e-05
0.000517089
0.0030708
0.0047755
0.00562757
0.00616502
0.00654465
0.00683167
0.00705645
0.00723494
0.00737678
0.00748853
0.00757504
0.0076401
0.00768673
0.00771743
0.00773423
0.00773885
0.00773271
0.00771704
0.00769285
0.00766105
0.00762237
0.00757748
0.00752696
0.0074713
0.00741095
0.00734628
0.00727766
0.00720538
0.00712972
0.00705094
0.00696924
0.00688485
0.00679794
0.00670869
0.00661724
0.00652375
0.00642836
0.00633118
0.00623233
0.00613193
0.00603008
0.00592688
0.00582242
0.0057168
0.0056101
0.00550242
0.00539383
0.00528442
0.00517426
0.00506345
0.00495205
0.00484015
0.00472669
0.00461056
0.00449179
0.00437042
0.00424647
0.00412001
0.00399111
0.00385986
0.00372636
0.00359074
0.00345316
0.00331379
0.00317286
0.0030306
0.00288731
0.00274333
0.00259902
0.00245482
0.00231123
0.00216877
0.00202808
0.00188979
0.00175464
0.00162339
0.00149683
0.00137577
0.00126099
0.00115322
0.00105307
0.000961018
0.000877338
0.000802075
0.000735035
0.000675793
0.000623728
0.000578068
0.000537953
0.000502482
0.000470765
0.000441946
0.00041523
0.000389896
0.000365301
0.000340888
0.000316187
0.000290816
0.00026449
0.000237019
0.000208319
0.000178425
0.000147512
0.000115937
8.43074e-05
5.36243e-05
2.55913e-05
5.48919e-06
2.89785e-07
6.22109e-09
1.16085e-10
2.03276e-12
3.34825e-14
5.19074e-16
7.58412e-18
1.11651e-19
1.04022e-20
1e-20
1e-20
1e-20
1e-20
1e-20
1e-20
1e-20
1e-20
1e-20
1e-20
1e-20
1e-20
1e-20
1e-20
1e-20
1e-20
1e-20
1e-20
1e-20
1e-20
1e-20
1e-20
1e-20
1e-20
1e-20
1e-20
1e-20
1e-20
1e-20
1e-20
1e-20
1e-20
1e-20
1e-20
1e-20
1e-20
1e-20
1e-20
1e-20
1e-20
1e-20
1e-20
1e-20
1e-20
1e-20
1e-20
1e-20
1e-20
1e-20
1e-20
1e-20
1e-20
1e-20
1e-20
1e-20
1e-20
1e-20
1e-20
1e-20
1e-20
1e-20
1e-20
1e-20
1e-20
1e-20
1e-20
1e-20
1e-20
1e-20
1e-20
1e-20
1e-20
1e-20
1e-20
1e-20
1e-20
1e-20
1e-20
1e-20
1e-20
1e-20
1e-20
1e-20
1e-20
1e-20
1e-20
1e-20
1e-20
1e-20
1e-20
1e-20
1e-20
1e-20
1e-20
)
;

boundaryField
{
    inandouthalf11
    {
        type            cyclic;
    }
    inandouthalf12
    {
        type            cyclic;
    }
    inandouthalf21
    {
        type            cyclic;
    }
    inandouthalf22
    {
        type            cyclic;
    }
    inandouthalf31
    {
        type            cyclic;
    }
    inandouthalf32
    {
        type            cyclic;
    }
    inandouthalf41
    {
        type            cyclic;
    }
    inandouthalf42
    {
        type            cyclic;
    }
    top
    {
        type            symmetryPlane;
    }
    walls
    {
        type            zeroGradient;
    }
    frontAndBackPlanes
    {
        type            empty;
    }
}


// ************************************************************************* //
