/*--------------------------------*- C++ -*----------------------------------*\
| =========                 |                                                 |
| \\      /  F ield         | OpenFOAM: The Open Source CFD Toolbox           |
|  \\    /   O peration     | Version:  2.4.x                                 |
|   \\  /    A nd           | Web:      www.OpenFOAM.org                      |
|    \\/     M anipulation  |                                                 |
\*---------------------------------------------------------------------------*/
FoamFile
{
    version     2.0;
    format      ascii;
    class       volScalarField;
    location    "6.4";
    object      k_0;
}
// * * * * * * * * * * * * * * * * * * * * * * * * * * * * * * * * * * * * * //

dimensions      [0 2 -2 0 0 0 0];

internalField   nonuniform List<scalar> 
360
(
1e-20
1e-20
1e-20
1e-20
1e-20
1e-20
1e-20
1e-20
1e-20
1e-20
1e-20
1e-20
1e-20
1e-20
1e-20
1e-20
1e-20
1e-20
1e-20
1e-20
1e-20
1e-20
1e-20
1e-20
1e-20
1e-20
1e-20
1e-20
1e-20
1e-20
1e-20
1e-20
1e-20
1e-20
1e-20
1e-20
1e-20
1e-20
1e-20
1e-20
1e-20
1e-20
1e-20
1e-20
1e-20
1e-20
1e-20
1e-20
1e-20
1e-20
1e-20
1e-20
1e-20
1e-20
1e-20
1e-20
1e-20
1e-20
1e-20
1e-20
1e-20
1e-20
1e-20
1e-20
1e-20
1e-20
1e-20
1e-20
1e-20
1e-20
1e-20
1e-20
1e-20
1e-20
1e-20
1e-20
1e-20
1e-20
1e-20
1e-20
1e-20
1e-20
1e-20
1e-20
1e-20
1e-20
1e-20
1e-20
1e-20
1e-20
1e-20
1e-20
1e-20
1e-20
1e-20
1e-20
1e-20
1e-20
1e-20
1e-20
1e-20
1e-20
1e-20
1e-20
1e-20
1e-20
1e-20
1e-20
1e-20
1e-20
1e-20
1e-20
1e-20
1e-20
1e-20
1e-20
1e-20
1e-20
1e-20
1e-20
1e-20
1e-20
1e-20
1e-20
1e-20
1e-20
1e-20
1e-20
1e-20
1e-20
1e-20
1e-20
1.28577e-20
5.26843e-20
2.63118e-19
1.41401e-18
8.19236e-18
5.17676e-17
3.6211e-16
2.84955e-15
2.56264e-14
2.67683e-13
3.31338e-12
4.94822e-11
9.0314e-10
2.03889e-08
5.74546e-07
1.91875e-05
0.000517494
0.00307171
0.00477616
0.00562817
0.00616559
0.00654519
0.00683218
0.00705692
0.00723539
0.0073772
0.00748893
0.00757541
0.00764045
0.00768706
0.00771773
0.00773452
0.00773911
0.00773296
0.00771727
0.00769307
0.00766124
0.00762255
0.00757765
0.00752711
0.00747143
0.00741106
0.00734638
0.00727774
0.00720545
0.00712978
0.00705098
0.00696927
0.00688486
0.00679794
0.00670867
0.00661721
0.00652371
0.0064283
0.00633111
0.00623225
0.00613183
0.00602997
0.00592675
0.00582228
0.00571665
0.00560994
0.00550225
0.00539365
0.00528422
0.00517406
0.00506323
0.00495182
0.00483991
0.00472644
0.0046103
0.00449152
0.00437013
0.00424618
0.00411971
0.0039908
0.00385954
0.00372603
0.0035904
0.00345281
0.00331344
0.0031725
0.00303024
0.00288694
0.00274295
0.00259864
0.00245445
0.00231085
0.0021684
0.00202771
0.00188943
0.00175429
0.00162305
0.00149651
0.00137547
0.00126071
0.00115296
0.00105284
0.000960814
0.000877161
0.000801924
0.00073491
0.000675692
0.000623648
0.000578008
0.000537908
0.000502451
0.000470744
0.000441933
0.000415224
0.000389893
0.000365301
0.000340889
0.000316187
0.000290815
0.000264487
0.000237012
0.000208309
0.000178412
0.000147496
0.000115917
8.42858e-05
5.36017e-05
2.55697e-05
5.47865e-06
2.88848e-07
6.19885e-09
1.15659e-10
2.02512e-12
3.33536e-14
5.17031e-16
7.55363e-18
1.11224e-19
1.03985e-20
1e-20
1e-20
1e-20
1e-20
1e-20
1e-20
1e-20
1e-20
1e-20
1e-20
1e-20
1e-20
1e-20
1e-20
1e-20
1e-20
1e-20
1e-20
1e-20
1e-20
1e-20
1e-20
1e-20
1e-20
1e-20
1e-20
1e-20
1e-20
1e-20
1e-20
1e-20
1e-20
1e-20
1e-20
1e-20
1e-20
1e-20
1e-20
1e-20
1e-20
1e-20
1e-20
1e-20
1e-20
1e-20
1e-20
1e-20
1e-20
1e-20
1e-20
1e-20
1e-20
1e-20
1e-20
1e-20
1e-20
1e-20
1e-20
1e-20
1e-20
1e-20
1e-20
1e-20
1e-20
1e-20
1e-20
1e-20
1e-20
1e-20
1e-20
1e-20
1e-20
1e-20
1e-20
1e-20
1e-20
1e-20
1e-20
1e-20
1e-20
1e-20
1e-20
1e-20
1e-20
1e-20
1e-20
1e-20
1e-20
1e-20
1e-20
1e-20
1e-20
1e-20
1e-20
)
;

boundaryField
{
    inandouthalf11
    {
        type            cyclic;
    }
    inandouthalf12
    {
        type            cyclic;
    }
    inandouthalf21
    {
        type            cyclic;
    }
    inandouthalf22
    {
        type            cyclic;
    }
    inandouthalf31
    {
        type            cyclic;
    }
    inandouthalf32
    {
        type            cyclic;
    }
    inandouthalf41
    {
        type            cyclic;
    }
    inandouthalf42
    {
        type            cyclic;
    }
    top
    {
        type            symmetryPlane;
    }
    walls
    {
        type            zeroGradient;
    }
    frontAndBackPlanes
    {
        type            empty;
    }
}


// ************************************************************************* //
