/*--------------------------------*- C++ -*----------------------------------*\
| =========                 |                                                 |
| \\      /  F ield         | OpenFOAM: The Open Source CFD Toolbox           |
|  \\    /   O peration     | Version:  2.4.x                                 |
|   \\  /    A nd           | Web:      www.OpenFOAM.org                      |
|    \\/     M anipulation  |                                                 |
\*---------------------------------------------------------------------------*/
FoamFile
{
    version     2.0;
    format      ascii;
    class       volScalarField;
    location    "6.4";
    object      mua;
}
// * * * * * * * * * * * * * * * * * * * * * * * * * * * * * * * * * * * * * //

dimensions      [1 -1 -1 0 0 0 0];

internalField   nonuniform List<scalar> 
360
(
1.02869e+06
698418
857730
899717
856875
827561
815056
806668
797891
787686
776413
765064
754125
743713
733600
723527
713463
703503
693637
683845
674272
664727
655236
645856
636604
627546
618675
609896
601347
593078
584981
576990
569150
561116
553047
544736
536058
526789
517031
507026
496568
486181
476213
466780
458566
452006
447599
445750
446197
448908
453883
460107
466296
470603
470765
464065
448517
422648
386934
343521
296119
249733
208770
176678
155615
147404
155346
187862
266779
450231
902980
2.13221e+06
5.82388e+06
1.79135e+07
6.01179e+07
2.12444e+08
7.61657e+08
2.66692e+09
8.79947e+09
2.65381e+10
7.14057e+10
1.6833e+11
3.43735e+11
6.05233e+11
9.20613e+11
1.21988e+12
1.42817e+12
1.5051e+12
1.45795e+12
1.32558e+12
1.15318e+12
9.75568e+11
8.12909e+11
6.73682e+11
5.59148e+11
4.67032e+11
3.93806e+11
3.35856e+11
2.89982e+11
2.53538e+11
2.24424e+11
2.01006e+11
1.82027e+11
1.66525e+11
1.53767e+11
1.43187e+11
1.34348e+11
1.26906e+11
1.20592e+11
1.15186e+11
1.10511e+11
1.06421e+11
1.02792e+11
9.95156e+10
9.64988e+10
9.36564e+10
9.09127e+10
8.82007e+10
8.54654e+10
8.2667e+10
7.97864e+10
7.68294e+10
7.38294e+10
7.08453e+10
6.79555e+10
6.52502e+10
6.28252e+10
6.07836e+10
5.92424e+10
5.83357e+10
5.81926e+10
5.88725e+10
6.02737e+10
6.21043e+10
6.40049e+10
6.56761e+10
6.66848e+10
6.62034e+10
6.37786e+10
6.13484e+10
6.41321e+10
7.97546e+10
1.20917e+11
2.29965e+11
5.38802e+11
8.25967e+11
7.73375e+10
0.368932
0.01423
0.00758327
0.00620957
0.00556172
0.00524834
0.00512179
0.00509593
0.00511944
0.00516379
0.00521423
0.00526353
0.00530848
0.00534788
0.00538146
0.00540943
0.0054322
0.0054502
0.00546388
0.00547365
0.00547988
0.00548288
0.00548295
0.00548033
0.00547524
0.00546786
0.00545838
0.00544694
0.00543366
0.00541869
0.00540212
0.00538405
0.00536459
0.00534381
0.0053218
0.00529863
0.00527439
0.00524914
0.00522294
0.00519585
0.00516795
0.00513929
0.00510992
0.0050799
0.00504928
0.00501811
0.00498644
0.00495432
0.00492178
0.00488887
0.00485563
0.00482209
0.00478828
0.00475423
0.00471961
0.00468408
0.00464762
0.00461023
0.00457187
0.00453251
0.00449212
0.00445064
0.004408
0.00436411
0.00431889
0.00427221
0.00422394
0.00417394
0.00412204
0.00406805
0.00401176
0.00395293
0.00389129
0.00382654
0.00375832
0.00368623
0.00360977
0.00352836
0.00344132
0.00334776
0.00324661
0.00313645
0.00301543
0.00288096
0.00272935
0.0025549
0.00234805
0.00209041
0.00173684
0
0
0
0
0
0
0
0
0
0
0
0
0
0
0
0
0
0
0
0
0
0
0
0
0
0
0
0
0
0
0
0
0
0
0
0
0
0
0
0
0
0
0
0
0
0
0
0
0
0
0
0
0
0
0
0
0
0
0
0
0
0
0
0
0
0
0
0
0
0
0
0
0
0
0
0
0
0
0
0
0
0
0
0
0
0
0
0
0
0
0
0
0
0
0
0
0
0
0
0
0
0
0
0
0
0
0
0
0
0
0
0
0
0
0
0
0
0
0
0
0
0
0
0
)
;

boundaryField
{
    inandouthalf11
    {
        type            cyclic;
    }
    inandouthalf12
    {
        type            cyclic;
    }
    inandouthalf21
    {
        type            cyclic;
    }
    inandouthalf22
    {
        type            cyclic;
    }
    inandouthalf31
    {
        type            cyclic;
    }
    inandouthalf32
    {
        type            cyclic;
    }
    inandouthalf41
    {
        type            cyclic;
    }
    inandouthalf42
    {
        type            cyclic;
    }
    top
    {
        type            symmetryPlane;
    }
    walls
    {
        type            calculated;
        value           uniform 1e+30;
    }
    frontAndBackPlanes
    {
        type            empty;
    }
}


// ************************************************************************* //
