/*--------------------------------*- C++ -*----------------------------------*\
| =========                 |                                                 |
| \\      /  F ield         | OpenFOAM: The Open Source CFD Toolbox           |
|  \\    /   O peration     | Version:  2.4.x                                 |
|   \\  /    A nd           | Web:      www.OpenFOAM.org                      |
|    \\/     M anipulation  |                                                 |
\*---------------------------------------------------------------------------*/
FoamFile
{
    version     2.0;
    format      ascii;
    class       volScalarField;
    location    "6.4";
    object      nutb;
}
// * * * * * * * * * * * * * * * * * * * * * * * * * * * * * * * * * * * * * //

dimensions      [0 2 -1 0 0 0 0];

internalField   nonuniform List<scalar> 
360
(
9e-22
9e-22
9e-22
9e-22
9e-22
9e-22
9e-22
9e-22
9e-22
9e-22
9e-22
9e-22
9e-22
9e-22
9e-22
9e-22
9e-22
9e-22
9e-22
9e-22
9e-22
9e-22
9e-22
9e-22
9e-22
9e-22
9e-22
9e-22
9e-22
9e-22
9e-22
9e-22
9e-22
9e-22
9e-22
9e-22
9e-22
9e-22
9e-22
9e-22
9e-22
9e-22
9e-22
9e-22
9e-22
9e-22
9e-22
9e-22
9e-22
9e-22
9e-22
9e-22
9e-22
9e-22
9e-22
9e-22
9e-22
9e-22
9e-22
9e-22
9e-22
9e-22
9e-22
9e-22
9e-22
9e-22
9e-22
9e-22
9e-22
9e-22
9e-22
9e-22
9e-22
9e-22
9e-22
9e-22
9e-22
9e-22
9e-22
9e-22
9e-22
9e-22
9e-22
9e-22
9e-22
9e-22
9e-22
9e-22
9e-22
9e-22
9e-22
9e-22
9e-22
9e-22
9e-22
9e-22
9e-22
9e-22
9e-22
9e-22
9e-22
9e-22
9e-22
9e-22
9e-22
9e-22
9e-22
9e-22
9e-22
9e-22
9e-22
9e-22
9e-22
9e-22
9e-22
9e-22
9e-22
9e-22
9e-22
9e-22
9e-22
9e-22
9e-22
9e-22
9e-22
9e-22
9e-22
9e-22
9e-22
9e-22
9e-22
9e-22
8.95334e-22
3.17432e-21
1.40867e-20
6.66289e-20
3.35389e-19
1.81627e-18
1.07439e-17
7.06065e-17
5.23588e-16
4.45078e-15
4.43529e-14
5.29087e-13
7.66319e-12
1.36722e-10
3.04787e-09
7.92943e-08
1.72283e-06
8.85551e-06
1.66054e-05
2.36144e-05
3.05757e-05
3.77024e-05
4.50338e-05
5.25256e-05
6.01029e-05
6.76887e-05
7.52157e-05
8.26302e-05
8.98905e-05
9.69657e-05
0.000103833
0.000110476
0.000116884
0.000123049
0.000128966
0.000134632
0.000140048
0.000145212
0.000150127
0.000154795
0.000159217
0.000163398
0.00016734
0.000171046
0.000174522
0.000177769
0.000180793
0.000183598
0.000186186
0.000188562
0.000190731
0.000192696
0.000194462
0.000196031
0.000197409
0.000198599
0.000199605
0.00020043
0.00020108
0.000201557
0.000201866
0.00020201
0.000201993
0.00020182
0.000201493
0.000201018
0.000200397
0.000199634
0.000198735
0.000197692
0.000196493
0.000195132
0.000193606
0.000191912
0.000190046
0.000188005
0.000185787
0.000183391
0.000180815
0.000178059
0.000175126
0.000172016
0.000168733
0.000165284
0.000161675
0.000157917
0.000154023
0.000150008
0.000145894
0.000141703
0.000137464
0.000133211
0.00012898
0.000124813
0.000120756
0.000116853
0.00011315
0.000109685
0.000106485
0.000103563
0.00010091
9.84939e-05
9.62595e-05
9.4135e-05
9.20386e-05
8.98902e-05
8.76201e-05
8.51749e-05
8.25186e-05
7.96314e-05
7.65039e-05
7.31324e-05
6.9514e-05
6.56428e-05
6.15092e-05
5.70993e-05
5.23957e-05
4.73787e-05
4.20279e-05
3.63237e-05
3.02487e-05
2.37889e-05
1.6931e-05
9.66973e-06
2.62342e-06
1.60165e-07
3.4747e-09
6.4411e-11
1.12042e-12
1.83384e-14
2.8257e-16
4.08519e-18
4.41272e-20
9.73859e-22
9e-22
9e-22
9e-22
9e-22
9e-22
9e-22
9e-22
9e-22
9e-22
9e-22
9e-22
9e-22
9e-22
9e-22
9e-22
9e-22
9e-22
9e-22
9e-22
9e-22
9e-22
9e-22
9e-22
9e-22
9e-22
9e-22
9e-22
9e-22
9e-22
9e-22
9e-22
9e-22
9e-22
9e-22
9e-22
9e-22
9e-22
9e-22
9e-22
9e-22
9e-22
9e-22
9e-22
9e-22
9e-22
9e-22
9e-22
9e-22
9e-22
9e-22
9e-22
9e-22
9e-22
9e-22
9e-22
9e-22
9e-22
9e-22
9e-22
9e-22
9e-22
9e-22
9e-22
9e-22
9e-22
9e-22
9e-22
9e-22
9e-22
9e-22
9e-22
9e-22
9e-22
9e-22
9e-22
9e-22
9e-22
9e-22
9e-22
9e-22
9e-22
9e-22
9e-22
9e-22
9e-22
9e-22
9e-22
9e-22
9e-22
9e-22
9e-22
9e-22
9e-22
9e-22
)
;

boundaryField
{
    inandouthalf11
    {
        type            cyclic;
    }
    inandouthalf12
    {
        type            cyclic;
    }
    inandouthalf21
    {
        type            cyclic;
    }
    inandouthalf22
    {
        type            cyclic;
    }
    inandouthalf31
    {
        type            cyclic;
    }
    inandouthalf32
    {
        type            cyclic;
    }
    inandouthalf41
    {
        type            cyclic;
    }
    inandouthalf42
    {
        type            cyclic;
    }
    top
    {
        type            symmetryPlane;
    }
    walls
    {
        type            calculated;
        value           uniform 0;
    }
    frontAndBackPlanes
    {
        type            empty;
    }
}


// ************************************************************************* //
