/*--------------------------------*- C++ -*----------------------------------*\
| =========                 |                                                 |
| \\      /  F ield         | OpenFOAM: The Open Source CFD Toolbox           |
|  \\    /   O peration     | Version:  2.4.x                                 |
|   \\  /    A nd           | Web:      www.OpenFOAM.org                      |
|    \\/     M anipulation  |                                                 |
\*---------------------------------------------------------------------------*/
FoamFile
{
    version     2.0;
    format      ascii;
    class       volScalarField;
    location    "6.4";
    object      p;
}
// * * * * * * * * * * * * * * * * * * * * * * * * * * * * * * * * * * * * * //

dimensions      [1 -1 -2 0 0 0 0];

internalField   nonuniform List<scalar> 
360
(
4896.94
4892.03
4887.13
4882.22
4877.31
4872.4
4867.5
4862.59
4857.67
4852.76
4847.85
4842.94
4838.02
4833.11
4828.19
4823.28
4818.36
4813.44
4808.53
4803.61
4798.69
4793.77
4788.85
4783.92
4779
4774.08
4769.15
4764.23
4759.3
4754.37
4749.44
4744.52
4739.59
4734.66
4729.72
4724.79
4719.86
4714.92
4709.99
4705.05
4700.12
4695.18
4690.24
4685.3
4680.36
4675.42
4670.48
4665.54
4660.59
4655.65
4650.7
4645.75
4640.81
4635.86
4630.91
4625.96
4621.01
4616.06
4611.1
4606.15
4601.2
4596.24
4591.28
4586.32
4581.36
4576.4
4571.43
4566.47
4561.5
4556.53
4551.56
4546.58
4541.61
4536.64
4531.67
4526.7
4521.73
4516.75
4511.78
4506.81
4501.84
4496.87
4491.9
4486.93
4481.96
4476.98
4472.01
4467.04
4462.07
4457.1
4452.13
4447.16
4442.19
4437.22
4432.24
4427.27
4422.3
4417.33
4412.36
4407.39
4402.42
4397.45
4392.48
4387.51
4382.54
4377.57
4372.6
4367.63
4362.66
4357.69
4352.72
4347.75
4342.78
4337.81
4332.84
4327.87
4322.9
4317.93
4312.96
4307.99
4303.02
4298.05
4293.08
4288.11
4283.15
4278.18
4273.21
4268.24
4263.27
4258.3
4253.33
4248.37
4243.4
4238.43
4233.46
4228.5
4223.53
4218.56
4213.59
4208.63
4203.66
4198.69
4193.73
4188.76
4183.8
4178.83
4173.87
4168.88
4163.16
4154.77
4147.79
4141.62
4135.8
4130.19
4124.73
4119.38
4114.12
4108.93
4103.8
4098.72
4093.66
4088.64
4083.65
4078.67
4073.71
4068.77
4063.84
4058.92
4054
4049.1
4044.2
4039.31
4034.43
4029.55
4024.68
4019.81
4014.94
4010.08
4005.21
4000.36
3995.5
3990.65
3985.8
3980.95
3976.1
3971.26
3966.41
3961.57
3956.73
3951.89
3947.05
3942.21
3937.38
3932.54
3927.71
3922.87
3918.04
3913.21
3908.37
3903.54
3898.71
3893.83
3888.85
3883.77
3878.59
3873.3
3867.91
3862.4
3856.79
3851.06
3845.21
3839.24
3833.15
3826.94
3820.6
3814.13
3807.53
3800.79
3793.92
3786.9
3779.74
3772.42
3764.96
3757.34
3749.56
3741.62
3733.51
3725.24
3716.78
3708.15
3699.34
3690.34
3681.16
3671.78
3662.2
3652.42
3642.44
3632.26
3621.86
3611.25
3600.42
3589.37
3578.09
3566.58
3554.84
3542.86
3530.64
3518.17
3505.45
3492.47
3479.23
3465.72
3451.93
3437.87
3423.51
3408.87
3393.92
3378.66
3363.08
3347.19
3330.97
3314.43
3297.55
3280.33
3262.76
3244.83
3226.54
3207.87
3188.83
3169.4
3149.58
3129.35
3108.72
3087.66
3066.18
3044.26
3021.9
2999.08
2975.8
2952.05
2927.81
2903.09
2877.86
2852.12
2825.86
2799.06
2771.72
2743.82
2715.36
2686.32
2656.7
2626.47
2595.62
2564.15
2532.05
2499.29
2465.86
2431.76
2396.96
2361.46
2325.24
2288.28
2250.57
2212.1
2172.85
2132.8
2091.93
2050.24
2007.7
1964.3
1922.76
1883.52
1844.28
1805.04
1765.8
1726.56
1687.32
1648.08
1608.84
1569.6
1530.36
1491.12
1451.88
1412.64
1373.4
1334.16
1294.92
1255.68
1216.44
1177.2
1137.96
1098.72
1059.48
1020.24
981
941.76
902.52
863.28
824.04
784.8
745.56
706.32
667.08
627.84
588.6
549.36
510.12
470.88
431.64
392.4
353.16
313.92
274.68
235.44
196.2
156.96
117.72
78.48
39.24
1.74199e-07
)
;

boundaryField
{
    inandouthalf11
    {
        type            cyclic;
    }
    inandouthalf12
    {
        type            cyclic;
    }
    inandouthalf21
    {
        type            cyclic;
    }
    inandouthalf22
    {
        type            cyclic;
    }
    inandouthalf31
    {
        type            cyclic;
    }
    inandouthalf32
    {
        type            cyclic;
    }
    inandouthalf41
    {
        type            cyclic;
    }
    inandouthalf42
    {
        type            cyclic;
    }
    top
    {
        type            symmetryPlane;
    }
    walls
    {
        type            slip;
    }
    frontAndBackPlanes
    {
        type            empty;
    }
}


// ************************************************************************* //
