/*--------------------------------*- C++ -*----------------------------------*\
| =========                 |                                                 |
| \\      /  F ield         | OpenFOAM: The Open Source CFD Toolbox           |
|  \\    /   O peration     | Version:  2.4.x                                 |
|   \\  /    A nd           | Web:      www.OpenFOAM.org                      |
|    \\/     M anipulation  |                                                 |
\*---------------------------------------------------------------------------*/
FoamFile
{
    version     2.0;
    format      ascii;
    class       surfaceScalarField;
    location    "6.4";
    object      phia_0;
}
// * * * * * * * * * * * * * * * * * * * * * * * * * * * * * * * * * * * * * //

dimensions      [0 3 -1 0 0 0 0];

internalField   nonuniform List<scalar> 
359
(
-3.36976e-13
-8.70926e-13
-1.35776e-12
-1.81442e-12
-2.27931e-12
-2.75592e-12
-3.23782e-12
-3.72189e-12
-4.20783e-12
-4.69662e-12
-5.18903e-12
-5.68515e-12
-6.1849e-12
-6.68801e-12
-7.19437e-12
-7.70402e-12
-8.21705e-12
-8.73348e-12
-9.2533e-12
-9.77661e-12
-1.03033e-11
-1.08334e-11
-1.1367e-11
-1.19041e-11
-1.24447e-11
-1.29887e-11
-1.35361e-11
-1.40868e-11
-1.46408e-11
-1.51979e-11
-1.57579e-11
-1.6321e-11
-1.68868e-11
-1.7456e-11
-1.80283e-11
-1.86044e-11
-1.91846e-11
-1.97697e-11
-2.03606e-11
-2.09575e-11
-2.15615e-11
-2.21726e-11
-2.27905e-11
-2.34151e-11
-2.40446e-11
-2.4677e-11
-2.53095e-11
-2.59382e-11
-2.65601e-11
-2.71721e-11
-2.77712e-11
-2.83563e-11
-2.89276e-11
-2.94881e-11
-3.00424e-11
-3.0599e-11
-3.11686e-11
-3.17667e-11
-3.24128e-11
-3.31321e-11
-3.3957e-11
-3.49228e-11
-3.60636e-11
-3.73935e-11
-3.88826e-11
-4.04324e-11
-4.18826e-11
-4.30654e-11
-4.38876e-11
-4.43688e-11
-4.46059e-11
-4.47051e-11
-4.4741e-11
-4.47526e-11
-4.4756e-11
-4.47569e-11
-4.47572e-11
-4.47573e-11
-4.47573e-11
-4.47573e-11
-4.47573e-11
-4.47573e-11
-4.47573e-11
-4.47573e-11
-4.47573e-11
-4.47573e-11
-4.47573e-11
-4.47573e-11
-4.47573e-11
-4.47573e-11
-4.47573e-11
-4.47573e-11
-4.47573e-11
-4.47573e-11
-4.47573e-11
-4.47573e-11
-4.47573e-11
-4.47573e-11
-4.47573e-11
-4.47573e-11
-4.47573e-11
-4.47573e-11
-4.47573e-11
-4.47573e-11
-4.47573e-11
-4.47573e-11
-4.47573e-11
-4.47573e-11
-4.47573e-11
-4.47573e-11
-4.47573e-11
-4.47573e-11
-4.47573e-11
-4.47573e-11
-4.47573e-11
-4.47573e-11
-4.47573e-11
-4.47573e-11
-4.47573e-11
-4.47573e-11
-4.47573e-11
-4.47573e-11
-4.47573e-11
-4.47573e-11
-4.47573e-11
-4.47573e-11
-4.47573e-11
-4.47573e-11
-4.47573e-11
-4.47573e-11
-4.47573e-11
-4.47573e-11
-4.47573e-11
-4.47573e-11
-4.47573e-11
-4.47573e-11
-4.47573e-11
-4.47573e-11
-4.47573e-11
-4.47573e-11
-4.47573e-11
-4.47573e-11
-4.47573e-11
-4.47573e-11
-4.47573e-11
-4.47573e-11
-4.47573e-11
-8.42411e-11
-2.12529e-09
-3.75446e-09
-4.87028e-09
-5.73023e-09
-6.46587e-09
-7.10973e-09
-7.66877e-09
-8.14492e-09
-8.54063e-09
-8.85989e-09
-9.10763e-09
-9.28922e-09
-9.40986e-09
-9.47442e-09
-9.48731e-09
-9.45244e-09
-9.37328e-09
-9.25285e-09
-9.09381e-09
-8.89853e-09
-8.66907e-09
-8.40728e-09
-8.11482e-09
-7.79316e-09
-7.44365e-09
-7.0675e-09
-6.66584e-09
-6.2397e-09
-5.79005e-09
-5.3178e-09
-4.82381e-09
-4.30889e-09
-3.77383e-09
-3.2194e-09
-2.64631e-09
-2.05529e-09
-1.44703e-09
-8.22212e-10
-1.81498e-10
4.74447e-10
1.14496e-09
1.82936e-09
2.52693e-09
3.23683e-09
3.95807e-09
4.68941e-09
5.42929e-09
6.17575e-09
6.92628e-09
7.67782e-09
8.42675e-09
9.16894e-09
9.90057e-09
1.06329e-08
1.13617e-08
1.2082e-08
1.27891e-08
1.34762e-08
1.41344e-08
1.47554e-08
1.53312e-08
1.58555e-08
1.63243e-08
1.67357e-08
1.70912e-08
1.73938e-08
1.76463e-08
1.7854e-08
1.80216e-08
1.81531e-08
1.82526e-08
1.83238e-08
1.837e-08
1.83922e-08
1.83926e-08
1.83728e-08
1.83326e-08
1.82724e-08
1.81927e-08
1.80916e-08
1.79702e-08
1.78209e-08
1.76493e-08
1.74313e-08
1.71883e-08
1.68286e-08
1.65386e-08
1.54274e-08
6.26942e-09
6.57023e-09
5.35824e-09
6.62472e-09
-6.39306e-08
-1.48694e-07
-1.58329e-07
-1.58292e-07
-1.58295e-07
-1.58296e-07
-1.58299e-07
-1.58301e-07
-1.58304e-07
-1.58306e-07
-1.58307e-07
-1.58307e-07
-1.58304e-07
-1.58297e-07
-1.58284e-07
-1.58252e-07
-1.58201e-07
-1.58188e-07
-1.58188e-07
-1.58188e-07
-1.58188e-07
-1.58188e-07
-1.58188e-07
-1.58188e-07
-1.58188e-07
-1.58188e-07
-1.58188e-07
-1.58188e-07
-1.58188e-07
-1.58188e-07
-1.58188e-07
-1.58188e-07
-1.58188e-07
-1.58188e-07
-1.58188e-07
-1.58188e-07
-1.58188e-07
-1.58188e-07
-1.58188e-07
-1.58188e-07
-1.58188e-07
-1.58188e-07
-1.58188e-07
-1.58188e-07
-1.58188e-07
-1.58188e-07
-1.58188e-07
-1.58188e-07
-1.58188e-07
-1.58188e-07
-1.58188e-07
-1.58188e-07
-1.58188e-07
-1.58188e-07
-1.58188e-07
-1.58188e-07
-1.58188e-07
-1.58188e-07
-1.58188e-07
-1.58188e-07
-1.58188e-07
-1.58188e-07
-1.58188e-07
-1.58188e-07
-1.58188e-07
-1.58188e-07
-1.58188e-07
-1.58188e-07
-1.58188e-07
-1.58188e-07
-1.58188e-07
-1.58188e-07
-1.58188e-07
-1.58188e-07
-1.58188e-07
-1.58188e-07
-1.58188e-07
-1.58188e-07
-1.58188e-07
-1.58188e-07
-1.58188e-07
-1.58188e-07
-1.58188e-07
-1.58188e-07
-1.58188e-07
-1.58188e-07
-1.58188e-07
-1.58188e-07
-1.58188e-07
-1.58188e-07
-1.58188e-07
-1.58188e-07
-1.58188e-07
-1.58188e-07
-1.58188e-07
-1.58188e-07
-1.58188e-07
-1.58188e-07
-1.58188e-07
-1.58188e-07
-1.58188e-07
-1.58188e-07
-1.58188e-07
-1.58188e-07
-1.58188e-07
-1.58188e-07
-1.58188e-07
-1.58188e-07
-1.58188e-07
-1.58188e-07
-1.58188e-07
-1.58188e-07
-1.58188e-07
-1.58188e-07
-1.58188e-07
-1.58188e-07
-1.5817e-07
-1.57464e-07
-1.32394e-07
)
;

boundaryField
{
    inandouthalf11
    {
        type            cyclic;
        value           nonuniform List<scalar> 
100
(
8.71751e-39
2.02643e-14
4.28399e-14
6.28997e-14
8.3037e-14
1.04105e-13
1.25779e-13
1.47798e-13
1.70119e-13
1.92771e-13
2.15797e-13
2.39222e-13
2.63052e-13
2.87281e-13
3.11905e-13
3.36927e-13
3.62355e-13
3.88197e-13
4.1446e-13
4.41149e-13
4.6827e-13
4.95828e-13
5.23832e-13
5.5229e-13
5.81207e-13
6.10589e-13
6.40438e-13
6.70759e-13
7.01555e-13
7.32827e-13
7.64572e-13
7.96796e-13
8.29502e-13
8.62704e-13
8.96422e-13
9.30678e-13
9.65506e-13
1.00095e-12
1.03708e-12
1.07394e-12
1.11158e-12
1.15005e-12
1.18936e-12
1.22951e-12
1.27045e-12
1.31209e-12
1.35427e-12
1.39676e-12
1.43935e-12
1.48181e-12
1.52393e-12
1.56555e-12
1.60663e-12
1.64727e-12
1.68772e-12
1.72847e-12
1.77023e-12
1.81398e-12
1.86108e-12
1.9133e-12
1.97296e-12
2.0429e-12
2.1262e-12
2.22535e-12
2.34041e-12
2.46665e-12
2.59303e-12
2.70454e-12
2.78873e-12
2.8421e-12
2.87038e-12
2.88298e-12
2.88779e-12
2.8894e-12
2.88989e-12
2.89003e-12
2.89007e-12
2.89008e-12
2.89008e-12
2.89008e-12
2.89008e-12
2.89008e-12
2.89008e-12
2.89008e-12
2.89008e-12
2.89008e-12
2.89008e-12
2.89008e-12
2.89008e-12
2.89008e-12
2.89008e-12
2.89008e-12
2.89008e-12
2.89008e-12
2.89008e-12
2.89008e-12
2.89008e-12
2.89008e-12
2.89008e-12
2.89008e-12
)
;
    }
    inandouthalf12
    {
        type            cyclic;
        value           nonuniform List<scalar> 
100
(
-8.71751e-39
-2.02643e-14
-4.28399e-14
-6.28997e-14
-8.3037e-14
-1.04105e-13
-1.25779e-13
-1.47798e-13
-1.70119e-13
-1.92771e-13
-2.15797e-13
-2.39222e-13
-2.63052e-13
-2.87281e-13
-3.11905e-13
-3.36927e-13
-3.62355e-13
-3.88197e-13
-4.1446e-13
-4.41149e-13
-4.6827e-13
-4.95828e-13
-5.23832e-13
-5.5229e-13
-5.81207e-13
-6.10589e-13
-6.40438e-13
-6.70759e-13
-7.01555e-13
-7.32827e-13
-7.64572e-13
-7.96796e-13
-8.29502e-13
-8.62704e-13
-8.96422e-13
-9.30678e-13
-9.65506e-13
-1.00095e-12
-1.03708e-12
-1.07394e-12
-1.11158e-12
-1.15005e-12
-1.18936e-12
-1.22951e-12
-1.27045e-12
-1.31209e-12
-1.35427e-12
-1.39676e-12
-1.43935e-12
-1.48181e-12
-1.52393e-12
-1.56555e-12
-1.60663e-12
-1.64727e-12
-1.68772e-12
-1.72847e-12
-1.77023e-12
-1.81398e-12
-1.86108e-12
-1.9133e-12
-1.97296e-12
-2.0429e-12
-2.1262e-12
-2.22535e-12
-2.34041e-12
-2.46665e-12
-2.59303e-12
-2.70454e-12
-2.78873e-12
-2.8421e-12
-2.87038e-12
-2.88298e-12
-2.88779e-12
-2.8894e-12
-2.88989e-12
-2.89003e-12
-2.89007e-12
-2.89008e-12
-2.89008e-12
-2.89008e-12
-2.89008e-12
-2.89008e-12
-2.89008e-12
-2.89008e-12
-2.89008e-12
-2.89008e-12
-2.89008e-12
-2.89008e-12
-2.89008e-12
-2.89008e-12
-2.89008e-12
-2.89008e-12
-2.89008e-12
-2.89008e-12
-2.89008e-12
-2.89008e-12
-2.89008e-12
-2.89008e-12
-2.89008e-12
-2.89008e-12
)
;
    }
    inandouthalf21
    {
        type            cyclic;
        value           nonuniform List<scalar> 
100
(
2.89008e-12
2.89008e-12
2.89008e-12
2.89008e-12
2.89008e-12
2.89008e-12
2.89008e-12
2.89008e-12
2.89008e-12
2.89008e-12
2.89008e-12
2.89008e-12
2.89008e-12
2.89008e-12
2.89008e-12
2.89008e-12
2.89008e-12
2.89008e-12
2.89008e-12
2.89008e-12
2.89008e-12
2.89008e-12
2.89008e-12
2.89008e-12
2.89008e-12
2.89008e-12
2.89008e-12
2.89008e-12
2.89008e-12
2.89008e-12
2.89008e-12
2.89009e-12
2.89009e-12
2.89009e-12
2.89009e-12
2.89009e-12
2.89009e-12
2.89009e-12
2.89009e-12
2.89009e-12
2.89009e-12
2.89009e-12
2.89009e-12
2.89009e-12
2.89009e-12
2.89009e-12
2.89009e-12
2.89009e-12
7.95672e-09
9.28754e-08
1.71928e-07
2.31106e-07
2.77335e-07
3.14704e-07
3.45736e-07
3.72092e-07
3.94912e-07
4.14997e-07
4.32918e-07
4.49094e-07
4.63839e-07
4.77387e-07
4.89924e-07
5.01594e-07
5.12511e-07
5.22768e-07
5.32442e-07
5.41595e-07
5.50279e-07
5.58539e-07
5.66412e-07
5.73929e-07
5.81118e-07
5.88002e-07
5.94602e-07
6.00934e-07
6.07014e-07
6.12856e-07
6.18472e-07
6.23871e-07
6.29064e-07
6.34058e-07
6.38861e-07
6.4348e-07
6.4792e-07
6.52187e-07
6.56286e-07
6.60221e-07
6.63996e-07
6.67616e-07
6.71083e-07
6.74401e-07
6.77573e-07
6.80602e-07
6.83491e-07
6.86242e-07
6.88857e-07
6.9134e-07
6.93694e-07
6.95919e-07
)
;
    }
    inandouthalf22
    {
        type            cyclic;
        value           nonuniform List<scalar> 
100
(
-2.89008e-12
-2.89008e-12
-2.89008e-12
-2.89008e-12
-2.89008e-12
-2.89008e-12
-2.89008e-12
-2.89008e-12
-2.89008e-12
-2.89008e-12
-2.89008e-12
-2.89008e-12
-2.89008e-12
-2.89008e-12
-2.89008e-12
-2.89008e-12
-2.89008e-12
-2.89008e-12
-2.89008e-12
-2.89008e-12
-2.89008e-12
-2.89008e-12
-2.89008e-12
-2.89008e-12
-2.89008e-12
-2.89008e-12
-2.89008e-12
-2.89008e-12
-2.89008e-12
-2.89008e-12
-2.89008e-12
-2.89009e-12
-2.89009e-12
-2.89009e-12
-2.89009e-12
-2.89009e-12
-2.89009e-12
-2.89009e-12
-2.89009e-12
-2.89009e-12
-2.89009e-12
-2.89009e-12
-2.89009e-12
-2.89009e-12
-2.89009e-12
-2.89009e-12
-2.89009e-12
-2.89009e-12
-7.95672e-09
-9.28754e-08
-1.71928e-07
-2.31106e-07
-2.77335e-07
-3.14704e-07
-3.45736e-07
-3.72092e-07
-3.94912e-07
-4.14997e-07
-4.32918e-07
-4.49094e-07
-4.63839e-07
-4.77387e-07
-4.89924e-07
-5.01594e-07
-5.12511e-07
-5.22768e-07
-5.32442e-07
-5.41595e-07
-5.50279e-07
-5.58539e-07
-5.66412e-07
-5.73929e-07
-5.81118e-07
-5.88002e-07
-5.94602e-07
-6.00934e-07
-6.07014e-07
-6.12856e-07
-6.18472e-07
-6.23871e-07
-6.29064e-07
-6.34058e-07
-6.38861e-07
-6.4348e-07
-6.4792e-07
-6.52187e-07
-6.56286e-07
-6.60221e-07
-6.63996e-07
-6.67616e-07
-6.71083e-07
-6.74401e-07
-6.77573e-07
-6.80602e-07
-6.83491e-07
-6.86242e-07
-6.88857e-07
-6.9134e-07
-6.93694e-07
-6.95919e-07
)
;
    }
    inandouthalf31
    {
        type            cyclic;
        value           nonuniform List<scalar> 
110
(
6.98023e-07
7.14232e-07
7.30724e-07
7.47502e-07
7.64566e-07
7.81918e-07
7.99561e-07
8.17498e-07
8.35734e-07
8.54275e-07
8.73131e-07
8.92309e-07
9.11822e-07
9.31681e-07
9.51901e-07
9.72495e-07
9.93478e-07
1.01487e-06
1.03667e-06
1.05892e-06
1.08161e-06
1.10477e-06
1.12841e-06
1.15255e-06
1.17719e-06
1.20237e-06
1.22808e-06
1.25434e-06
1.28117e-06
1.30857e-06
1.33655e-06
1.36511e-06
1.39426e-06
1.424e-06
1.45429e-06
1.48514e-06
1.51702e-06
1.76516e-06
1.80353e-06
1.83894e-06
1.87438e-06
1.9089e-06
1.94543e-06
1.98197e-06
2.01923e-06
2.05692e-06
2.09513e-06
2.13387e-06
2.17318e-06
2.21313e-06
2.25376e-06
2.29515e-06
2.33738e-06
2.38056e-06
2.42486e-06
2.47049e-06
2.5185e-06
2.56911e-06
2.62123e-06
2.67443e-06
2.72872e-06
2.7841e-06
2.84061e-06
2.89827e-06
2.9571e-06
3.01712e-06
3.07836e-06
3.14084e-06
3.20459e-06
3.26964e-06
3.336e-06
3.40371e-06
3.4728e-06
3.54329e-06
3.61521e-06
3.68859e-06
3.76345e-06
3.83984e-06
3.91778e-06
3.9973e-06
4.07844e-06
4.16122e-06
4.24568e-06
4.33185e-06
4.41978e-06
4.50949e-06
4.60102e-06
4.69441e-06
4.78969e-06
4.88691e-06
4.9861e-06
5.08731e-06
5.19056e-06
5.29592e-06
5.40341e-06
5.51309e-06
5.62499e-06
5.73916e-06
5.85565e-06
5.9745e-06
6.09577e-06
6.2195e-06
6.34574e-06
6.47454e-06
6.60596e-06
6.74004e-06
6.87684e-06
7.01643e-06
7.15884e-06
7.30415e-06
)
;
    }
    inandouthalf32
    {
        type            cyclic;
        value           nonuniform List<scalar> 
110
(
-6.98023e-07
-7.14232e-07
-7.30724e-07
-7.47502e-07
-7.64566e-07
-7.81918e-07
-7.99561e-07
-8.17498e-07
-8.35734e-07
-8.54275e-07
-8.73131e-07
-8.92309e-07
-9.11822e-07
-9.31681e-07
-9.51901e-07
-9.72495e-07
-9.93478e-07
-1.01487e-06
-1.03667e-06
-1.05892e-06
-1.08161e-06
-1.10477e-06
-1.12841e-06
-1.15255e-06
-1.17719e-06
-1.20237e-06
-1.22808e-06
-1.25434e-06
-1.28117e-06
-1.30857e-06
-1.33655e-06
-1.36511e-06
-1.39426e-06
-1.424e-06
-1.45429e-06
-1.48514e-06
-1.51702e-06
-1.76516e-06
-1.80353e-06
-1.83894e-06
-1.87438e-06
-1.9089e-06
-1.94543e-06
-1.98197e-06
-2.01923e-06
-2.05692e-06
-2.09513e-06
-2.13387e-06
-2.17318e-06
-2.21313e-06
-2.25376e-06
-2.29515e-06
-2.33738e-06
-2.38056e-06
-2.42486e-06
-2.47049e-06
-2.5185e-06
-2.56911e-06
-2.62123e-06
-2.67443e-06
-2.72872e-06
-2.7841e-06
-2.84061e-06
-2.89827e-06
-2.9571e-06
-3.01712e-06
-3.07836e-06
-3.14084e-06
-3.20459e-06
-3.26964e-06
-3.336e-06
-3.40371e-06
-3.4728e-06
-3.54329e-06
-3.61521e-06
-3.68859e-06
-3.76345e-06
-3.83984e-06
-3.91778e-06
-3.9973e-06
-4.07844e-06
-4.16122e-06
-4.24568e-06
-4.33185e-06
-4.41978e-06
-4.50949e-06
-4.60102e-06
-4.69441e-06
-4.78969e-06
-4.88691e-06
-4.9861e-06
-5.08731e-06
-5.19056e-06
-5.29592e-06
-5.40341e-06
-5.51309e-06
-5.62499e-06
-5.73916e-06
-5.85565e-06
-5.9745e-06
-6.09577e-06
-6.2195e-06
-6.34574e-06
-6.47454e-06
-6.60596e-06
-6.74004e-06
-6.87684e-06
-7.01643e-06
-7.15884e-06
-7.30415e-06
)
;
    }
    inandouthalf41
    {
        type            cyclic;
        value           nonuniform List<scalar> 
50
(
6.53795e-06
6.53795e-06
6.53795e-06
6.53795e-06
6.53795e-06
6.53795e-06
6.53795e-06
6.53795e-06
6.53795e-06
6.53795e-06
6.53795e-06
6.53795e-06
6.53795e-06
6.53795e-06
6.53795e-06
6.53795e-06
6.53795e-06
6.53795e-06
6.53795e-06
6.53795e-06
6.53795e-06
6.53795e-06
6.53795e-06
6.53795e-06
6.53795e-06
6.53795e-06
6.53795e-06
6.53795e-06
6.53795e-06
6.53795e-06
6.53795e-06
6.53795e-06
6.53795e-06
6.53795e-06
6.53795e-06
6.53795e-06
6.53795e-06
6.53795e-06
6.53795e-06
6.53795e-06
6.53795e-06
6.53795e-06
6.53795e-06
6.53795e-06
6.53795e-06
6.53795e-06
6.53795e-06
6.53796e-06
6.53801e-06
6.53933e-06
)
;
    }
    inandouthalf42
    {
        type            cyclic;
        value           nonuniform List<scalar> 
50
(
-6.53795e-06
-6.53795e-06
-6.53795e-06
-6.53795e-06
-6.53795e-06
-6.53795e-06
-6.53795e-06
-6.53795e-06
-6.53795e-06
-6.53795e-06
-6.53795e-06
-6.53795e-06
-6.53795e-06
-6.53795e-06
-6.53795e-06
-6.53795e-06
-6.53795e-06
-6.53795e-06
-6.53795e-06
-6.53795e-06
-6.53795e-06
-6.53795e-06
-6.53795e-06
-6.53795e-06
-6.53795e-06
-6.53795e-06
-6.53795e-06
-6.53795e-06
-6.53795e-06
-6.53795e-06
-6.53795e-06
-6.53795e-06
-6.53795e-06
-6.53795e-06
-6.53795e-06
-6.53795e-06
-6.53795e-06
-6.53795e-06
-6.53795e-06
-6.53795e-06
-6.53795e-06
-6.53795e-06
-6.53795e-06
-6.53795e-06
-6.53795e-06
-6.53795e-06
-6.53795e-06
-6.53796e-06
-6.53801e-06
-6.53933e-06
)
;
    }
    top
    {
        type            symmetryPlane;
        value           uniform 0;
    }
    walls
    {
        type            fixedValue;
        value           uniform 0;
    }
    frontAndBackPlanes
    {
        type            empty;
        value           nonuniform 0();
    }
}


// ************************************************************************* //
