/*--------------------------------*- C++ -*----------------------------------*\
| =========                 |                                                 |
| \\      /  F ield         | OpenFOAM: The Open Source CFD Toolbox           |
|  \\    /   O peration     | Version:  2.4.x                                 |
|   \\  /    A nd           | Web:      www.OpenFOAM.org                      |
|    \\/     M anipulation  |                                                 |
\*---------------------------------------------------------------------------*/
FoamFile
{
    version     2.0;
    format      ascii;
    class       surfaceScalarField;
    location    "6.4";
    object      phia;
}
// * * * * * * * * * * * * * * * * * * * * * * * * * * * * * * * * * * * * * //

dimensions      [0 3 -1 0 0 0 0];

internalField   nonuniform List<scalar> 
359
(
-3.36946e-13
-8.70844e-13
-1.35763e-12
-1.81425e-12
-2.27908e-12
-2.75565e-12
-3.23751e-12
-3.72153e-12
-4.20742e-12
-4.69616e-12
-5.18852e-12
-5.68459e-12
-6.18429e-12
-6.68735e-12
-7.19365e-12
-7.70326e-12
-8.21624e-12
-8.73262e-12
-9.25238e-12
-9.77565e-12
-1.03022e-11
-1.08323e-11
-1.13659e-11
-1.19029e-11
-1.24435e-11
-1.29874e-11
-1.35347e-11
-1.40854e-11
-1.46394e-11
-1.51964e-11
-1.57563e-11
-1.63194e-11
-1.68852e-11
-1.74543e-11
-1.80266e-11
-1.86026e-11
-1.91827e-11
-1.97678e-11
-2.03586e-11
-2.09554e-11
-2.15593e-11
-2.21704e-11
-2.27883e-11
-2.34127e-11
-2.40422e-11
-2.46746e-11
-2.5307e-11
-2.59357e-11
-2.65576e-11
-2.71696e-11
-2.77686e-11
-2.83537e-11
-2.89251e-11
-2.94855e-11
-3.00398e-11
-3.05963e-11
-3.11658e-11
-3.17637e-11
-3.24095e-11
-3.31283e-11
-3.39526e-11
-3.49176e-11
-3.60574e-11
-3.73863e-11
-3.88747e-11
-4.04245e-11
-4.18755e-11
-4.306e-11
-4.38841e-11
-4.43669e-11
-4.4605e-11
-4.47048e-11
-4.47409e-11
-4.47525e-11
-4.4756e-11
-4.47569e-11
-4.47572e-11
-4.47573e-11
-4.47573e-11
-4.47573e-11
-4.47573e-11
-4.47573e-11
-4.47573e-11
-4.47573e-11
-4.47573e-11
-4.47573e-11
-4.47573e-11
-4.47573e-11
-4.47573e-11
-4.47573e-11
-4.47573e-11
-4.47573e-11
-4.47573e-11
-4.47573e-11
-4.47573e-11
-4.47573e-11
-4.47573e-11
-4.47573e-11
-4.47573e-11
-4.47573e-11
-4.47573e-11
-4.47573e-11
-4.47573e-11
-4.47573e-11
-4.47573e-11
-4.47573e-11
-4.47573e-11
-4.47573e-11
-4.47573e-11
-4.47573e-11
-4.47573e-11
-4.47573e-11
-4.47573e-11
-4.47573e-11
-4.47573e-11
-4.47573e-11
-4.47573e-11
-4.47573e-11
-4.47573e-11
-4.47573e-11
-4.47573e-11
-4.47573e-11
-4.47573e-11
-4.47573e-11
-4.47573e-11
-4.47573e-11
-4.47573e-11
-4.47573e-11
-4.47573e-11
-4.47573e-11
-4.47573e-11
-4.47573e-11
-4.47573e-11
-4.47573e-11
-4.47573e-11
-4.47573e-11
-4.47573e-11
-4.47573e-11
-4.47573e-11
-4.47573e-11
-4.47573e-11
-4.47573e-11
-4.47573e-11
-4.47573e-11
-4.47573e-11
-4.47573e-11
-4.47573e-11
-8.41844e-11
-2.12616e-09
-3.75609e-09
-4.87276e-09
-5.73311e-09
-6.4691e-09
-7.11322e-09
-7.67249e-09
-8.14882e-09
-8.54467e-09
-8.86405e-09
-9.1119e-09
-9.29357e-09
-9.41429e-09
-9.47892e-09
-9.49186e-09
-9.45704e-09
-9.37791e-09
-9.2575e-09
-9.09849e-09
-8.90322e-09
-8.67377e-09
-8.41199e-09
-8.11953e-09
-7.79788e-09
-7.44837e-09
-7.07223e-09
-6.67059e-09
-6.24446e-09
-5.79483e-09
-5.3226e-09
-4.82864e-09
-4.31375e-09
-3.77873e-09
-3.22434e-09
-2.6513e-09
-2.06033e-09
-1.45212e-09
-8.27349e-10
-1.86689e-10
4.69201e-10
1.13966e-09
1.82401e-09
2.52151e-09
3.23136e-09
3.95255e-09
4.68384e-09
5.42367e-09
6.17008e-09
6.92057e-09
7.67209e-09
8.421e-09
9.16318e-09
9.89482e-09
1.06272e-08
1.13559e-08
1.20763e-08
1.27835e-08
1.34706e-08
1.41289e-08
1.47501e-08
1.5326e-08
1.58504e-08
1.63194e-08
1.67309e-08
1.70866e-08
1.73894e-08
1.7642e-08
1.78498e-08
1.80175e-08
1.81492e-08
1.82488e-08
1.83201e-08
1.83663e-08
1.83886e-08
1.83891e-08
1.83693e-08
1.83292e-08
1.82691e-08
1.81895e-08
1.80885e-08
1.79671e-08
1.78178e-08
1.76462e-08
1.74283e-08
1.71853e-08
1.68256e-08
1.65356e-08
1.54244e-08
6.26787e-09
6.57474e-09
5.36114e-09
6.63904e-09
-6.38839e-08
-1.48681e-07
-1.58329e-07
-1.58292e-07
-1.58295e-07
-1.58296e-07
-1.58298e-07
-1.58301e-07
-1.58304e-07
-1.58306e-07
-1.58307e-07
-1.58307e-07
-1.58304e-07
-1.58297e-07
-1.58284e-07
-1.58252e-07
-1.58201e-07
-1.58188e-07
-1.58188e-07
-1.58188e-07
-1.58188e-07
-1.58188e-07
-1.58188e-07
-1.58188e-07
-1.58188e-07
-1.58188e-07
-1.58188e-07
-1.58188e-07
-1.58188e-07
-1.58188e-07
-1.58188e-07
-1.58188e-07
-1.58188e-07
-1.58188e-07
-1.58188e-07
-1.58188e-07
-1.58188e-07
-1.58188e-07
-1.58188e-07
-1.58188e-07
-1.58188e-07
-1.58188e-07
-1.58188e-07
-1.58188e-07
-1.58188e-07
-1.58188e-07
-1.58188e-07
-1.58188e-07
-1.58188e-07
-1.58188e-07
-1.58188e-07
-1.58188e-07
-1.58188e-07
-1.58188e-07
-1.58188e-07
-1.58188e-07
-1.58188e-07
-1.58188e-07
-1.58188e-07
-1.58188e-07
-1.58188e-07
-1.58188e-07
-1.58188e-07
-1.58188e-07
-1.58188e-07
-1.58188e-07
-1.58188e-07
-1.58188e-07
-1.58188e-07
-1.58188e-07
-1.58188e-07
-1.58188e-07
-1.58188e-07
-1.58188e-07
-1.58188e-07
-1.58188e-07
-1.58188e-07
-1.58188e-07
-1.58188e-07
-1.58188e-07
-1.58188e-07
-1.58188e-07
-1.58188e-07
-1.58188e-07
-1.58188e-07
-1.58188e-07
-1.58188e-07
-1.58188e-07
-1.58188e-07
-1.58188e-07
-1.58188e-07
-1.58188e-07
-1.58188e-07
-1.58188e-07
-1.58188e-07
-1.58188e-07
-1.58188e-07
-1.58188e-07
-1.58188e-07
-1.58188e-07
-1.58188e-07
-1.58188e-07
-1.58188e-07
-1.58188e-07
-1.58188e-07
-1.58188e-07
-1.58188e-07
-1.58188e-07
-1.58188e-07
-1.58188e-07
-1.58188e-07
-1.58188e-07
-1.58188e-07
-1.58188e-07
-1.58188e-07
-1.58188e-07
-1.5817e-07
-1.57464e-07
-1.32394e-07
)
;

boundaryField
{
    inandouthalf11
    {
        type            cyclic;
        value           nonuniform List<scalar> 
100
(
8.71659e-39
2.02602e-14
4.2831e-14
6.28866e-14
8.30198e-14
1.04084e-13
1.25753e-13
1.47768e-13
1.70084e-13
1.92731e-13
2.15753e-13
2.39174e-13
2.62999e-13
2.87224e-13
3.11843e-13
3.3686e-13
3.62284e-13
3.88122e-13
4.14379e-13
4.41064e-13
4.6818e-13
4.95733e-13
5.23732e-13
5.52185e-13
5.81098e-13
6.10475e-13
6.40319e-13
6.70635e-13
7.01427e-13
7.32693e-13
7.64433e-13
7.96652e-13
8.29353e-13
8.62551e-13
8.96264e-13
9.30514e-13
9.65337e-13
1.00078e-12
1.0369e-12
1.07375e-12
1.11139e-12
1.14985e-12
1.18915e-12
1.2293e-12
1.27024e-12
1.31187e-12
1.35404e-12
1.39653e-12
1.43912e-12
1.48157e-12
1.52369e-12
1.56531e-12
1.60639e-12
1.64703e-12
1.68748e-12
1.72823e-12
1.76997e-12
1.81371e-12
1.86079e-12
1.91298e-12
1.97259e-12
2.04247e-12
2.12571e-12
2.22477e-12
2.33976e-12
2.46596e-12
2.59238e-12
2.704e-12
2.78835e-12
2.84188e-12
2.87027e-12
2.88293e-12
2.88777e-12
2.88939e-12
2.88988e-12
2.89003e-12
2.89007e-12
2.89008e-12
2.89008e-12
2.89008e-12
2.89008e-12
2.89008e-12
2.89008e-12
2.89008e-12
2.89008e-12
2.89008e-12
2.89008e-12
2.89008e-12
2.89008e-12
2.89008e-12
2.89008e-12
2.89008e-12
2.89008e-12
2.89008e-12
2.89008e-12
2.89008e-12
2.89008e-12
2.89008e-12
2.89008e-12
2.89008e-12
)
;
    }
    inandouthalf12
    {
        type            cyclic;
        value           nonuniform List<scalar> 
100
(
-8.71659e-39
-2.02602e-14
-4.2831e-14
-6.28866e-14
-8.30198e-14
-1.04084e-13
-1.25753e-13
-1.47768e-13
-1.70084e-13
-1.92731e-13
-2.15753e-13
-2.39174e-13
-2.62999e-13
-2.87224e-13
-3.11843e-13
-3.3686e-13
-3.62284e-13
-3.88122e-13
-4.14379e-13
-4.41064e-13
-4.6818e-13
-4.95733e-13
-5.23732e-13
-5.52185e-13
-5.81098e-13
-6.10475e-13
-6.40319e-13
-6.70635e-13
-7.01427e-13
-7.32693e-13
-7.64433e-13
-7.96652e-13
-8.29353e-13
-8.62551e-13
-8.96264e-13
-9.30514e-13
-9.65337e-13
-1.00078e-12
-1.0369e-12
-1.07375e-12
-1.11139e-12
-1.14985e-12
-1.18915e-12
-1.2293e-12
-1.27024e-12
-1.31187e-12
-1.35404e-12
-1.39653e-12
-1.43912e-12
-1.48157e-12
-1.52369e-12
-1.56531e-12
-1.60639e-12
-1.64703e-12
-1.68748e-12
-1.72823e-12
-1.76997e-12
-1.81371e-12
-1.86079e-12
-1.91298e-12
-1.97259e-12
-2.04247e-12
-2.12571e-12
-2.22477e-12
-2.33976e-12
-2.46596e-12
-2.59238e-12
-2.704e-12
-2.78835e-12
-2.84188e-12
-2.87027e-12
-2.88293e-12
-2.88777e-12
-2.88939e-12
-2.88988e-12
-2.89003e-12
-2.89007e-12
-2.89008e-12
-2.89008e-12
-2.89008e-12
-2.89008e-12
-2.89008e-12
-2.89008e-12
-2.89008e-12
-2.89008e-12
-2.89008e-12
-2.89008e-12
-2.89008e-12
-2.89008e-12
-2.89008e-12
-2.89008e-12
-2.89008e-12
-2.89008e-12
-2.89008e-12
-2.89008e-12
-2.89008e-12
-2.89008e-12
-2.89008e-12
-2.89008e-12
-2.89008e-12
)
;
    }
    inandouthalf21
    {
        type            cyclic;
        value           nonuniform List<scalar> 
100
(
2.89008e-12
2.89008e-12
2.89008e-12
2.89008e-12
2.89008e-12
2.89008e-12
2.89008e-12
2.89008e-12
2.89008e-12
2.89008e-12
2.89008e-12
2.89008e-12
2.89008e-12
2.89008e-12
2.89008e-12
2.89008e-12
2.89008e-12
2.89008e-12
2.89008e-12
2.89008e-12
2.89008e-12
2.89008e-12
2.89008e-12
2.89008e-12
2.89008e-12
2.89008e-12
2.89008e-12
2.89008e-12
2.89008e-12
2.89008e-12
2.89008e-12
2.89009e-12
2.89009e-12
2.89009e-12
2.89009e-12
2.89009e-12
2.89009e-12
2.89009e-12
2.89009e-12
2.89009e-12
2.89009e-12
2.89009e-12
2.89009e-12
2.89009e-12
2.89009e-12
2.89009e-12
2.89009e-12
2.89009e-12
7.93362e-09
9.284e-08
1.71894e-07
2.3107e-07
2.77298e-07
3.14665e-07
3.45693e-07
3.72048e-07
3.94866e-07
4.14949e-07
4.32869e-07
4.49044e-07
4.63787e-07
4.77335e-07
4.89871e-07
5.0154e-07
5.12456e-07
5.22713e-07
5.32386e-07
5.41538e-07
5.50222e-07
5.58482e-07
5.66354e-07
5.73871e-07
5.8106e-07
5.87943e-07
5.94542e-07
6.00874e-07
6.06954e-07
6.12796e-07
6.18411e-07
6.2381e-07
6.29003e-07
6.33997e-07
6.388e-07
6.43418e-07
6.47858e-07
6.52125e-07
6.56224e-07
6.60159e-07
6.63934e-07
6.67554e-07
6.71021e-07
6.74339e-07
6.77511e-07
6.8054e-07
6.83429e-07
6.8618e-07
6.88795e-07
6.91279e-07
6.93632e-07
6.95858e-07
)
;
    }
    inandouthalf22
    {
        type            cyclic;
        value           nonuniform List<scalar> 
100
(
-2.89008e-12
-2.89008e-12
-2.89008e-12
-2.89008e-12
-2.89008e-12
-2.89008e-12
-2.89008e-12
-2.89008e-12
-2.89008e-12
-2.89008e-12
-2.89008e-12
-2.89008e-12
-2.89008e-12
-2.89008e-12
-2.89008e-12
-2.89008e-12
-2.89008e-12
-2.89008e-12
-2.89008e-12
-2.89008e-12
-2.89008e-12
-2.89008e-12
-2.89008e-12
-2.89008e-12
-2.89008e-12
-2.89008e-12
-2.89008e-12
-2.89008e-12
-2.89008e-12
-2.89008e-12
-2.89008e-12
-2.89009e-12
-2.89009e-12
-2.89009e-12
-2.89009e-12
-2.89009e-12
-2.89009e-12
-2.89009e-12
-2.89009e-12
-2.89009e-12
-2.89009e-12
-2.89009e-12
-2.89009e-12
-2.89009e-12
-2.89009e-12
-2.89009e-12
-2.89009e-12
-2.89009e-12
-7.93362e-09
-9.284e-08
-1.71894e-07
-2.3107e-07
-2.77298e-07
-3.14665e-07
-3.45693e-07
-3.72048e-07
-3.94866e-07
-4.14949e-07
-4.32869e-07
-4.49044e-07
-4.63787e-07
-4.77335e-07
-4.89871e-07
-5.0154e-07
-5.12456e-07
-5.22713e-07
-5.32386e-07
-5.41538e-07
-5.50222e-07
-5.58482e-07
-5.66354e-07
-5.73871e-07
-5.8106e-07
-5.87943e-07
-5.94542e-07
-6.00874e-07
-6.06954e-07
-6.12796e-07
-6.18411e-07
-6.2381e-07
-6.29003e-07
-6.33997e-07
-6.388e-07
-6.43418e-07
-6.47858e-07
-6.52125e-07
-6.56224e-07
-6.60159e-07
-6.63934e-07
-6.67554e-07
-6.71021e-07
-6.74339e-07
-6.77511e-07
-6.8054e-07
-6.83429e-07
-6.8618e-07
-6.88795e-07
-6.91279e-07
-6.93632e-07
-6.95858e-07
)
;
    }
    inandouthalf31
    {
        type            cyclic;
        value           nonuniform List<scalar> 
110
(
6.97962e-07
7.14169e-07
7.30661e-07
7.47437e-07
7.645e-07
7.81851e-07
7.99492e-07
8.17428e-07
8.35663e-07
8.54203e-07
8.73057e-07
8.92234e-07
9.11746e-07
9.31604e-07
9.51822e-07
9.72415e-07
9.93396e-07
1.01478e-06
1.03659e-06
1.05883e-06
1.08152e-06
1.10468e-06
1.12832e-06
1.15245e-06
1.1771e-06
1.20227e-06
1.22798e-06
1.25424e-06
1.28107e-06
1.30846e-06
1.33644e-06
1.365e-06
1.39415e-06
1.42389e-06
1.45417e-06
1.48502e-06
1.5169e-06
1.76505e-06
1.80342e-06
1.83883e-06
1.87426e-06
1.90878e-06
1.94531e-06
1.98185e-06
2.01911e-06
2.0568e-06
2.095e-06
2.13374e-06
2.17306e-06
2.213e-06
2.25363e-06
2.29502e-06
2.33724e-06
2.38042e-06
2.42472e-06
2.47034e-06
2.51835e-06
2.56896e-06
2.62107e-06
2.67427e-06
2.72855e-06
2.78394e-06
2.84044e-06
2.8981e-06
2.95692e-06
3.01694e-06
3.07817e-06
3.14065e-06
3.2044e-06
3.26944e-06
3.3358e-06
3.40351e-06
3.47259e-06
3.54307e-06
3.61499e-06
3.68836e-06
3.76323e-06
3.83961e-06
3.91754e-06
3.99706e-06
4.07819e-06
4.16097e-06
4.24542e-06
4.33159e-06
4.41951e-06
4.50922e-06
4.60074e-06
4.69412e-06
4.7894e-06
4.88661e-06
4.9858e-06
5.087e-06
5.19025e-06
5.2956e-06
5.40309e-06
5.51275e-06
5.62465e-06
5.73881e-06
5.8553e-06
5.97414e-06
6.0954e-06
6.21912e-06
6.34535e-06
6.47415e-06
6.60556e-06
6.73963e-06
6.87643e-06
7.016e-06
7.15841e-06
7.3037e-06
)
;
    }
    inandouthalf32
    {
        type            cyclic;
        value           nonuniform List<scalar> 
110
(
-6.97962e-07
-7.14169e-07
-7.30661e-07
-7.47437e-07
-7.645e-07
-7.81851e-07
-7.99492e-07
-8.17428e-07
-8.35663e-07
-8.54203e-07
-8.73057e-07
-8.92234e-07
-9.11746e-07
-9.31604e-07
-9.51822e-07
-9.72415e-07
-9.93396e-07
-1.01478e-06
-1.03659e-06
-1.05883e-06
-1.08152e-06
-1.10468e-06
-1.12832e-06
-1.15245e-06
-1.1771e-06
-1.20227e-06
-1.22798e-06
-1.25424e-06
-1.28107e-06
-1.30846e-06
-1.33644e-06
-1.365e-06
-1.39415e-06
-1.42389e-06
-1.45417e-06
-1.48502e-06
-1.5169e-06
-1.76505e-06
-1.80342e-06
-1.83883e-06
-1.87426e-06
-1.90878e-06
-1.94531e-06
-1.98185e-06
-2.01911e-06
-2.0568e-06
-2.095e-06
-2.13374e-06
-2.17306e-06
-2.213e-06
-2.25363e-06
-2.29502e-06
-2.33724e-06
-2.38042e-06
-2.42472e-06
-2.47034e-06
-2.51835e-06
-2.56896e-06
-2.62107e-06
-2.67427e-06
-2.72855e-06
-2.78394e-06
-2.84044e-06
-2.8981e-06
-2.95692e-06
-3.01694e-06
-3.07817e-06
-3.14065e-06
-3.2044e-06
-3.26944e-06
-3.3358e-06
-3.40351e-06
-3.47259e-06
-3.54307e-06
-3.61499e-06
-3.68836e-06
-3.76323e-06
-3.83961e-06
-3.91754e-06
-3.99706e-06
-4.07819e-06
-4.16097e-06
-4.24542e-06
-4.33159e-06
-4.41951e-06
-4.50922e-06
-4.60074e-06
-4.69412e-06
-4.7894e-06
-4.88661e-06
-4.9858e-06
-5.087e-06
-5.19025e-06
-5.2956e-06
-5.40309e-06
-5.51275e-06
-5.62465e-06
-5.73881e-06
-5.8553e-06
-5.97414e-06
-6.0954e-06
-6.21912e-06
-6.34535e-06
-6.47415e-06
-6.60556e-06
-6.73963e-06
-6.87643e-06
-7.016e-06
-7.15841e-06
-7.3037e-06
)
;
    }
    inandouthalf41
    {
        type            cyclic;
        value           nonuniform List<scalar> 
50
(
6.53756e-06
6.53756e-06
6.53756e-06
6.53756e-06
6.53756e-06
6.53756e-06
6.53756e-06
6.53756e-06
6.53756e-06
6.53756e-06
6.53756e-06
6.53756e-06
6.53756e-06
6.53756e-06
6.53756e-06
6.53756e-06
6.53756e-06
6.53756e-06
6.53756e-06
6.53756e-06
6.53756e-06
6.53756e-06
6.53756e-06
6.53756e-06
6.53756e-06
6.53756e-06
6.53756e-06
6.53756e-06
6.53756e-06
6.53756e-06
6.53756e-06
6.53756e-06
6.53756e-06
6.53756e-06
6.53756e-06
6.53756e-06
6.53756e-06
6.53756e-06
6.53756e-06
6.53756e-06
6.53756e-06
6.53756e-06
6.53756e-06
6.53756e-06
6.53756e-06
6.53756e-06
6.53756e-06
6.53756e-06
6.53762e-06
6.53894e-06
)
;
    }
    inandouthalf42
    {
        type            cyclic;
        value           nonuniform List<scalar> 
50
(
-6.53756e-06
-6.53756e-06
-6.53756e-06
-6.53756e-06
-6.53756e-06
-6.53756e-06
-6.53756e-06
-6.53756e-06
-6.53756e-06
-6.53756e-06
-6.53756e-06
-6.53756e-06
-6.53756e-06
-6.53756e-06
-6.53756e-06
-6.53756e-06
-6.53756e-06
-6.53756e-06
-6.53756e-06
-6.53756e-06
-6.53756e-06
-6.53756e-06
-6.53756e-06
-6.53756e-06
-6.53756e-06
-6.53756e-06
-6.53756e-06
-6.53756e-06
-6.53756e-06
-6.53756e-06
-6.53756e-06
-6.53756e-06
-6.53756e-06
-6.53756e-06
-6.53756e-06
-6.53756e-06
-6.53756e-06
-6.53756e-06
-6.53756e-06
-6.53756e-06
-6.53756e-06
-6.53756e-06
-6.53756e-06
-6.53756e-06
-6.53756e-06
-6.53756e-06
-6.53756e-06
-6.53756e-06
-6.53762e-06
-6.53894e-06
)
;
    }
    top
    {
        type            symmetryPlane;
        value           uniform 0;
    }
    walls
    {
        type            fixedValue;
        value           uniform 0;
    }
    frontAndBackPlanes
    {
        type            empty;
        value           nonuniform 0();
    }
}


// ************************************************************************* //
