/*--------------------------------*- C++ -*----------------------------------*\
| =========                 |                                                 |
| \\      /  F ield         | OpenFOAM: The Open Source CFD Toolbox           |
|  \\    /   O peration     | Version:  2.4.x                                 |
|   \\  /    A nd           | Web:      www.OpenFOAM.org                      |
|    \\/     M anipulation  |                                                 |
\*---------------------------------------------------------------------------*/
FoamFile
{
    version     2.0;
    format      ascii;
    class       volVectorField;
    location    "6.4";
    object      susb;
}
// * * * * * * * * * * * * * * * * * * * * * * * * * * * * * * * * * * * * * //

dimensions      [0 1 -2 0 0 0 0];

internalField   nonuniform List<vector> 
360
(
(0 5.34953e-18 0)
(0 6.16488e-18 0)
(0 2.49388e-19 0)
(0 -8.71177e-19 0)
(-3.69298e-31 -4.6514e-19 0)
(-7.38501e-31 -2.63803e-19 0)
(-3.69203e-31 -2.88309e-19 0)
(0 -3.1807e-19 0)
(-3.69089e-31 -3.27027e-19 0)
(0 -3.34876e-19 0)
(-3.68969e-31 -3.37652e-19 0)
(0 -3.38291e-19 0)
(-3.68847e-31 -3.39859e-19 0)
(0 -3.41747e-19 0)
(0 -3.4546e-19 0)
(0 -3.49593e-19 0)
(0 -3.52686e-19 0)
(-3.68536e-31 -3.55145e-19 0)
(0 -3.59333e-19 0)
(0 -3.61791e-19 0)
(0 -3.64451e-19 0)
(-3.68276e-31 -3.68985e-19 0)
(0 -3.7191e-19 0)
(0 -3.7542e-19 0)
(0 -3.78951e-19 0)
(-3.68007e-31 -3.81524e-19 0)
(0 -3.85673e-19 0)
(0 -3.89967e-19 0)
(0 -3.92452e-19 0)
(0 -3.95471e-19 0)
(0 -4.00546e-19 0)
(0 -4.02302e-19 0)
(0 -4.069e-19 0)
(0 -4.11558e-19 0)
(0 -4.13711e-19 0)
(3.67291e-31 -4.17904e-19 0)
(0 -4.21953e-19 0)
(0 -4.29064e-19 0)
(0 -4.30346e-19 0)
(0 -4.35743e-19 0)
(0 -4.43767e-19 0)
(0 -4.44229e-19 0)
(7.33493e-31 -4.51299e-19 0)
(0 -4.57532e-19 0)
(0 -4.60233e-19 0)
(0 -4.66434e-19 0)
(0 -4.66593e-19 0)
(0 -4.68591e-19 0)
(0 -4.76935e-19 0)
(0 -4.76181e-19 0)
(3.66078e-31 -4.75915e-19 0)
(0 -4.79368e-19 0)
(0 -4.81417e-19 0)
(0 -4.82548e-19 0)
(0 -4.88185e-19 0)
(0 -4.93861e-19 0)
(0 -5.01142e-19 0)
(0 -5.1468e-19 0)
(0 -5.25538e-19 0)
(0 -5.48723e-19 0)
(0 -5.74253e-19 0)
(0 -6.02557e-19 0)
(0 -6.36474e-19 0)
(0 -6.66089e-19 0)
(0 -6.88389e-19 0)
(0 -6.93813e-19 0)
(0 -6.76681e-19 0)
(0 -6.35951e-19 0)
(0 -5.84957e-19 0)
(0 -5.4715e-19 0)
(0 -5.28902e-19 0)
(0 -5.17675e-19 0)
(0 -5.21844e-19 0)
(0 -5.34499e-19 0)
(0 -5.46228e-19 0)
(0 -5.56796e-19 0)
(0 -5.65716e-19 0)
(0 -5.79004e-19 0)
(0 -5.92968e-19 0)
(0 -6.06325e-19 0)
(0 -6.21523e-19 0)
(0 -6.3906e-19 0)
(0 -6.55787e-19 0)
(0 -6.72395e-19 0)
(0 -6.8856e-19 0)
(0 -7.04263e-19 0)
(0 -7.19239e-19 0)
(0 -7.3352e-19 0)
(0 -7.48677e-19 0)
(0 -7.64461e-19 0)
(0 -7.80721e-19 0)
(0 -7.98167e-19 0)
(0 -8.16596e-19 0)
(0 -8.35422e-19 0)
(0 -8.54704e-19 0)
(0 -8.74354e-19 0)
(0 -8.94279e-19 0)
(0 -9.14566e-19 0)
(0 -9.35407e-19 0)
(0 -9.56889e-19 0)
(0 -9.79081e-19 0)
(0 -1.00211e-18 0)
(0 -1.026e-18 0)
(0 -1.05073e-18 0)
(0 -1.07636e-18 0)
(0 -1.10295e-18 0)
(0 -1.13056e-18 0)
(0 -1.15927e-18 0)
(0 -1.18915e-18 0)
(0 -1.22029e-18 0)
(0 -1.25274e-18 0)
(0 -1.28659e-18 0)
(0 -1.32188e-18 0)
(0 -1.3587e-18 0)
(0 -1.39713e-18 0)
(0 -1.43723e-18 0)
(0 -1.47911e-18 0)
(0 -1.52287e-18 0)
(0 -1.56862e-18 0)
(0 -1.61647e-18 0)
(0 -1.66654e-18 0)
(0 -1.71889e-18 0)
(0 -1.77363e-18 0)
(0 -1.83094e-18 0)
(0 -1.89123e-18 0)
(0 -1.95531e-18 0)
(0 -2.02431e-18 0)
(0 -2.09927e-18 0)
(0 -2.18024e-18 0)
(0 -2.26578e-18 0)
(0 -2.35478e-18 0)
(0 -2.45152e-18 0)
(0 -2.5551e-18 0)
(0 -9.57145e-18 0)
(0 -4.4953e-17 0)
(0 -2.23609e-16 0)
(0 -1.18631e-15 0)
(0 -6.96565e-15 0)
(0 -4.64171e-14 0)
(0 -3.38224e-13 0)
(0 -2.53789e-12 0)
(0 -2.30755e-11 0)
(0 -2.87065e-10 0)
(0 -4.32002e-09 0)
(0 -9.81434e-08 0)
(0 -4.65822e-06 0)
(0 -0.000105928 0)
(0 -0.0896315 0)
(0 -1.53811 0)
(0 -2.07373 0)
(0 -1.09098 0)
(0 -0.830727 0)
(0 -0.686638 0)
(0 -0.569959 0)
(0 -0.469232 0)
(0 -0.384265 0)
(0 -0.314529 0)
(0 -0.258271 0)
(0 -0.213222 0)
(0 -0.177176 0)
(0 -0.148236 0)
(0 -0.12487 0)
(0 -0.105878 0)
(0 -0.09033 0)
(0 -0.0775105 0)
(0 -0.0668666 0)
(0 -0.0579703 0)
(0 -0.050488 0)
(0 -0.0441579 0)
(0 -0.038773 0)
(0 -0.0341687 0)
(0 -0.0302128 0)
(0 -0.0267988 0)
(0 -0.0238402 0)
(0 -0.0212662 0)
(0 -0.0190186 0)
(0 -0.0170493 0)
(0 -0.0153182 0)
(0 -0.0137919 0)
(0 -0.0124423 0)
(0 -0.0112456 0)
(0 -0.0101819 0)
(0 -0.00923403 0)
(0 -0.00838741 0)
(0 -0.00762957 0)
(0 -0.00694976 0)
(0 -0.00633874 0)
(0 -0.00578851 0)
(0 -0.00529216 0)
(0 -0.00484375 0)
(0 -0.00443821 0)
(0 -0.00407117 0)
(0 -0.00373891 0)
(0 -0.00343813 0)
(0 -0.00316598 0)
(0 -0.00292004 0)
(0 -0.00269809 0)
(0 -0.00249785 0)
(0 -0.0023166 0)
(0 -0.00215004 0)
(0 -0.00199438 0)
(0 -0.00184822 0)
(-1.03268e-18 -0.00171052 0)
(0 -0.00158026 0)
(0 -0.00145985 0)
(9.91675e-19 -0.00135066 0)
(0 -0.00124709 0)
(-4.80554e-19 -0.00114438 0)
(0 -0.00104036 0)
(4.63777e-19 -0.000933652 0)
(0 -0.000825693 0)
(0 -0.000717814 0)
(0 -0.000613655 0)
(2.12584e-19 -0.000517966 0)
(0 -0.000431076 0)
(0 -0.000354041 0)
(0 -0.000288396 0)
(0 -0.000233143 0)
(0 -0.000187013 0)
(-4.43288e-20 -0.000149188 0)
(0 -0.000118955 0)
(-4.10825e-20 -9.45519e-05 0)
(0 -7.46893e-05 0)
(-1.88936e-20 -5.90058e-05 0)
(0 -4.65434e-05 0)
(0 -3.65147e-05 0)
(0 -2.86236e-05 0)
(0 -2.2377e-05 0)
(0 -1.75342e-05 0)
(3.57203e-21 -1.36256e-05 0)
(0 -1.06801e-05 0)
(0 -8.25758e-06 0)
(0 -6.54556e-06 0)
(0 -4.71462e-06 0)
(0 -4.06877e-06 0)
(0 -1.03375e-06 0)
(0 -5.97623e-08 0)
(0 -1.71799e-06 0)
(0 -1.52352e-06 0)
(0 -5.53512e-07 0)
(0 -3.19807e-07 0)
(0 -7.61772e-08 0)
(0 -3.90816e-27 0)
(-6.74457e-44 -9.80122e-29 0)
(6.28338e-44 -1.05094e-28 0)
(0 -1.32806e-28 0)
(0 -1.11647e-28 0)
(-6.07411e-45 -5.98119e-29 0)
(0 -1.96147e-29 0)
(0 -7.12015e-30 0)
(-5.26168e-46 -2.92449e-30 0)
(0 -1.31001e-30 0)
(0 -7.26976e-31 0)
(0 -5.48967e-31 0)
(0 -3.69061e-31 0)
(0 -1.2808e-31 0)
(0 -1.31428e-32 0)
(0 -3.42708e-34 0)
(0 -3.65019e-36 0)
(0 -3.88223e-38 0)
(0 -4.88213e-40 0)
(0 -5.13117e-42 0)
(0 -3.53272e-44 0)
(0 -2.3292e-46 0)
(0 -1.28276e-48 0)
(0 -1.53667e-50 0)
(1.99419e-66 -7.42703e-51 0)
(0 -3.57116e-51 0)
(0 -1.763e-51 0)
(0 -8.60788e-52 0)
(0 -4.12914e-52 0)
(0 -1.94454e-52 0)
(0 -8.9846e-53 0)
(0 -4.07023e-53 0)
(0 -1.80667e-53 0)
(0 -7.85165e-54 0)
(0 -3.33834e-54 0)
(0 -1.3875e-54 0)
(0 -5.63241e-55 0)
(0 -2.23106e-55 0)
(0 -8.61512e-56 0)
(0 -3.23957e-56 0)
(0 -1.18497e-56 0)
(0 -4.21111e-57 0)
(0 -1.4521e-57 0)
(0 -4.85187e-58 0)
(3.97633e-74 -1.56848e-58 0)
(0 -4.89781e-59 0)
(0 -1.47472e-59 0)
(0 -4.27334e-60 0)
(0 -1.1892e-60 0)
(0 -3.17075e-61 0)
(0 -8.07926e-62 0)
(0 -1.96173e-62 0)
(0 -4.52457e-63 0)
(0 -9.87678e-64 0)
(3.10181e-80 -2.03225e-64 0)
(0 -3.92306e-65 0)
(0 -7.06651e-66 0)
(-1.14076e-82 -1.18022e-66 0)
(0 -1.81397e-67 0)
(0 -2.54255e-68 0)
(0 -3.21402e-69 0)
(0 -3.61308e-70 0)
(0 -3.54696e-71 0)
(0 -2.96698e-72 0)
(0 -2.04189e-73 0)
(0 -1.0952e-74 0)
(0 -4.16294e-76 0)
(0 -9.0614e-78 0)
(0 -4.1351e-80 0)
(0 -4.60244e-84 0)
(0 -4.791e-86 0)
(0 -2.47451e-88 0)
(0 -8.14118e-99 0)
(0 -1.3273e-109 0)
(0 -1.51204e-120 0)
(0 -1.25486e-131 0)
(0 -8.59561e-143 0)
(0 -4.62347e-154 0)
(0 -2.10455e-165 0)
(0 -2.82813e-175 0)
(0 -1.12228e-185 0)
(0 -9.54327e-194 0)
(0 -3.38313e-204 0)
(0 -3.2826e-212 0)
(0 -1.34811e-222 0)
(0 -1.12934e-230 0)
(0 -5.67093e-241 0)
(0 -3.88868e-249 0)
(0 -3.57166e-259 0)
(0 -1.35608e-267 0)
(0 -2.32208e-277 0)
(0 -4.81636e-286 0)
(0 -1.14473e-295 0)
(0 -1.74045e-304 0)
(0 -5.41067e-314 0)
(0 -6.42285e-323 0)
(0 -0 0)
(0 0 0)
(0 0 0)
(0 0 0)
(0 0 0)
(0 0 0)
(0 0 0)
(0 0 0)
(0 0 0)
(0 0 0)
(0 0 0)
(0 0 0)
(0 0 0)
(0 0 0)
(0 0 0)
(0 0 0)
(0 0 0)
(0 0 0)
(0 0 0)
(0 0 0)
(0 0 0)
(0 0 0)
)
;

boundaryField
{
    inandouthalf11
    {
        type            cyclic;
    }
    inandouthalf12
    {
        type            cyclic;
    }
    inandouthalf21
    {
        type            cyclic;
    }
    inandouthalf22
    {
        type            cyclic;
    }
    inandouthalf31
    {
        type            cyclic;
    }
    inandouthalf32
    {
        type            cyclic;
    }
    inandouthalf41
    {
        type            cyclic;
    }
    inandouthalf42
    {
        type            cyclic;
    }
    top
    {
        type            symmetryPlane;
    }
    walls
    {
        type            zeroGradient;
    }
    frontAndBackPlanes
    {
        type            empty;
    }
}


// ************************************************************************* //
