/*--------------------------------*- C++ -*----------------------------------*\
| =========                 |                                                 |
| \\      /  F ield         | OpenFOAM: The Open Source CFD Toolbox           |
|  \\    /   O peration     | Version:  2.4.x                                 |
|   \\  /    A nd           | Web:      www.OpenFOAM.org                      |
|    \\/     M anipulation  |                                                 |
\*---------------------------------------------------------------------------*/
FoamFile
{
    version     2.0;
    format      ascii;
    class       volScalarField;
    location    "6.4";
    object      Theta;
}
// * * * * * * * * * * * * * * * * * * * * * * * * * * * * * * * * * * * * * //

dimensions      [0 2 -2 0 0 0 0];

internalField   nonuniform List<scalar> 
360
(
6.6647e-21
6.67257e-21
6.66928e-21
6.66824e-21
6.66874e-21
6.66918e-21
6.66934e-21
6.6694e-21
6.66946e-21
6.66956e-21
6.66968e-21
6.66981e-21
6.66993e-21
6.67005e-21
6.67016e-21
6.67028e-21
6.6704e-21
6.67052e-21
6.67064e-21
6.67076e-21
6.67089e-21
6.67101e-21
6.67114e-21
6.67127e-21
6.6714e-21
6.67153e-21
6.67166e-21
6.67179e-21
6.67191e-21
6.67203e-21
6.67215e-21
6.67226e-21
6.67238e-21
6.67251e-21
6.67264e-21
6.67278e-21
6.67295e-21
6.67316e-21
6.67339e-21
6.67364e-21
6.67393e-21
6.67424e-21
6.67454e-21
6.67482e-21
6.67504e-21
6.67517e-21
6.67517e-21
6.67502e-21
6.67473e-21
6.6743e-21
6.67378e-21
6.6732e-21
6.67266e-21
6.67224e-21
6.67201e-21
6.6721e-21
6.67263e-21
6.67379e-21
6.67588e-21
6.67939e-21
6.68508e-21
6.69395e-21
6.70687e-21
6.7233e-21
6.73906e-21
6.74549e-21
6.73483e-21
6.71007e-21
6.68481e-21
6.66937e-21
6.66329e-21
6.66168e-21
6.66139e-21
6.66134e-21
6.66134e-21
6.66134e-21
6.66134e-21
6.66134e-21
6.66133e-21
6.66133e-21
6.66133e-21
6.66133e-21
6.66133e-21
6.66133e-21
6.66133e-21
6.66133e-21
6.66133e-21
6.66132e-21
6.66132e-21
6.66132e-21
6.66132e-21
6.66132e-21
6.66132e-21
6.66132e-21
6.66132e-21
6.66131e-21
6.66131e-21
6.66131e-21
6.66131e-21
6.66131e-21
6.66131e-21
6.66131e-21
6.6613e-21
6.6613e-21
6.6613e-21
6.6613e-21
6.6613e-21
6.66129e-21
6.66129e-21
6.66129e-21
6.66129e-21
6.66129e-21
6.66128e-21
6.66128e-21
6.66128e-21
6.66128e-21
6.66127e-21
6.66127e-21
6.66127e-21
6.66127e-21
6.66126e-21
6.66126e-21
6.66126e-21
6.66126e-21
6.66125e-21
6.66125e-21
6.66125e-21
6.66124e-21
6.66124e-21
6.66123e-21
6.66123e-21
6.66124e-21
8.56312e-21
3.5082e-20
1.75183e-19
9.41281e-19
5.45232e-18
3.44438e-17
2.40846e-16
1.89443e-15
1.7027e-14
1.77729e-13
2.19839e-12
3.28492e-11
6.10401e-10
1.88924e-08
1.0671e-06
2.66383e-05
0.000394126
0.00163773
0.00249042
0.00299113
0.00336138
0.0036679
0.00393041
0.00415578
0.00434803
0.00451091
0.00464803
0.00476281
0.00485831
0.00493715
0.00500159
0.00505352
0.00509453
0.00512594
0.00514887
0.00516425
0.00517288
0.00517542
0.00517247
0.00516452
0.005152
0.00513531
0.00511479
0.00509073
0.00506343
0.00503312
0.00500005
0.00496442
0.00492644
0.00488629
0.00484415
0.00480019
0.00475456
0.00470742
0.00465891
0.00460917
0.00455832
0.0045065
0.00445382
0.00440039
0.00434632
0.00429171
0.00423666
0.00418126
0.00412559
0.00406973
0.00401375
0.0039577
0.00390165
0.00384507
0.00378743
0.00372873
0.003669
0.00360822
0.00354639
0.00348349
0.00341947
0.00335427
0.00328783
0.00322006
0.00315084
0.00308006
0.00300758
0.00293325
0.00285692
0.00277841
0.00269752
0.00261406
0.00252779
0.00243846
0.00234581
0.0022495
0.00214919
0.00204446
0.00193481
0.00181966
0.00169827
0.00156974
0.00143286
0.00128602
0.00112688
0.000951794
0.000754385
0.000520776
0
0
0
0
0
0
0
0
0
0
0
0
0
0
0
0
0
0
0
0
0
0
0
0
0
0
0
0
0
0
0
0
0
0
0
0
0
0
0
0
0
0
0
0
0
0
0
0
0
0
0
0
0
0
0
0
0
0
0
0
0
0
0
0
0
0
0
0
0
0
0
0
0
0
0
0
0
0
0
0
0
0
0
0
0
0
0
0
0
0
0
0
0
0
0
0
0
0
0
0
0
0
0
0
0
0
0
0
0
0
0
0
0
0
0
0
0
0
0
0
0
0
0
0
)
;

boundaryField
{
    inandouthalf11
    {
        type            cyclic;
    }
    inandouthalf12
    {
        type            cyclic;
    }
    inandouthalf21
    {
        type            cyclic;
    }
    inandouthalf22
    {
        type            cyclic;
    }
    inandouthalf31
    {
        type            cyclic;
    }
    inandouthalf32
    {
        type            cyclic;
    }
    inandouthalf41
    {
        type            cyclic;
    }
    inandouthalf42
    {
        type            cyclic;
    }
    top
    {
        type            symmetryPlane;
    }
    walls
    {
        type            zeroGradient;
    }
    frontAndBackPlanes
    {
        type            empty;
    }
}


// ************************************************************************* //
