/*--------------------------------*- C++ -*----------------------------------*\
| =========                 |                                                 |
| \\      /  F ield         | OpenFOAM: The Open Source CFD Toolbox           |
|  \\    /   O peration     | Version:  2.4.x                                 |
|   \\  /    A nd           | Web:      www.OpenFOAM.org                      |
|    \\/     M anipulation  |                                                 |
\*---------------------------------------------------------------------------*/
FoamFile
{
    version     2.0;
    format      ascii;
    class       volScalarField;
    location    "6.4";
    object      Theta_0;
}
// * * * * * * * * * * * * * * * * * * * * * * * * * * * * * * * * * * * * * //

dimensions      [0 2 -2 0 0 0 0];

internalField   nonuniform List<scalar> 
360
(
6.66471e-21
6.67257e-21
6.66928e-21
6.66824e-21
6.66874e-21
6.66919e-21
6.66934e-21
6.6694e-21
6.66946e-21
6.66956e-21
6.66968e-21
6.66981e-21
6.66993e-21
6.67005e-21
6.67016e-21
6.67028e-21
6.6704e-21
6.67052e-21
6.67064e-21
6.67076e-21
6.67089e-21
6.67101e-21
6.67114e-21
6.67127e-21
6.6714e-21
6.67153e-21
6.67166e-21
6.67179e-21
6.67191e-21
6.67203e-21
6.67215e-21
6.67227e-21
6.67238e-21
6.67251e-21
6.67264e-21
6.67279e-21
6.67296e-21
6.67316e-21
6.67339e-21
6.67365e-21
6.67394e-21
6.67424e-21
6.67454e-21
6.67482e-21
6.67504e-21
6.67517e-21
6.67517e-21
6.67502e-21
6.67473e-21
6.6743e-21
6.67377e-21
6.6732e-21
6.67266e-21
6.67224e-21
6.67201e-21
6.6721e-21
6.67263e-21
6.6738e-21
6.67589e-21
6.67941e-21
6.68512e-21
6.69401e-21
6.70694e-21
6.72339e-21
6.73913e-21
6.7455e-21
6.73474e-21
6.70993e-21
6.6847e-21
6.66931e-21
6.66327e-21
6.66168e-21
6.66138e-21
6.66134e-21
6.66134e-21
6.66134e-21
6.66134e-21
6.66134e-21
6.66133e-21
6.66133e-21
6.66133e-21
6.66133e-21
6.66133e-21
6.66133e-21
6.66133e-21
6.66133e-21
6.66133e-21
6.66132e-21
6.66132e-21
6.66132e-21
6.66132e-21
6.66132e-21
6.66132e-21
6.66132e-21
6.66132e-21
6.66131e-21
6.66131e-21
6.66131e-21
6.66131e-21
6.66131e-21
6.66131e-21
6.66131e-21
6.6613e-21
6.6613e-21
6.6613e-21
6.6613e-21
6.6613e-21
6.66129e-21
6.66129e-21
6.66129e-21
6.66129e-21
6.66129e-21
6.66128e-21
6.66128e-21
6.66128e-21
6.66128e-21
6.66127e-21
6.66127e-21
6.66127e-21
6.66127e-21
6.66126e-21
6.66126e-21
6.66126e-21
6.66126e-21
6.66125e-21
6.66125e-21
6.66125e-21
6.66124e-21
6.66124e-21
6.66123e-21
6.66123e-21
6.66124e-21
8.56363e-21
3.5085e-20
1.75203e-19
9.41419e-19
5.45337e-18
3.44524e-17
2.40922e-16
1.89517e-15
1.7035e-14
1.77828e-13
2.19981e-12
3.28733e-11
6.10911e-10
1.89141e-08
1.06837e-06
2.66617e-05
0.000394385
0.00163816
0.00249073
0.0029914
0.00336163
0.00366813
0.00393063
0.00415599
0.00434824
0.00451111
0.00464822
0.004763
0.00485849
0.00493733
0.00500177
0.00505369
0.00509469
0.00512609
0.00514901
0.00516438
0.005173
0.00517554
0.00517258
0.00516462
0.00515209
0.0051354
0.00511486
0.0050908
0.00506349
0.00503317
0.00500009
0.00496445
0.00492646
0.00488631
0.00484416
0.00480019
0.00475456
0.00470741
0.00465889
0.00460914
0.00455829
0.00450646
0.00445377
0.00440034
0.00434626
0.00429165
0.0042366
0.0041812
0.00412552
0.00406966
0.00401367
0.00395762
0.00390157
0.00384499
0.00378734
0.00372865
0.00366891
0.00360813
0.0035463
0.0034834
0.00341938
0.00335418
0.00328774
0.00321997
0.00315075
0.00307997
0.0030075
0.00293317
0.00285684
0.00277833
0.00269744
0.00261398
0.00252771
0.00243839
0.00234574
0.00224944
0.00214913
0.0020444
0.00193475
0.0018196
0.00169822
0.00156969
0.00143282
0.00128599
0.00112685
0.000951766
0.000754363
0.00052076
0
0
0
0
0
0
0
0
0
0
0
0
0
0
0
0
0
0
0
0
0
0
0
0
0
0
0
0
0
0
0
0
0
0
0
0
0
0
0
0
0
0
0
0
0
0
0
0
0
0
0
0
0
0
0
0
0
0
0
0
0
0
0
0
0
0
0
0
0
0
0
0
0
0
0
0
0
0
0
0
0
0
0
0
0
0
0
0
0
0
0
0
0
0
0
0
0
0
0
0
0
0
0
0
0
0
0
0
0
0
0
0
0
0
0
0
0
0
0
0
0
0
0
0
)
;

boundaryField
{
    inandouthalf11
    {
        type            cyclic;
    }
    inandouthalf12
    {
        type            cyclic;
    }
    inandouthalf21
    {
        type            cyclic;
    }
    inandouthalf22
    {
        type            cyclic;
    }
    inandouthalf31
    {
        type            cyclic;
    }
    inandouthalf32
    {
        type            cyclic;
    }
    inandouthalf41
    {
        type            cyclic;
    }
    inandouthalf42
    {
        type            cyclic;
    }
    top
    {
        type            symmetryPlane;
    }
    walls
    {
        type            zeroGradient;
    }
    frontAndBackPlanes
    {
        type            empty;
    }
}


// ************************************************************************* //
