/*--------------------------------*- C++ -*----------------------------------*\
| =========                 |                                                 |
| \\      /  F ield         | OpenFOAM: The Open Source CFD Toolbox           |
|  \\    /   O peration     | Version:  2.4.x                                 |
|   \\  /    A nd           | Web:      www.OpenFOAM.org                      |
|    \\/     M anipulation  |                                                 |
\*---------------------------------------------------------------------------*/
FoamFile
{
    version     2.0;
    format      ascii;
    class       volVectorField;
    location    "6.4";
    object      Ua;
}
// * * * * * * * * * * * * * * * * * * * * * * * * * * * * * * * * * * * * * //

dimensions      [0 1 -1 0 0 0 0];

internalField   nonuniform List<vector> 
360
(
(-8.71659e-33 -9.5497e-32 0)
(-2.02602e-08 -1.56786e-07 0)
(-4.2831e-08 -2.8644e-07 0)
(-6.28866e-08 -3.96844e-07 0)
(-8.30198e-08 -5.10254e-07 0)
(-1.04084e-07 -6.28732e-07 0)
(-1.25753e-07 -7.4902e-07 0)
(-1.47768e-07 -8.69793e-07 0)
(-1.70084e-07 -9.9097e-07 0)
(-1.92731e-07 -1.11274e-06 0)
(-2.15753e-07 -1.23535e-06 0)
(-2.39174e-07 -1.3589e-06 0)
(-2.62999e-07 -1.48339e-06 0)
(-2.87224e-07 -1.60875e-06 0)
(-3.11843e-07 -1.73492e-06 0)
(-3.3686e-07 -1.86191e-06 0)
(-3.62284e-07 -1.98973e-06 0)
(-3.88122e-07 -2.11839e-06 0)
(-4.14379e-07 -2.24791e-06 0)
(-4.41064e-07 -2.37829e-06 0)
(-4.6818e-07 -2.50952e-06 0)
(-4.95733e-07 -2.6416e-06 0)
(-5.23732e-07 -2.77455e-06 0)
(-5.52185e-07 -2.90838e-06 0)
(-5.81098e-07 -3.04308e-06 0)
(-6.10475e-07 -3.17865e-06 0)
(-6.40319e-07 -3.31506e-06 0)
(-6.70635e-07 -3.45232e-06 0)
(-7.01427e-07 -3.5904e-06 0)
(-7.32693e-07 -3.72928e-06 0)
(-7.64433e-07 -3.8689e-06 0)
(-7.96652e-07 -4.00928e-06 0)
(-8.29353e-07 -4.15038e-06 0)
(-8.62551e-07 -4.29223e-06 0)
(-8.96264e-07 -4.43489e-06 0)
(-9.30514e-07 -4.5784e-06 0)
(-9.65337e-07 -4.72288e-06 0)
(-1.00078e-06 -4.86848e-06 0)
(-1.0369e-06 -5.01543e-06 0)
(-1.07375e-06 -5.16384e-06 0)
(-1.11139e-06 -5.3139e-06 0)
(-1.14985e-06 -5.46577e-06 0)
(-1.18915e-06 -5.6194e-06 0)
(-1.2293e-06 -5.77475e-06 0)
(-1.27024e-06 -5.9316e-06 0)
(-1.31187e-06 -6.08949e-06 0)
(-1.35404e-06 -6.24781e-06 0)
(-1.39653e-06 -6.40567e-06 0)
(-1.43912e-06 -6.56219e-06 0)
(-1.48157e-06 -6.71662e-06 0)
(-1.52369e-06 -6.86814e-06 0)
(-1.56531e-06 -7.0162e-06 0)
(-1.60639e-06 -7.16066e-06 0)
(-1.64703e-06 -7.3019e-06 0)
(-1.68748e-06 -7.44084e-06 0)
(-1.72823e-06 -7.57909e-06 0)
(-1.76997e-06 -7.71904e-06 0)
(-1.81371e-06 -7.86389e-06 0)
(-1.86079e-06 -8.01794e-06 0)
(-1.91298e-06 -8.18673e-06 0)
(-1.97259e-06 -8.37745e-06 0)
(-2.04247e-06 -8.59878e-06 0)
(-2.12571e-06 -8.86005e-06 0)
(-2.22477e-06 -9.16866e-06 0)
(-2.33976e-06 -9.52455e-06 0)
(-2.46596e-06 -9.91286e-06 0)
(-2.59238e-06 -1.02995e-05 0)
(-2.704e-06 -1.06383e-05 0)
(-2.78835e-06 -1.08917e-05 0)
(-2.84188e-06 -1.10503e-05 0)
(-2.87027e-06 -1.11331e-05 0)
(-2.88293e-06 -1.11694e-05 0)
(-2.88777e-06 -1.1183e-05 0)
(-2.88939e-06 -1.11875e-05 0)
(-2.88988e-06 -1.11888e-05 0)
(-2.89003e-06 -1.11892e-05 0)
(-2.89007e-06 -1.11893e-05 0)
(-2.89008e-06 -1.11893e-05 0)
(-2.89008e-06 -1.11893e-05 0)
(-2.89008e-06 -1.11893e-05 0)
(-2.89008e-06 -1.11893e-05 0)
(-2.89008e-06 -1.11893e-05 0)
(-2.89008e-06 -1.11893e-05 0)
(-2.89008e-06 -1.11893e-05 0)
(-2.89008e-06 -1.11893e-05 0)
(-2.89008e-06 -1.11893e-05 0)
(-2.89008e-06 -1.11893e-05 0)
(-2.89008e-06 -1.11893e-05 0)
(-2.89008e-06 -1.11893e-05 0)
(-2.89008e-06 -1.11893e-05 0)
(-2.89008e-06 -1.11893e-05 0)
(-2.89008e-06 -1.11893e-05 0)
(-2.89008e-06 -1.11893e-05 0)
(-2.89008e-06 -1.11893e-05 0)
(-2.89008e-06 -1.11893e-05 0)
(-2.89008e-06 -1.11893e-05 0)
(-2.89008e-06 -1.11893e-05 0)
(-2.89008e-06 -1.11893e-05 0)
(-2.89008e-06 -1.11893e-05 0)
(-2.89008e-06 -1.11893e-05 0)
(-2.89008e-06 -1.11893e-05 0)
(-2.89008e-06 -1.11893e-05 0)
(-2.89008e-06 -1.11893e-05 0)
(-2.89008e-06 -1.11893e-05 0)
(-2.89008e-06 -1.11893e-05 0)
(-2.89008e-06 -1.11893e-05 0)
(-2.89008e-06 -1.11893e-05 0)
(-2.89008e-06 -1.11893e-05 0)
(-2.89008e-06 -1.11893e-05 0)
(-2.89008e-06 -1.11893e-05 0)
(-2.89008e-06 -1.11893e-05 0)
(-2.89008e-06 -1.11893e-05 0)
(-2.89008e-06 -1.11893e-05 0)
(-2.89008e-06 -1.11893e-05 0)
(-2.89008e-06 -1.11893e-05 0)
(-2.89008e-06 -1.11893e-05 0)
(-2.89008e-06 -1.11893e-05 0)
(-2.89008e-06 -1.11893e-05 0)
(-2.89008e-06 -1.11893e-05 0)
(-2.89008e-06 -1.11893e-05 0)
(-2.89008e-06 -1.11893e-05 0)
(-2.89008e-06 -1.11893e-05 0)
(-2.89008e-06 -1.11893e-05 0)
(-2.89008e-06 -1.11893e-05 0)
(-2.89008e-06 -1.11893e-05 0)
(-2.89008e-06 -1.11893e-05 0)
(-2.89008e-06 -1.11893e-05 0)
(-2.89008e-06 -1.11893e-05 0)
(-2.89008e-06 -1.11893e-05 0)
(-2.89008e-06 -1.11893e-05 0)
(-2.89008e-06 -1.11893e-05 0)
(-2.89009e-06 -1.11893e-05 0)
(-2.89009e-06 -1.11893e-05 0)
(-2.89009e-06 -1.11893e-05 0)
(-2.89009e-06 -1.11893e-05 0)
(-2.89009e-06 -1.11893e-05 0)
(-2.89009e-06 -1.11893e-05 0)
(-2.89009e-06 -1.11893e-05 0)
(-2.89009e-06 -1.11893e-05 0)
(-2.89009e-06 -1.11893e-05 0)
(-2.89009e-06 -1.11893e-05 0)
(-2.89009e-06 -1.11893e-05 0)
(-2.89009e-06 -1.11893e-05 0)
(-2.89009e-06 -1.11893e-05 0)
(-2.89009e-06 -1.11893e-05 0)
(-2.89009e-06 -1.11893e-05 0)
(-2.89009e-06 -1.11893e-05 0)
(-2.89009e-06 -1.11893e-05 0)
(-0.00793362 -6.59629e-05 0)
(-0.09284 -0.000829928 0)
(-0.171894 -0.00112055 0)
(-0.23107 -0.00133948 0)
(-0.277298 -0.00153272 0)
(-0.314665 -0.00170409 0)
(-0.345693 -0.0018539 0)
(-0.372048 -0.00198281 0)
(-0.394866 -0.00209139 0)
(-0.414949 -0.00218043 0)
(-0.432869 -0.00225102 0)
(-0.449044 -0.00230441 0)
(-0.463787 -0.00234193 0)
(-0.477335 -0.00236485 0)
(-0.489871 -0.00237432 0)
(-0.50154 -0.00237138 0)
(-0.512456 -0.00235696 0)
(-0.522713 -0.00233185 0)
(-0.532386 -0.00229678 0)
(-0.541538 -0.00225237 0)
(-0.550222 -0.00219917 0)
(-0.558482 -0.00213766 0)
(-0.566354 -0.00206829 0)
(-0.573871 -0.00199144 0)
(-0.58106 -0.00190747 0)
(-0.587943 -0.00181669 0)
(-0.594542 -0.00171941 0)
(-0.600874 -0.00161587 0)
(-0.606954 -0.00150635 0)
(-0.612796 -0.00139106 0)
(-0.618411 -0.00127024 0)
(-0.62381 -0.00114408 0)
(-0.629003 -0.00101279 0)
(-0.633997 -0.000876571 0)
(-0.6388 -0.000735597 0)
(-0.643418 -0.000590052 0)
(-0.647858 -0.000440111 0)
(-0.652125 -0.000285947 0)
(-0.656224 -0.000127727 0)
(-0.660159 3.43836e-05 0)
(-0.663934 0.00020022 0)
(-0.667554 0.000369615 0)
(-0.671021 0.000542398 0)
(-0.674339 0.000718376 0)
(-0.677511 0.000897327 0)
(-0.68054 0.00107898 0)
(-0.683429 0.00126298 0)
(-0.68618 0.00144891 0)
(-0.688795 0.0016362 0)
(-0.691279 0.00182416 0)
(-0.693632 0.00201194 0)
(-0.695858 0.00219856 0)
(-0.697959 0.00238302 0)
(-0.699959 0.00256628 0)
(-0.701876 0.00274919 0)
(-0.703709 0.00293064 0)
(-0.705454 0.00310947 0)
(-0.707113 0.00328419 0)
(-0.708684 0.00345284 0)
(-0.710168 0.00361322 0)
(-0.711567 0.00376322 0)
(-0.712884 0.003901 0)
(-0.714124 0.00402526 0)
(-0.715292 0.00413526 0)
(-0.716393 0.00423099 0)
(-0.717434 0.00431302 0)
(-0.718422 0.00438213 0)
(-0.719364 0.00443937 0)
(-0.720266 0.00448598 0)
(-0.721135 0.00452309 0)
(-0.721977 0.00455173 0)
(-0.722797 0.00457287 0)
(-0.7236 0.00458738 0)
(-0.72439 0.0045958 0)
(-0.725172 0.00459855 0)
(-0.725949 0.00459605 0)
(-0.726723 0.00458851 0)
(-0.727498 0.00457597 0)
(-0.728273 0.00455849 0)
(-0.72905 0.00453596 0)
(-0.729828 0.00450822 0)
(-0.730607 0.0044746 0)
(-0.731384 0.0044347 0)
(-0.732155 0.00438666 0)
(-0.732914 0.00432946 0)
(-0.733656 0.0042564 0)
(-0.734353 0.00417069 0)
(-0.735011 0.00404356 0)
(-0.735857 0.00383431 0)
(-0.839203 -0.00024371 0)
(-0.840385 0.00206835 0)
(-0.839839 0.00191726 0)
(-0.838995 -3.53841e-05 0)
(-0.837448 -0.0311596 0)
(-0.836497 -0.0395923 0)
(-0.835254 -0.0395726 0)
(-0.834029 -0.0395739 0)
(-0.832698 -0.0395739 0)
(-0.83129 -0.0395744 0)
(-0.829818 -0.039575 0)
(-0.828296 -0.0395756 0)
(-0.826741 -0.0395762 0)
(-0.825171 -0.0395766 0)
(-0.823607 -0.0395767 0)
(-0.822074 -0.0395763 0)
(-0.820605 -0.0395751 0)
(-0.819247 -0.0395726 0)
(-0.818058 -0.0395666 0)
(-0.817364 -0.0395563 0)
(-0.817204 -0.0395489 0)
(-0.817196 -0.0395471 0)
(-0.817195 -0.039547 0)
(-0.817195 -0.039547 0)
(-0.817195 -0.039547 0)
(-0.817195 -0.039547 0)
(-0.817195 -0.039547 0)
(-0.817195 -0.039547 0)
(-0.817195 -0.039547 0)
(-0.817195 -0.039547 0)
(-0.817195 -0.039547 0)
(-0.817195 -0.039547 0)
(-0.817195 -0.039547 0)
(-0.817195 -0.039547 0)
(-0.817195 -0.039547 0)
(-0.817195 -0.039547 0)
(-0.817195 -0.039547 0)
(-0.817195 -0.039547 0)
(-0.817195 -0.039547 0)
(-0.817195 -0.039547 0)
(-0.817195 -0.039547 0)
(-0.817195 -0.039547 0)
(-0.817195 -0.039547 0)
(-0.817195 -0.039547 0)
(-0.817195 -0.039547 0)
(-0.817195 -0.039547 0)
(-0.817195 -0.039547 0)
(-0.817195 -0.039547 0)
(-0.817195 -0.039547 0)
(-0.817195 -0.039547 0)
(-0.817195 -0.039547 0)
(-0.817195 -0.039547 0)
(-0.817195 -0.039547 0)
(-0.817195 -0.039547 0)
(-0.817195 -0.039547 0)
(-0.817195 -0.039547 0)
(-0.817195 -0.039547 0)
(-0.817195 -0.039547 0)
(-0.817195 -0.039547 0)
(-0.817195 -0.039547 0)
(-0.817195 -0.039547 0)
(-0.817195 -0.039547 0)
(-0.817195 -0.039547 0)
(-0.817195 -0.039547 0)
(-0.817195 -0.039547 0)
(-0.817195 -0.039547 0)
(-0.817195 -0.039547 0)
(-0.817195 -0.039547 0)
(-0.817195 -0.039547 0)
(-0.817195 -0.039547 0)
(-0.817195 -0.039547 0)
(-0.817195 -0.039547 0)
(-0.817195 -0.039547 0)
(-0.817195 -0.039547 0)
(-0.817195 -0.039547 0)
(-0.817195 -0.039547 0)
(-0.817195 -0.039547 0)
(-0.817195 -0.039547 0)
(-0.817195 -0.039547 0)
(-0.817195 -0.039547 0)
(-0.817195 -0.039547 0)
(-0.817195 -0.039547 0)
(-0.817195 -0.039547 0)
(-0.817195 -0.039547 0)
(-0.817195 -0.039547 0)
(-0.817195 -0.039547 0)
(-0.817195 -0.039547 0)
(-0.817195 -0.039547 0)
(-0.817195 -0.039547 0)
(-0.817195 -0.039547 0)
(-0.817195 -0.039547 0)
(-0.817195 -0.039547 0)
(-0.817195 -0.039547 0)
(-0.817195 -0.039547 0)
(-0.817195 -0.039547 0)
(-0.817195 -0.039547 0)
(-0.817195 -0.039547 0)
(-0.817195 -0.039547 0)
(-0.817195 -0.039547 0)
(-0.817195 -0.039547 0)
(-0.817195 -0.039547 0)
(-0.817195 -0.039547 0)
(-0.817195 -0.039547 0)
(-0.817195 -0.039547 0)
(-0.817195 -0.039547 0)
(-0.817195 -0.039547 0)
(-0.817195 -0.039547 0)
(-0.817195 -0.039547 0)
(-0.817195 -0.039547 0)
(-0.817195 -0.039547 0)
(-0.817195 -0.039547 0)
(-0.817195 -0.039547 0)
(-0.817195 -0.039547 0)
(-0.817195 -0.039547 0)
(-0.817195 -0.039547 0)
(-0.817195 -0.039547 0)
(-0.817195 -0.039547 0)
(-0.817195 -0.039547 0)
(-0.817195 -0.039547 0)
(-0.817195 -0.0395468 0)
(-0.817195 -0.0395384 0)
(-0.817202 -0.0391939 0)
(-0.817367 -0.0224944 0)
)
;

boundaryField
{
    inandouthalf11
    {
        type            cyclic;
    }
    inandouthalf12
    {
        type            cyclic;
    }
    inandouthalf21
    {
        type            cyclic;
    }
    inandouthalf22
    {
        type            cyclic;
    }
    inandouthalf31
    {
        type            cyclic;
    }
    inandouthalf32
    {
        type            cyclic;
    }
    inandouthalf41
    {
        type            cyclic;
    }
    inandouthalf42
    {
        type            cyclic;
    }
    top
    {
        type            symmetryPlane;
    }
    walls
    {
        type            fixedValue;
        value           uniform (0 0 0);
    }
    frontAndBackPlanes
    {
        type            empty;
    }
}


// ************************************************************************* //
