/*--------------------------------*- C++ -*----------------------------------*\
| =========                 |                                                 |
| \\      /  F ield         | OpenFOAM: The Open Source CFD Toolbox           |
|  \\    /   O peration     | Version:  2.4.x                                 |
|   \\  /    A nd           | Web:      www.OpenFOAM.org                      |
|    \\/     M anipulation  |                                                 |
\*---------------------------------------------------------------------------*/
FoamFile
{
    version     2.0;
    format      ascii;
    class       volVectorField;
    location    "6.4";
    object      Ub_0;
}
// * * * * * * * * * * * * * * * * * * * * * * * * * * * * * * * * * * * * * //

dimensions      [0 1 -1 0 0 0 0];

internalField   nonuniform List<vector> 
360
(
(5.55917e-05 6.45216e-08 0)
(5.53065e-05 2.3565e-07 0)
(5.52313e-05 4.38512e-07 0)
(5.5247e-05 6.24201e-07 0)
(5.5249e-05 8.05389e-07 0)
(5.52368e-05 9.90466e-07 0)
(5.52239e-05 1.17891e-06 0)
(5.52124e-05 1.36879e-06 0)
(5.52008e-05 1.55942e-06 0)
(5.51892e-05 1.75093e-06 0)
(5.51775e-05 1.94367e-06 0)
(5.51653e-05 2.13782e-06 0)
(5.51528e-05 2.33336e-06 0)
(5.514e-05 2.53024e-06 0)
(5.51268e-05 2.72837e-06 0)
(5.51134e-05 2.92775e-06 0)
(5.50998e-05 3.12839e-06 0)
(5.50858e-05 3.33032e-06 0)
(5.50715e-05 3.53353e-06 0)
(5.50569e-05 3.73805e-06 0)
(5.50419e-05 3.94386e-06 0)
(5.50266e-05 4.15096e-06 0)
(5.50111e-05 4.35938e-06 0)
(5.49951e-05 4.56911e-06 0)
(5.49789e-05 4.78017e-06 0)
(5.49623e-05 4.99253e-06 0)
(5.49453e-05 5.20616e-06 0)
(5.4928e-05 5.42106e-06 0)
(5.49104e-05 5.6372e-06 0)
(5.48923e-05 5.85452e-06 0)
(5.48739e-05 6.07296e-06 0)
(5.48553e-05 6.29253e-06 0)
(5.48361e-05 6.51317e-06 0)
(5.48168e-05 6.73496e-06 0)
(5.47969e-05 6.95795e-06 0)
(5.47767e-05 7.18224e-06 0)
(5.4756e-05 7.40799e-06 0)
(5.47349e-05 7.63545e-06 0)
(5.47134e-05 7.86495e-06 0)
(5.4691e-05 8.09665e-06 0)
(5.46683e-05 8.33087e-06 0)
(5.46448e-05 8.5678e-06 0)
(5.46205e-05 8.80736e-06 0)
(5.45959e-05 9.04951e-06 0)
(5.45704e-05 9.29381e-06 0)
(5.45444e-05 9.53959e-06 0)
(5.45182e-05 9.78589e-06 0)
(5.44914e-05 1.00314e-05 0)
(5.44648e-05 1.02747e-05 0)
(5.44387e-05 1.05147e-05 0)
(5.44126e-05 1.07501e-05 0)
(5.43873e-05 1.09802e-05 0)
(5.43624e-05 1.12048e-05 0)
(5.43383e-05 1.14245e-05 0)
(5.43142e-05 1.16408e-05 0)
(5.42903e-05 1.18563e-05 0)
(5.42653e-05 1.20746e-05 0)
(5.42389e-05 1.2301e-05 0)
(5.42094e-05 1.25421e-05 0)
(5.41753e-05 1.28068e-05 0)
(5.41349e-05 1.31063e-05 0)
(5.40848e-05 1.34537e-05 0)
(5.40226e-05 1.38625e-05 0)
(5.39456e-05 1.43421e-05 0)
(5.38537e-05 1.48895e-05 0)
(5.37513e-05 1.54795e-05 0)
(5.36486e-05 1.60618e-05 0)
(5.35599e-05 1.65724e-05 0)
(5.34968e-05 1.69605e-05 0)
(5.34628e-05 1.72116e-05 0)
(5.34531e-05 1.73488e-05 0)
(5.34585e-05 1.74116e-05 0)
(5.34714e-05 1.7435e-05 0)
(5.34881e-05 1.74415e-05 0)
(5.35061e-05 1.74415e-05 0)
(5.35251e-05 1.74394e-05 0)
(5.35443e-05 1.74367e-05 0)
(5.35641e-05 1.74337e-05 0)
(5.35843e-05 1.74306e-05 0)
(5.3605e-05 1.74274e-05 0)
(5.36262e-05 1.74241e-05 0)
(5.3648e-05 1.74207e-05 0)
(5.36704e-05 1.74173e-05 0)
(5.36934e-05 1.74137e-05 0)
(5.3717e-05 1.74101e-05 0)
(5.37412e-05 1.74064e-05 0)
(5.37659e-05 1.74026e-05 0)
(5.37911e-05 1.73987e-05 0)
(5.38169e-05 1.73948e-05 0)
(5.38432e-05 1.73907e-05 0)
(5.38701e-05 1.73866e-05 0)
(5.38976e-05 1.73824e-05 0)
(5.39258e-05 1.73781e-05 0)
(5.39546e-05 1.73736e-05 0)
(5.39841e-05 1.73691e-05 0)
(5.40143e-05 1.73645e-05 0)
(5.40453e-05 1.73598e-05 0)
(5.4077e-05 1.73549e-05 0)
(5.41094e-05 1.735e-05 0)
(5.41426e-05 1.73449e-05 0)
(5.41766e-05 1.73398e-05 0)
(5.42114e-05 1.73345e-05 0)
(5.42471e-05 1.73291e-05 0)
(5.42837e-05 1.73235e-05 0)
(5.43213e-05 1.73178e-05 0)
(5.43597e-05 1.7312e-05 0)
(5.43992e-05 1.7306e-05 0)
(5.44398e-05 1.72999e-05 0)
(5.44814e-05 1.72936e-05 0)
(5.45241e-05 1.72871e-05 0)
(5.45681e-05 1.72805e-05 0)
(5.46132e-05 1.72737e-05 0)
(5.46597e-05 1.72667e-05 0)
(5.47075e-05 1.72596e-05 0)
(5.47567e-05 1.72522e-05 0)
(5.48074e-05 1.72446e-05 0)
(5.48597e-05 1.72368e-05 0)
(5.49136e-05 1.72287e-05 0)
(5.49691e-05 1.72204e-05 0)
(5.50265e-05 1.72119e-05 0)
(5.50857e-05 1.72031e-05 0)
(5.51468e-05 1.7194e-05 0)
(5.521e-05 1.71846e-05 0)
(5.52754e-05 1.7175e-05 0)
(5.5343e-05 1.7165e-05 0)
(5.5413e-05 1.71546e-05 0)
(5.54856e-05 1.71439e-05 0)
(5.55609e-05 1.71328e-05 0)
(5.56393e-05 1.71213e-05 0)
(5.57209e-05 1.71094e-05 0)
(5.5806e-05 1.7097e-05 0)
(5.58946e-05 1.7084e-05 0)
(5.59873e-05 1.70704e-05 0)
(5.6085e-05 1.70562e-05 0)
(5.6189e-05 1.70411e-05 0)
(5.62992e-05 1.70253e-05 0)
(5.6415e-05 1.70085e-05 0)
(5.65381e-05 1.69902e-05 0)
(5.6675e-05 1.697e-05 0)
(5.68322e-05 1.69484e-05 0)
(5.70024e-05 1.69265e-05 0)
(5.71651e-05 1.68993e-05 0)
(5.73603e-05 1.68692e-05 0)
(5.76144e-05 1.68335e-05 0)
(5.79314e-05 1.6769e-05 0)
(5.85203e-05 1.65418e-05 0)
(6.03722e-05 1.84672e-05 0)
(3.89581e-05 2.66231e-06 0)
(-0.0101638 7.03389e-05 0)
(-0.10282 0.000371716 0)
(-0.179757 0.000210197 0)
(-0.236857 0.000212718 0)
(-0.281815 0.000175721 0)
(-0.318428 0.000143123 0)
(-0.349035 0.000116047 0)
(-0.375187 9.40363e-05 0)
(-0.397948 7.63359e-05 0)
(-0.418073 6.21971e-05 0)
(-0.436105 5.09145e-05 0)
(-0.452445 4.18834e-05 0)
(-0.467393 3.46172e-05 0)
(-0.481181 2.8736e-05 0)
(-0.493987 2.39467e-05 0)
(-0.505953 2.00229e-05 0)
(-0.517192 1.67898e-05 0)
(-0.527798 1.41116e-05 0)
(-0.537845 1.18821e-05 0)
(-0.547397 1.00177e-05 0)
(-0.556506 8.45223e-06 0)
(-0.565217 7.13297e-06 0)
(-0.573569 6.01751e-06 0)
(-0.581594 5.07164e-06 0)
(-0.58932 4.2675e-06 0)
(-0.596772 3.58237e-06 0)
(-0.603971 2.99752e-06 0)
(-0.610937 2.49751e-06 0)
(-0.617687 2.06951e-06 0)
(-0.624234 1.70282e-06 0)
(-0.630593 1.38848e-06 0)
(-0.636775 1.11897e-06 0)
(-0.642791 8.87934e-07 0)
(-0.648651 6.89985e-07 0)
(-0.654363 5.20555e-07 0)
(-0.659935 3.75748e-07 0)
(-0.665374 2.52237e-07 0)
(-0.670687 1.47168e-07 0)
(-0.675879 5.80921e-08 0)
(-0.680956 -1.71006e-08 0)
(-0.685922 -8.02298e-08 0)
(-0.690783 -1.32867e-07 0)
(-0.695542 -1.76371e-07 0)
(-0.700202 -2.11914e-07 0)
(-0.704768 -2.40502e-07 0)
(-0.709242 -2.62996e-07 0)
(-0.713628 -2.80131e-07 0)
(-0.717927 -2.92525e-07 0)
(-0.722143 -3.00692e-07 0)
(-0.726277 -3.0506e-07 0)
(-0.730331 -3.0599e-07 0)
(-0.734307 -3.03815e-07 0)
(-0.738207 -2.98883e-07 0)
(-0.742071 -2.91479e-07 0)
(-0.745935 -2.81762e-07 0)
(-0.749799 -2.69941e-07 0)
(-0.753659 -2.56207e-07 0)
(-0.757514 -2.40698e-07 0)
(-0.761362 -2.2356e-07 0)
(-0.765198 -2.05065e-07 0)
(-0.76902 -1.8563e-07 0)
(-0.772824 -1.65781e-07 0)
(-0.776606 -1.46099e-07 0)
(-0.780362 -1.27154e-07 0)
(-0.784086 -1.09433e-07 0)
(-0.787772 -9.32598e-08 0)
(-0.791415 -7.88022e-08 0)
(-0.795008 -6.61247e-08 0)
(-0.798542 -5.51788e-08 0)
(-0.80201 -4.58314e-08 0)
(-0.805401 -3.79247e-08 0)
(-0.808707 -3.12896e-08 0)
(-0.811914 -2.5744e-08 0)
(-0.815012 -2.11169e-08 0)
(-0.817987 -1.72715e-08 0)
(-0.820824 -1.40869e-08 0)
(-0.823509 -1.14513e-08 0)
(-0.826025 -9.27563e-09 0)
(-0.828358 -7.48608e-09 0)
(-0.83049 -6.01708e-09 0)
(-0.832409 -4.8126e-09 0)
(-0.834101 -3.82777e-09 0)
(-0.835555 -3.02472e-09 0)
(-0.836766 -2.37077e-09 0)
(-0.83773 -1.83788e-09 0)
(-0.83845 -1.40927e-09 0)
(-0.838931 -1.06557e-09 0)
(-0.839182 -8.97558e-10 0)
(-0.839216 -5.50621e-10 0)
(-0.839047 -2.02261e-10 0)
(-0.838687 -1.26962e-10 0)
(-0.838151 -4.43481e-11 0)
(-0.837454 1.30254e-11 0)
(-0.836608 3.57368e-11 0)
(-0.835627 -1.21173e-11 0)
(-0.834523 -2.99034e-12 0)
(-0.83331 -1.34196e-12 0)
(-0.832001 -1.44742e-12 0)
(-0.830609 -2.26581e-12 0)
(-0.829148 -4.7827e-12 0)
(-0.827634 1.56845e-11 0)
(-0.826082 -4.81902e-11 0)
(-0.82451 9.30627e-11 0)
(-0.822938 -1.6518e-10 0)
(-0.821392 2.53585e-10 0)
(-0.819903 -3.69945e-10 0)
(-0.818513 5.01354e-10 0)
(-0.817291 -6.55781e-10 0)
(-0.816437 8.18339e-10 0)
(-0.816218 -9.94689e-10 0)
(-0.816206 1.1721e-09 0)
(-0.816205 -1.35865e-09 0)
(-0.816205 1.54549e-09 0)
(-0.816205 -1.74103e-09 0)
(-0.816205 1.93762e-09 0)
(-0.816205 -2.14278e-09 0)
(-0.816205 2.34975e-09 0)
(-0.816205 -2.56521e-09 0)
(-0.816205 2.78315e-09 0)
(-0.816205 -3.00956e-09 0)
(-0.816205 3.23902e-09 0)
(-0.816205 -3.47699e-09 0)
(-0.816205 3.71849e-09 0)
(-0.816205 -3.96854e-09 0)
(-0.816205 4.22256e-09 0)
(-0.816205 -4.48519e-09 0)
(-0.816205 4.75218e-09 0)
(-0.816205 -5.02784e-09 0)
(-0.816205 5.30823e-09 0)
(-0.816205 -5.59731e-09 0)
(-0.816205 5.8915e-09 0)
(-0.816205 -6.19439e-09 0)
(-0.816205 6.50275e-09 0)
(-0.816205 -6.81983e-09 0)
(-0.816205 7.14269e-09 0)
(-0.816205 -7.4743e-09 0)
(-0.816205 7.812e-09 0)
(-0.816205 -8.15846e-09 0)
(-0.816205 8.51132e-09 0)
(-0.816205 -8.87289e-09 0)
(-0.816205 9.24122e-09 0)
(-0.816205 -9.61821e-09 0)
(-0.816205 1.00023e-08 0)
(-0.816205 -1.03949e-08 0)
(-0.816205 1.0795e-08 0)
(-0.816205 -1.12036e-08 0)
(-0.816205 1.16199e-08 0)
(-0.816205 -1.20446e-08 0)
(-0.816205 1.24773e-08 0)
(-0.816205 -1.29184e-08 0)
(-0.816205 1.33677e-08 0)
(-0.816205 -1.38254e-08 0)
(-0.816205 1.42914e-08 0)
(-0.816205 -1.47659e-08 0)
(-0.816205 1.52488e-08 0)
(-0.816205 -1.57401e-08 0)
(-0.816205 1.62399e-08 0)
(-0.816205 -1.67481e-08 0)
(-0.816205 1.72648e-08 0)
(-0.816205 -1.77899e-08 0)
(-0.816205 1.83235e-08 0)
(-0.816205 -1.88655e-08 0)
(-0.816205 1.70439e-08 0)
(-0.816205 -1.72079e-08 0)
(-0.816205 1.73703e-08 0)
(-0.816205 -1.75309e-08 0)
(-0.816205 1.76898e-08 0)
(-0.816205 -1.78468e-08 0)
(-0.816205 1.80022e-08 0)
(-0.816205 -1.81556e-08 0)
(-0.816205 1.83073e-08 0)
(-0.816205 -1.8457e-08 0)
(-0.816205 1.86049e-08 0)
(-0.816205 -1.87509e-08 0)
(-0.816205 1.8895e-08 0)
(-0.816205 -1.90371e-08 0)
(-0.816205 1.91773e-08 0)
(-0.816205 -1.93154e-08 0)
(-0.816205 1.94516e-08 0)
(-0.816205 -1.95856e-08 0)
(-0.816205 1.97176e-08 0)
(-0.816205 -1.98474e-08 0)
(-0.816205 1.99751e-08 0)
(-0.816205 -2.01005e-08 0)
(-0.816205 2.02239e-08 0)
(-0.816205 -2.03448e-08 0)
(-0.816205 2.04636e-08 0)
(-0.816205 -2.05798e-08 0)
(-0.816205 2.06938e-08 0)
(-0.816205 -2.08051e-08 0)
(-0.816205 2.09143e-08 0)
(-0.816205 -2.10205e-08 0)
(-0.816205 2.11244e-08 0)
(-0.816205 -2.12253e-08 0)
(-0.816205 2.13238e-08 0)
(-0.816205 -2.1419e-08 0)
(-0.816205 2.15118e-08 0)
(-0.816205 -2.16009e-08 0)
(-0.816205 2.16876e-08 0)
(-0.816205 -2.17703e-08 0)
(-0.816205 2.18504e-08 0)
(-0.816205 -2.19261e-08 0)
(-0.816205 2.19991e-08 0)
(-0.816205 -2.20669e-08 0)
(-0.816205 2.21323e-08 0)
(-0.816205 -2.21912e-08 0)
(-0.816205 2.22476e-08 0)
(-0.816205 -2.22962e-08 0)
(-0.816205 2.2342e-08 0)
(-0.816205 -2.23774e-08 0)
(-0.816205 2.24093e-08 0)
(-0.816205 -2.2426e-08 0)
)
;

boundaryField
{
    inandouthalf11
    {
        type            cyclic;
    }
    inandouthalf12
    {
        type            cyclic;
    }
    inandouthalf21
    {
        type            cyclic;
    }
    inandouthalf22
    {
        type            cyclic;
    }
    inandouthalf31
    {
        type            cyclic;
    }
    inandouthalf32
    {
        type            cyclic;
    }
    inandouthalf41
    {
        type            cyclic;
    }
    inandouthalf42
    {
        type            cyclic;
    }
    top
    {
        type            symmetryPlane;
    }
    walls
    {
        type            fixedValue;
        value           uniform (0 0 0);
    }
    frontAndBackPlanes
    {
        type            empty;
    }
}


// ************************************************************************* //
