/*--------------------------------*- C++ -*----------------------------------*\
| =========                 |                                                 |
| \\      /  F ield         | OpenFOAM: The Open Source CFD Toolbox           |
|  \\    /   O peration     | Version:  2.4.x                                 |
|   \\  /    A nd           | Web:      www.OpenFOAM.org                      |
|    \\/     M anipulation  |                                                 |
\*---------------------------------------------------------------------------*/
FoamFile
{
    version     2.0;
    format      ascii;
    class       volScalarField;
    location    "3.3";
    object      alpha_0;
}
// * * * * * * * * * * * * * * * * * * * * * * * * * * * * * * * * * * * * * //

dimensions      [0 0 0 0 0 0 0];

internalField   nonuniform List<scalar> 
360
(
0.610192
0.610534
0.610688
0.610684
0.610648
0.610611
0.610572
0.610535
0.610505
0.610477
0.610448
0.610418
0.610385
0.61035
0.610313
0.610272
0.610225
0.610174
0.610124
0.610081
0.61005
0.610031
0.610021
0.610016
0.610014
0.610012
0.61001
0.610007
0.610005
0.610002
0.61
0.609996
0.609993
0.609989
0.609985
0.60998
0.609976
0.60997
0.609964
0.609959
0.609952
0.609944
0.609937
0.609928
0.60992
0.60991
0.609899
0.609889
0.609877
0.609863
0.60985
0.609835
0.609819
0.609802
0.609784
0.609764
0.609744
0.609722
0.609699
0.609676
0.60965
0.609624
0.609597
0.609569
0.609541
0.609512
0.609482
0.609451
0.609419
0.609386
0.609351
0.609315
0.609278
0.609239
0.6092
0.60916
0.609119
0.609077
0.609034
0.608991
0.608946
0.6089
0.608853
0.608804
0.608754
0.608703
0.608651
0.608598
0.608544
0.608489
0.608432
0.608374
0.608315
0.608255
0.608193
0.608129
0.608065
0.607998
0.60793
0.607861
0.60779
0.607717
0.607643
0.607567
0.607488
0.607408
0.607326
0.607242
0.607155
0.607067
0.606976
0.606882
0.606786
0.606687
0.606585
0.60648
0.606372
0.606261
0.606147
0.606028
0.605907
0.605781
0.605651
0.605517
0.605378
0.605235
0.605086
0.604932
0.604772
0.604606
0.604434
0.604254
0.604066
0.603869
0.603659
0.603438
0.603205
0.602959
0.602686
0.602374
0.602034
0.601712
0.60133
0.600833
0.600227
0.599244
0.59625
0.596317
0.594408
0.519507
0.194175
0.0849936
0.0422977
0.0211627
0.0114787
0.00715391
0.00508837
0.00394294
0.00321143
0.00270548
0.0023333
0.00204613
0.00181638
0.0016272
0.00146778
0.0013309
0.00121155
0.00110613
0.00101202
0.000927255
0.000850343
0.000780138
0.000715757
0.000656517
0.000601892
0.00055147
0.000504925
0.000461984
0.000422401
0.000385941
0.000352358
0.000321383
0.000292722
0.000266042
0.000240974
0.000217114
0.000194038
0.000171339
0.000148717
0.000126126
0.000103964
8.31789e-05
6.50724e-05
5.06768e-05
4.00994e-05
3.25208e-05
2.69028e-05
2.25476e-05
1.90904e-05
1.63196e-05
1.40558e-05
1.21107e-05
1.04253e-05
9.0399e-06
7.89033e-06
6.81249e-06
5.8504e-06
5.11172e-06
4.46589e-06
3.83183e-06
3.30841e-06
2.88149e-06
2.47691e-06
2.12985e-06
1.84668e-06
1.57578e-06
1.34129e-06
1.16685e-06
9.95698e-07
8.36626e-07
7.17512e-07
6.10539e-07
5.14862e-07
4.36318e-07
3.62722e-07
3.03454e-07
2.56693e-07
2.10007e-07
1.73636e-07
1.44844e-07
1.16705e-07
9.60078e-08
7.77584e-08
6.25968e-08
4.92499e-08
3.76245e-08
3.09565e-08
2.93118e-08
2.90393e-08
2.75815e-08
1.62631e-08
2.12114e-09
4.19824e-14
2.67203e-14
2.43739e-14
2.02232e-14
1.71434e-14
1.14882e-14
8.34306e-15
6.83091e-15
6.17314e-15
5.61003e-15
4.69467e-15
3.2358e-15
2.05858e-15
1.61908e-15
1.41441e-15
1.2558e-15
9.9848e-16
6.24079e-16
4.04815e-16
3.23084e-16
2.80591e-16
2.33785e-16
1.56536e-16
9.18015e-17
6.85744e-17
5.7574e-17
4.81847e-17
3.31349e-17
1.81039e-17
1.22062e-17
9.28924e-18
6.0953e-18
2.26243e-18
9.03245e-19
4.14801e-19
1.96201e-19
9.3158e-20
4.44729e-20
2.13164e-20
1.01712e-20
4.78694e-21
2.20845e-21
9.94864e-22
4.36291e-22
1.85764e-22
7.66005e-23
3.05156e-23
1.17158e-23
4.324e-24
1.53007e-24
5.17624e-25
1.66898e-25
5.11137e-26
1.48119e-26
4.04378e-27
1.03495e-27
2.46892e-28
5.45285e-29
1.10604e-29
2.04033e-30
3.38157e-31
4.95736e-32
6.29647e-33
6.73109e-34
5.79924e-35
3.74482e-36
1.56353e-37
2.55893e-39
1.10474e-41
2.18906e-43
2.15051e-45
3.03637e-56
2.16448e-67
1.15893e-78
4.49703e-90
1.5675e-101
4.83001e-113
2.16109e-124
2.40579e-132
5.238e-143
8.28043e-151
1.73854e-161
2.84848e-169
7.4461e-180
9.79621e-188
3.37958e-198
3.37142e-206
2.30396e-216
1.16918e-224
1.53625e-234
4.10429e-243
7.80151e-253
1.45838e-261
3.70266e-271
5.25037e-280
1.63627e-289
1.91502e-298
7.0121e-308
7.10154e-317
5.33591e-321
6.08689e-321
8.5424e-321
0
0
0
0
0
0
0
0
0
0
0
0
0
0
0
0
)
;

boundaryField
{
    inandouthalf11
    {
        type            cyclic;
    }
    inandouthalf12
    {
        type            cyclic;
    }
    inandouthalf21
    {
        type            cyclic;
    }
    inandouthalf22
    {
        type            cyclic;
    }
    inandouthalf31
    {
        type            cyclic;
    }
    inandouthalf32
    {
        type            cyclic;
    }
    inandouthalf41
    {
        type            cyclic;
    }
    inandouthalf42
    {
        type            cyclic;
    }
    top
    {
        type            symmetryPlane;
    }
    walls
    {
        type            zeroGradient;
    }
    frontAndBackPlanes
    {
        type            empty;
    }
}


// ************************************************************************* //
