/*--------------------------------*- C++ -*----------------------------------*\
| =========                 |                                                 |
| \\      /  F ield         | OpenFOAM: The Open Source CFD Toolbox           |
|  \\    /   O peration     | Version:  2.4.x                                 |
|   \\  /    A nd           | Web:      www.OpenFOAM.org                      |
|    \\/     M anipulation  |                                                 |
\*---------------------------------------------------------------------------*/
FoamFile
{
    version     2.0;
    format      ascii;
    class       volScalarField;
    location    "3.3";
    object      ddt0(epsilon);
}
// * * * * * * * * * * * * * * * * * * * * * * * * * * * * * * * * * * * * * //

dimensions      [0 2 -4 0 0 0 0];

internalField   nonuniform List<scalar> 
360
(
0
0
0
0
0
0
0
0
0
0
0
0
0
0
0
0
0
0
0
0
0
0
0
0
0
0
0
0
0
0
0
0
0
0
0
0
0
0
0
0
0
0
0
0
0
0
0
0
0
0
0
0
0
0
0
0
0
0
0
0
0
0
0
0
0
0
0
0
0
0
0
0
0
0
0
0
0
0
0
0
0
0
0
0
0
0
0
0
0
0
0
0
0
0
0
0
0
0
0
0
0
0
0
0
0
0
0
0
0
0
0
0
0
0
0
0
0
0
0
0
0
0
0
0
0
0
0
0
3.35656e-21
-1.11586e-20
-1.96654e-19
-1.35406e-18
-6.97194e-18
-3.01123e-17
-1.13243e-16
-3.75749e-16
-1.103e-15
-2.85888e-15
-6.5237e-15
-1.30529e-14
-2.28406e-14
-3.67561e-14
-4.93429e-14
5.77902e-13
3.31187e-11
1.5115e-09
7.52232e-08
4.3371e-06
0.000300668
0.0222076
0.315256
0.384202
0.331682
0.215435
0.117895
0.06002
0.0291963
0.012297
0.00220862
-0.00442559
-0.00918877
-0.0128595
-0.01584
-0.0183486
-0.0205078
-0.0223897
-0.024038
-0.0254806
-0.0267363
-0.0278187
-0.0287382
-0.0295036
-0.0301225
-0.030602
-0.0309489
-0.0311696
-0.0312703
-0.031257
-0.0311357
-0.0309118
-0.0305909
-0.0301783
-0.0296788
-0.0290974
-0.0284385
-0.0277067
-0.0269061
-0.0260407
-0.0251144
-0.0241309
-0.0230939
-0.0220069
-0.0208734
-0.0196968
-0.0184809
-0.017229
-0.0159449
-0.0146322
-0.0132947
-0.0119365
-0.0105615
-0.00915997
-0.00772163
-0.00625079
-0.00475271
-0.00323392
-0.00170237
-0.000167834
0.00135774
0.00285975
0.00432027
0.0057173
0.00702367
0.00820568
0.00922124
0.0100172
0.010525
0.0106543
0.0102831
0.00925738
0.00739426
0.00364563
0.000417151
8.64273e-06
1.13208e-07
1.39805e-09
1.64381e-11
1.84098e-13
1.9644e-15
1.99581e-17
1.7564e-19
0
0
0
0
0
0
0
0
0
0
0
0
0
0
0
0
0
0
0
0
0
0
0
0
0
0
0
0
0
0
0
0
0
0
0
0
0
0
0
0
0
0
0
0
0
0
0
0
0
0
0
0
0
0
0
0
0
0
0
0
0
0
0
0
0
0
0
0
0
0
0
0
0
0
0
0
0
0
0
0
0
0
0
0
0
0
0
0
0
0
0
0
0
0
0
0
0
0
0
0
0
0
0
0
0
0
0
0
0
0
0
0
0
0
0
0
0
0
0
0
0
0
0
0
0
0
0
0
0
)
;

boundaryField
{
    inandouthalf11
    {
        type            cyclic;
    }
    inandouthalf12
    {
        type            cyclic;
    }
    inandouthalf21
    {
        type            cyclic;
    }
    inandouthalf22
    {
        type            cyclic;
    }
    inandouthalf31
    {
        type            cyclic;
    }
    inandouthalf32
    {
        type            cyclic;
    }
    inandouthalf41
    {
        type            cyclic;
    }
    inandouthalf42
    {
        type            cyclic;
    }
    top
    {
        type            symmetryPlane;
    }
    walls
    {
        type            calculated;
        value           uniform 0;
    }
    frontAndBackPlanes
    {
        type            empty;
    }
}


// ************************************************************************* //
