/*--------------------------------*- C++ -*----------------------------------*\
| =========                 |                                                 |
| \\      /  F ield         | OpenFOAM: The Open Source CFD Toolbox           |
|  \\    /   O peration     | Version:  2.4.x                                 |
|   \\  /    A nd           | Web:      www.OpenFOAM.org                      |
|    \\/     M anipulation  |                                                 |
\*---------------------------------------------------------------------------*/
FoamFile
{
    version     2.0;
    format      ascii;
    class       volScalarField;
    location    "3.3";
    object      ddt0(alpha);
}
// * * * * * * * * * * * * * * * * * * * * * * * * * * * * * * * * * * * * * //

dimensions      [0 0 -1 0 0 0 0];

internalField   nonuniform List<scalar> 
360
(
0.000266152
0.00059602
0.000633184
0.000574297
0.000533575
0.000525377
0.000535188
0.000545897
0.000547131
0.000541765
0.00053827
0.000544833
0.000568135
0.000611797
0.000677517
0.000760048
0.000837832
0.000866281
0.000794293
0.000613915
0.000387094
0.000200464
8.96494e-05
3.82098e-05
1.75507e-05
9.63844e-06
6.63264e-06
5.65459e-06
5.65366e-06
6.17718e-06
6.94277e-06
7.75647e-06
8.40267e-06
8.82176e-06
8.98393e-06
8.94803e-06
8.797e-06
8.60722e-06
8.46023e-06
8.33331e-06
8.26517e-06
8.26452e-06
8.28353e-06
8.34993e-06
8.4425e-06
8.54075e-06
8.65976e-06
8.77193e-06
8.89052e-06
9.05687e-06
9.22796e-06
9.41559e-06
9.61965e-06
9.85702e-06
1.01059e-05
1.04013e-05
1.07134e-05
1.10507e-05
1.141e-05
1.17505e-05
1.21035e-05
1.24228e-05
1.27106e-05
1.29491e-05
1.31463e-05
1.33147e-05
1.34895e-05
1.3702e-05
1.39781e-05
1.43222e-05
1.47647e-05
1.53113e-05
1.59004e-05
1.6535e-05
1.71688e-05
1.77825e-05
1.83295e-05
1.88039e-05
1.92182e-05
1.95951e-05
1.99495e-05
2.03134e-05
2.0708e-05
2.11375e-05
2.16001e-05
2.20796e-05
2.25604e-05
2.30194e-05
2.34413e-05
2.38211e-05
2.41597e-05
2.44629e-05
2.4743e-05
2.50099e-05
2.52703e-05
2.55274e-05
2.57808e-05
2.60274e-05
2.62629e-05
2.64835e-05
2.66855e-05
2.68655e-05
2.70212e-05
2.71497e-05
2.72482e-05
2.73142e-05
2.73458e-05
2.73423e-05
2.73045e-05
2.72352e-05
2.71395e-05
2.70251e-05
2.69022e-05
2.67838e-05
2.66858e-05
2.66263e-05
2.66253e-05
2.6704e-05
2.68835e-05
2.71831e-05
2.7618e-05
2.81972e-05
2.89201e-05
2.97746e-05
3.07356e-05
3.17653e-05
3.28142e-05
3.38212e-05
3.4712e-05
3.53971e-05
3.57811e-05
3.5787e-05
3.53925e-05
3.4641e-05
3.35602e-05
3.20021e-05
2.96596e-05
2.62856e-05
2.17684e-05
1.61539e-05
9.58731e-06
1.3707e-06
-6.23209e-06
-1.192e-05
-1.9221e-05
-0.000107601
0.000665921
0.000641621
-0.000979641
-0.454368
0.046323
0.188211
0.149591
0.088798
0.0353354
0.01073
0.00055968
-0.00292467
-0.00425704
-0.00475493
-0.0048561
-0.00476923
-0.00459047
-0.00436733
-0.00412479
-0.0038764
-0.00362968
-0.00338881
-0.00315603
-0.00293244
-0.0027185
-0.00251424
-0.00231956
-0.00213431
-0.00195845
-0.00179206
-0.00163539
-0.00148879
-0.00135265
-0.00122731
-0.00111301
-0.00100982
-0.000917599
-0.000836012
-0.000764476
-0.000702074
-0.000647372
-0.000598113
-0.000550838
-0.000500731
-0.000442416
-0.000372584
-0.000293929
-0.000216609
-0.000153045
-0.000108967
-8.09485e-05
-6.24688e-05
-4.91737e-05
-3.93298e-05
-3.24167e-05
-2.73035e-05
-2.24627e-05
-1.80642e-05
-1.54683e-05
-1.38042e-05
-1.12238e-05
-8.92095e-06
-8.06164e-06
-7.12676e-06
-5.71735e-06
-4.89665e-06
-4.33819e-06
-3.56052e-06
-3.07074e-06
-2.7541e-06
-2.18268e-06
-1.81065e-06
-1.71177e-06
-1.41988e-06
-1.13387e-06
-1.00657e-06
-8.56305e-07
-7.40422e-07
-6.41323e-07
-5.04636e-07
-4.41026e-07
-3.89932e-07
-3.01676e-07
-2.61659e-07
-2.2322e-07
-1.75919e-07
-1.50168e-07
-1.27499e-07
-1.11468e-07
-9.73364e-08
-2.36889e-08
4.1e-11
-5.01167e-09
-5.63274e-08
-1.60073e-07
-3.77572e-08
-2.27182e-13
-1.15924e-13
-1.05681e-13
-1.15767e-13
-1.36461e-13
-1.38282e-13
-7.10852e-14
-2.87761e-14
-1.76662e-14
-2.09014e-14
-3.29003e-14
-4.02549e-14
-1.79478e-14
-7.94116e-15
-4.66185e-15
-5.2123e-15
-7.76307e-15
-7.90433e-15
-2.86858e-15
-1.44449e-15
-1.01401e-15
-1.37793e-15
-1.76234e-15
-7.56308e-16
-3.42229e-16
-2.09668e-16
-2.4554e-16
-3.31396e-16
-1.71369e-16
-8.20666e-17
-5.67612e-17
-7.46399e-17
-3.97123e-17
-1.32153e-17
-5.71002e-18
-2.63651e-18
-1.21839e-18
-5.65875e-19
-2.66624e-19
-1.26592e-19
-5.97394e-20
-2.77435e-20
-1.26104e-20
-5.58875e-21
-2.40737e-21
-1.005e-21
-4.05526e-22
-1.57745e-22
-5.89964e-23
-2.11563e-23
-7.25339e-24
-2.3701e-24
-7.3557e-25
-2.15996e-25
-5.97517e-26
-1.54948e-26
-3.74507e-27
-8.38015e-28
-1.72216e-28
-3.21873e-29
-5.4053e-30
-8.0303e-31
-1.03386e-31
-1.12077e-32
-9.79861e-34
-6.42895e-35
-2.7351e-36
-4.61822e-38
-2.11684e-40
-4.25857e-42
-4.24615e-44
-5.91544e-55
-4.15517e-66
-2.19184e-77
-8.36313e-89
-2.87422e-100
-8.80891e-112
-4.04277e-123
-4.75028e-131
-1.02041e-141
-1.63491e-149
-3.39227e-160
-5.6241e-168
-1.45541e-178
-1.93417e-186
-6.60817e-197
-6.65627e-205
-4.4881e-215
-2.30785e-223
-2.98811e-233
-8.09676e-242
-1.51735e-251
-2.8746e-260
-7.20903e-270
-1.03402e-278
-3.18749e-288
-3.76696e-297
-1.36696e-306
-1.42788e-315
4.34778e-322
0
0
0
0
0
0
0
0
0
0
0
0
0
0
0
0
0
0
)
;

boundaryField
{
    inandouthalf11
    {
        type            cyclic;
    }
    inandouthalf12
    {
        type            cyclic;
    }
    inandouthalf21
    {
        type            cyclic;
    }
    inandouthalf22
    {
        type            cyclic;
    }
    inandouthalf31
    {
        type            cyclic;
    }
    inandouthalf32
    {
        type            cyclic;
    }
    inandouthalf41
    {
        type            cyclic;
    }
    inandouthalf42
    {
        type            cyclic;
    }
    top
    {
        type            symmetryPlane;
    }
    walls
    {
        type            calculated;
        value           uniform 0.000266152;
    }
    frontAndBackPlanes
    {
        type            empty;
    }
}


// ************************************************************************* //
