/*--------------------------------*- C++ -*----------------------------------*\
| =========                 |                                                 |
| \\      /  F ield         | OpenFOAM: The Open Source CFD Toolbox           |
|  \\    /   O peration     | Version:  2.4.x                                 |
|   \\  /    A nd           | Web:      www.OpenFOAM.org                      |
|    \\/     M anipulation  |                                                 |
\*---------------------------------------------------------------------------*/
FoamFile
{
    version     2.0;
    format      ascii;
    class       volScalarField;
    location    "3.3";
    object      ddt0(((1.5*(alpha+1e-08))*rho),Theta);
}
// * * * * * * * * * * * * * * * * * * * * * * * * * * * * * * * * * * * * * //

dimensions      [1 -1 -3 0 0 0 0];

internalField   nonuniform List<scalar> 
360
(
-1.60112e-19
-1.05367e-18
-1.38243e-18
-1.04061e-18
-7.57617e-19
-5.87888e-19
-4.84263e-19
-4.08159e-19
-3.45443e-19
-3.13426e-19
-3.42499e-19
-4.6153e-19
-6.98955e-19
-1.07593e-18
-1.55279e-18
-1.86513e-18
-1.30249e-18
8.74797e-19
3.65773e-18
4.30458e-18
2.57548e-18
8.80724e-19
1.94285e-19
3.32006e-20
5.42662e-21
9.4255e-22
1.02105e-22
-1.31723e-22
-2.6165e-22
-3.78753e-22
-4.83573e-22
-5.50938e-22
-5.63876e-22
-5.3073e-22
-4.76648e-22
-4.25976e-22
-3.91602e-22
-3.75324e-22
-3.73004e-22
-3.79572e-22
-3.91466e-22
-4.05622e-22
-4.20224e-22
-4.34743e-22
-4.48425e-22
-4.61109e-22
-4.73233e-22
-4.85934e-22
-5.01307e-22
-5.20052e-22
-5.41674e-22
-5.66568e-22
-5.95422e-22
-6.28627e-22
-6.66857e-22
-7.10591e-22
-7.59542e-22
-8.13236e-22
-8.70335e-22
-9.2952e-22
-9.89367e-22
-1.04678e-21
-1.09898e-21
-1.14437e-21
-1.18348e-21
-1.21992e-21
-1.25911e-21
-1.30652e-21
-1.36692e-21
-1.44551e-21
-1.5465e-21
-1.66905e-21
-1.80921e-21
-1.96292e-21
-2.12328e-21
-2.28073e-21
-2.42663e-21
-2.55742e-21
-2.67484e-21
-2.78305e-21
-2.8885e-21
-2.99911e-21
-3.12097e-21
-3.25662e-21
-3.40544e-21
-3.56379e-21
-3.72573e-21
-3.88442e-21
-4.03446e-21
-4.1731e-21
-4.30002e-21
-4.41732e-21
-4.52866e-21
-4.63768e-21
-4.74701e-21
-4.8581e-21
-4.97114e-21
-5.08533e-21
-5.19938e-21
-5.30022e-21
0
0
0
0
0
0
0
0
0
0
0
0
0
0
0
-5.96935e-21
-6.00357e-21
-6.08065e-21
-6.21736e-21
-6.43322e-21
-6.75077e-21
-7.19562e-21
-7.79607e-21
-8.58204e-21
-9.58297e-21
-1.08243e-20
-1.23217e-20
-1.39929e-20
1.48405e-17
6.49101e-18
-2.50378e-16
-2.00771e-15
-1.07402e-14
-4.67157e-14
-1.74447e-13
-5.69528e-13
-1.62937e-12
-4.06262e-12
-8.75257e-12
-1.60737e-11
-2.41124e-11
-2.64984e-11
-2.40385e-11
1.24852e-11
3.1897e-09
1.36935e-07
9.33878e-06
0.00169769
0.0791936
1.50721
2.7567
1.4559
0.759768
0.322358
0.132255
0.0567884
0.0239904
0.00728219
-0.00221287
-0.00792055
-0.0114444
-0.0136146
-0.0149012
-0.0155878
-0.015855
-0.0158224
-0.0155725
-0.0151637
-0.0146388
-0.0140296
-0.013361
-0.0126522
-0.0119191
-0.0111748
-0.0104304
-0.00969548
-0.00897799
-0.00828453
-0.00762015
-0.00698833
-0.00639092
-0.00582814
-0.00529866
-0.00479966
-0.00432703
-0.00387551
-0.0034392
-0.00301239
-0.00259115
-0.00217594
-0.00177464
-0.00140399
-0.00108558
-0.000835272
-0.000652793
-0.000522721
-0.000426797
-0.000352934
-0.000294742
-0.000248454
-0.000210947
-0.000179099
-0.00015184
-0.000129596
-0.000111271
-9.44481e-05
-7.96963e-05
-6.83769e-05
-5.86175e-05
-4.9321e-05
-4.17323e-05
-3.55927e-05
-2.99385e-05
-2.51725e-05
-2.13228e-05
-1.77619e-05
-1.47475e-05
-1.25005e-05
-1.03843e-05
-8.48767e-06
-7.07233e-06
-5.84076e-06
-4.77577e-06
-3.91898e-06
-3.15208e-06
-2.54773e-06
-2.07819e-06
-1.63909e-06
-1.30407e-06
-1.04432e-06
-8.08187e-07
-6.36373e-07
-4.92857e-07
-3.7866e-07
-2.84428e-07
-2.07996e-07
-1.60276e-07
-1.34636e-07
-1.12765e-07
-8.58665e-08
-4.13095e-08
0
0
0
0
0
0
0
0
0
0
0
0
0
0
0
0
0
0
0
0
0
0
0
0
0
0
0
0
0
0
0
0
0
0
0
0
0
0
0
0
0
0
0
0
0
0
0
0
0
0
0
0
0
0
0
0
0
0
0
0
0
0
0
0
0
0
0
0
0
0
0
0
0
0
0
0
0
0
0
0
0
0
0
0
0
0
0
0
0
0
0
0
0
0
0
0
0
0
0
0
0
0
0
0
0
0
0
0
0
0
0
0
0
0
0
0
0
0
0
)
;

boundaryField
{
    inandouthalf11
    {
        type            cyclic;
    }
    inandouthalf12
    {
        type            cyclic;
    }
    inandouthalf21
    {
        type            cyclic;
    }
    inandouthalf22
    {
        type            cyclic;
    }
    inandouthalf31
    {
        type            cyclic;
    }
    inandouthalf32
    {
        type            cyclic;
    }
    inandouthalf41
    {
        type            cyclic;
    }
    inandouthalf42
    {
        type            cyclic;
    }
    top
    {
        type            symmetryPlane;
    }
    walls
    {
        type            calculated;
        value           uniform -1.60112e-19;
    }
    frontAndBackPlanes
    {
        type            empty;
    }
}


// ************************************************************************* //
