/*--------------------------------*- C++ -*----------------------------------*\
| =========                 |                                                 |
| \\      /  F ield         | OpenFOAM: The Open Source CFD Toolbox           |
|  \\    /   O peration     | Version:  2.4.x                                 |
|   \\  /    A nd           | Web:      www.OpenFOAM.org                      |
|    \\/     M anipulation  |                                                 |
\*---------------------------------------------------------------------------*/
FoamFile
{
    version     2.0;
    format      ascii;
    class       volVectorField;
    location    "3.3";
    object      ddt0(Ua);
}
// * * * * * * * * * * * * * * * * * * * * * * * * * * * * * * * * * * * * * //

dimensions      [0 1 -2 0 0 0 0];

internalField   nonuniform List<vector> 
360
(
(-2.7763e-33 -1.56054e-32 0)
(1.12231e-07 5.67582e-07 0)
(3.35621e-07 1.57932e-06 0)
(5.53542e-07 2.49686e-06 0)
(7.25734e-07 3.21829e-06 0)
(8.55492e-07 3.77911e-06 0)
(9.53161e-07 4.22775e-06 0)
(1.02705e-06 4.5981e-06 0)
(1.08273e-06 4.90687e-06 0)
(1.12652e-06 5.1726e-06 0)
(1.16867e-06 5.43379e-06 0)
(1.22374e-06 5.75129e-06 0)
(1.30877e-06 6.20149e-06 0)
(1.43979e-06 6.86278e-06 0)
(1.624e-06 7.78512e-06 0)
(1.84263e-06 8.91936e-06 0)
(2.02182e-06 9.98107e-06 0)
(2.01279e-06 1.03208e-05 0)
(1.6529e-06 9.13045e-06 0)
(9.43137e-07 6.26296e-06 0)
(1.40769e-07 2.81125e-06 0)
(-4.59445e-07 1.69245e-07 0)
(-7.80379e-07 -1.24768e-06 0)
(-9.15102e-07 -1.83813e-06 0)
(-9.64356e-07 -2.05188e-06 0)
(-9.80778e-07 -2.12326e-06 0)
(-9.84667e-07 -2.14187e-06 0)
(-9.82908e-07 -2.1381e-06 0)
(-9.77742e-07 -2.1221e-06 0)
(-9.70037e-07 -2.09795e-06 0)
(-9.60499e-07 -2.06858e-06 0)
(-9.50019e-07 -2.03706e-06 0)
(-9.3954e-07 -2.00634e-06 0)
(-9.29765e-07 -1.97839e-06 0)
(-9.20976e-07 -1.95383e-06 0)
(-9.13075e-07 -1.93223e-06 0)
(-9.05745e-07 -1.91258e-06 0)
(-8.98619e-07 -1.89386e-06 0)
(-8.91391e-07 -1.87522e-06 0)
(-8.83858e-07 -1.85618e-06 0)
(-8.75913e-07 -1.83649e-06 0)
(-8.67521e-07 -1.81608e-06 0)
(-8.58701e-07 -1.79503e-06 0)
(-8.49494e-07 -1.77345e-06 0)
(-8.3995e-07 -1.75144e-06 0)
(-8.30118e-07 -1.72913e-06 0)
(-8.20032e-07 -1.70657e-06 0)
(-8.09709e-07 -1.68383e-06 0)
(-7.99135e-07 -1.66085e-06 0)
(-7.88275e-07 -1.63755e-06 0)
(-7.77089e-07 -1.61385e-06 0)
(-7.65538e-07 -1.58969e-06 0)
(-7.53579e-07 -1.56496e-06 0)
(-7.41166e-07 -1.53959e-06 0)
(-7.28251e-07 -1.51348e-06 0)
(-7.14786e-07 -1.48655e-06 0)
(-7.00727e-07 -1.45871e-06 0)
(-6.86039e-07 -1.4299e-06 0)
(-6.70696e-07 -1.40006e-06 0)
(-6.54691e-07 -1.36921e-06 0)
(-6.38028e-07 -1.33733e-06 0)
(-6.20729e-07 -1.30449e-06 0)
(-6.02842e-07 -1.27077e-06 0)
(-5.84427e-07 -1.2363e-06 0)
(-5.65548e-07 -1.2012e-06 0)
(-5.46245e-07 -1.16557e-06 0)
(-5.26518e-07 -1.12941e-06 0)
(-5.06321e-07 -1.09264e-06 0)
(-4.85567e-07 -1.05509e-06 0)
(-4.64137e-07 -1.01657e-06 0)
(-4.4188e-07 -9.76789e-07 0)
(-4.18641e-07 -9.35472e-07 0)
(-3.94304e-07 -8.92424e-07 0)
(-3.68793e-07 -8.47516e-07 0)
(-3.42078e-07 -8.00696e-07 0)
(-3.14192e-07 -7.52025e-07 0)
(-2.85228e-07 -7.01673e-07 0)
(-2.55312e-07 -6.49873e-07 0)
(-2.24566e-07 -5.96836e-07 0)
(-1.93084e-07 -5.42722e-07 0)
(-1.60923e-07 -4.87627e-07 0)
(-1.28089e-07 -4.3156e-07 0)
(-9.45441e-08 -3.74448e-07 0)
(-6.02249e-08 -3.16181e-07 0)
(-2.50655e-08 -2.56646e-07 0)
(1.09855e-08 -1.95757e-07 0)
(4.79498e-08 -1.33479e-07 0)
(8.58132e-08 -6.98433e-08 0)
(1.24528e-07 -4.93649e-09 0)
(1.64028e-07 6.11242e-08 0)
(2.04241e-07 1.28215e-07 0)
(2.45104e-07 1.96227e-07 0)
(2.86572e-07 2.65083e-07 0)
(3.28621e-07 3.34743e-07 0)
(3.71247e-07 4.05196e-07 0)
(4.14459e-07 4.76451e-07 0)
(4.58271e-07 5.48523e-07 0)
(5.02699e-07 6.21428e-07 0)
(5.47757e-07 6.95172e-07 0)
(5.93451e-07 7.69753e-07 0)
(6.39786e-07 8.45159e-07 0)
(6.86759e-07 9.21368e-07 0)
(7.34362e-07 9.98349e-07 0)
(7.8258e-07 1.07606e-06 0)
(8.31388e-07 1.15444e-06 0)
(8.80752e-07 1.23343e-06 0)
(9.30626e-07 1.31293e-06 0)
(9.80951e-07 1.39285e-06 0)
(1.03166e-06 1.47306e-06 0)
(1.08267e-06 1.55344e-06 0)
(1.13392e-06 1.63387e-06 0)
(1.18531e-06 1.71423e-06 0)
(1.23679e-06 1.79444e-06 0)
(1.28831e-06 1.87441e-06 0)
(1.33987e-06 1.95415e-06 0)
(1.3915e-06 2.03371e-06 0)
(1.44331e-06 2.11323e-06 0)
(1.4955e-06 2.19298e-06 0)
(1.54836e-06 2.27332e-06 0)
(1.60232e-06 2.35481e-06 0)
(1.65795e-06 2.43813e-06 0)
(1.71603e-06 2.52418e-06 0)
(1.77748e-06 2.61401e-06 0)
(1.84348e-06 2.7089e-06 0)
(1.91541e-06 2.81024e-06 0)
(1.99486e-06 2.91959e-06 0)
(2.0836e-06 3.03852e-06 0)
(2.18353e-06 3.16861e-06 0)
(2.2965e-06 3.31121e-06 0)
(2.42421e-06 3.46725e-06 0)
(2.56787e-06 3.63698e-06 0)
(2.72804e-06 3.81976e-06 0)
(2.90459e-06 4.01411e-06 0)
(3.09681e-06 4.2181e-06 0)
(3.30329e-06 4.42942e-06 0)
(3.52113e-06 4.6445e-06 0)
(3.74504e-06 4.85744e-06 0)
(3.96757e-06 5.06082e-06 0)
(4.18002e-06 5.2477e-06 0)
(4.37093e-06 5.411e-06 0)
(4.52334e-06 5.53893e-06 0)
(4.62257e-06 5.61911e-06 0)
(4.67331e-06 5.65785e-06 0)
(4.69424e-06 5.67299e-06 0)
(4.70214e-06 5.67792e-06 0)
(4.70682e-06 5.67949e-06 0)
(4.71424e-06 5.68359e-06 0)
(1.4097e-05 1.21369e-05 0)
(6.01411e-05 1.75897e-05 0)
(-0.0716201 0.000169839 0)
(-0.1783 0.00525849 0)
(-0.258842 0.0117981 0)
(-0.401117 0.0209438 0)
(-0.53326 0.0393052 0)
(-0.627108 0.0542192 0)
(-0.691489 0.0594409 0)
(-0.738208 0.05836 0)
(-0.774463 0.0544396 0)
(-0.803791 0.0500858 0)
(-0.82827 0.0457529 0)
(-0.849224 0.0415867 0)
(-0.867538 0.0376747 0)
(-0.883827 0.0340417 0)
(-0.898538 0.0306864 0)
(-0.911998 0.0275948 0)
(-0.924453 0.0247472 0)
(-0.936089 0.022122 0)
(-0.947047 0.0196978 0)
(-0.957436 0.0174549 0)
(-0.967339 0.0153755 0)
(-0.97682 0.013445 0)
(-0.985928 0.0116513 0)
(-0.9947 0.00998572 0)
(-1.00316 0.00844154 0)
(-1.01134 0.00701383 0)
(-1.01924 0.00569797 0)
(-1.02688 0.00448846 0)
(-1.03427 0.00337759 0)
(-1.0414 0.00235452 0)
(-1.04829 0.00140473 0)
(-1.05492 0.000509985 0)
(-1.06131 -0.000351329 0)
(-1.06746 -0.00120344 0)
(-1.07335 -0.00207221 0)
(-1.07899 -0.00298384 0)
(-1.08438 -0.00396313 0)
(-1.0895 -0.00503096 0)
(-1.09435 -0.00620049 0)
(-1.0989 -0.00747144 0)
(-1.10313 -0.00882133 0)
(-1.107 -0.0101955 0)
(-1.11049 -0.0115037 0)
(-1.11359 -0.012638 0)
(-1.11634 -0.0135169 0)
(-1.11885 -0.0141264 0)
(-1.12119 -0.0145167 0)
(-1.1234 -0.0147598 0)
(-1.12549 -0.0149117 0)
(-1.12746 -0.0150024 0)
(-1.12933 -0.0150476 0)
(-1.13109 -0.015061 0)
(-1.13275 -0.0150551 0)
(-1.13432 -0.015032 0)
(-1.13587 -0.0149853 0)
(-1.13738 -0.0149198 0)
(-1.13876 -0.0148517 0)
(-1.14007 -0.0147774 0)
(-1.1414 -0.0146813 0)
(-1.14269 -0.0145735 0)
(-1.14385 -0.0144698 0)
(-1.14496 -0.0143591 0)
(-1.14606 -0.0142358 0)
(-1.14707 -0.0141126 0)
(-1.14802 -0.013988 0)
(-1.14892 -0.0138579 0)
(-1.1497 -0.0137356 0)
(-1.15041 -0.0136189 0)
(-1.15113 -0.0134972 0)
(-1.1517 -0.0133905 0)
(-1.15207 -0.0133128 0)
(-1.1524 -0.0132524 0)
(-1.15265 -0.0132181 0)
(-1.15275 -0.013215 0)
(-1.1528 -0.0132243 0)
(-1.15277 -0.0132386 0)
(-1.15275 -0.0132496 0)
(-1.15275 -0.0132538 0)
(-1.15263 -0.0132657 0)
(-1.15248 -0.0132768 0)
(-1.15236 -0.0132798 0)
(-1.15212 -0.0132896 0)
(-1.15185 -0.0132971 0)
(-1.15157 -0.0132987 0)
(-1.15116 -0.0133063 0)
(-1.15053 -0.0133262 0)
(-1.14952 -0.0133866 0)
(-1.14929 -0.0133529 0)
(-1.15058 -0.0131138 0)
(-1.15244 -0.0128097 0)
(-1.15404 -0.0125441 0)
(-1.15421 -0.0124616 0)
(-1.15313 -0.0125934 0)
(-1.13601 -7.52579e-05 0)
(-1.13601 -7.52799e-05 0)
(-1.13601 -7.52801e-05 0)
(-1.136 -7.52741e-05 0)
(-1.136 -7.52779e-05 0)
(-1.136 -7.52715e-05 0)
(-1.136 -7.5276e-05 0)
(-1.136 -7.52697e-05 0)
(-1.136 -7.52748e-05 0)
(-1.136 -7.52685e-05 0)
(-1.136 -7.52741e-05 0)
(-1.136 -7.52675e-05 0)
(-1.136 -7.52737e-05 0)
(-1.136 -7.52669e-05 0)
(-1.136 -7.52734e-05 0)
(-1.136 -7.52664e-05 0)
(-1.136 -7.52734e-05 0)
(-1.136 -7.5266e-05 0)
(-1.136 -7.52734e-05 0)
(-1.136 -7.52656e-05 0)
(-1.136 -7.52734e-05 0)
(-1.136 -7.52654e-05 0)
(-1.136 -7.52736e-05 0)
(-1.136 -7.52654e-05 0)
(-1.136 -7.52727e-05 0)
(-1.136 -7.52663e-05 0)
(-1.136 -7.52725e-05 0)
(-1.136 -7.52654e-05 0)
(-1.136 -7.52732e-05 0)
(-1.136 -7.52651e-05 0)
(-1.136 -7.52733e-05 0)
(-1.136 -7.52649e-05 0)
(-1.136 -7.52735e-05 0)
(-1.136 -7.52647e-05 0)
(-1.136 -7.52737e-05 0)
(-1.136 -7.52645e-05 0)
(-1.136 -7.52739e-05 0)
(-1.136 -7.52643e-05 0)
(-1.136 -7.52741e-05 0)
(-1.136 -7.52641e-05 0)
(-1.136 -7.52742e-05 0)
(-1.136 -7.52639e-05 0)
(-1.136 -7.52744e-05 0)
(-1.136 -7.52637e-05 0)
(-1.136 -7.52746e-05 0)
(-1.136 -7.52635e-05 0)
(-1.136 -7.52748e-05 0)
(-1.136 -7.52633e-05 0)
(-1.136 -7.5275e-05 0)
(-1.136 -7.52631e-05 0)
(-1.136 -7.52752e-05 0)
(-1.136 -7.52629e-05 0)
(-1.136 -7.52753e-05 0)
(-1.136 -7.52627e-05 0)
(-1.136 -7.52755e-05 0)
(-1.136 -7.52626e-05 0)
(-1.136 -7.52757e-05 0)
(-1.136 -7.52624e-05 0)
(-1.136 -7.52758e-05 0)
(-1.136 -7.52623e-05 0)
(-1.136 -7.52759e-05 0)
(-1.136 -7.52622e-05 0)
(-1.136 -7.52761e-05 0)
(-1.136 -7.52621e-05 0)
(-1.136 -7.52762e-05 0)
(-1.136 -7.5262e-05 0)
(-1.136 -7.52762e-05 0)
(-1.136 -7.5262e-05 0)
(-1.136 -7.52756e-05 0)
(-1.136 -7.52643e-05 0)
(-1.136 -7.52739e-05 0)
(-1.136 -7.52646e-05 0)
(-1.136 -7.52735e-05 0)
(-1.136 -7.52648e-05 0)
(-1.136 -7.52733e-05 0)
(-1.136 -7.52651e-05 0)
(-1.136 -7.52731e-05 0)
(-1.136 -7.52653e-05 0)
(-1.136 -7.52729e-05 0)
(-1.136 -7.52654e-05 0)
(-1.136 -7.52728e-05 0)
(-1.136 -7.52656e-05 0)
(-1.136 -7.52726e-05 0)
(-1.136 -7.52657e-05 0)
(-1.136 -7.52725e-05 0)
(-1.136 -7.52659e-05 0)
(-1.136 -7.52725e-05 0)
(-1.136 -7.52663e-05 0)
(-1.136 -7.52726e-05 0)
(-1.136 -7.52667e-05 0)
(-1.136 -7.52728e-05 0)
(-1.136 -7.52671e-05 0)
(-1.136 -7.52729e-05 0)
(-1.136 -7.52673e-05 0)
(-1.136 -7.52729e-05 0)
(-1.136 -7.52675e-05 0)
(-1.136 -7.52729e-05 0)
(-1.136 -7.52676e-05 0)
(-1.136 -7.52725e-05 0)
(-1.136 -7.52673e-05 0)
(-1.136 -7.52719e-05 0)
(-1.136 -7.52666e-05 0)
(-1.136 -7.52711e-05 0)
(-1.136 -7.52661e-05 0)
(-1.136 -7.52703e-05 0)
(-1.136 -7.52651e-05 0)
(-1.136 -7.52688e-05 0)
(-1.136 -7.52635e-05 0)
(-1.136 -7.52667e-05 0)
(-1.136 -7.52612e-05 0)
(-1.136 -7.52637e-05 0)
(-1.136 -7.52577e-05 0)
(-1.136 -7.52599e-05 0)
(-1.136 -7.52543e-05 0)
(-1.136 -7.52597e-05 0)
(-1.13601 -7.53279e-05 0)
(-1.13602 -7.69578e-05 0)
(-1.13644 -0.00014421 0)
)
;

boundaryField
{
    inandouthalf11
    {
        type            cyclic;
    }
    inandouthalf12
    {
        type            cyclic;
    }
    inandouthalf21
    {
        type            cyclic;
    }
    inandouthalf22
    {
        type            cyclic;
    }
    inandouthalf31
    {
        type            cyclic;
    }
    inandouthalf32
    {
        type            cyclic;
    }
    inandouthalf41
    {
        type            cyclic;
    }
    inandouthalf42
    {
        type            cyclic;
    }
    top
    {
        type            symmetryPlane;
    }
    walls
    {
        type            calculated;
        value           uniform (0 0 0);
    }
    frontAndBackPlanes
    {
        type            empty;
    }
}


// ************************************************************************* //
