/*--------------------------------*- C++ -*----------------------------------*\
| =========                 |                                                 |
| \\      /  F ield         | OpenFOAM: The Open Source CFD Toolbox           |
|  \\    /   O peration     | Version:  2.4.x                                 |
|   \\  /    A nd           | Web:      www.OpenFOAM.org                      |
|    \\/     M anipulation  |                                                 |
\*---------------------------------------------------------------------------*/
FoamFile
{
    version     2.0;
    format      ascii;
    class       volVectorField;
    location    "3.3";
    object      ddt0(Ub);
}
// * * * * * * * * * * * * * * * * * * * * * * * * * * * * * * * * * * * * * //

dimensions      [0 1 -2 0 0 0 0];

internalField   nonuniform List<vector> 
360
(
(0.000152574 -1.79651e-07 0)
(0.000153177 -1.02609e-06 0)
(0.000153278 -2.43922e-06 0)
(0.000153382 -3.83031e-06 0)
(0.000153518 -4.9767e-06 0)
(0.000153679 -5.8733e-06 0)
(0.000153846 -6.58765e-06 0)
(0.000153989 -7.17312e-06 0)
(0.000154086 -7.66245e-06 0)
(0.000154154 -8.09152e-06 0)
(0.000154226 -8.52192e-06 0)
(0.000154333 -9.04599e-06 0)
(0.000154508 -9.77784e-06 0)
(0.000154772 -1.08278e-05 0)
(0.000155137 -1.22458e-05 0)
(0.000155577 -1.39016e-05 0)
(0.000155973 -1.5301e-05 0)
(0.000156085 -1.55157e-05 0)
(0.000155641 -1.36034e-05 0)
(0.00015462 -9.54595e-06 0)
(0.000153397 -4.68719e-06 0)
(0.000152444 -7.22108e-07 0)
(0.000151912 1.63939e-06 0)
(0.00015168 2.73126e-06 0)
(0.000151593 3.15387e-06 0)
(0.000151563 3.29924e-06 0)
(0.000151555 3.33967e-06 0)
(0.000151558 3.33747e-06 0)
(0.000151567 3.31387e-06 0)
(0.000151579 3.27713e-06 0)
(0.000151593 3.23229e-06 0)
(0.00015161 3.18406e-06 0)
(0.000151625 3.13666e-06 0)
(0.000151642 3.09307e-06 0)
(0.000151656 3.05434e-06 0)
(0.000151669 3.02002e-06 0)
(0.000151682 2.98872e-06 0)
(0.000151696 2.95893e-06 0)
(0.000151711 2.92941e-06 0)
(0.000151725 2.89934e-06 0)
(0.000151742 2.86834e-06 0)
(0.00015176 2.83626e-06 0)
(0.000151778 2.80318e-06 0)
(0.000151798 2.76928e-06 0)
(0.000151819 2.7347e-06 0)
(0.000151842 2.69962e-06 0)
(0.000151866 2.66416e-06 0)
(0.00015189 2.62835e-06 0)
(0.000151916 2.59216e-06 0)
(0.000151945 2.55547e-06 0)
(0.000151973 2.51814e-06 0)
(0.000152005 2.48007e-06 0)
(0.000152037 2.44113e-06 0)
(0.000152072 2.40117e-06 0)
(0.000152108 2.36005e-06 0)
(0.000152148 2.31766e-06 0)
(0.000152188 2.27383e-06 0)
(0.000152232 2.2285e-06 0)
(0.000152277 2.18158e-06 0)
(0.000152324 2.13307e-06 0)
(0.000152375 2.08299e-06 0)
(0.000152426 2.0314e-06 0)
(0.000152479 1.97847e-06 0)
(0.000152534 1.92436e-06 0)
(0.000152589 1.86927e-06 0)
(0.000152646 1.81332e-06 0)
(0.000152705 1.75651e-06 0)
(0.000152765 1.69873e-06 0)
(0.000152828 1.63972e-06 0)
(0.000152892 1.57918e-06 0)
(0.00015296 1.51671e-06 0)
(0.000153031 1.45187e-06 0)
(0.000153104 1.38438e-06 0)
(0.000153181 1.31404e-06 0)
(0.000153259 1.24078e-06 0)
(0.00015334 1.16469e-06 0)
(0.000153423 1.08602e-06 0)
(0.000153508 1.00511e-06 0)
(0.000153595 9.22276e-07 0)
(0.000153683 8.37759e-07 0)
(0.000153774 7.51707e-07 0)
(0.000153867 6.64145e-07 0)
(0.000153962 5.7497e-07 0)
(0.00015406 4.84033e-07 0)
(0.000154161 3.91174e-07 0)
(0.000154263 2.96262e-07 0)
(0.000154369 1.99255e-07 0)
(0.000154476 1.00201e-07 0)
(0.000154586 -7.78684e-10 0)
(0.000154698 -1.03505e-07 0)
(0.000154812 -2.07795e-07 0)
(0.000154928 -3.13474e-07 0)
(0.000155047 -4.20425e-07 0)
(0.000155168 -5.28585e-07 0)
(0.000155292 -6.37922e-07 0)
(0.000155417 -7.48445e-07 0)
(0.000155546 -8.60171e-07 0)
(0.000155677 -9.73119e-07 0)
(0.000155811 -1.08729e-06 0)
(0.000155947 -1.20269e-06 0)
(0.000156086 -1.31928e-06 0)
(0.000156228 -1.43703e-06 0)
(0.000156373 -1.55589e-06 0)
(0.000156521 -1.6758e-06 0)
(0.000156672 -1.79665e-06 0)
(0.000156826 -1.91832e-06 0)
(0.000156984 -2.0407e-06 0)
(0.000157144 -2.1636e-06 0)
(0.000157308 -2.28685e-06 0)
(0.000157475 -2.41025e-06 0)
(0.000157645 -2.53362e-06 0)
(0.000157819 -2.65677e-06 0)
(0.000157996 -2.77955e-06 0)
(0.000158177 -2.90186e-06 0)
(0.000158362 -3.0237e-06 0)
(0.000158551 -3.14514e-06 0)
(0.000158745 -3.26642e-06 0)
(0.000158944 -3.38792e-06 0)
(0.000159148 -3.51023e-06 0)
(0.000159358 -3.63417e-06 0)
(0.000159575 -3.76081e-06 0)
(0.000159801 -3.89149e-06 0)
(0.000160035 -4.02785e-06 0)
(0.000160281 -4.17177e-06 0)
(0.000160539 -4.3254e-06 0)
(0.00016081 -4.49104e-06 0)
(0.000161098 -4.67105e-06 0)
(0.000161405 -4.86773e-06 0)
(0.000161732 -5.083e-06 0)
(0.000162083 -5.31815e-06 0)
(0.000162458 -5.57343e-06 0)
(0.000162858 -5.8478e-06 0)
(0.000163285 -6.13902e-06 0)
(0.00016374 -6.44403e-06 0)
(0.000164226 -6.75894e-06 0)
(0.000164739 -7.07795e-06 0)
(0.000165271 -7.39231e-06 0)
(0.000165819 -7.69104e-06 0)
(0.00016639 -7.96276e-06 0)
(0.000166992 -8.19567e-06 0)
(0.000167591 -8.37543e-06 0)
(0.000168111 -8.48666e-06 0)
(0.000168666 -8.53695e-06 0)
(0.000169354 -8.548e-06 0)
(0.000170179 -8.53464e-06 0)
(0.00017135 -8.36813e-06 0)
(0.000177297 -1.19612e-05 0)
(0.0001864 -2.39376e-05 0)
(0.000123529 1.39981e-05 0)
(-0.0772538 -0.000179544 0)
(-0.178741 -0.00234191 0)
(-0.242846 -0.00136901 0)
(-0.383208 -0.0013562 0)
(-0.539515 -0.000961795 0)
(-0.670009 -0.000544356 0)
(-0.756921 -0.000361455 0)
(-0.810675 -0.000286315 0)
(-0.845067 -0.000242014 0)
(-0.868944 -0.000210569 0)
(-0.887062 -0.000186032 0)
(-0.901928 -0.000165843 0)
(-0.914871 -0.000148571 0)
(-0.926619 -0.000133424 0)
(-0.937587 -0.000119936 0)
(-0.948013 -0.000107815 0)
(-0.958038 -9.68561e-05 0)
(-0.967744 -8.69123e-05 0)
(-0.977182 -7.78695e-05 0)
(-0.986381 -6.96366e-05 0)
(-0.995361 -6.21388e-05 0)
(-1.00413 -5.53124e-05 0)
(-1.01271 -4.91028e-05 0)
(-1.02109 -4.34623e-05 0)
(-1.02929 -3.83493e-05 0)
(-1.03731 -3.37269e-05 0)
(-1.04515 -2.95621e-05 0)
(-1.05283 -2.58243e-05 0)
(-1.06034 -2.24844e-05 0)
(-1.06768 -1.9514e-05 0)
(-1.07487 -1.68846e-05 0)
(-1.08192 -1.45677e-05 0)
(-1.08881 -1.2535e-05 0)
(-1.09556 -1.07589e-05 0)
(-1.10218 -9.21307e-06 0)
(-1.10866 -7.8729e-06 0)
(-1.11501 -6.71518e-06 0)
(-1.12124 -5.7174e-06 0)
(-1.12734 -4.85594e-06 0)
(-1.13333 -4.10337e-06 0)
(-1.1392 -3.42686e-06 0)
(-1.14495 -2.79197e-06 0)
(-1.15059 -2.17582e-06 0)
(-1.15611 -1.58508e-06 0)
(-1.16152 -1.0609e-06 0)
(-1.16682 -6.54069e-07 0)
(-1.172 -3.85071e-07 0)
(-1.17707 -2.29751e-07 0)
(-1.18201 -1.43228e-07 0)
(-1.18684 -9.08411e-08 0)
(-1.19154 -5.74134e-08 0)
(-1.19612 -3.77664e-08 0)
(-1.20061 -2.57842e-08 0)
(-1.20506 -1.51284e-08 0)
(-1.20944 -6.19638e-09 0)
(-1.21374 -3.316e-09 0)
(-1.21795 -3.81487e-09 0)
(-1.22204 -1.48412e-09 0)
(-1.22598 1.63912e-09 0)
(-1.22976 9.43061e-10 0)
(-1.23332 -8.52302e-10 0)
(-1.23662 -6.75417e-10 0)
(-1.23961 -5.48362e-10 0)
(-1.2422 -1.31849e-09 0)
(-1.24432 -1.75971e-09 0)
(-1.24582 -2.27753e-09 0)
(-1.24654 -2.94685e-09 0)
(-1.24624 -2.85617e-09 0)
(-1.24457 -2.77027e-09 0)
(-1.24097 -3.3462e-09 0)
(-1.23461 -3.43428e-09 0)
(-1.22363 -6.50747e-09 0)
(-1.19511 1.7905e-09 0)
(-1.14356 -9.78017e-09 0)
(-1.13348 1.74489e-09 0)
(-1.1332 -9.02482e-09 0)
(-1.13319 1.0753e-09 0)
(-1.13319 -8.14243e-09 0)
(-1.13318 7.54689e-10 0)
(-1.13318 -8.08733e-09 0)
(-1.13318 1.38079e-09 0)
(-1.13318 -8.43767e-09 0)
(-1.13317 2.07349e-09 0)
(-1.13317 -8.69586e-09 0)
(-1.13317 2.77401e-09 0)
(-1.13317 -9.20113e-09 0)
(-1.13317 3.54427e-09 0)
(-1.13317 -9.1245e-09 0)
(-1.13317 5.0536e-09 0)
(-1.13317 -9.24048e-09 0)
(-1.13317 5.12681e-09 0)
(-1.13317 -1.16841e-08 0)
(-1.13316 6.35656e-09 0)
(-1.13317 -1.18292e-08 0)
(-1.13317 8.29134e-09 0)
(-1.13317 -1.23432e-08 0)
(-1.13316 9.14257e-09 0)
(-1.13316 -1.28914e-08 0)
(-1.13316 1.0008e-08 0)
(-1.13316 -1.34652e-08 0)
(-1.13316 1.0896e-08 0)
(-1.13316 -1.40656e-08 0)
(-1.13316 1.17989e-08 0)
(-1.13316 -1.46896e-08 0)
(-1.13316 1.27146e-08 0)
(-1.13316 -1.53458e-08 0)
(-1.13316 1.36302e-08 0)
(-1.13316 -1.60339e-08 0)
(-1.13316 1.45497e-08 0)
(-1.13316 -1.67492e-08 0)
(-1.13316 1.5472e-08 0)
(-1.13316 -1.74964e-08 0)
(-1.13316 1.63842e-08 0)
(-1.13316 -1.82766e-08 0)
(-1.13316 1.73125e-08 0)
(-1.13316 -1.90428e-08 0)
(-1.13316 1.82652e-08 0)
(-1.13316 -1.98084e-08 0)
(-1.13316 1.9252e-08 0)
(-1.13316 -2.05781e-08 0)
(-1.13316 2.0218e-08 0)
(-1.13316 -2.13881e-08 0)
(-1.13316 2.11816e-08 0)
(-1.13316 -2.22049e-08 0)
(-1.13316 2.21238e-08 0)
(-1.13316 -2.30473e-08 0)
(-1.13316 2.30727e-08 0)
(-1.13316 -2.38924e-08 0)
(-1.13316 2.39918e-08 0)
(-1.13316 -2.47637e-08 0)
(-1.13316 2.49122e-08 0)
(-1.13316 -2.56193e-08 0)
(-1.13316 2.58106e-08 0)
(-1.13316 -2.64803e-08 0)
(-1.13316 2.672e-08 0)
(-1.13316 -2.73189e-08 0)
(-1.13316 2.76016e-08 0)
(-1.13316 -2.81603e-08 0)
(-1.13316 2.84723e-08 0)
(-1.13316 -2.89753e-08 0)
(-1.13316 2.93152e-08 0)
(-1.13316 -2.97785e-08 0)
(-1.13316 3.01373e-08 0)
(-1.13316 -3.05525e-08 0)
(-1.13316 3.09042e-08 0)
(-1.13316 -3.13236e-08 0)
(-1.13316 3.16268e-08 0)
(-1.13316 -3.20351e-08 0)
(-1.13316 3.2317e-08 0)
(-1.13316 -3.26819e-08 0)
(-1.13316 3.29559e-08 0)
(-1.13316 -3.32782e-08 0)
(-1.13316 3.34982e-08 0)
(-1.13316 -3.38182e-08 0)
(-1.13316 3.3952e-08 0)
(-1.13316 -3.4273e-08 0)
(-1.13316 3.43047e-08 0)
(-1.13316 -3.4602e-08 0)
(-1.13316 3.44816e-08 0)
(-1.13316 -3.46522e-08 0)
(-1.13316 3.41442e-08 0)
(-1.13316 -2.93798e-08 0)
(-1.13316 2.5731e-08 0)
(-1.13316 -2.39875e-08 0)
(-1.13316 2.26188e-08 0)
(-1.13316 -2.22479e-08 0)
(-1.13316 2.12388e-08 0)
(-1.13316 -2.1115e-08 0)
(-1.13316 2.01689e-08 0)
(-1.13316 -2.01443e-08 0)
(-1.13316 1.92468e-08 0)
(-1.13316 -1.92698e-08 0)
(-1.13316 1.83875e-08 0)
(-1.13316 -1.84909e-08 0)
(-1.13316 1.76263e-08 0)
(-1.13316 -1.77372e-08 0)
(-1.13316 1.69289e-08 0)
(-1.13316 -1.70646e-08 0)
(-1.13316 1.61698e-08 0)
(-1.13316 -1.67549e-08 0)
(-1.13316 1.48319e-08 0)
(-1.13316 -1.70399e-08 0)
(-1.13316 1.33587e-08 0)
(-1.13316 -1.72991e-08 0)
(-1.13316 1.20365e-08 0)
(-1.13316 -1.73257e-08 0)
(-1.13316 1.11714e-08 0)
(-1.13316 -1.71408e-08 0)
(-1.13316 1.01591e-08 0)
(-1.13316 -1.70075e-08 0)
(-1.13316 9.80226e-09 0)
(-1.13316 -1.60311e-08 0)
(-1.13316 1.01407e-08 0)
(-1.13316 -1.42867e-08 0)
(-1.13316 1.16372e-08 0)
(-1.13316 -1.19234e-08 0)
(-1.13316 1.27883e-08 0)
(-1.13316 -9.72602e-09 0)
(-1.13316 1.52119e-08 0)
(-1.13316 -5.73299e-09 0)
(-1.13316 1.90083e-08 0)
(-1.13316 -3.37668e-10 0)
(-1.13316 2.49245e-08 0)
(-1.13316 7.702e-09 0)
(-1.13316 3.3831e-08 0)
(-1.13316 1.76635e-08 0)
(-1.13316 4.29441e-08 0)
(-1.13316 2.77728e-08 0)
(-1.13316 5.31784e-08 0)
(-1.13316 3.60517e-08 0)
(-1.13316 3.37601e-08 0)
)
;

boundaryField
{
    inandouthalf11
    {
        type            cyclic;
    }
    inandouthalf12
    {
        type            cyclic;
    }
    inandouthalf21
    {
        type            cyclic;
    }
    inandouthalf22
    {
        type            cyclic;
    }
    inandouthalf31
    {
        type            cyclic;
    }
    inandouthalf32
    {
        type            cyclic;
    }
    inandouthalf41
    {
        type            cyclic;
    }
    inandouthalf42
    {
        type            cyclic;
    }
    top
    {
        type            symmetryPlane;
    }
    walls
    {
        type            calculated;
        value           uniform (0 0 0);
    }
    frontAndBackPlanes
    {
        type            empty;
    }
}


// ************************************************************************* //
