/*--------------------------------*- C++ -*----------------------------------*\
| =========                 |                                                 |
| \\      /  F ield         | OpenFOAM: The Open Source CFD Toolbox           |
|  \\    /   O peration     | Version:  2.4.x                                 |
|   \\  /    A nd           | Web:      www.OpenFOAM.org                      |
|    \\/     M anipulation  |                                                 |
\*---------------------------------------------------------------------------*/
FoamFile
{
    version     2.0;
    format      ascii;
    class       volTensorField;
    location    "3.3";
    object      Tauf;
}
// * * * * * * * * * * * * * * * * * * * * * * * * * * * * * * * * * * * * * //

dimensions      [0 2 -2 0 0 0 0];

internalField   nonuniform List<tensor> 
360
(
(0 -4.82155e-07 0 -4.82155e-07 1.71721e-09 0 0 0 0)
(0 3.64612e-10 0 3.64612e-10 2.71957e-09 0 0 0 0)
(0 3.38257e-11 0 3.38257e-11 3.16386e-09 0 0 0 0)
(0 -3.31125e-10 0 -3.31125e-10 2.97177e-09 0 0 0 0)
(5.16988e-23 -3.80772e-10 0 -3.80772e-10 2.77959e-09 0 0 0 0)
(0 -3.81165e-10 0 -3.81165e-10 2.71867e-09 0 0 0 0)
(5.16988e-23 -3.82739e-10 0 -3.82739e-10 2.74724e-09 0 0 0 0)
(0 -3.65969e-10 0 -3.65969e-10 2.78865e-09 0 0 0 0)
(5.16988e-23 -3.46349e-10 0 -3.46349e-10 2.79835e-09 0 0 0 0)
(0 -3.40461e-10 0 -3.40461e-10 2.78138e-09 0 0 0 0)
(5.16988e-23 -3.43599e-10 0 -3.43599e-10 2.77339e-09 0 0 0 0)
(0 -3.53543e-10 0 -3.53543e-10 2.81481e-09 0 0 0 0)
(5.16988e-23 -3.69941e-10 0 -3.69941e-10 2.93791e-09 0 0 0 0)
(0 -3.94705e-10 0 -3.94705e-10 3.16272e-09 0 0 0 0)
(0 -4.32642e-10 0 -4.32642e-10 3.49184e-09 0 0 0 0)
(0 -4.80687e-10 0 -4.80687e-10 3.88678e-09 0 0 0 0)
(0 -5.24074e-10 0 -5.24074e-10 4.22901e-09 0 0 0 0)
(5.16988e-23 -5.35415e-10 0 -5.35415e-10 4.31165e-09 0 0 0 0)
(0 -4.88559e-10 0 -4.88559e-10 3.93581e-09 0 0 0 0)
(0 -3.78198e-10 0 -3.78198e-10 3.09215e-09 0 0 0 0)
(0 -2.43017e-10 0 -2.43017e-10 2.03946e-09 0 0 0 0)
(5.16988e-23 -1.32327e-10 0 -1.32327e-10 1.12671e-09 0 0 0 0)
(0 -6.35954e-11 0 -6.35954e-11 5.36299e-10 0 0 0 0)
(0 -3.05363e-11 0 -3.05363e-11 2.35398e-10 0 0 0 0)
(0 -1.68959e-11 0 -1.68959e-11 1.06154e-10 0 0 0 0)
(5.16988e-23 -1.1616e-11 0 -1.1616e-11 5.53742e-11 0 0 0 0)
(0 -1.15696e-11 0 -1.15696e-11 3.62468e-11 0 0 0 0)
(0 -1.29144e-11 0 -1.29144e-11 2.98687e-11 0 0 0 0)
(0 -1.30598e-11 0 -1.30598e-11 2.91767e-11 0 0 0 0)
(0 -1.36593e-11 0 -1.36593e-11 3.13964e-11 0 0 0 0)
(0 -1.63499e-11 0 -1.63499e-11 3.51502e-11 0 0 0 0)
(0 -1.70898e-11 0 -1.70898e-11 3.88659e-11 0 0 0 0)
(0 -1.96265e-11 0 -1.96265e-11 4.21097e-11 0 0 0 0)
(0 -2.19346e-11 0 -2.19346e-11 4.42311e-11 0 0 0 0)
(0 -2.21046e-11 0 -2.21046e-11 4.49767e-11 0 0 0 0)
(-5.16988e-23 -2.40081e-11 0 -2.40081e-11 4.49146e-11 0 0 0 0)
(0 -2.57975e-11 0 -2.57975e-11 4.4082e-11 0 0 0 0)
(0 -2.94581e-11 0 -2.94581e-11 4.33172e-11 0 0 0 0)
(0 -2.9325e-11 0 -2.9325e-11 4.22808e-11 0 0 0 0)
(0 -3.12249e-11 0 -3.12249e-11 4.16072e-11 0 0 0 0)
(0 -3.50298e-11 0 -3.50298e-11 4.1369e-11 0 0 0 0)
(0 -3.49861e-11 0 -3.49861e-11 4.09649e-11 0 0 0 0)
(-5.16988e-23 -3.87766e-11 0 -3.87766e-11 4.1118e-11 0 0 0 0)
(0 -4.25045e-11 0 -4.25045e-11 4.1363e-11 0 0 0 0)
(0 -4.43229e-11 0 -4.43229e-11 4.15713e-11 0 0 0 0)
(0 -4.80245e-11 0 -4.80245e-11 4.21226e-11 0 0 0 0)
(0 -4.96786e-11 0 -4.96786e-11 4.2465e-11 0 0 0 0)
(0 -5.30827e-11 0 -5.30827e-11 4.28386e-11 0 0 0 0)
(0 -6.00943e-11 0 -6.00943e-11 4.35502e-11 0 0 0 0)
(0 -6.32168e-11 0 -6.32168e-11 4.40496e-11 0 0 0 0)
(-5.16988e-23 -6.63472e-11 0 -6.63472e-11 4.47385e-11 0 0 0 0)
(0 -7.12758e-11 0 -7.12758e-11 4.55953e-11 0 0 0 0)
(0 -7.59307e-11 0 -7.59307e-11 4.6478e-11 0 0 0 0)
(0 -8.02841e-11 0 -8.02841e-11 4.74132e-11 0 0 0 0)
(0 -8.6117e-11 0 -8.6117e-11 4.85848e-11 0 0 0 0)
(0 -9.15248e-11 0 -9.15248e-11 4.98448e-11 0 0 0 0)
(0 -9.64842e-11 0 -9.64842e-11 5.11806e-11 0 0 0 0)
(0 -1.02709e-10 0 -1.02709e-10 5.28276e-11 0 0 0 0)
(0 -1.06376e-10 0 -1.06376e-10 5.42403e-11 0 0 0 0)
(0 -1.1266e-10 0 -1.1266e-10 5.59456e-11 0 0 0 0)
(0 -1.17723e-10 0 -1.17723e-10 5.75004e-11 0 0 0 0)
(0 -1.21391e-10 0 -1.21391e-10 5.89148e-11 0 0 0 0)
(0 -1.25425e-10 0 -1.25425e-10 6.02854e-11 0 0 0 0)
(0 -1.28046e-10 0 -1.28046e-10 6.13286e-11 0 0 0 0)
(0 -1.31145e-10 0 -1.31145e-10 6.22233e-11 0 0 0 0)
(0 -1.34878e-10 0 -1.34878e-10 6.29604e-11 0 0 0 0)
(0 -1.39646e-10 0 -1.39646e-10 6.37531e-11 0 0 0 0)
(0 -1.4427e-10 0 -1.4427e-10 6.46855e-11 0 0 0 0)
(0 -1.48744e-10 0 -1.48744e-10 6.58267e-11 0 0 0 0)
(0 -1.55197e-10 0 -1.55197e-10 6.74067e-11 0 0 0 0)
(0 -1.62696e-10 0 -1.62696e-10 6.956e-11 0 0 0 0)
(0 -1.67156e-10 0 -1.67156e-10 7.19265e-11 0 0 0 0)
(0 -1.72495e-10 0 -1.72495e-10 7.47448e-11 0 0 0 0)
(0 -1.78521e-10 0 -1.78521e-10 7.77752e-11 0 0 0 0)
(0 -1.83465e-10 0 -1.83465e-10 8.07841e-11 0 0 0 0)
(0 -1.87689e-10 0 -1.87689e-10 8.3701e-11 0 0 0 0)
(0 -1.91184e-10 0 -1.91184e-10 8.62694e-11 0 0 0 0)
(0 -1.95864e-10 0 -1.95864e-10 8.85689e-11 0 0 0 0)
(0 -2.00751e-10 0 -2.00751e-10 9.05363e-11 0 0 0 0)
(0 -2.05433e-10 0 -2.05433e-10 9.22554e-11 0 0 0 0)
(0 -2.10656e-10 0 -2.10656e-10 9.38801e-11 0 0 0 0)
(0 -2.16655e-10 0 -2.16655e-10 9.55591e-11 0 0 0 0)
(0 -2.22497e-10 0 -2.22497e-10 9.73285e-11 0 0 0 0)
(0 -2.28356e-10 0 -2.28356e-10 9.92808e-11 0 0 0 0)
(0 -2.34125e-10 0 -2.34125e-10 1.01384e-10 0 0 0 0)
(0 -2.39775e-10 0 -2.39775e-10 1.03582e-10 0 0 0 0)
(0 -2.452e-10 0 -2.452e-10 1.05781e-10 0 0 0 0)
(0 -2.50371e-10 0 -2.50371e-10 1.07865e-10 0 0 0 0)
(0 -2.55753e-10 0 -2.55753e-10 1.09786e-10 0 0 0 0)
(0 -2.61291e-10 0 -2.61291e-10 1.11489e-10 0 0 0 0)
(0 -2.6694e-10 0 -2.6694e-10 1.12968e-10 0 0 0 0)
(0 -2.72927e-10 0 -2.72927e-10 1.14269e-10 0 0 0 0)
(0 -2.79221e-10 0 -2.79221e-10 1.15439e-10 0 0 0 0)
(0 -2.85651e-10 0 -2.85651e-10 1.16522e-10 0 0 0 0)
(0 -2.92236e-10 0 -2.92236e-10 1.1756e-10 0 0 0 0)
(0 -2.98951e-10 0 -2.98951e-10 1.1857e-10 0 0 0 0)
(0 -3.05764e-10 0 -3.05764e-10 1.1955e-10 0 0 0 0)
(0 -3.12694e-10 0 -3.12694e-10 1.20485e-10 0 0 0 0)
(0 -3.19795e-10 0 -3.19795e-10 1.21356e-10 0 0 0 0)
(0 -3.27092e-10 0 -3.27092e-10 1.22141e-10 0 0 0 0)
(0 -3.34604e-10 0 -3.34604e-10 1.22819e-10 0 0 0 0)
(0 -3.42368e-10 0 -3.42368e-10 1.23374e-10 0 0 0 0)
(0 -3.50389e-10 0 -3.50389e-10 1.23792e-10 0 0 0 0)
(0 -3.58663e-10 0 -3.58663e-10 1.24056e-10 0 0 0 0)
(0 -3.67202e-10 0 -3.67202e-10 1.24155e-10 0 0 0 0)
(0 -3.76026e-10 0 -3.76026e-10 1.24073e-10 0 0 0 0)
(0 -3.85152e-10 0 -3.85152e-10 1.23801e-10 0 0 0 0)
(0 -3.94608e-10 0 -3.94608e-10 1.23336e-10 0 0 0 0)
(0 -4.04425e-10 0 -4.04425e-10 1.2268e-10 0 0 0 0)
(0 -4.14635e-10 0 -4.14635e-10 1.21848e-10 0 0 0 0)
(0 -4.2527e-10 0 -4.2527e-10 1.20864e-10 0 0 0 0)
(0 -4.36368e-10 0 -4.36368e-10 1.19767e-10 0 0 0 0)
(0 -4.47973e-10 0 -4.47973e-10 1.18608e-10 0 0 0 0)
(0 -4.60131e-10 0 -4.60131e-10 1.17451e-10 0 0 0 0)
(0 -4.72899e-10 0 -4.72899e-10 1.16376e-10 0 0 0 0)
(0 -4.86335e-10 0 -4.86335e-10 1.15471e-10 0 0 0 0)
(0 -5.00506e-10 0 -5.00506e-10 1.14836e-10 0 0 0 0)
(0 -5.15484e-10 0 -5.15484e-10 1.14575e-10 0 0 0 0)
(0 -5.31346e-10 0 -5.31346e-10 1.1479e-10 0 0 0 0)
(0 -5.48167e-10 0 -5.48167e-10 1.15574e-10 0 0 0 0)
(0 -5.66011e-10 0 -5.66011e-10 1.16999e-10 0 0 0 0)
(0 -5.84931e-10 0 -5.84931e-10 1.19104e-10 0 0 0 0)
(0 -6.04965e-10 0 -6.04965e-10 1.2188e-10 0 0 0 0)
(0 -6.26163e-10 0 -6.26163e-10 1.25257e-10 0 0 0 0)
(0 -6.48634e-10 0 -6.48634e-10 1.29099e-10 0 0 0 0)
(0 -6.72593e-10 0 -6.72593e-10 1.33205e-10 0 0 0 0)
(0 -6.98359e-10 0 -6.98359e-10 1.37313e-10 0 0 0 0)
(0 -7.26212e-10 0 -7.26212e-10 1.41109e-10 0 0 0 0)
(0 -7.56114e-10 0 -7.56114e-10 1.44222e-10 0 0 0 0)
(0 -7.87525e-10 0 -7.87525e-10 1.46206e-10 0 0 0 0)
(0 -8.19935e-10 0 -8.19935e-10 1.46552e-10 0 0 0 0)
(0 -8.54542e-10 0 -8.54542e-10 1.44812e-10 0 0 0 0)
(0 -8.95374e-10 0 -8.95374e-10 1.40891e-10 0 0 0 0)
(0 -9.45517e-10 0 -9.45517e-10 1.35096e-10 0 0 0 0)
(0 -1.00027e-09 0 -1.00027e-09 1.27366e-10 0 0 0 0)
(0 -1.0514e-09 0 -1.0514e-09 1.16483e-10 0 0 0 0)
(0 -1.10509e-09 0 -1.10509e-09 1.00515e-10 0 0 0 0)
(0 -1.19008e-09 0 -1.19008e-09 7.83624e-11 0 0 0 0)
(0 -1.3297e-09 0 -1.3297e-09 5.19351e-11 0 0 0 0)
(0 -1.46817e-09 0 -1.46817e-09 2.35203e-11 0 0 0 0)
(0 -1.47747e-09 0 -1.47747e-09 -2.04561e-11 0 0 0 0)
(0 -1.55528e-09 0 -1.55528e-09 -7.28217e-11 0 0 0 0)
(0 -1.92286e-09 0 -1.92286e-09 -1.1714e-10 0 0 0 0)
(0 -2.41082e-09 0 -2.41082e-09 -1.91837e-10 0 0 0 0)
(0 -3.48869e-09 0 -3.48869e-09 -4.70732e-10 0 0 0 0)
(0 -8.82613e-09 0 -8.82613e-09 5.6703e-10 0 0 0 0)
(0 -7.62279e-09 0 -7.62279e-09 1.65296e-09 0 0 0 0)
(0 -2.84761e-08 0 -2.84761e-08 1.15332e-08 0 0 0 0)
(0 -1.5117e-05 0 -1.5117e-05 -5.89477e-08 0 0 0 0)
(0 -0.000162319 0 -0.000162319 -1.03328e-06 0 0 0 0)
(0 -0.0009567 0 -0.0009567 -9.10963e-07 0 0 0 0)
(0 -0.00141502 0 -0.00141502 5.72158e-06 0 0 0 0)
(0 -0.0011099 0 -0.0011099 2.95106e-06 0 0 0 0)
(0 -0.000888417 0 -0.000888417 3.34769e-06 0 0 0 0)
(0 -0.000701002 0 -0.000701002 1.33023e-06 0 0 0 0)
(0 -0.00053283 0 -0.00053283 7.529e-07 0 0 0 0)
(0 -0.000378921 0 -0.000378921 5.26002e-08 0 0 0 0)
(0 -0.000238338 0 -0.000238338 -3.32284e-07 0 0 0 0)
(0 -0.000108959 0 -0.000108959 -5.63487e-07 0 0 0 0)
(0 1.15007e-05 0 1.15007e-05 -7.18412e-07 0 0 0 0)
(0 0.00012471 0 0.00012471 -8.2433e-07 0 0 0 0)
(0 0.000231695 0 0.000231695 -8.91883e-07 0 0 0 0)
(0 0.000333077 0 0.000333077 -9.30142e-07 0 0 0 0)
(0 0.000429253 0 0.000429253 -9.46688e-07 0 0 0 0)
(0 0.000520486 0 0.000520486 -9.47143e-07 0 0 0 0)
(0 0.000606954 0 0.000606954 -9.35582e-07 0 0 0 0)
(0 0.000688795 0 0.000688795 -9.15005e-07 0 0 0 0)
(0 0.000766121 0 0.000766121 -8.8767e-07 0 0 0 0)
(0 0.00083903 0 0.00083903 -8.55281e-07 0 0 0 0)
(0 0.000907615 0 0.000907615 -8.19139e-07 0 0 0 0)
(0 0.000971964 0 0.000971964 -7.80241e-07 0 0 0 0)
(0 0.00103216 0 0.00103216 -7.39368e-07 0 0 0 0)
(0 0.00108829 0 0.00108829 -6.97153e-07 0 0 0 0)
(0 0.00114044 0 0.00114044 -6.54141e-07 0 0 0 0)
(0 0.00118869 0 0.00118869 -6.10835e-07 0 0 0 0)
(0 0.00123311 0 0.00123311 -5.67727e-07 0 0 0 0)
(0 0.00127379 0 0.00127379 -5.25309e-07 0 0 0 0)
(0 0.00131079 0 0.00131079 -4.84073e-07 0 0 0 0)
(0 0.0013442 0 0.0013442 -4.44489e-07 0 0 0 0)
(0 0.00137408 0 0.00137408 -4.06981e-07 0 0 0 0)
(0 0.0014005 0 0.0014005 -3.71906e-07 0 0 0 0)
(0 0.00142352 0 0.00142352 -3.39531e-07 0 0 0 0)
(0 0.00144322 0 0.00144322 -3.10029e-07 0 0 0 0)
(0 0.00145965 0 0.00145965 -2.83467e-07 0 0 0 0)
(0 0.00147287 0 0.00147287 -2.59801e-07 0 0 0 0)
(0 0.00148294 0 0.00148294 -2.3884e-07 0 0 0 0)
(0 0.00148993 0 0.00148993 -2.20188e-07 0 0 0 0)
(0 0.00149387 0 0.00149387 -2.03129e-07 0 0 0 0)
(0 0.00149483 0 0.00149483 -1.86499e-07 0 0 0 0)
(0 0.00149286 0 0.00149286 -1.68684e-07 0 0 0 0)
(0 0.00148801 0 0.00148801 -1.4801e-07 0 0 0 0)
(0 0.00148033 0 0.00148033 -1.23716e-07 0 0 0 0)
(0 0.00146987 0 0.00146987 -9.70432e-08 0 0 0 0)
(0 0.00145669 0 0.00145669 -7.1282e-08 0 0 0 0)
(0 0.00144084 0 0.00144084 -5.00559e-08 0 0 0 0)
(0 0.00142238 0 0.00142238 -3.50598e-08 0 0 0 0)
(0 0.00140137 0 0.00140137 -2.54638e-08 0 0 0 0)
(0 0.00137787 0 0.00137787 -1.92953e-08 0 0 0 0)
(0 0.00135194 0 0.00135194 -1.49981e-08 0 0 0 0)
(0 0.00132365 0 0.00132365 -1.18574e-08 0 0 0 0)
(0 0.00129307 0 0.00129307 -9.5737e-09 0 0 0 0)
(0 0.00125993 0 0.00125993 -7.81687e-09 0 0 0 0)
(3.58282e-18 0.00122386 0 0.00122386 -6.29868e-09 0 0 0 0)
(0 0.00118479 0 0.00118479 -5.03602e-09 0 0 0 0)
(0 0.00114264 0 0.00114264 -4.14488e-09 0 0 0 0)
(-3.08564e-18 0.00109733 0 0.00109733 -3.46811e-09 0 0 0 0)
(0 0.00104882 0 0.00104882 -2.791e-09 0 0 0 0)
(2.74383e-18 0.000997054 0 0.000997054 -2.20243e-09 0 0 0 0)
(0 0.000942006 0 0.000942006 -1.8149e-09 0 0 0 0)
(-2.39376e-18 0.000883675 0 0.000883675 -1.50707e-09 0 0 0 0)
(0 0.000822085 0 0.000822085 -1.19797e-09 0 0 0 0)
(0 0.000757301 0 0.000757301 -9.46274e-10 0 0 0 0)
(0 0.000689436 0 0.000689436 -7.5632e-10 0 0 0 0)
(-3.33896e-18 0.000618666 0 0.000618666 -5.92302e-10 0 0 0 0)
(0 0.000545252 0 0.000545252 -4.60243e-10 0 0 0 0)
(0 0.000469574 0 0.000469574 -3.5371e-10 0 0 0 0)
(0 0.000392171 0 0.000392171 -2.56651e-10 0 0 0 0)
(0 0.000313822 0 0.000313822 -1.81542e-10 0 0 0 0)
(0 0.000235653 0 0.000235653 -1.29024e-10 0 0 0 0)
(5.30691e-19 0.000159273 0 0.000159273 -8.08082e-11 0 0 0 0)
(0 8.76317e-05 0 8.76317e-05 -5.02951e-11 0 0 0 0)
(1.39194e-19 2.34532e-05 0 2.34532e-05 -1.14985e-11 0 0 0 0)
(0 1.6648e-06 0 1.6648e-06 -4.09775e-12 0 0 0 0)
(1.68994e-20 1.47624e-07 0 1.47624e-07 -7.94464e-13 0 0 0 0)
(0 6.22768e-08 0 6.22768e-08 -1.93236e-12 0 0 0 0)
(0 5.29208e-08 0 5.29208e-08 -3.85461e-13 0 0 0 0)
(0 4.60236e-08 0 4.60236e-08 -1.49927e-12 0 0 0 0)
(0 3.99954e-08 0 3.99954e-08 -1.65895e-13 0 0 0 0)
(-1.50799e-20 3.46266e-08 0 3.46266e-08 -1.21641e-12 0 0 0 0)
(-1.478e-20 2.98977e-08 0 2.98977e-08 8.55673e-14 0 0 0 0)
(0 2.57618e-08 0 2.57618e-08 -1.04781e-12 0 0 0 0)
(0 2.21224e-08 0 2.21224e-08 2.38621e-13 0 0 0 0)
(0 1.89429e-08 0 1.89429e-08 -8.79158e-13 0 0 0 0)
(0 1.61757e-08 0 1.61757e-08 3.08088e-13 0 0 0 0)
(0 1.37745e-08 0 1.37745e-08 -7.67944e-13 0 0 0 0)
(0 1.16853e-08 0 1.16853e-08 3.65012e-13 0 0 0 0)
(0 9.86469e-09 0 9.86469e-09 -5.87834e-13 0 0 0 0)
(0 8.27981e-09 0 8.27981e-09 5.13865e-13 0 0 0 0)
(0 6.90158e-09 0 6.90158e-09 -5.4569e-13 0 0 0 0)
(0 5.71048e-09 0 5.71048e-09 4.16745e-13 0 0 0 0)
(0 4.75898e-09 0 4.75898e-09 -7.13602e-13 0 0 0 0)
(0 4.23419e-09 0 4.23419e-09 3.11925e-13 0 0 0 0)
(0 3.64612e-09 0 3.64612e-09 -4.48625e-13 0 0 0 0)
(2.23115e-20 2.85613e-09 0 2.85613e-09 3.97064e-13 0 0 0 0)
(-2.18676e-20 2.29844e-09 0 2.29844e-09 -4.0044e-13 0 0 0 0)
(0 1.87692e-09 0 1.87692e-09 4.02597e-13 0 0 0 0)
(0 1.53118e-09 0 1.53118e-09 -4.04629e-13 0 0 0 0)
(2.05883e-20 1.24211e-09 0 1.24211e-09 4.05554e-13 0 0 0 0)
(0 1.00237e-09 0 1.00237e-09 -4.06414e-13 0 0 0 0)
(0 8.05609e-10 0 8.05609e-10 4.06251e-13 0 0 0 0)
(1.93839e-20 6.44769e-10 0 6.44769e-10 -4.06086e-13 0 0 0 0)
(0 5.13342e-10 0 5.13342e-10 4.04974e-13 0 0 0 0)
(0 4.06622e-10 0 4.06622e-10 -4.03911e-13 0 0 0 0)
(0 3.20868e-10 0 3.20868e-10 4.01952e-13 0 0 0 0)
(0 2.52376e-10 0 2.52376e-10 -4.00092e-13 0 0 0 0)
(0 1.97772e-10 0 1.97772e-10 3.9739e-13 0 0 0 0)
(0 1.54357e-10 0 1.54357e-10 -3.94823e-13 0 0 0 0)
(0 1.19995e-10 0 1.19995e-10 3.9147e-13 0 0 0 0)
(0 9.29143e-11 0 9.29143e-11 -3.88276e-13 0 0 0 0)
(0 7.16386e-11 0 7.16386e-11 3.84352e-13 0 0 0 0)
(0 5.49749e-11 0 5.49749e-11 -3.80599e-13 0 0 0 0)
(0 4.19703e-11 0 4.19703e-11 3.76185e-13 0 0 0 0)
(0 3.18699e-11 0 3.18699e-11 -3.7193e-13 0 0 0 0)
(0 2.40654e-11 0 2.40654e-11 3.67104e-13 0 0 0 0)
(0 1.80691e-11 0 1.80691e-11 -3.624e-13 0 0 0 0)
(0 1.34884e-11 0 1.34884e-11 3.57233e-13 0 0 0 0)
(-2.81089e-20 1.00092e-11 0 1.00092e-11 -3.52127e-13 0 0 0 0)
(0 7.38245e-12 0 7.38245e-12 3.46665e-13 0 0 0 0)
(0 5.41164e-12 0 5.41164e-12 -3.41219e-13 0 0 0 0)
(0 3.94197e-12 0 3.94197e-12 3.35477e-13 0 0 0 0)
(0 2.85279e-12 0 2.85279e-12 -3.29738e-13 0 0 0 0)
(0 2.05161e-12 0 2.05161e-12 3.23754e-13 0 0 0 0)
(0 1.46561e-12 0 1.46561e-12 -3.17764e-13 0 0 0 0)
(0 1.03954e-12 0 1.03954e-12 3.11571e-13 0 0 0 0)
(0 7.31764e-13 0 7.31764e-13 -3.05369e-13 0 0 0 0)
(0 5.11992e-13 0 5.11992e-13 2.98991e-13 0 0 0 0)
(0 3.56221e-13 0 3.56221e-13 -2.9261e-13 0 0 0 0)
(0 2.4567e-13 0 2.4567e-13 2.86072e-13 0 0 0 0)
(0 1.67537e-13 0 1.67537e-13 -2.79541e-13 0 0 0 0)
(0 1.13358e-13 0 1.13358e-13 2.72869e-13 0 0 0 0)
(0 7.65457e-14 0 7.65457e-14 -2.6621e-13 0 0 0 0)
(0 5.14589e-14 0 5.14589e-14 2.59432e-13 0 0 0 0)
(0 3.39326e-14 0 3.39326e-14 -2.52665e-13 0 0 0 0)
(0 2.24351e-14 0 2.24351e-14 2.45792e-13 0 0 0 0)
(0 1.47656e-14 0 1.47656e-14 -2.38936e-13 0 0 0 0)
(0 9.44142e-15 0 9.44142e-15 2.3198e-13 0 0 0 0)
(-1.88065e-20 6.04692e-15 0 6.04692e-15 -2.25044e-13 0 0 0 0)
(0 3.77613e-15 0 3.77613e-15 2.18021e-13 0 0 0 0)
(0 2.34902e-15 0 2.34902e-15 -2.1102e-13 0 0 0 0)
(0 1.38915e-15 0 1.38915e-15 2.03924e-13 0 0 0 0)
(0 7.84846e-16 0 7.84846e-16 -1.96858e-13 0 0 0 0)
(0 6.67494e-16 0 6.67494e-16 1.89695e-13 0 0 0 0)
(0 4.93279e-16 0 4.93279e-16 -1.82561e-13 0 0 0 0)
(0 1.95821e-16 0 1.95821e-16 1.75327e-13 0 0 0 0)
(0 -1.07797e-16 0 -1.07797e-16 -1.68111e-13 0 0 0 0)
(0 -2.17151e-16 0 -2.17151e-16 1.608e-13 0 0 0 0)
(-1.5383e-20 1.40924e-16 0 1.40924e-16 -1.53494e-13 0 0 0 0)
(0 2.37266e-16 0 2.37266e-16 1.46057e-13 0 0 0 0)
(0 7.38778e-17 0 7.38778e-17 -1.38592e-13 0 0 0 0)
(1.44831e-20 -1.22165e-16 0 -1.22165e-16 1.31035e-13 0 0 0 0)
(0 -5.13928e-17 0 -5.13928e-17 -1.2337e-13 0 0 0 0)
(0 -1.52342e-18 0 -1.52342e-18 1.15574e-13 0 0 0 0)
(0 1.27426e-17 0 1.27426e-17 -1.07613e-13 0 0 0 0)
(0 1.32496e-16 0 1.32496e-16 9.94426e-14 0 0 0 0)
(0 -1.17567e-16 0 -1.17567e-16 -9.09982e-14 0 0 0 0)
(0 -2.49328e-16 0 -2.49328e-16 8.21908e-14 0 0 0 0)
(0 1.97674e-16 0 1.97674e-16 -7.2877e-14 0 0 0 0)
(0 3.11275e-16 0 3.11275e-16 6.28308e-14 0 0 0 0)
(0 -1.6911e-16 0 -1.6911e-16 -5.16178e-14 0 0 0 0)
(0 -2.68509e-16 0 -2.68509e-16 3.85972e-14 0 0 0 0)
(0 6.42554e-18 0 6.42554e-18 -2.67212e-14 0 0 0 0)
(0 -1.0257e-17 0 -1.0257e-17 -7.58875e-16 0 0 0 0)
(0 -2.27508e-17 0 -2.27508e-17 2.48107e-14 0 0 0 0)
(0 5.31248e-17 0 5.31248e-17 -3.38756e-14 0 0 0 0)
(0 -1.11305e-17 0 -1.11305e-17 4.00999e-14 0 0 0 0)
(0 -1.61797e-17 0 -1.61797e-17 -4.49577e-14 0 0 0 0)
(0 2.86734e-17 0 2.86734e-17 4.89535e-14 0 0 0 0)
(0 -6.59098e-18 0 -6.59098e-18 -5.2322e-14 0 0 0 0)
(0 -1.71061e-17 0 -1.71061e-17 5.52072e-14 0 0 0 0)
(0 -8.00711e-18 0 -8.00711e-18 -5.76968e-14 0 0 0 0)
(0 2.57882e-17 0 2.57882e-17 5.98582e-14 0 0 0 0)
(0 2.32272e-17 0 2.32272e-17 -6.17314e-14 0 0 0 0)
(0 -2.19501e-17 0 -2.19501e-17 6.33601e-14 0 0 0 0)
(0 4.32781e-18 0 4.32781e-18 -6.47648e-14 0 0 0 0)
(0 -3.95061e-18 0 -3.95061e-18 6.59729e-14 0 0 0 0)
(0 2.17052e-18 0 2.17052e-18 -6.69972e-14 0 0 0 0)
(0 2.27772e-17 0 2.27772e-17 6.78658e-14 0 0 0 0)
(0 -1.88928e-17 0 -1.88928e-17 -6.85358e-14 0 0 0 0)
(0 3.18299e-18 0 3.18299e-18 6.91522e-14 0 0 0 0)
(0 -1.1296e-17 0 -1.1296e-17 -6.95101e-14 0 0 0 0)
(0 -2.47029e-17 0 -2.47029e-17 6.98979e-14 0 0 0 0)
(0 3.03608e-17 0 3.03608e-17 -6.99792e-14 0 0 0 0)
(0 2.44912e-17 0 2.44912e-17 7.01201e-14 0 0 0 0)
(0 -3.13865e-17 0 -3.13865e-17 -6.99733e-14 0 0 0 0)
(0 5.96232e-18 0 5.96232e-18 6.98552e-14 0 0 0 0)
(0 2.10567e-17 0 2.10567e-17 -6.95083e-14 0 0 0 0)
(0 -2.28567e-17 0 -2.28567e-17 6.9172e-14 0 0 0 0)
(0 -2.36044e-17 0 -2.36044e-17 -6.85901e-14 0 0 0 0)
(0 -4.23583e-17 0 -4.23583e-17 6.80169e-14 0 0 0 0)
(0 -1.43797e-17 0 -1.43797e-17 -6.72722e-14 0 0 0 0)
(0 -4.41648e-17 0 -4.41648e-17 6.64274e-14 0 0 0 0)
(0 6.72994e-18 0 6.72994e-18 -6.5497e-14 0 0 0 0)
(0 4.75463e-17 0 4.75463e-17 6.4359e-14 0 0 0 0)
(0 -3.5271e-18 0 -3.5271e-18 -6.32641e-14 0 0 0 0)
(0 1.77414e-17 0 1.77414e-17 6.19128e-14 0 0 0 0)
(0 5.94247e-18 0 5.94247e-18 -6.05288e-14 0 0 0 0)
(0 1.9184e-17 0 1.9184e-17 5.89125e-14 0 0 0 0)
(0 2.12751e-17 0 2.12751e-17 -5.7377e-14 0 0 0 0)
(0 -1.72252e-17 0 -1.72252e-17 5.5381e-14 0 0 0 0)
(0 -5.33432e-17 0 -5.33432e-17 -5.36546e-14 0 0 0 0)
(0 -3.17637e-19 0 -3.17637e-19 5.12565e-14 0 0 0 0)
(0 1.00565e-16 0 1.00565e-16 -4.93362e-14 0 0 0 0)
(0 4.69905e-17 0 4.69905e-17 4.64011e-14 0 0 0 0)
(0 -5.23241e-17 0 -5.23241e-17 -4.41934e-14 0 0 0 0)
(0 -3.05461e-17 0 -3.05461e-17 4.06984e-14 0 0 0 0)
(0 1.90053e-17 0 1.90053e-17 -3.78244e-14 0 0 0 0)
(0 2.07788e-17 0 2.07788e-17 3.34755e-14 0 0 0 0)
(0 -2.22677e-17 0 -2.22677e-17 -2.9504e-14 0 0 0 0)
(0 -1.70465e-17 0 -1.70465e-17 2.40084e-14 0 0 0 0)
(0 8.67547e-18 0 8.67547e-18 -8.66163e-15 0 0 0 0)
)
;

boundaryField
{
    inandouthalf11
    {
        type            cyclic;
    }
    inandouthalf12
    {
        type            cyclic;
    }
    inandouthalf21
    {
        type            cyclic;
    }
    inandouthalf22
    {
        type            cyclic;
    }
    inandouthalf31
    {
        type            cyclic;
    }
    inandouthalf32
    {
        type            cyclic;
    }
    inandouthalf41
    {
        type            cyclic;
    }
    inandouthalf42
    {
        type            cyclic;
    }
    top
    {
        type            symmetryPlane;
    }
    walls
    {
        type            zeroGradient;
    }
    frontAndBackPlanes
    {
        type            empty;
    }
}


// ************************************************************************* //
