/*--------------------------------*- C++ -*----------------------------------*\
| =========                 |                                                 |
| \\      /  F ield         | OpenFOAM: The Open Source CFD Toolbox           |
|  \\    /   O peration     | Version:  2.4.x                                 |
|   \\  /    A nd           | Web:      www.OpenFOAM.org                      |
|    \\/     M anipulation  |                                                 |
\*---------------------------------------------------------------------------*/
FoamFile
{
    version     2.0;
    format      ascii;
    class       volTensorField;
    location    "3.3";
    object      Taus;
}
// * * * * * * * * * * * * * * * * * * * * * * * * * * * * * * * * * * * * * //

dimensions      [0 2 -2 0 0 0 0];

internalField   nonuniform List<tensor> 
360
(
(0 -0.0179878 0 -0.0179878 -0.170888 0 0 0 0)
(0 -0.0217358 0 -0.0217358 -0.187113 0 0 0 0)
(0 -0.0250421 0 -0.0250421 -0.194403 0 0 0 0)
(0 -0.0259564 0 -0.0259564 -0.193831 0 0 0 0)
(1.11294e-17 -0.0255847 0 -0.0255847 -0.191927 0 0 0 0)
(1.11492e-17 -0.0250453 0 -0.0250453 -0.190097 0 0 0 0)
(1.08375e-17 -0.0244917 0 -0.0244917 -0.188154 0 0 0 0)
(0 -0.0240113 0 -0.0240113 -0.186335 0 0 0 0)
(2.08227e-17 -0.023669 0 -0.023669 -0.184852 0 0 0 0)
(0 -0.0233947 0 -0.0233947 -0.183484 0 0 0 0)
(2.08448e-17 -0.0231115 0 -0.0231115 -0.18207 0 0 0 0)
(0 -0.0227919 0 -0.0227919 -0.180589 0 0 0 0)
(3.88378e-17 -0.0224263 0 -0.0224263 -0.179008 0 0 0 0)
(0 -0.0220208 0 -0.0220208 -0.177368 0 0 0 0)
(0 -0.0215614 0 -0.0215614 -0.175632 0 0 0 0)
(0 -0.0210257 0 -0.0210257 -0.173743 0 0 0 0)
(0 -0.0204133 0 -0.0204133 -0.171677 0 0 0 0)
(2.40796e-17 -0.0197666 0 -0.0197666 -0.169496 0 0 0 0)
(0 -0.0191658 0 -0.0191658 -0.167388 0 0 0 0)
(0 -0.0186998 0 -0.0186998 -0.165584 0 0 0 0)
(0 -0.0184426 0 -0.0184426 -0.16435 0 0 0 0)
(9.98355e-17 -0.0183938 0 -0.0183938 -0.163581 0 0 0 0)
(0 -0.0185299 0 -0.0185299 -0.163122 0 0 0 0)
(0 -0.018831 0 -0.018831 -0.16276 0 0 0 0)
(0 -0.0193146 0 -0.0193146 -0.162358 0 0 0 0)
(2.05559e-15 -0.0200292 0 -0.0200292 -0.161861 0 0 0 0)
(0 -0.0209748 0 -0.0209748 -0.161275 0 0 0 0)
(0 -0.0220474 0 -0.0220474 -0.160609 0 0 0 0)
(0 -0.0231267 0 -0.0231267 -0.159962 0 0 0 0)
(0 -0.0241378 0 -0.0241378 -0.159361 0 0 0 0)
(0 -0.0250601 0 -0.0250601 -0.158809 0 0 0 0)
(0 -0.0259047 0 -0.0259047 -0.158248 0 0 0 0)
(0 -0.0267085 0 -0.0267085 -0.157741 0 0 0 0)
(0 -0.0274665 0 -0.0274665 -0.157154 0 0 0 0)
(0 -0.0282179 0 -0.0282179 -0.1566 0 0 0 0)
(-4.25453e-15 -0.028957 0 -0.028957 -0.15599 0 0 0 0)
(0 -0.0296902 0 -0.0296902 -0.155368 0 0 0 0)
(0 -0.0304052 0 -0.0304052 -0.154698 0 0 0 0)
(0 -0.0311051 0 -0.0311051 -0.15398 0 0 0 0)
(0 -0.0318094 0 -0.0318094 -0.153292 0 0 0 0)
(0 -0.032481 0 -0.032481 -0.152524 0 0 0 0)
(0 -0.0331409 0 -0.0331409 -0.151756 0 0 0 0)
(-2.20189e-15 -0.0337892 0 -0.0337892 -0.150987 0 0 0 0)
(0 -0.0343975 0 -0.0343975 -0.15015 0 0 0 0)
(0 -0.0349895 0 -0.0349895 -0.149319 0 0 0 0)
(0 -0.0355567 0 -0.0355567 -0.148456 0 0 0 0)
(0 -0.0361005 0 -0.0361005 -0.147562 0 0 0 0)
(0 -0.0366325 0 -0.0366325 -0.146675 0 0 0 0)
(0 -0.0371185 0 -0.0371185 -0.145734 0 0 0 0)
(0 -0.0375601 0 -0.0375601 -0.144745 0 0 0 0)
(-1.85912e-15 -0.0379889 0 -0.0379889 -0.14377 0 0 0 0)
(0 -0.0383811 0 -0.0383811 -0.142743 0 0 0 0)
(0 -0.0387427 0 -0.0387427 -0.141706 0 0 0 0)
(0 -0.0390679 0 -0.0390679 -0.140626 0 0 0 0)
(0 -0.0393642 0 -0.0393642 -0.139545 0 0 0 0)
(0 -0.039611 0 -0.039611 -0.138402 0 0 0 0)
(0 -0.039833 0 -0.039833 -0.137269 0 0 0 0)
(0 -0.0400099 0 -0.0400099 -0.136085 0 0 0 0)
(0 -0.0401588 0 -0.0401588 -0.134888 0 0 0 0)
(0 -0.0402821 0 -0.0402821 -0.133686 0 0 0 0)
(0 -0.0403598 0 -0.0403598 -0.13243 0 0 0 0)
(0 -0.0404234 0 -0.0404234 -0.131189 0 0 0 0)
(0 -0.040461 0 -0.040461 -0.129911 0 0 0 0)
(0 -0.040489 0 -0.040489 -0.128636 0 0 0 0)
(0 -0.0405048 0 -0.0405048 -0.127343 0 0 0 0)
(0 -0.040508 0 -0.040508 -0.126046 0 0 0 0)
(0 -0.0404877 0 -0.0404877 -0.12473 0 0 0 0)
(0 -0.040443 0 -0.040443 -0.123401 0 0 0 0)
(0 -0.0403764 0 -0.0403764 -0.122059 0 0 0 0)
(0 -0.0402852 0 -0.0402852 -0.120711 0 0 0 0)
(0 -0.0401506 0 -0.0401506 -0.119335 0 0 0 0)
(0 -0.0399872 0 -0.0399872 -0.117942 0 0 0 0)
(0 -0.0398135 0 -0.0398135 -0.116557 0 0 0 0)
(0 -0.0396113 0 -0.0396113 -0.115142 0 0 0 0)
(0 -0.0393943 0 -0.0393943 -0.113729 0 0 0 0)
(0 -0.0391627 0 -0.0391627 -0.112298 0 0 0 0)
(0 -0.03893 0 -0.03893 -0.11087 0 0 0 0)
(0 -0.0386895 0 -0.0386895 -0.109432 0 0 0 0)
(0 -0.0384365 0 -0.0384365 -0.107986 0 0 0 0)
(0 -0.0381712 0 -0.0381712 -0.106533 0 0 0 0)
(0 -0.0378947 0 -0.0378947 -0.105076 0 0 0 0)
(0 -0.0376003 0 -0.0376003 -0.10361 0 0 0 0)
(0 -0.0372879 0 -0.0372879 -0.102137 0 0 0 0)
(0 -0.0369602 0 -0.0369602 -0.100658 0 0 0 0)
(0 -0.036618 0 -0.036618 -0.0991727 0 0 0 0)
(0 -0.0362645 0 -0.0362645 -0.0976833 0 0 0 0)
(0 -0.0359013 0 -0.0359013 -0.0961881 0 0 0 0)
(0 -0.035532 0 -0.035532 -0.09469 0 0 0 0)
(0 -0.0351572 0 -0.0351572 -0.0931882 0 0 0 0)
(0 -0.0347761 0 -0.0347761 -0.0916823 0 0 0 0)
(0 -0.0343888 0 -0.0343888 -0.090173 0 0 0 0)
(0 -0.0339947 0 -0.0339947 -0.0886606 0 0 0 0)
(0 -0.0335921 0 -0.0335921 -0.0871441 0 0 0 0)
(0 -0.0331812 0 -0.0331812 -0.0856244 0 0 0 0)
(0 -0.0327621 0 -0.0327621 -0.0841016 0 0 0 0)
(0 -0.0323354 0 -0.0323354 -0.0825758 0 0 0 0)
(0 -0.0319019 0 -0.0319019 -0.0810473 0 0 0 0)
(0 -0.0314623 0 -0.0314623 -0.0795162 0 0 0 0)
(0 -0.0310172 0 -0.0310172 -0.0779828 0 0 0 0)
(0 -0.030567 0 -0.030567 -0.0764471 0 0 0 0)
(0 -0.030112 0 -0.030112 -0.0749092 0 0 0 0)
(0 -0.0296523 0 -0.0296523 -0.0733693 0 0 0 0)
(0 -0.0291879 0 -0.0291879 -0.0718274 0 0 0 0)
(0 -0.0287193 0 -0.0287193 -0.0702836 0 0 0 0)
(0 -0.0282464 0 -0.0282464 -0.068738 0 0 0 0)
(0 -0.0277697 0 -0.0277697 -0.0671908 0 0 0 0)
(0 -0.0272894 0 -0.0272894 -0.0656419 0 0 0 0)
(0 -0.0268057 0 -0.0268057 -0.0640915 0 0 0 0)
(0 -0.0263188 0 -0.0263188 -0.0625396 0 0 0 0)
(0 -0.0258289 0 -0.0258289 -0.0609863 0 0 0 0)
(0 -0.0253362 0 -0.0253362 -0.0594317 0 0 0 0)
(0 -0.024841 0 -0.024841 -0.0578756 0 0 0 0)
(0 -0.0243435 0 -0.0243435 -0.0563183 0 0 0 0)
(0 -0.023844 0 -0.023844 -0.0547598 0 0 0 0)
(0 -0.0233428 0 -0.0233428 -0.0532 0 0 0 0)
(0 -0.0228403 0 -0.0228403 -0.051639 0 0 0 0)
(0 -0.0223368 0 -0.0223368 -0.0500769 0 0 0 0)
(0 -0.0218327 0 -0.0218327 -0.0485137 0 0 0 0)
(0 -0.0213285 0 -0.0213285 -0.0469495 0 0 0 0)
(0 -0.0208246 0 -0.0208246 -0.0453843 0 0 0 0)
(0 -0.0203215 0 -0.0203215 -0.0438182 0 0 0 0)
(0 -0.0198197 0 -0.0198197 -0.0422513 0 0 0 0)
(0 -0.0193202 0 -0.0193202 -0.0406833 0 0 0 0)
(0 -0.0188237 0 -0.0188237 -0.0391144 0 0 0 0)
(0 -0.018331 0 -0.018331 -0.0375443 0 0 0 0)
(0 -0.0178428 0 -0.0178428 -0.0359727 0 0 0 0)
(0 -0.017359 0 -0.017359 -0.0343994 0 0 0 0)
(0 -0.016879 0 -0.016879 -0.0328242 0 0 0 0)
(0 -0.016402 0 -0.016402 -0.0312466 0 0 0 0)
(0 -0.0159283 0 -0.0159283 -0.0296657 0 0 0 0)
(0 -0.0154601 0 -0.0154601 -0.0280803 0 0 0 0)
(0 -0.0149993 0 -0.0149993 -0.0264894 0 0 0 0)
(0 -0.0145421 0 -0.0145421 -0.0248938 0 0 0 0)
(0 -0.0140767 0 -0.0140767 -0.0232953 0 0 0 0)
(0 -0.0135944 0 -0.0135944 -0.0216942 0 0 0 0)
(0 -0.0131046 0 -0.0131046 -0.0200881 0 0 0 0)
(0 -0.012622 0 -0.012622 -0.0184752 0 0 0 0)
(0 -0.0121293 0 -0.0121293 -0.0168666 0 0 0 0)
(0 -0.0115645 0 -0.0115645 -0.0152934 0 0 0 0)
(0 -0.0108905 0 -0.0108905 -0.0137569 0 0 0 0)
(0 -0.0102202 0 -0.0102202 -0.0121855 0 0 0 0)
(0 -0.00971496 0 -0.00971496 -0.0105696 0 0 0 0)
(0 -0.00914539 0 -0.00914539 -0.00878296 0 0 0 0)
(0 -0.00840557 0 -0.00840557 -0.0067847 0 0 0 0)
(0 -0.00766314 0 -0.00766314 -0.00403787 0 0 0 0)
(0 -0.0058842 0 -0.0058842 -0.00400025 0 0 0 0)
(0 -0.00246328 0 -0.00246328 -0.00317357 0 0 0 0)
(0 -0.00305025 0 -0.00305025 -0.0011434 0 0 0 0)
(0 -0.00203323 0 -0.00203323 5.45644e-06 0 0 0 0)
(0 -0.00147872 0 -0.00147872 2.28046e-05 0 0 0 0)
(0 -0.00170851 0 -0.00170851 2.90901e-05 0 0 0 0)
(0 -0.0026467 0 -0.0026467 2.11306e-05 0 0 0 0)
(0 -0.00283808 0 -0.00283808 -0.000101891 0 0 0 0)
(0 -0.00319398 0 -0.00319398 -0.000458733 0 0 0 0)
(0 -0.0034633 0 -0.0034633 -0.00112667 0 0 0 0)
(0 -0.0034238 0 -0.0034238 -0.00185329 0 0 0 0)
(0 -0.00303492 0 -0.00303492 -0.00229688 0 0 0 0)
(0 -0.00242529 0 -0.00242529 -0.00243118 0 0 0 0)
(0 -0.00170133 0 -0.00170133 -0.00239587 0 0 0 0)
(0 -0.000905873 0 -0.000905873 -0.00226102 0 0 0 0)
(0 -6.00265e-05 0 -6.00265e-05 -0.00205572 0 0 0 0)
(0 0.000827101 0 0.000827101 -0.00180253 0 0 0 0)
(0 0.00175254 0 0.00175254 -0.00151531 0 0 0 0)
(0 0.0027162 0 0.0027162 -0.00120261 0 0 0 0)
(0 0.00371933 0 0.00371933 -0.000870116 0 0 0 0)
(0 0.00476372 0 0.00476372 -0.000521587 0 0 0 0)
(0 0.00585134 0 0.00585134 -0.00015963 0 0 0 0)
(0 0.00698418 0 0.00698418 0.000213856 0 0 0 0)
(0 0.00816426 0 0.00816426 0.000597444 0 0 0 0)
(0 0.00939356 0 0.00939356 0.000990104 0 0 0 0)
(0 0.0106741 0 0.0106741 0.0013913 0 0 0 0)
(0 0.0120076 0 0.0120076 0.00180127 0 0 0 0)
(0 0.0133959 0 0.0133959 0.00222138 0 0 0 0)
(0 0.0148399 0 0.0148399 0.00265468 0 0 0 0)
(0 0.0163398 0 0.0163398 0.00310637 0 0 0 0)
(0 0.0178946 0 0.0178946 0.00358421 0 0 0 0)
(0 0.0195016 0 0.0195016 0.00409869 0 0 0 0)
(0 0.0211562 0 0.0211562 0.00466279 0 0 0 0)
(0 0.0228523 0 0.0228523 0.00529144 0 0 0 0)
(0 0.0245829 0 0.0245829 0.00600035 0 0 0 0)
(0 0.0263415 0 0.0263415 0.00680447 0 0 0 0)
(0 0.0281245 0 0.0281245 0.00771599 0 0 0 0)
(0 0.0299348 0 0.0299348 0.00874183 0 0 0 0)
(0 0.0317875 0 0.0317875 0.00988074 0 0 0 0)
(0 0.0337177 0 0.0337177 0.0111198 0 0 0 0)
(0 0.0357928 0 0.0357928 0.0124306 0 0 0 0)
(0 0.0381301 0 0.0381301 0.0137645 0 0 0 0)
(0 0.0409228 0 0.0409228 0.0150491 0 0 0 0)
(0 0.0444762 0 0.0444762 0.0161851 0 0 0 0)
(0 0.0492496 0 0.0492496 0.0170487 0 0 0 0)
(0 0.055874 0 0.055874 0.0175023 0 0 0 0)
(0 0.0650506 0 0.0650506 0.0174255 0 0 0 0)
(0 0.077159 0 0.077159 0.0167752 0 0 0 0)
(0 0.0915998 0 0.0915998 0.0156586 0 0 0 0)
(0 0.106703 0 0.106703 0.0143344 0 0 0 0)
(0 0.120987 0 0.120987 0.0130563 0 0 0 0)
(0 0.134127 0 0.134127 0.0118995 0 0 0 0)
(0 0.146278 0 0.146278 0.0108065 0 0 0 0)
(0 0.157348 0 0.157348 0.00973635 0 0 0 0)
(0 0.167036 0 0.167036 0.00868801 0 0 0 0)
(0 0.17541 0 0.17541 0.00761893 0 0 0 0)
(0 0.183369 0 0.183369 0.00643621 0 0 0 0)
(3.74339e-15 0.191015 0 0.191015 0.00514983 0 0 0 0)
(0 0.197088 0 0.197088 0.00392074 0 0 0 0)
(0 0.201872 0 0.201872 0.00269886 0 0 0 0)
(-4.22307e-15 0.207739 0 0.207739 0.00118773 0 0 0 0)
(0 0.213575 0 0.213575 -0.000496705 0 0 0 0)
(4.46616e-15 0.216441 0 0.216441 -0.00194993 0 0 0 0)
(0 0.218761 0 0.218761 -0.00343647 0 0 0 0)
(-4.6331e-15 0.22268 0 0.22268 -0.00531721 0 0 0 0)
(0 0.225273 0 0.225273 -0.00720682 0 0 0 0)
(0 0.22623 0 0.22623 -0.00896358 0 0 0 0)
(0 0.227794 0 0.227794 -0.0109308 0 0 0 0)
(-4.74413e-15 0.228585 0 0.228585 -0.0129226 0 0 0 0)
(0 0.22813 0 0.22813 -0.0147948 0 0 0 0)
(0 0.22859 0 0.22859 -0.0169021 0 0 0 0)
(0 0.228006 0 0.228006 -0.0189177 0 0 0 0)
(0 0.224655 0 0.224655 -0.0204272 0 0 0 0)
(0 0.222212 0 0.222212 -0.0220217 0 0 0 0)
(4.45945e-15 0.220294 0 0.220294 -0.023674 0 0 0 0)
(0 0.215908 0 0.215908 -0.024719 0 0 0 0)
(4.27625e-15 0.210557 0 0.210557 -0.0253183 0 0 0 0)
(0 0.205143 0 0.205143 -0.0256936 0 0 0 0)
(4.06881e-15 0.199721 0 0.199721 -0.0259226 0 0 0 0)
(0 0.195076 0 0.195076 -0.0262556 0 0 0 0)
(0 0.189513 0 0.189513 -0.0264521 0 0 0 0)
(0 0.183387 0 0.183387 -0.0265214 0 0 0 0)
(0 0.178612 0 0.178612 -0.0268494 0 0 0 0)
(-3.46645e-15 0.173206 0 0.173206 -0.0270754 0 0 0 0)
(-3.33349e-15 0.167213 0 0.167213 -0.027156 0 0 0 0)
(0 0.161939 0 0.161939 -0.0273978 0 0 0 0)
(0 0.155995 0 0.155995 -0.0274991 0 0 0 0)
(0 0.149543 0 0.149543 -0.0274606 0 0 0 0)
(0 0.143516 0 0.143516 -0.0274773 0 0 0 0)
(0 0.138667 0 0.138667 -0.0277396 0 0 0 0)
(0 0.132696 0 0.132696 -0.0278407 0 0 0 0)
(0 0.11874 0 0.11874 -0.0260247 0 0 0 0)
(0 0.0947043 0 0.0947043 -0.0215104 0 0 0 0)
(0 0.0665604 0 0.0665604 -0.0156831 0 0 0 0)
(0 0.0419808 0 0.0419808 -0.0101538 0 0 0 0)
(0 0.0317598 0 0.0317598 -0.0096609 0 0 0 0)
(0 0 0 0 -0 0 0 0 0)
(0 0 0 0 -0 0 0 0 0)
(0 0 0 0 0 0 0 0 0)
(-0 0 0 0 -0 0 0 0 0)
(0 0 0 0 -0 0 0 0 0)
(0 0 0 0 -0 0 0 0 0)
(0 0 0 0 -0 0 0 0 0)
(0 0 0 0 -0 0 0 0 0)
(0 0 0 0 -0 0 0 0 0)
(0 0 0 0 -0 0 0 0 0)
(0 0 0 0 -0 0 0 0 0)
(0 0 0 0 -0 0 0 0 0)
(0 0 0 0 -0 0 0 0 0)
(0 0 0 0 -0 0 0 0 0)
(0 0 0 0 -0 0 0 0 0)
(0 0 0 0 -0 0 0 0 0)
(0 0 0 0 -0 0 0 0 0)
(0 0 0 0 -0 0 0 0 0)
(0 0 0 0 -0 0 0 0 0)
(0 0 0 0 -0 0 0 0 0)
(0 0 0 0 -0 0 0 0 0)
(0 0 0 0 -0 0 0 0 0)
(0 0 0 0 0 0 0 0 0)
(0 0 0 0 -0 0 0 0 0)
(0 0 0 0 -0 0 0 0 0)
(-0 0 0 0 0 0 0 0 0)
(0 0 0 0 -0 0 0 0 0)
(0 0 0 0 0 0 0 0 0)
(0 0 0 0 0 0 0 0 0)
(0 0 0 0 -0 0 0 0 0)
(0 0 0 0 0 0 0 0 0)
(0 0 0 0 -0 0 0 0 0)
(0 0 0 0 0 0 0 0 0)
(0 0 0 0 -0 0 0 0 0)
(0 0 0 0 0 0 0 0 0)
(0 0 0 0 -0 0 0 0 0)
(0 0 0 0 0 0 0 0 0)
(0 0 0 0 -0 0 0 0 0)
(0 0 0 0 0 0 0 0 0)
(0 0 0 0 -0 0 0 0 0)
(0 0 0 0 0 0 0 0 0)
(0 0 0 0 -0 0 0 0 0)
(0 0 0 0 0 0 0 0 0)
(0 0 0 0 -0 0 0 0 0)
(0 0 0 0 0 0 0 0 0)
(-0 0 0 0 -0 0 0 0 0)
(0 0 0 0 0 0 0 0 0)
(0 0 0 0 -0 0 0 0 0)
(0 -0 0 -0 0 0 0 0 0)
(0 0 0 0 -0 0 0 0 0)
(0 -0 0 -0 0 0 0 0 0)
(0 0 0 0 -0 0 0 0 0)
(0 -0 0 -0 0 0 0 0 0)
(0 0 0 0 -0 0 0 0 0)
(0 -0 0 -0 0 0 0 0 0)
(-0 0 0 0 -0 0 0 0 0)
(0 -0 0 -0 0 0 0 0 0)
(0 0 0 0 -0 0 0 0 0)
(0 -0 0 -0 0 0 0 0 0)
(0 0 0 0 -0 0 0 0 0)
(0 -0 0 -0 0 0 0 0 0)
(0 0 0 0 -0 0 0 0 0)
(0 -0 0 -0 0 0 0 0 0)
(0 0 0 0 -0 0 0 0 0)
(0 -0 0 -0 0 0 0 0 0)
(0 0 0 0 -0 0 0 0 0)
(0 -0 0 -0 0 0 0 0 0)
(0 0 0 0 -0 0 0 0 0)
(0 0 0 0 -0 0 0 0 0)
(0 -0 0 -0 0 0 0 0 0)
(0 0 0 0 -0 0 0 0 0)
(0 -0 0 -0 0 0 0 0 0)
(0 0 0 0 -0 0 0 0 0)
(0 -0 0 -0 0 0 0 0 0)
(0 0 0 0 -0 0 0 0 0)
(0 -0 0 -0 0 0 0 0 0)
(0 0 0 0 -0 0 0 0 0)
(0 -0 0 -0 0 0 0 0 0)
(0 0 0 0 -0 0 0 0 0)
(0 -0 0 -0 0 0 0 0 0)
(0 0 0 0 -0 0 0 0 0)
(0 -0 0 -0 0 0 0 0 0)
(0 0 0 0 -0 0 0 0 0)
(0 -0 0 -0 0 0 0 0 0)
(0 0 0 0 -0 0 0 0 0)
(0 -0 0 -0 0 0 0 0 0)
(0 0 0 0 -0 0 0 0 0)
(0 -0 0 -0 0 0 0 0 0)
(0 0 0 0 -0 0 0 0 0)
(0 -0 0 -0 0 0 0 0 0)
(0 0 0 0 -0 0 0 0 0)
(0 -0 0 -0 0 0 0 0 0)
(0 0 0 0 -0 0 0 0 0)
(0 -0 0 -0 0 0 0 0 0)
(0 0 0 0 -0 0 0 0 0)
(0 -0 0 -0 0 0 0 0 0)
(0 0 0 0 -0 0 0 0 0)
(0 -0 0 -0 0 0 0 0 0)
(0 0 0 0 -0 0 0 0 0)
(0 -0 0 -0 0 0 0 0 0)
(0 0 0 0 -0 0 0 0 0)
(0 -0 0 -0 0 0 0 0 0)
(0 0 0 0 -0 0 0 0 0)
(0 -0 0 -0 0 0 0 0 0)
(0 0 0 0 -0 0 0 0 0)
(0 -0 0 -0 0 0 0 0 0)
(0 0 0 0 -0 0 0 0 0)
(0 -0 0 -0 0 0 0 0 0)
(0 0 0 0 -0 0 0 0 0)
(0 -0 0 -0 0 0 0 0 0)
(0 0 0 0 -0 0 0 0 0)
(0 0 0 0 0 0 0 0 0)
(0 0 0 0 0 0 0 0 0)
(0 0 0 0 0 0 0 0 0)
(0 0 0 0 0 0 0 0 0)
(0 0 0 0 0 0 0 0 0)
(0 0 0 0 0 0 0 0 0)
(0 0 0 0 0 0 0 0 0)
(0 0 0 0 0 0 0 0 0)
)
;

boundaryField
{
    inandouthalf11
    {
        type            cyclic;
    }
    inandouthalf12
    {
        type            cyclic;
    }
    inandouthalf21
    {
        type            cyclic;
    }
    inandouthalf22
    {
        type            cyclic;
    }
    inandouthalf31
    {
        type            cyclic;
    }
    inandouthalf32
    {
        type            cyclic;
    }
    inandouthalf41
    {
        type            cyclic;
    }
    inandouthalf42
    {
        type            cyclic;
    }
    top
    {
        type            symmetryPlane;
    }
    walls
    {
        type            zeroGradient;
    }
    frontAndBackPlanes
    {
        type            empty;
    }
}


// ************************************************************************* //
