/*--------------------------------*- C++ -*----------------------------------*\
| =========                 |                                                 |
| \\      /  F ield         | OpenFOAM: The Open Source CFD Toolbox           |
|  \\    /   O peration     | Version:  2.4.x                                 |
|   \\  /    A nd           | Web:      www.OpenFOAM.org                      |
|    \\/     M anipulation  |                                                 |
\*---------------------------------------------------------------------------*/
FoamFile
{
    version     2.0;
    format      ascii;
    class       volScalarField;
    location    "3.3";
    object      Theta_0;
}
// * * * * * * * * * * * * * * * * * * * * * * * * * * * * * * * * * * * * * //

dimensions      [0 2 -2 0 0 0 0];

internalField   nonuniform List<scalar> 
360
(
6.68607e-21
6.79562e-21
6.81495e-21
6.78266e-21
6.76698e-21
6.76447e-21
6.76818e-21
6.77231e-21
6.77295e-21
6.77077e-21
6.76929e-21
6.77198e-21
6.78165e-21
6.80104e-21
6.83304e-21
6.87806e-21
6.92536e-21
6.94342e-21
6.89719e-21
6.80083e-21
6.7165e-21
6.67611e-21
6.66431e-21
6.6619e-21
6.66147e-21
6.66139e-21
6.66138e-21
6.66137e-21
6.66137e-21
6.66137e-21
6.66138e-21
6.66138e-21
6.66139e-21
6.66139e-21
6.66139e-21
6.66139e-21
6.66139e-21
6.66139e-21
6.66139e-21
6.66139e-21
6.66139e-21
6.66138e-21
6.66139e-21
6.66139e-21
6.66139e-21
6.66139e-21
6.66139e-21
6.66139e-21
6.66139e-21
6.66139e-21
6.66139e-21
6.66139e-21
6.66139e-21
6.6614e-21
6.6614e-21
6.6614e-21
6.6614e-21
6.66141e-21
6.66141e-21
6.66141e-21
6.66142e-21
6.66142e-21
6.66142e-21
6.66143e-21
6.66143e-21
6.66143e-21
6.66143e-21
6.66143e-21
6.66144e-21
6.66144e-21
6.66145e-21
6.66145e-21
6.66146e-21
6.66147e-21
6.66148e-21
6.66149e-21
6.6615e-21
6.66151e-21
6.66151e-21
6.66152e-21
6.66153e-21
6.66153e-21
6.66154e-21
6.66155e-21
6.66156e-21
6.66157e-21
6.66158e-21
6.66159e-21
6.66159e-21
6.6616e-21
6.66161e-21
6.66162e-21
6.66162e-21
6.66163e-21
6.66164e-21
6.66164e-21
6.66165e-21
6.66165e-21
6.66166e-21
6.6616e-21
0
0
0
0
0
0
0
0
0
0
0
0
0
0
0
6.66168e-21
6.66168e-21
6.66168e-21
6.66169e-21
6.6617e-21
6.66172e-21
6.66174e-21
6.66176e-21
6.66179e-21
6.66183e-21
6.66187e-21
6.66191e-21
6.66197e-21
7.71934e-21
2.71638e-20
1.06676e-19
3.97032e-19
1.37612e-18
4.41249e-18
1.30057e-17
3.49258e-17
8.43193e-17
1.79924e-16
3.32989e-16
5.20761e-16
6.45822e-16
6.21224e-16
2.00542e-15
2.85476e-14
5.7547e-13
1.47412e-11
5.98134e-10
8.93273e-08
5.94046e-06
0.000138903
0.00099543
0.00183073
0.00191745
0.00186799
0.00182074
0.0018004
0.00180502
0.00182959
0.00186939
0.00192036
0.00197925
0.00204347
0.00211094
0.00218006
0.00224952
0.00231826
0.00238546
0.00245043
0.00251263
0.00257163
0.00262709
0.00267876
0.00272644
0.00277001
0.00280942
0.00284464
0.0028757
0.00290266
0.00292562
0.00294472
0.0029601
0.00297194
0.00298042
0.00298576
0.00298815
0.00298782
0.00298498
0.00297985
0.00297265
0.00296359
0.00295288
0.0029407
0.00292721
0.00291256
0.00289684
0.00288013
0.00286252
0.00284407
0.00282482
0.00280484
0.00278418
0.00276265
0.00274006
0.00271639
0.00269163
0.00266576
0.00263876
0.00261061
0.00258128
0.00255074
0.00251896
0.00248588
0.00245147
0.00241568
0.00237844
0.0023397
0.00229939
0.00225743
0.00221375
0.00216825
0.00212085
0.00207143
0.0020199
0.00196612
0.00190995
0.00185123
0.0017898
0.00172545
0.00165796
0.00158706
0.00151245
0.00143376
0.00135057
0.00126232
0.00116832
0.00106767
0.000959119
0.000840943
0.000710532
0.000563256
0.000388859
0
0
0
0
0
0
0
0
0
0
0
0
0
0
0
0
0
0
0
0
0
0
0
0
0
0
0
0
0
0
0
0
0
0
0
0
0
0
0
0
0
0
0
0
0
0
0
0
0
0
0
0
0
0
0
0
0
0
0
0
0
0
0
0
0
0
0
0
0
0
0
0
0
0
0
0
0
0
0
0
0
0
0
0
0
0
0
0
0
0
0
0
0
0
0
0
0
0
0
0
0
0
0
0
0
0
0
0
0
0
0
0
0
0
0
0
0
0
0
)
;

boundaryField
{
    inandouthalf11
    {
        type            cyclic;
    }
    inandouthalf12
    {
        type            cyclic;
    }
    inandouthalf21
    {
        type            cyclic;
    }
    inandouthalf22
    {
        type            cyclic;
    }
    inandouthalf31
    {
        type            cyclic;
    }
    inandouthalf32
    {
        type            cyclic;
    }
    inandouthalf41
    {
        type            cyclic;
    }
    inandouthalf42
    {
        type            cyclic;
    }
    top
    {
        type            symmetryPlane;
    }
    walls
    {
        type            zeroGradient;
    }
    frontAndBackPlanes
    {
        type            empty;
    }
}


// ************************************************************************* //
