/*--------------------------------*- C++ -*----------------------------------*\
| =========                 |                                                 |
| \\      /  F ield         | OpenFOAM: The Open Source CFD Toolbox           |
|  \\    /   O peration     | Version:  2.4.x                                 |
|   \\  /    A nd           | Web:      www.OpenFOAM.org                      |
|    \\/     M anipulation  |                                                 |
\*---------------------------------------------------------------------------*/
FoamFile
{
    version     2.0;
    format      ascii;
    class       volVectorField;
    location    "3.3";
    object      U;
}
// * * * * * * * * * * * * * * * * * * * * * * * * * * * * * * * * * * * * * //

dimensions      [0 1 -1 0 0 0 0];

internalField   nonuniform List<vector> 
360
(
(-9.40113e-05 5.95539e-08 0)
(-9.39086e-05 1.55087e-08 0)
(-9.38893e-05 -1.19991e-08 0)
(-9.40242e-05 -9.21318e-09 0)
(-9.41804e-05 -2.57462e-09 0)
(-9.43319e-05 6.04286e-10 0)
(-9.44857e-05 1.57181e-09 0)
(-9.46386e-05 8.90791e-10 0)
(-9.4785e-05 -3.80876e-10 0)
(-9.49276e-05 -8.4856e-10 0)
(-9.50694e-05 -7.81516e-11 0)
(-9.52124e-05 1.6402e-09 0)
(-9.53599e-05 4.00873e-09 0)
(-9.55151e-05 6.76516e-09 0)
(-9.5683e-05 9.48951e-09 0)
(-9.58691e-05 1.08917e-08 0)
(-9.60757e-05 8.21854e-09 0)
(-9.62963e-05 -1.46539e-09 0)
(-9.6511e-05 -1.65899e-08 0)
(-9.66917e-05 -2.80467e-08 0)
(-9.68155e-05 -2.76081e-08 0)
(-9.68857e-05 -1.83032e-08 0)
(-9.69194e-05 -9.02111e-09 0)
(-9.69346e-05 -3.69907e-09 0)
(-9.69421e-05 -1.41613e-09 0)
(-9.69466e-05 -5.42413e-10 0)
(-9.695e-05 -2.16631e-10 0)
(-9.69539e-05 -4.11562e-11 0)
(-9.69578e-05 4.23538e-11 0)
(-9.69619e-05 8.83746e-11 0)
(-9.69663e-05 8.67598e-11 0)
(-9.6972e-05 1.16418e-10 0)
(-9.6977e-05 3.22134e-11 0)
(-9.69843e-05 5.69744e-11 0)
(-9.69907e-05 -1.09995e-11 0)
(-9.69982e-05 -1.06737e-11 0)
(-9.70056e-05 -3.7948e-11 0)
(-9.7014e-05 -3.7656e-11 0)
(-9.70234e-05 4.59163e-12 0)
(-9.70318e-05 -4.67779e-11 0)
(-9.70421e-05 -4.36522e-13 0)
(-9.70525e-05 5.49393e-12 0)
(-9.70629e-05 -2.73968e-11 0)
(-9.70753e-05 1.5487e-11 0)
(-9.70877e-05 -1.82002e-12 0)
(-9.71011e-05 -1.46357e-13 0)
(-9.71155e-05 2.07554e-11 0)
(-9.71299e-05 -1.48856e-11 0)
(-9.71461e-05 -1.05697e-11 0)
(-9.71642e-05 2.99765e-11 0)
(-9.71822e-05 -6.27354e-12 0)
(-9.7202e-05 1.61642e-11 0)
(-9.72227e-05 1.9978e-12 0)
(-9.72451e-05 2.58157e-11 0)
(-9.72682e-05 -5.45073e-12 0)
(-9.72937e-05 3.8129e-11 0)
(-9.73198e-05 6.38426e-12 0)
(-9.73481e-05 3.0792e-11 0)
(-9.73775e-05 3.55013e-11 0)
(-9.7408e-05 4.80394e-12 0)
(-9.74409e-05 4.55529e-11 0)
(-9.74741e-05 1.24159e-11 0)
(-9.75091e-05 3.11735e-11 0)
(-9.75447e-05 1.43173e-11 0)
(-9.75812e-05 1.5398e-11 0)
(-9.76185e-05 2.41738e-12 0)
(-9.76572e-05 7.12841e-12 0)
(-9.76971e-05 1.35917e-11 0)
(-9.77383e-05 2.48303e-11 0)
(-9.77807e-05 1.525e-11 0)
(-9.78255e-05 3.88417e-11 0)
(-9.7872e-05 6.85127e-11 0)
(-9.79195e-05 4.56081e-11 0)
(-9.79692e-05 7.04201e-11 0)
(-9.80201e-05 5.75876e-11 0)
(-9.80728e-05 6.92725e-11 0)
(-9.81263e-05 4.92804e-11 0)
(-9.81811e-05 3.91417e-11 0)
(-9.82374e-05 3.1813e-11 0)
(-9.82951e-05 3.09224e-11 0)
(-9.8354e-05 2.22013e-11 0)
(-9.84147e-05 2.55923e-11 0)
(-9.8477e-05 3.1463e-11 0)
(-9.8541e-05 3.47482e-11 0)
(-9.86067e-05 4.04704e-11 0)
(-9.86739e-05 4.05256e-11 0)
(-9.87429e-05 4.23454e-11 0)
(-9.88134e-05 3.7612e-11 0)
(-9.88853e-05 3.08558e-11 0)
(-9.89589e-05 2.51128e-11 0)
(-9.90341e-05 1.92118e-11 0)
(-9.91108e-05 1.29827e-11 0)
(-9.91893e-05 1.01744e-11 0)
(-9.92696e-05 8.30501e-12 0)
(-9.93517e-05 7.04536e-12 0)
(-9.94357e-05 6.19446e-12 0)
(-9.95215e-05 5.16282e-12 0)
(-9.96092e-05 3.36412e-12 0)
(-9.96989e-05 7.40147e-13 0)
(-9.97905e-05 -2.3354e-12 0)
(-9.98842e-05 -6.06938e-12 0)
(-9.99799e-05 -1.03305e-11 0)
(-0.000100078 -1.48258e-11 0)
(-0.000100178 -1.97217e-11 0)
(-0.00010028 -2.50774e-11 0)
(-0.000100385 -3.07847e-11 0)
(-0.000100492 -3.6791e-11 0)
(-0.000100602 -4.29506e-11 0)
(-0.000100714 -4.90072e-11 0)
(-0.000100829 -5.46942e-11 0)
(-0.000100946 -5.97158e-11 0)
(-0.000101067 -6.37408e-11 0)
(-0.00010119 -6.64358e-11 0)
(-0.000101317 -6.74662e-11 0)
(-0.000101446 -6.65107e-11 0)
(-0.00010158 -6.33028e-11 0)
(-0.000101716 -5.76659e-11 0)
(-0.000101857 -4.95443e-11 0)
(-0.000102002 -3.90473e-11 0)
(-0.000102152 -2.65092e-11 0)
(-0.000102306 -1.25491e-11 0)
(-0.000102465 1.87889e-12 0)
(-0.00010263 1.54256e-11 0)
(-0.0001028 2.63151e-11 0)
(-0.000102977 3.24354e-11 0)
(-0.000103161 3.15897e-11 0)
(-0.000103351 2.19145e-11 0)
(-0.000103549 2.38531e-12 0)
(-0.000103756 -2.68258e-11 0)
(-0.000103971 -6.50751e-11 0)
(-0.000104195 -1.13918e-10 0)
(-0.000104429 -1.80794e-10 0)
(-0.000104672 -2.70765e-10 0)
(-0.000104928 -3.60055e-10 0)
(-0.000105198 -4.08554e-10 0)
(-0.000105483 -4.53849e-10 0)
(-0.00010578 -6.18348e-10 0)
(-0.000106093 -9.88875e-10 0)
(-0.000106433 -1.44164e-09 0)
(-0.000106816 -1.36554e-09 0)
(-0.000107224 -5.20036e-10 0)
(-0.000107604 -2.20949e-09 0)
(-0.000108045 -3.15572e-09 0)
(-0.00010861 -2.74416e-09 0)
(-0.0001093 -8.65141e-09 0)
(-0.000110425 -4.77168e-08 0)
(-0.00011391 2.29787e-07 0)
(-0.000114921 -3.73148e-08 0)
(-0.000130064 1.85715e-06 0)
(-0.0147104 -1.77601e-06 0)
(-0.132121 -0.000157969 0)
(-0.23848 4.1545e-05 0)
(-0.298686 -9.13347e-06 0)
(-0.334981 1.1421e-05 0)
(-0.355507 1.79358e-06 0)
(-0.366628 2.08118e-06 0)
(-0.37258 1.20129e-06 0)
(-0.375673 5.18025e-07 0)
(-0.377075 2.5029e-07 0)
(-0.377389 1.39038e-07 0)
(-0.376943 8.21926e-08 0)
(-0.375929 4.99561e-08 0)
(-0.374469 3.01454e-08 0)
(-0.372642 1.7805e-08 0)
(-0.370507 9.98364e-09 0)
(-0.368107 4.90728e-09 0)
(-0.365476 1.56588e-09 0)
(-0.362641 -6.5324e-10 0)
(-0.359625 -2.11698e-09 0)
(-0.356448 -3.06994e-09 0)
(-0.353127 -3.66341e-09 0)
(-0.349676 -4.00531e-09 0)
(-0.346108 -4.16421e-09 0)
(-0.342435 -4.19263e-09 0)
(-0.338668 -4.12964e-09 0)
(-0.334815 -4.00563e-09 0)
(-0.330886 -3.84622e-09 0)
(-0.326887 -3.67025e-09 0)
(-0.322826 -3.49227e-09 0)
(-0.318709 -3.32062e-09 0)
(-0.314542 -3.16088e-09 0)
(-0.31033 -3.01521e-09 0)
(-0.306078 -2.88638e-09 0)
(-0.30179 -2.77769e-09 0)
(-0.297471 -2.69591e-09 0)
(-0.293125 -2.65084e-09 0)
(-0.288754 -2.65303e-09 0)
(-0.284364 -2.69589e-09 0)
(-0.279957 -2.71162e-09 0)
(-0.275535 -2.51942e-09 0)
(-0.271103 -1.88223e-09 0)
(-0.266663 -7.99791e-10 0)
(-0.262218 1.93059e-10 0)
(-0.257771 3.69702e-10 0)
(-0.253324 -2.41525e-10 0)
(-0.24888 -7.31226e-10 0)
(-0.244441 -6.27315e-10 0)
(-0.240011 -3.01513e-10 0)
(-0.235591 -8.67311e-11 0)
(-0.231183 -5.87092e-11 0)
(-0.226791 -1.44807e-10 0)
(-0.222372 -8.16917e-11 0)
(-0.217884 9.7474e-11 0)
(-0.213329 4.92954e-11 0)
(-0.208711 -1.96387e-10 0)
(-0.204032 -4.20543e-11 0)
(-0.199297 1.98518e-10 0)
(-0.19451 -4.00509e-11 0)
(-0.189678 -1.5112e-10 0)
(-0.184807 8.5062e-11 0)
(-0.179906 6.07622e-11 0)
(-0.174985 -7.75475e-11 0)
(-0.170058 1.94793e-11 0)
(-0.165139 4.57158e-11 0)
(-0.160249 -5.08229e-11 0)
(-0.155412 1.10101e-11 0)
(-0.150659 6.14494e-11 0)
(-0.146034 -4.80237e-11 0)
(-0.141592 -1.17093e-11 0)
(-0.137419 5.20883e-11 0)
(-0.133652 5.26189e-11 0)
(-0.130546 -2.30142e-10 0)
(-0.12921 5.04978e-10 0)
(-0.129034 -7.92763e-10 0)
(-0.12898 1.09043e-09 0)
(-0.128934 -1.36238e-09 0)
(-0.128893 1.66069e-09 0)
(-0.128856 -1.94905e-09 0)
(-0.128824 2.26729e-09 0)
(-0.128795 -2.57832e-09 0)
(-0.12877 2.91659e-09 0)
(-0.128748 -3.24507e-09 0)
(-0.128729 3.59763e-09 0)
(-0.128712 -3.9401e-09 0)
(-0.128698 4.30261e-09 0)
(-0.128685 -4.65248e-09 0)
(-0.128674 5.02135e-09 0)
(-0.128665 -5.38941e-09 0)
(-0.128657 5.78943e-09 0)
(-0.12865 -6.1967e-09 0)
(-0.128644 6.61884e-09 0)
(-0.128639 -7.0039e-09 0)
(-0.128634 7.42178e-09 0)
(-0.128631 -7.80153e-09 0)
(-0.128628 8.20662e-09 0)
(-0.128625 -8.61608e-09 0)
(-0.128623 9.05034e-09 0)
(-0.128621 -9.48971e-09 0)
(-0.12862 9.95336e-09 0)
(-0.128619 -1.04229e-08 0)
(-0.128618 1.09162e-08 0)
(-0.128617 -1.14162e-08 0)
(-0.128616 1.19394e-08 0)
(-0.128616 -1.24702e-08 0)
(-0.128615 1.30238e-08 0)
(-0.128615 -1.35858e-08 0)
(-0.128615 1.417e-08 0)
(-0.128615 -1.47636e-08 0)
(-0.128614 1.53788e-08 0)
(-0.128614 -1.60044e-08 0)
(-0.128614 1.66511e-08 0)
(-0.128614 -1.7309e-08 0)
(-0.128614 1.79877e-08 0)
(-0.128614 -1.86784e-08 0)
(-0.128614 1.93895e-08 0)
(-0.128614 -2.01134e-08 0)
(-0.128614 2.08574e-08 0)
(-0.128614 -2.16149e-08 0)
(-0.128614 2.23924e-08 0)
(-0.128614 -2.31839e-08 0)
(-0.128614 2.39953e-08 0)
(-0.128614 -2.48213e-08 0)
(-0.128614 2.56672e-08 0)
(-0.128614 -2.65281e-08 0)
(-0.128614 2.74089e-08 0)
(-0.128614 -2.83052e-08 0)
(-0.128614 2.92214e-08 0)
(-0.128614 -3.01534e-08 0)
(-0.128614 3.11054e-08 0)
(-0.128614 -3.20736e-08 0)
(-0.128614 3.30619e-08 0)
(-0.128614 -3.40667e-08 0)
(-0.128614 3.50916e-08 0)
(-0.128614 -3.61334e-08 0)
(-0.128614 3.71953e-08 0)
(-0.128614 -3.82745e-08 0)
(-0.128614 3.93736e-08 0)
(-0.128614 -4.04904e-08 0)
(-0.128614 4.16272e-08 0)
(-0.128614 -4.27818e-08 0)
(-0.128614 4.39564e-08 0)
(-0.128614 -4.5149e-08 0)
(-0.128614 4.63614e-08 0)
(-0.128614 -4.75921e-08 0)
(-0.128614 4.88422e-08 0)
(-0.128614 -5.01108e-08 0)
(-0.128614 5.13986e-08 0)
(-0.128614 -5.27048e-08 0)
(-0.128614 5.40297e-08 0)
(-0.128614 -5.53728e-08 0)
(-0.128614 5.67341e-08 0)
(-0.128614 -5.8113e-08 0)
(-0.128614 5.95094e-08 0)
(-0.128614 -6.09225e-08 0)
(-0.128614 6.23518e-08 0)
(-0.128614 -6.37961e-08 0)
(-0.128614 6.52546e-08 0)
(-0.128614 -6.67252e-08 0)
(-0.128614 6.82059e-08 0)
(-0.128614 -6.96924e-08 0)
(-0.128614 6.24495e-08 0)
(-0.128614 -6.24849e-08 0)
(-0.128614 6.24464e-08 0)
(-0.128614 -6.23857e-08 0)
(-0.128614 6.23109e-08 0)
(-0.128614 -6.22253e-08 0)
(-0.128614 6.21311e-08 0)
(-0.128614 -6.20294e-08 0)
(-0.128614 6.19218e-08 0)
(-0.128614 -6.18086e-08 0)
(-0.128614 6.1691e-08 0)
(-0.128614 -6.15692e-08 0)
(-0.128614 6.14441e-08 0)
(-0.128614 -6.13157e-08 0)
(-0.128614 6.1185e-08 0)
(-0.128614 -6.10519e-08 0)
(-0.128614 6.0917e-08 0)
(-0.128614 -6.07804e-08 0)
(-0.128614 6.06429e-08 0)
(-0.128614 -6.05038e-08 0)
(-0.128614 6.03649e-08 0)
(-0.128614 -6.02242e-08 0)
(-0.128614 6.00849e-08 0)
(-0.128614 -5.99437e-08 0)
(-0.128614 5.98051e-08 0)
(-0.128614 -5.96643e-08 0)
(-0.128614 5.9527e-08 0)
(-0.128614 -5.93876e-08 0)
(-0.128614 5.92527e-08 0)
(-0.128614 -5.91155e-08 0)
(-0.128614 5.89836e-08 0)
(-0.128614 -5.88498e-08 0)
(-0.128614 5.87216e-08 0)
(-0.128614 -5.85924e-08 0)
(-0.128614 5.84685e-08 0)
(-0.128614 -5.83447e-08 0)
(-0.128614 5.82264e-08 0)
(-0.128614 -5.81091e-08 0)
(-0.128614 5.79969e-08 0)
(-0.128614 -5.78876e-08 0)
(-0.128614 5.77823e-08 0)
(-0.128614 -5.76825e-08 0)
(-0.128614 5.75849e-08 0)
(-0.128614 -5.74969e-08 0)
(-0.128614 5.74082e-08 0)
(-0.128614 -5.73341e-08 0)
(-0.128614 5.72569e-08 0)
(-0.128614 -5.72002e-08 0)
(-0.128614 5.71389e-08 0)
(-0.128614 -5.71042e-08 0)
)
;

boundaryField
{
    inandouthalf11
    {
        type            cyclic;
    }
    inandouthalf12
    {
        type            cyclic;
    }
    inandouthalf21
    {
        type            cyclic;
    }
    inandouthalf22
    {
        type            cyclic;
    }
    inandouthalf31
    {
        type            cyclic;
    }
    inandouthalf32
    {
        type            cyclic;
    }
    inandouthalf41
    {
        type            cyclic;
    }
    inandouthalf42
    {
        type            cyclic;
    }
    top
    {
        type            symmetryPlane;
    }
    walls
    {
        type            calculated;
        value           uniform (0 0 0);
    }
    frontAndBackPlanes
    {
        type            empty;
    }
}


// ************************************************************************* //
