/*--------------------------------*- C++ -*----------------------------------*\
| =========                 |                                                 |
| \\      /  F ield         | OpenFOAM: The Open Source CFD Toolbox           |
|  \\    /   O peration     | Version:  2.4.x                                 |
|   \\  /    A nd           | Web:      www.OpenFOAM.org                      |
|    \\/     M anipulation  |                                                 |
\*---------------------------------------------------------------------------*/
FoamFile
{
    version     2.0;
    format      ascii;
    class       volScalarField;
    location    "2.9";
    object      alpha_0;
}
// * * * * * * * * * * * * * * * * * * * * * * * * * * * * * * * * * * * * * //

dimensions      [0 0 0 0 0 0 0];

internalField   nonuniform List<scalar> 
360
(
0.610092
0.61029
0.610409
0.610428
0.610415
0.610386
0.610338
0.610284
0.610232
0.610182
0.610134
0.610092
0.610059
0.610038
0.610027
0.610022
0.610019
0.610018
0.610017
0.610015
0.610015
0.610013
0.610012
0.61001
0.610008
0.610006
0.610004
0.610002
0.609999
0.609996
0.609993
0.60999
0.609987
0.609982
0.609979
0.609974
0.60997
0.609964
0.609958
0.609953
0.609945
0.609938
0.609931
0.609922
0.609913
0.609903
0.609893
0.609882
0.60987
0.609856
0.609843
0.609827
0.609812
0.609794
0.609776
0.609756
0.609736
0.609713
0.60969
0.609666
0.60964
0.609614
0.609587
0.609559
0.60953
0.609501
0.609471
0.60944
0.609408
0.609374
0.609339
0.609302
0.609265
0.609226
0.609186
0.609145
0.609104
0.609061
0.609018
0.608974
0.608929
0.608883
0.608835
0.608787
0.608736
0.608685
0.608633
0.608579
0.608524
0.608469
0.608412
0.608354
0.608295
0.608234
0.608172
0.608108
0.608043
0.607977
0.607909
0.607839
0.607768
0.607695
0.60762
0.607544
0.607465
0.607385
0.607303
0.607219
0.607132
0.607043
0.606952
0.606859
0.606762
0.606664
0.606562
0.606457
0.606349
0.606238
0.606124
0.606005
0.605883
0.605757
0.605627
0.605492
0.605352
0.605207
0.605057
0.604901
0.604739
0.60457
0.604395
0.604212
0.604022
0.603822
0.603611
0.603389
0.603158
0.602915
0.602647
0.602342
0.602012
0.601701
0.601328
0.600837
0.600235
0.599301
0.595254
0.59489
0.592345
0.481411
0.134701
0.0552743
0.0350716
0.0264014
0.0215807
0.0183603
0.0159855
0.0141268
0.0126092
0.0113318
0.0102322
0.00926999
0.0084173
0.00765436
0.00696657
0.0063429
0.00577473
0.00525523
0.00477884
0.00434096
0.00393773
0.00356582
0.00322237
0.00290488
0.00261122
0.00233978
0.00208952
0.00186006
0.00165141
0.00146358
0.00129611
0.00114782
0.00101692
0.000901198
0.000798317
0.000705912
0.000621558
0.00054272
0.000466828
0.000391763
0.000317006
0.000244854
0.00018023
0.000127981
8.99238e-05
6.43619e-05
4.78328e-05
3.70309e-05
2.96378e-05
2.42851e-05
2.02663e-05
1.71466e-05
1.45872e-05
1.23918e-05
1.06031e-05
9.18359e-06
7.90259e-06
6.75247e-06
5.84884e-06
5.08608e-06
4.37299e-06
3.77143e-06
3.26927e-06
2.8093e-06
2.41925e-06
2.09791e-06
1.79025e-06
1.52761e-06
1.32352e-06
1.13231e-06
9.60991e-07
8.20985e-07
6.97128e-07
5.93546e-07
5.04405e-07
4.20786e-07
3.54466e-07
2.98864e-07
2.46869e-07
2.06209e-07
1.70581e-07
1.40347e-07
1.14974e-07
9.42155e-08
7.6606e-08
6.15256e-08
4.93145e-08
3.94139e-08
3.05319e-08
2.41529e-08
2.1346e-08
6.06409e-08
7.58061e-13
3.77941e-13
3.20069e-13
2.34627e-13
1.98713e-13
1.58427e-13
1.40577e-13
1.13374e-13
9.70638e-14
6.49812e-14
4.76544e-14
3.78451e-14
3.37335e-14
2.94859e-14
2.2592e-14
1.41375e-14
1.05485e-14
8.97372e-15
7.8325e-15
5.98867e-15
3.64437e-15
2.62573e-15
2.18196e-15
1.83226e-15
1.25904e-15
7.41756e-16
5.51718e-16
4.56094e-16
3.50566e-16
2.01552e-16
1.3213e-16
1.02928e-16
8.08743e-17
4.98206e-17
3.16078e-17
2.3919e-17
1.64411e-17
7.61424e-18
4.05783e-18
2.13778e-18
7.68649e-19
3.23082e-19
1.442e-19
6.44195e-20
2.85e-20
1.2383e-20
5.2482e-21
2.15858e-21
8.57659e-22
3.27861e-22
1.20125e-22
4.20244e-23
1.39834e-23
4.40753e-24
1.31011e-24
3.65409e-25
9.50848e-26
2.29297e-26
5.08385e-27
1.02643e-27
1.86488e-28
3.00323e-29
4.20212e-30
4.96875e-31
4.76448e-32
3.46072e-33
1.66245e-34
3.42959e-36
2.30368e-38
5.16862e-40
5.74516e-42
7.76692e-53
5.2815e-64
2.6559e-75
9.8076e-87
3.21462e-98
1.00043e-109
4.8857e-121
6.4273e-129
1.32695e-139
2.21169e-147
4.48705e-158
7.60805e-166
1.92316e-176
2.61643e-184
8.75174e-195
9.00419e-203
5.95373e-213
3.12092e-221
3.9604e-231
1.09429e-239
2.0187e-249
3.88134e-258
9.5919e-268
1.39484e-276
4.24681e-286
5.07501e-295
1.82154e-304
1.86928e-313
2.43574e-321
6.08689e-321
8.5424e-321
0
0
0
0
0
0
0
0
0
0
0
0
0
0
0
0
)
;

boundaryField
{
    inandouthalf11
    {
        type            cyclic;
    }
    inandouthalf12
    {
        type            cyclic;
    }
    inandouthalf21
    {
        type            cyclic;
    }
    inandouthalf22
    {
        type            cyclic;
    }
    inandouthalf31
    {
        type            cyclic;
    }
    inandouthalf32
    {
        type            cyclic;
    }
    inandouthalf41
    {
        type            cyclic;
    }
    inandouthalf42
    {
        type            cyclic;
    }
    top
    {
        type            symmetryPlane;
    }
    walls
    {
        type            zeroGradient;
    }
    frontAndBackPlanes
    {
        type            empty;
    }
}


// ************************************************************************* //
