/*--------------------------------*- C++ -*----------------------------------*\
| =========                 |                                                 |
| \\      /  F ield         | OpenFOAM: The Open Source CFD Toolbox           |
|  \\    /   O peration     | Version:  2.4.x                                 |
|   \\  /    A nd           | Web:      www.OpenFOAM.org                      |
|    \\/     M anipulation  |                                                 |
\*---------------------------------------------------------------------------*/
FoamFile
{
    version     2.0;
    format      ascii;
    class       volScalarField;
    location    "2.9";
    object      ddt0(epsilon);
}
// * * * * * * * * * * * * * * * * * * * * * * * * * * * * * * * * * * * * * //

dimensions      [0 2 -4 0 0 0 0];

internalField   nonuniform List<scalar> 
360
(
0
0
0
0
0
0
0
0
0
0
0
0
0
0
0
0
0
0
0
0
0
0
0
0
0
0
0
0
0
0
0
0
0
0
0
0
0
0
0
0
0
0
0
0
0
0
0
0
0
0
0
0
0
0
0
0
0
0
0
0
0
0
0
0
0
0
0
0
0
0
0
0
0
0
0
0
0
0
0
0
0
0
0
0
0
0
0
0
0
0
0
0
0
0
0
0
0
0
0
0
0
0
0
0
0
0
0
0
0
0
0
0
0
0
0
0
0
0
0
0
0
0
0
0
0
0
0
0
0
5.68069e-20
4.26143e-19
2.15175e-18
8.49835e-18
1.89337e-17
-7.33398e-17
-1.30517e-15
-1.06303e-14
-6.57063e-14
-3.39002e-13
-1.51297e-12
-5.97361e-12
-2.1671e-11
-8.08867e-11
-3.87729e-10
-2.81115e-09
-2.88973e-08
-3.87314e-07
-6.58361e-06
-0.000153901
-0.00422197
-0.00137624
-0.046087
-0.0695024
-0.0842081
-0.094283
-0.101416
-0.106591
-0.110346
-0.113026
-0.114863
-0.116024
-0.116624
-0.11675
-0.116464
-0.115815
-0.114836
-0.113556
-0.111994
-0.110167
-0.108087
-0.105762
-0.103202
-0.100411
-0.0973947
-0.0941578
-0.0907043
-0.087038
-0.0831632
-0.0790846
-0.0748073
-0.0703371
-0.0656809
-0.0608463
-0.0558421
-0.0506781
-0.0453653
-0.0399165
-0.0343462
-0.0286712
-0.0229114
-0.0170904
-0.0112363
-0.00538266
0.000431055
0.00615865
0.0117466
0.0171331
0.0222465
0.0270035
0.0313065
0.0350399
0.0380965
0.0402936
0.0413456
0.0408744
0.0383385
0.0328233
0.0234009
0.00662208
0.000334142
5.42996e-06
7.69576e-08
1.03804e-09
1.33447e-11
1.63484e-13
1.90845e-15
2.1214e-17
2.06782e-19
0
0
0
0
0
0
0
0
0
0
0
0
0
0
0
0
0
0
0
0
0
0
0
0
0
0
0
0
0
0
0
0
0
0
0
0
0
0
0
0
0
0
0
0
0
0
0
0
0
0
0
0
0
0
0
0
0
0
0
0
0
0
0
0
0
0
0
0
0
0
0
0
0
0
0
0
0
0
0
0
0
0
0
0
0
0
0
0
0
0
0
0
0
0
0
0
0
0
0
0
0
0
0
0
0
0
0
0
0
0
0
0
0
0
0
0
0
0
0
0
0
0
0
0
0
0
0
0
0
0
0
0
0
0
0
0
0
0
0
0
0
0
)
;

boundaryField
{
    inandouthalf11
    {
        type            cyclic;
    }
    inandouthalf12
    {
        type            cyclic;
    }
    inandouthalf21
    {
        type            cyclic;
    }
    inandouthalf22
    {
        type            cyclic;
    }
    inandouthalf31
    {
        type            cyclic;
    }
    inandouthalf32
    {
        type            cyclic;
    }
    inandouthalf41
    {
        type            cyclic;
    }
    inandouthalf42
    {
        type            cyclic;
    }
    top
    {
        type            symmetryPlane;
    }
    walls
    {
        type            calculated;
        value           uniform 0;
    }
    frontAndBackPlanes
    {
        type            empty;
    }
}


// ************************************************************************* //
