/*--------------------------------*- C++ -*----------------------------------*\
| =========                 |                                                 |
| \\      /  F ield         | OpenFOAM: The Open Source CFD Toolbox           |
|  \\    /   O peration     | Version:  2.4.x                                 |
|   \\  /    A nd           | Web:      www.OpenFOAM.org                      |
|    \\/     M anipulation  |                                                 |
\*---------------------------------------------------------------------------*/
FoamFile
{
    version     2.0;
    format      ascii;
    class       volScalarField;
    location    "2.9";
    object      ddt0(alpha);
}
// * * * * * * * * * * * * * * * * * * * * * * * * * * * * * * * * * * * * * //

dimensions      [0 0 -1 0 0 0 0];

internalField   nonuniform List<scalar> 
360
(
0.000167034
0.000464582
0.000606289
0.000614008
0.000599119
0.000633019
0.000741316
0.000918723
0.00111931
0.0012584
0.00123777
0.00102104
0.000690799
0.000385161
0.000185651
8.48444e-05
4.13572e-05
2.37891e-05
1.69191e-05
1.47362e-05
1.48211e-05
1.62031e-05
1.81621e-05
2.01581e-05
2.17552e-05
2.27445e-05
2.31298e-05
2.31002e-05
2.28317e-05
2.24865e-05
2.21689e-05
2.19903e-05
2.18979e-05
2.19653e-05
2.20934e-05
2.22912e-05
2.25165e-05
2.27676e-05
2.30555e-05
2.32906e-05
2.3551e-05
2.38186e-05
2.40708e-05
2.43883e-05
2.47306e-05
2.51084e-05
2.55445e-05
2.60108e-05
2.65689e-05
2.72585e-05
2.7991e-05
2.88134e-05
2.9699e-05
3.06942e-05
3.17525e-05
3.29569e-05
3.42172e-05
3.55764e-05
3.6979e-05
3.8355e-05
3.97531e-05
4.1024e-05
4.21909e-05
4.31799e-05
4.40462e-05
4.48464e-05
4.57163e-05
4.67609e-05
4.80788e-05
4.97216e-05
5.17788e-05
5.42075e-05
5.68274e-05
5.96073e-05
6.23256e-05
6.48738e-05
6.70592e-05
6.8874e-05
7.03631e-05
7.16342e-05
7.27962e-05
7.40096e-05
7.53746e-05
7.69329e-05
7.86825e-05
8.05575e-05
8.24786e-05
8.43351e-05
8.60486e-05
8.75765e-05
8.89074e-05
9.00619e-05
9.10892e-05
9.20343e-05
9.29348e-05
9.38147e-05
9.46839e-05
9.55414e-05
9.63816e-05
9.71994e-05
9.79899e-05
9.87508e-05
9.94805e-05
0.000100176
0.00010083
0.000101435
0.00010198
0.000102451
0.000102835
0.000103117
0.000103283
0.000103321
0.000103218
0.00010297
0.000102579
0.000102057
0.000101432
0.000100747
0.000100067
9.94771e-05
9.90861e-05
9.90253e-05
9.94503e-05
0.000100543
0.000102517
0.000105619
0.000110118
0.000116283
0.000124303
0.000134189
0.000145677
0.000158233
0.000171159
0.000183578
0.000193939
0.000199487
0.000197375
0.000186818
0.000168331
0.000140312
0.000100161
5.23822e-05
1.50157e-05
-7.66728e-06
-2.26102e-05
-0.00018874
0.00296931
0.00457687
0.0106103
1.30431
-0.00652141
-0.174918
-0.148613
-0.125227
-0.106302
-0.0914754
-0.0796682
-0.0699849
-0.0618652
-0.054938
-0.0489446
-0.0437013
-0.0390743
-0.0349632
-0.0312905
-0.0279956
-0.0250293
-0.0223517
-0.0199294
-0.017734
-0.0157417
-0.0139313
-0.0122844
-0.0107844
-0.00941717
-0.00817202
-0.00704368
-0.00603298
-0.00514387
-0.00437764
-0.00372787
-0.00317969
-0.00271391
-0.0023123
-0.00195973
-0.00164299
-0.0013489
-0.00106365
-0.000775068
-0.000480756
-0.000200553
2.29322e-05
0.000150891
0.000183375
0.000157582
0.000115023
7.86998e-05
5.39698e-05
3.84252e-05
2.84545e-05
2.16019e-05
1.68432e-05
1.36268e-05
1.10243e-05
8.60988e-06
6.95138e-06
5.92322e-06
4.7875e-06
3.73442e-06
3.11817e-06
2.61713e-06
2.09583e-06
1.72585e-06
1.43603e-06
1.14597e-06
9.50049e-07
8.01813e-07
6.27461e-07
5.01487e-07
4.22203e-07
3.38898e-07
2.68432e-07
2.14082e-07
1.68018e-07
1.34801e-07
1.05433e-07
7.91972e-08
6.06291e-08
4.51938e-08
3.25858e-08
2.28757e-08
1.52728e-08
9.54936e-09
5.21679e-09
1.71734e-09
-7.07349e-10
-2.12427e-09
-3.5589e-09
-4.72808e-09
-3.5533e-09
7.65352e-08
-1.08808e-07
-5.37138e-12
-2.85832e-12
-2.57929e-12
-1.70472e-12
-1.27691e-12
-8.13286e-13
-6.76365e-13
-6.43215e-13
-6.97073e-13
-7.01942e-13
-4.02543e-13
-1.65902e-13
-1.11457e-13
-1.45275e-13
-2.1452e-13
-1.40504e-13
-5.74962e-14
-3.281e-14
-3.52024e-14
-5.24653e-14
-3.61381e-14
-1.46529e-14
-8.66545e-15
-9.84296e-15
-1.29632e-14
-5.82702e-15
-2.85602e-15
-1.98344e-15
-2.57928e-15
-2.07506e-15
-8.04789e-16
-4.67251e-16
-4.73034e-16
-4.59848e-16
-1.95564e-16
-1.27422e-16
-1.49508e-16
-8.52802e-17
-4.34426e-17
-2.94186e-17
-1.07846e-17
-4.12409e-18
-1.79818e-18
-7.94281e-19
-3.50648e-19
-1.5308e-19
-6.54636e-20
-2.72509e-20
-1.09799e-20
-4.26172e-21
-1.58663e-21
-5.64258e-22
-1.909e-22
-6.11827e-23
-1.84916e-23
-5.24388e-24
-1.38728e-24
-3.40093e-25
-7.66501e-26
-1.57309e-26
-2.90523e-27
-4.75617e-28
-6.76638e-29
-8.1379e-30
-7.94245e-31
-5.8797e-32
-2.88738e-33
-6.16451e-35
-4.39424e-37
-1.00303e-38
-1.13382e-40
-1.53436e-51
-1.04438e-62
-5.23861e-74
-1.93544e-85
-6.32125e-97
-1.97424e-108
-9.64172e-120
-1.2684e-127
-2.61337e-138
-4.36468e-146
-8.86102e-157
-1.50141e-164
-3.79492e-175
-5.16339e-183
-1.72651e-193
-1.77694e-201
-1.17469e-211
-6.15895e-220
-7.81236e-230
-2.15953e-238
-3.9841e-248
-7.65958e-257
-1.8927e-266
-2.75263e-275
-8.38093e-285
-1.00154e-293
-3.59456e-303
-3.68924e-312
-3.3053e-321
0
0
0
0
0
0
0
0
0
0
0
0
0
0
0
0
0
0
)
;

boundaryField
{
    inandouthalf11
    {
        type            cyclic;
    }
    inandouthalf12
    {
        type            cyclic;
    }
    inandouthalf21
    {
        type            cyclic;
    }
    inandouthalf22
    {
        type            cyclic;
    }
    inandouthalf31
    {
        type            cyclic;
    }
    inandouthalf32
    {
        type            cyclic;
    }
    inandouthalf41
    {
        type            cyclic;
    }
    inandouthalf42
    {
        type            cyclic;
    }
    top
    {
        type            symmetryPlane;
    }
    walls
    {
        type            calculated;
        value           uniform 0.000167034;
    }
    frontAndBackPlanes
    {
        type            empty;
    }
}


// ************************************************************************* //
