/*--------------------------------*- C++ -*----------------------------------*\
| =========                 |                                                 |
| \\      /  F ield         | OpenFOAM: The Open Source CFD Toolbox           |
|  \\    /   O peration     | Version:  2.4.x                                 |
|   \\  /    A nd           | Web:      www.OpenFOAM.org                      |
|    \\/     M anipulation  |                                                 |
\*---------------------------------------------------------------------------*/
FoamFile
{
    version     2.0;
    format      ascii;
    class       volScalarField;
    location    "2.9";
    object      mua;
}
// * * * * * * * * * * * * * * * * * * * * * * * * * * * * * * * * * * * * * //

dimensions      [1 -1 -1 0 0 0 0];

internalField   nonuniform List<scalar> 
360
(
498316
186878
146086
146694
149402
139930
118095
94034.1
76071.3
66742.7
66986.7
80226.5
117418
209027
431851
943300
1.93422e+06
3.36257e+06
4.72206e+06
5.42321e+06
5.37951e+06
4.91651e+06
4.37666e+06
3.93609e+06
3.64021e+06
3.47543e+06
3.4089e+06
3.40541e+06
3.43776e+06
3.48321e+06
3.52294e+06
3.54516e+06
3.54786e+06
3.52913e+06
3.49786e+06
3.45745e+06
3.41143e+06
3.36101e+06
3.31025e+06
3.26323e+06
3.21534e+06
3.16824e+06
3.12046e+06
3.06736e+06
3.01123e+06
2.9518e+06
2.88903e+06
2.82235e+06
2.74693e+06
2.66399e+06
2.57885e+06
2.49105e+06
2.40128e+06
2.30955e+06
2.21658e+06
2.12193e+06
2.02851e+06
1.93695e+06
1.84995e+06
1.76886e+06
1.69377e+06
1.62733e+06
1.56954e+06
1.52038e+06
1.4777e+06
1.43818e+06
1.3978e+06
1.35363e+06
1.30402e+06
1.24817e+06
1.18635e+06
1.12189e+06
1.05866e+06
998742
944557
897536
858348
825992
798802
775051
753059
731202
708555
684924
660618
636315
612781
590722
570516
552225
535696
520614
506579
493253
480394
467855
455576
443553
431799
420326
409137
398227
387587
377215
367117
357307
347804
338629
329801
321340
313260
305570
298273
291354
284782
278501
272420
266410
260303
253886
246914
239117
230229
220013
208295
195010
180259
164365
147902
131636
116347
102610
90668.5
80570.7
72483.4
66784.4
63729.7
63147.4
64973.7
71380.5
90613.8
144319
289085
741742
2.62729e+06
6.07076e+06
729.318
229.138
21.8856
0.00597855
0.00185455
0.00240134
0.00288885
0.00325784
0.00355159
0.00379608
0.00400524
0.0041873
0.00434753
0.00448958
0.00461607
0.00472899
0.00482986
0.00491989
0.00500007
0.0050712
0.00513396
0.00518893
0.00523661
0.00527744
0.00531182
0.00534011
0.00536267
0.00537982
0.00539188
0.00539915
0.00540195
0.00540058
0.00539534
0.00538654
0.00537447
0.00535945
0.00534179
0.00532183
0.00529993
0.00527649
0.00525189
0.00522656
0.00520088
0.00517522
0.00514985
0.00512495
0.00510056
0.00507659
0.00505288
0.00502926
0.0050056
0.0049818
0.00495781
0.00493361
0.00490919
0.00488429
0.00485865
0.00483225
0.00480507
0.00477706
0.00474821
0.00471847
0.00468778
0.0046561
0.00462334
0.00458941
0.00455422
0.00451767
0.00447966
0.00444009
0.00439884
0.00435577
0.00431076
0.00426365
0.00421427
0.00416245
0.00410796
0.00405059
0.00399006
0.00392607
0.00385828
0.00378625
0.00370951
0.00362748
0.00353942
0.00344447
0.00334151
0.0032291
0.00310533
0.00296755
0.00281195
0.00263266
0.00241985
0.00215456
0.00179025
0
0
0
0
0
0
0
0
0
0
0
0
0
0
0
0
0
0
0
0
0
0
0
0
0
0
0
0
0
0
0
0
0
0
0
0
0
0
0
0
0
0
0
0
0
0
0
0
0
0
0
0
0
0
0
0
0
0
0
0
0
0
0
0
0
0
0
0
0
0
0
0
0
0
0
0
0
0
0
0
0
0
0
0
0
0
0
0
0
0
0
0
0
0
0
0
0
0
0
0
0
0
0
0
0
0
0
0
0
0
0
0
0
0
0
0
0
0
0
)
;

boundaryField
{
    inandouthalf11
    {
        type            cyclic;
    }
    inandouthalf12
    {
        type            cyclic;
    }
    inandouthalf21
    {
        type            cyclic;
    }
    inandouthalf22
    {
        type            cyclic;
    }
    inandouthalf31
    {
        type            cyclic;
    }
    inandouthalf32
    {
        type            cyclic;
    }
    inandouthalf41
    {
        type            cyclic;
    }
    inandouthalf42
    {
        type            cyclic;
    }
    top
    {
        type            symmetryPlane;
    }
    walls
    {
        type            calculated;
        value           uniform 1e+30;
    }
    frontAndBackPlanes
    {
        type            empty;
    }
}


// ************************************************************************* //
