/*--------------------------------*- C++ -*----------------------------------*\
| =========                 |                                                 |
| \\      /  F ield         | OpenFOAM: The Open Source CFD Toolbox           |
|  \\    /   O peration     | Version:  2.4.x                                 |
|   \\  /    A nd           | Web:      www.OpenFOAM.org                      |
|    \\/     M anipulation  |                                                 |
\*---------------------------------------------------------------------------*/
FoamFile
{
    version     2.0;
    format      ascii;
    class       volScalarField;
    location    "2.9";
    object      pa;
}
// * * * * * * * * * * * * * * * * * * * * * * * * * * * * * * * * * * * * * //

dimensions      [1 -1 -2 0 0 0 0];

internalField   nonuniform List<scalar> 
360
(
2.88515e-16
2.92086e-16
2.95026e-16
2.95085e-16
2.94785e-16
2.9541e-16
2.97694e-16
3.02368e-16
3.09105e-16
3.14614e-16
3.13522e-16
3.05059e-16
2.95632e-16
2.90287e-16
2.88444e-16
2.87996e-16
2.87902e-16
2.8788e-16
2.87873e-16
2.87867e-16
2.87866e-16
2.87863e-16
2.87859e-16
2.87856e-16
2.87852e-16
2.87847e-16
2.87842e-16
2.87834e-16
2.87826e-16
2.87817e-16
2.87809e-16
2.87799e-16
2.87791e-16
2.87778e-16
2.87768e-16
2.87755e-16
2.87742e-16
2.87727e-16
2.87709e-16
2.87694e-16
2.87674e-16
2.87653e-16
2.87633e-16
2.87608e-16
2.87583e-16
2.87555e-16
2.87525e-16
2.87496e-16
2.87461e-16
2.87423e-16
2.87385e-16
2.87342e-16
2.87297e-16
2.87249e-16
2.87199e-16
2.87143e-16
2.87086e-16
2.87024e-16
2.8696e-16
2.86894e-16
2.86822e-16
2.86749e-16
2.86672e-16
2.86595e-16
2.86515e-16
2.86434e-16
2.86349e-16
2.86262e-16
2.86173e-16
2.86081e-16
2.85984e-16
2.85884e-16
2.85784e-16
2.85679e-16
2.85572e-16
2.85461e-16
2.85349e-16
2.85234e-16
2.85116e-16
2.84995e-16
2.84871e-16
2.84743e-16
2.84612e-16
2.84479e-16
2.84342e-16
2.84202e-16
2.8406e-16
2.83915e-16
2.83766e-16
2.83614e-16
2.83459e-16
2.833e-16
2.83136e-16
2.82969e-16
2.82798e-16
2.82623e-16
2.82444e-16
2.82261e-16
2.82074e-16
2.81879e-16
0
0
0
0
0
0
0
0
0
0
0
0
0
0
0
2.78075e-16
2.77777e-16
2.7747e-16
2.77154e-16
2.76829e-16
2.76495e-16
2.76151e-16
2.75797e-16
2.75434e-16
2.75062e-16
2.7468e-16
2.74291e-16
2.73893e-16
2.73488e-16
3.12922e-16
1.48094e-15
9.52872e-15
5.90748e-14
3.4181e-13
1.83325e-12
9.05682e-12
4.08976e-11
1.67437e-10
6.17615e-10
2.04562e-09
6.06418e-09
1.61934e-08
4.31433e-08
1.4825e-07
7.96628e-07
6.46171e-06
7.64736e-05
0.00141047
0.0394457
0.407663
0.199343
0.158992
0.143816
0.13595
0.130941
0.126464
0.121969
0.117331
0.11251
0.107509
0.102358
0.0970994
0.0917777
0.0864361
0.0811146
0.0758493
0.0706724
0.0656115
0.0606903
0.0559284
0.0513421
0.0469437
0.0427426
0.0387455
0.0349578
0.0313858
0.0280393
0.0249324
0.0220805
0.0194956
0.0171799
0.0151236
0.0133061
0.0117004
0.0102768
0.00900494
0.00785352
0.00679017
0.00578251
0.00480431
0.00384918
0.00294423
0.00214651
0.00150989
0.00105097
0.000745155
0.000548548
0.000420615
0.000333388
0.000270506
0.000223505
0.000187181
0.000157572
0.000132404
0.000112018
9.58929e-05
8.15228e-05
6.87875e-05
5.88088e-05
5.04501e-05
4.27683e-05
3.63453e-05
3.10244e-05
2.62332e-05
2.22122e-05
1.89229e-05
1.58492e-05
1.32604e-05
1.12525e-05
9.41755e-06
7.80857e-06
6.50785e-06
5.3823e-06
4.45545e-06
3.67399e-06
2.9674e-06
2.41411e-06
1.96014e-06
1.55415e-06
1.24138e-06
9.77648e-07
7.61787e-07
5.87311e-07
4.49434e-07
3.37952e-07
2.47871e-07
1.78386e-07
1.24971e-07
8.17887e-08
5.1292e-08
3.13205e-08
0
0
0
0
0
0
0
0
0
0
0
0
0
0
0
0
0
0
0
0
0
0
0
0
0
0
0
0
0
0
0
0
0
0
0
0
0
0
0
0
0
0
0
0
0
0
0
0
0
0
0
0
0
0
0
0
0
0
0
0
0
0
0
0
0
0
0
0
0
0
0
0
0
0
0
0
0
0
0
0
0
0
0
0
0
0
0
0
0
0
0
0
0
0
0
0
0
0
0
0
0
0
0
0
0
0
0
0
0
0
0
0
0
0
0
0
0
0
0
)
;

boundaryField
{
    inandouthalf11
    {
        type            cyclic;
    }
    inandouthalf12
    {
        type            cyclic;
    }
    inandouthalf21
    {
        type            cyclic;
    }
    inandouthalf22
    {
        type            cyclic;
    }
    inandouthalf31
    {
        type            cyclic;
    }
    inandouthalf32
    {
        type            cyclic;
    }
    inandouthalf41
    {
        type            cyclic;
    }
    inandouthalf42
    {
        type            cyclic;
    }
    top
    {
        type            symmetryPlane;
    }
    walls
    {
        type            calculated;
        value           uniform 2.88515e-16;
    }
    frontAndBackPlanes
    {
        type            empty;
    }
}


// ************************************************************************* //
