/*--------------------------------*- C++ -*----------------------------------*\
| =========                 |                                                 |
| \\      /  F ield         | OpenFOAM: The Open Source CFD Toolbox           |
|  \\    /   O peration     | Version:  2.4.x                                 |
|   \\  /    A nd           | Web:      www.OpenFOAM.org                      |
|    \\/     M anipulation  |                                                 |
\*---------------------------------------------------------------------------*/
FoamFile
{
    version     2.0;
    format      ascii;
    class       surfaceScalarField;
    location    "2.9";
    object      phia_0;
}
// * * * * * * * * * * * * * * * * * * * * * * * * * * * * * * * * * * * * * //

dimensions      [0 3 -1 0 0 0 0];

internalField   nonuniform List<scalar> 
359
(
-5.46996e-13
-2.06807e-12
-4.05268e-12
-6.06273e-12
-8.0241e-12
-1.00969e-11
-1.25249e-11
-1.55344e-11
-1.9202e-11
-2.33276e-11
-2.73888e-11
-3.07426e-11
-3.30143e-11
-3.42823e-11
-3.48939e-11
-3.51734e-11
-3.53096e-11
-3.53878e-11
-3.54435e-11
-3.54918e-11
-3.55405e-11
-3.55937e-11
-3.56533e-11
-3.57194e-11
-3.57908e-11
-3.58655e-11
-3.59415e-11
-3.60174e-11
-3.60924e-11
-3.61663e-11
-3.62392e-11
-3.63114e-11
-3.63834e-11
-3.64557e-11
-3.65284e-11
-3.66017e-11
-3.66758e-11
-3.67508e-11
-3.68267e-11
-3.69035e-11
-3.69811e-11
-3.70596e-11
-3.7139e-11
-3.72195e-11
-3.73012e-11
-3.73841e-11
-3.74685e-11
-3.75545e-11
-3.76424e-11
-3.77326e-11
-3.78252e-11
-3.79206e-11
-3.8019e-11
-3.81208e-11
-3.82261e-11
-3.83354e-11
-3.84489e-11
-3.8567e-11
-3.86897e-11
-3.88171e-11
-3.89491e-11
-3.90854e-11
-3.92255e-11
-3.93689e-11
-3.95152e-11
-3.96642e-11
-3.98162e-11
-3.99716e-11
-4.01315e-11
-4.02968e-11
-4.04691e-11
-4.06494e-11
-4.08383e-11
-4.10366e-11
-4.12438e-11
-4.14594e-11
-4.16823e-11
-4.19113e-11
-4.21452e-11
-4.23834e-11
-4.26256e-11
-4.28718e-11
-4.31227e-11
-4.33788e-11
-4.36408e-11
-4.3909e-11
-4.41837e-11
-4.44646e-11
-4.47513e-11
-4.50431e-11
-4.53395e-11
-4.56398e-11
-4.59436e-11
-4.62507e-11
-4.65609e-11
-4.68742e-11
-4.71905e-11
-4.75099e-11
-4.78322e-11
-4.81574e-11
-4.84854e-11
-4.88161e-11
-4.91494e-11
-4.94853e-11
-4.98235e-11
-5.0164e-11
-5.05066e-11
-5.08509e-11
-5.11969e-11
-5.1544e-11
-5.1892e-11
-5.22405e-11
-5.25889e-11
-5.29369e-11
-5.3284e-11
-5.36297e-11
-5.39738e-11
-5.43161e-11
-5.46565e-11
-5.49955e-11
-5.53337e-11
-5.56723e-11
-5.60128e-11
-5.63575e-11
-5.67093e-11
-5.70721e-11
-5.74505e-11
-5.785e-11
-5.82769e-11
-5.87374e-11
-5.92369e-11
-5.9779e-11
-6.0365e-11
-6.09937e-11
-6.16582e-11
-6.23426e-11
-6.30217e-11
-6.36681e-11
-6.4257e-11
-6.47568e-11
-6.5124e-11
-6.53351e-11
-6.5432e-11
-6.5466e-11
-6.54745e-11
-6.5474e-11
-7.53276e-11
-9.11229e-11
-1.58064e-10
-1.37517e-08
-3.53538e-08
-5.30414e-08
-6.58326e-08
-7.39143e-08
-7.81548e-08
-8.02363e-08
-8.09354e-08
-8.06858e-08
-7.97687e-08
-7.83702e-08
-7.66158e-08
-7.45931e-08
-7.23653e-08
-6.99788e-08
-6.74686e-08
-6.48616e-08
-6.2179e-08
-5.94382e-08
-5.66539e-08
-5.38394e-08
-5.10075e-08
-4.81716e-08
-4.53462e-08
-4.25477e-08
-3.97933e-08
-3.70978e-08
-3.44675e-08
-3.18929e-08
-2.93442e-08
-2.67744e-08
-2.41296e-08
-2.13637e-08
-1.84487e-08
-1.5377e-08
-1.21596e-08
-8.82525e-09
-5.42486e-09
-2.03816e-09
1.21925e-09
4.19665e-09
6.73028e-09
8.69079e-09
1.00404e-08
1.08482e-08
1.12482e-08
1.13778e-08
1.13414e-08
1.12059e-08
1.10104e-08
1.07771e-08
1.05198e-08
1.02428e-08
9.95072e-09
9.64409e-09
9.32744e-09
9.00695e-09
8.6821e-09
8.35352e-09
8.02694e-09
7.70348e-09
7.3804e-09
7.05688e-09
6.7327e-09
6.40541e-09
6.07441e-09
5.73993e-09
5.39813e-09
5.04798e-09
4.69182e-09
4.32706e-09
3.95088e-09
3.5635e-09
3.16381e-09
2.75194e-09
2.32638e-09
1.88235e-09
1.42073e-09
9.41079e-10
4.38205e-10
-8.77712e-11
-6.39128e-10
-1.21939e-09
-1.83068e-09
-2.47395e-09
-3.15271e-09
-3.87235e-09
-4.63499e-09
-5.44573e-09
-6.31754e-09
-7.2409e-09
-8.19989e-09
-8.25779e-08
-1.57876e-07
-1.57876e-07
-1.57876e-07
-1.57876e-07
-1.57876e-07
-1.57876e-07
-1.57876e-07
-1.57876e-07
-1.57876e-07
-1.57876e-07
-1.57876e-07
-1.57876e-07
-1.57876e-07
-1.57876e-07
-1.57876e-07
-1.57876e-07
-1.57876e-07
-1.57876e-07
-1.57876e-07
-1.57876e-07
-1.57876e-07
-1.57876e-07
-1.57876e-07
-1.57876e-07
-1.57876e-07
-1.57876e-07
-1.57876e-07
-1.57876e-07
-1.57876e-07
-1.57876e-07
-1.57876e-07
-1.57876e-07
-1.57876e-07
-1.57876e-07
-1.57876e-07
-1.57876e-07
-1.57876e-07
-1.57876e-07
-1.57876e-07
-1.57876e-07
-1.57876e-07
-1.57876e-07
-1.57876e-07
-1.57876e-07
-1.57876e-07
-1.57876e-07
-1.57876e-07
-1.57876e-07
-1.57876e-07
-1.57876e-07
-1.57876e-07
-1.57876e-07
-1.57876e-07
-1.57876e-07
-1.57876e-07
-1.57876e-07
-1.57876e-07
-1.57876e-07
-1.57876e-07
-1.57876e-07
-1.57876e-07
-1.57876e-07
-1.57876e-07
-1.57876e-07
-1.57876e-07
-1.57876e-07
-1.57876e-07
-1.57876e-07
-1.57876e-07
-1.57876e-07
-1.57876e-07
-1.57876e-07
-1.57876e-07
-1.57876e-07
-1.57876e-07
-1.57876e-07
-1.57876e-07
-1.57876e-07
-1.57876e-07
-1.57876e-07
-1.57876e-07
-1.57876e-07
-1.57876e-07
-1.57876e-07
-1.57876e-07
-1.57876e-07
-1.57876e-07
-1.57876e-07
-1.57876e-07
-1.57876e-07
-1.57876e-07
-1.57876e-07
-1.57876e-07
-1.57876e-07
-1.57876e-07
-1.57876e-07
-1.57876e-07
-1.57876e-07
-1.57876e-07
-1.57876e-07
-1.57876e-07
-1.57876e-07
-1.57876e-07
-1.57876e-07
-1.57876e-07
-1.57876e-07
-1.57876e-07
-1.57876e-07
-1.57876e-07
-1.57876e-07
-1.57876e-07
-1.57876e-07
-1.57876e-07
-1.57876e-07
-1.57858e-07
-1.57148e-07
-1.32105e-07
)
;

boundaryField
{
    inandouthalf11
    {
        type            cyclic;
        value           nonuniform List<scalar> 
100
(
9.34011e-39
5.35936e-14
1.61906e-13
2.82792e-13
4.00003e-13
5.17524e-13
6.46536e-13
8.00073e-13
9.87311e-13
1.20529e-12
1.43267e-12
1.63433e-12
1.7809e-12
1.86751e-12
1.91062e-12
1.93034e-12
1.93966e-12
1.94475e-12
1.94817e-12
1.95101e-12
1.95382e-12
1.95692e-12
1.96048e-12
1.96461e-12
1.96925e-12
1.97431e-12
1.97965e-12
1.98514e-12
1.99071e-12
1.99632e-12
2.00197e-12
2.00767e-12
2.01346e-12
2.01936e-12
2.02542e-12
2.03164e-12
2.03804e-12
2.04463e-12
2.05143e-12
2.05842e-12
2.06561e-12
2.07301e-12
2.0806e-12
2.08841e-12
2.09645e-12
2.10473e-12
2.11326e-12
2.12207e-12
2.13117e-12
2.14061e-12
2.15043e-12
2.16064e-12
2.17127e-12
2.18237e-12
2.19396e-12
2.20609e-12
2.21879e-12
2.23211e-12
2.24606e-12
2.26065e-12
2.2759e-12
2.29176e-12
2.30822e-12
2.32519e-12
2.34264e-12
2.36051e-12
2.37881e-12
2.39759e-12
2.41695e-12
2.43699e-12
2.45787e-12
2.47976e-12
2.50277e-12
2.52697e-12
2.55237e-12
2.57894e-12
2.60656e-12
2.63507e-12
2.66433e-12
2.69421e-12
2.72464e-12
2.75562e-12
2.78717e-12
2.81937e-12
2.8523e-12
2.88601e-12
2.92053e-12
2.95586e-12
2.99196e-12
3.02873e-12
3.0661e-12
3.10397e-12
3.1423e-12
3.18101e-12
3.22008e-12
3.25949e-12
3.29923e-12
3.33927e-12
3.37962e-12
3.42025e-12
)
;
    }
    inandouthalf12
    {
        type            cyclic;
        value           nonuniform List<scalar> 
100
(
-9.34011e-39
-5.35936e-14
-1.61906e-13
-2.82792e-13
-4.00003e-13
-5.17524e-13
-6.46536e-13
-8.00073e-13
-9.87311e-13
-1.20529e-12
-1.43267e-12
-1.63433e-12
-1.7809e-12
-1.86751e-12
-1.91062e-12
-1.93034e-12
-1.93966e-12
-1.94475e-12
-1.94817e-12
-1.95101e-12
-1.95382e-12
-1.95692e-12
-1.96048e-12
-1.96461e-12
-1.96925e-12
-1.97431e-12
-1.97965e-12
-1.98514e-12
-1.99071e-12
-1.99632e-12
-2.00197e-12
-2.00767e-12
-2.01346e-12
-2.01936e-12
-2.02542e-12
-2.03164e-12
-2.03804e-12
-2.04463e-12
-2.05143e-12
-2.05842e-12
-2.06561e-12
-2.07301e-12
-2.0806e-12
-2.08841e-12
-2.09645e-12
-2.10473e-12
-2.11326e-12
-2.12207e-12
-2.13117e-12
-2.14061e-12
-2.15043e-12
-2.16064e-12
-2.17127e-12
-2.18237e-12
-2.19396e-12
-2.20609e-12
-2.21879e-12
-2.23211e-12
-2.24606e-12
-2.26065e-12
-2.2759e-12
-2.29176e-12
-2.30822e-12
-2.32519e-12
-2.34264e-12
-2.36051e-12
-2.37881e-12
-2.39759e-12
-2.41695e-12
-2.43699e-12
-2.45787e-12
-2.47976e-12
-2.50277e-12
-2.52697e-12
-2.55237e-12
-2.57894e-12
-2.60656e-12
-2.63507e-12
-2.66433e-12
-2.69421e-12
-2.72464e-12
-2.75562e-12
-2.78717e-12
-2.81937e-12
-2.8523e-12
-2.88601e-12
-2.92053e-12
-2.95586e-12
-2.99196e-12
-3.02873e-12
-3.0661e-12
-3.10397e-12
-3.1423e-12
-3.18101e-12
-3.22008e-12
-3.25949e-12
-3.29923e-12
-3.33927e-12
-3.37962e-12
-3.42025e-12
)
;
    }
    inandouthalf21
    {
        type            cyclic;
        value           nonuniform List<scalar> 
100
(
3.46115e-12
3.5023e-12
3.54367e-12
3.58525e-12
3.62701e-12
3.66892e-12
3.71096e-12
3.75308e-12
3.79525e-12
3.83742e-12
3.87954e-12
3.92155e-12
3.96338e-12
4.00498e-12
4.04627e-12
4.0872e-12
4.12771e-12
4.16775e-12
4.20731e-12
4.2464e-12
4.28506e-12
4.32338e-12
4.36149e-12
4.39959e-12
4.43794e-12
4.47687e-12
4.51679e-12
4.55818e-12
4.60161e-12
4.64762e-12
4.69669e-12
4.74914e-12
4.80505e-12
4.86423e-12
4.92607e-12
4.98928e-12
5.05167e-12
5.11067e-12
5.16399e-12
5.20933e-12
5.24349e-12
5.26432e-12
5.27416e-12
5.27772e-12
5.27867e-12
5.27902e-12
5.27953e-12
8.06969e-12
1.61274e-11
8.01784e-11
3.20029e-08
3.59675e-08
3.23292e-08
2.61776e-08
1.92669e-08
1.19471e-08
4.37226e-09
-3.37326e-09
-1.12365e-08
-1.91812e-08
-2.71807e-08
-3.52144e-08
-4.32654e-08
-5.13196e-08
-5.93642e-08
-6.73876e-08
-7.53782e-08
-8.33249e-08
-9.12161e-08
-9.90399e-08
-1.06784e-07
-1.14435e-07
-1.21979e-07
-1.29402e-07
-1.3669e-07
-1.43827e-07
-1.50801e-07
-1.57597e-07
-1.64202e-07
-1.70605e-07
-1.76796e-07
-1.82766e-07
-1.88504e-07
-1.94e-07
-1.99245e-07
-2.04225e-07
-2.08931e-07
-2.13349e-07
-2.17471e-07
-2.21291e-07
-2.24813e-07
-2.2805e-07
-2.31025e-07
-2.33776e-07
-2.36343e-07
-2.38762e-07
-2.4106e-07
-2.43254e-07
-2.45352e-07
-2.47357e-07
)
;
    }
    inandouthalf22
    {
        type            cyclic;
        value           nonuniform List<scalar> 
100
(
-3.46115e-12
-3.5023e-12
-3.54367e-12
-3.58525e-12
-3.62701e-12
-3.66892e-12
-3.71096e-12
-3.75308e-12
-3.79525e-12
-3.83742e-12
-3.87954e-12
-3.92155e-12
-3.96338e-12
-4.00498e-12
-4.04627e-12
-4.0872e-12
-4.12771e-12
-4.16775e-12
-4.20731e-12
-4.2464e-12
-4.28506e-12
-4.32338e-12
-4.36149e-12
-4.39959e-12
-4.43794e-12
-4.47687e-12
-4.51679e-12
-4.55818e-12
-4.60161e-12
-4.64762e-12
-4.69669e-12
-4.74914e-12
-4.80505e-12
-4.86423e-12
-4.92607e-12
-4.98928e-12
-5.05167e-12
-5.11067e-12
-5.16399e-12
-5.20933e-12
-5.24349e-12
-5.26432e-12
-5.27416e-12
-5.27772e-12
-5.27867e-12
-5.27902e-12
-5.27953e-12
-8.06969e-12
-1.61274e-11
-8.01784e-11
-3.20029e-08
-3.59675e-08
-3.23292e-08
-2.61776e-08
-1.92669e-08
-1.19471e-08
-4.37226e-09
3.37326e-09
1.12365e-08
1.91812e-08
2.71807e-08
3.52144e-08
4.32654e-08
5.13196e-08
5.93642e-08
6.73876e-08
7.53782e-08
8.33249e-08
9.12161e-08
9.90399e-08
1.06784e-07
1.14435e-07
1.21979e-07
1.29402e-07
1.3669e-07
1.43827e-07
1.50801e-07
1.57597e-07
1.64202e-07
1.70605e-07
1.76796e-07
1.82766e-07
1.88504e-07
1.94e-07
1.99245e-07
2.04225e-07
2.08931e-07
2.13349e-07
2.17471e-07
2.21291e-07
2.24813e-07
2.2805e-07
2.31025e-07
2.33776e-07
2.36343e-07
2.38762e-07
2.4106e-07
2.43254e-07
2.45352e-07
2.47357e-07
)
;
    }
    inandouthalf31
    {
        type            cyclic;
        value           nonuniform List<scalar> 
110
(
-2.49275e-07
-2.56219e-07
-2.63289e-07
-2.70493e-07
-2.77834e-07
-2.8531e-07
-2.92923e-07
-3.00684e-07
-3.08595e-07
-3.16649e-07
-3.24857e-07
-3.3323e-07
-3.41768e-07
-3.50479e-07
-3.59375e-07
-3.68451e-07
-3.77721e-07
-3.872e-07
-3.96881e-07
-4.06766e-07
-4.16874e-07
-4.27209e-07
-4.37773e-07
-4.48572e-07
-4.59604e-07
-4.70891e-07
-4.82439e-07
-4.94241e-07
-5.06314e-07
-5.18667e-07
-5.31295e-07
-5.44212e-07
-5.57421e-07
-5.70921e-07
-5.84708e-07
-5.98789e-07
-6.13161e-07
-6.27807e-07
-6.42728e-07
-6.57913e-07
-6.73254e-07
-6.89062e-07
-8.68189e-07
-8.8582e-07
-9.03806e-07
-9.22157e-07
-9.40879e-07
-9.59981e-07
-9.7947e-07
-9.99353e-07
-1.01964e-06
-1.04034e-06
-1.06146e-06
-1.083e-06
-1.10499e-06
-1.12741e-06
-1.1503e-06
-1.17365e-06
-1.19747e-06
-1.22178e-06
-1.24657e-06
-1.27188e-06
-1.29769e-06
-1.32403e-06
-1.35091e-06
-1.37833e-06
-1.4063e-06
-1.43485e-06
-1.46397e-06
-1.49369e-06
-1.524e-06
-1.55494e-06
-1.5865e-06
-1.6187e-06
-1.65156e-06
-1.68508e-06
-1.71928e-06
-1.75418e-06
-1.78978e-06
-1.82611e-06
-1.86318e-06
-1.90099e-06
-1.93958e-06
-1.97895e-06
-2.01911e-06
-2.0601e-06
-2.10191e-06
-2.14457e-06
-2.1881e-06
-2.23252e-06
-2.27783e-06
-2.32406e-06
-2.37124e-06
-2.41937e-06
-2.46847e-06
-2.51858e-06
-2.5697e-06
-2.62185e-06
-2.67507e-06
-2.72937e-06
-2.78477e-06
-2.84129e-06
-2.89896e-06
-2.9578e-06
-3.01784e-06
-3.07909e-06
-3.14159e-06
-3.20535e-06
-3.27041e-06
-3.3368e-06
)
;
    }
    inandouthalf32
    {
        type            cyclic;
        value           nonuniform List<scalar> 
110
(
2.49275e-07
2.56219e-07
2.63289e-07
2.70493e-07
2.77834e-07
2.8531e-07
2.92923e-07
3.00684e-07
3.08595e-07
3.16649e-07
3.24857e-07
3.3323e-07
3.41768e-07
3.50479e-07
3.59375e-07
3.68451e-07
3.77721e-07
3.872e-07
3.96881e-07
4.06766e-07
4.16874e-07
4.27209e-07
4.37773e-07
4.48572e-07
4.59604e-07
4.70891e-07
4.82439e-07
4.94241e-07
5.06314e-07
5.18667e-07
5.31295e-07
5.44212e-07
5.57421e-07
5.70921e-07
5.84708e-07
5.98789e-07
6.13161e-07
6.27807e-07
6.42728e-07
6.57913e-07
6.73254e-07
6.89062e-07
8.68189e-07
8.8582e-07
9.03806e-07
9.22157e-07
9.40879e-07
9.59981e-07
9.7947e-07
9.99353e-07
1.01964e-06
1.04034e-06
1.06146e-06
1.083e-06
1.10499e-06
1.12741e-06
1.1503e-06
1.17365e-06
1.19747e-06
1.22178e-06
1.24657e-06
1.27188e-06
1.29769e-06
1.32403e-06
1.35091e-06
1.37833e-06
1.4063e-06
1.43485e-06
1.46397e-06
1.49369e-06
1.524e-06
1.55494e-06
1.5865e-06
1.6187e-06
1.65156e-06
1.68508e-06
1.71928e-06
1.75418e-06
1.78978e-06
1.82611e-06
1.86318e-06
1.90099e-06
1.93958e-06
1.97895e-06
2.01911e-06
2.0601e-06
2.10191e-06
2.14457e-06
2.1881e-06
2.23252e-06
2.27783e-06
2.32406e-06
2.37124e-06
2.41937e-06
2.46847e-06
2.51858e-06
2.5697e-06
2.62185e-06
2.67507e-06
2.72937e-06
2.78477e-06
2.84129e-06
2.89896e-06
2.9578e-06
3.01784e-06
3.07909e-06
3.14159e-06
3.20535e-06
3.27041e-06
3.3368e-06
)
;
    }
    inandouthalf41
    {
        type            cyclic;
        value           nonuniform List<scalar> 
50
(
-2.98677e-06
-2.98677e-06
-2.98677e-06
-2.98677e-06
-2.98677e-06
-2.98677e-06
-2.98677e-06
-2.98677e-06
-2.98677e-06
-2.98677e-06
-2.98677e-06
-2.98677e-06
-2.98677e-06
-2.98677e-06
-2.98677e-06
-2.98677e-06
-2.98677e-06
-2.98677e-06
-2.98677e-06
-2.98677e-06
-2.98677e-06
-2.98677e-06
-2.98677e-06
-2.98677e-06
-2.98677e-06
-2.98677e-06
-2.98677e-06
-2.98677e-06
-2.98677e-06
-2.98677e-06
-2.98677e-06
-2.98677e-06
-2.98677e-06
-2.98677e-06
-2.98677e-06
-2.98677e-06
-2.98677e-06
-2.98677e-06
-2.98677e-06
-2.98677e-06
-2.98677e-06
-2.98677e-06
-2.98677e-06
-2.98677e-06
-2.98677e-06
-2.98677e-06
-2.98677e-06
-2.98678e-06
-2.98707e-06
-2.99366e-06
)
;
    }
    inandouthalf42
    {
        type            cyclic;
        value           nonuniform List<scalar> 
50
(
2.98677e-06
2.98677e-06
2.98677e-06
2.98677e-06
2.98677e-06
2.98677e-06
2.98677e-06
2.98677e-06
2.98677e-06
2.98677e-06
2.98677e-06
2.98677e-06
2.98677e-06
2.98677e-06
2.98677e-06
2.98677e-06
2.98677e-06
2.98677e-06
2.98677e-06
2.98677e-06
2.98677e-06
2.98677e-06
2.98677e-06
2.98677e-06
2.98677e-06
2.98677e-06
2.98677e-06
2.98677e-06
2.98677e-06
2.98677e-06
2.98677e-06
2.98677e-06
2.98677e-06
2.98677e-06
2.98677e-06
2.98677e-06
2.98677e-06
2.98677e-06
2.98677e-06
2.98677e-06
2.98677e-06
2.98677e-06
2.98677e-06
2.98677e-06
2.98677e-06
2.98677e-06
2.98677e-06
2.98678e-06
2.98707e-06
2.99366e-06
)
;
    }
    top
    {
        type            symmetryPlane;
        value           uniform 0;
    }
    walls
    {
        type            fixedValue;
        value           uniform 0;
    }
    frontAndBackPlanes
    {
        type            empty;
        value           nonuniform 0();
    }
}


// ************************************************************************* //
