/*--------------------------------*- C++ -*----------------------------------*\
| =========                 |                                                 |
| \\      /  F ield         | OpenFOAM: The Open Source CFD Toolbox           |
|  \\    /   O peration     | Version:  2.4.x                                 |
|   \\  /    A nd           | Web:      www.OpenFOAM.org                      |
|    \\/     M anipulation  |                                                 |
\*---------------------------------------------------------------------------*/
FoamFile
{
    version     2.0;
    format      ascii;
    class       surfaceScalarField;
    location    "2.9";
    object      phib;
}
// * * * * * * * * * * * * * * * * * * * * * * * * * * * * * * * * * * * * * //

dimensions      [0 3 -1 0 0 0 0];

internalField   nonuniform List<scalar> 
359
(
8.55707e-13
3.23713e-12
6.34503e-12
9.49173e-12
1.2561e-11
1.58031e-11
1.95989e-11
2.4303e-11
3.00357e-11
3.64852e-11
4.28367e-11
4.80847e-11
5.16421e-11
5.36289e-11
5.45875e-11
5.50256e-11
5.52388e-11
5.53613e-11
5.54481e-11
5.55236e-11
5.55994e-11
5.56822e-11
5.5775e-11
5.5878e-11
5.59892e-11
5.61056e-11
5.62238e-11
5.63419e-11
5.64586e-11
5.65735e-11
5.66867e-11
5.6799e-11
5.69107e-11
5.70227e-11
5.71353e-11
5.72489e-11
5.73636e-11
5.74795e-11
5.75968e-11
5.77152e-11
5.78348e-11
5.79558e-11
5.8078e-11
5.82016e-11
5.83269e-11
5.84541e-11
5.85834e-11
5.87149e-11
5.88491e-11
5.89866e-11
5.91278e-11
5.92731e-11
5.94226e-11
5.95771e-11
5.97368e-11
5.99025e-11
6.00744e-11
6.0253e-11
6.04387e-11
6.06312e-11
6.08306e-11
6.10364e-11
6.1248e-11
6.14645e-11
6.16853e-11
6.19101e-11
6.21391e-11
6.23732e-11
6.26139e-11
6.28626e-11
6.31216e-11
6.33928e-11
6.36771e-11
6.39753e-11
6.42873e-11
6.4612e-11
6.49478e-11
6.52926e-11
6.56448e-11
6.60032e-11
6.63673e-11
6.67373e-11
6.7114e-11
6.74983e-11
6.78912e-11
6.82934e-11
6.87051e-11
6.9126e-11
6.95553e-11
6.9992e-11
7.04353e-11
7.0884e-11
7.13376e-11
7.17957e-11
7.22579e-11
7.27242e-11
7.31945e-11
7.36687e-11
7.41467e-11
7.46285e-11
7.51138e-11
7.56024e-11
7.60943e-11
7.65891e-11
7.70867e-11
7.75868e-11
7.80891e-11
7.85931e-11
7.90984e-11
7.96044e-11
8.01106e-11
8.06162e-11
8.11205e-11
8.16227e-11
8.21221e-11
8.26179e-11
8.31096e-11
8.35969e-11
8.40796e-11
8.45583e-11
8.50339e-11
8.5508e-11
8.5983e-11
8.64622e-11
8.69501e-11
8.74523e-11
8.79756e-11
8.85284e-11
8.912e-11
8.97595e-11
9.0455e-11
9.12117e-11
9.20309e-11
9.29095e-11
9.38367e-11
9.47885e-11
9.5726e-11
9.66047e-11
9.73818e-11
9.80091e-11
9.8433e-11
9.86113e-11
9.85796e-11
9.84063e-11
9.81044e-11
9.70922e-11
1.10675e-10
1.33064e-10
1.83173e-10
6.11957e-09
3.7072e-09
2.50677e-09
2.08546e-09
1.8151e-09
1.59113e-09
1.40074e-09
1.23616e-09
1.09234e-09
9.65692e-10
8.53562e-10
7.53907e-10
6.65106e-10
5.85843e-10
5.15025e-10
4.51727e-10
3.9516e-10
3.44638e-10
2.99561e-10
2.59403e-10
2.23695e-10
1.9202e-10
1.64005e-10
1.39315e-10
1.1765e-10
9.87394e-11
8.23356e-11
6.82015e-11
5.60992e-11
4.57834e-11
3.70066e-11
2.95347e-11
2.3163e-11
1.77259e-11
1.3094e-11
9.16878e-12
5.87795e-12
3.17582e-12
1.04431e-12
-5.10224e-13
-1.4765e-12
-1.88259e-12
-1.84142e-12
-1.54348e-12
-1.17947e-12
-8.66062e-13
-6.3709e-13
-4.80354e-13
-3.72845e-13
-2.96293e-13
-2.39602e-13
-1.96562e-13
-1.62322e-13
-1.3406e-13
-1.10731e-13
-9.2141e-14
-7.68288e-14
-6.35179e-14
-5.25411e-14
-4.38056e-14
-3.6365e-14
-2.99943e-14
-2.47897e-14
-2.04177e-14
-1.67069e-14
-1.3686e-14
-1.11314e-14
-8.93221e-15
-7.17664e-15
-5.74542e-15
-4.51657e-15
-3.51051e-15
-2.69779e-15
-2.03678e-15
-1.50776e-15
-1.07506e-15
-7.30095e-16
-4.65895e-16
-2.59875e-16
-1.0344e-16
1.13792e-17
9.33494e-17
1.48857e-16
1.84004e-16
2.03204e-16
2.09139e-16
2.05492e-16
1.96125e-16
1.80578e-16
1.62549e-16
1.54243e-16
3.24118e-16
2.5171e-15
-1.12067e-17
-1.13095e-17
-1.1317e-17
-1.13485e-17
-1.12824e-17
-1.12528e-17
-1.11307e-17
-1.10548e-17
-1.08619e-17
-1.07268e-17
-1.04898e-17
-1.02871e-17
-9.99079e-18
-9.73405e-18
-9.39785e-18
-9.09675e-18
-8.72054e-18
-8.37915e-18
-7.98812e-18
-7.64044e-18
-7.2675e-18
-6.96977e-18
-6.7128e-18
-6.52833e-18
-6.31895e-18
-6.1677e-18
-6.03064e-18
-5.89943e-18
-5.75385e-18
-5.60988e-18
-5.5093e-18
-5.40009e-18
-5.27775e-18
-5.12066e-18
-4.97903e-18
-4.79729e-18
-4.60655e-18
-4.39095e-18
-4.25748e-18
-4.10158e-18
-3.94482e-18
-3.74211e-18
-3.56576e-18
-3.34159e-18
-3.0731e-18
-2.79775e-18
-2.57861e-18
-2.32368e-18
-2.06462e-18
-1.76513e-18
-1.4966e-18
-1.19802e-18
-9.15146e-19
-6.35382e-19
-7.54245e-19
-6.89459e-19
-6.48551e-19
-5.76765e-19
-5.52338e-19
-5.19188e-19
-4.87924e-19
-4.4953e-19
-4.32681e-19
-4.11629e-19
-3.90914e-19
-3.67391e-19
-3.46171e-19
-3.2414e-19
-3.04867e-19
-2.86432e-19
-2.69919e-19
-2.55773e-19
-2.42055e-19
-2.31826e-19
-2.19189e-19
-2.09885e-19
-2.0081e-19
-1.94528e-19
-1.86206e-19
-1.80274e-19
-1.74521e-19
-1.71028e-19
-1.69307e-19
-1.6821e-19
-1.70584e-19
-1.75798e-19
-2.20677e-19
-2.67148e-19
-3.1698e-19
-3.63354e-19
-4.18384e-19
-4.64442e-19
-5.11836e-19
-5.43536e-19
-6.14115e-19
-6.56218e-19
-6.9876e-19
-6.97499e-19
-7.39317e-19
-7.15465e-19
-6.96668e-19
-6.07411e-19
-6.75264e-19
-6.37753e-19
-6.00284e-19
-4.14537e-19
-3.37777e-19
-9.66594e-20
1.60982e-19
6.82742e-19
8.60512e-19
1.24514e-18
1.65482e-18
2.46937e-18
2.59037e-18
3.96225e-18
6.4357e-18
)
;

boundaryField
{
    inandouthalf11
    {
        type            cyclic;
        value           nonuniform List<scalar> 
100
(
2.78839e-10
2.78905e-10
2.78733e-10
2.7881e-10
2.78958e-10
2.79144e-10
2.79384e-10
2.79665e-10
2.79974e-10
2.80308e-10
2.80648e-10
2.80948e-10
2.81172e-10
2.81308e-10
2.81377e-10
2.8141e-10
2.81425e-10
2.81434e-10
2.81439e-10
2.81445e-10
2.81449e-10
2.81456e-10
2.81463e-10
2.81471e-10
2.8148e-10
2.81489e-10
2.81499e-10
2.81511e-10
2.81523e-10
2.81536e-10
2.81548e-10
2.81562e-10
2.81574e-10
2.81591e-10
2.81605e-10
2.81622e-10
2.81639e-10
2.81658e-10
2.8168e-10
2.817e-10
2.81724e-10
2.81748e-10
2.81773e-10
2.81801e-10
2.8183e-10
2.81862e-10
2.81895e-10
2.81929e-10
2.81966e-10
2.82008e-10
2.8205e-10
2.82096e-10
2.82144e-10
2.82196e-10
2.8225e-10
2.82309e-10
2.8237e-10
2.82436e-10
2.82504e-10
2.82575e-10
2.82652e-10
2.82729e-10
2.8281e-10
2.82893e-10
2.82977e-10
2.83064e-10
2.83153e-10
2.83245e-10
2.83341e-10
2.8344e-10
2.83544e-10
2.83653e-10
2.83764e-10
2.8388e-10
2.83999e-10
2.84123e-10
2.84248e-10
2.84376e-10
2.84507e-10
2.84642e-10
2.84778e-10
2.84919e-10
2.85063e-10
2.85211e-10
2.85363e-10
2.85518e-10
2.85678e-10
2.8584e-10
2.86005e-10
2.86174e-10
2.86347e-10
2.86523e-10
2.86702e-10
2.86885e-10
2.87072e-10
2.87263e-10
2.87457e-10
2.87656e-10
2.87858e-10
2.88065e-10
)
;
    }
    inandouthalf12
    {
        type            cyclic;
        value           nonuniform List<scalar> 
100
(
-2.78839e-10
-2.78905e-10
-2.78733e-10
-2.7881e-10
-2.78958e-10
-2.79144e-10
-2.79384e-10
-2.79665e-10
-2.79974e-10
-2.80308e-10
-2.80648e-10
-2.80948e-10
-2.81172e-10
-2.81308e-10
-2.81377e-10
-2.8141e-10
-2.81425e-10
-2.81434e-10
-2.81439e-10
-2.81445e-10
-2.81449e-10
-2.81456e-10
-2.81463e-10
-2.81471e-10
-2.8148e-10
-2.81489e-10
-2.81499e-10
-2.81511e-10
-2.81523e-10
-2.81536e-10
-2.81548e-10
-2.81562e-10
-2.81574e-10
-2.81591e-10
-2.81605e-10
-2.81622e-10
-2.81639e-10
-2.81658e-10
-2.8168e-10
-2.817e-10
-2.81724e-10
-2.81748e-10
-2.81773e-10
-2.81801e-10
-2.8183e-10
-2.81862e-10
-2.81895e-10
-2.81929e-10
-2.81966e-10
-2.82008e-10
-2.8205e-10
-2.82096e-10
-2.82144e-10
-2.82196e-10
-2.8225e-10
-2.82309e-10
-2.8237e-10
-2.82436e-10
-2.82504e-10
-2.82575e-10
-2.82652e-10
-2.82729e-10
-2.8281e-10
-2.82893e-10
-2.82977e-10
-2.83064e-10
-2.83153e-10
-2.83245e-10
-2.83341e-10
-2.8344e-10
-2.83544e-10
-2.83653e-10
-2.83764e-10
-2.8388e-10
-2.83999e-10
-2.84123e-10
-2.84248e-10
-2.84376e-10
-2.84507e-10
-2.84642e-10
-2.84778e-10
-2.84919e-10
-2.85063e-10
-2.85211e-10
-2.85363e-10
-2.85518e-10
-2.85678e-10
-2.8584e-10
-2.86005e-10
-2.86174e-10
-2.86347e-10
-2.86523e-10
-2.86702e-10
-2.86885e-10
-2.87072e-10
-2.87263e-10
-2.87457e-10
-2.87656e-10
-2.87858e-10
-2.88065e-10
)
;
    }
    inandouthalf21
    {
        type            cyclic;
        value           nonuniform List<scalar> 
100
(
2.88276e-10
2.88491e-10
2.88711e-10
2.88935e-10
2.89165e-10
2.89399e-10
2.89638e-10
2.89882e-10
2.90131e-10
2.90387e-10
2.90647e-10
2.90914e-10
2.91187e-10
2.91467e-10
2.91753e-10
2.92046e-10
2.92347e-10
2.92655e-10
2.92972e-10
2.93297e-10
2.93631e-10
2.93975e-10
2.94329e-10
2.94695e-10
2.95073e-10
2.95464e-10
2.95869e-10
2.9629e-10
2.9673e-10
2.97188e-10
2.97667e-10
2.98166e-10
2.98688e-10
2.99238e-10
2.99819e-10
3.0043e-10
3.01064e-10
3.01724e-10
3.0244e-10
3.03243e-10
3.04098e-10
3.04895e-10
3.05838e-10
3.07074e-10
3.08593e-10
3.10969e-10
3.21404e-10
3.25166e-10
3.41078e-10
1.25881e-09
3.85787e-08
4.16546e-08
3.78684e-08
3.22523e-08
2.57963e-08
1.88427e-08
1.15618e-08
4.05344e-09
-3.6175e-09
-1.14065e-08
-1.92817e-08
-2.72194e-08
-3.52015e-08
-4.32142e-08
-5.12464e-08
-5.92895e-08
-6.73364e-08
-7.53813e-08
-8.34196e-08
-9.14471e-08
-9.94607e-08
-1.07457e-07
-1.15435e-07
-1.23391e-07
-1.31323e-07
-1.39231e-07
-1.47111e-07
-1.54962e-07
-1.62783e-07
-1.70571e-07
-1.78326e-07
-1.86044e-07
-1.93725e-07
-2.01367e-07
-2.08968e-07
-2.16525e-07
-2.24037e-07
-2.31501e-07
-2.38914e-07
-2.46273e-07
-2.53573e-07
-2.6081e-07
-2.67979e-07
-2.75071e-07
-2.82079e-07
-2.88997e-07
-2.95813e-07
-3.0252e-07
-3.09105e-07
-3.15556e-07
)
;
    }
    inandouthalf22
    {
        type            cyclic;
        value           nonuniform List<scalar> 
100
(
-2.88276e-10
-2.88491e-10
-2.88711e-10
-2.88935e-10
-2.89165e-10
-2.89399e-10
-2.89638e-10
-2.89882e-10
-2.90131e-10
-2.90387e-10
-2.90647e-10
-2.90914e-10
-2.91187e-10
-2.91467e-10
-2.91753e-10
-2.92046e-10
-2.92347e-10
-2.92655e-10
-2.92972e-10
-2.93297e-10
-2.93631e-10
-2.93975e-10
-2.94329e-10
-2.94695e-10
-2.95073e-10
-2.95464e-10
-2.95869e-10
-2.9629e-10
-2.9673e-10
-2.97188e-10
-2.97667e-10
-2.98166e-10
-2.98688e-10
-2.99238e-10
-2.99819e-10
-3.0043e-10
-3.01064e-10
-3.01724e-10
-3.0244e-10
-3.03243e-10
-3.04098e-10
-3.04895e-10
-3.05838e-10
-3.07074e-10
-3.08593e-10
-3.10969e-10
-3.21404e-10
-3.25166e-10
-3.41078e-10
-1.25881e-09
-3.85787e-08
-4.16546e-08
-3.78684e-08
-3.22523e-08
-2.57963e-08
-1.88427e-08
-1.15618e-08
-4.05344e-09
3.6175e-09
1.14065e-08
1.92817e-08
2.72194e-08
3.52015e-08
4.32142e-08
5.12464e-08
5.92895e-08
6.73364e-08
7.53813e-08
8.34196e-08
9.14471e-08
9.94607e-08
1.07457e-07
1.15435e-07
1.23391e-07
1.31323e-07
1.39231e-07
1.47111e-07
1.54962e-07
1.62783e-07
1.70571e-07
1.78326e-07
1.86044e-07
1.93725e-07
2.01367e-07
2.08968e-07
2.16525e-07
2.24037e-07
2.31501e-07
2.38914e-07
2.46273e-07
2.53573e-07
2.6081e-07
2.67979e-07
2.75071e-07
2.82079e-07
2.88997e-07
2.95813e-07
3.0252e-07
3.09105e-07
3.15556e-07
)
;
    }
    inandouthalf31
    {
        type            cyclic;
        value           nonuniform List<scalar> 
110
(
-3.2186e-07
-3.34715e-07
-3.47884e-07
-3.61328e-07
-3.7499e-07
-3.88782e-07
-4.02566e-07
-4.16115e-07
-4.28475e-07
-4.3832e-07
-4.47494e-07
-4.56794e-07
-4.66269e-07
-4.75922e-07
-4.85759e-07
-4.95784e-07
-5.06001e-07
-5.16414e-07
-5.27028e-07
-5.37847e-07
-5.48877e-07
-5.60121e-07
-5.71585e-07
-5.83274e-07
-5.95193e-07
-6.07347e-07
-6.1974e-07
-6.32379e-07
-6.45269e-07
-6.58415e-07
-6.71823e-07
-6.85499e-07
-6.99448e-07
-7.13677e-07
-7.2819e-07
-7.42996e-07
-7.58098e-07
-7.73505e-07
-7.89222e-07
-8.05255e-07
-8.21613e-07
-8.383e-07
-8.55326e-07
-8.72695e-07
-8.90416e-07
-9.08495e-07
-9.2694e-07
-9.45759e-07
-9.64959e-07
-9.84548e-07
-1.00453e-06
-1.02493e-06
-1.04573e-06
-1.06696e-06
-1.08862e-06
-1.11071e-06
-1.13326e-06
-1.15626e-06
-1.17973e-06
-1.20368e-06
-1.22811e-06
-1.25304e-06
-1.27847e-06
-1.30442e-06
-1.3309e-06
-1.35791e-06
-1.38547e-06
-1.41359e-06
-1.44228e-06
-1.47156e-06
-1.50143e-06
-1.5319e-06
-1.563e-06
-1.59472e-06
-1.62709e-06
-1.66012e-06
-1.69381e-06
-1.72819e-06
-1.76327e-06
-1.79906e-06
-1.83557e-06
-1.87283e-06
-1.91085e-06
-1.94963e-06
-1.9892e-06
-2.02958e-06
-2.07077e-06
-2.1128e-06
-2.15569e-06
-2.19944e-06
-2.24409e-06
-2.28964e-06
-2.33611e-06
-2.38353e-06
-2.4319e-06
-2.48127e-06
-2.53163e-06
-2.58301e-06
-2.63544e-06
-2.68894e-06
-2.74351e-06
-2.7992e-06
-2.85602e-06
-2.91399e-06
-2.97313e-06
-3.03348e-06
-3.09505e-06
-3.15787e-06
-3.22197e-06
-3.28736e-06
)
;
    }
    inandouthalf32
    {
        type            cyclic;
        value           nonuniform List<scalar> 
110
(
3.2186e-07
3.34715e-07
3.47884e-07
3.61328e-07
3.7499e-07
3.88782e-07
4.02566e-07
4.16115e-07
4.28475e-07
4.3832e-07
4.47494e-07
4.56794e-07
4.66269e-07
4.75922e-07
4.85759e-07
4.95784e-07
5.06001e-07
5.16414e-07
5.27028e-07
5.37847e-07
5.48877e-07
5.60121e-07
5.71585e-07
5.83274e-07
5.95193e-07
6.07347e-07
6.1974e-07
6.32379e-07
6.45269e-07
6.58415e-07
6.71823e-07
6.85499e-07
6.99448e-07
7.13677e-07
7.2819e-07
7.42996e-07
7.58098e-07
7.73505e-07
7.89222e-07
8.05255e-07
8.21613e-07
8.383e-07
8.55326e-07
8.72695e-07
8.90416e-07
9.08495e-07
9.2694e-07
9.45759e-07
9.64959e-07
9.84548e-07
1.00453e-06
1.02493e-06
1.04573e-06
1.06696e-06
1.08862e-06
1.11071e-06
1.13326e-06
1.15626e-06
1.17973e-06
1.20368e-06
1.22811e-06
1.25304e-06
1.27847e-06
1.30442e-06
1.3309e-06
1.35791e-06
1.38547e-06
1.41359e-06
1.44228e-06
1.47156e-06
1.50143e-06
1.5319e-06
1.563e-06
1.59472e-06
1.62709e-06
1.66012e-06
1.69381e-06
1.72819e-06
1.76327e-06
1.79906e-06
1.83557e-06
1.87283e-06
1.91085e-06
1.94963e-06
1.9892e-06
2.02958e-06
2.07077e-06
2.1128e-06
2.15569e-06
2.19944e-06
2.24409e-06
2.28964e-06
2.33611e-06
2.38353e-06
2.4319e-06
2.48127e-06
2.53163e-06
2.58301e-06
2.63544e-06
2.68894e-06
2.74351e-06
2.7992e-06
2.85602e-06
2.91399e-06
2.97313e-06
3.03348e-06
3.09505e-06
3.15787e-06
3.22197e-06
3.28736e-06
)
;
    }
    inandouthalf41
    {
        type            cyclic;
        value           nonuniform List<scalar> 
50
(
-2.94253e-06
-2.94253e-06
-2.94253e-06
-2.94253e-06
-2.94253e-06
-2.94253e-06
-2.94253e-06
-2.94253e-06
-2.94253e-06
-2.94253e-06
-2.94253e-06
-2.94253e-06
-2.94253e-06
-2.94253e-06
-2.94253e-06
-2.94253e-06
-2.94253e-06
-2.94253e-06
-2.94253e-06
-2.94253e-06
-2.94253e-06
-2.94253e-06
-2.94253e-06
-2.94253e-06
-2.94253e-06
-2.94253e-06
-2.94253e-06
-2.94253e-06
-2.94253e-06
-2.94253e-06
-2.94253e-06
-2.94253e-06
-2.94253e-06
-2.94253e-06
-2.94253e-06
-2.94253e-06
-2.94253e-06
-2.94253e-06
-2.94253e-06
-2.94253e-06
-2.94253e-06
-2.94253e-06
-2.94253e-06
-2.94253e-06
-2.94253e-06
-2.94253e-06
-2.94253e-06
-2.94253e-06
-2.94253e-06
-2.94253e-06
)
;
    }
    inandouthalf42
    {
        type            cyclic;
        value           nonuniform List<scalar> 
50
(
2.94253e-06
2.94253e-06
2.94253e-06
2.94253e-06
2.94253e-06
2.94253e-06
2.94253e-06
2.94253e-06
2.94253e-06
2.94253e-06
2.94253e-06
2.94253e-06
2.94253e-06
2.94253e-06
2.94253e-06
2.94253e-06
2.94253e-06
2.94253e-06
2.94253e-06
2.94253e-06
2.94253e-06
2.94253e-06
2.94253e-06
2.94253e-06
2.94253e-06
2.94253e-06
2.94253e-06
2.94253e-06
2.94253e-06
2.94253e-06
2.94253e-06
2.94253e-06
2.94253e-06
2.94253e-06
2.94253e-06
2.94253e-06
2.94253e-06
2.94253e-06
2.94253e-06
2.94253e-06
2.94253e-06
2.94253e-06
2.94253e-06
2.94253e-06
2.94253e-06
2.94253e-06
2.94253e-06
2.94253e-06
2.94253e-06
2.94253e-06
)
;
    }
    top
    {
        type            symmetryPlane;
        value           uniform 0;
    }
    walls
    {
        type            fixedValue;
        value           uniform 0;
    }
    frontAndBackPlanes
    {
        type            empty;
        value           nonuniform 0();
    }
}


// ************************************************************************* //
