/*--------------------------------*- C++ -*----------------------------------*\
| =========                 |                                                 |
| \\      /  F ield         | OpenFOAM: The Open Source CFD Toolbox           |
|  \\    /   O peration     | Version:  2.4.x                                 |
|   \\  /    A nd           | Web:      www.OpenFOAM.org                      |
|    \\/     M anipulation  |                                                 |
\*---------------------------------------------------------------------------*/
FoamFile
{
    version     2.0;
    format      ascii;
    class       volTensorField;
    location    "2.9";
    object      Taus;
}
// * * * * * * * * * * * * * * * * * * * * * * * * * * * * * * * * * * * * * //

dimensions      [0 2 -2 0 0 0 0];

internalField   nonuniform List<tensor> 
360
(
(0 -0.0165087 0 -0.0165087 -0.166495 0 0 0 0)
(0 -0.0186954 0 -0.0186954 -0.175367 0 0 0 0)
(0 -0.0206828 0 -0.0206828 -0.180775 0 0 0 0)
(0 -0.0215734 0 -0.0215734 -0.181422 0 0 0 0)
(4.66291e-18 -0.0216613 0 -0.0216613 -0.180721 0 0 0 0)
(8.735e-18 -0.0213094 0 -0.0213094 -0.179331 0 0 0 0)
(1.47451e-17 -0.0206138 0 -0.0206138 -0.177159 0 0 0 0)
(0 -0.0198 0 -0.0198 -0.174696 0 0 0 0)
(9.49977e-18 -0.0190525 0 -0.0190525 -0.172427 0 0 0 0)
(0 -0.018382 0 -0.018382 -0.170298 0 0 0 0)
(8.36662e-18 -0.0177868 0 -0.0177868 -0.168304 0 0 0 0)
(0 -0.0173068 0 -0.0173068 -0.166617 0 0 0 0)
(1.46673e-17 -0.0169798 0 -0.0169798 -0.165349 0 0 0 0)
(0 -0.0168318 0 -0.0168318 -0.164578 0 0 0 0)
(0 -0.0168509 0 -0.0168509 -0.164148 0 0 0 0)
(0 -0.01701 0 -0.01701 -0.163846 0 0 0 0)
(0 -0.0173032 0 -0.0173032 -0.163527 0 0 0 0)
(8.40129e-16 -0.0177442 0 -0.0177442 -0.163147 0 0 0 0)
(0 -0.0183211 0 -0.0183211 -0.162728 0 0 0 0)
(0 -0.0189694 0 -0.0189694 -0.162276 0 0 0 0)
(0 -0.01963 0 -0.01963 -0.161916 0 0 0 0)
(1.22839e-15 -0.0202454 0 -0.0202454 -0.161574 0 0 0 0)
(0 -0.0208123 0 -0.0208123 -0.161279 0 0 0 0)
(0 -0.021343 0 -0.021343 -0.16101 0 0 0 0)
(0 -0.0218506 0 -0.0218506 -0.160749 0 0 0 0)
(8.68344e-16 -0.0223463 0 -0.0223463 -0.160483 0 0 0 0)
(0 -0.0228344 0 -0.0228344 -0.160209 0 0 0 0)
(0 -0.023309 0 -0.023309 -0.159883 0 0 0 0)
(0 -0.0237817 0 -0.0237817 -0.159548 0 0 0 0)
(0 -0.0242571 0 -0.0242571 -0.159202 0 0 0 0)
(0 -0.0247305 0 -0.0247305 -0.158849 0 0 0 0)
(0 -0.0251946 0 -0.0251946 -0.158451 0 0 0 0)
(0 -0.025662 0 -0.025662 -0.158093 0 0 0 0)
(0 -0.0261076 0 -0.0261076 -0.157654 0 0 0 0)
(0 -0.0265562 0 -0.0265562 -0.157257 0 0 0 0)
(-8.63897e-16 -0.0269942 0 -0.0269942 -0.156819 0 0 0 0)
(0 -0.0274246 0 -0.0274246 -0.156383 0 0 0 0)
(0 -0.0278355 0 -0.0278355 -0.155911 0 0 0 0)
(0 -0.0282317 0 -0.0282317 -0.155401 0 0 0 0)
(0 -0.0286329 0 -0.0286329 -0.15493 0 0 0 0)
(0 -0.0290072 0 -0.0290072 -0.154382 0 0 0 0)
(0 -0.029375 0 -0.029375 -0.153836 0 0 0 0)
(-7.79749e-16 -0.0297373 0 -0.0297373 -0.153293 0 0 0 0)
(0 -0.0300691 0 -0.0300691 -0.152678 0 0 0 0)
(0 -0.0303916 0 -0.0303916 -0.152071 0 0 0 0)
(0 -0.0306975 0 -0.0306975 -0.15143 0 0 0 0)
(0 -0.0309876 0 -0.0309876 -0.150758 0 0 0 0)
(0 -0.031272 0 -0.031272 -0.150095 0 0 0 0)
(0 -0.0315207 0 -0.0315207 -0.149374 0 0 0 0)
(0 -0.0317352 0 -0.0317352 -0.148597 0 0 0 0)
(-6.44503e-16 -0.0319432 0 -0.0319432 -0.147836 0 0 0 0)
(0 -0.0321242 0 -0.0321242 -0.147017 0 0 0 0)
(0 -0.0322833 0 -0.0322833 -0.146184 0 0 0 0)
(0 -0.0324154 0 -0.0324154 -0.145302 0 0 0 0)
(0 -0.0325267 0 -0.0325267 -0.144413 0 0 0 0)
(0 -0.0325998 0 -0.0325998 -0.143454 0 0 0 0)
(0 -0.0326553 0 -0.0326553 -0.142499 0 0 0 0)
(0 -0.0326763 0 -0.0326763 -0.141484 0 0 0 0)
(0 -0.0326771 0 -0.0326771 -0.140449 0 0 0 0)
(0 -0.0326598 0 -0.0326598 -0.139404 0 0 0 0)
(0 -0.0326078 0 -0.0326078 -0.138296 0 0 0 0)
(0 -0.0325475 0 -0.0325475 -0.1372 0 0 0 0)
(0 -0.0324692 0 -0.0324692 -0.136062 0 0 0 0)
(0 -0.0323865 0 -0.0323865 -0.134926 0 0 0 0)
(0 -0.0322969 0 -0.0322969 -0.133771 0 0 0 0)
(0 -0.0321994 0 -0.0321994 -0.132611 0 0 0 0)
(0 -0.0320841 0 -0.0320841 -0.131425 0 0 0 0)
(0 -0.0319494 0 -0.0319494 -0.13022 0 0 0 0)
(0 -0.031797 0 -0.031797 -0.128995 0 0 0 0)
(0 -0.0316237 0 -0.0316237 -0.127757 0 0 0 0)
(0 -0.0314142 0 -0.0314142 -0.126477 0 0 0 0)
(0 -0.0311807 0 -0.0311807 -0.125171 0 0 0 0)
(0 -0.0309389 0 -0.0309389 -0.123868 0 0 0 0)
(0 -0.0306748 0 -0.0306748 -0.122528 0 0 0 0)
(0 -0.0304001 0 -0.0304001 -0.121185 0 0 0 0)
(0 -0.0301161 0 -0.0301161 -0.119821 0 0 0 0)
(0 -0.0298341 0 -0.0298341 -0.118462 0 0 0 0)
(0 -0.0295488 0 -0.0295488 -0.117093 0 0 0 0)
(0 -0.0292561 0 -0.0292561 -0.115715 0 0 0 0)
(0 -0.0289554 0 -0.0289554 -0.114326 0 0 0 0)
(0 -0.0286469 0 -0.0286469 -0.112931 0 0 0 0)
(0 -0.0283246 0 -0.0283246 -0.111521 0 0 0 0)
(0 -0.0279879 0 -0.0279879 -0.110098 0 0 0 0)
(0 -0.0276386 0 -0.0276386 -0.108664 0 0 0 0)
(0 -0.0272777 0 -0.0272777 -0.107217 0 0 0 0)
(0 -0.026908 0 -0.026908 -0.105763 0 0 0 0)
(0 -0.0265314 0 -0.0265314 -0.1043 0 0 0 0)
(0 -0.0261511 0 -0.0261511 -0.102832 0 0 0 0)
(0 -0.025768 0 -0.025768 -0.10136 0 0 0 0)
(0 -0.0253815 0 -0.0253815 -0.0998819 0 0 0 0)
(0 -0.0249918 0 -0.0249918 -0.0983994 0 0 0 0)
(0 -0.0245982 0 -0.0245982 -0.096912 0 0 0 0)
(0 -0.0241992 0 -0.0241992 -0.0954181 0 0 0 0)
(0 -0.0237946 0 -0.0237946 -0.093918 0 0 0 0)
(0 -0.0233846 0 -0.0233846 -0.092412 0 0 0 0)
(0 -0.0229694 0 -0.0229694 -0.0909 0 0 0 0)
(0 -0.0225495 0 -0.0225495 -0.0893827 0 0 0 0)
(0 -0.0221257 0 -0.0221257 -0.0878607 0 0 0 0)
(0 -0.0216984 0 -0.0216984 -0.0863342 0 0 0 0)
(0 -0.021268 0 -0.021268 -0.0848034 0 0 0 0)
(0 -0.0208347 0 -0.0208347 -0.0832688 0 0 0 0)
(0 -0.0203987 0 -0.0203987 -0.0817303 0 0 0 0)
(0 -0.01996 0 -0.01996 -0.0801881 0 0 0 0)
(0 -0.0195189 0 -0.0195189 -0.0786423 0 0 0 0)
(0 -0.0190755 0 -0.0190755 -0.0770932 0 0 0 0)
(0 -0.0186301 0 -0.0186301 -0.0755409 0 0 0 0)
(0 -0.018183 0 -0.018183 -0.0739857 0 0 0 0)
(0 -0.0177343 0 -0.0177343 -0.0724277 0 0 0 0)
(0 -0.0172841 0 -0.0172841 -0.070867 0 0 0 0)
(0 -0.0168328 0 -0.0168328 -0.0693038 0 0 0 0)
(0 -0.0163803 0 -0.0163803 -0.0677383 0 0 0 0)
(0 -0.015927 0 -0.015927 -0.0661705 0 0 0 0)
(0 -0.015473 0 -0.015473 -0.0646005 0 0 0 0)
(0 -0.0150184 0 -0.0150184 -0.0630285 0 0 0 0)
(0 -0.0145635 0 -0.0145635 -0.0614547 0 0 0 0)
(0 -0.0141084 0 -0.0141084 -0.0598792 0 0 0 0)
(0 -0.0136533 0 -0.0136533 -0.0583022 0 0 0 0)
(0 -0.0131983 0 -0.0131983 -0.0567239 0 0 0 0)
(0 -0.0127438 0 -0.0127438 -0.0551445 0 0 0 0)
(0 -0.0122897 0 -0.0122897 -0.0535644 0 0 0 0)
(0 -0.0118363 0 -0.0118363 -0.0519838 0 0 0 0)
(0 -0.0113838 0 -0.0113838 -0.0504033 0 0 0 0)
(0 -0.0109326 0 -0.0109326 -0.0488234 0 0 0 0)
(0 -0.0104828 0 -0.0104828 -0.0472449 0 0 0 0)
(0 -0.0100347 0 -0.0100347 -0.0456686 0 0 0 0)
(0 -0.00958843 0 -0.00958843 -0.0440951 0 0 0 0)
(0 -0.00914364 0 -0.00914364 -0.0425247 0 0 0 0)
(0 -0.00869979 0 -0.00869979 -0.0409573 0 0 0 0)
(0 -0.00825669 0 -0.00825669 -0.0393927 0 0 0 0)
(0 -0.00781535 0 -0.00781535 -0.0378315 0 0 0 0)
(0 -0.00737825 0 -0.00737825 -0.0362762 0 0 0 0)
(0 -0.00694773 0 -0.00694773 -0.0347301 0 0 0 0)
(0 -0.00652256 0 -0.00652256 -0.0331927 0 0 0 0)
(0 -0.00609736 0 -0.00609736 -0.0316559 0 0 0 0)
(0 -0.00567005 0 -0.00567005 -0.0301123 0 0 0 0)
(0 -0.00524902 0 -0.00524902 -0.0285719 0 0 0 0)
(0 -0.00484336 0 -0.00484336 -0.0270534 0 0 0 0)
(0 -0.00444287 0 -0.00444287 -0.0255481 0 0 0 0)
(0 -0.0040172 0 -0.0040172 -0.0240016 0 0 0 0)
(0 -0.0035582 0 -0.0035582 -0.0223576 0 0 0 0)
(0 -0.00312646 0 -0.00312646 -0.020701 0 0 0 0)
(0 -0.0027785 0 -0.0027785 -0.0192448 0 0 0 0)
(0 -0.00243363 0 -0.00243363 -0.0176196 0 0 0 0)
(0 -0.00210395 0 -0.00210395 -0.0156649 0 0 0 0)
(0 -0.00215461 0 -0.00215461 -0.0133944 0 0 0 0)
(0 -0.0032954 0 -0.0032954 -0.00953105 0 0 0 0)
(0 -0.0012899 0 -0.0012899 -0.00353636 0 0 0 0)
(0 -0.0015766 0 -0.0015766 -0.00268455 0 0 0 0)
(0 -0.00100562 0 -0.00100562 -0.00107628 0 0 0 0)
(0 -0.000150209 0 -0.000150209 -6.3328e-05 0 0 0 0)
(0 -0.000187091 0 -0.000187091 -0.000118822 0 0 0 0)
(0 -6.39604e-06 0 -6.39604e-06 -0.00027038 0 0 0 0)
(0 0.000303358 0 0.000303358 -0.000382906 0 0 0 0)
(0 0.000607466 0 0.000607466 -0.000382494 0 0 0 0)
(0 0.000883062 0 0.000883062 -0.000278217 0 0 0 0)
(0 0.00116141 0 0.00116141 -0.000168009 0 0 0 0)
(0 0.00144779 0 0.00144779 -6.79036e-05 0 0 0 0)
(0 0.00174503 0 0.00174503 2.63823e-05 0 0 0 0)
(0 0.00205573 0 0.00205573 0.000118037 0 0 0 0)
(0 0.00238248 0 0.00238248 0.000208198 0 0 0 0)
(0 0.00272781 0 0.00272781 0.000298029 0 0 0 0)
(0 0.0030943 0 0.0030943 0.000388847 0 0 0 0)
(0 0.00348456 0 0.00348456 0.000481894 0 0 0 0)
(0 0.00390134 0 0.00390134 0.000578328 0 0 0 0)
(0 0.00434749 0 0.00434749 0.00067927 0 0 0 0)
(0 0.00482596 0 0.00482596 0.000785818 0 0 0 0)
(0 0.00533989 0 0.00533989 0.000899056 0 0 0 0)
(0 0.00589258 0 0.00589258 0.00102004 0 0 0 0)
(0 0.00648755 0 0.00648755 0.00114979 0 0 0 0)
(0 0.00712861 0 0.00712861 0.0012892 0 0 0 0)
(0 0.00782001 0 0.00782001 0.00143897 0 0 0 0)
(0 0.0085666 0 0.0085666 0.00159935 0 0 0 0)
(0 0.00937417 0 0.00937417 0.00177 0 0 0 0)
(0 0.0102497 0 0.0102497 0.00194998 0 0 0 0)
(0 0.0112018 0 0.0112018 0.00213853 0 0 0 0)
(0 0.01224 0 0.01224 0.00233732 0 0 0 0)
(0 0.0133737 0 0.0133737 0.00255422 0 0 0 0)
(0 0.0146093 0 0.0146093 0.00280741 0 0 0 0)
(0 0.0159468 0 0.0159468 0.0031268 0 0 0 0)
(0 0.0173783 0 0.0173783 0.00354984 0 0 0 0)
(0 0.0188879 0 0.0188879 0.00411176 0 0 0 0)
(0 0.0204551 0 0.0204551 0.00483476 0 0 0 0)
(0 0.0220585 0 0.0220585 0.00572401 0 0 0 0)
(0 0.0236792 0 0.0236792 0.00677206 0 0 0 0)
(0 0.0253064 0 0.0253064 0.00796472 0 0 0 0)
(0 0.0269455 0 0.0269455 0.00928007 0 0 0 0)
(0 0.0286358 0 0.0286358 0.0106794 0 0 0 0)
(0 0.0304805 0 0.0304805 0.0120928 0 0 0 0)
(0 0.032698 0 0.032698 0.0134049 0 0 0 0)
(0 0.0356972 0 0.0356972 0.0144468 0 0 0 0)
(0 0.0401648 0 0.0401648 0.015002 0 0 0 0)
(0 0.0471352 0 0.0471352 0.0148248 0 0 0 0)
(0 0.0579308 0 0.0579308 0.0136606 0 0 0 0)
(0 0.0738067 0 0.0738067 0.0113114 0 0 0 0)
(0 0.0951035 0 0.0951035 0.00778276 0 0 0 0)
(0 0.120355 0 0.120355 0.00343006 0 0 0 0)
(0 0.146676 0 0.146676 -0.0011383 0 0 0 0)
(0 0.171488 0 0.171488 -0.00542083 0 0 0 0)
(0 0.193631 0 0.193631 -0.00924856 0 0 0 0)
(0 0.21295 0 0.21295 -0.0126711 0 0 0 0)
(0 0.229161 0 0.229161 -0.015721 0 0 0 0)
(0 0.242416 0 0.242416 -0.0184241 0 0 0 0)
(-3.79174e-15 0.254074 0 0.254074 -0.0209583 0 0 0 0)
(0 0.265171 0 0.265171 -0.023468 0 0 0 0)
(0 0.273614 0 0.273614 -0.0256434 0 0 0 0)
(4.49882e-15 0.278468 0 0.278468 -0.0272817 0 0 0 0)
(0 0.283283 0 0.283283 -0.0288242 0 0 0 0)
(-4.88813e-15 0.287824 0 0.287824 -0.0302561 0 0 0 0)
(0 0.288344 0 0.288344 -0.0310455 0 0 0 0)
(5.14541e-15 0.286881 0 0.286881 -0.0314794 0 0 0 0)
(0 0.286251 0 0.286251 -0.0320674 0 0 0 0)
(0 0.284371 0 0.284371 -0.0325986 0 0 0 0)
(0 0.281019 0 0.281019 -0.0330045 0 0 0 0)
(5.42581e-15 0.277934 0 0.277934 -0.0335337 0 0 0 0)
(0 0.273639 0 0.273639 -0.0339793 0 0 0 0)
(0 0.268167 0 0.268167 -0.0342936 0 0 0 0)
(0 0.264048 0 0.264048 -0.0348829 0 0 0 0)
(0 0.259143 0 0.259143 -0.0354427 0 0 0 0)
(0 0.251982 0 0.251982 -0.0356538 0 0 0 0)
(-5.22297e-15 0.24543 0 0.24543 -0.0359882 0 0 0 0)
(0 0.239489 0 0.239489 -0.0364922 0 0 0 0)
(-5.03907e-15 0.232764 0 0.232764 -0.0368814 0 0 0 0)
(0 0.225592 0 0.225592 -0.037211 0 0 0 0)
(-9.62328e-15 0.217744 0 0.217744 -0.0374218 0 0 0 0)
(0 0.210168 0 0.210168 -0.03768 0 0 0 0)
(0 0.203482 0 0.203482 -0.0381717 0 0 0 0)
(0 0.195909 0 0.195909 -0.0384834 0 0 0 0)
(0 0.188012 0 0.188012 -0.0387002 0 0 0 0)
(8.24023e-15 0.180719 0 0.180719 -0.0391052 0 0 0 0)
(0 0.172918 0 0.172918 -0.0393957 0 0 0 0)
(0 0.164857 0 0.164857 -0.0396173 0 0 0 0)
(0 0.156844 0 0.156844 -0.0398899 0 0 0 0)
(0 0.148355 0 0.148355 -0.0400506 0 0 0 0)
(0 0.139152 0 0.139152 -0.0400057 0 0 0 0)
(0 0.129579 0 0.129579 -0.0398596 0 0 0 0)
(0 0.119645 0 0.119645 -0.0396335 0 0 0 0)
(0 0.108742 0 0.108742 -0.0390535 0 0 0 0)
(0 0.097019 0 0.097019 -0.0381526 0 0 0 0)
(0 0.0845328 0 0.0845328 -0.0369761 0 0 0 0)
(0 0.0691817 0 0.0691817 -0.0341643 0 0 0 0)
(0 0.0551955 0 0.0551955 -0.0293256 0 0 0 0)
(0 0 0 0 -0 0 0 0 0)
(0 0 0 0 -0 0 0 0 0)
(-0 0 0 0 0 0 0 0 0)
(0 0 0 0 -0 0 0 0 0)
(0 0 0 0 -0 0 0 0 0)
(0 0 0 0 -0 0 0 0 0)
(-0 0 0 0 -0 0 0 0 0)
(0 0 0 0 -0 0 0 0 0)
(0 0 0 0 -0 0 0 0 0)
(-0 0 0 0 -0 0 0 0 0)
(0 0 0 0 -0 0 0 0 0)
(0 0 0 0 -0 0 0 0 0)
(0 0 0 0 -0 0 0 0 0)
(0 0 0 0 -0 0 0 0 0)
(0 0 0 0 -0 0 0 0 0)
(0 0 0 0 -0 0 0 0 0)
(0 0 0 0 -0 0 0 0 0)
(0 0 0 0 -0 0 0 0 0)
(0 0 0 0 -0 0 0 0 0)
(0 0 0 0 -0 0 0 0 0)
(0 0 0 0 -0 0 0 0 0)
(0 0 0 0 -0 0 0 0 0)
(0 0 0 0 -0 0 0 0 0)
(0 0 0 0 0 0 0 0 0)
(0 0 0 0 -0 0 0 0 0)
(0 0 0 0 0 0 0 0 0)
(0 0 0 0 -0 0 0 0 0)
(0 0 0 0 -0 0 0 0 0)
(0 0 0 0 0 0 0 0 0)
(0 0 0 0 -0 0 0 0 0)
(0 0 0 0 0 0 0 0 0)
(0 0 0 0 -0 0 0 0 0)
(0 0 0 0 0 0 0 0 0)
(0 0 0 0 -0 0 0 0 0)
(0 0 0 0 0 0 0 0 0)
(0 0 0 0 -0 0 0 0 0)
(0 0 0 0 0 0 0 0 0)
(0 0 0 0 -0 0 0 0 0)
(0 0 0 0 0 0 0 0 0)
(0 0 0 0 -0 0 0 0 0)
(0 0 0 0 0 0 0 0 0)
(0 0 0 0 -0 0 0 0 0)
(0 0 0 0 0 0 0 0 0)
(0 0 0 0 -0 0 0 0 0)
(0 0 0 0 0 0 0 0 0)
(0 0 0 0 -0 0 0 0 0)
(0 0 0 0 0 0 0 0 0)
(0 0 0 0 -0 0 0 0 0)
(0 0 0 0 0 0 0 0 0)
(0 0 0 0 0 0 0 0 0)
(0 0 0 0 -0 0 0 0 0)
(0 0 0 0 0 0 0 0 0)
(0 0 0 0 -0 0 0 0 0)
(0 -0 0 -0 0 0 0 0 0)
(0 0 0 0 -0 0 0 0 0)
(0 -0 0 -0 0 0 0 0 0)
(0 0 0 0 -0 0 0 0 0)
(0 -0 0 -0 0 0 0 0 0)
(-0 0 0 0 -0 0 0 0 0)
(0 -0 0 -0 0 0 0 0 0)
(0 0 0 0 -0 0 0 0 0)
(0 -0 0 -0 0 0 0 0 0)
(0 0 0 0 -0 0 0 0 0)
(0 -0 0 -0 0 0 0 0 0)
(0 0 0 0 -0 0 0 0 0)
(0 -0 0 -0 0 0 0 0 0)
(0 0 0 0 -0 0 0 0 0)
(0 0 0 0 -0 0 0 0 0)
(0 0 0 0 -0 0 0 0 0)
(0 -0 0 -0 0 0 0 0 0)
(0 0 0 0 -0 0 0 0 0)
(0 -0 0 -0 0 0 0 0 0)
(0 0 0 0 -0 0 0 0 0)
(0 -0 0 -0 0 0 0 0 0)
(0 0 0 0 -0 0 0 0 0)
(0 -0 0 -0 0 0 0 0 0)
(0 0 0 0 -0 0 0 0 0)
(0 -0 0 -0 0 0 0 0 0)
(0 0 0 0 -0 0 0 0 0)
(0 -0 0 -0 0 0 0 0 0)
(0 0 0 0 -0 0 0 0 0)
(0 -0 0 -0 0 0 0 0 0)
(0 0 0 0 -0 0 0 0 0)
(0 -0 0 -0 0 0 0 0 0)
(0 0 0 0 -0 0 0 0 0)
(0 -0 0 -0 0 0 0 0 0)
(0 0 0 0 -0 0 0 0 0)
(0 -0 0 -0 0 0 0 0 0)
(0 0 0 0 -0 0 0 0 0)
(0 -0 0 -0 0 0 0 0 0)
(0 0 0 0 -0 0 0 0 0)
(0 -0 0 -0 0 0 0 0 0)
(0 0 0 0 -0 0 0 0 0)
(0 -0 0 -0 0 0 0 0 0)
(0 0 0 0 -0 0 0 0 0)
(0 -0 0 -0 0 0 0 0 0)
(0 0 0 0 -0 0 0 0 0)
(0 -0 0 -0 0 0 0 0 0)
(0 0 0 0 -0 0 0 0 0)
(0 -0 0 -0 0 0 0 0 0)
(0 0 0 0 -0 0 0 0 0)
(0 -0 0 -0 0 0 0 0 0)
(0 0 0 0 -0 0 0 0 0)
(0 -0 0 -0 0 0 0 0 0)
(0 0 0 0 -0 0 0 0 0)
(0 -0 0 -0 0 0 0 0 0)
(0 0 0 0 -0 0 0 0 0)
(0 -0 0 -0 0 0 0 0 0)
(0 0 0 0 -0 0 0 0 0)
(0 -0 0 -0 0 0 0 0 0)
(0 0 0 0 -0 0 0 0 0)
(0 -0 0 -0 0 0 0 0 0)
(0 0 0 0 0 0 0 0 0)
(0 0 0 0 0 0 0 0 0)
(0 0 0 0 0 0 0 0 0)
(0 0 0 0 0 0 0 0 0)
(0 0 0 0 0 0 0 0 0)
(0 0 0 0 0 0 0 0 0)
(0 0 0 0 0 0 0 0 0)
)
;

boundaryField
{
    inandouthalf11
    {
        type            cyclic;
    }
    inandouthalf12
    {
        type            cyclic;
    }
    inandouthalf21
    {
        type            cyclic;
    }
    inandouthalf22
    {
        type            cyclic;
    }
    inandouthalf31
    {
        type            cyclic;
    }
    inandouthalf32
    {
        type            cyclic;
    }
    inandouthalf41
    {
        type            cyclic;
    }
    inandouthalf42
    {
        type            cyclic;
    }
    top
    {
        type            symmetryPlane;
    }
    walls
    {
        type            zeroGradient;
    }
    frontAndBackPlanes
    {
        type            empty;
    }
}


// ************************************************************************* //
