/*--------------------------------*- C++ -*----------------------------------*\
| =========                 |                                                 |
| \\      /  F ield         | OpenFOAM: The Open Source CFD Toolbox           |
|  \\    /   O peration     | Version:  2.4.x                                 |
|   \\  /    A nd           | Web:      www.OpenFOAM.org                      |
|    \\/     M anipulation  |                                                 |
\*---------------------------------------------------------------------------*/
FoamFile
{
    version     2.0;
    format      ascii;
    class       volVectorField;
    location    "2.9";
    object      Ua;
}
// * * * * * * * * * * * * * * * * * * * * * * * * * * * * * * * * * * * * * //

dimensions      [0 1 -1 0 0 0 0];

internalField   nonuniform List<vector> 
360
(
(-9.34089e-33 -6.07758e-32 0)
(-5.3562e-08 -2.70093e-07 0)
(-1.61796e-07 -7.58837e-07 0)
(-2.82583e-07 -1.27095e-06 0)
(-3.99695e-07 -1.75915e-06 0)
(-5.17118e-07 -2.24932e-06 0)
(-6.46025e-07 -2.79566e-06 0)
(-7.99445e-07 -3.46251e-06 0)
(-9.86563e-07 -4.29794e-06 0)
(-1.20447e-06 -5.29526e-06 0)
(-1.43191e-06 -6.36089e-06 0)
(-1.63379e-06 -7.32647e-06 0)
(-1.78069e-06 -8.03978e-06 0)
(-1.86758e-06 -8.46478e-06 0)
(-1.91087e-06 -8.6762e-06 0)
(-1.93066e-06 -8.77202e-06 0)
(-1.94002e-06 -8.8166e-06 0)
(-1.94512e-06 -8.84036e-06 0)
(-1.94855e-06 -8.85582e-06 0)
(-1.9514e-06 -8.86821e-06 0)
(-1.95421e-06 -8.88e-06 0)
(-1.9573e-06 -8.89254e-06 0)
(-1.96086e-06 -8.90657e-06 0)
(-1.96498e-06 -8.92232e-06 0)
(-1.96963e-06 -8.93963e-06 0)
(-1.97469e-06 -8.95802e-06 0)
(-1.98002e-06 -8.97695e-06 0)
(-1.98551e-06 -8.996e-06 0)
(-1.99109e-06 -9.0149e-06 0)
(-1.9967e-06 -9.03352e-06 0)
(-2.00234e-06 -9.05184e-06 0)
(-2.00804e-06 -9.06996e-06 0)
(-2.01383e-06 -9.08797e-06 0)
(-2.01974e-06 -9.10597e-06 0)
(-2.02579e-06 -9.12407e-06 0)
(-2.03201e-06 -9.14231e-06 0)
(-2.03841e-06 -9.16073e-06 0)
(-2.045e-06 -9.17936e-06 0)
(-2.0518e-06 -9.19822e-06 0)
(-2.05879e-06 -9.2173e-06 0)
(-2.06598e-06 -9.23659e-06 0)
(-2.07337e-06 -9.25611e-06 0)
(-2.08097e-06 -9.27584e-06 0)
(-2.08878e-06 -9.29581e-06 0)
(-2.09681e-06 -9.31606e-06 0)
(-2.10509e-06 -9.33662e-06 0)
(-2.11362e-06 -9.35752e-06 0)
(-2.12242e-06 -9.37879e-06 0)
(-2.13153e-06 -9.4005e-06 0)
(-2.14097e-06 -9.42273e-06 0)
(-2.15078e-06 -9.44557e-06 0)
(-2.16099e-06 -9.46906e-06 0)
(-2.17162e-06 -9.49326e-06 0)
(-2.18271e-06 -9.51825e-06 0)
(-2.1943e-06 -9.54409e-06 0)
(-2.20643e-06 -9.57089e-06 0)
(-2.21913e-06 -9.59871e-06 0)
(-2.23244e-06 -9.62764e-06 0)
(-2.24639e-06 -9.65773e-06 0)
(-2.26098e-06 -9.68897e-06 0)
(-2.27622e-06 -9.72139e-06 0)
(-2.29208e-06 -9.75493e-06 0)
(-2.30853e-06 -9.78949e-06 0)
(-2.3255e-06 -9.82495e-06 0)
(-2.34294e-06 -9.86117e-06 0)
(-2.3608e-06 -9.89806e-06 0)
(-2.3791e-06 -9.93564e-06 0)
(-2.39788e-06 -9.97399e-06 0)
(-2.41722e-06 -1.00133e-05 0)
(-2.43725e-06 -1.00539e-05 0)
(-2.45813e-06 -1.0096e-05 0)
(-2.48001e-06 -1.01399e-05 0)
(-2.50301e-06 -1.0186e-05 0)
(-2.5272e-06 -1.02344e-05 0)
(-2.5526e-06 -1.02851e-05 0)
(-2.57916e-06 -1.0338e-05 0)
(-2.60676e-06 -1.03928e-05 0)
(-2.63526e-06 -1.04493e-05 0)
(-2.6645e-06 -1.05072e-05 0)
(-2.69437e-06 -1.05662e-05 0)
(-2.72479e-06 -1.06263e-05 0)
(-2.75576e-06 -1.06872e-05 0)
(-2.7873e-06 -1.07493e-05 0)
(-2.81949e-06 -1.08126e-05 0)
(-2.8524e-06 -1.08773e-05 0)
(-2.8861e-06 -1.09435e-05 0)
(-2.92061e-06 -1.10113e-05 0)
(-2.95593e-06 -1.10808e-05 0)
(-2.99201e-06 -1.11517e-05 0)
(-3.02877e-06 -1.1224e-05 0)
(-3.06612e-06 -1.12975e-05 0)
(-3.10398e-06 -1.13721e-05 0)
(-3.14229e-06 -1.14476e-05 0)
(-3.18099e-06 -1.15239e-05 0)
(-3.22005e-06 -1.1601e-05 0)
(-3.25944e-06 -1.16789e-05 0)
(-3.29916e-06 -1.17576e-05 0)
(-3.3392e-06 -1.1837e-05 0)
(-3.37953e-06 -1.19172e-05 0)
(-3.42015e-06 -1.19981e-05 0)
(-3.46104e-06 -1.20797e-05 0)
(-3.50217e-06 -1.21619e-05 0)
(-3.54353e-06 -1.22449e-05 0)
(-3.58509e-06 -1.23285e-05 0)
(-3.62684e-06 -1.24127e-05 0)
(-3.66874e-06 -1.24975e-05 0)
(-3.71077e-06 -1.25829e-05 0)
(-3.75288e-06 -1.26687e-05 0)
(-3.79504e-06 -1.2755e-05 0)
(-3.8372e-06 -1.28416e-05 0)
(-3.87931e-06 -1.29285e-05 0)
(-3.9213e-06 -1.30155e-05 0)
(-3.96313e-06 -1.31026e-05 0)
(-4.00472e-06 -1.31896e-05 0)
(-4.046e-06 -1.32765e-05 0)
(-4.08692e-06 -1.3363e-05 0)
(-4.12742e-06 -1.34492e-05 0)
(-4.16745e-06 -1.3535e-05 0)
(-4.20701e-06 -1.36203e-05 0)
(-4.24609e-06 -1.37051e-05 0)
(-4.28474e-06 -1.37897e-05 0)
(-4.32306e-06 -1.38742e-05 0)
(-4.36117e-06 -1.39589e-05 0)
(-4.39927e-06 -1.40443e-05 0)
(-4.43762e-06 -1.41312e-05 0)
(-4.47655e-06 -1.42202e-05 0)
(-4.51648e-06 -1.43125e-05 0)
(-4.55789e-06 -1.44093e-05 0)
(-4.60133e-06 -1.45122e-05 0)
(-4.64735e-06 -1.46227e-05 0)
(-4.69645e-06 -1.47424e-05 0)
(-4.74892e-06 -1.48724e-05 0)
(-4.80486e-06 -1.50134e-05 0)
(-4.86407e-06 -1.51654e-05 0)
(-4.92596e-06 -1.53278e-05 0)
(-4.9892e-06 -1.54977e-05 0)
(-5.05163e-06 -1.56698e-05 0)
(-5.11068e-06 -1.5837e-05 0)
(-5.16405e-06 -1.5993e-05 0)
(-5.20942e-06 -1.61319e-05 0)
(-5.24362e-06 -1.6243e-05 0)
(-5.26447e-06 -1.63142e-05 0)
(-5.27432e-06 -1.63493e-05 0)
(-5.27788e-06 -1.63627e-05 0)
(-5.27883e-06 -1.63661e-05 0)
(-5.27919e-06 -1.63668e-05 0)
(-5.2797e-06 -1.63674e-05 0)
(-8.06914e-06 -2.01912e-05 0)
(-1.61268e-05 -2.56023e-05 0)
(-8.01973e-05 -5.87892e-05 0)
(-0.0320866 -0.00678604 0)
(-0.0360931 -0.0114947 0)
(-0.0324766 -0.0150287 0)
(-0.0263389 -0.0176507 0)
(-0.0194384 -0.0191335 0)
(-0.0121269 -0.0198895 0)
(-0.00455912 -0.0202097 0)
(0.00318012 -0.0202485 0)
(0.0110377 -0.0200918 0)
(0.0189772 -0.0197949 0)
(0.026972 -0.0193956 0)
(0.0350012 -0.0189196 0)
(0.043048 -0.0183854 0)
(0.0510983 -0.0178065 0)
(0.0591391 -0.0171928 0)
(0.0671589 -0.0165518 0)
(0.0751461 -0.0158896 0)
(0.0830896 -0.0152107 0)
(0.0909777 -0.0145193 0)
(0.0987985 -0.0138187 0)
(0.106539 -0.0131121 0)
(0.114188 -0.0124028 0)
(0.121729 -0.0116942 0)
(0.12915 -0.0109903 0)
(0.136435 -0.0102954 0)
(0.14357 -0.00961375 0)
(0.150542 -0.00894846 0)
(0.157335 -0.00829927 0)
(0.163939 -0.00766122 0)
(0.17034 -0.00702429 0)
(0.17653 -0.00637525 0)
(0.182497 -0.00570105 0)
(0.188234 -0.00499208 0)
(0.193729 -0.00424379 0)
(0.198972 -0.00345651 0)
(0.203952 -0.00263504 0)
(0.208656 -0.00178895 0)
(0.213073 -0.000934158 0)
(0.217195 -9.51267e-05 0)
(0.221015 0.000693726 0)
(0.224537 0.00139055 0)
(0.227773 0.00195577 0)
(0.230748 0.00236736 0)
(0.233499 0.00263094 0)
(0.236066 0.00277483 0)
(0.238485 0.00283493 0)
(0.240783 0.00284205 0)
(0.242977 0.0028175 0)
(0.245074 0.00277423 0)
(0.24708 0.00271951 0)
(0.248996 0.00265754 0)
(0.250843 0.00259039 0)
(0.252639 0.00251904 0)
(0.25439 0.00244405 0)
(0.256098 0.00236595 0)
(0.257759 0.00228614 0)
(0.259374 0.00220543 0)
(0.260952 0.00212367 0)
(0.262491 0.00204158 0)
(0.263985 0.00196034 0)
(0.265442 0.00187965 0)
(0.266868 0.00179884 0)
(0.268263 0.00171797 0)
(0.26963 0.00163667 0)
(0.270974 0.00155437 0)
(0.272293 0.00147129 0)
(0.273591 0.00138699 0)
(0.274879 0.00130041 0)
(0.276149 0.00121208 0)
(0.277398 0.00112222 0)
(0.278636 0.00102967 0)
(0.279865 0.000934225 0)
(0.281082 0.000835903 0)
(0.282287 0.000734428 0)
(0.283477 0.000630009 0)
(0.284662 0.000521493 0)
(0.285842 0.000408105 0)
(0.287011 0.000290713 0)
(0.288174 0.000168095 0)
(0.289333 3.94203e-05 0)
(0.290483 -9.49905e-05 0)
(0.291627 -0.000236274 0)
(0.292764 -0.000385162 0)
(0.29389 -0.000541918 0)
(0.295001 -0.000706841 0)
(0.296097 -0.00088138 0)
(0.297173 -0.00106668 0)
(0.298219 -0.0012627 0)
(0.299235 -0.00147228 0)
(0.300211 -0.00169867 0)
(0.301101 -0.00193349 0)
(0.302041 -0.00218474 0)
(0.373066 -0.0394691 0)
(0.37307 -0.039469 0)
(0.373072 -0.039469 0)
(0.373075 -0.039469 0)
(0.373077 -0.039469 0)
(0.373079 -0.039469 0)
(0.37308 -0.039469 0)
(0.373081 -0.0394691 0)
(0.373082 -0.039469 0)
(0.373083 -0.0394691 0)
(0.373083 -0.039469 0)
(0.373084 -0.0394691 0)
(0.373084 -0.039469 0)
(0.373084 -0.0394691 0)
(0.373085 -0.039469 0)
(0.373085 -0.0394691 0)
(0.373085 -0.039469 0)
(0.373085 -0.0394691 0)
(0.373085 -0.039469 0)
(0.373085 -0.0394691 0)
(0.373085 -0.039469 0)
(0.373085 -0.0394691 0)
(0.373086 -0.039469 0)
(0.373086 -0.0394691 0)
(0.373086 -0.039469 0)
(0.373086 -0.0394691 0)
(0.373086 -0.039469 0)
(0.373086 -0.0394691 0)
(0.373086 -0.039469 0)
(0.373086 -0.0394691 0)
(0.373086 -0.039469 0)
(0.373086 -0.0394691 0)
(0.373086 -0.039469 0)
(0.373086 -0.0394691 0)
(0.373086 -0.039469 0)
(0.373086 -0.0394691 0)
(0.373086 -0.039469 0)
(0.373086 -0.0394691 0)
(0.373086 -0.039469 0)
(0.373086 -0.0394691 0)
(0.373086 -0.039469 0)
(0.373086 -0.0394691 0)
(0.373086 -0.039469 0)
(0.373086 -0.0394691 0)
(0.373086 -0.039469 0)
(0.373086 -0.0394691 0)
(0.373086 -0.039469 0)
(0.373086 -0.0394691 0)
(0.373086 -0.039469 0)
(0.373086 -0.0394691 0)
(0.373086 -0.039469 0)
(0.373086 -0.0394691 0)
(0.373086 -0.039469 0)
(0.373086 -0.0394691 0)
(0.373086 -0.039469 0)
(0.373086 -0.0394691 0)
(0.373086 -0.039469 0)
(0.373086 -0.0394691 0)
(0.373086 -0.039469 0)
(0.373086 -0.0394691 0)
(0.373086 -0.039469 0)
(0.373086 -0.0394691 0)
(0.373086 -0.039469 0)
(0.373086 -0.0394691 0)
(0.373086 -0.039469 0)
(0.373086 -0.0394691 0)
(0.373086 -0.039469 0)
(0.373086 -0.0394691 0)
(0.373086 -0.039469 0)
(0.373086 -0.0394691 0)
(0.373086 -0.039469 0)
(0.373086 -0.0394691 0)
(0.373086 -0.039469 0)
(0.373086 -0.0394691 0)
(0.373086 -0.039469 0)
(0.373086 -0.0394691 0)
(0.373086 -0.039469 0)
(0.373086 -0.0394691 0)
(0.373086 -0.039469 0)
(0.373086 -0.0394691 0)
(0.373086 -0.039469 0)
(0.373086 -0.0394691 0)
(0.373086 -0.039469 0)
(0.373086 -0.0394691 0)
(0.373086 -0.039469 0)
(0.373086 -0.0394691 0)
(0.373086 -0.039469 0)
(0.373086 -0.0394691 0)
(0.373086 -0.039469 0)
(0.373086 -0.0394691 0)
(0.373086 -0.039469 0)
(0.373086 -0.0394691 0)
(0.373086 -0.039469 0)
(0.373086 -0.0394691 0)
(0.373086 -0.039469 0)
(0.373086 -0.0394691 0)
(0.373086 -0.039469 0)
(0.373086 -0.0394691 0)
(0.373086 -0.039469 0)
(0.373086 -0.0394691 0)
(0.373086 -0.039469 0)
(0.373086 -0.0394691 0)
(0.373086 -0.039469 0)
(0.373086 -0.0394691 0)
(0.373086 -0.039469 0)
(0.373086 -0.0394691 0)
(0.373086 -0.039469 0)
(0.373086 -0.0394691 0)
(0.373086 -0.039469 0)
(0.373086 -0.0394691 0)
(0.373086 -0.039469 0)
(0.373086 -0.0394691 0)
(0.373086 -0.039469 0)
(0.373086 -0.0394691 0)
(0.373086 -0.0394688 0)
(0.373087 -0.0394603 0)
(0.373123 -0.0391139 0)
(0.373946 -0.0223424 0)
)
;

boundaryField
{
    inandouthalf11
    {
        type            cyclic;
    }
    inandouthalf12
    {
        type            cyclic;
    }
    inandouthalf21
    {
        type            cyclic;
    }
    inandouthalf22
    {
        type            cyclic;
    }
    inandouthalf31
    {
        type            cyclic;
    }
    inandouthalf32
    {
        type            cyclic;
    }
    inandouthalf41
    {
        type            cyclic;
    }
    inandouthalf42
    {
        type            cyclic;
    }
    top
    {
        type            symmetryPlane;
    }
    walls
    {
        type            fixedValue;
        value           uniform (0 0 0);
    }
    frontAndBackPlanes
    {
        type            empty;
    }
}


// ************************************************************************* //
