/*--------------------------------*- C++ -*----------------------------------*\
| =========                 |                                                 |
| \\      /  F ield         | OpenFOAM: The Open Source CFD Toolbox           |
|  \\    /   O peration     | Version:  2.4.x                                 |
|   \\  /    A nd           | Web:      www.OpenFOAM.org                      |
|    \\/     M anipulation  |                                                 |
\*---------------------------------------------------------------------------*/
FoamFile
{
    version     2.0;
    format      ascii;
    class       volVectorField;
    location    "2.9";
    object      Ua_0;
}
// * * * * * * * * * * * * * * * * * * * * * * * * * * * * * * * * * * * * * //

dimensions      [0 1 -1 0 0 0 0];

internalField   nonuniform List<vector> 
360
(
(-9.34011e-33 -6.07727e-32 0)
(-5.35936e-08 -2.70264e-07 0)
(-1.61906e-07 -7.59396e-07 0)
(-2.82792e-07 -1.27197e-06 0)
(-4.00003e-07 -1.76062e-06 0)
(-5.17524e-07 -2.25124e-06 0)
(-6.46536e-07 -2.79807e-06 0)
(-8.00073e-07 -3.46551e-06 0)
(-9.87311e-07 -4.30161e-06 0)
(-1.20529e-06 -5.29942e-06 0)
(-1.43267e-06 -6.36498e-06 0)
(-1.63433e-06 -7.32963e-06 0)
(-1.7809e-06 -8.04146e-06 0)
(-1.86751e-06 -8.46513e-06 0)
(-1.91062e-06 -8.67572e-06 0)
(-1.93034e-06 -8.77114e-06 0)
(-1.93966e-06 -8.81555e-06 0)
(-1.94475e-06 -8.83924e-06 0)
(-1.94817e-06 -8.85468e-06 0)
(-1.95101e-06 -8.86706e-06 0)
(-1.95382e-06 -8.87885e-06 0)
(-1.95692e-06 -8.8914e-06 0)
(-1.96048e-06 -8.90543e-06 0)
(-1.96461e-06 -8.9212e-06 0)
(-1.96925e-06 -8.93851e-06 0)
(-1.97431e-06 -8.9569e-06 0)
(-1.97965e-06 -8.97584e-06 0)
(-1.98514e-06 -8.99489e-06 0)
(-1.99071e-06 -9.01379e-06 0)
(-1.99632e-06 -9.03241e-06 0)
(-2.00197e-06 -9.05073e-06 0)
(-2.00767e-06 -9.06885e-06 0)
(-2.01346e-06 -9.08686e-06 0)
(-2.01936e-06 -9.10487e-06 0)
(-2.02542e-06 -9.12297e-06 0)
(-2.03164e-06 -9.14121e-06 0)
(-2.03804e-06 -9.15964e-06 0)
(-2.04463e-06 -9.17827e-06 0)
(-2.05143e-06 -9.19714e-06 0)
(-2.05842e-06 -9.21622e-06 0)
(-2.06561e-06 -9.23552e-06 0)
(-2.07301e-06 -9.25504e-06 0)
(-2.0806e-06 -9.27477e-06 0)
(-2.08841e-06 -9.29475e-06 0)
(-2.09645e-06 -9.31501e-06 0)
(-2.10473e-06 -9.33557e-06 0)
(-2.11326e-06 -9.35648e-06 0)
(-2.12207e-06 -9.37776e-06 0)
(-2.13117e-06 -9.39947e-06 0)
(-2.14061e-06 -9.42171e-06 0)
(-2.15043e-06 -9.44456e-06 0)
(-2.16064e-06 -9.46805e-06 0)
(-2.17127e-06 -9.49227e-06 0)
(-2.18237e-06 -9.51726e-06 0)
(-2.19396e-06 -9.54312e-06 0)
(-2.20609e-06 -9.56992e-06 0)
(-2.21879e-06 -9.59776e-06 0)
(-2.23211e-06 -9.6267e-06 0)
(-2.24606e-06 -9.6568e-06 0)
(-2.26065e-06 -9.68806e-06 0)
(-2.2759e-06 -9.7205e-06 0)
(-2.29176e-06 -9.75405e-06 0)
(-2.30822e-06 -9.78863e-06 0)
(-2.32519e-06 -9.82411e-06 0)
(-2.34264e-06 -9.86034e-06 0)
(-2.36051e-06 -9.89726e-06 0)
(-2.37881e-06 -9.93485e-06 0)
(-2.39759e-06 -9.97323e-06 0)
(-2.41695e-06 -1.00126e-05 0)
(-2.43699e-06 -1.00531e-05 0)
(-2.45787e-06 -1.00953e-05 0)
(-2.47976e-06 -1.01393e-05 0)
(-2.50277e-06 -1.01854e-05 0)
(-2.52697e-06 -1.02338e-05 0)
(-2.55237e-06 -1.02845e-05 0)
(-2.57894e-06 -1.03374e-05 0)
(-2.60656e-06 -1.03923e-05 0)
(-2.63507e-06 -1.04489e-05 0)
(-2.66433e-06 -1.05068e-05 0)
(-2.69421e-06 -1.05658e-05 0)
(-2.72464e-06 -1.06259e-05 0)
(-2.75562e-06 -1.06869e-05 0)
(-2.78717e-06 -1.0749e-05 0)
(-2.81937e-06 -1.08123e-05 0)
(-2.8523e-06 -1.08771e-05 0)
(-2.88601e-06 -1.09433e-05 0)
(-2.92053e-06 -1.10112e-05 0)
(-2.95586e-06 -1.10807e-05 0)
(-2.99196e-06 -1.11517e-05 0)
(-3.02873e-06 -1.1224e-05 0)
(-3.0661e-06 -1.12976e-05 0)
(-3.10397e-06 -1.13722e-05 0)
(-3.1423e-06 -1.14477e-05 0)
(-3.18101e-06 -1.15241e-05 0)
(-3.22008e-06 -1.16013e-05 0)
(-3.25949e-06 -1.16792e-05 0)
(-3.29923e-06 -1.17579e-05 0)
(-3.33927e-06 -1.18374e-05 0)
(-3.37962e-06 -1.19176e-05 0)
(-3.42025e-06 -1.19985e-05 0)
(-3.46115e-06 -1.20802e-05 0)
(-3.5023e-06 -1.21625e-05 0)
(-3.54367e-06 -1.22455e-05 0)
(-3.58525e-06 -1.23292e-05 0)
(-3.62701e-06 -1.24135e-05 0)
(-3.66892e-06 -1.24983e-05 0)
(-3.71096e-06 -1.25837e-05 0)
(-3.75308e-06 -1.26696e-05 0)
(-3.79525e-06 -1.27559e-05 0)
(-3.83742e-06 -1.28425e-05 0)
(-3.87954e-06 -1.29295e-05 0)
(-3.92155e-06 -1.30165e-05 0)
(-3.96338e-06 -1.31037e-05 0)
(-4.00498e-06 -1.31908e-05 0)
(-4.04627e-06 -1.32777e-05 0)
(-4.0872e-06 -1.33643e-05 0)
(-4.12771e-06 -1.34505e-05 0)
(-4.16775e-06 -1.35363e-05 0)
(-4.20731e-06 -1.36217e-05 0)
(-4.2464e-06 -1.37066e-05 0)
(-4.28506e-06 -1.37912e-05 0)
(-4.32338e-06 -1.38757e-05 0)
(-4.36149e-06 -1.39604e-05 0)
(-4.39959e-06 -1.40459e-05 0)
(-4.43794e-06 -1.41328e-05 0)
(-4.47687e-06 -1.42219e-05 0)
(-4.51679e-06 -1.43142e-05 0)
(-4.55818e-06 -1.44111e-05 0)
(-4.60161e-06 -1.4514e-05 0)
(-4.64762e-06 -1.46245e-05 0)
(-4.69669e-06 -1.47442e-05 0)
(-4.74914e-06 -1.48742e-05 0)
(-4.80505e-06 -1.50152e-05 0)
(-4.86423e-06 -1.51673e-05 0)
(-4.92607e-06 -1.53296e-05 0)
(-4.98928e-06 -1.54996e-05 0)
(-5.05167e-06 -1.56717e-05 0)
(-5.11067e-06 -1.58389e-05 0)
(-5.16399e-06 -1.5995e-05 0)
(-5.20933e-06 -1.61339e-05 0)
(-5.24349e-06 -1.6245e-05 0)
(-5.26432e-06 -1.63162e-05 0)
(-5.27416e-06 -1.63514e-05 0)
(-5.27772e-06 -1.63648e-05 0)
(-5.27867e-06 -1.63682e-05 0)
(-5.27902e-06 -1.63689e-05 0)
(-5.27953e-06 -1.63694e-05 0)
(-8.06969e-06 -2.01967e-05 0)
(-1.61274e-05 -2.56142e-05 0)
(-8.01784e-05 -5.88589e-05 0)
(-0.0320029 -0.00679315 0)
(-0.0359675 -0.0115 0)
(-0.0323292 -0.015032 0)
(-0.0261776 -0.0176514 0)
(-0.0192669 -0.0191324 0)
(-0.0119471 -0.0198873 0)
(-0.00437226 -0.0202067 0)
(0.00337326 -0.0202449 0)
(0.0112365 -0.0200878 0)
(0.0191812 -0.0197906 0)
(0.0271807 -0.019391 0)
(0.0352144 -0.0189149 0)
(0.0432654 -0.0183806 0)
(0.0513196 -0.0178016 0)
(0.0593642 -0.0171877 0)
(0.0673876 -0.0165467 0)
(0.0753782 -0.0158843 0)
(0.0833249 -0.0152055 0)
(0.0912161 -0.014514 0)
(0.0990399 -0.0138133 0)
(0.106784 -0.0131067 0)
(0.114435 -0.0123973 0)
(0.121979 -0.0116887 0)
(0.129402 -0.0109847 0)
(0.13669 -0.0102897 0)
(0.143827 -0.00960803 0)
(0.150801 -0.0089427 0)
(0.157597 -0.00829348 0)
(0.164202 -0.00765539 0)
(0.170605 -0.00701839 0)
(0.176796 -0.00636925 0)
(0.182766 -0.0056949 0)
(0.188504 -0.00498574 0)
(0.194 -0.00423722 0)
(0.199245 -0.00344971 0)
(0.204225 -0.00262798 0)
(0.208931 -0.00178165 0)
(0.213349 -0.000926638 0)
(0.217471 -8.74417e-05 0)
(0.221291 0.000701482 0)
(0.224813 0.00139825 0)
(0.22805 0.00196328 0)
(0.231025 0.0023746 0)
(0.233776 0.00263788 0)
(0.236343 0.0027815 0)
(0.238762 0.00284138 0)
(0.24106 0.00284832 0)
(0.243254 0.00282363 0)
(0.245352 0.00278025 0)
(0.247357 0.00272543 0)
(0.249274 0.00266337 0)
(0.251121 0.00259616 0)
(0.252917 0.00252474 0)
(0.254668 0.00244969 0)
(0.256375 0.00237155 0)
(0.258037 0.00229169 0)
(0.259652 0.00221094 0)
(0.261229 0.00212916 0)
(0.262768 0.00204706 0)
(0.264263 0.0019658 0)
(0.265719 0.0018851 0)
(0.267145 0.00180428 0)
(0.26854 0.0017234 0)
(0.269907 0.00164209 0)
(0.271251 0.00155977 0)
(0.27257 0.00147668 0)
(0.273868 0.00139237 0)
(0.275156 0.00130577 0)
(0.276425 0.00121743 0)
(0.277674 0.00112756 0)
(0.278913 0.00103499 0)
(0.280141 0.000939533 0)
(0.281358 0.000841196 0)
(0.282563 0.000739705 0)
(0.283753 0.00063527 0)
(0.284938 0.000526737 0)
(0.286118 0.000413331 0)
(0.287286 0.000295921 0)
(0.288449 0.000173284 0)
(0.289608 4.4589e-05 0)
(0.290758 -8.98427e-05 0)
(0.291902 -0.000231148 0)
(0.293039 -0.000380059 0)
(0.294165 -0.00053684 0)
(0.295276 -0.000701788 0)
(0.296371 -0.000876354 0)
(0.297447 -0.00106169 0)
(0.298494 -0.00125774 0)
(0.299509 -0.00146734 0)
(0.300485 -0.00169377 0)
(0.301375 -0.0019287 0)
(0.302315 -0.00218007 0)
(0.373327 -0.0394691 0)
(0.37333 -0.039469 0)
(0.373333 -0.039469 0)
(0.373336 -0.039469 0)
(0.373338 -0.039469 0)
(0.373339 -0.039469 0)
(0.373341 -0.039469 0)
(0.373342 -0.039469 0)
(0.373343 -0.039469 0)
(0.373344 -0.0394691 0)
(0.373344 -0.039469 0)
(0.373345 -0.0394691 0)
(0.373345 -0.039469 0)
(0.373345 -0.0394691 0)
(0.373346 -0.039469 0)
(0.373346 -0.0394691 0)
(0.373346 -0.039469 0)
(0.373346 -0.0394691 0)
(0.373346 -0.039469 0)
(0.373346 -0.0394691 0)
(0.373346 -0.039469 0)
(0.373346 -0.0394691 0)
(0.373346 -0.039469 0)
(0.373346 -0.0394691 0)
(0.373346 -0.039469 0)
(0.373346 -0.0394691 0)
(0.373346 -0.039469 0)
(0.373346 -0.0394691 0)
(0.373346 -0.039469 0)
(0.373346 -0.0394691 0)
(0.373346 -0.039469 0)
(0.373347 -0.0394691 0)
(0.373347 -0.039469 0)
(0.373347 -0.0394691 0)
(0.373347 -0.039469 0)
(0.373347 -0.0394691 0)
(0.373347 -0.039469 0)
(0.373347 -0.0394691 0)
(0.373347 -0.039469 0)
(0.373347 -0.0394691 0)
(0.373347 -0.039469 0)
(0.373347 -0.0394691 0)
(0.373347 -0.039469 0)
(0.373347 -0.0394691 0)
(0.373347 -0.039469 0)
(0.373347 -0.0394691 0)
(0.373347 -0.039469 0)
(0.373347 -0.0394691 0)
(0.373347 -0.039469 0)
(0.373347 -0.0394691 0)
(0.373347 -0.039469 0)
(0.373347 -0.0394691 0)
(0.373347 -0.039469 0)
(0.373347 -0.0394691 0)
(0.373347 -0.039469 0)
(0.373347 -0.0394691 0)
(0.373347 -0.039469 0)
(0.373347 -0.0394691 0)
(0.373347 -0.039469 0)
(0.373347 -0.0394691 0)
(0.373347 -0.039469 0)
(0.373347 -0.0394691 0)
(0.373347 -0.039469 0)
(0.373347 -0.0394691 0)
(0.373347 -0.039469 0)
(0.373347 -0.0394691 0)
(0.373347 -0.039469 0)
(0.373347 -0.0394691 0)
(0.373347 -0.039469 0)
(0.373347 -0.0394691 0)
(0.373347 -0.039469 0)
(0.373347 -0.0394691 0)
(0.373347 -0.039469 0)
(0.373347 -0.0394691 0)
(0.373347 -0.039469 0)
(0.373347 -0.0394691 0)
(0.373347 -0.039469 0)
(0.373347 -0.0394691 0)
(0.373347 -0.039469 0)
(0.373347 -0.0394691 0)
(0.373347 -0.039469 0)
(0.373347 -0.0394691 0)
(0.373347 -0.039469 0)
(0.373347 -0.0394691 0)
(0.373347 -0.039469 0)
(0.373347 -0.0394691 0)
(0.373347 -0.039469 0)
(0.373347 -0.0394691 0)
(0.373347 -0.039469 0)
(0.373347 -0.0394691 0)
(0.373347 -0.039469 0)
(0.373347 -0.0394691 0)
(0.373347 -0.039469 0)
(0.373347 -0.0394691 0)
(0.373347 -0.039469 0)
(0.373347 -0.0394691 0)
(0.373347 -0.039469 0)
(0.373347 -0.0394691 0)
(0.373347 -0.039469 0)
(0.373347 -0.0394691 0)
(0.373347 -0.039469 0)
(0.373347 -0.0394691 0)
(0.373347 -0.039469 0)
(0.373347 -0.0394691 0)
(0.373347 -0.039469 0)
(0.373347 -0.0394691 0)
(0.373347 -0.039469 0)
(0.373347 -0.0394691 0)
(0.373347 -0.039469 0)
(0.373347 -0.0394691 0)
(0.373347 -0.039469 0)
(0.373347 -0.0394691 0)
(0.373347 -0.039469 0)
(0.373347 -0.0394691 0)
(0.373347 -0.0394688 0)
(0.373348 -0.0394603 0)
(0.373384 -0.0391139 0)
(0.374207 -0.0223424 0)
)
;

boundaryField
{
    inandouthalf11
    {
        type            cyclic;
    }
    inandouthalf12
    {
        type            cyclic;
    }
    inandouthalf21
    {
        type            cyclic;
    }
    inandouthalf22
    {
        type            cyclic;
    }
    inandouthalf31
    {
        type            cyclic;
    }
    inandouthalf32
    {
        type            cyclic;
    }
    inandouthalf41
    {
        type            cyclic;
    }
    inandouthalf42
    {
        type            cyclic;
    }
    top
    {
        type            symmetryPlane;
    }
    walls
    {
        type            fixedValue;
        value           uniform (0 0 0);
    }
    frontAndBackPlanes
    {
        type            empty;
    }
}


// ************************************************************************* //
