/*--------------------------------*- C++ -*----------------------------------*\
| =========                 |                                                 |
| \\      /  F ield         | OpenFOAM: The Open Source CFD Toolbox           |
|  \\    /   O peration     | Version:  2.4.x                                 |
|   \\  /    A nd           | Web:      www.OpenFOAM.org                      |
|    \\/     M anipulation  |                                                 |
\*---------------------------------------------------------------------------*/
FoamFile
{
    version     2.0;
    format      ascii;
    class       volVectorField;
    location    "2.9";
    object      Ub;
}
// * * * * * * * * * * * * * * * * * * * * * * * * * * * * * * * * * * * * * //

dimensions      [0 1 -1 0 0 0 0];

internalField   nonuniform List<vector> 
360
(
(-0.000278839 8.64341e-08 0)
(-0.000278905 4.89965e-07 0)
(-0.000278733 1.19648e-06 0)
(-0.00027881 1.97945e-06 0)
(-0.000278958 2.7564e-06 0)
(-0.000279144 3.54497e-06 0)
(-0.000279384 4.4242e-06 0)
(-0.000279665 5.48644e-06 0)
(-0.000279974 6.79132e-06 0)
(-0.000280308 8.31466e-06 0)
(-0.000280648 9.91553e-06 0)
(-0.000280948 1.13664e-05 0)
(-0.000281172 1.24675e-05 0)
(-0.000281308 1.31601e-05 0)
(-0.000281377 1.35276e-05 0)
(-0.00028141 1.37018e-05 0)
(-0.000281425 1.37831e-05 0)
(-0.000281434 1.3825e-05 0)
(-0.000281439 1.38512e-05 0)
(-0.000281445 1.38715e-05 0)
(-0.000281449 1.38903e-05 0)
(-0.000281456 1.39102e-05 0)
(-0.000281463 1.39321e-05 0)
(-0.000281471 1.39566e-05 0)
(-0.00028148 1.39834e-05 0)
(-0.000281489 1.40118e-05 0)
(-0.000281499 1.40411e-05 0)
(-0.000281511 1.40707e-05 0)
(-0.000281523 1.41001e-05 0)
(-0.000281536 1.4129e-05 0)
(-0.000281548 1.41575e-05 0)
(-0.000281562 1.41857e-05 0)
(-0.000281574 1.42136e-05 0)
(-0.000281591 1.42417e-05 0)
(-0.000281605 1.42697e-05 0)
(-0.000281622 1.4298e-05 0)
(-0.000281639 1.43265e-05 0)
(-0.000281658 1.43554e-05 0)
(-0.00028168 1.43846e-05 0)
(-0.0002817 1.44139e-05 0)
(-0.000281724 1.44438e-05 0)
(-0.000281748 1.44738e-05 0)
(-0.000281773 1.45042e-05 0)
(-0.000281801 1.4535e-05 0)
(-0.00028183 1.4566e-05 0)
(-0.000281862 1.45976e-05 0)
(-0.000281895 1.46297e-05 0)
(-0.000281929 1.46622e-05 0)
(-0.000281966 1.46954e-05 0)
(-0.000282008 1.47295e-05 0)
(-0.00028205 1.47643e-05 0)
(-0.000282096 1.48001e-05 0)
(-0.000282144 1.48369e-05 0)
(-0.000282196 1.4875e-05 0)
(-0.00028225 1.49142e-05 0)
(-0.000282309 1.49549e-05 0)
(-0.00028237 1.4997e-05 0)
(-0.000282436 1.50409e-05 0)
(-0.000282504 1.50864e-05 0)
(-0.000282575 1.51337e-05 0)
(-0.000282652 1.51827e-05 0)
(-0.000282729 1.52333e-05 0)
(-0.00028281 1.52855e-05 0)
(-0.000282893 1.5339e-05 0)
(-0.000282977 1.53937e-05 0)
(-0.000283064 1.54494e-05 0)
(-0.000283153 1.55061e-05 0)
(-0.000283245 1.5564e-05 0)
(-0.000283341 1.56233e-05 0)
(-0.00028344 1.56845e-05 0)
(-0.000283544 1.5748e-05 0)
(-0.000283653 1.58143e-05 0)
(-0.000283764 1.58837e-05 0)
(-0.00028388 1.59565e-05 0)
(-0.000283999 1.60328e-05 0)
(-0.000284123 1.61124e-05 0)
(-0.000284248 1.61949e-05 0)
(-0.000284376 1.628e-05 0)
(-0.000284507 1.63671e-05 0)
(-0.000284642 1.6456e-05 0)
(-0.000284778 1.65463e-05 0)
(-0.000284919 1.6638e-05 0)
(-0.000285063 1.67314e-05 0)
(-0.000285211 1.68265e-05 0)
(-0.000285363 1.69236e-05 0)
(-0.000285518 1.7023e-05 0)
(-0.000285678 1.71248e-05 0)
(-0.00028584 1.72288e-05 0)
(-0.000286005 1.73351e-05 0)
(-0.000286174 1.74433e-05 0)
(-0.000286347 1.75533e-05 0)
(-0.000286523 1.76648e-05 0)
(-0.000286702 1.77776e-05 0)
(-0.000286885 1.78916e-05 0)
(-0.000287072 1.80066e-05 0)
(-0.000287263 1.81227e-05 0)
(-0.000287457 1.82397e-05 0)
(-0.000287656 1.83578e-05 0)
(-0.000287858 1.84768e-05 0)
(-0.000288065 1.85968e-05 0)
(-0.000288276 1.87177e-05 0)
(-0.000288491 1.88394e-05 0)
(-0.000288711 1.8962e-05 0)
(-0.000288935 1.90853e-05 0)
(-0.000289165 1.92094e-05 0)
(-0.000289399 1.93341e-05 0)
(-0.000289638 1.94594e-05 0)
(-0.000289882 1.95851e-05 0)
(-0.000290131 1.97113e-05 0)
(-0.000290387 1.98377e-05 0)
(-0.000290647 1.99642e-05 0)
(-0.000290914 2.00907e-05 0)
(-0.000291187 2.02169e-05 0)
(-0.000291467 2.03427e-05 0)
(-0.000291753 2.04679e-05 0)
(-0.000292046 2.05923e-05 0)
(-0.000292347 2.07158e-05 0)
(-0.000292655 2.08381e-05 0)
(-0.000292972 2.09594e-05 0)
(-0.000293297 2.10795e-05 0)
(-0.000293631 2.11988e-05 0)
(-0.000293975 2.13175e-05 0)
(-0.000294329 2.14361e-05 0)
(-0.000294695 2.15554e-05 0)
(-0.000295073 2.16763e-05 0)
(-0.000295464 2.18e-05 0)
(-0.000295869 2.19282e-05 0)
(-0.00029629 2.20626e-05 0)
(-0.00029673 2.22057e-05 0)
(-0.000297188 2.23595e-05 0)
(-0.000297667 2.25264e-05 0)
(-0.000298166 2.27079e-05 0)
(-0.000298688 2.29047e-05 0)
(-0.000299238 2.31168e-05 0)
(-0.000299819 2.33426e-05 0)
(-0.00030043 2.35775e-05 0)
(-0.000301064 2.38135e-05 0)
(-0.000301724 2.404e-05 0)
(-0.00030244 2.42463e-05 0)
(-0.000303243 2.44225e-05 0)
(-0.000304098 2.45562e-05 0)
(-0.000304895 2.46274e-05 0)
(-0.000305838 2.46429e-05 0)
(-0.000307074 2.46178e-05 0)
(-0.000308593 2.45475e-05 0)
(-0.000310969 2.42398e-05 0)
(-0.000321404 2.48681e-05 0)
(-0.000325166 4.29857e-05 0)
(-0.000341078 -2.1605e-05 0)
(-0.00125881 0.00022639 0)
(-0.0385787 0.00217512 0)
(-0.0416546 0.000216085 0)
(-0.0378684 0.000742456 0)
(-0.0322523 0.000447828 0)
(-0.0257963 0.000417163 0)
(-0.0188427 0.000372698 0)
(-0.0115618 0.000328957 0)
(-0.00405344 0.000290063 0)
(0.0036175 0.00025627 0)
(0.0114065 0.000226569 0)
(0.0192817 0.00020022 0)
(0.0272194 0.000176753 0)
(0.0352015 0.000155816 0)
(0.0432142 0.000137116 0)
(0.0512464 0.000120403 0)
(0.0592895 0.000105465 0)
(0.0673364 9.21182e-05 0)
(0.0753813 8.0203e-05 0)
(0.0834196 6.95793e-05 0)
(0.0914471 6.01233e-05 0)
(0.0994607 5.17248e-05 0)
(0.107457 4.42853e-05 0)
(0.115435 3.77168e-05 0)
(0.123391 3.19401e-05 0)
(0.131323 2.68845e-05 0)
(0.139231 2.24856e-05 0)
(0.147111 1.86833e-05 0)
(0.154962 1.54188e-05 0)
(0.162783 1.26316e-05 0)
(0.170571 1.02595e-05 0)
(0.178326 8.24167e-06 0)
(0.186044 6.52268e-06 0)
(0.193725 5.05593e-06 0)
(0.201367 3.80458e-06 0)
(0.208968 2.74032e-06 0)
(0.216525 1.84192e-06 0)
(0.224037 1.09474e-06 0)
(0.231501 4.91142e-07 0)
(0.238914 3.06996e-08 0)
(0.246273 -2.82624e-07 0)
(0.253573 -4.49339e-07 0)
(0.26081 -4.86952e-07 0)
(0.267979 -4.34918e-07 0)
(0.275071 -3.43418e-07 0)
(0.282079 -2.53153e-07 0)
(0.288997 -1.83383e-07 0)
(0.295813 -1.35543e-07 0)
(0.30252 -1.03702e-07 0)
(0.309105 -8.17674e-08 0)
(0.315556 -6.58052e-08 0)
(0.321859 -5.37333e-08 0)
(0.328056 -4.42793e-08 0)
(0.33418 -3.66061e-08 0)
(0.340189 -3.02538e-08 0)
(0.346028 -2.50624e-08 0)
(0.351618 -2.08691e-08 0)
(0.356842 -1.7379e-08 0)
(0.361514 -1.4382e-08 0)
(0.364847 -1.17132e-08 0)
(0.365804 -9.95459e-09 0)
(0.366031 -8.02118e-09 0)
(0.366206 -7.04371e-09 0)
(0.366365 -5.19912e-09 0)
(0.366511 -5.17762e-09 0)
(0.366645 -2.93202e-09 0)
(0.366767 -4.18352e-09 0)
(0.366878 -1.05318e-09 0)
(0.366979 -3.76339e-09 0)
(0.367071 5.63435e-10 0)
(0.367155 -3.83798e-09 0)
(0.36723 2.0011e-09 0)
(0.367298 -4.17952e-09 0)
(0.367359 3.26079e-09 0)
(0.367414 -4.70468e-09 0)
(0.367464 4.37541e-09 0)
(0.367508 -5.32923e-09 0)
(0.367547 5.3752e-09 0)
(0.367582 -6.01135e-09 0)
(0.367613 6.27979e-09 0)
(0.36764 -6.72409e-09 0)
(0.367664 7.12217e-09 0)
(0.367685 -7.489e-09 0)
(0.367704 7.99631e-09 0)
(0.36772 -8.35428e-09 0)
(0.367734 8.92207e-09 0)
(0.367746 -9.29878e-09 0)
(0.367757 9.89717e-09 0)
(0.367766 -1.03087e-08 0)
(0.367774 1.09219e-08 0)
(0.367781 -1.13767e-08 0)
(0.367786 1.20042e-08 0)
(0.367791 -1.24303e-08 0)
(0.367796 1.45258e-08 0)
(0.367799 -1.51368e-08 0)
(0.367802 1.57527e-08 0)
(0.367805 -1.6396e-08 0)
(0.367807 1.70442e-08 0)
(0.367808 -1.77198e-08 0)
(0.36781 1.84003e-08 0)
(0.367811 -1.91079e-08 0)
(0.367812 1.98205e-08 0)
(0.367813 -2.05599e-08 0)
(0.367813 2.13044e-08 0)
(0.367814 -2.20754e-08 0)
(0.367814 2.28517e-08 0)
(0.367815 -2.36538e-08 0)
(0.367815 2.44616e-08 0)
(0.367815 -2.52944e-08 0)
(0.367815 2.61334e-08 0)
(0.367815 -2.69965e-08 0)
(0.367815 2.78663e-08 0)
(0.367816 -2.87592e-08 0)
(0.367816 2.96591e-08 0)
(0.367816 -3.05812e-08 0)
(0.367816 3.15107e-08 0)
(0.367816 -3.24614e-08 0)
(0.367816 3.34195e-08 0)
(0.367816 -3.43979e-08 0)
(0.367816 3.53836e-08 0)
(0.367816 -3.63888e-08 0)
(0.367816 3.74009e-08 0)
(0.367816 -3.84314e-08 0)
(0.367816 3.94683e-08 0)
(0.367816 -4.05224e-08 0)
(0.367816 4.15821e-08 0)
(0.367816 -4.26577e-08 0)
(0.367816 4.37377e-08 0)
(0.367816 -4.48316e-08 0)
(0.367816 4.59284e-08 0)
(0.367816 -4.70363e-08 0)
(0.367816 4.81445e-08 0)
(0.367816 -4.92596e-08 0)
(0.367816 5.03697e-08 0)
(0.367816 -5.14775e-08 0)
(0.367816 5.25625e-08 0)
(0.367816 -5.35874e-08 0)
(0.367816 5.46037e-08 0)
(0.367816 -5.56261e-08 0)
(0.367816 5.66518e-08 0)
(0.367816 -5.76882e-08 0)
(0.367816 5.87315e-08 0)
(0.367816 -5.97872e-08 0)
(0.367816 6.08521e-08 0)
(0.367816 -6.19304e-08 0)
(0.367816 6.30197e-08 0)
(0.367816 -6.41231e-08 0)
(0.367816 6.5239e-08 0)
(0.367816 -6.63696e-08 0)
(0.367816 6.75139e-08 0)
(0.367816 -6.86737e-08 0)
(0.367816 6.98482e-08 0)
(0.367816 -7.10391e-08 0)
(0.367816 7.22457e-08 0)
(0.367816 -7.34694e-08 0)
(0.367816 7.47098e-08 0)
(0.367816 -7.59683e-08 0)
(0.367816 7.72444e-08 0)
(0.367816 -7.85394e-08 0)
(0.367816 7.9853e-08 0)
(0.367816 -8.11865e-08 0)
(0.367816 7.23941e-08 0)
(0.367816 -7.20984e-08 0)
(0.367816 7.17986e-08 0)
(0.367816 -7.14955e-08 0)
(0.367816 7.11891e-08 0)
(0.367816 -7.08802e-08 0)
(0.367816 7.05686e-08 0)
(0.367816 -7.02551e-08 0)
(0.367816 6.99396e-08 0)
(0.367816 -6.96228e-08 0)
(0.367816 6.93047e-08 0)
(0.367816 -6.89858e-08 0)
(0.367816 6.86662e-08 0)
(0.367816 -6.83465e-08 0)
(0.367816 6.80265e-08 0)
(0.367816 -6.77071e-08 0)
(0.367816 6.7388e-08 0)
(0.367816 -6.70699e-08 0)
(0.367816 6.67527e-08 0)
(0.367816 -6.64371e-08 0)
(0.367816 6.6123e-08 0)
(0.367816 -6.58111e-08 0)
(0.367816 6.55011e-08 0)
(0.367816 -6.51939e-08 0)
(0.367816 6.48892e-08 0)
(0.367816 -6.4588e-08 0)
(0.367816 6.42898e-08 0)
(0.367816 -6.39958e-08 0)
(0.367816 6.37052e-08 0)
(0.367816 -6.34197e-08 0)
(0.367816 6.31381e-08 0)
(0.367816 -6.28623e-08 0)
(0.367816 6.25911e-08 0)
(0.367816 -6.23264e-08 0)
(0.367816 6.20672e-08 0)
(0.367816 -6.18152e-08 0)
(0.367816 6.15695e-08 0)
(0.367816 -6.13319e-08 0)
(0.367816 6.11018e-08 0)
(0.367816 -6.08805e-08 0)
(0.367816 6.06682e-08 0)
(0.367816 -6.04656e-08 0)
(0.367816 6.02739e-08 0)
(0.367816 -6.00929e-08 0)
(0.367816 5.99254e-08 0)
(0.367816 -5.97703e-08 0)
(0.367816 5.96325e-08 0)
(0.367816 -5.951e-08 0)
(0.367816 5.94118e-08 0)
(0.367816 -5.93368e-08 0)
)
;

boundaryField
{
    inandouthalf11
    {
        type            cyclic;
    }
    inandouthalf12
    {
        type            cyclic;
    }
    inandouthalf21
    {
        type            cyclic;
    }
    inandouthalf22
    {
        type            cyclic;
    }
    inandouthalf31
    {
        type            cyclic;
    }
    inandouthalf32
    {
        type            cyclic;
    }
    inandouthalf41
    {
        type            cyclic;
    }
    inandouthalf42
    {
        type            cyclic;
    }
    top
    {
        type            symmetryPlane;
    }
    walls
    {
        type            fixedValue;
        value           uniform (0 0 0);
    }
    frontAndBackPlanes
    {
        type            empty;
    }
}


// ************************************************************************* //
