/*--------------------------------*- C++ -*----------------------------------*\
| =========                 |                                                 |
| \\      /  F ield         | OpenFOAM: The Open Source CFD Toolbox           |
|  \\    /   O peration     | Version:  2.4.x                                 |
|   \\  /    A nd           | Web:      www.OpenFOAM.org                      |
|    \\/     M anipulation  |                                                 |
\*---------------------------------------------------------------------------*/
FoamFile
{
    version     2.0;
    format      ascii;
    class       volVectorField;
    location    "2.9";
    object      Ur;
}
// * * * * * * * * * * * * * * * * * * * * * * * * * * * * * * * * * * * * * //

dimensions      [0 1 -1 0 0 0 0];

internalField   nonuniform List<vector> 
360
(
(-0.000278839 8.64341e-08 0)
(-0.000278851 7.60058e-07 0)
(-0.000278572 1.95532e-06 0)
(-0.000278528 3.25041e-06 0)
(-0.000278558 4.51555e-06 0)
(-0.000278627 5.79429e-06 0)
(-0.000278738 7.21986e-06 0)
(-0.000278866 8.94895e-06 0)
(-0.000278987 1.10893e-05 0)
(-0.000279104 1.36099e-05 0)
(-0.000279216 1.62764e-05 0)
(-0.000279315 1.86929e-05 0)
(-0.000279391 2.05073e-05 0)
(-0.00027944 2.16248e-05 0)
(-0.000279466 2.22038e-05 0)
(-0.000279479 2.24739e-05 0)
(-0.000279485 2.25997e-05 0)
(-0.000279489 2.26654e-05 0)
(-0.00027949 2.2707e-05 0)
(-0.000279494 2.27397e-05 0)
(-0.000279495 2.27703e-05 0)
(-0.000279499 2.28027e-05 0)
(-0.000279502 2.28387e-05 0)
(-0.000279506 2.28789e-05 0)
(-0.00027951 2.2923e-05 0)
(-0.000279515 2.29699e-05 0)
(-0.000279519 2.30181e-05 0)
(-0.000279526 2.30667e-05 0)
(-0.000279532 2.3115e-05 0)
(-0.000279539 2.31625e-05 0)
(-0.000279545 2.32093e-05 0)
(-0.000279554 2.32557e-05 0)
(-0.00027956 2.33016e-05 0)
(-0.000279571 2.33477e-05 0)
(-0.00027958 2.33938e-05 0)
(-0.00027959 2.34403e-05 0)
(-0.000279601 2.34873e-05 0)
(-0.000279613 2.35347e-05 0)
(-0.000279628 2.35828e-05 0)
(-0.000279641 2.36312e-05 0)
(-0.000279658 2.36803e-05 0)
(-0.000279675 2.37299e-05 0)
(-0.000279692 2.378e-05 0)
(-0.000279713 2.38308e-05 0)
(-0.000279734 2.38821e-05 0)
(-0.000279757 2.39342e-05 0)
(-0.000279781 2.39872e-05 0)
(-0.000279806 2.4041e-05 0)
(-0.000279835 2.40959e-05 0)
(-0.000279867 2.41522e-05 0)
(-0.000279899 2.42098e-05 0)
(-0.000279935 2.42691e-05 0)
(-0.000279972 2.43302e-05 0)
(-0.000280013 2.43932e-05 0)
(-0.000280055 2.44583e-05 0)
(-0.000280103 2.45258e-05 0)
(-0.000280151 2.45958e-05 0)
(-0.000280203 2.46685e-05 0)
(-0.000280258 2.47442e-05 0)
(-0.000280314 2.48226e-05 0)
(-0.000280375 2.49041e-05 0)
(-0.000280437 2.49883e-05 0)
(-0.000280502 2.5075e-05 0)
(-0.000280567 2.5164e-05 0)
(-0.000280634 2.52549e-05 0)
(-0.000280703 2.53474e-05 0)
(-0.000280774 2.54417e-05 0)
(-0.000280848 2.5538e-05 0)
(-0.000280924 2.56367e-05 0)
(-0.000281002 2.57384e-05 0)
(-0.000281086 2.58439e-05 0)
(-0.000281173 2.59542e-05 0)
(-0.000281261 2.60697e-05 0)
(-0.000281353 2.61909e-05 0)
(-0.000281447 2.63178e-05 0)
(-0.000281544 2.64504e-05 0)
(-0.000281641 2.65878e-05 0)
(-0.000281741 2.67294e-05 0)
(-0.000281843 2.68744e-05 0)
(-0.000281947 2.70222e-05 0)
(-0.000282054 2.71725e-05 0)
(-0.000282163 2.73253e-05 0)
(-0.000282276 2.74807e-05 0)
(-0.000282392 2.76391e-05 0)
(-0.000282511 2.78009e-05 0)
(-0.000282632 2.79665e-05 0)
(-0.000282757 2.81361e-05 0)
(-0.000282884 2.83096e-05 0)
(-0.000283013 2.84868e-05 0)
(-0.000283146 2.86674e-05 0)
(-0.000283281 2.88509e-05 0)
(-0.000283419 2.90369e-05 0)
(-0.00028356 2.92252e-05 0)
(-0.000283704 2.94155e-05 0)
(-0.000283852 2.96077e-05 0)
(-0.000284003 2.98016e-05 0)
(-0.000284158 2.99973e-05 0)
(-0.000284317 3.01948e-05 0)
(-0.000284479 3.0394e-05 0)
(-0.000284645 3.05949e-05 0)
(-0.000284815 3.07973e-05 0)
(-0.000284989 3.10014e-05 0)
(-0.000285168 3.12069e-05 0)
(-0.00028535 3.14138e-05 0)
(-0.000285538 3.16221e-05 0)
(-0.00028573 3.18316e-05 0)
(-0.000285927 3.20423e-05 0)
(-0.000286129 3.22539e-05 0)
(-0.000286336 3.24663e-05 0)
(-0.000286549 3.26793e-05 0)
(-0.000286768 3.28927e-05 0)
(-0.000286993 3.31062e-05 0)
(-0.000287224 3.33195e-05 0)
(-0.000287462 3.35324e-05 0)
(-0.000287707 3.37444e-05 0)
(-0.000287959 3.39554e-05 0)
(-0.000288219 3.4165e-05 0)
(-0.000288488 3.43731e-05 0)
(-0.000288765 3.45796e-05 0)
(-0.00028905 3.47847e-05 0)
(-0.000289346 3.49885e-05 0)
(-0.000289652 3.51916e-05 0)
(-0.000289968 3.5395e-05 0)
(-0.000290296 3.55997e-05 0)
(-0.000290635 3.58074e-05 0)
(-0.000290987 3.60202e-05 0)
(-0.000291353 3.62406e-05 0)
(-0.000291733 3.6472e-05 0)
(-0.000292128 3.67179e-05 0)
(-0.000292541 3.69823e-05 0)
(-0.00029297 3.72688e-05 0)
(-0.000293417 3.75803e-05 0)
(-0.000293883 3.79181e-05 0)
(-0.000294374 3.82823e-05 0)
(-0.000294894 3.86703e-05 0)
(-0.000295441 3.90752e-05 0)
(-0.000296012 3.94833e-05 0)
(-0.000296613 3.98769e-05 0)
(-0.000297276 4.02393e-05 0)
(-0.000298034 4.05544e-05 0)
(-0.000298855 4.07992e-05 0)
(-0.00029963 4.09415e-05 0)
(-0.000300564 4.09922e-05 0)
(-0.000301796 4.09805e-05 0)
(-0.000303315 4.09136e-05 0)
(-0.000305689 4.06066e-05 0)
(-0.000316124 4.12354e-05 0)
(-0.000317097 6.3177e-05 0)
(-0.000324951 3.99737e-06 0)
(-0.00117861 0.000285179 0)
(-0.0064921 0.00896116 0)
(-0.00556152 0.0117108 0)
(-0.00539178 0.0157711 0)
(-0.00591343 0.0180985 0)
(-0.00635793 0.0195506 0)
(-0.00671583 0.0202622 0)
(-0.00700264 0.0205386 0)
(-0.00723357 0.0205385 0)
(-0.00742022 0.020348 0)
(-0.0075707 0.0200215 0)
(-0.00769023 0.0195958 0)
(-0.00778178 0.0190963 0)
(-0.00784652 0.0185413 0)
(-0.00788409 0.0179436 0)
(-0.00789272 0.0173132 0)
(-0.00786937 0.0166573 0)
(-0.00780973 0.0159817 0)
(-0.00770824 0.0152909 0)
(-0.00755812 0.0145889 0)
(-0.00735135 0.0138788 0)
(-0.00707874 0.0131639 0)
(-0.00673003 0.0124471 0)
(-0.00629398 0.0117319 0)
(-0.0057586 0.0110222 0)
(-0.00511138 0.0103222 0)
(-0.00433965 0.00963624 0)
(-0.00343097 0.00896714 0)
(-0.00237345 0.00831469 0)
(-0.00115614 0.00767385 0)
(0.000230729 0.00703455 0)
(0.00179584 0.00638349 0)
(0.00354701 0.00570757 0)
(0.00549185 0.00499714 0)
(0.00763846 0.00424759 0)
(0.00999577 0.00345925 0)
(0.0125734 0.00263688 0)
(0.015381 0.00179004 0)
(0.0184275 0.00093465 0)
(0.0217192 9.51574e-05 0)
(0.0252576 -0.000694009 0)
(0.0290364 -0.001391 0)
(0.0330376 -0.00195626 0)
(0.0372302 -0.0023678 0)
(0.0415715 -0.00263128 0)
(0.0460137 -0.00277509 0)
(0.050512 -0.00283512 0)
(0.0550304 -0.00284219 0)
(0.0595432 -0.00281761 0)
(0.064031 -0.00277431 0)
(0.0684765 -0.00271958 0)
(0.0728621 -0.00265759 0)
(0.0772127 -0.00259044 0)
(0.0815403 -0.00251908 0)
(0.085799 -0.00244408 0)
(0.0899303 -0.00236598 0)
(0.0938593 -0.00228616 0)
(0.0974675 -0.00220544 0)
(0.100562 -0.00212368 0)
(0.102356 -0.0020416 0)
(0.101819 -0.00196035 0)
(0.100589 -0.00187966 0)
(0.0993374 -0.00179885 0)
(0.0981022 -0.00171798 0)
(0.0968814 -0.00163668 0)
(0.0956704 -0.00155437 0)
(0.0944738 -0.0014713 0)
(0.0932866 -0.00138699 0)
(0.0920999 -0.00130041 0)
(0.0909225 -0.00121208 0)
(0.089757 -0.00112223 0)
(0.0885938 -0.00102966 0)
(0.0874334 -0.000934229 0)
(0.0862777 -0.0008359 0)
(0.0851275 -0.000734433 0)
(0.0839864 -0.000630004 0)
(0.082846 -0.000521498 0)
(0.0817044 -0.000408099 0)
(0.0805709 -0.000290719 0)
(0.0794387 -0.000168089 0)
(0.0783071 -3.9427e-05 0)
(0.0771812 9.49976e-05 0)
(0.0760586 0.000236266 0)
(0.0749398 0.00038517 0)
(0.0738297 0.00054191 0)
(0.072733 0.00070685 0)
(0.0716498 0.00088137 0)
(0.0705842 0.00106669 0)
(0.0695469 0.00126269 0)
(0.0685394 0.00147229 0)
(0.0675692 0.00169866 0)
(0.0666851 0.0019335 0)
(0.0657498 0.00218473 0)
(-0.00527051 0.0394692 0)
(-0.0052705 0.039469 0)
(-0.00527036 0.039469 0)
(-0.00527027 0.039469 0)
(-0.00527018 0.0394691 0)
(-0.00527011 0.039469 0)
(-0.00527005 0.0394691 0)
(-0.00527001 0.039469 0)
(-0.00526997 0.0394691 0)
(-0.00526994 0.039469 0)
(-0.00526991 0.0394691 0)
(-0.00526989 0.039469 0)
(-0.00526987 0.0394691 0)
(-0.00526986 0.039469 0)
(-0.00526985 0.0394691 0)
(-0.00526984 0.039469 0)
(-0.00526983 0.0394691 0)
(-0.00526983 0.039469 0)
(-0.00526982 0.0394691 0)
(-0.00526982 0.039469 0)
(-0.00526982 0.0394691 0)
(-0.00526982 0.039469 0)
(-0.00526981 0.0394691 0)
(-0.00526982 0.039469 0)
(-0.00526981 0.0394691 0)
(-0.00526981 0.039469 0)
(-0.00526981 0.0394691 0)
(-0.00526981 0.039469 0)
(-0.00526981 0.0394691 0)
(-0.00526981 0.039469 0)
(-0.00526981 0.0394691 0)
(-0.00526981 0.039469 0)
(-0.00526981 0.0394691 0)
(-0.00526981 0.039469 0)
(-0.00526981 0.0394691 0)
(-0.00526981 0.039469 0)
(-0.00526981 0.0394691 0)
(-0.00526981 0.039469 0)
(-0.00526981 0.0394691 0)
(-0.00526981 0.039469 0)
(-0.00526981 0.0394691 0)
(-0.00526981 0.039469 0)
(-0.00526981 0.0394691 0)
(-0.00526981 0.039469 0)
(-0.00526981 0.0394691 0)
(-0.00526981 0.039469 0)
(-0.00526981 0.0394691 0)
(-0.00526981 0.039469 0)
(-0.00526981 0.0394691 0)
(-0.00526981 0.039469 0)
(-0.00526981 0.0394691 0)
(-0.00526981 0.039469 0)
(-0.00526981 0.0394691 0)
(-0.00526981 0.039469 0)
(-0.00526981 0.0394691 0)
(-0.00526981 0.039469 0)
(-0.00526981 0.0394691 0)
(-0.00526981 0.039469 0)
(-0.00526981 0.0394691 0)
(-0.00526981 0.039469 0)
(-0.00526981 0.0394691 0)
(-0.00526981 0.039469 0)
(-0.00526981 0.0394691 0)
(-0.00526981 0.039469 0)
(-0.00526981 0.0394691 0)
(-0.00526981 0.039469 0)
(-0.00526981 0.0394691 0)
(-0.00526981 0.039469 0)
(-0.00526981 0.0394691 0)
(-0.00526981 0.039469 0)
(-0.00526981 0.0394691 0)
(-0.00526981 0.039469 0)
(-0.00526981 0.0394691 0)
(-0.00526981 0.039469 0)
(-0.00526981 0.0394691 0)
(-0.00526981 0.039469 0)
(-0.00526981 0.0394691 0)
(-0.00526981 0.039469 0)
(-0.00526981 0.0394691 0)
(-0.00526981 0.039469 0)
(-0.00526981 0.0394691 0)
(-0.00526981 0.039469 0)
(-0.00526981 0.0394691 0)
(-0.00526981 0.039469 0)
(-0.00526981 0.0394691 0)
(-0.00526981 0.039469 0)
(-0.00526981 0.0394691 0)
(-0.00526981 0.039469 0)
(-0.00526981 0.0394691 0)
(-0.00526981 0.039469 0)
(-0.00526981 0.0394691 0)
(-0.00526981 0.039469 0)
(-0.00526981 0.0394691 0)
(-0.00526981 0.039469 0)
(-0.00526981 0.0394691 0)
(-0.00526981 0.039469 0)
(-0.00526981 0.0394691 0)
(-0.00526981 0.039469 0)
(-0.00526981 0.0394691 0)
(-0.00526981 0.039469 0)
(-0.00526981 0.0394691 0)
(-0.00526981 0.039469 0)
(-0.00526981 0.0394691 0)
(-0.00526981 0.039469 0)
(-0.00526981 0.0394691 0)
(-0.00526981 0.039469 0)
(-0.00526981 0.0394691 0)
(-0.00526981 0.039469 0)
(-0.00526981 0.0394691 0)
(-0.00526981 0.039469 0)
(-0.00526981 0.0394691 0)
(-0.00526981 0.039469 0)
(-0.00526981 0.0394691 0)
(-0.00526981 0.039469 0)
(-0.00526987 0.0394689 0)
(-0.00527133 0.0394603 0)
(-0.00530693 0.0391139 0)
(-0.00613051 0.0223424 0)
)
;

boundaryField
{
    inandouthalf11
    {
        type            cyclic;
    }
    inandouthalf12
    {
        type            cyclic;
    }
    inandouthalf21
    {
        type            cyclic;
    }
    inandouthalf22
    {
        type            cyclic;
    }
    inandouthalf31
    {
        type            cyclic;
    }
    inandouthalf32
    {
        type            cyclic;
    }
    inandouthalf41
    {
        type            cyclic;
    }
    inandouthalf42
    {
        type            cyclic;
    }
    top
    {
        type            symmetryPlane;
    }
    walls
    {
        type            calculated;
        value           uniform (0 0 0);
    }
    frontAndBackPlanes
    {
        type            empty;
    }
}


// ************************************************************************* //
