/*--------------------------------*- C++ -*----------------------------------*\
| =========                 |                                                 |
| \\      /  F ield         | OpenFOAM: The Open Source CFD Toolbox           |
|  \\    /   O peration     | Version:  2.4.x                                 |
|   \\  /    A nd           | Web:      www.OpenFOAM.org                      |
|    \\/     M anipulation  |                                                 |
\*---------------------------------------------------------------------------*/
FoamFile
{
    version     2.0;
    format      ascii;
    class       volScalarField;
    location    "5.45";
    object      alpha_0;
}
// * * * * * * * * * * * * * * * * * * * * * * * * * * * * * * * * * * * * * //

dimensions      [0 0 0 0 0 0 0];

internalField   nonuniform List<scalar> 
360
(
0.610594
0.611291
0.61142
0.611355
0.611305
0.611281
0.61126
0.611237
0.611213
0.611189
0.611163
0.611138
0.611112
0.611086
0.611061
0.611035
0.611008
0.610982
0.610955
0.610928
0.610901
0.610873
0.610845
0.610818
0.610789
0.610761
0.610732
0.610703
0.610674
0.610644
0.610614
0.610583
0.610553
0.610521
0.61049
0.610459
0.610428
0.610397
0.610366
0.610337
0.610306
0.610275
0.610244
0.610209
0.610172
0.610131
0.610084
0.610033
0.609978
0.609925
0.609882
0.609849
0.609825
0.609805
0.609787
0.609767
0.609747
0.609725
0.609702
0.609678
0.609652
0.609627
0.609599
0.609572
0.609544
0.609515
0.609485
0.609454
0.609422
0.609389
0.609354
0.609318
0.609281
0.609243
0.609204
0.609163
0.609123
0.609081
0.609038
0.608995
0.60895
0.608904
0.608857
0.608808
0.608759
0.608708
0.608656
0.608603
0.608549
0.608493
0.608437
0.608379
0.60832
0.60826
0.608198
0.608135
0.60807
0.608003
0.607936
0.607866
0.607795
0.607722
0.607648
0.607572
0.607493
0.607413
0.607331
0.607247
0.60716
0.607071
0.60698
0.606886
0.60679
0.606691
0.606589
0.606484
0.606376
0.606264
0.60615
0.606031
0.60591
0.605784
0.605654
0.605519
0.605381
0.605237
0.605088
0.604934
0.604774
0.604608
0.604434
0.604254
0.604066
0.603867
0.603657
0.603434
0.6032
0.602952
0.602677
0.602362
0.602021
0.601696
0.601309
0.600806
0.600186
0.599084
0.595441
0.563497
0.324275
0.228981
0.18269
0.147803
0.119346
0.095878
0.0767431
0.0613702
0.0491609
0.0395279
0.0319433
0.0259633
0.0212308
0.017466
0.014453
0.0120264
0.0100594
0.00845512
0.00713867
0.00605224
0.00515079
0.00439901
0.00376908
0.00323889
0.0027908
0.00241062
0.00208688
0.00181027
0.00157318
0.00136935
0.00119363
0.00104174
0.000910118
0.000795798
0.000696263
0.000609375
0.000533285
0.000466389
0.000407305
0.000354881
0.00030821
0.000266644
0.000229746
0.000197206
0.000168773
0.000144219
0.000123257
0.000105418
9.01057e-05
7.67894e-05
6.51546e-05
5.50858e-05
4.6502e-05
3.91628e-05
3.29055e-05
2.76816e-05
2.32857e-05
1.95422e-05
1.64389e-05
1.38608e-05
1.16584e-05
9.81483e-06
8.28073e-06
6.97676e-06
5.88597e-06
4.9633e-06
4.17039e-06
3.5174e-06
2.95893e-06
2.47254e-06
2.07438e-06
1.73633e-06
1.44608e-06
1.20272e-06
9.95434e-07
8.25434e-07
6.7874e-07
5.53751e-07
4.52723e-07
3.6588e-07
2.93836e-07
2.34738e-07
1.86159e-07
1.464e-07
1.13795e-07
8.36251e-08
6.52605e-08
4.71343e-08
6.581e-08
3.49917e-08
1.34146e-08
5.90946e-22
5.59492e-23
4.49105e-23
4.05732e-23
2.98798e-23
1.96653e-23
8.4352e-24
3.54417e-24
1.79245e-24
1.06507e-24
7.22856e-25
5.49496e-25
4.49939e-25
3.66926e-25
2.71441e-25
1.55642e-25
6.27197e-26
2.87739e-26
1.53776e-26
9.15231e-27
5.99429e-27
4.13968e-27
2.61628e-27
1.21411e-27
5.60355e-28
2.89996e-28
1.58006e-28
8.88316e-29
4.66387e-29
2.25388e-29
1.1308e-29
5.63512e-30
2.75988e-30
1.32611e-30
6.24667e-31
2.88258e-31
1.30211e-31
5.75302e-32
2.48403e-32
1.04721e-32
4.30636e-33
1.72558e-33
6.73026e-34
2.55203e-34
9.39613e-35
3.3545e-35
1.15953e-35
3.87451e-36
1.24934e-36
3.88016e-37
1.15831e-37
3.316e-38
9.0808e-39
2.37211e-39
5.8923e-40
1.38689e-40
3.08084e-41
6.42945e-42
1.25389e-42
2.27113e-43
3.79259e-44
5.78781e-45
7.98507e-46
9.82486e-47
1.05929e-47
9.77358e-49
7.46137e-50
4.47559e-51
1.92794e-52
4.89474e-54
3.0059e-56
1.04365e-59
1.27086e-61
7.68051e-64
2.01532e-74
2.63015e-85
2.4184e-96
1.63771e-107
9.17383e-119
4.12218e-130
1.59898e-141
8.6019e-151
2.94911e-161
2.96032e-169
9.09756e-180
1.01835e-187
3.7062e-198
3.50318e-206
1.59587e-216
1.20613e-224
1.03326e-234
4.19977e-243
6.78132e-253
1.48739e-261
3.37571e-271
5.35408e-280
1.59854e-289
1.95646e-298
7.03239e-308
7.13327e-317
2.76998e-319
6.80328e-321
7.09478e-321
6.08689e-321
8.5424e-321
0
0
0
0
0
0
0
0
0
0
0
0
0
0
0
0
)
;

boundaryField
{
    inandouthalf11
    {
        type            cyclic;
    }
    inandouthalf12
    {
        type            cyclic;
    }
    inandouthalf21
    {
        type            cyclic;
    }
    inandouthalf22
    {
        type            cyclic;
    }
    inandouthalf31
    {
        type            cyclic;
    }
    inandouthalf32
    {
        type            cyclic;
    }
    inandouthalf41
    {
        type            cyclic;
    }
    inandouthalf42
    {
        type            cyclic;
    }
    top
    {
        type            symmetryPlane;
    }
    walls
    {
        type            zeroGradient;
    }
    frontAndBackPlanes
    {
        type            empty;
    }
}


// ************************************************************************* //
