/*--------------------------------*- C++ -*----------------------------------*\
| =========                 |                                                 |
| \\      /  F ield         | OpenFOAM: The Open Source CFD Toolbox           |
|  \\    /   O peration     | Version:  2.4.x                                 |
|   \\  /    A nd           | Web:      www.OpenFOAM.org                      |
|    \\/     M anipulation  |                                                 |
\*---------------------------------------------------------------------------*/
FoamFile
{
    version     2.0;
    format      ascii;
    class       volScalarField;
    location    "5.45";
    object      ddt0(((1.5*(alpha+1e-08))*rho),Theta);
}
// * * * * * * * * * * * * * * * * * * * * * * * * * * * * * * * * * * * * * //

dimensions      [1 -1 -3 0 0 0 0];

internalField   nonuniform List<scalar> 
360
(
-8.27436e-21
-3.36833e-20
-2.82665e-20
-2.25023e-20
-2.25388e-20
-2.40842e-20
-2.53e-20
-2.58881e-20
-2.6078e-20
-2.62226e-20
-2.65289e-20
-2.69847e-20
-2.74862e-20
-2.7944e-20
-2.83327e-20
-2.86751e-20
-2.899e-20
-2.92836e-20
-2.95767e-20
-2.99008e-20
-3.03106e-20
-3.09103e-20
-3.18101e-20
-3.31026e-20
-3.48576e-20
-3.70858e-20
-3.97187e-20
-4.25498e-20
-4.51538e-20
-4.68989e-20
-4.70198e-20
-4.46897e-20
-3.93072e-20
-3.08841e-20
-2.03678e-20
-9.83609e-21
-2.17713e-21
-3.93492e-22
-7.04599e-21
-2.43747e-20
-5.5459e-20
-1.06316e-19
-1.89222e-19
-3.26454e-19
-5.47392e-19
-8.53648e-19
-1.09553e-18
-8.19545e-19
3.41598e-19
1.54795e-18
1.47474e-18
6.32026e-19
1.33899e-19
1.49948e-20
1.00227e-21
5.01677e-23
2.75719e-24
2.42869e-25
2.12558e-26
-1.5482e-26
-2.50987e-26
-2.86529e-26
-3.09373e-26
-3.25107e-26
-3.41573e-26
-3.59454e-26
-3.79547e-26
-3.97815e-26
-4.12824e-26
-4.31428e-26
-4.50196e-26
-4.57101e-26
-4.67969e-26
-4.79805e-26
-4.88571e-26
-4.95581e-26
-5.02478e-26
-5.13341e-26
-5.26128e-26
-5.38089e-26
-5.52267e-26
-5.69448e-26
-5.86075e-26
-6.02308e-26
-6.18907e-26
-6.35288e-26
-6.5096e-26
-6.65731e-26
-6.81739e-26
-6.97515e-26
-7.1386e-26
-7.31796e-26
-7.50128e-26
-7.68039e-26
-7.86917e-26
-8.05982e-26
-8.25142e-26
-8.44594e-26
-8.63783e-26
-8.84586e-26
-9.05149e-26
-9.26662e-26
-9.48741e-26
-9.71538e-26
-9.95259e-26
-1.01991e-25
-1.0455e-25
-1.07174e-25
-1.09885e-25
-1.12752e-25
-1.15715e-25
-1.18806e-25
-1.21994e-25
-1.25378e-25
-1.28954e-25
-1.32607e-25
-1.3644e-25
-1.40495e-25
-1.44745e-25
-1.49171e-25
-1.53845e-25
-1.58767e-25
-1.63897e-25
-1.69238e-25
-1.7499e-25
-1.80935e-25
-1.87381e-25
-1.94352e-25
-2.01833e-25
-2.09718e-25
-2.18258e-25
-8.02516e-23
-1.57688e-17
-9.69166e-17
-5.76036e-16
-3.56652e-15
-2.39911e-14
-1.8117e-13
-1.56518e-12
-1.55474e-11
-1.77879e-10
-2.36616e-09
-3.73116e-08
-7.19867e-07
-2.34501e-05
-0.00156096
-0.0392012
-0.544472
-1.09394
-0.566566
-0.376847
-0.281734
-0.214036
-0.161545
-0.121339
-0.091048
-0.0682606
-0.0509576
-0.0376616
-0.0273511
-0.0193213
-0.0130703
-0.00822375
-0.00449343
-0.00165198
0.000482386
0.00205611
0.00318615
0.00396746
0.00447542
0.00477103
0.0049024
0.00490821
0.00481942
0.00466037
0.00445063
0.00420576
0.00393822
0.00365777
0.00337222
0.00308762
0.00280875
0.00253913
0.00228137
0.00203714
0.00180744
0.00159278
0.0013934
0.0012096
0.00104182
0.00089061
0.000756296
0.000638831
0.000537771
0.000452072
0.000379828
0.000318606
0.000266265
0.000221451
0.000183495
0.000151821
0.000125314
0.000103181
8.505e-05
7.00924e-05
5.76229e-05
4.74746e-05
3.91968e-05
3.22745e-05
2.65904e-05
2.19465e-05
1.80803e-05
1.49069e-05
1.22766e-05
1.0067e-05
8.27906e-06
6.78412e-06
5.51577e-06
4.49637e-06
3.65133e-06
2.94505e-06
2.36735e-06
1.88929e-06
1.50646e-06
1.1875e-06
9.25401e-07
7.19454e-07
5.50139e-07
4.15404e-07
3.09557e-07
2.26674e-07
1.62342e-07
1.12687e-07
7.20369e-08
4.59294e-08
2.40864e-08
0
0
0
0
0
0
0
0
0
0
0
0
0
0
0
0
0
0
0
0
0
0
0
0
0
0
0
0
0
0
0
0
0
0
0
0
0
0
0
0
0
0
0
0
0
0
0
0
0
0
0
0
0
0
0
0
0
0
0
0
0
0
0
0
0
0
0
0
0
0
0
0
0
0
0
0
0
0
0
0
0
0
0
0
0
0
0
0
0
0
0
0
0
0
0
0
0
0
0
0
0
0
0
0
0
0
0
0
0
0
0
0
0
0
0
0
0
0
0
0
0
0
0
0
)
;

boundaryField
{
    inandouthalf11
    {
        type            cyclic;
    }
    inandouthalf12
    {
        type            cyclic;
    }
    inandouthalf21
    {
        type            cyclic;
    }
    inandouthalf22
    {
        type            cyclic;
    }
    inandouthalf31
    {
        type            cyclic;
    }
    inandouthalf32
    {
        type            cyclic;
    }
    inandouthalf41
    {
        type            cyclic;
    }
    inandouthalf42
    {
        type            cyclic;
    }
    top
    {
        type            symmetryPlane;
    }
    walls
    {
        type            calculated;
        value           uniform -8.27436e-21;
    }
    frontAndBackPlanes
    {
        type            empty;
    }
}


// ************************************************************************* //
