/*--------------------------------*- C++ -*----------------------------------*\
| =========                 |                                                 |
| \\      /  F ield         | OpenFOAM: The Open Source CFD Toolbox           |
|  \\    /   O peration     | Version:  2.4.x                                 |
|   \\  /    A nd           | Web:      www.OpenFOAM.org                      |
|    \\/     M anipulation  |                                                 |
\*---------------------------------------------------------------------------*/
FoamFile
{
    version     2.0;
    format      ascii;
    class       volScalarField;
    location    "5.45";
    object      ddt0(alpha);
}
// * * * * * * * * * * * * * * * * * * * * * * * * * * * * * * * * * * * * * //

dimensions      [0 0 -1 0 0 0 0];

internalField   nonuniform List<scalar> 
360
(
0.00014347
0.000238528
0.000219377
0.000204179
0.000206273
0.000211778
0.000214928
0.000216196
0.000216783
0.000217674
0.000219032
0.000220579
0.000222162
0.000223601
0.000224947
0.000226287
0.000227646
0.000228992
0.000230289
0.000231609
0.000232783
0.000234026
0.000235301
0.000236675
0.000238217
0.00023999
0.000242043
0.000244523
0.000247287
0.000250219
0.000253075
0.000255642
0.000257167
0.000257614
0.00025611
0.000252819
0.000247815
0.000241999
0.000236609
0.000232975
0.000233643
0.000240717
0.000257134
0.000286902
0.000333441
0.000398857
0.000477207
0.000544642
0.000558752
0.000482334
0.000329947
0.000172166
6.7303e-05
1.98484e-05
4.42874e-06
5.76782e-07
-2.56031e-07
-4.50852e-07
-5.03978e-07
-5.44938e-07
-5.72403e-07
-5.9081e-07
-6.10804e-07
-6.22976e-07
-6.37934e-07
-6.56177e-07
-6.79579e-07
-7.01532e-07
-7.22382e-07
-7.53606e-07
-7.89352e-07
-8.08152e-07
-8.32118e-07
-8.59605e-07
-8.81261e-07
-8.99475e-07
-9.14465e-07
-9.36444e-07
-9.5961e-07
-9.81771e-07
-1.00689e-06
-1.03586e-06
-1.06354e-06
-1.091e-06
-1.11774e-06
-1.14373e-06
-1.16854e-06
-1.19219e-06
-1.21728e-06
-1.24342e-06
-1.27037e-06
-1.29928e-06
-1.32985e-06
-1.36112e-06
-1.39318e-06
-1.42588e-06
-1.45908e-06
-1.49292e-06
-1.52771e-06
-1.56361e-06
-1.60074e-06
-1.6393e-06
-1.67935e-06
-1.72085e-06
-1.76391e-06
-1.80863e-06
-1.8551e-06
-1.90348e-06
-1.9539e-06
-2.00649e-06
-2.06135e-06
-2.11861e-06
-2.1784e-06
-2.24083e-06
-2.30605e-06
-2.37419e-06
-2.44541e-06
-2.5199e-06
-2.59785e-06
-2.67947e-06
-2.76495e-06
-2.85445e-06
-2.94816e-06
-3.04638e-06
-3.14985e-06
-3.25995e-06
-3.37863e-06
-3.5077e-06
-3.64736e-06
-3.79533e-06
-3.94967e-06
-4.11738e-06
-4.31939e-06
-4.57037e-06
-4.84501e-06
-5.10396e-06
-5.3867e-06
-5.84678e-06
-6.59818e-06
-7.34085e-06
-7.448e-06
-7.96545e-06
-9.95541e-06
-1.25623e-05
-1.92677e-05
-7.70044e-05
-0.000711371
0.130535
0.0469293
-0.00324217
-0.0146097
-0.0197385
-0.0218627
-0.021876
-0.0204214
-0.0181253
-0.0155127
-0.0129362
-0.010591
-0.0085564
-0.00684349
-0.00542852
-0.00427363
-0.00333821
-0.00258407
-0.00197842
-0.00149274
-0.0011043
-0.00079417
-0.000547152
-0.000350999
-0.000195846
-7.37564e-05
2.1664e-05
9.55764e-05
0.000152151
0.000194763
0.000226149
0.000248525
0.00026369
0.000273128
0.000278126
0.000279899
0.00027968
0.000278693
0.000277954
0.000277948
0.000278304
0.000277707
0.000274275
0.00026637
0.000253245
0.000235027
0.000212785
0.000189007
0.000166885
0.000148221
0.000132447
0.000117762
0.000103059
8.88178e-05
7.55656e-05
6.30738e-05
5.20683e-05
4.33151e-05
3.58012e-05
2.91342e-05
2.39987e-05
1.98856e-05
1.62415e-05
1.33364e-05
1.09994e-05
9.03329e-06
7.51381e-06
6.18878e-06
5.06096e-06
4.2584e-06
3.52311e-06
2.86202e-06
2.38315e-06
1.97596e-06
1.62805e-06
1.33112e-06
1.08914e-06
9.10863e-07
7.39772e-07
5.98891e-07
4.93595e-07
3.96981e-07
3.17384e-07
2.5335e-07
2.01798e-07
1.69027e-07
1.28353e-07
9.23972e-08
5.50525e-08
1.15879e-07
1.36037e-08
6.25753e-08
-2.49491e-22
-1.8312e-22
-2.24138e-22
-2.54741e-22
-3.48982e-22
-3.77012e-22
-2.57236e-22
-8.68912e-23
-3.41381e-23
-1.53751e-23
-7.61751e-24
-3.97414e-24
-2.59871e-24
-2.48157e-24
-2.87788e-24
-3.14691e-24
-1.42367e-24
-5.25974e-25
-2.3298e-25
-1.15628e-25
-6.07387e-26
-4.00525e-26
-3.53544e-26
-2.35584e-26
-9.0814e-27
-4.28371e-27
-2.16181e-27
-1.17217e-27
-7.05761e-28
-3.37549e-28
-1.66904e-28
-8.33674e-29
-4.09994e-29
-1.97838e-29
-9.35889e-30
-4.3372e-30
-1.96758e-30
-8.73059e-31
-3.78592e-31
-1.60296e-31
-6.62026e-32
-2.6643e-32
-1.04368e-32
-3.9748e-33
-1.46987e-33
-5.27064e-34
-1.82991e-34
-6.14168e-35
-1.98921e-35
-6.20567e-36
-1.86085e-36
-5.35132e-37
-1.47211e-37
-3.86309e-38
-9.64017e-39
-2.2796e-39
-5.08768e-40
-1.0668e-40
-2.09051e-41
-3.80492e-42
-6.38538e-43
-9.79384e-44
-1.35817e-44
-1.67997e-45
-1.82125e-46
-1.69e-47
-1.29799e-48
-7.83666e-50
-3.4006e-51
-8.71295e-53
-5.46529e-55
-2.02645e-58
-2.49039e-60
-1.51885e-62
-3.88885e-73
-4.94897e-84
-4.44479e-95
-2.93621e-106
-1.60671e-117
-7.03762e-129
-2.67335e-140
-1.69966e-149
-5.72704e-160
-5.85388e-168
-1.7675e-178
-2.01375e-186
-7.22204e-197
-6.92733e-205
-3.11959e-215
-2.38501e-223
-2.02576e-233
-8.30324e-242
-1.33128e-251
-2.93965e-260
-6.63236e-270
-1.0577e-278
-3.14245e-288
-3.86336e-297
-1.38297e-306
-1.43726e-315
4.13039e-321
0
0
0
0
0
0
0
0
0
0
0
0
0
0
0
0
0
0
0
0
)
;

boundaryField
{
    inandouthalf11
    {
        type            cyclic;
    }
    inandouthalf12
    {
        type            cyclic;
    }
    inandouthalf21
    {
        type            cyclic;
    }
    inandouthalf22
    {
        type            cyclic;
    }
    inandouthalf31
    {
        type            cyclic;
    }
    inandouthalf32
    {
        type            cyclic;
    }
    inandouthalf41
    {
        type            cyclic;
    }
    inandouthalf42
    {
        type            cyclic;
    }
    top
    {
        type            symmetryPlane;
    }
    walls
    {
        type            calculated;
        value           uniform 0.00014347;
    }
    frontAndBackPlanes
    {
        type            empty;
    }
}


// ************************************************************************* //
