/*--------------------------------*- C++ -*----------------------------------*\
| =========                 |                                                 |
| \\      /  F ield         | OpenFOAM: The Open Source CFD Toolbox           |
|  \\    /   O peration     | Version:  2.4.x                                 |
|   \\  /    A nd           | Web:      www.OpenFOAM.org                      |
|    \\/     M anipulation  |                                                 |
\*---------------------------------------------------------------------------*/
FoamFile
{
    version     2.0;
    format      ascii;
    class       volVectorField;
    location    "5.45";
    object      ddt0(Ub);
}
// * * * * * * * * * * * * * * * * * * * * * * * * * * * * * * * * * * * * * //

dimensions      [0 1 -2 0 0 0 0];

internalField   nonuniform List<vector> 
360
(
(-4.93388e-06 -2.10246e-08 0)
(-4.902e-06 -9.17284e-08 0)
(-4.8819e-06 -1.8694e-07 0)
(-4.87142e-06 -2.73193e-07 0)
(-4.86101e-06 -3.53279e-07 0)
(-4.84919e-06 -4.33365e-07 0)
(-4.83671e-06 -5.16101e-07 0)
(-4.82387e-06 -6.01045e-07 0)
(-4.81079e-06 -6.86885e-07 0)
(-4.79759e-06 -7.72907e-07 0)
(-4.78422e-06 -8.59191e-07 0)
(-4.77061e-06 -9.46087e-07 0)
(-4.7567e-06 -1.03386e-06 0)
(-4.74249e-06 -1.12253e-06 0)
(-4.72801e-06 -1.21192e-06 0)
(-4.71328e-06 -1.30188e-06 0)
(-4.69832e-06 -1.39229e-06 0)
(-4.68312e-06 -1.48305e-06 0)
(-4.66769e-06 -1.57411e-06 0)
(-4.65203e-06 -1.66555e-06 0)
(-4.63608e-06 -1.75756e-06 0)
(-4.6198e-06 -1.85056e-06 0)
(-4.60305e-06 -1.94528e-06 0)
(-4.58567e-06 -2.04268e-06 0)
(-4.56746e-06 -2.14398e-06 0)
(-4.5482e-06 -2.25042e-06 0)
(-4.52769e-06 -2.36308e-06 0)
(-4.50582e-06 -2.48257e-06 0)
(-4.48258e-06 -2.60854e-06 0)
(-4.45827e-06 -2.73918e-06 0)
(-4.43345e-06 -2.87081e-06 0)
(-4.40907e-06 -2.99791e-06 0)
(-4.38636e-06 -3.11319e-06 0)
(-4.36675e-06 -3.20894e-06 0)
(-4.35141e-06 -3.27863e-06 0)
(-4.34099e-06 -3.31957e-06 0)
(-4.33495e-06 -3.3354e-06 0)
(-4.33131e-06 -3.33798e-06 0)
(-4.32643e-06 -3.34799e-06 0)
(-4.31506e-06 -3.39432e-06 0)
(-4.29057e-06 -3.51389e-06 0)
(-4.2445e-06 -3.75215e-06 0)
(-4.16633e-06 -4.16527e-06 0)
(-4.04291e-06 -4.82222e-06 0)
(-3.85923e-06 -5.79513e-06 0)
(-3.60553e-06 -7.11581e-06 0)
(-3.29789e-06 -8.66221e-06 0)
(-3.01705e-06 -9.98761e-06 0)
(-2.93058e-06 -1.031e-05 0)
(-3.20163e-06 -8.9884e-06 0)
(-3.78138e-06 -6.29171e-06 0)
(-4.37937e-06 -3.41226e-06 0)
(-4.75726e-06 -1.40959e-06 0)
(-4.91544e-06 -4.46053e-07 0)
(-4.96288e-06 -1.11973e-07 0)
(-4.97457e-06 -2.39279e-08 0)
(-4.97766e-06 -4.70204e-09 0)
(-4.97905e-06 -8.0802e-10 0)
(-4.98011e-06 1.7654e-11 0)
(-4.98113e-06 2.17921e-10 0)
(-4.98221e-06 2.73293e-10 0)
(-4.9833e-06 2.90243e-10 0)
(-4.98444e-06 2.9661e-10 0)
(-4.98559e-06 2.94445e-10 0)
(-4.98678e-06 2.81313e-10 0)
(-4.98798e-06 2.61533e-10 0)
(-4.98924e-06 2.36456e-10 0)
(-4.99053e-06 2.08069e-10 0)
(-4.99187e-06 1.74333e-10 0)
(-4.99324e-06 1.38347e-10 0)
(-4.9947e-06 1.0318e-10 0)
(-4.99621e-06 7.04251e-11 0)
(-4.99774e-06 4.35019e-11 0)
(-4.99934e-06 2.04324e-11 0)
(-5.00098e-06 -2.61275e-13 0)
(-5.00267e-06 -2.79353e-11 0)
(-5.00438e-06 -5.21029e-11 0)
(-5.00612e-06 -7.03002e-11 0)
(-5.00791e-06 -9.01448e-11 0)
(-5.00975e-06 -1.10738e-10 0)
(-5.01162e-06 -1.32795e-10 0)
(-5.01355e-06 -1.50412e-10 0)
(-5.01554e-06 -1.67657e-10 0)
(-5.01757e-06 -1.87542e-10 0)
(-5.01966e-06 -2.09123e-10 0)
(-5.0218e-06 -2.34383e-10 0)
(-5.02398e-06 -2.63001e-10 0)
(-5.02621e-06 -2.93448e-10 0)
(-5.02849e-06 -3.26519e-10 0)
(-5.03082e-06 -3.62047e-10 0)
(-5.0332e-06 -4.00831e-10 0)
(-5.03563e-06 -4.39787e-10 0)
(-5.03812e-06 -4.77515e-10 0)
(-5.04067e-06 -5.12e-10 0)
(-5.04328e-06 -5.44469e-10 0)
(-5.04595e-06 -5.8417e-10 0)
(-5.04868e-06 -6.2414e-10 0)
(-5.05148e-06 -6.60872e-10 0)
(-5.05435e-06 -6.99166e-10 0)
(-5.05729e-06 -7.4059e-10 0)
(-5.06029e-06 -7.82997e-10 0)
(-5.06337e-06 -8.20075e-10 0)
(-5.06653e-06 -8.56739e-10 0)
(-5.06976e-06 -9.01728e-10 0)
(-5.07308e-06 -9.47929e-10 0)
(-5.07648e-06 -9.91327e-10 0)
(-5.07998e-06 -1.03576e-09 0)
(-5.08356e-06 -1.08008e-09 0)
(-5.08724e-06 -1.12345e-09 0)
(-5.09102e-06 -1.1691e-09 0)
(-5.09491e-06 -1.21943e-09 0)
(-5.0989e-06 -1.26832e-09 0)
(-5.10301e-06 -1.31349e-09 0)
(-5.10725e-06 -1.35894e-09 0)
(-5.1116e-06 -1.40327e-09 0)
(-5.11609e-06 -1.4487e-09 0)
(-5.12071e-06 -1.49408e-09 0)
(-5.12548e-06 -1.53558e-09 0)
(-5.1304e-06 -1.57839e-09 0)
(-5.13547e-06 -1.6266e-09 0)
(-5.14071e-06 -1.67634e-09 0)
(-5.14613e-06 -1.71803e-09 0)
(-5.15172e-06 -1.75552e-09 0)
(-5.15751e-06 -1.7999e-09 0)
(-5.16349e-06 -1.84624e-09 0)
(-5.16969e-06 -1.89504e-09 0)
(-5.17612e-06 -1.94444e-09 0)
(-5.18279e-06 -1.99127e-09 0)
(-5.18973e-06 -2.03839e-09 0)
(-5.19696e-06 -2.07898e-09 0)
(-5.20449e-06 -2.12146e-09 0)
(-5.21234e-06 -2.16983e-09 0)
(-5.22055e-06 -2.21569e-09 0)
(-5.22921e-06 -2.26052e-09 0)
(-5.23843e-06 -2.30279e-09 0)
(-5.2482e-06 -2.33818e-09 0)
(-5.25846e-06 -2.37685e-09 0)
(-5.26938e-06 -2.4261e-09 0)
(-5.2815e-06 -2.47515e-09 0)
(-5.29544e-06 -2.50378e-09 0)
(-5.31055e-06 -2.56959e-09 0)
(-5.32499e-06 -2.66025e-09 0)
(-5.34227e-06 -2.72781e-09 0)
(-5.36476e-06 -3.03896e-09 0)
(-5.39268e-06 3.39961e-09 0)
(-5.44128e-06 -1.11598e-06 0)
(-3.86312e-06 7.21607e-06 0)
(0.00102787 6.57957e-06 0)
(0.0323256 5.0244e-05 0)
(0.025913 -0.000102767 0)
(0.0271882 4.16825e-05 0)
(0.0313944 -3.49601e-05 0)
(0.0368549 -1.74084e-05 0)
(0.0427755 -8.40525e-06 0)
(0.0487312 -2.28467e-06 0)
(0.0544911 3.0009e-06 0)
(0.0599396 7.43788e-06 0)
(0.0650303 1.07938e-05 0)
(0.0697562 1.31037e-05 0)
(0.0741312 1.45315e-05 0)
(0.0781793 1.5251e-05 0)
(0.081928 1.54265e-05 0)
(0.085405 1.51972e-05 0)
(0.0886363 1.46789e-05 0)
(0.0916455 1.39605e-05 0)
(0.0944537 1.31104e-05 0)
(0.0970793 1.21849e-05 0)
(0.099538 1.12274e-05 0)
(0.101844 1.02698e-05 0)
(0.104008 9.33366e-06 0)
(0.10604 8.43468e-06 0)
(0.107948 7.58325e-06 0)
(0.109739 6.78538e-06 0)
(0.111418 6.04365e-06 0)
(0.112989 5.3582e-06 0)
(0.114455 4.72748e-06 0)
(0.115818 4.14886e-06 0)
(0.11708 3.61911e-06 0)
(0.11824 3.13471e-06 0)
(0.119297 2.69215e-06 0)
(0.120252 2.2879e-06 0)
(0.1211 1.91815e-06 0)
(0.12184 1.57819e-06 0)
(0.122468 1.26177e-06 0)
(0.12298 9.61135e-07 0)
(0.12337 6.68319e-07 0)
(0.123632 3.77932e-07 0)
(0.12376 9.06311e-08 0)
(0.123747 -1.84704e-07 0)
(0.123584 -4.32245e-07 0)
(0.123263 -6.34249e-07 0)
(0.122774 -7.77031e-07 0)
(0.122107 -8.55016e-07 0)
(0.121255 -8.73268e-07 0)
(0.120206 -8.48135e-07 0)
(0.118952 -8.01787e-07 0)
(0.117485 -7.51087e-07 0)
(0.115795 -7.00433e-07 0)
(0.113874 -6.45473e-07 0)
(0.111717 -5.8281e-07 0)
(0.109319 -5.1482e-07 0)
(0.106651 -4.45458e-07 0)
(0.103675 -3.77944e-07 0)
(0.100381 -3.16655e-07 0)
(0.0967642 -2.64345e-07 0)
(0.0928282 -2.19595e-07 0)
(0.088586 -1.80979e-07 0)
(0.0840628 -1.49122e-07 0)
(0.0792967 -1.23187e-07 0)
(0.0743395 -1.01363e-07 0)
(0.0692552 -8.31889e-08 0)
(0.0641164 -6.83901e-08 0)
(0.0590001 -5.63261e-08 0)
(0.0539812 -4.64679e-08 0)
(0.0491267 -3.8236e-08 0)
(0.0444903 -3.14299e-08 0)
(0.0401095 -2.59892e-08 0)
(0.0360048 -2.14268e-08 0)
(0.0321811 -1.75126e-08 0)
(0.0286309 -1.43527e-08 0)
(0.0253378 -1.18061e-08 0)
(0.0222806 -9.65373e-09 0)
(0.0194358 -7.83451e-09 0)
(0.0167805 -6.35919e-09 0)
(0.0142936 -5.17206e-09 0)
(0.0119568 -4.1636e-09 0)
(0.0097542 -3.3133e-09 0)
(0.00767299 -2.62612e-09 0)
(0.00570252 -2.05342e-09 0)
(0.00383409 -1.5704e-09 0)
(0.00206057 -1.18147e-09 0)
(0.000376039 -8.83966e-10 0)
(-0.00122444 -6.48404e-10 0)
(-0.00274497 -4.01456e-10 0)
(-0.00418888 -9.08731e-11 0)
(-0.00555869 -3.01865e-10 0)
(-0.00685606 2.49426e-10 0)
(-0.00808165 2.02603e-10 0)
(-0.00923479 -3.30156e-10 0)
(-0.0103134 2.9045e-10 0)
(-0.0113133 2.57024e-10 0)
(-0.0122282 2.99307e-10 0)
(-0.0130483 2.97383e-10 0)
(-0.0137597 2.12616e-10 0)
(-0.0143419 4.06889e-10 0)
(-0.0147657 1.4359e-10 0)
(-0.0149873 3.3445e-10 0)
(-0.0149411 3.63251e-10 0)
(-0.0145193 -2.87796e-11 0)
(-0.013459 8.16401e-10 0)
(-0.0108545 -5.17779e-10 0)
(-0.00482946 1.29057e-09 0)
(-0.00319585 -9.53961e-10 0)
(-0.00313869 1.68322e-09 0)
(-0.00313771 -1.30566e-09 0)
(-0.00313769 1.9898e-09 0)
(-0.00313768 -1.56493e-09 0)
(-0.00313767 2.21445e-09 0)
(-0.00313767 -1.75902e-09 0)
(-0.00313766 2.39945e-09 0)
(-0.00313766 -1.93477e-09 0)
(-0.00313766 2.57963e-09 0)
(-0.00313766 -2.11192e-09 0)
(-0.00313766 2.77971e-09 0)
(-0.00313765 -2.29088e-09 0)
(-0.00313765 3.00499e-09 0)
(-0.00313765 -2.47391e-09 0)
(-0.00313765 3.251e-09 0)
(-0.00313765 -2.6683e-09 0)
(-0.00313765 3.51398e-09 0)
(-0.00313765 -2.87649e-09 0)
(-0.00313765 3.78989e-09 0)
(-0.00313765 -3.09997e-09 0)
(-0.00313765 4.08319e-09 0)
(-0.00313765 -3.33915e-09 0)
(-0.00313765 4.38427e-09 0)
(-0.00313765 -3.60089e-09 0)
(-0.00313765 4.69182e-09 0)
(-0.00313765 -3.87678e-09 0)
(-0.00313765 5.01507e-09 0)
(-0.00313765 -4.20589e-09 0)
(-0.00313765 5.33478e-09 0)
(-0.00313765 -4.51312e-09 0)
(-0.00313765 5.66106e-09 0)
(-0.00313765 -4.85886e-09 0)
(-0.00313765 5.98686e-09 0)
(-0.00313765 -5.23705e-09 0)
(-0.00313765 6.30047e-09 0)
(-0.00313765 -5.65474e-09 0)
(-0.00313765 6.62766e-09 0)
(-0.00313765 -6.09211e-09 0)
(-0.00313765 6.9506e-09 0)
(-0.00313765 -6.57231e-09 0)
(-0.00313765 7.27594e-09 0)
(-0.00313765 -7.07669e-09 0)
(-0.00313765 7.60821e-09 0)
(-0.00313765 -7.5867e-09 0)
(-0.00313765 8.01587e-09 0)
(-0.00313765 -8.04878e-09 0)
(-0.00313765 8.46148e-09 0)
(-0.00313765 -8.52892e-09 0)
(-0.00313765 8.92453e-09 0)
(-0.00313765 -9.02634e-09 0)
(-0.00313765 9.39339e-09 0)
(-0.00313765 -9.54628e-09 0)
(-0.00313765 9.88214e-09 0)
(-0.00313765 -1.007e-08 0)
(-0.00313765 1.03739e-08 0)
(-0.00313765 -1.06124e-08 0)
(-0.00313765 1.08635e-08 0)
(-0.00313765 -9.80594e-09 0)
(-0.00313765 9.76336e-09 0)
(-0.00313765 -9.92142e-09 0)
(-0.00313765 9.80477e-09 0)
(-0.00313765 -1.00361e-08 0)
(-0.00313765 9.84296e-09 0)
(-0.00313765 -1.01525e-08 0)
(-0.00313765 9.88409e-09 0)
(-0.00313765 -1.02665e-08 0)
(-0.00313765 9.92677e-09 0)
(-0.00313765 -1.03842e-08 0)
(-0.00313765 9.95182e-09 0)
(-0.00313765 -1.05115e-08 0)
(-0.00313765 9.97376e-09 0)
(-0.00313765 -1.06362e-08 0)
(-0.00313765 9.97669e-09 0)
(-0.00313765 -1.07798e-08 0)
(-0.00313765 9.93001e-09 0)
(-0.00313765 -1.11292e-08 0)
(-0.00313765 9.44213e-09 0)
(-0.00313765 -1.18841e-08 0)
(-0.00313765 8.82058e-09 0)
(-0.00313765 -1.25967e-08 0)
(-0.00313765 8.2494e-09 0)
(-0.00313765 -1.31971e-08 0)
(-0.00313765 7.8793e-09 0)
(-0.00313765 -1.36739e-08 0)
(-0.00313765 7.43331e-09 0)
(-0.00313765 -1.41581e-08 0)
(-0.00313765 7.26673e-09 0)
(-0.00313765 -1.42481e-08 0)
(-0.00313765 7.37892e-09 0)
(-0.00313765 -1.40153e-08 0)
(-0.00313765 7.9545e-09 0)
(-0.00313765 -1.35313e-08 0)
(-0.00313765 8.30575e-09 0)
(-0.00313765 -1.32075e-08 0)
(-0.00313765 9.04816e-09 0)
(-0.00313765 -1.22368e-08 0)
(-0.00313765 1.02912e-08 0)
(-0.00313765 -1.07678e-08 0)
(-0.00313765 1.22939e-08 0)
(-0.00313765 -8.48494e-09 0)
(-0.00313765 1.47854e-08 0)
(-0.00313765 -5.87282e-09 0)
(-0.00313765 1.76667e-08 0)
(-0.00313765 -2.81334e-09 0)
(-0.00313765 2.1121e-08 0)
(-0.00313765 1.07047e-09 0)
(-0.00313765 1.75675e-08 0)
)
;

boundaryField
{
    inandouthalf11
    {
        type            cyclic;
    }
    inandouthalf12
    {
        type            cyclic;
    }
    inandouthalf21
    {
        type            cyclic;
    }
    inandouthalf22
    {
        type            cyclic;
    }
    inandouthalf31
    {
        type            cyclic;
    }
    inandouthalf32
    {
        type            cyclic;
    }
    inandouthalf41
    {
        type            cyclic;
    }
    inandouthalf42
    {
        type            cyclic;
    }
    top
    {
        type            symmetryPlane;
    }
    walls
    {
        type            calculated;
        value           uniform (0 0 0);
    }
    frontAndBackPlanes
    {
        type            empty;
    }
}


// ************************************************************************* //
