/*--------------------------------*- C++ -*----------------------------------*\
| =========                 |                                                 |
| \\      /  F ield         | OpenFOAM: The Open Source CFD Toolbox           |
|  \\    /   O peration     | Version:  2.4.x                                 |
|   \\  /    A nd           | Web:      www.OpenFOAM.org                      |
|    \\/     M anipulation  |                                                 |
\*---------------------------------------------------------------------------*/
FoamFile
{
    version     2.0;
    format      ascii;
    class       volScalarField;
    location    "5.45";
    object      k_0;
}
// * * * * * * * * * * * * * * * * * * * * * * * * * * * * * * * * * * * * * //

dimensions      [0 2 -2 0 0 0 0];

internalField   nonuniform List<scalar> 
360
(
1e-20
1e-20
1e-20
1e-20
1e-20
1e-20
1e-20
1e-20
1e-20
1e-20
1e-20
1e-20
1e-20
1e-20
1e-20
1e-20
1e-20
1e-20
1e-20
1e-20
1e-20
1e-20
1e-20
1e-20
1e-20
1e-20
1e-20
1e-20
1e-20
1e-20
1e-20
1e-20
1e-20
1e-20
1e-20
1e-20
1e-20
1e-20
1e-20
1e-20
1e-20
1e-20
1e-20
1e-20
1e-20
1e-20
1e-20
1e-20
1e-20
1e-20
1e-20
1e-20
1e-20
1e-20
1e-20
1e-20
1e-20
1e-20
1e-20
1e-20
1e-20
1e-20
1e-20
1e-20
1e-20
1e-20
1e-20
1e-20
1e-20
1e-20
1e-20
1e-20
1e-20
1e-20
1e-20
1e-20
1e-20
1e-20
1e-20
1e-20
1e-20
1e-20
1e-20
1e-20
1e-20
1e-20
1e-20
1e-20
1e-20
1e-20
1e-20
1e-20
1e-20
1e-20
1e-20
1e-20
1e-20
1e-20
1e-20
1e-20
1e-20
1e-20
1e-20
1e-20
1e-20
1e-20
1e-20
1e-20
1e-20
1e-20
1e-20
1e-20
1e-20
1e-20
1e-20
1e-20
1e-20
1e-20
1e-20
1e-20
1e-20
1e-20
1e-20
1e-20
1e-20
1e-20
1e-20
1e-20
1e-20
1e-20
1e-20
1e-20
2.17752e-20
9.93042e-20
5.12751e-19
2.87198e-18
1.76516e-17
1.20835e-16
9.35875e-16
8.32723e-15
8.63202e-14
1.0568e-12
1.55225e-11
2.77211e-10
6.07548e-09
1.64763e-07
5.51054e-06
0.000181195
0.00226753
0.00511684
0.00643187
0.00718402
0.00766005
0.00797902
0.00820008
0.00835471
0.00846063
0.00852853
0.00856536
0.00857606
0.00856437
0.00853328
0.00848522
0.00842226
0.00834613
0.00825833
0.00816015
0.00805268
0.00793691
0.00781368
0.00768373
0.00754773
0.00740628
0.00725988
0.00710904
0.00695418
0.00679571
0.006634
0.0064694
0.00630224
0.00613283
0.00596149
0.0057885
0.00561415
0.00543875
0.00526256
0.00508589
0.00490904
0.00473231
0.004556
0.00438044
0.00420596
0.0040329
0.0038616
0.00369242
0.00352573
0.00336192
0.00320137
0.00304449
0.00289168
0.00274336
0.00259845
0.00245614
0.00231711
0.0021821
0.00205183
0.00192705
0.00180845
0.00169667
0.00159226
0.00149564
0.00140708
0.00132667
0.00125433
0.00118982
0.00113272
0.00108251
0.00103859
0.00100029
0.000966924
0.000937824
0.000912331
0.00088982
0.000869707
0.000851442
0.000834519
0.000818462
0.000802831
0.000787217
0.000771238
0.000754539
0.000736793
0.000717697
0.000696973
0.00067437
0.000649666
0.000622664
0.0005932
0.000561144
0.000526404
0.00048893
0.000448727
0.000405859
0.000360472
0.000312815
0.00026327
0.000212412
0.000161094
0.000110619
6.31291e-05
2.22149e-05
2.39245e-06
6.07185e-08
9.86761e-10
1.49302e-11
2.13063e-13
2.87001e-15
3.65188e-17
4.46688e-19
1.38527e-20
1e-20
1e-20
1e-20
1e-20
1e-20
1e-20
1e-20
1e-20
1e-20
1e-20
1e-20
1e-20
1e-20
1e-20
1e-20
1e-20
1e-20
1e-20
1e-20
1e-20
1e-20
1e-20
1e-20
1e-20
1e-20
1e-20
1e-20
1e-20
1e-20
1e-20
1e-20
1e-20
1e-20
1e-20
1e-20
1e-20
1e-20
1e-20
1e-20
1e-20
1e-20
1e-20
1e-20
1e-20
1e-20
1e-20
1e-20
1e-20
1e-20
1e-20
1e-20
1e-20
1e-20
1e-20
1e-20
1e-20
1e-20
1e-20
1e-20
1e-20
1e-20
1e-20
1e-20
1e-20
1e-20
1e-20
1e-20
1e-20
1e-20
1e-20
1e-20
1e-20
1e-20
1e-20
1e-20
1e-20
1e-20
1e-20
1e-20
1e-20
1e-20
1e-20
1e-20
1e-20
1e-20
1e-20
1e-20
1e-20
1e-20
1e-20
1e-20
1e-20
1e-20
1e-20
1e-20
1e-20
1e-20
1e-20
1e-20
1e-20
)
;

boundaryField
{
    inandouthalf11
    {
        type            cyclic;
    }
    inandouthalf12
    {
        type            cyclic;
    }
    inandouthalf21
    {
        type            cyclic;
    }
    inandouthalf22
    {
        type            cyclic;
    }
    inandouthalf31
    {
        type            cyclic;
    }
    inandouthalf32
    {
        type            cyclic;
    }
    inandouthalf41
    {
        type            cyclic;
    }
    inandouthalf42
    {
        type            cyclic;
    }
    top
    {
        type            symmetryPlane;
    }
    walls
    {
        type            zeroGradient;
    }
    frontAndBackPlanes
    {
        type            empty;
    }
}


// ************************************************************************* //
