/*--------------------------------*- C++ -*----------------------------------*\
| =========                 |                                                 |
| \\      /  F ield         | OpenFOAM: The Open Source CFD Toolbox           |
|  \\    /   O peration     | Version:  2.4.x                                 |
|   \\  /    A nd           | Web:      www.OpenFOAM.org                      |
|    \\/     M anipulation  |                                                 |
\*---------------------------------------------------------------------------*/
FoamFile
{
    version     2.0;
    format      ascii;
    class       volScalarField;
    location    "5.45";
    object      nutb;
}
// * * * * * * * * * * * * * * * * * * * * * * * * * * * * * * * * * * * * * //

dimensions      [0 2 -1 0 0 0 0];

internalField   nonuniform List<scalar> 
360
(
9e-22
9e-22
9e-22
9e-22
9e-22
9e-22
9e-22
9e-22
9e-22
9e-22
9e-22
9e-22
9e-22
9e-22
9e-22
9e-22
9e-22
9e-22
9e-22
9e-22
9e-22
9e-22
9e-22
9e-22
9e-22
9e-22
9e-22
9e-22
9e-22
9e-22
9e-22
9e-22
9e-22
9e-22
9e-22
9e-22
9e-22
9e-22
9e-22
9e-22
9e-22
9e-22
9e-22
9e-22
9e-22
9e-22
9e-22
9e-22
9e-22
9e-22
9e-22
9e-22
9e-22
9e-22
9e-22
9e-22
9e-22
9e-22
9e-22
9e-22
9e-22
9e-22
9e-22
9e-22
9e-22
9e-22
9e-22
9e-22
9e-22
9e-22
9e-22
9e-22
9e-22
9e-22
9e-22
9e-22
9e-22
9e-22
9e-22
9e-22
9e-22
9e-22
9e-22
9e-22
9e-22
9e-22
9e-22
9e-22
9e-22
9e-22
9e-22
9e-22
9e-22
9e-22
9e-22
9e-22
9e-22
9e-22
9e-22
9e-22
9e-22
9e-22
9e-22
9e-22
9e-22
9e-22
9e-22
9e-22
9e-22
9e-22
9e-22
9e-22
9e-22
9e-22
9e-22
9e-22
9e-22
9e-22
9e-22
9e-22
9e-22
9e-22
9e-22
9e-22
9e-22
9e-22
9e-22
9e-22
9e-22
9e-22
9e-22
9e-22
1.4138e-21
5.61927e-21
2.54882e-20
1.23836e-19
6.51235e-19
3.76432e-18
2.43227e-17
1.78604e-16
1.51209e-15
1.49646e-14
1.76233e-13
2.5084e-12
4.35919e-11
9.33951e-10
2.46213e-08
6.21784e-07
6.15729e-06
1.48049e-05
2.20494e-05
2.86496e-05
3.5003e-05
4.12861e-05
4.75736e-05
5.38756e-05
6.01654e-05
6.6399e-05
7.25281e-05
7.85074e-05
8.4298e-05
8.98681e-05
9.51928e-05
0.000100253
0.000105036
0.000109532
0.000113734
0.000117641
0.00012125
0.000124564
0.000127583
0.000130313
0.000132756
0.000134919
0.000136806
0.000138425
0.000139782
0.000140884
0.000141739
0.000142353
0.000142736
0.000142896
0.00014284
0.000142578
0.00014212
0.000141474
0.00014065
0.00013966
0.000138513
0.000137222
0.000135798
0.000134254
0.000132602
0.000130855
0.000129028
0.000127135
0.000125193
0.000123217
0.000121226
0.000119238
0.000117272
0.000115331
0.000113418
0.000111558
0.000109781
0.00010812
0.000106608
0.000105278
0.000104164
0.000103293
0.000102687
0.000102361
0.000102313
0.000102531
0.000102987
0.00010364
0.000104436
0.000105316
0.000106216
0.000107075
0.000107839
0.000108459
0.000108899
0.000109131
0.000109137
0.000108906
0.000108431
0.000107712
0.000106745
0.000105531
0.000104068
0.000102352
0.000100379
9.81412e-05
9.56296e-05
9.28334e-05
8.97403e-05
8.63369e-05
8.26086e-05
7.85401e-05
7.41156e-05
6.93191e-05
6.41348e-05
5.85471e-05
5.25411e-05
4.61033e-05
3.92217e-05
3.18874e-05
2.40984e-05
1.58644e-05
7.00133e-06
9.44797e-07
2.58267e-08
4.18503e-10
6.29694e-12
8.93725e-14
1.19749e-15
1.51483e-17
1.73464e-19
1.69683e-21
9e-22
9e-22
9e-22
9e-22
9e-22
9e-22
9e-22
9e-22
9e-22
9e-22
9e-22
9e-22
9e-22
9e-22
9e-22
9e-22
9e-22
9e-22
9e-22
9e-22
9e-22
9e-22
9e-22
9e-22
9e-22
9e-22
9e-22
9e-22
9e-22
9e-22
9e-22
9e-22
9e-22
9e-22
9e-22
9e-22
9e-22
9e-22
9e-22
9e-22
9e-22
9e-22
9e-22
9e-22
9e-22
9e-22
9e-22
9e-22
9e-22
9e-22
9e-22
9e-22
9e-22
9e-22
9e-22
9e-22
9e-22
9e-22
9e-22
9e-22
9e-22
9e-22
9e-22
9e-22
9e-22
9e-22
9e-22
9e-22
9e-22
9e-22
9e-22
9e-22
9e-22
9e-22
9e-22
9e-22
9e-22
9e-22
9e-22
9e-22
9e-22
9e-22
9e-22
9e-22
9e-22
9e-22
9e-22
9e-22
9e-22
9e-22
9e-22
9e-22
9e-22
9e-22
9e-22
9e-22
9e-22
9e-22
9e-22
9e-22
)
;

boundaryField
{
    inandouthalf11
    {
        type            cyclic;
    }
    inandouthalf12
    {
        type            cyclic;
    }
    inandouthalf21
    {
        type            cyclic;
    }
    inandouthalf22
    {
        type            cyclic;
    }
    inandouthalf31
    {
        type            cyclic;
    }
    inandouthalf32
    {
        type            cyclic;
    }
    inandouthalf41
    {
        type            cyclic;
    }
    inandouthalf42
    {
        type            cyclic;
    }
    top
    {
        type            symmetryPlane;
    }
    walls
    {
        type            calculated;
        value           uniform 0;
    }
    frontAndBackPlanes
    {
        type            empty;
    }
}


// ************************************************************************* //
