/*--------------------------------*- C++ -*----------------------------------*\
| =========                 |                                                 |
| \\      /  F ield         | OpenFOAM: The Open Source CFD Toolbox           |
|  \\    /   O peration     | Version:  2.4.x                                 |
|   \\  /    A nd           | Web:      www.OpenFOAM.org                      |
|    \\/     M anipulation  |                                                 |
\*---------------------------------------------------------------------------*/
FoamFile
{
    version     2.0;
    format      ascii;
    class       volScalarField;
    location    "5.45";
    object      p;
}
// * * * * * * * * * * * * * * * * * * * * * * * * * * * * * * * * * * * * * //

dimensions      [1 -1 -2 0 0 0 0];

internalField   nonuniform List<scalar> 
360
(
4899.61
4894.7
4889.79
4884.88
4879.98
4875.07
4870.15
4865.24
4860.33
4855.41
4850.5
4845.58
4840.67
4835.75
4830.83
4825.91
4820.98
4816.06
4811.14
4806.21
4801.28
4796.36
4791.43
4786.5
4781.57
4776.63
4771.7
4766.77
4761.83
4756.89
4751.96
4747.02
4742.07
4737.13
4732.19
4727.24
4722.3
4717.35
4712.4
4707.45
4702.5
4697.55
4692.6
4687.64
4682.69
4677.73
4672.77
4667.81
4662.85
4657.88
4652.91
4647.94
4642.97
4638
4633.03
4628.05
4623.08
4618.11
4613.14
4608.17
4603.19
4598.22
4593.25
4588.28
4583.31
4578.33
4573.36
4568.39
4563.42
4558.45
4553.48
4548.5
4543.53
4538.56
4533.59
4528.62
4523.65
4518.67
4513.7
4508.73
4503.76
4498.79
4493.82
4488.85
4483.87
4478.9
4473.93
4468.96
4463.99
4459.02
4454.05
4449.08
4444.11
4439.14
4434.16
4429.19
4424.22
4419.25
4414.28
4409.31
4404.34
4399.37
4394.4
4389.43
4384.46
4379.49
4374.52
4369.55
4364.58
4359.61
4354.64
4349.67
4344.7
4339.73
4334.76
4329.79
4324.82
4319.85
4314.88
4309.91
4304.94
4299.97
4295
4290.03
4285.07
4280.1
4275.13
4270.16
4265.19
4260.22
4255.25
4250.29
4245.32
4240.35
4235.38
4230.42
4225.45
4220.48
4215.51
4210.55
4205.58
4200.61
4195.65
4190.68
4185.72
4180.75
4175.78
4170.67
4162.19
4154
4147.37
4141.27
4135.45
4129.82
4124.33
4118.95
4113.67
4108.47
4103.33
4098.25
4093.21
4088.21
4083.24
4078.29
4073.37
4068.46
4063.57
4058.7
4053.83
4048.98
4044.14
4039.3
4034.47
4029.64
4024.82
4020.01
4015.2
4010.39
4005.59
4000.79
3995.99
3991.19
3986.4
3981.6
3976.81
3972.02
3967.23
3962.44
3957.65
3952.86
3948.07
3943.28
3938.49
3933.7
3928.9
3924.11
3919.31
3914.51
3909.71
3904.91
3900.1
3895.24
3890.28
3885.22
3880.04
3874.76
3869.36
3863.85
3858.23
3852.48
3846.6
3840.6
3834.48
3828.22
3821.83
3815.3
3808.64
3801.83
3794.89
3787.8
3780.56
3773.17
3765.63
3757.93
3750.08
3742.06
3733.89
3725.54
3717.03
3708.34
3699.48
3690.44
3681.21
3671.8
3662.2
3652.41
3642.41
3632.22
3621.82
3611.21
3600.39
3589.34
3578.08
3566.59
3554.86
3542.9
3530.7
3518.24
3505.54
3492.57
3479.33
3465.81
3452.01
3437.92
3423.55
3408.88
3393.92
3378.66
3363.08
3347.19
3330.97
3314.43
3297.55
3280.33
3262.76
3244.83
3226.54
3207.87
3188.83
3169.4
3149.58
3129.35
3108.72
3087.66
3066.18
3044.26
3021.9
2999.08
2975.8
2952.05
2927.81
2903.09
2877.86
2852.12
2825.86
2799.06
2771.72
2743.82
2715.36
2686.32
2656.7
2626.47
2595.62
2564.15
2532.05
2499.29
2465.86
2431.76
2396.96
2361.46
2325.24
2288.28
2250.57
2212.1
2172.85
2132.8
2091.93
2050.24
2007.7
1964.3
1922.76
1883.52
1844.28
1805.04
1765.8
1726.56
1687.32
1648.08
1608.84
1569.6
1530.36
1491.12
1451.88
1412.64
1373.4
1334.16
1294.92
1255.68
1216.44
1177.2
1137.96
1098.72
1059.48
1020.24
981
941.76
902.52
863.28
824.04
784.8
745.56
706.32
667.08
627.84
588.6
549.36
510.12
470.88
431.64
392.4
353.16
313.92
274.68
235.44
196.2
156.96
117.72
78.48
39.24
2.12668e-07
)
;

boundaryField
{
    inandouthalf11
    {
        type            cyclic;
    }
    inandouthalf12
    {
        type            cyclic;
    }
    inandouthalf21
    {
        type            cyclic;
    }
    inandouthalf22
    {
        type            cyclic;
    }
    inandouthalf31
    {
        type            cyclic;
    }
    inandouthalf32
    {
        type            cyclic;
    }
    inandouthalf41
    {
        type            cyclic;
    }
    inandouthalf42
    {
        type            cyclic;
    }
    top
    {
        type            symmetryPlane;
    }
    walls
    {
        type            slip;
    }
    frontAndBackPlanes
    {
        type            empty;
    }
}


// ************************************************************************* //
