/*--------------------------------*- C++ -*----------------------------------*\
| =========                 |                                                 |
| \\      /  F ield         | OpenFOAM: The Open Source CFD Toolbox           |
|  \\    /   O peration     | Version:  2.4.x                                 |
|   \\  /    A nd           | Web:      www.OpenFOAM.org                      |
|    \\/     M anipulation  |                                                 |
\*---------------------------------------------------------------------------*/
FoamFile
{
    version     2.0;
    format      ascii;
    class       surfaceScalarField;
    location    "5.45";
    object      phia_0;
}
// * * * * * * * * * * * * * * * * * * * * * * * * * * * * * * * * * * * * * //

dimensions      [0 3 -1 0 0 0 0];

internalField   nonuniform List<scalar> 
359
(
-4.69056e-13
-1.24947e-12
-1.9673e-12
-2.63527e-12
-3.31026e-12
-4.00325e-12
-4.7066e-12
-5.41416e-12
-6.1237e-12
-6.83622e-12
-7.55324e-12
-8.27539e-12
-9.00279e-12
-9.73495e-12
-1.04716e-11
-1.12127e-11
-1.19583e-11
-1.27084e-11
-1.34628e-11
-1.42216e-11
-1.49843e-11
-1.57511e-11
-1.65222e-11
-1.72979e-11
-1.80787e-11
-1.88654e-11
-1.96589e-11
-2.04605e-11
-2.12714e-11
-2.20919e-11
-2.29219e-11
-2.37604e-11
-2.46039e-11
-2.54491e-11
-2.62894e-11
-2.71191e-11
-2.79324e-11
-2.87267e-11
-2.95035e-11
-3.02683e-11
-3.10355e-11
-3.18258e-11
-3.267e-11
-3.36119e-11
-3.47065e-11
-3.60158e-11
-3.75824e-11
-3.93708e-11
-4.12066e-11
-4.27926e-11
-4.38789e-11
-4.44468e-11
-4.46698e-11
-4.47366e-11
-4.47526e-11
-4.47559e-11
-4.47566e-11
-4.47568e-11
-4.47569e-11
-4.47569e-11
-4.47569e-11
-4.47569e-11
-4.47569e-11
-4.47569e-11
-4.47569e-11
-4.47569e-11
-4.47569e-11
-4.4757e-11
-4.4757e-11
-4.4757e-11
-4.4757e-11
-4.4757e-11
-4.4757e-11
-4.47571e-11
-4.47571e-11
-4.47571e-11
-4.47571e-11
-4.47572e-11
-4.47572e-11
-4.47572e-11
-4.47572e-11
-4.47572e-11
-4.47573e-11
-4.47573e-11
-4.47573e-11
-4.47573e-11
-4.47574e-11
-4.47574e-11
-4.47574e-11
-4.47574e-11
-4.47575e-11
-4.47575e-11
-4.47575e-11
-4.47575e-11
-4.47575e-11
-4.47576e-11
-4.47576e-11
-4.47576e-11
-4.47577e-11
-4.47577e-11
-4.47577e-11
-4.47577e-11
-4.47578e-11
-4.47578e-11
-4.47578e-11
-4.47579e-11
-4.47579e-11
-4.47579e-11
-4.47579e-11
-4.4758e-11
-4.4758e-11
-4.4758e-11
-4.47581e-11
-4.47581e-11
-4.47581e-11
-4.47581e-11
-4.47582e-11
-4.47582e-11
-4.47582e-11
-4.47583e-11
-4.47583e-11
-4.47583e-11
-4.47583e-11
-4.47584e-11
-4.47584e-11
-4.47584e-11
-4.47585e-11
-4.47585e-11
-4.47585e-11
-4.47585e-11
-4.47586e-11
-4.47586e-11
-4.47586e-11
-4.47586e-11
-4.47587e-11
-4.47587e-11
-4.47587e-11
-4.47587e-11
-4.47587e-11
-4.47587e-11
-4.47587e-11
-4.47587e-11
-4.47587e-11
-4.47587e-11
-4.47587e-11
-4.47587e-11
-4.4914e-11
-8.10095e-10
-1.38101e-09
-1.81558e-09
-2.08465e-09
-2.28345e-09
-2.42806e-09
-2.52044e-09
-2.55878e-09
-2.54141e-09
-2.46769e-09
-2.33818e-09
-2.1543e-09
-1.91808e-09
-1.63185e-09
-1.29803e-09
-9.19041e-10
-4.97203e-10
-3.47391e-11
4.66348e-10
1.00408e-09
1.57666e-09
2.1824e-09
2.81968e-09
3.48697e-09
4.18281e-09
4.90579e-09
5.65455e-09
6.42772e-09
7.22396e-09
8.0419e-09
8.88012e-09
9.73712e-09
1.06113e-08
1.1501e-08
1.24041e-08
1.3318e-08
1.42388e-08
1.51606e-08
1.60745e-08
1.6968e-08
1.78254e-08
1.86297e-08
1.9365e-08
2.00195e-08
2.05876e-08
2.10699e-08
2.14738e-08
2.18117e-08
2.20961e-08
2.23344e-08
2.25282e-08
2.26773e-08
2.27834e-08
2.28515e-08
2.28869e-08
2.2893e-08
2.28774e-08
2.28446e-08
2.2795e-08
2.27343e-08
2.26665e-08
2.25909e-08
2.25096e-08
2.24255e-08
2.23376e-08
2.22479e-08
2.21569e-08
2.2062e-08
2.19666e-08
2.18699e-08
2.17673e-08
2.16627e-08
2.15548e-08
2.14409e-08
2.13222e-08
2.11948e-08
2.10625e-08
2.09209e-08
2.07652e-08
2.06002e-08
2.04175e-08
2.0215e-08
1.99898e-08
1.97369e-08
1.9448e-08
1.91201e-08
1.86758e-08
1.82285e-08
1.70486e-08
4.94912e-09
1.10568e-08
-1.63729e-08
-1.2877e-07
-1.58424e-07
-1.58381e-07
-1.58393e-07
-1.58398e-07
-1.58401e-07
-1.58402e-07
-1.58399e-07
-1.58391e-07
-1.58373e-07
-1.58343e-07
-1.5826e-07
-1.58203e-07
-1.582e-07
-1.582e-07
-1.582e-07
-1.582e-07
-1.582e-07
-1.582e-07
-1.582e-07
-1.582e-07
-1.582e-07
-1.582e-07
-1.582e-07
-1.582e-07
-1.582e-07
-1.582e-07
-1.582e-07
-1.582e-07
-1.582e-07
-1.582e-07
-1.582e-07
-1.582e-07
-1.582e-07
-1.582e-07
-1.582e-07
-1.582e-07
-1.582e-07
-1.582e-07
-1.582e-07
-1.582e-07
-1.582e-07
-1.582e-07
-1.582e-07
-1.582e-07
-1.582e-07
-1.582e-07
-1.582e-07
-1.582e-07
-1.582e-07
-1.582e-07
-1.582e-07
-1.582e-07
-1.582e-07
-1.582e-07
-1.582e-07
-1.582e-07
-1.582e-07
-1.582e-07
-1.582e-07
-1.582e-07
-1.582e-07
-1.582e-07
-1.582e-07
-1.582e-07
-1.582e-07
-1.582e-07
-1.582e-07
-1.582e-07
-1.582e-07
-1.582e-07
-1.582e-07
-1.582e-07
-1.582e-07
-1.582e-07
-1.582e-07
-1.582e-07
-1.582e-07
-1.582e-07
-1.582e-07
-1.582e-07
-1.582e-07
-1.582e-07
-1.582e-07
-1.582e-07
-1.582e-07
-1.582e-07
-1.582e-07
-1.582e-07
-1.582e-07
-1.582e-07
-1.582e-07
-1.582e-07
-1.582e-07
-1.582e-07
-1.582e-07
-1.582e-07
-1.582e-07
-1.582e-07
-1.582e-07
-1.582e-07
-1.582e-07
-1.582e-07
-1.582e-07
-1.582e-07
-1.582e-07
-1.582e-07
-1.582e-07
-1.582e-07
-1.582e-07
-1.582e-07
-1.582e-07
-1.582e-07
-1.582e-07
-1.582e-07
-1.582e-07
-1.582e-07
-1.58183e-07
-1.57477e-07
-1.32391e-07
)
;

boundaryField
{
    inandouthalf11
    {
        type            cyclic;
        value           nonuniform List<scalar> 
100
(
1.01846e-38
3.50068e-14
7.56256e-14
1.11698e-13
1.4733e-13
1.84357e-13
2.22462e-13
2.61177e-13
3.00311e-13
3.39856e-13
3.79884e-13
4.20467e-13
4.61633e-13
5.03376e-13
5.45682e-13
5.88548e-13
6.31982e-13
6.75993e-13
7.20585e-13
7.6576e-13
8.11514e-13
8.57849e-13
9.04781e-13
9.52332e-13
1.00054e-12
1.04945e-12
1.09913e-12
1.14966e-12
1.20113e-12
1.2536e-12
1.30711e-12
1.36162e-12
1.41702e-12
1.47308e-12
1.52948e-12
1.58581e-12
1.64167e-12
1.69676e-12
1.75101e-12
1.80467e-12
1.85841e-12
1.91345e-12
1.97163e-12
2.0356e-12
2.10899e-12
2.19625e-12
2.30177e-12
2.42683e-12
2.56428e-12
2.69506e-12
2.79535e-12
2.85393e-12
2.87927e-12
2.88744e-12
2.8895e-12
2.88995e-12
2.89005e-12
2.89007e-12
2.89007e-12
2.89008e-12
2.89008e-12
2.89008e-12
2.89008e-12
2.89008e-12
2.89008e-12
2.89008e-12
2.89008e-12
2.89008e-12
2.89008e-12
2.89009e-12
2.89009e-12
2.89009e-12
2.89009e-12
2.89009e-12
2.8901e-12
2.8901e-12
2.8901e-12
2.8901e-12
2.8901e-12
2.89011e-12
2.89011e-12
2.89011e-12
2.89011e-12
2.89012e-12
2.89012e-12
2.89012e-12
2.89012e-12
2.89012e-12
2.89013e-12
2.89013e-12
2.89013e-12
2.89013e-12
2.89014e-12
2.89014e-12
2.89014e-12
2.89015e-12
2.89015e-12
2.89015e-12
2.89016e-12
2.89016e-12
)
;
    }
    inandouthalf12
    {
        type            cyclic;
        value           nonuniform List<scalar> 
100
(
-1.01846e-38
-3.50068e-14
-7.56256e-14
-1.11698e-13
-1.4733e-13
-1.84357e-13
-2.22462e-13
-2.61177e-13
-3.00311e-13
-3.39856e-13
-3.79884e-13
-4.20467e-13
-4.61633e-13
-5.03376e-13
-5.45682e-13
-5.88548e-13
-6.31982e-13
-6.75993e-13
-7.20585e-13
-7.6576e-13
-8.11514e-13
-8.57849e-13
-9.04781e-13
-9.52332e-13
-1.00054e-12
-1.04945e-12
-1.09913e-12
-1.14966e-12
-1.20113e-12
-1.2536e-12
-1.30711e-12
-1.36162e-12
-1.41702e-12
-1.47308e-12
-1.52948e-12
-1.58581e-12
-1.64167e-12
-1.69676e-12
-1.75101e-12
-1.80467e-12
-1.85841e-12
-1.91345e-12
-1.97163e-12
-2.0356e-12
-2.10899e-12
-2.19625e-12
-2.30177e-12
-2.42683e-12
-2.56428e-12
-2.69506e-12
-2.79535e-12
-2.85393e-12
-2.87927e-12
-2.88744e-12
-2.8895e-12
-2.88995e-12
-2.89005e-12
-2.89007e-12
-2.89007e-12
-2.89008e-12
-2.89008e-12
-2.89008e-12
-2.89008e-12
-2.89008e-12
-2.89008e-12
-2.89008e-12
-2.89008e-12
-2.89008e-12
-2.89008e-12
-2.89009e-12
-2.89009e-12
-2.89009e-12
-2.89009e-12
-2.89009e-12
-2.8901e-12
-2.8901e-12
-2.8901e-12
-2.8901e-12
-2.8901e-12
-2.89011e-12
-2.89011e-12
-2.89011e-12
-2.89011e-12
-2.89012e-12
-2.89012e-12
-2.89012e-12
-2.89012e-12
-2.89012e-12
-2.89013e-12
-2.89013e-12
-2.89013e-12
-2.89013e-12
-2.89014e-12
-2.89014e-12
-2.89014e-12
-2.89015e-12
-2.89015e-12
-2.89015e-12
-2.89016e-12
-2.89016e-12
)
;
    }
    inandouthalf21
    {
        type            cyclic;
        value           nonuniform List<scalar> 
100
(
2.89016e-12
2.89017e-12
2.89017e-12
2.89017e-12
2.89018e-12
2.89018e-12
2.89018e-12
2.89019e-12
2.89019e-12
2.89019e-12
2.8902e-12
2.8902e-12
2.89021e-12
2.89021e-12
2.89021e-12
2.89022e-12
2.89022e-12
2.89023e-12
2.89023e-12
2.89024e-12
2.89024e-12
2.89024e-12
2.89025e-12
2.89025e-12
2.89026e-12
2.89026e-12
2.89027e-12
2.89027e-12
2.89028e-12
2.89029e-12
2.89029e-12
2.8903e-12
2.8903e-12
2.89031e-12
2.89031e-12
2.89032e-12
2.89032e-12
2.89032e-12
2.89033e-12
2.89033e-12
2.89034e-12
2.89034e-12
2.89034e-12
2.89034e-12
2.89034e-12
2.89034e-12
2.89034e-12
3.35887e-12
7.16539e-08
1.69131e-07
2.45191e-07
3.06105e-07
3.56209e-07
3.98295e-07
4.34253e-07
4.65426e-07
4.92803e-07
5.17128e-07
5.38964e-07
5.58745e-07
5.76806e-07
5.93409e-07
6.08761e-07
6.23028e-07
6.36343e-07
6.48814e-07
6.60529e-07
6.71561e-07
6.81972e-07
6.9181e-07
7.0112e-07
7.09937e-07
7.1829e-07
7.26208e-07
7.3371e-07
7.40818e-07
7.47548e-07
7.53914e-07
7.59929e-07
7.65606e-07
7.70955e-07
7.75985e-07
7.80706e-07
7.85128e-07
7.89257e-07
7.93105e-07
7.96678e-07
7.99987e-07
8.03043e-07
8.05857e-07
8.0844e-07
8.10808e-07
8.12973e-07
8.14951e-07
8.16755e-07
8.18398e-07
8.19894e-07
8.21255e-07
8.22493e-07
8.23621e-07
)
;
    }
    inandouthalf22
    {
        type            cyclic;
        value           nonuniform List<scalar> 
100
(
-2.89016e-12
-2.89017e-12
-2.89017e-12
-2.89017e-12
-2.89018e-12
-2.89018e-12
-2.89018e-12
-2.89019e-12
-2.89019e-12
-2.89019e-12
-2.8902e-12
-2.8902e-12
-2.89021e-12
-2.89021e-12
-2.89021e-12
-2.89022e-12
-2.89022e-12
-2.89023e-12
-2.89023e-12
-2.89024e-12
-2.89024e-12
-2.89024e-12
-2.89025e-12
-2.89025e-12
-2.89026e-12
-2.89026e-12
-2.89027e-12
-2.89027e-12
-2.89028e-12
-2.89029e-12
-2.89029e-12
-2.8903e-12
-2.8903e-12
-2.89031e-12
-2.89031e-12
-2.89032e-12
-2.89032e-12
-2.89032e-12
-2.89033e-12
-2.89033e-12
-2.89034e-12
-2.89034e-12
-2.89034e-12
-2.89034e-12
-2.89034e-12
-2.89034e-12
-2.89034e-12
-3.35887e-12
-7.16539e-08
-1.69131e-07
-2.45191e-07
-3.06105e-07
-3.56209e-07
-3.98295e-07
-4.34253e-07
-4.65426e-07
-4.92803e-07
-5.17128e-07
-5.38964e-07
-5.58745e-07
-5.76806e-07
-5.93409e-07
-6.08761e-07
-6.23028e-07
-6.36343e-07
-6.48814e-07
-6.60529e-07
-6.71561e-07
-6.81972e-07
-6.9181e-07
-7.0112e-07
-7.09937e-07
-7.1829e-07
-7.26208e-07
-7.3371e-07
-7.40818e-07
-7.47548e-07
-7.53914e-07
-7.59929e-07
-7.65606e-07
-7.70955e-07
-7.75985e-07
-7.80706e-07
-7.85128e-07
-7.89257e-07
-7.93105e-07
-7.96678e-07
-7.99987e-07
-8.03043e-07
-8.05857e-07
-8.0844e-07
-8.10808e-07
-8.12973e-07
-8.14951e-07
-8.16755e-07
-8.18398e-07
-8.19894e-07
-8.21255e-07
-8.22493e-07
-8.23621e-07
)
;
    }
    inandouthalf31
    {
        type            cyclic;
        value           nonuniform List<scalar> 
110
(
8.24654e-07
8.42366e-07
8.60394e-07
8.78749e-07
8.97443e-07
9.16485e-07
9.35887e-07
9.5566e-07
9.75815e-07
9.96364e-07
1.01732e-06
1.03869e-06
1.06048e-06
1.08271e-06
1.1054e-06
1.12854e-06
1.15215e-06
1.17625e-06
1.20084e-06
1.22594e-06
1.25155e-06
1.27769e-06
1.30437e-06
1.33161e-06
1.3594e-06
1.38778e-06
1.41674e-06
1.44629e-06
1.47646e-06
1.50725e-06
1.53866e-06
1.57072e-06
1.60343e-06
1.63681e-06
1.67085e-06
1.70556e-06
1.74118e-06
1.90816e-06
1.94423e-06
1.97834e-06
2.01436e-06
2.04996e-06
2.08674e-06
2.12408e-06
2.1621e-06
2.20085e-06
2.2404e-06
2.28086e-06
2.32236e-06
2.36509e-06
2.40969e-06
2.45723e-06
2.50696e-06
2.55783e-06
2.60975e-06
2.66272e-06
2.71677e-06
2.77191e-06
2.82817e-06
2.88557e-06
2.94414e-06
3.0039e-06
3.06487e-06
3.12708e-06
3.19055e-06
3.25531e-06
3.32139e-06
3.3888e-06
3.45758e-06
3.52776e-06
3.59937e-06
3.67243e-06
3.74697e-06
3.82302e-06
3.90062e-06
3.97979e-06
4.06057e-06
4.14299e-06
4.22708e-06
4.31288e-06
4.40042e-06
4.48973e-06
4.58086e-06
4.67384e-06
4.76871e-06
4.8655e-06
4.96426e-06
5.06502e-06
5.16782e-06
5.27272e-06
5.37974e-06
5.48893e-06
5.60035e-06
5.71402e-06
5.83e-06
5.94833e-06
6.06907e-06
6.19225e-06
6.31794e-06
6.44617e-06
6.57701e-06
6.71051e-06
6.84672e-06
6.98569e-06
7.12748e-06
7.27215e-06
7.41975e-06
7.57035e-06
7.72401e-06
7.88079e-06
)
;
    }
    inandouthalf32
    {
        type            cyclic;
        value           nonuniform List<scalar> 
110
(
-8.24654e-07
-8.42366e-07
-8.60394e-07
-8.78749e-07
-8.97443e-07
-9.16485e-07
-9.35887e-07
-9.5566e-07
-9.75815e-07
-9.96364e-07
-1.01732e-06
-1.03869e-06
-1.06048e-06
-1.08271e-06
-1.1054e-06
-1.12854e-06
-1.15215e-06
-1.17625e-06
-1.20084e-06
-1.22594e-06
-1.25155e-06
-1.27769e-06
-1.30437e-06
-1.33161e-06
-1.3594e-06
-1.38778e-06
-1.41674e-06
-1.44629e-06
-1.47646e-06
-1.50725e-06
-1.53866e-06
-1.57072e-06
-1.60343e-06
-1.63681e-06
-1.67085e-06
-1.70556e-06
-1.74118e-06
-1.90816e-06
-1.94423e-06
-1.97834e-06
-2.01436e-06
-2.04996e-06
-2.08674e-06
-2.12408e-06
-2.1621e-06
-2.20085e-06
-2.2404e-06
-2.28086e-06
-2.32236e-06
-2.36509e-06
-2.40969e-06
-2.45723e-06
-2.50696e-06
-2.55783e-06
-2.60975e-06
-2.66272e-06
-2.71677e-06
-2.77191e-06
-2.82817e-06
-2.88557e-06
-2.94414e-06
-3.0039e-06
-3.06487e-06
-3.12708e-06
-3.19055e-06
-3.25531e-06
-3.32139e-06
-3.3888e-06
-3.45758e-06
-3.52776e-06
-3.59937e-06
-3.67243e-06
-3.74697e-06
-3.82302e-06
-3.90062e-06
-3.97979e-06
-4.06057e-06
-4.14299e-06
-4.22708e-06
-4.31288e-06
-4.40042e-06
-4.48973e-06
-4.58086e-06
-4.67384e-06
-4.76871e-06
-4.8655e-06
-4.96426e-06
-5.06502e-06
-5.16782e-06
-5.27272e-06
-5.37974e-06
-5.48893e-06
-5.60035e-06
-5.71402e-06
-5.83e-06
-5.94833e-06
-6.06907e-06
-6.19225e-06
-6.31794e-06
-6.44617e-06
-6.57701e-06
-6.71051e-06
-6.84672e-06
-6.98569e-06
-7.12748e-06
-7.27215e-06
-7.41975e-06
-7.57035e-06
-7.72401e-06
-7.88079e-06
)
;
    }
    inandouthalf41
    {
        type            cyclic;
        value           nonuniform List<scalar> 
50
(
7.05411e-06
7.05411e-06
7.05411e-06
7.05411e-06
7.05411e-06
7.05411e-06
7.05411e-06
7.05411e-06
7.05411e-06
7.05411e-06
7.05411e-06
7.05411e-06
7.05411e-06
7.05411e-06
7.05411e-06
7.05411e-06
7.05411e-06
7.05411e-06
7.05411e-06
7.05411e-06
7.05411e-06
7.05411e-06
7.05411e-06
7.05411e-06
7.05411e-06
7.05411e-06
7.05411e-06
7.05411e-06
7.05411e-06
7.05411e-06
7.05411e-06
7.05411e-06
7.05411e-06
7.05411e-06
7.05411e-06
7.05411e-06
7.05411e-06
7.05411e-06
7.05411e-06
7.05411e-06
7.05411e-06
7.05411e-06
7.05411e-06
7.05411e-06
7.05411e-06
7.05411e-06
7.05411e-06
7.05411e-06
7.05411e-06
7.05409e-06
)
;
    }
    inandouthalf42
    {
        type            cyclic;
        value           nonuniform List<scalar> 
50
(
-7.05411e-06
-7.05411e-06
-7.05411e-06
-7.05411e-06
-7.05411e-06
-7.05411e-06
-7.05411e-06
-7.05411e-06
-7.05411e-06
-7.05411e-06
-7.05411e-06
-7.05411e-06
-7.05411e-06
-7.05411e-06
-7.05411e-06
-7.05411e-06
-7.05411e-06
-7.05411e-06
-7.05411e-06
-7.05411e-06
-7.05411e-06
-7.05411e-06
-7.05411e-06
-7.05411e-06
-7.05411e-06
-7.05411e-06
-7.05411e-06
-7.05411e-06
-7.05411e-06
-7.05411e-06
-7.05411e-06
-7.05411e-06
-7.05411e-06
-7.05411e-06
-7.05411e-06
-7.05411e-06
-7.05411e-06
-7.05411e-06
-7.05411e-06
-7.05411e-06
-7.05411e-06
-7.05411e-06
-7.05411e-06
-7.05411e-06
-7.05411e-06
-7.05411e-06
-7.05411e-06
-7.05411e-06
-7.05411e-06
-7.05409e-06
)
;
    }
    top
    {
        type            symmetryPlane;
        value           uniform 0;
    }
    walls
    {
        type            fixedValue;
        value           uniform 0;
    }
    frontAndBackPlanes
    {
        type            empty;
        value           nonuniform 0();
    }
}


// ************************************************************************* //
