/*--------------------------------*- C++ -*----------------------------------*\
| =========                 |                                                 |
| \\      /  F ield         | OpenFOAM: The Open Source CFD Toolbox           |
|  \\    /   O peration     | Version:  2.4.x                                 |
|   \\  /    A nd           | Web:      www.OpenFOAM.org                      |
|    \\/     M anipulation  |                                                 |
\*---------------------------------------------------------------------------*/
FoamFile
{
    version     2.0;
    format      ascii;
    class       surfaceScalarField;
    location    "5.45";
    object      phia;
}
// * * * * * * * * * * * * * * * * * * * * * * * * * * * * * * * * * * * * * //

dimensions      [0 3 -1 0 0 0 0];

internalField   nonuniform List<scalar> 
359
(
-4.69034e-13
-1.24941e-12
-1.96719e-12
-2.63512e-12
-3.31007e-12
-4.00302e-12
-4.70633e-12
-5.41384e-12
-6.12334e-12
-6.83582e-12
-7.55281e-12
-8.27492e-12
-9.00227e-12
-9.73439e-12
-1.0471e-11
-1.1212e-11
-1.19576e-11
-1.27076e-11
-1.3462e-11
-1.42207e-11
-1.49834e-11
-1.57502e-11
-1.65213e-11
-1.72969e-11
-1.80776e-11
-1.88643e-11
-1.96577e-11
-2.04593e-11
-2.12701e-11
-2.20905e-11
-2.29205e-11
-2.37589e-11
-2.46024e-11
-2.54475e-11
-2.62878e-11
-2.71175e-11
-2.79308e-11
-2.87251e-11
-2.95018e-11
-3.02667e-11
-3.10337e-11
-3.18239e-11
-3.26679e-11
-3.36094e-11
-3.47034e-11
-3.6012e-11
-3.75778e-11
-3.93657e-11
-4.12017e-11
-4.27888e-11
-4.38766e-11
-4.44458e-11
-4.46695e-11
-4.47365e-11
-4.47525e-11
-4.47559e-11
-4.47566e-11
-4.47568e-11
-4.47569e-11
-4.47569e-11
-4.47569e-11
-4.47569e-11
-4.47569e-11
-4.47569e-11
-4.47569e-11
-4.47569e-11
-4.47569e-11
-4.4757e-11
-4.4757e-11
-4.4757e-11
-4.4757e-11
-4.4757e-11
-4.4757e-11
-4.47571e-11
-4.47571e-11
-4.47571e-11
-4.47571e-11
-4.47572e-11
-4.47572e-11
-4.47572e-11
-4.47572e-11
-4.47572e-11
-4.47573e-11
-4.47573e-11
-4.47573e-11
-4.47573e-11
-4.47574e-11
-4.47574e-11
-4.47574e-11
-4.47574e-11
-4.47575e-11
-4.47575e-11
-4.47575e-11
-4.47575e-11
-4.47575e-11
-4.47576e-11
-4.47576e-11
-4.47576e-11
-4.47577e-11
-4.47577e-11
-4.47577e-11
-4.47577e-11
-4.47578e-11
-4.47578e-11
-4.47578e-11
-4.47579e-11
-4.47579e-11
-4.47579e-11
-4.47579e-11
-4.4758e-11
-4.4758e-11
-4.4758e-11
-4.47581e-11
-4.47581e-11
-4.47581e-11
-4.47581e-11
-4.47582e-11
-4.47582e-11
-4.47582e-11
-4.47583e-11
-4.47583e-11
-4.47583e-11
-4.47583e-11
-4.47584e-11
-4.47584e-11
-4.47584e-11
-4.47585e-11
-4.47585e-11
-4.47585e-11
-4.47585e-11
-4.47586e-11
-4.47586e-11
-4.47586e-11
-4.47586e-11
-4.47587e-11
-4.47587e-11
-4.47587e-11
-4.47587e-11
-4.47587e-11
-4.47587e-11
-4.47587e-11
-4.47587e-11
-4.47587e-11
-4.47587e-11
-4.47587e-11
-4.47587e-11
-4.49147e-11
-8.10087e-10
-1.38089e-09
-1.8156e-09
-2.08462e-09
-2.28345e-09
-2.4281e-09
-2.52053e-09
-2.55893e-09
-2.54163e-09
-2.468e-09
-2.33858e-09
-2.15479e-09
-1.91867e-09
-1.63253e-09
-1.29882e-09
-9.19932e-10
-4.98197e-10
-3.58342e-11
4.65153e-10
1.00278e-09
1.57527e-09
2.18091e-09
2.8181e-09
3.4853e-09
4.18105e-09
4.90395e-09
5.65261e-09
6.42569e-09
7.22185e-09
8.03969e-09
8.87782e-09
9.73474e-09
1.06089e-08
1.14984e-08
1.24014e-08
1.33152e-08
1.4236e-08
1.51578e-08
1.60717e-08
1.69652e-08
1.78227e-08
1.86271e-08
1.93626e-08
2.00174e-08
2.05858e-08
2.10684e-08
2.14726e-08
2.18107e-08
2.20954e-08
2.23338e-08
2.25279e-08
2.26772e-08
2.27834e-08
2.28517e-08
2.28872e-08
2.28934e-08
2.28779e-08
2.28452e-08
2.27957e-08
2.2735e-08
2.26673e-08
2.25916e-08
2.25104e-08
2.24263e-08
2.23384e-08
2.22487e-08
2.21577e-08
2.20628e-08
2.19674e-08
2.18707e-08
2.17681e-08
2.16635e-08
2.15556e-08
2.14417e-08
2.1323e-08
2.11956e-08
2.10634e-08
2.09218e-08
2.07661e-08
2.0601e-08
2.04184e-08
2.02159e-08
1.99907e-08
1.97379e-08
1.94489e-08
1.91211e-08
1.86768e-08
1.82296e-08
1.70495e-08
4.94775e-09
1.10667e-08
-1.63223e-08
-1.28738e-07
-1.58424e-07
-1.58381e-07
-1.58393e-07
-1.58398e-07
-1.58401e-07
-1.58402e-07
-1.58399e-07
-1.58391e-07
-1.58373e-07
-1.58343e-07
-1.5826e-07
-1.58203e-07
-1.582e-07
-1.582e-07
-1.582e-07
-1.582e-07
-1.582e-07
-1.582e-07
-1.582e-07
-1.582e-07
-1.582e-07
-1.582e-07
-1.582e-07
-1.582e-07
-1.582e-07
-1.582e-07
-1.582e-07
-1.582e-07
-1.582e-07
-1.582e-07
-1.582e-07
-1.582e-07
-1.582e-07
-1.582e-07
-1.582e-07
-1.582e-07
-1.582e-07
-1.582e-07
-1.582e-07
-1.582e-07
-1.582e-07
-1.582e-07
-1.582e-07
-1.582e-07
-1.582e-07
-1.582e-07
-1.582e-07
-1.582e-07
-1.582e-07
-1.582e-07
-1.582e-07
-1.582e-07
-1.582e-07
-1.582e-07
-1.582e-07
-1.582e-07
-1.582e-07
-1.582e-07
-1.582e-07
-1.582e-07
-1.582e-07
-1.582e-07
-1.582e-07
-1.582e-07
-1.582e-07
-1.582e-07
-1.582e-07
-1.582e-07
-1.582e-07
-1.582e-07
-1.582e-07
-1.582e-07
-1.582e-07
-1.582e-07
-1.582e-07
-1.582e-07
-1.582e-07
-1.582e-07
-1.582e-07
-1.582e-07
-1.582e-07
-1.582e-07
-1.582e-07
-1.582e-07
-1.582e-07
-1.582e-07
-1.582e-07
-1.582e-07
-1.582e-07
-1.582e-07
-1.582e-07
-1.582e-07
-1.582e-07
-1.582e-07
-1.582e-07
-1.582e-07
-1.582e-07
-1.582e-07
-1.582e-07
-1.582e-07
-1.582e-07
-1.582e-07
-1.582e-07
-1.582e-07
-1.582e-07
-1.582e-07
-1.582e-07
-1.582e-07
-1.582e-07
-1.582e-07
-1.582e-07
-1.582e-07
-1.582e-07
-1.582e-07
-1.582e-07
-1.582e-07
-1.58183e-07
-1.57477e-07
-1.3239e-07
)
;

boundaryField
{
    inandouthalf11
    {
        type            cyclic;
        value           nonuniform List<scalar> 
100
(
1.01846e-38
3.50047e-14
7.56207e-14
1.11691e-13
1.47321e-13
1.84345e-13
2.22448e-13
2.61159e-13
3.00291e-13
3.39833e-13
3.79858e-13
4.20439e-13
4.61602e-13
5.03342e-13
5.45645e-13
5.88508e-13
6.31939e-13
6.75947e-13
7.20536e-13
7.65708e-13
8.11459e-13
8.57791e-13
9.04719e-13
9.52267e-13
1.00047e-12
1.04937e-12
1.09905e-12
1.14957e-12
1.20104e-12
1.25351e-12
1.30701e-12
1.36152e-12
1.41691e-12
1.47297e-12
1.52937e-12
1.5857e-12
1.64155e-12
1.69664e-12
1.7509e-12
1.80455e-12
1.85829e-12
1.91332e-12
1.97148e-12
2.03543e-12
2.10878e-12
2.19599e-12
2.30146e-12
2.42646e-12
2.5639e-12
2.69473e-12
2.79512e-12
2.85382e-12
2.87923e-12
2.88743e-12
2.8895e-12
2.88995e-12
2.89005e-12
2.89007e-12
2.89007e-12
2.89008e-12
2.89008e-12
2.89008e-12
2.89008e-12
2.89008e-12
2.89008e-12
2.89008e-12
2.89008e-12
2.89008e-12
2.89008e-12
2.89009e-12
2.89009e-12
2.89009e-12
2.89009e-12
2.89009e-12
2.8901e-12
2.8901e-12
2.8901e-12
2.8901e-12
2.8901e-12
2.89011e-12
2.89011e-12
2.89011e-12
2.89011e-12
2.89012e-12
2.89012e-12
2.89012e-12
2.89012e-12
2.89012e-12
2.89013e-12
2.89013e-12
2.89013e-12
2.89013e-12
2.89014e-12
2.89014e-12
2.89014e-12
2.89015e-12
2.89015e-12
2.89015e-12
2.89016e-12
2.89016e-12
)
;
    }
    inandouthalf12
    {
        type            cyclic;
        value           nonuniform List<scalar> 
100
(
-1.01846e-38
-3.50047e-14
-7.56207e-14
-1.11691e-13
-1.47321e-13
-1.84345e-13
-2.22448e-13
-2.61159e-13
-3.00291e-13
-3.39833e-13
-3.79858e-13
-4.20439e-13
-4.61602e-13
-5.03342e-13
-5.45645e-13
-5.88508e-13
-6.31939e-13
-6.75947e-13
-7.20536e-13
-7.65708e-13
-8.11459e-13
-8.57791e-13
-9.04719e-13
-9.52267e-13
-1.00047e-12
-1.04937e-12
-1.09905e-12
-1.14957e-12
-1.20104e-12
-1.25351e-12
-1.30701e-12
-1.36152e-12
-1.41691e-12
-1.47297e-12
-1.52937e-12
-1.5857e-12
-1.64155e-12
-1.69664e-12
-1.7509e-12
-1.80455e-12
-1.85829e-12
-1.91332e-12
-1.97148e-12
-2.03543e-12
-2.10878e-12
-2.19599e-12
-2.30146e-12
-2.42646e-12
-2.5639e-12
-2.69473e-12
-2.79512e-12
-2.85382e-12
-2.87923e-12
-2.88743e-12
-2.8895e-12
-2.88995e-12
-2.89005e-12
-2.89007e-12
-2.89007e-12
-2.89008e-12
-2.89008e-12
-2.89008e-12
-2.89008e-12
-2.89008e-12
-2.89008e-12
-2.89008e-12
-2.89008e-12
-2.89008e-12
-2.89008e-12
-2.89009e-12
-2.89009e-12
-2.89009e-12
-2.89009e-12
-2.89009e-12
-2.8901e-12
-2.8901e-12
-2.8901e-12
-2.8901e-12
-2.8901e-12
-2.89011e-12
-2.89011e-12
-2.89011e-12
-2.89011e-12
-2.89012e-12
-2.89012e-12
-2.89012e-12
-2.89012e-12
-2.89012e-12
-2.89013e-12
-2.89013e-12
-2.89013e-12
-2.89013e-12
-2.89014e-12
-2.89014e-12
-2.89014e-12
-2.89015e-12
-2.89015e-12
-2.89015e-12
-2.89016e-12
-2.89016e-12
)
;
    }
    inandouthalf21
    {
        type            cyclic;
        value           nonuniform List<scalar> 
100
(
2.89016e-12
2.89017e-12
2.89017e-12
2.89017e-12
2.89018e-12
2.89018e-12
2.89018e-12
2.89019e-12
2.89019e-12
2.89019e-12
2.8902e-12
2.8902e-12
2.89021e-12
2.89021e-12
2.89021e-12
2.89022e-12
2.89022e-12
2.89023e-12
2.89023e-12
2.89023e-12
2.89024e-12
2.89024e-12
2.89025e-12
2.89025e-12
2.89026e-12
2.89026e-12
2.89027e-12
2.89027e-12
2.89028e-12
2.89028e-12
2.89029e-12
2.8903e-12
2.8903e-12
2.89031e-12
2.89031e-12
2.89032e-12
2.89032e-12
2.89032e-12
2.89033e-12
2.89033e-12
2.89034e-12
2.89034e-12
2.89034e-12
2.89034e-12
2.89034e-12
2.89034e-12
2.89034e-12
3.3606e-12
7.16484e-08
1.69126e-07
2.45186e-07
3.06099e-07
3.56202e-07
3.98287e-07
4.34244e-07
4.65416e-07
4.92792e-07
5.17115e-07
5.38951e-07
5.58731e-07
5.76791e-07
5.93393e-07
6.08745e-07
6.23011e-07
6.36326e-07
6.48796e-07
6.60511e-07
6.71543e-07
6.81953e-07
6.91791e-07
7.01101e-07
7.09917e-07
7.1827e-07
7.26187e-07
7.3369e-07
7.40798e-07
7.47527e-07
7.53893e-07
7.59909e-07
7.65585e-07
7.70934e-07
7.75965e-07
7.80686e-07
7.85108e-07
7.89238e-07
7.93085e-07
7.96659e-07
7.99968e-07
8.03024e-07
8.05838e-07
8.08422e-07
8.1079e-07
8.12956e-07
8.14934e-07
8.16738e-07
8.18382e-07
8.19878e-07
8.21238e-07
8.22477e-07
8.23605e-07
)
;
    }
    inandouthalf22
    {
        type            cyclic;
        value           nonuniform List<scalar> 
100
(
-2.89016e-12
-2.89017e-12
-2.89017e-12
-2.89017e-12
-2.89018e-12
-2.89018e-12
-2.89018e-12
-2.89019e-12
-2.89019e-12
-2.89019e-12
-2.8902e-12
-2.8902e-12
-2.89021e-12
-2.89021e-12
-2.89021e-12
-2.89022e-12
-2.89022e-12
-2.89023e-12
-2.89023e-12
-2.89023e-12
-2.89024e-12
-2.89024e-12
-2.89025e-12
-2.89025e-12
-2.89026e-12
-2.89026e-12
-2.89027e-12
-2.89027e-12
-2.89028e-12
-2.89028e-12
-2.89029e-12
-2.8903e-12
-2.8903e-12
-2.89031e-12
-2.89031e-12
-2.89032e-12
-2.89032e-12
-2.89032e-12
-2.89033e-12
-2.89033e-12
-2.89034e-12
-2.89034e-12
-2.89034e-12
-2.89034e-12
-2.89034e-12
-2.89034e-12
-2.89034e-12
-3.3606e-12
-7.16484e-08
-1.69126e-07
-2.45186e-07
-3.06099e-07
-3.56202e-07
-3.98287e-07
-4.34244e-07
-4.65416e-07
-4.92792e-07
-5.17115e-07
-5.38951e-07
-5.58731e-07
-5.76791e-07
-5.93393e-07
-6.08745e-07
-6.23011e-07
-6.36326e-07
-6.48796e-07
-6.60511e-07
-6.71543e-07
-6.81953e-07
-6.91791e-07
-7.01101e-07
-7.09917e-07
-7.1827e-07
-7.26187e-07
-7.3369e-07
-7.40798e-07
-7.47527e-07
-7.53893e-07
-7.59909e-07
-7.65585e-07
-7.70934e-07
-7.75965e-07
-7.80686e-07
-7.85108e-07
-7.89238e-07
-7.93085e-07
-7.96659e-07
-7.99968e-07
-8.03024e-07
-8.05838e-07
-8.08422e-07
-8.1079e-07
-8.12956e-07
-8.14934e-07
-8.16738e-07
-8.18382e-07
-8.19878e-07
-8.21238e-07
-8.22477e-07
-8.23605e-07
)
;
    }
    inandouthalf31
    {
        type            cyclic;
        value           nonuniform List<scalar> 
110
(
8.24639e-07
8.4235e-07
8.60378e-07
8.78733e-07
8.97427e-07
9.16468e-07
9.3587e-07
9.55644e-07
9.75799e-07
9.96347e-07
1.0173e-06
1.03867e-06
1.06046e-06
1.0827e-06
1.10538e-06
1.12852e-06
1.15213e-06
1.17623e-06
1.20082e-06
1.22592e-06
1.25153e-06
1.27767e-06
1.30435e-06
1.33159e-06
1.35938e-06
1.38776e-06
1.41671e-06
1.44627e-06
1.47643e-06
1.50722e-06
1.53864e-06
1.5707e-06
1.60341e-06
1.63678e-06
1.67083e-06
1.70553e-06
1.74116e-06
1.90816e-06
1.94424e-06
1.97834e-06
2.01436e-06
2.04997e-06
2.08675e-06
2.12409e-06
2.16211e-06
2.20086e-06
2.24041e-06
2.28087e-06
2.32237e-06
2.3651e-06
2.40969e-06
2.45724e-06
2.50696e-06
2.55784e-06
2.60975e-06
2.66272e-06
2.71677e-06
2.77191e-06
2.82817e-06
2.88558e-06
2.94414e-06
3.0039e-06
3.06487e-06
3.12708e-06
3.19055e-06
3.25531e-06
3.32139e-06
3.3888e-06
3.45759e-06
3.52777e-06
3.59937e-06
3.67243e-06
3.74697e-06
3.82302e-06
3.90062e-06
3.97979e-06
4.06057e-06
4.14299e-06
4.22708e-06
4.31288e-06
4.40042e-06
4.48974e-06
4.58087e-06
4.67384e-06
4.76871e-06
4.8655e-06
4.96426e-06
5.06502e-06
5.16783e-06
5.27272e-06
5.37974e-06
5.48894e-06
5.60035e-06
5.71402e-06
5.83e-06
5.94833e-06
6.06907e-06
6.19226e-06
6.31794e-06
6.44618e-06
6.57702e-06
6.71052e-06
6.84672e-06
6.98569e-06
7.12748e-06
7.27215e-06
7.41976e-06
7.57036e-06
7.72402e-06
7.88079e-06
)
;
    }
    inandouthalf32
    {
        type            cyclic;
        value           nonuniform List<scalar> 
110
(
-8.24639e-07
-8.4235e-07
-8.60378e-07
-8.78733e-07
-8.97427e-07
-9.16468e-07
-9.3587e-07
-9.55644e-07
-9.75799e-07
-9.96347e-07
-1.0173e-06
-1.03867e-06
-1.06046e-06
-1.0827e-06
-1.10538e-06
-1.12852e-06
-1.15213e-06
-1.17623e-06
-1.20082e-06
-1.22592e-06
-1.25153e-06
-1.27767e-06
-1.30435e-06
-1.33159e-06
-1.35938e-06
-1.38776e-06
-1.41671e-06
-1.44627e-06
-1.47643e-06
-1.50722e-06
-1.53864e-06
-1.5707e-06
-1.60341e-06
-1.63678e-06
-1.67083e-06
-1.70553e-06
-1.74116e-06
-1.90816e-06
-1.94424e-06
-1.97834e-06
-2.01436e-06
-2.04997e-06
-2.08675e-06
-2.12409e-06
-2.16211e-06
-2.20086e-06
-2.24041e-06
-2.28087e-06
-2.32237e-06
-2.3651e-06
-2.40969e-06
-2.45724e-06
-2.50696e-06
-2.55784e-06
-2.60975e-06
-2.66272e-06
-2.71677e-06
-2.77191e-06
-2.82817e-06
-2.88558e-06
-2.94414e-06
-3.0039e-06
-3.06487e-06
-3.12708e-06
-3.19055e-06
-3.25531e-06
-3.32139e-06
-3.3888e-06
-3.45759e-06
-3.52777e-06
-3.59937e-06
-3.67243e-06
-3.74697e-06
-3.82302e-06
-3.90062e-06
-3.97979e-06
-4.06057e-06
-4.14299e-06
-4.22708e-06
-4.31288e-06
-4.40042e-06
-4.48974e-06
-4.58087e-06
-4.67384e-06
-4.76871e-06
-4.8655e-06
-4.96426e-06
-5.06502e-06
-5.16783e-06
-5.27272e-06
-5.37974e-06
-5.48894e-06
-5.60035e-06
-5.71402e-06
-5.83e-06
-5.94833e-06
-6.06907e-06
-6.19226e-06
-6.31794e-06
-6.44618e-06
-6.57702e-06
-6.71052e-06
-6.84672e-06
-6.98569e-06
-7.12748e-06
-7.27215e-06
-7.41976e-06
-7.57036e-06
-7.72402e-06
-7.88079e-06
)
;
    }
    inandouthalf41
    {
        type            cyclic;
        value           nonuniform List<scalar> 
50
(
7.05411e-06
7.05411e-06
7.05411e-06
7.05411e-06
7.05411e-06
7.05411e-06
7.05411e-06
7.05411e-06
7.05411e-06
7.05411e-06
7.05411e-06
7.05411e-06
7.05411e-06
7.05411e-06
7.05411e-06
7.05411e-06
7.05411e-06
7.05411e-06
7.05411e-06
7.05411e-06
7.05411e-06
7.05411e-06
7.05411e-06
7.05411e-06
7.05411e-06
7.05411e-06
7.05411e-06
7.05411e-06
7.05411e-06
7.05411e-06
7.05411e-06
7.05411e-06
7.05411e-06
7.05411e-06
7.05411e-06
7.05411e-06
7.05411e-06
7.05411e-06
7.05411e-06
7.05411e-06
7.05411e-06
7.05411e-06
7.05411e-06
7.05411e-06
7.05411e-06
7.05411e-06
7.05411e-06
7.05411e-06
7.05411e-06
7.0541e-06
)
;
    }
    inandouthalf42
    {
        type            cyclic;
        value           nonuniform List<scalar> 
50
(
-7.05411e-06
-7.05411e-06
-7.05411e-06
-7.05411e-06
-7.05411e-06
-7.05411e-06
-7.05411e-06
-7.05411e-06
-7.05411e-06
-7.05411e-06
-7.05411e-06
-7.05411e-06
-7.05411e-06
-7.05411e-06
-7.05411e-06
-7.05411e-06
-7.05411e-06
-7.05411e-06
-7.05411e-06
-7.05411e-06
-7.05411e-06
-7.05411e-06
-7.05411e-06
-7.05411e-06
-7.05411e-06
-7.05411e-06
-7.05411e-06
-7.05411e-06
-7.05411e-06
-7.05411e-06
-7.05411e-06
-7.05411e-06
-7.05411e-06
-7.05411e-06
-7.05411e-06
-7.05411e-06
-7.05411e-06
-7.05411e-06
-7.05411e-06
-7.05411e-06
-7.05411e-06
-7.05411e-06
-7.05411e-06
-7.05411e-06
-7.05411e-06
-7.05411e-06
-7.05411e-06
-7.05411e-06
-7.05411e-06
-7.0541e-06
)
;
    }
    top
    {
        type            symmetryPlane;
        value           uniform 0;
    }
    walls
    {
        type            fixedValue;
        value           uniform 0;
    }
    frontAndBackPlanes
    {
        type            empty;
        value           nonuniform 0();
    }
}


// ************************************************************************* //
