/*--------------------------------*- C++ -*----------------------------------*\
| =========                 |                                                 |
| \\      /  F ield         | OpenFOAM: The Open Source CFD Toolbox           |
|  \\    /   O peration     | Version:  2.4.x                                 |
|   \\  /    A nd           | Web:      www.OpenFOAM.org                      |
|    \\/     M anipulation  |                                                 |
\*---------------------------------------------------------------------------*/
FoamFile
{
    version     2.0;
    format      ascii;
    class       surfaceScalarField;
    location    "5.45";
    object      phib_0;
}
// * * * * * * * * * * * * * * * * * * * * * * * * * * * * * * * * * * * * * //

dimensions      [0 3 -1 0 0 0 0];

internalField   nonuniform List<scalar> 
359
(
7.36567e-13
1.96548e-12
3.09507e-12
4.14495e-12
5.20582e-12
6.29505e-12
7.40037e-12
8.51205e-12
9.6266e-12
1.07456e-11
1.18714e-11
1.3005e-11
1.41465e-11
1.52954e-11
1.6451e-11
1.76133e-11
1.87824e-11
1.99583e-11
2.11407e-11
2.23297e-11
2.35245e-11
2.47256e-11
2.5933e-11
2.71473e-11
2.83693e-11
2.96002e-11
3.08414e-11
3.20952e-11
3.33629e-11
3.46455e-11
3.59425e-11
3.72525e-11
3.85701e-11
3.98897e-11
4.12015e-11
4.24962e-11
4.3765e-11
4.50038e-11
4.62148e-11
4.74069e-11
4.86021e-11
4.98332e-11
5.1148e-11
5.26147e-11
5.43192e-11
5.63579e-11
5.87972e-11
6.15815e-11
6.44383e-11
6.69049e-11
6.85922e-11
6.94717e-11
6.98139e-11
6.99126e-11
6.9932e-11
6.99313e-11
6.99263e-11
6.99199e-11
6.99132e-11
6.9906e-11
6.98985e-11
6.98907e-11
6.98827e-11
6.98745e-11
6.98661e-11
6.98575e-11
6.98485e-11
6.98393e-11
6.98298e-11
6.98199e-11
6.98095e-11
6.97988e-11
6.97879e-11
6.97766e-11
6.9765e-11
6.97531e-11
6.97411e-11
6.97288e-11
6.97162e-11
6.97033e-11
6.96901e-11
6.96765e-11
6.96625e-11
6.96482e-11
6.96335e-11
6.96186e-11
6.96032e-11
6.95876e-11
6.95717e-11
6.95554e-11
6.95388e-11
6.95218e-11
6.95044e-11
6.94866e-11
6.94683e-11
6.94497e-11
6.94307e-11
6.94112e-11
6.93912e-11
6.93708e-11
6.93499e-11
6.93286e-11
6.93067e-11
6.92842e-11
6.92613e-11
6.92377e-11
6.92136e-11
6.91889e-11
6.91635e-11
6.91374e-11
6.91106e-11
6.90832e-11
6.90549e-11
6.90259e-11
6.8996e-11
6.89653e-11
6.89336e-11
6.89011e-11
6.88675e-11
6.88329e-11
6.87972e-11
6.87604e-11
6.87224e-11
6.86832e-11
6.86427e-11
6.86008e-11
6.85574e-11
6.85124e-11
6.84656e-11
6.8417e-11
6.83664e-11
6.83138e-11
6.82587e-11
6.82004e-11
6.81386e-11
6.80737e-11
6.80052e-11
6.7931e-11
6.78474e-11
6.77545e-11
6.76605e-11
6.756e-11
6.74348e-11
6.72771e-11
6.70362e-11
6.63775e-11
6.1889e-11
6.46613e-10
5.28119e-10
4.7057e-10
4.12675e-10
3.52033e-10
2.92798e-10
2.3809e-10
1.89808e-10
1.48669e-10
1.14506e-10
8.66529e-11
6.4234e-11
4.6355e-11
3.21966e-11
2.10518e-11
1.23311e-11
5.55187e-12
3.24593e-13
-3.66464e-12
-6.66631e-12
-8.88144e-12
-1.04707e-11
-1.15629e-11
-1.22612e-11
-1.26487e-11
-1.27918e-11
-1.27443e-11
-1.25494e-11
-1.22417e-11
-1.18492e-11
-1.13944e-11
-1.08952e-11
-1.0366e-11
-9.81824e-12
-9.26073e-12
-8.6999e-12
-8.1397e-12
-7.58163e-12
-7.02518e-12
-6.46885e-12
-5.9119e-12
-5.35623e-12
-4.80749e-12
-4.2746e-12
-3.76801e-12
-3.29788e-12
-2.87225e-12
-2.49419e-12
-2.16038e-12
-1.86391e-12
-1.599e-12
-1.36345e-12
-1.15732e-12
-9.79676e-13
-8.25468e-13
-6.9414e-13
-5.83527e-13
-4.89641e-13
-4.10466e-13
-3.44728e-13
-2.89479e-13
-2.42769e-13
-2.03845e-13
-1.71235e-13
-1.43793e-13
-1.20799e-13
-1.01284e-13
-8.48847e-14
-7.12016e-14
-5.94546e-14
-4.95388e-14
-4.132e-14
-3.43375e-14
-2.84306e-14
-2.34649e-14
-1.93224e-14
-1.58641e-14
-1.29132e-14
-1.0468e-14
-8.44814e-15
-6.74966e-15
-5.35586e-15
-4.2189e-15
-3.29286e-15
-2.54028e-15
-1.89707e-15
-1.39872e-15
-1.03264e-15
-9.67636e-16
-2.5652e-16
-2.74994e-16
1.0489e-16
-5.89614e-18
-5.73343e-18
-5.58981e-18
-5.42023e-18
-5.27117e-18
-5.0933e-18
-4.93392e-18
-4.75325e-18
-4.59233e-18
-4.4057e-18
-4.2332e-18
-4.03573e-18
-3.85678e-18
-3.65985e-18
-3.4727e-18
-3.2709e-18
-3.07856e-18
-2.87507e-18
-2.68017e-18
-2.47576e-18
-2.27916e-18
-2.07859e-18
-1.88601e-18
-1.69454e-18
-1.51558e-18
-1.34861e-18
-1.19496e-18
-1.05285e-18
-9.15595e-19
-7.84807e-19
-6.61798e-19
-5.42914e-19
-4.30424e-19
-3.22845e-19
-2.23651e-19
-1.30307e-19
-4.59565e-20
3.84184e-20
1.10299e-19
1.78193e-19
2.37197e-19
3.16441e-19
3.80654e-19
4.39884e-19
4.73189e-19
5.19415e-19
5.31545e-19
5.13063e-19
4.87606e-19
5.05683e-19
4.89918e-19
4.70571e-19
4.09798e-19
3.76186e-19
3.07607e-19
2.44182e-19
1.61994e-19
2.65734e-19
2.79861e-19
3.04291e-19
3.9167e-19
4.19169e-19
4.26866e-19
4.36109e-19
4.26275e-19
4.51545e-19
4.57971e-19
4.65862e-19
4.52737e-19
4.56575e-19
4.40142e-19
4.2634e-19
4.0179e-19
4.03347e-19
3.96127e-19
3.90672e-19
3.75986e-19
3.68624e-19
3.53423e-19
3.39078e-19
3.1858e-19
3.08514e-19
2.93661e-19
2.78811e-19
2.57988e-19
2.44929e-19
2.24813e-19
2.08295e-19
1.83116e-19
2.19812e-19
2.43251e-19
2.70452e-19
2.77865e-19
3.06908e-19
3.07041e-19
3.08943e-19
2.7714e-19
3.09018e-19
2.9492e-19
2.80595e-19
2.05031e-19
1.80959e-19
8.16229e-20
-1.52292e-20
-1.88835e-19
-2.39988e-19
-3.86832e-19
-5.35489e-19
-8.09221e-19
-9.9791e-19
-1.32559e-18
-1.6775e-18
-2.2757e-18
-2.65165e-18
-3.23861e-18
-3.87909e-18
-4.83993e-18
-5.45754e-18
-6.81159e-18
-9.39931e-18
)
;

boundaryField
{
    inandouthalf11
    {
        type            cyclic;
        value           nonuniform List<scalar> 
100
(
6.64853e-13
6.9708e-13
7.36975e-13
7.73419e-13
8.09334e-13
8.46493e-13
8.84718e-13
9.23565e-13
9.62834e-13
1.00252e-12
1.04269e-12
1.08342e-12
1.12473e-12
1.16662e-12
1.20907e-12
1.25209e-12
1.29567e-12
1.33984e-12
1.38458e-12
1.42991e-12
1.47582e-12
1.52231e-12
1.5694e-12
1.61711e-12
1.66548e-12
1.71455e-12
1.7644e-12
1.8151e-12
1.86674e-12
1.91938e-12
1.97306e-12
2.02775e-12
2.08333e-12
2.13957e-12
2.19615e-12
2.25266e-12
2.30869e-12
2.36395e-12
2.41838e-12
2.47221e-12
2.52613e-12
2.58135e-12
2.63973e-12
2.70393e-12
2.77757e-12
2.86513e-12
2.971e-12
3.0964e-12
3.23417e-12
3.36515e-12
3.46552e-12
3.52415e-12
3.54954e-12
3.55779e-12
3.55995e-12
3.56051e-12
3.56072e-12
3.56086e-12
3.561e-12
3.56113e-12
3.56128e-12
3.56142e-12
3.56158e-12
3.56173e-12
3.56189e-12
3.56206e-12
3.56223e-12
3.5624e-12
3.56258e-12
3.56277e-12
3.56297e-12
3.56318e-12
3.56338e-12
3.5636e-12
3.56383e-12
3.56406e-12
3.56429e-12
3.56453e-12
3.56477e-12
3.56502e-12
3.56527e-12
3.56554e-12
3.56581e-12
3.56608e-12
3.56637e-12
3.56666e-12
3.56695e-12
3.56726e-12
3.56757e-12
3.56788e-12
3.56821e-12
3.56854e-12
3.56888e-12
3.56922e-12
3.56958e-12
3.56994e-12
3.57031e-12
3.5707e-12
3.57109e-12
3.57149e-12
)
;
    }
    inandouthalf12
    {
        type            cyclic;
        value           nonuniform List<scalar> 
100
(
-6.64853e-13
-6.9708e-13
-7.36975e-13
-7.73419e-13
-8.09334e-13
-8.46493e-13
-8.84718e-13
-9.23565e-13
-9.62834e-13
-1.00252e-12
-1.04269e-12
-1.08342e-12
-1.12473e-12
-1.16662e-12
-1.20907e-12
-1.25209e-12
-1.29567e-12
-1.33984e-12
-1.38458e-12
-1.42991e-12
-1.47582e-12
-1.52231e-12
-1.5694e-12
-1.61711e-12
-1.66548e-12
-1.71455e-12
-1.7644e-12
-1.8151e-12
-1.86674e-12
-1.91938e-12
-1.97306e-12
-2.02775e-12
-2.08333e-12
-2.13957e-12
-2.19615e-12
-2.25266e-12
-2.30869e-12
-2.36395e-12
-2.41838e-12
-2.47221e-12
-2.52613e-12
-2.58135e-12
-2.63973e-12
-2.70393e-12
-2.77757e-12
-2.86513e-12
-2.971e-12
-3.0964e-12
-3.23417e-12
-3.36515e-12
-3.46552e-12
-3.52415e-12
-3.54954e-12
-3.55779e-12
-3.55995e-12
-3.56051e-12
-3.56072e-12
-3.56086e-12
-3.561e-12
-3.56113e-12
-3.56128e-12
-3.56142e-12
-3.56158e-12
-3.56173e-12
-3.56189e-12
-3.56206e-12
-3.56223e-12
-3.5624e-12
-3.56258e-12
-3.56277e-12
-3.56297e-12
-3.56318e-12
-3.56338e-12
-3.5636e-12
-3.56383e-12
-3.56406e-12
-3.56429e-12
-3.56453e-12
-3.56477e-12
-3.56502e-12
-3.56527e-12
-3.56554e-12
-3.56581e-12
-3.56608e-12
-3.56637e-12
-3.56666e-12
-3.56695e-12
-3.56726e-12
-3.56757e-12
-3.56788e-12
-3.56821e-12
-3.56854e-12
-3.56888e-12
-3.56922e-12
-3.56958e-12
-3.56994e-12
-3.57031e-12
-3.5707e-12
-3.57109e-12
-3.57149e-12
)
;
    }
    inandouthalf21
    {
        type            cyclic;
        value           nonuniform List<scalar> 
100
(
3.57189e-12
3.57231e-12
3.57274e-12
3.57318e-12
3.57363e-12
3.5741e-12
3.57457e-12
3.57506e-12
3.57556e-12
3.57607e-12
3.5766e-12
3.57714e-12
3.5777e-12
3.57828e-12
3.57887e-12
3.57948e-12
3.5801e-12
3.58075e-12
3.58142e-12
3.58211e-12
3.58282e-12
3.58355e-12
3.58431e-12
3.58509e-12
3.5859e-12
3.58674e-12
3.58761e-12
3.58852e-12
3.58946e-12
3.59044e-12
3.59146e-12
3.59252e-12
3.59363e-12
3.5948e-12
3.59604e-12
3.59736e-12
3.59875e-12
3.60022e-12
3.60185e-12
3.60373e-12
3.60576e-12
3.6077e-12
3.61003e-12
3.61304e-12
3.61679e-12
3.62415e-12
4.34618e-12
5.32787e-10
7.96937e-08
1.78381e-07
2.52735e-07
3.12209e-07
3.6134e-07
4.02793e-07
4.38361e-07
4.69327e-07
4.96636e-07
5.20997e-07
5.42952e-07
5.62918e-07
5.81221e-07
5.98117e-07
6.13811e-07
6.28468e-07
6.42222e-07
6.55184e-07
6.67446e-07
6.79083e-07
6.9016e-07
7.00732e-07
7.10846e-07
7.20542e-07
7.29853e-07
7.38812e-07
7.47442e-07
7.55768e-07
7.63808e-07
7.71582e-07
7.79103e-07
7.86386e-07
7.93442e-07
8.00282e-07
8.06915e-07
8.13349e-07
8.1959e-07
8.25645e-07
8.31519e-07
8.37215e-07
8.42737e-07
8.48088e-07
8.53269e-07
8.58283e-07
8.63129e-07
8.67809e-07
8.72321e-07
8.76665e-07
8.8084e-07
8.84844e-07
8.88676e-07
8.92334e-07
)
;
    }
    inandouthalf22
    {
        type            cyclic;
        value           nonuniform List<scalar> 
100
(
-3.57189e-12
-3.57231e-12
-3.57274e-12
-3.57318e-12
-3.57363e-12
-3.5741e-12
-3.57457e-12
-3.57506e-12
-3.57556e-12
-3.57607e-12
-3.5766e-12
-3.57714e-12
-3.5777e-12
-3.57828e-12
-3.57887e-12
-3.57948e-12
-3.5801e-12
-3.58075e-12
-3.58142e-12
-3.58211e-12
-3.58282e-12
-3.58355e-12
-3.58431e-12
-3.58509e-12
-3.5859e-12
-3.58674e-12
-3.58761e-12
-3.58852e-12
-3.58946e-12
-3.59044e-12
-3.59146e-12
-3.59252e-12
-3.59363e-12
-3.5948e-12
-3.59604e-12
-3.59736e-12
-3.59875e-12
-3.60022e-12
-3.60185e-12
-3.60373e-12
-3.60576e-12
-3.6077e-12
-3.61003e-12
-3.61304e-12
-3.61679e-12
-3.62415e-12
-4.34618e-12
-5.32787e-10
-7.96937e-08
-1.78381e-07
-2.52735e-07
-3.12209e-07
-3.6134e-07
-4.02793e-07
-4.38361e-07
-4.69327e-07
-4.96636e-07
-5.20997e-07
-5.42952e-07
-5.62918e-07
-5.81221e-07
-5.98117e-07
-6.13811e-07
-6.28468e-07
-6.42222e-07
-6.55184e-07
-6.67446e-07
-6.79083e-07
-6.9016e-07
-7.00732e-07
-7.10846e-07
-7.20542e-07
-7.29853e-07
-7.38812e-07
-7.47442e-07
-7.55768e-07
-7.63808e-07
-7.71582e-07
-7.79103e-07
-7.86386e-07
-7.93442e-07
-8.00282e-07
-8.06915e-07
-8.13349e-07
-8.1959e-07
-8.25645e-07
-8.31519e-07
-8.37215e-07
-8.42737e-07
-8.48088e-07
-8.53269e-07
-8.58283e-07
-8.63129e-07
-8.67809e-07
-8.72321e-07
-8.76665e-07
-8.8084e-07
-8.84844e-07
-8.88676e-07
-8.92334e-07
)
;
    }
    inandouthalf31
    {
        type            cyclic;
        value           nonuniform List<scalar> 
110
(
8.95819e-07
9.17405e-07
9.39373e-07
9.6171e-07
9.84407e-07
1.00745e-06
1.03083e-06
1.05453e-06
1.07854e-06
1.10284e-06
1.12742e-06
1.15227e-06
1.17739e-06
1.20277e-06
1.22841e-06
1.25431e-06
1.28049e-06
1.30695e-06
1.33369e-06
1.36074e-06
1.3881e-06
1.41578e-06
1.4438e-06
1.47215e-06
1.50086e-06
1.52993e-06
1.55937e-06
1.58918e-06
1.61938e-06
1.64997e-06
1.68095e-06
1.71235e-06
1.74417e-06
1.77641e-06
1.80909e-06
1.84222e-06
1.87581e-06
1.90988e-06
1.94443e-06
1.9795e-06
2.0151e-06
2.05126e-06
2.088e-06
2.12536e-06
2.16338e-06
2.20212e-06
2.24165e-06
2.28206e-06
2.32348e-06
2.36612e-06
2.4103e-06
2.45734e-06
2.50699e-06
2.55787e-06
2.60979e-06
2.66276e-06
2.7168e-06
2.77195e-06
2.82821e-06
2.88561e-06
2.94418e-06
3.00394e-06
3.06491e-06
3.12712e-06
3.1906e-06
3.25536e-06
3.32143e-06
3.38885e-06
3.45763e-06
3.52781e-06
3.59942e-06
3.67248e-06
3.74702e-06
3.82307e-06
3.90067e-06
3.97984e-06
4.06062e-06
4.14304e-06
4.22714e-06
4.31294e-06
4.40048e-06
4.48979e-06
4.58093e-06
4.67391e-06
4.76877e-06
4.86557e-06
4.96432e-06
5.06509e-06
5.1679e-06
5.27279e-06
5.37981e-06
5.48901e-06
5.60042e-06
5.7141e-06
5.83008e-06
5.94841e-06
6.06915e-06
6.19234e-06
6.31802e-06
6.44626e-06
6.5771e-06
6.7106e-06
6.84681e-06
6.98578e-06
7.12757e-06
7.27225e-06
7.41985e-06
7.57046e-06
7.72412e-06
7.88089e-06
)
;
    }
    inandouthalf32
    {
        type            cyclic;
        value           nonuniform List<scalar> 
110
(
-8.95819e-07
-9.17405e-07
-9.39373e-07
-9.6171e-07
-9.84407e-07
-1.00745e-06
-1.03083e-06
-1.05453e-06
-1.07854e-06
-1.10284e-06
-1.12742e-06
-1.15227e-06
-1.17739e-06
-1.20277e-06
-1.22841e-06
-1.25431e-06
-1.28049e-06
-1.30695e-06
-1.33369e-06
-1.36074e-06
-1.3881e-06
-1.41578e-06
-1.4438e-06
-1.47215e-06
-1.50086e-06
-1.52993e-06
-1.55937e-06
-1.58918e-06
-1.61938e-06
-1.64997e-06
-1.68095e-06
-1.71235e-06
-1.74417e-06
-1.77641e-06
-1.80909e-06
-1.84222e-06
-1.87581e-06
-1.90988e-06
-1.94443e-06
-1.9795e-06
-2.0151e-06
-2.05126e-06
-2.088e-06
-2.12536e-06
-2.16338e-06
-2.20212e-06
-2.24165e-06
-2.28206e-06
-2.32348e-06
-2.36612e-06
-2.4103e-06
-2.45734e-06
-2.50699e-06
-2.55787e-06
-2.60979e-06
-2.66276e-06
-2.7168e-06
-2.77195e-06
-2.82821e-06
-2.88561e-06
-2.94418e-06
-3.00394e-06
-3.06491e-06
-3.12712e-06
-3.1906e-06
-3.25536e-06
-3.32143e-06
-3.38885e-06
-3.45763e-06
-3.52781e-06
-3.59942e-06
-3.67248e-06
-3.74702e-06
-3.82307e-06
-3.90067e-06
-3.97984e-06
-4.06062e-06
-4.14304e-06
-4.22714e-06
-4.31294e-06
-4.40048e-06
-4.48979e-06
-4.58093e-06
-4.67391e-06
-4.76877e-06
-4.86557e-06
-4.96432e-06
-5.06509e-06
-5.1679e-06
-5.27279e-06
-5.37981e-06
-5.48901e-06
-5.60042e-06
-5.7141e-06
-5.83008e-06
-5.94841e-06
-6.06915e-06
-6.19234e-06
-6.31802e-06
-6.44626e-06
-6.5771e-06
-6.7106e-06
-6.84681e-06
-6.98578e-06
-7.12757e-06
-7.27225e-06
-7.41985e-06
-7.57046e-06
-7.72412e-06
-7.88089e-06
)
;
    }
    inandouthalf41
    {
        type            cyclic;
        value           nonuniform List<scalar> 
50
(
7.0542e-06
7.0542e-06
7.0542e-06
7.0542e-06
7.0542e-06
7.0542e-06
7.0542e-06
7.0542e-06
7.0542e-06
7.0542e-06
7.0542e-06
7.0542e-06
7.0542e-06
7.0542e-06
7.0542e-06
7.0542e-06
7.0542e-06
7.0542e-06
7.0542e-06
7.0542e-06
7.0542e-06
7.0542e-06
7.0542e-06
7.0542e-06
7.0542e-06
7.0542e-06
7.0542e-06
7.0542e-06
7.0542e-06
7.0542e-06
7.0542e-06
7.0542e-06
7.0542e-06
7.0542e-06
7.0542e-06
7.0542e-06
7.0542e-06
7.0542e-06
7.0542e-06
7.0542e-06
7.0542e-06
7.0542e-06
7.0542e-06
7.0542e-06
7.0542e-06
7.0542e-06
7.0542e-06
7.0542e-06
7.0542e-06
7.0542e-06
)
;
    }
    inandouthalf42
    {
        type            cyclic;
        value           nonuniform List<scalar> 
50
(
-7.0542e-06
-7.0542e-06
-7.0542e-06
-7.0542e-06
-7.0542e-06
-7.0542e-06
-7.0542e-06
-7.0542e-06
-7.0542e-06
-7.0542e-06
-7.0542e-06
-7.0542e-06
-7.0542e-06
-7.0542e-06
-7.0542e-06
-7.0542e-06
-7.0542e-06
-7.0542e-06
-7.0542e-06
-7.0542e-06
-7.0542e-06
-7.0542e-06
-7.0542e-06
-7.0542e-06
-7.0542e-06
-7.0542e-06
-7.0542e-06
-7.0542e-06
-7.0542e-06
-7.0542e-06
-7.0542e-06
-7.0542e-06
-7.0542e-06
-7.0542e-06
-7.0542e-06
-7.0542e-06
-7.0542e-06
-7.0542e-06
-7.0542e-06
-7.0542e-06
-7.0542e-06
-7.0542e-06
-7.0542e-06
-7.0542e-06
-7.0542e-06
-7.0542e-06
-7.0542e-06
-7.0542e-06
-7.0542e-06
-7.0542e-06
)
;
    }
    top
    {
        type            symmetryPlane;
        value           uniform 0;
    }
    walls
    {
        type            fixedValue;
        value           uniform 0;
    }
    frontAndBackPlanes
    {
        type            empty;
        value           nonuniform 0();
    }
}


// ************************************************************************* //
