/*--------------------------------*- C++ -*----------------------------------*\
| =========                 |                                                 |
| \\      /  F ield         | OpenFOAM: The Open Source CFD Toolbox           |
|  \\    /   O peration     | Version:  2.4.x                                 |
|   \\  /    A nd           | Web:      www.OpenFOAM.org                      |
|    \\/     M anipulation  |                                                 |
\*---------------------------------------------------------------------------*/
FoamFile
{
    version     2.0;
    format      ascii;
    class       surfaceScalarField;
    location    "5.45";
    object      phib;
}
// * * * * * * * * * * * * * * * * * * * * * * * * * * * * * * * * * * * * * //

dimensions      [0 3 -1 0 0 0 0];

internalField   nonuniform List<scalar> 
359
(
7.36532e-13
1.96538e-12
3.09489e-12
4.14471e-12
5.20552e-12
6.29469e-12
7.39994e-12
8.51156e-12
9.62604e-12
1.07449e-11
1.18707e-11
1.30042e-11
1.41457e-11
1.52945e-11
1.645e-11
1.76123e-11
1.87813e-11
1.99572e-11
2.11395e-11
2.23284e-11
2.35232e-11
2.47241e-11
2.59315e-11
2.71457e-11
2.83676e-11
2.95984e-11
3.08396e-11
3.20933e-11
3.33609e-11
3.46434e-11
3.59403e-11
3.72502e-11
3.85677e-11
3.98873e-11
4.1199e-11
4.24937e-11
4.37625e-11
4.50013e-11
4.62122e-11
4.74043e-11
4.85993e-11
4.98302e-11
5.11446e-11
5.26108e-11
5.43144e-11
5.6352e-11
5.879e-11
6.15735e-11
6.44307e-11
6.6899e-11
6.85887e-11
6.94701e-11
6.98133e-11
6.99124e-11
6.99319e-11
6.99313e-11
6.99263e-11
6.99199e-11
6.99132e-11
6.9906e-11
6.98985e-11
6.98907e-11
6.98827e-11
6.98745e-11
6.98661e-11
6.98575e-11
6.98485e-11
6.98393e-11
6.98298e-11
6.98199e-11
6.98095e-11
6.97988e-11
6.97879e-11
6.97766e-11
6.9765e-11
6.97531e-11
6.97411e-11
6.97288e-11
6.97162e-11
6.97033e-11
6.96901e-11
6.96765e-11
6.96625e-11
6.96482e-11
6.96335e-11
6.96185e-11
6.96032e-11
6.95876e-11
6.95717e-11
6.95554e-11
6.95388e-11
6.95218e-11
6.95044e-11
6.94866e-11
6.94683e-11
6.94497e-11
6.94306e-11
6.94112e-11
6.93912e-11
6.93708e-11
6.93499e-11
6.93286e-11
6.93067e-11
6.92842e-11
6.92613e-11
6.92377e-11
6.92136e-11
6.91889e-11
6.91635e-11
6.91374e-11
6.91106e-11
6.90832e-11
6.90549e-11
6.90259e-11
6.8996e-11
6.89653e-11
6.89336e-11
6.89011e-11
6.88675e-11
6.88329e-11
6.87972e-11
6.87604e-11
6.87224e-11
6.86832e-11
6.86427e-11
6.86008e-11
6.85574e-11
6.85124e-11
6.84656e-11
6.8417e-11
6.83664e-11
6.83138e-11
6.82586e-11
6.82004e-11
6.81386e-11
6.80737e-11
6.80052e-11
6.7931e-11
6.78474e-11
6.77545e-11
6.76604e-11
6.756e-11
6.74348e-11
6.72771e-11
6.70362e-11
6.63775e-11
6.18931e-11
6.46651e-10
5.28083e-10
4.7057e-10
4.12658e-10
3.52021e-10
2.92789e-10
2.38086e-10
1.89809e-10
1.48673e-10
1.14513e-10
8.66619e-11
6.42445e-11
4.63662e-11
3.22081e-11
2.10634e-11
1.23423e-11
5.56268e-12
3.3481e-13
-3.6551e-12
-6.65747e-12
-8.87333e-12
-1.04633e-11
-1.15562e-11
-1.22552e-11
-1.26432e-11
-1.2787e-11
-1.274e-11
-1.25456e-11
-1.22383e-11
-1.18463e-11
-1.13918e-11
-1.0893e-11
-1.03641e-11
-9.81665e-12
-9.25942e-12
-8.69883e-12
-8.13886e-12
-7.58102e-12
-7.02478e-12
-6.46867e-12
-5.91194e-12
-5.35646e-12
-4.80789e-12
-4.27514e-12
-3.76863e-12
-3.29853e-12
-2.8729e-12
-2.49481e-12
-2.16097e-12
-1.86446e-12
-1.59951e-12
-1.36392e-12
-1.15774e-12
-9.80039e-13
-8.2578e-13
-6.94403e-13
-5.83746e-13
-4.89824e-13
-4.10618e-13
-3.44853e-13
-2.89582e-13
-2.42855e-13
-2.03915e-13
-1.71292e-13
-1.4384e-13
-1.20838e-13
-1.01316e-13
-8.4911e-14
-7.12233e-14
-5.94727e-14
-4.95535e-14
-4.13321e-14
-3.43475e-14
-2.84387e-14
-2.34715e-14
-1.93278e-14
-1.58685e-14
-1.29168e-14
-1.04708e-14
-8.45044e-15
-6.75149e-15
-5.35729e-15
-4.22001e-15
-3.29371e-15
-2.54094e-15
-1.89757e-15
-1.39906e-15
-1.03283e-15
-9.67845e-16
-2.56406e-16
-2.75213e-16
1.04738e-16
-5.81049e-18
-5.65462e-18
-5.51797e-18
-5.35566e-18
-5.21328e-18
-5.04252e-18
-4.89089e-18
-4.7159e-18
-4.56111e-18
-4.3811e-18
-4.21557e-18
-4.0246e-18
-3.85204e-18
-3.66097e-18
-3.4808e-18
-3.28463e-18
-3.09845e-18
-2.90091e-18
-2.7123e-18
-2.51306e-18
-2.3229e-18
-2.12732e-18
-1.94124e-18
-1.75583e-18
-1.58481e-18
-1.42575e-18
-1.28145e-18
-1.14786e-18
-1.01867e-18
-8.97412e-19
-7.82801e-19
-6.72674e-19
-5.68057e-19
-4.68442e-19
-3.76247e-19
-2.89349e-19
-2.10143e-19
-1.31027e-19
-6.13909e-20
4.70583e-21
6.23876e-20
1.37876e-19
1.98818e-19
2.565e-19
2.90862e-19
3.37299e-19
3.55003e-19
3.42876e-19
3.27468e-19
3.50038e-19
3.42775e-19
3.33676e-19
2.88774e-19
2.66783e-19
2.14535e-19
1.64572e-19
9.88928e-20
1.97712e-19
2.08141e-19
2.27144e-19
3.12477e-19
3.34073e-19
3.37749e-19
3.43121e-19
3.31537e-19
3.49391e-19
3.50761e-19
3.53228e-19
3.36603e-19
3.35337e-19
3.16679e-19
2.9965e-19
2.74227e-19
2.66954e-19
2.54506e-19
2.4266e-19
2.24722e-19
2.10785e-19
1.93126e-19
1.75674e-19
1.56958e-19
1.33444e-19
1.12042e-19
8.94836e-20
7.21401e-20
4.18479e-20
2.01245e-20
-1.1243e-20
-3.07537e-20
-2.05546e-19
-3.54501e-19
-5.12428e-19
-6.27555e-19
-7.91031e-19
-8.89845e-19
-9.92338e-19
-1.01894e-18
-1.19135e-18
-1.26118e-18
-1.33225e-18
-1.27277e-18
-1.32414e-18
-1.22117e-18
-1.12657e-18
-8.82792e-19
-9.38766e-19
-8.15235e-19
-6.96048e-19
-3.46187e-19
-1.63228e-19
2.65901e-19
7.19151e-19
1.50603e-18
1.96561e-18
2.70694e-18
3.50239e-18
4.66855e-18
5.50777e-18
7.06287e-18
9.84326e-18
)
;

boundaryField
{
    inandouthalf11
    {
        type            cyclic;
        value           nonuniform List<scalar> 
100
(
6.65784e-13
6.98005e-13
7.37897e-13
7.74338e-13
8.10251e-13
8.47408e-13
8.85631e-13
9.24475e-13
9.63742e-13
1.00342e-12
1.04359e-12
1.08432e-12
1.12563e-12
1.16752e-12
1.20997e-12
1.25298e-12
1.29656e-12
1.34072e-12
1.38546e-12
1.43079e-12
1.47669e-12
1.52318e-12
1.57027e-12
1.61798e-12
1.66634e-12
1.71541e-12
1.76525e-12
1.81595e-12
1.86758e-12
1.92022e-12
1.9739e-12
2.02859e-12
2.08416e-12
2.1404e-12
2.19697e-12
2.25348e-12
2.30951e-12
2.36477e-12
2.4192e-12
2.47302e-12
2.52694e-12
2.58215e-12
2.64051e-12
2.70469e-12
2.7783e-12
2.86581e-12
2.97162e-12
3.09697e-12
3.23472e-12
3.36575e-12
3.46623e-12
3.52497e-12
3.55044e-12
3.55872e-12
3.56089e-12
3.56145e-12
3.56166e-12
3.5618e-12
3.56194e-12
3.56207e-12
3.56222e-12
3.56236e-12
3.56252e-12
3.56267e-12
3.56283e-12
3.563e-12
3.56317e-12
3.56334e-12
3.56353e-12
3.56371e-12
3.56391e-12
3.56412e-12
3.56433e-12
3.56455e-12
3.56477e-12
3.565e-12
3.56523e-12
3.56547e-12
3.56572e-12
3.56596e-12
3.56622e-12
3.56648e-12
3.56675e-12
3.56703e-12
3.56731e-12
3.5676e-12
3.5679e-12
3.56821e-12
3.56852e-12
3.56883e-12
3.56916e-12
3.56949e-12
3.56983e-12
3.57018e-12
3.57053e-12
3.57089e-12
3.57127e-12
3.57165e-12
3.57204e-12
3.57244e-12
)
;
    }
    inandouthalf12
    {
        type            cyclic;
        value           nonuniform List<scalar> 
100
(
-6.65784e-13
-6.98005e-13
-7.37897e-13
-7.74338e-13
-8.10251e-13
-8.47408e-13
-8.85631e-13
-9.24475e-13
-9.63742e-13
-1.00342e-12
-1.04359e-12
-1.08432e-12
-1.12563e-12
-1.16752e-12
-1.20997e-12
-1.25298e-12
-1.29656e-12
-1.34072e-12
-1.38546e-12
-1.43079e-12
-1.47669e-12
-1.52318e-12
-1.57027e-12
-1.61798e-12
-1.66634e-12
-1.71541e-12
-1.76525e-12
-1.81595e-12
-1.86758e-12
-1.92022e-12
-1.9739e-12
-2.02859e-12
-2.08416e-12
-2.1404e-12
-2.19697e-12
-2.25348e-12
-2.30951e-12
-2.36477e-12
-2.4192e-12
-2.47302e-12
-2.52694e-12
-2.58215e-12
-2.64051e-12
-2.70469e-12
-2.7783e-12
-2.86581e-12
-2.97162e-12
-3.09697e-12
-3.23472e-12
-3.36575e-12
-3.46623e-12
-3.52497e-12
-3.55044e-12
-3.55872e-12
-3.56089e-12
-3.56145e-12
-3.56166e-12
-3.5618e-12
-3.56194e-12
-3.56207e-12
-3.56222e-12
-3.56236e-12
-3.56252e-12
-3.56267e-12
-3.56283e-12
-3.563e-12
-3.56317e-12
-3.56334e-12
-3.56353e-12
-3.56371e-12
-3.56391e-12
-3.56412e-12
-3.56433e-12
-3.56455e-12
-3.56477e-12
-3.565e-12
-3.56523e-12
-3.56547e-12
-3.56572e-12
-3.56596e-12
-3.56622e-12
-3.56648e-12
-3.56675e-12
-3.56703e-12
-3.56731e-12
-3.5676e-12
-3.5679e-12
-3.56821e-12
-3.56852e-12
-3.56883e-12
-3.56916e-12
-3.56949e-12
-3.56983e-12
-3.57018e-12
-3.57053e-12
-3.57089e-12
-3.57127e-12
-3.57165e-12
-3.57204e-12
-3.57244e-12
)
;
    }
    inandouthalf21
    {
        type            cyclic;
        value           nonuniform List<scalar> 
100
(
3.57285e-12
3.57327e-12
3.5737e-12
3.57414e-12
3.57459e-12
3.57505e-12
3.57553e-12
3.57602e-12
3.57652e-12
3.57703e-12
3.57756e-12
3.57811e-12
3.57866e-12
3.57924e-12
3.57983e-12
3.58044e-12
3.58107e-12
3.58172e-12
3.58238e-12
3.58307e-12
3.58379e-12
3.58452e-12
3.58528e-12
3.58607e-12
3.58688e-12
3.58772e-12
3.58859e-12
3.5895e-12
3.59044e-12
3.59142e-12
3.59244e-12
3.5935e-12
3.59461e-12
3.59579e-12
3.59703e-12
3.59835e-12
3.59974e-12
3.60121e-12
3.60285e-12
3.60473e-12
3.60677e-12
3.60871e-12
3.61103e-12
3.61406e-12
3.6178e-12
3.62518e-12
4.34691e-12
5.32593e-10
7.96876e-08
1.78376e-07
2.5273e-07
3.12203e-07
3.61333e-07
4.02785e-07
4.38352e-07
4.69317e-07
4.96625e-07
5.20985e-07
5.42939e-07
5.62904e-07
5.81206e-07
5.98101e-07
6.13795e-07
6.28451e-07
6.42205e-07
6.55167e-07
6.67428e-07
6.79064e-07
6.90141e-07
7.00713e-07
7.10826e-07
7.20521e-07
7.29833e-07
7.3879e-07
7.47421e-07
7.55746e-07
7.63786e-07
7.7156e-07
7.79081e-07
7.86364e-07
7.9342e-07
8.0026e-07
8.06892e-07
8.13326e-07
8.19567e-07
8.25622e-07
8.31495e-07
8.37191e-07
8.42714e-07
8.48064e-07
8.53246e-07
8.5826e-07
8.63106e-07
8.67786e-07
8.72298e-07
8.76642e-07
8.80817e-07
8.84822e-07
8.88655e-07
8.92313e-07
)
;
    }
    inandouthalf22
    {
        type            cyclic;
        value           nonuniform List<scalar> 
100
(
-3.57285e-12
-3.57327e-12
-3.5737e-12
-3.57414e-12
-3.57459e-12
-3.57505e-12
-3.57553e-12
-3.57602e-12
-3.57652e-12
-3.57703e-12
-3.57756e-12
-3.57811e-12
-3.57866e-12
-3.57924e-12
-3.57983e-12
-3.58044e-12
-3.58107e-12
-3.58172e-12
-3.58238e-12
-3.58307e-12
-3.58379e-12
-3.58452e-12
-3.58528e-12
-3.58607e-12
-3.58688e-12
-3.58772e-12
-3.58859e-12
-3.5895e-12
-3.59044e-12
-3.59142e-12
-3.59244e-12
-3.5935e-12
-3.59461e-12
-3.59579e-12
-3.59703e-12
-3.59835e-12
-3.59974e-12
-3.60121e-12
-3.60285e-12
-3.60473e-12
-3.60677e-12
-3.60871e-12
-3.61103e-12
-3.61406e-12
-3.6178e-12
-3.62518e-12
-4.34691e-12
-5.32593e-10
-7.96876e-08
-1.78376e-07
-2.5273e-07
-3.12203e-07
-3.61333e-07
-4.02785e-07
-4.38352e-07
-4.69317e-07
-4.96625e-07
-5.20985e-07
-5.42939e-07
-5.62904e-07
-5.81206e-07
-5.98101e-07
-6.13795e-07
-6.28451e-07
-6.42205e-07
-6.55167e-07
-6.67428e-07
-6.79064e-07
-6.90141e-07
-7.00713e-07
-7.10826e-07
-7.20521e-07
-7.29833e-07
-7.3879e-07
-7.47421e-07
-7.55746e-07
-7.63786e-07
-7.7156e-07
-7.79081e-07
-7.86364e-07
-7.9342e-07
-8.0026e-07
-8.06892e-07
-8.13326e-07
-8.19567e-07
-8.25622e-07
-8.31495e-07
-8.37191e-07
-8.42714e-07
-8.48064e-07
-8.53246e-07
-8.5826e-07
-8.63106e-07
-8.67786e-07
-8.72298e-07
-8.76642e-07
-8.80817e-07
-8.84822e-07
-8.88655e-07
-8.92313e-07
)
;
    }
    inandouthalf31
    {
        type            cyclic;
        value           nonuniform List<scalar> 
110
(
8.95798e-07
9.17385e-07
9.39352e-07
9.6169e-07
9.84387e-07
1.00743e-06
1.03081e-06
1.05451e-06
1.07852e-06
1.10282e-06
1.1274e-06
1.15225e-06
1.17737e-06
1.20275e-06
1.22839e-06
1.2543e-06
1.28048e-06
1.30694e-06
1.33369e-06
1.36073e-06
1.38809e-06
1.41577e-06
1.44379e-06
1.47215e-06
1.50086e-06
1.52993e-06
1.55936e-06
1.58918e-06
1.61937e-06
1.64996e-06
1.68095e-06
1.71235e-06
1.74417e-06
1.77641e-06
1.80909e-06
1.84222e-06
1.87581e-06
1.90988e-06
1.94444e-06
1.97951e-06
2.01511e-06
2.05126e-06
2.088e-06
2.12536e-06
2.16339e-06
2.20213e-06
2.24166e-06
2.28206e-06
2.32349e-06
2.36612e-06
2.4103e-06
2.45734e-06
2.50699e-06
2.55787e-06
2.60979e-06
2.66276e-06
2.7168e-06
2.77195e-06
2.82821e-06
2.88562e-06
2.94419e-06
3.00394e-06
3.06492e-06
3.12713e-06
3.1906e-06
3.25536e-06
3.32143e-06
3.38885e-06
3.45763e-06
3.52781e-06
3.59942e-06
3.67248e-06
3.74702e-06
3.82307e-06
3.90067e-06
3.97985e-06
4.06063e-06
4.14305e-06
4.22714e-06
4.31294e-06
4.40048e-06
4.4898e-06
4.58093e-06
4.67391e-06
4.76878e-06
4.86557e-06
4.96433e-06
5.06509e-06
5.1679e-06
5.27279e-06
5.37982e-06
5.48901e-06
5.60043e-06
5.7141e-06
5.83008e-06
5.94842e-06
6.06915e-06
6.19234e-06
6.31803e-06
6.44627e-06
6.57711e-06
6.71061e-06
6.84681e-06
6.98579e-06
7.12758e-06
7.27225e-06
7.41986e-06
7.57046e-06
7.72412e-06
7.8809e-06
)
;
    }
    inandouthalf32
    {
        type            cyclic;
        value           nonuniform List<scalar> 
110
(
-8.95798e-07
-9.17385e-07
-9.39352e-07
-9.6169e-07
-9.84387e-07
-1.00743e-06
-1.03081e-06
-1.05451e-06
-1.07852e-06
-1.10282e-06
-1.1274e-06
-1.15225e-06
-1.17737e-06
-1.20275e-06
-1.22839e-06
-1.2543e-06
-1.28048e-06
-1.30694e-06
-1.33369e-06
-1.36073e-06
-1.38809e-06
-1.41577e-06
-1.44379e-06
-1.47215e-06
-1.50086e-06
-1.52993e-06
-1.55936e-06
-1.58918e-06
-1.61937e-06
-1.64996e-06
-1.68095e-06
-1.71235e-06
-1.74417e-06
-1.77641e-06
-1.80909e-06
-1.84222e-06
-1.87581e-06
-1.90988e-06
-1.94444e-06
-1.97951e-06
-2.01511e-06
-2.05126e-06
-2.088e-06
-2.12536e-06
-2.16339e-06
-2.20213e-06
-2.24166e-06
-2.28206e-06
-2.32349e-06
-2.36612e-06
-2.4103e-06
-2.45734e-06
-2.50699e-06
-2.55787e-06
-2.60979e-06
-2.66276e-06
-2.7168e-06
-2.77195e-06
-2.82821e-06
-2.88562e-06
-2.94419e-06
-3.00394e-06
-3.06492e-06
-3.12713e-06
-3.1906e-06
-3.25536e-06
-3.32143e-06
-3.38885e-06
-3.45763e-06
-3.52781e-06
-3.59942e-06
-3.67248e-06
-3.74702e-06
-3.82307e-06
-3.90067e-06
-3.97985e-06
-4.06063e-06
-4.14305e-06
-4.22714e-06
-4.31294e-06
-4.40048e-06
-4.4898e-06
-4.58093e-06
-4.67391e-06
-4.76878e-06
-4.86557e-06
-4.96433e-06
-5.06509e-06
-5.1679e-06
-5.27279e-06
-5.37982e-06
-5.48901e-06
-5.60043e-06
-5.7141e-06
-5.83008e-06
-5.94842e-06
-6.06915e-06
-6.19234e-06
-6.31803e-06
-6.44627e-06
-6.57711e-06
-6.71061e-06
-6.84681e-06
-6.98579e-06
-7.12758e-06
-7.27225e-06
-7.41986e-06
-7.57046e-06
-7.72412e-06
-7.8809e-06
)
;
    }
    inandouthalf41
    {
        type            cyclic;
        value           nonuniform List<scalar> 
50
(
7.05421e-06
7.05421e-06
7.05421e-06
7.05421e-06
7.05421e-06
7.05421e-06
7.05421e-06
7.05421e-06
7.05421e-06
7.05421e-06
7.05421e-06
7.05421e-06
7.05421e-06
7.05421e-06
7.05421e-06
7.05421e-06
7.05421e-06
7.05421e-06
7.05421e-06
7.05421e-06
7.05421e-06
7.05421e-06
7.05421e-06
7.05421e-06
7.05421e-06
7.05421e-06
7.05421e-06
7.05421e-06
7.05421e-06
7.05421e-06
7.05421e-06
7.05421e-06
7.05421e-06
7.05421e-06
7.05421e-06
7.05421e-06
7.05421e-06
7.05421e-06
7.05421e-06
7.05421e-06
7.05421e-06
7.05421e-06
7.05421e-06
7.05421e-06
7.05421e-06
7.05421e-06
7.05421e-06
7.05421e-06
7.05421e-06
7.05421e-06
)
;
    }
    inandouthalf42
    {
        type            cyclic;
        value           nonuniform List<scalar> 
50
(
-7.05421e-06
-7.05421e-06
-7.05421e-06
-7.05421e-06
-7.05421e-06
-7.05421e-06
-7.05421e-06
-7.05421e-06
-7.05421e-06
-7.05421e-06
-7.05421e-06
-7.05421e-06
-7.05421e-06
-7.05421e-06
-7.05421e-06
-7.05421e-06
-7.05421e-06
-7.05421e-06
-7.05421e-06
-7.05421e-06
-7.05421e-06
-7.05421e-06
-7.05421e-06
-7.05421e-06
-7.05421e-06
-7.05421e-06
-7.05421e-06
-7.05421e-06
-7.05421e-06
-7.05421e-06
-7.05421e-06
-7.05421e-06
-7.05421e-06
-7.05421e-06
-7.05421e-06
-7.05421e-06
-7.05421e-06
-7.05421e-06
-7.05421e-06
-7.05421e-06
-7.05421e-06
-7.05421e-06
-7.05421e-06
-7.05421e-06
-7.05421e-06
-7.05421e-06
-7.05421e-06
-7.05421e-06
-7.05421e-06
-7.05421e-06
)
;
    }
    top
    {
        type            symmetryPlane;
        value           uniform 0;
    }
    walls
    {
        type            fixedValue;
        value           uniform 0;
    }
    frontAndBackPlanes
    {
        type            empty;
        value           nonuniform 0();
    }
}


// ************************************************************************* //
