/*--------------------------------*- C++ -*----------------------------------*\
| =========                 |                                                 |
| \\      /  F ield         | OpenFOAM: The Open Source CFD Toolbox           |
|  \\    /   O peration     | Version:  2.4.x                                 |
|   \\  /    A nd           | Web:      www.OpenFOAM.org                      |
|    \\/     M anipulation  |                                                 |
\*---------------------------------------------------------------------------*/
FoamFile
{
    version     2.0;
    format      ascii;
    class       volTensorField;
    location    "5.45";
    object      Tauf;
}
// * * * * * * * * * * * * * * * * * * * * * * * * * * * * * * * * * * * * * //

dimensions      [0 2 -2 0 0 0 0];

internalField   nonuniform List<tensor> 
360
(
(0 -1.36379e-09 0 -1.36379e-09 8.46771e-10 0 0 0 0)
(0 -7.21127e-11 0 -7.21127e-11 1.08687e-09 0 0 0 0)
(0 -7.63332e-11 0 -7.63332e-11 1.14114e-09 0 0 0 0)
(0 -7.23547e-11 0 -7.23547e-11 1.07276e-09 0 0 0 0)
(1.00974e-25 -7.30699e-11 0 -7.30699e-11 1.0651e-09 0 0 0 0)
(2.01948e-25 -7.53793e-11 0 -7.53793e-11 1.08598e-09 0 0 0 0)
(2.01948e-25 -7.70669e-11 0 -7.70669e-11 1.10281e-09 0 0 0 0)
(0 -7.81114e-11 0 -7.81114e-11 1.11075e-09 0 0 0 0)
(2.01948e-25 -7.89491e-11 0 -7.89491e-11 1.11486e-09 0 0 0 0)
(0 -7.98526e-11 0 -7.98526e-11 1.11951e-09 0 0 0 0)
(2.01948e-25 -8.08959e-11 0 -8.08959e-11 1.12598e-09 0 0 0 0)
(0 -8.20348e-11 0 -8.20348e-11 1.13358e-09 0 0 0 0)
(2.01948e-25 -8.31959e-11 0 -8.31959e-11 1.14134e-09 0 0 0 0)
(0 -8.43365e-11 0 -8.43365e-11 1.14864e-09 0 0 0 0)
(0 -8.54617e-11 0 -8.54617e-11 1.15551e-09 0 0 0 0)
(0 -8.65938e-11 0 -8.65938e-11 1.16227e-09 0 0 0 0)
(0 -8.77422e-11 0 -8.77422e-11 1.16905e-09 0 0 0 0)
(4.03897e-25 -8.89016e-11 0 -8.89016e-11 1.17574e-09 0 0 0 0)
(0 -9.00688e-11 0 -9.00688e-11 1.18234e-09 0 0 0 0)
(0 -9.12333e-11 0 -9.12333e-11 1.18873e-09 0 0 0 0)
(0 -9.23956e-11 0 -9.23956e-11 1.19485e-09 0 0 0 0)
(4.03897e-25 -9.35765e-11 0 -9.35765e-11 1.20102e-09 0 0 0 0)
(0 -9.47949e-11 0 -9.47949e-11 1.20746e-09 0 0 0 0)
(0 -9.60724e-11 0 -9.60724e-11 1.21441e-09 0 0 0 0)
(0 -9.74338e-11 0 -9.74338e-11 1.22222e-09 0 0 0 0)
(4.03897e-25 -9.89079e-11 0 -9.89079e-11 1.23117e-09 0 0 0 0)
(0 -1.00533e-10 0 -1.00533e-10 1.2417e-09 0 0 0 0)
(0 -1.02331e-10 0 -1.02331e-10 1.25404e-09 0 0 0 0)
(0 -1.04278e-10 0 -1.04278e-10 1.26786e-09 0 0 0 0)
(0 -1.06318e-10 0 -1.06318e-10 1.28236e-09 0 0 0 0)
(0 -1.08362e-10 0 -1.08362e-10 1.29657e-09 0 0 0 0)
(0 -1.10255e-10 0 -1.10255e-10 1.30852e-09 0 0 0 0)
(0 -1.11809e-10 0 -1.11809e-10 1.31613e-09 0 0 0 0)
(0 -1.12816e-10 0 -1.12816e-10 1.31713e-09 0 0 0 0)
(0 -1.13082e-10 0 -1.13082e-10 1.30943e-09 0 0 0 0)
(-4.03897e-25 -1.12535e-10 0 -1.12535e-10 1.29249e-09 0 0 0 0)
(0 -1.11292e-10 0 -1.11292e-10 1.26776e-09 0 0 0 0)
(0 -1.0969e-10 0 -1.0969e-10 1.23939e-09 0 0 0 0)
(0 -1.08252e-10 0 -1.08252e-10 1.21313e-09 0 0 0 0)
(0 -1.0774e-10 0 -1.0774e-10 1.19746e-09 0 0 0 0)
(0 -1.09132e-10 0 -1.09132e-10 1.20326e-09 0 0 0 0)
(0 -1.13579e-10 0 -1.13579e-10 1.24263e-09 0 0 0 0)
(-8.07794e-25 -1.2254e-10 0 -1.2254e-10 1.33128e-09 0 0 0 0)
(0 -1.37784e-10 0 -1.37784e-10 1.48733e-09 0 0 0 0)
(0 -1.61123e-10 0 -1.61123e-10 1.72738e-09 0 0 0 0)
(0 -1.9332e-10 0 -1.9332e-10 2.05406e-09 0 0 0 0)
(0 -2.31157e-10 0 -2.31157e-10 2.42442e-09 0 0 0 0)
(0 -2.63099e-10 0 -2.63099e-10 2.71617e-09 0 0 0 0)
(0 -2.68781e-10 0 -2.68781e-10 2.74292e-09 0 0 0 0)
(0 -2.31515e-10 0 -2.31515e-10 2.37214e-09 0 0 0 0)
(-8.07794e-25 -1.59219e-10 0 -1.59219e-10 1.68252e-09 0 0 0 0)
(0 -8.42034e-11 0 -8.42034e-11 9.48205e-10 0 0 0 0)
(0 -3.37474e-11 0 -3.37474e-11 4.15844e-10 0 0 0 0)
(0 -1.04506e-11 0 -1.04506e-11 1.3964e-10 0 0 0 0)
(0 -2.72777e-12 0 -2.72777e-12 3.41812e-11 0 0 0 0)
(0 -7.68444e-13 0 -7.68444e-13 3.26221e-12 0 0 0 0)
(0 -3.53961e-13 0 -3.53961e-13 -4.32362e-12 0 0 0 0)
(0 -2.81099e-13 0 -2.81099e-13 -6.02825e-12 0 0 0 0)
(0 -2.70031e-13 0 -2.70031e-13 -6.84562e-12 0 0 0 0)
(0 -2.80927e-13 0 -2.80927e-13 -7.12223e-12 0 0 0 0)
(0 -2.91827e-13 0 -2.91827e-13 -7.46418e-12 0 0 0 0)
(0 -3.00144e-13 0 -3.00144e-13 -7.79197e-12 0 0 0 0)
(0 -3.09985e-13 0 -3.09985e-13 -7.95575e-12 0 0 0 0)
(0 -3.16256e-13 0 -3.16256e-13 -8.21809e-12 0 0 0 0)
(0 -3.24169e-13 0 -3.24169e-13 -8.41992e-12 0 0 0 0)
(0 -3.33936e-13 0 -3.33936e-13 -8.67956e-12 0 0 0 0)
(0 -3.46457e-13 0 -3.46457e-13 -8.9245e-12 0 0 0 0)
(0 -3.58359e-13 0 -3.58359e-13 -9.21916e-12 0 0 0 0)
(0 -3.69752e-13 0 -3.69752e-13 -9.60874e-12 0 0 0 0)
(0 -3.86362e-13 0 -3.86362e-13 -9.96379e-12 0 0 0 0)
(0 -4.05191e-13 0 -4.05191e-13 -1.02243e-11 0 0 0 0)
(0 -4.15379e-13 0 -4.15379e-13 -1.06894e-11 0 0 0 0)
(0 -4.28045e-13 0 -4.28045e-13 -1.09882e-11 0 0 0 0)
(0 -4.4237e-13 0 -4.4237e-13 -1.12562e-11 0 0 0 0)
(0 -4.53638e-13 0 -4.53638e-13 -1.15623e-11 0 0 0 0)
(0 -4.63069e-13 0 -4.63069e-13 -1.1801e-11 0 0 0 0)
(0 -4.70795e-13 0 -4.70795e-13 -1.20948e-11 0 0 0 0)
(0 -4.82003e-13 0 -4.82003e-13 -1.23225e-11 0 0 0 0)
(0 -4.93799e-13 0 -4.93799e-13 -1.26007e-11 0 0 0 0)
(0 -5.05099e-13 0 -5.05099e-13 -1.29259e-11 0 0 0 0)
(0 -5.17924e-13 0 -5.17924e-13 -1.32596e-11 0 0 0 0)
(0 -5.32748e-13 0 -5.32748e-13 -1.35845e-11 0 0 0 0)
(0 -5.46979e-13 0 -5.46979e-13 -1.39534e-11 0 0 0 0)
(0 -5.61163e-13 0 -5.61163e-13 -1.4304e-11 0 0 0 0)
(0 -5.75035e-13 0 -5.75035e-13 -1.46499e-11 0 0 0 0)
(0 -5.88577e-13 0 -5.88577e-13 -1.4982e-11 0 0 0 0)
(0 -6.01562e-13 0 -6.01562e-13 -1.5303e-11 0 0 0 0)
(0 -6.13997e-13 0 -6.13997e-13 -1.56338e-11 0 0 0 0)
(0 -6.27181e-13 0 -6.27181e-13 -1.59542e-11 0 0 0 0)
(0 -6.40923e-13 0 -6.40923e-13 -1.62893e-11 0 0 0 0)
(0 -6.55093e-13 0 -6.55093e-13 -1.66484e-11 0 0 0 0)
(0 -6.70281e-13 0 -6.70281e-13 -1.70185e-11 0 0 0 0)
(0 -6.86335e-13 0 -6.86335e-13 -1.74035e-11 0 0 0 0)
(0 -7.02768e-13 0 -7.02768e-13 -1.78075e-11 0 0 0 0)
(0 -7.19627e-13 0 -7.19627e-13 -1.82191e-11 0 0 0 0)
(0 -7.36842e-13 0 -7.36842e-13 -1.86386e-11 0 0 0 0)
(0 -7.54334e-13 0 -7.54334e-13 -1.9067e-11 0 0 0 0)
(0 -7.72174e-13 0 -7.72174e-13 -1.95049e-11 0 0 0 0)
(0 -7.90525e-13 0 -7.90525e-13 -1.99532e-11 0 0 0 0)
(0 -8.09463e-13 0 -8.09463e-13 -2.0415e-11 0 0 0 0)
(0 -8.29049e-13 0 -8.29049e-13 -2.08931e-11 0 0 0 0)
(0 -8.49393e-13 0 -8.49393e-13 -2.13875e-11 0 0 0 0)
(0 -8.70517e-13 0 -8.70517e-13 -2.19e-11 0 0 0 0)
(0 -8.92414e-13 0 -8.92414e-13 -2.24319e-11 0 0 0 0)
(0 -9.15134e-13 0 -9.15134e-13 -2.29833e-11 0 0 0 0)
(0 -9.38733e-13 0 -9.38733e-13 -2.35555e-11 0 0 0 0)
(0 -9.63265e-13 0 -9.63265e-13 -2.415e-11 0 0 0 0)
(0 -9.88807e-13 0 -9.88807e-13 -2.47683e-11 0 0 0 0)
(0 -1.01544e-12 0 -1.01544e-12 -2.5412e-11 0 0 0 0)
(0 -1.04322e-12 0 -1.04322e-12 -2.60828e-11 0 0 0 0)
(0 -1.07222e-12 0 -1.07222e-12 -2.6782e-11 0 0 0 0)
(0 -1.10251e-12 0 -1.10251e-12 -2.75113e-11 0 0 0 0)
(0 -1.13415e-12 0 -1.13415e-12 -2.82721e-11 0 0 0 0)
(0 -1.16723e-12 0 -1.16723e-12 -2.9066e-11 0 0 0 0)
(0 -1.20183e-12 0 -1.20183e-12 -2.98947e-11 0 0 0 0)
(0 -1.23801e-12 0 -1.23801e-12 -3.076e-11 0 0 0 0)
(0 -1.27589e-12 0 -1.27589e-12 -3.1664e-11 0 0 0 0)
(0 -1.31557e-12 0 -1.31557e-12 -3.26087e-11 0 0 0 0)
(0 -1.35717e-12 0 -1.35717e-12 -3.35965e-11 0 0 0 0)
(0 -1.4008e-12 0 -1.4008e-12 -3.46298e-11 0 0 0 0)
(0 -1.44658e-12 0 -1.44658e-12 -3.57106e-11 0 0 0 0)
(0 -1.49461e-12 0 -1.49461e-12 -3.68413e-11 0 0 0 0)
(0 -1.54498e-12 0 -1.54498e-12 -3.80252e-11 0 0 0 0)
(0 -1.59787e-12 0 -1.59787e-12 -3.92686e-11 0 0 0 0)
(0 -1.65365e-12 0 -1.65365e-12 -4.05828e-11 0 0 0 0)
(0 -1.71303e-12 0 -1.71303e-12 -4.19845e-11 0 0 0 0)
(0 -1.77704e-12 0 -1.77704e-12 -4.34911e-11 0 0 0 0)
(0 -1.8466e-12 0 -1.8466e-12 -4.51114e-11 0 0 0 0)
(0 -1.92181e-12 0 -1.92181e-12 -4.68388e-11 0 0 0 0)
(0 -2.00148e-12 0 -2.00148e-12 -4.86708e-11 0 0 0 0)
(0 -2.0846e-12 0 -2.0846e-12 -5.0664e-11 0 0 0 0)
(0 -2.1749e-12 0 -2.1749e-12 -5.29546e-11 0 0 0 0)
(0 -2.28347e-12 0 -2.28347e-12 -5.5615e-11 0 0 0 0)
(0 -2.41821e-12 0 -2.41821e-12 -5.85099e-11 0 0 0 0)
(0 -2.56606e-12 0 -2.56606e-12 -6.15636e-11 0 0 0 0)
(0 -2.70642e-12 0 -2.70642e-12 -6.51581e-11 0 0 0 0)
(0 -2.86028e-12 0 -2.86028e-12 -7.01224e-11 0 0 0 0)
(0 -3.10922e-12 0 -3.10922e-12 -7.69339e-11 0 0 0 0)
(0 -3.51438e-12 0 -3.51438e-12 -8.34825e-11 0 0 0 0)
(0 -3.91697e-12 0 -3.91697e-12 -8.68232e-11 0 0 0 0)
(0 -3.98267e-12 0 -3.98267e-12 -9.79064e-11 0 0 0 0)
(0 -4.26842e-12 0 -4.26842e-12 -1.14204e-10 0 0 0 0)
(0 -5.3464e-12 0 -5.3464e-12 -1.30668e-10 0 0 0 0)
(0 -6.77119e-12 0 -6.77119e-12 -1.96448e-10 0 0 0 0)
(0 -1.11217e-11 0 -1.11217e-11 4.31256e-10 0 0 0 0)
(0 -7.29789e-10 0 -7.29789e-10 -1.27616e-08 0 0 0 0)
(0 -5.41992e-07 0 -5.41992e-07 4.23526e-08 0 0 0 0)
(0 -0.000129229 0 -0.000129229 6.81007e-07 0 0 0 0)
(0 -0.00127288 0 -0.00127288 8.89581e-07 0 0 0 0)
(0 -0.00273492 0 -0.00273492 -3.26097e-06 0 0 0 0)
(0 -0.00308463 0 -0.00308463 -1.37658e-07 0 0 0 0)
(0 -0.00322005 0 -0.00322005 -2.14813e-06 0 0 0 0)
(0 -0.00326122 0 -0.00326122 -2.19866e-06 0 0 0 0)
(0 -0.00325683 0 -0.00325683 -2.34174e-06 0 0 0 0)
(0 -0.00323172 0 -0.00323172 -2.36497e-06 0 0 0 0)
(0 -0.00319774 0 -0.00319774 -2.27373e-06 0 0 0 0)
(0 -0.00316027 0 -0.00316027 -2.10096e-06 0 0 0 0)
(0 -0.00312152 0 -0.00312152 -1.88463e-06 0 0 0 0)
(0 -0.00308223 0 -0.00308223 -1.65299e-06 0 0 0 0)
(0 -0.00304251 0 -0.00304251 -1.42433e-06 0 0 0 0)
(0 -0.00300225 0 -0.00300225 -1.20939e-06 0 0 0 0)
(0 -0.00296128 0 -0.00296128 -1.01373e-06 0 0 0 0)
(0 -0.00291945 0 -0.00291945 -8.39494e-07 0 0 0 0)
(0 -0.00287665 0 -0.00287665 -6.86784e-07 0 0 0 0)
(0 -0.00283281 0 -0.00283281 -5.54532e-07 0 0 0 0)
(0 -0.00278788 0 -0.00278788 -4.41081e-07 0 0 0 0)
(0 -0.00274186 0 -0.00274186 -3.44514e-07 0 0 0 0)
(0 -0.00269475 0 -0.00269475 -2.62893e-07 0 0 0 0)
(0 -0.00264655 0 -0.00264655 -1.94364e-07 0 0 0 0)
(0 -0.00259731 0 -0.00259731 -1.37205e-07 0 0 0 0)
(0 -0.00254704 0 -0.00254704 -8.98558e-08 0 0 0 0)
(0 -0.0024958 0 -0.0024958 -5.09299e-08 0 0 0 0)
(0 -0.00244361 0 -0.00244361 -1.92019e-08 0 0 0 0)
(0 -0.00239052 0 -0.00239052 6.40137e-09 0 0 0 0)
(0 -0.00233657 0 -0.00233657 2.6815e-08 0 0 0 0)
(0 -0.00228181 0 -0.00228181 4.28502e-08 0 0 0 0)
(0 -0.00222628 0 -0.00222628 5.52077e-08 0 0 0 0)
(0 -0.00217002 0 -0.00217002 6.44905e-08 0 0 0 0)
(0 -0.00211309 0 -0.00211309 7.12143e-08 0 0 0 0)
(0 -0.00205551 0 -0.00205551 7.58203e-08 0 0 0 0)
(0 -0.00199735 0 -0.00199735 7.86921e-08 0 0 0 0)
(0 -0.00193865 0 -0.00193865 8.01805e-08 0 0 0 0)
(0 -0.00187946 0 -0.00187946 8.06325e-08 0 0 0 0)
(0 -0.00181983 0 -0.00181983 8.0408e-08 0 0 0 0)
(0 -0.00175981 0 -0.00175981 7.98633e-08 0 0 0 0)
(0 -0.00169945 0 -0.00169945 7.92895e-08 0 0 0 0)
(0 -0.00163882 0 -0.00163882 7.88172e-08 0 0 0 0)
(0 -0.00157796 0 -0.00157796 7.83346e-08 0 0 0 0)
(0 -0.00151695 0 -0.00151695 7.74845e-08 0 0 0 0)
(0 -0.00145584 0 -0.00145584 7.57871e-08 0 0 0 0)
(0 -0.00139471 0 -0.00139471 7.2839e-08 0 0 0 0)
(0 -0.00133362 0 -0.00133362 6.84608e-08 0 0 0 0)
(0 -0.00127268 0 -0.00127268 6.27467e-08 0 0 0 0)
(0 -0.00121196 0 -0.00121196 5.60997e-08 0 0 0 0)
(0 -0.00115158 0 -0.00115158 4.92227e-08 0 0 0 0)
(0 -0.00109164 0 -0.00109164 4.28748e-08 0 0 0 0)
(0 -0.00103224 0 -0.00103224 3.74658e-08 0 0 0 0)
(0 -0.000973517 0 -0.000973517 3.28814e-08 0 0 0 0)
(0 -0.000915576 0 -0.000915576 2.87367e-08 0 0 0 0)
(0 -0.000858541 0 -0.000858541 2.47813e-08 0 0 0 0)
(0 -0.000802538 0 -0.000802538 2.1035e-08 0 0 0 0)
(0 -0.000747151 0 -0.000747151 1.75723e-08 0 0 0 0)
(2.32744e-17 -0.000692001 0 -0.000692001 1.44468e-08 0 0 0 0)
(0 -0.0006373 0 -0.0006373 1.17708e-08 0 0 0 0)
(0 -0.000583273 0 -0.000583273 9.58708e-09 0 0 0 0)
(-2.08983e-17 -0.000530154 0 -0.000530154 7.79025e-09 0 0 0 0)
(0 -0.000478187 0 -0.000478187 6.29736e-09 0 0 0 0)
(1.95522e-17 -0.000427619 0 -0.000427619 5.10692e-09 0 0 0 0)
(0 -0.000378685 0 -0.000378685 4.16565e-09 0 0 0 0)
(-1.84311e-17 -0.000331608 0 -0.000331608 3.39471e-09 0 0 0 0)
(0 -0.000286582 0 -0.000286582 2.76868e-09 0 0 0 0)
(0 -0.000243766 0 -0.000243766 2.27022e-09 0 0 0 0)
(0 -0.000203279 0 -0.000203279 1.8718e-09 0 0 0 0)
(-1.68835e-17 -0.000165191 0 -0.000165191 1.55111e-09 0 0 0 0)
(0 -0.000129531 0 -0.000129531 1.28533e-09 0 0 0 0)
(0 -9.62844e-05 0 -9.62844e-05 1.06689e-09 0 0 0 0)
(0 -6.5404e-05 0 -6.5404e-05 8.93333e-10 0 0 0 0)
(0 -3.68182e-05 0 -3.68182e-05 7.46422e-10 0 0 0 0)
(0 -1.04405e-05 0 -1.04405e-05 6.1834e-10 0 0 0 0)
(1.56227e-17 1.38225e-05 0 1.38225e-05 5.14255e-10 0 0 0 0)
(0 3.60643e-05 0 3.60643e-05 4.29399e-10 0 0 0 0)
(1.51994e-17 5.63736e-05 0 5.63736e-05 3.56117e-10 0 0 0 0)
(0 7.4831e-05 0 7.4831e-05 2.92983e-10 0 0 0 0)
(1.46903e-17 9.15077e-05 0 9.15077e-05 2.41178e-10 0 0 0 0)
(0 0.000106465 0 0.000106465 1.99142e-10 0 0 0 0)
(0 0.000119755 0 0.000119755 1.62845e-10 0 0 0 0)
(0 0.000131423 0 0.000131423 1.31876e-10 0 0 0 0)
(0 0.000141505 0 0.000141505 1.06738e-10 0 0 0 0)
(-1.29983e-17 0.000150032 0 0.000150032 8.56099e-11 0 0 0 0)
(-1.25962e-17 0.000157033 0 0.000157033 6.76933e-11 0 0 0 0)
(0 0.00016253 0 0.00016253 5.32182e-11 0 0 0 0)
(0 0.000166544 0 0.000166544 4.22885e-11 0 0 0 0)
(0 0.000169094 0 0.000169094 3.39808e-11 0 0 0 0)
(0 0.000170198 0 0.000170198 2.59337e-11 0 0 0 0)
(0 0.000169872 0 0.000169872 1.30003e-11 0 0 0 0)
(0 0.000168132 0 0.000168132 1.3734e-11 0 0 0 0)
(0 0.000164996 0 0.000164996 1.91641e-11 0 0 0 0)
(0 0.000160483 0 0.000160483 9.69955e-12 0 0 0 0)
(0 0.000154614 0 0.000154614 6.57244e-12 0 0 0 0)
(0 0.000147415 0 0.000147415 1.31152e-12 0 0 0 0)
(0 0.000138919 0 0.000138919 -2.48404e-12 0 0 0 0)
(0 0.000129167 0 0.000129167 7.18463e-13 0 0 0 0)
(0 0.000118215 0 0.000118215 -1.08667e-12 0 0 0 0)
(1.06287e-17 0.000106137 0 0.000106137 2.68581e-12 0 0 0 0)
(-9.36654e-18 9.30324e-05 0 9.30324e-05 -4.2527e-12 0 0 0 0)
(0 7.90376e-05 0 7.90376e-05 5.55161e-12 0 0 0 0)
(0 6.43429e-05 0 6.43429e-05 -6.31356e-12 0 0 0 0)
(5.41678e-18 4.92162e-05 0 4.92162e-05 6.39033e-12 0 0 0 0)
(0 3.40451e-05 0 3.40451e-05 -5.68364e-12 0 0 0 0)
(0 1.95355e-05 0 1.95355e-05 4.2352e-12 0 0 0 0)
(1.24078e-18 6.1253e-06 0 6.1253e-06 -2.12751e-12 0 0 0 0)
(0 5.31517e-07 0 5.31517e-07 5.28235e-13 0 0 0 0)
(0 3.01883e-08 0 3.01883e-08 -2.77729e-13 0 0 0 0)
(0 1.06651e-09 0 1.06651e-09 2.67533e-13 0 0 0 0)
(0 2.79352e-10 0 2.79352e-10 -2.63318e-13 0 0 0 0)
(0 2.09851e-10 0 2.09851e-10 2.59562e-13 0 0 0 0)
(0 1.63571e-10 0 1.63571e-10 -2.55715e-13 0 0 0 0)
(0 1.27095e-10 0 1.27095e-10 2.52271e-13 0 0 0 0)
(0 9.83528e-11 0 9.83528e-11 -2.48724e-13 0 0 0 0)
(0 7.57869e-11 0 7.57869e-11 2.45548e-13 0 0 0 0)
(0 5.81318e-11 0 5.81318e-11 -2.42248e-13 0 0 0 0)
(0 4.43697e-11 0 4.43697e-11 2.39273e-13 0 0 0 0)
(0 3.36881e-11 0 3.36881e-11 -2.36159e-13 0 0 0 0)
(0 2.54379e-11 0 2.54379e-11 2.33321e-13 0 0 0 0)
(0 1.90998e-11 0 1.90998e-11 -2.30342e-13 0 0 0 0)
(0 1.42577e-11 0 1.42577e-11 2.27581e-13 0 0 0 0)
(-1.12435e-19 1.05802e-11 0 1.05802e-11 -2.24692e-13 0 0 0 0)
(0 7.8041e-12 0 7.8041e-12 2.21969e-13 0 0 0 0)
(0 5.7207e-12 0 5.7207e-12 -2.19125e-13 0 0 0 0)
(0 4.16721e-12 0 4.16721e-12 2.16412e-13 0 0 0 0)
(0 3.01618e-12 0 3.01618e-12 -2.13584e-13 0 0 0 0)
(0 2.16886e-12 0 2.16886e-12 2.1086e-13 0 0 0 0)
(0 1.54902e-12 0 1.54902e-12 -2.08027e-13 0 0 0 0)
(0 1.09884e-12 0 1.09884e-12 2.05275e-13 0 0 0 0)
(0 7.74292e-13 0 7.74292e-13 -2.02423e-13 0 0 0 0)
(0 5.41528e-13 0 5.41528e-13 1.99631e-13 0 0 0 0)
(0 3.75978e-13 0 3.75978e-13 -1.96749e-13 0 0 0 0)
(0 2.59192e-13 0 2.59192e-13 1.93917e-13 0 0 0 0)
(0 1.77322e-13 0 1.77322e-13 -1.91004e-13 0 0 0 0)
(0 1.2036e-13 0 1.2036e-13 1.88126e-13 0 0 0 0)
(0 8.10854e-14 0 8.10854e-14 -1.85177e-13 0 0 0 0)
(0 5.41434e-14 0 5.41434e-14 1.82262e-13 0 0 0 0)
(0 3.59605e-14 0 3.59605e-14 -1.79276e-13 0 0 0 0)
(0 2.36295e-14 0 2.36295e-14 1.76309e-13 0 0 0 0)
(0 1.54006e-14 0 1.54006e-14 -1.7329e-13 0 0 0 0)
(0 1.00182e-14 0 1.00182e-14 1.70277e-13 0 0 0 0)
(-1.50452e-19 6.3578e-15 0 6.3578e-15 -1.67231e-13 0 0 0 0)
(0 4.01737e-15 0 4.01737e-15 1.64162e-13 0 0 0 0)
(0 2.49281e-15 0 2.49281e-15 -1.6108e-13 0 0 0 0)
(0 1.48956e-15 0 1.48956e-15 1.57987e-13 0 0 0 0)
(0 9.63012e-16 0 9.63012e-16 -1.54876e-13 0 0 0 0)
(0 6.64637e-16 0 6.64637e-16 1.51737e-13 0 0 0 0)
(0 3.95657e-16 0 3.95657e-16 -1.48603e-13 0 0 0 0)
(0 1.85086e-16 0 1.85086e-16 1.45432e-13 0 0 0 0)
(0 8.79798e-17 0 8.79798e-17 -1.42275e-13 0 0 0 0)
(0 4.95655e-17 0 4.95655e-17 1.39072e-13 0 0 0 0)
(-1.23064e-19 6.55315e-18 0 6.55315e-18 -1.35875e-13 0 0 0 0)
(0 2.76813e-17 0 2.76813e-17 1.32691e-13 0 0 0 0)
(0 2.35841e-17 0 2.35841e-17 -1.29473e-13 0 0 0 0)
(1.15864e-19 5.32977e-18 0 5.32977e-18 1.26264e-13 0 0 0 0)
(0 5.23793e-17 0 5.23793e-17 -1.23017e-13 0 0 0 0)
(0 2.50426e-17 0 2.50426e-17 1.19774e-13 0 0 0 0)
(0 -4.49708e-17 0 -4.49708e-17 -1.16517e-13 0 0 0 0)
(0 -1.08787e-17 0 -1.08787e-17 1.13248e-13 0 0 0 0)
(0 -1.52992e-17 0 -1.52992e-17 -1.0997e-13 0 0 0 0)
(0 -3.36358e-18 0 -3.36358e-18 1.06685e-13 0 0 0 0)
(0 3.63639e-17 0 3.63639e-17 -1.03385e-13 0 0 0 0)
(0 5.96393e-17 0 5.96393e-17 1.00072e-13 0 0 0 0)
(0 -1.80097e-17 0 -1.80097e-17 -9.67497e-14 0 0 0 0)
(0 -1.25052e-16 0 -1.25052e-16 9.34603e-14 0 0 0 0)
(0 -6.06687e-17 0 -6.06687e-17 -1.03048e-13 0 0 0 0)
(0 -2.26317e-17 0 -2.26317e-17 1.01873e-13 0 0 0 0)
(0 1.5326e-17 0 1.5326e-17 -1.00749e-13 0 0 0 0)
(0 2.7608e-17 0 2.7608e-17 9.96089e-14 0 0 0 0)
(0 -2.35581e-18 0 -2.35581e-18 -9.84646e-14 0 0 0 0)
(0 1.61995e-17 0 1.61995e-17 9.73033e-14 0 0 0 0)
(0 -7.99387e-18 0 -7.99387e-18 -9.61388e-14 0 0 0 0)
(0 -6.16746e-18 0 -6.16746e-18 9.49552e-14 0 0 0 0)
(0 2.52257e-17 0 2.52257e-17 -9.37676e-14 0 0 0 0)
(0 -3.88047e-17 0 -3.88047e-17 9.2558e-14 0 0 0 0)
(0 -1.81053e-17 0 -1.81053e-17 -9.13457e-14 0 0 0 0)
(0 2.99903e-17 0 2.99903e-17 9.01095e-14 0 0 0 0)
(0 1.87406e-17 0 1.87406e-17 -8.88695e-14 0 0 0 0)
(0 4.76456e-18 0 4.76456e-18 8.76038e-14 0 0 0 0)
(0 -5.37337e-18 0 -5.37337e-18 -8.63343e-14 0 0 0 0)
(0 -2.51463e-18 0 -2.51463e-18 8.50371e-14 0 0 0 0)
(0 -8.86738e-18 0 -8.86738e-18 -8.37365e-14 0 0 0 0)
(0 1.5776e-17 0 1.5776e-17 8.23988e-14 0 0 0 0)
(0 1.16467e-18 0 1.16467e-18 -8.10819e-14 0 0 0 0)
(0 -6.29981e-18 0 -6.29981e-18 7.96907e-14 0 0 0 0)
(0 -5.16161e-18 0 -5.16161e-18 -7.83502e-14 0 0 0 0)
(0 -9.58206e-18 0 -9.58206e-18 7.6915e-14 0 0 0 0)
(0 5.29396e-18 0 5.29396e-18 -7.5527e-14 0 0 0 0)
(0 1.37378e-17 0 1.37378e-17 7.40505e-14 0 0 0 0)
(0 3.70577e-18 0 3.70577e-18 -7.26034e-14 0 0 0 0)
(0 3.33519e-18 0 3.33519e-18 7.10811e-14 0 0 0 0)
(0 -1.78142e-17 0 -1.78142e-17 -6.95766e-14 0 0 0 0)
(0 -1.42937e-17 0 -1.42937e-17 6.79942e-14 0 0 0 0)
(0 -1.76553e-17 0 -1.76553e-17 -6.64178e-14 0 0 0 0)
(0 -7.23948e-17 0 -7.23948e-17 6.47825e-14 0 0 0 0)
(0 -2.37143e-16 0 -2.37143e-16 -6.3113e-14 0 0 0 0)
(0 1.58819e-19 0 1.58819e-19 6.14151e-14 0 0 0 0)
(0 2.30869e-16 0 2.30869e-16 -5.96362e-14 0 0 0 0)
(0 6.34481e-17 0 6.34481e-17 5.78631e-14 0 0 0 0)
(0 1.19114e-17 0 1.19114e-17 -5.59825e-14 0 0 0 0)
(0 8.7615e-18 0 8.7615e-18 5.4089e-14 0 0 0 0)
(0 4.20075e-17 0 4.20075e-17 -5.20758e-14 0 0 0 0)
(0 1.88465e-17 0 1.88465e-17 5.00731e-14 0 0 0 0)
(0 -2.11758e-17 0 -2.11758e-17 -4.78669e-14 0 0 0 0)
(0 -7.42477e-17 0 -7.42477e-17 4.57176e-14 0 0 0 0)
(0 7.99387e-18 0 7.99387e-18 -4.32624e-14 0 0 0 0)
(0 1.15355e-16 0 1.15355e-16 4.09364e-14 0 0 0 0)
(0 5.45013e-17 0 5.45013e-17 -3.81582e-14 0 0 0 0)
(0 -3.92812e-17 0 -3.92812e-17 3.55037e-14 0 0 0 0)
(0 -4.1187e-17 0 -4.1187e-17 -3.22508e-14 0 0 0 0)
(0 -2.34522e-17 0 -2.34522e-17 2.91034e-14 0 0 0 0)
(0 -1.69407e-17 0 -1.69407e-17 -2.49885e-14 0 0 0 0)
(0 1.55378e-17 0 1.55378e-17 2.07118e-14 0 0 0 0)
(0 -3.84871e-17 0 -3.84871e-17 -1.48818e-14 0 0 0 0)
(0 -5.07426e-17 0 -5.07426e-17 4.98607e-15 0 0 0 0)
)
;

boundaryField
{
    inandouthalf11
    {
        type            cyclic;
    }
    inandouthalf12
    {
        type            cyclic;
    }
    inandouthalf21
    {
        type            cyclic;
    }
    inandouthalf22
    {
        type            cyclic;
    }
    inandouthalf31
    {
        type            cyclic;
    }
    inandouthalf32
    {
        type            cyclic;
    }
    inandouthalf41
    {
        type            cyclic;
    }
    inandouthalf42
    {
        type            cyclic;
    }
    top
    {
        type            symmetryPlane;
    }
    walls
    {
        type            zeroGradient;
    }
    frontAndBackPlanes
    {
        type            empty;
    }
}


// ************************************************************************* //
