/*--------------------------------*- C++ -*----------------------------------*\
| =========                 |                                                 |
| \\      /  F ield         | OpenFOAM: The Open Source CFD Toolbox           |
|  \\    /   O peration     | Version:  2.4.x                                 |
|   \\  /    A nd           | Web:      www.OpenFOAM.org                      |
|    \\/     M anipulation  |                                                 |
\*---------------------------------------------------------------------------*/
FoamFile
{
    version     2.0;
    format      ascii;
    class       volTensorField;
    location    "5.45";
    object      Taus;
}
// * * * * * * * * * * * * * * * * * * * * * * * * * * * * * * * * * * * * * //

dimensions      [0 2 -2 0 0 0 0];

internalField   nonuniform List<tensor> 
360
(
(0 -0.0152967 0 -0.0152967 -0.192281 0 0 0 0)
(0 -0.0213098 0 -0.0213098 -0.232964 0 0 0 0)
(0 -0.0258604 0 -0.0258604 -0.240479 0 0 0 0)
(0 -0.0257907 0 -0.0257907 -0.23592 0 0 0 0)
(8.72909e-18 -0.0251235 0 -0.0251235 -0.232709 0 0 0 0)
(8.40743e-18 -0.0250213 0 -0.0250213 -0.231164 0 0 0 0)
(1.64823e-17 -0.0250771 0 -0.0250771 -0.229731 0 0 0 0)
(0 -0.0251084 0 -0.0251084 -0.22816 0 0 0 0)
(3.22449e-17 -0.0251235 0 -0.0251235 -0.226585 0 0 0 0)
(0 -0.0251218 0 -0.0251218 -0.224963 0 0 0 0)
(3.14508e-17 -0.0251066 0 -0.0251066 -0.223305 0 0 0 0)
(0 -0.0250912 0 -0.0250912 -0.221659 0 0 0 0)
(3.05442e-17 -0.025078 0 -0.025078 -0.220013 0 0 0 0)
(0 -0.0250689 0 -0.0250689 -0.218381 0 0 0 0)
(0 -0.0250606 0 -0.0250606 -0.216751 0 0 0 0)
(0 -0.0250495 0 -0.0250495 -0.215114 0 0 0 0)
(0 -0.025036 0 -0.025036 -0.21347 0 0 0 0)
(2.85182e-17 -0.0250225 0 -0.0250225 -0.211828 0 0 0 0)
(0 -0.0250084 0 -0.0250084 -0.210189 0 0 0 0)
(0 -0.0249922 0 -0.0249922 -0.208536 0 0 0 0)
(0 -0.0249796 0 -0.0249796 -0.206904 0 0 0 0)
(5.40587e-17 -0.0249644 0 -0.0249644 -0.205257 0 0 0 0)
(0 -0.0249485 0 -0.0249485 -0.203613 0 0 0 0)
(0 -0.0249326 0 -0.0249326 -0.201969 0 0 0 0)
(0 -0.0249157 0 -0.0249157 -0.200322 0 0 0 0)
(5.10073e-17 -0.0248987 0 -0.0248987 -0.198676 0 0 0 0)
(0 -0.024881 0 -0.024881 -0.197033 0 0 0 0)
(0 -0.0248579 0 -0.0248579 -0.195372 0 0 0 0)
(0 -0.0248326 0 -0.0248326 -0.193712 0 0 0 0)
(0 -0.0248058 0 -0.0248058 -0.19205 0 0 0 0)
(0 -0.0247749 0 -0.0247749 -0.190385 0 0 0 0)
(0 -0.0247393 0 -0.0247393 -0.188699 0 0 0 0)
(0 -0.0247073 0 -0.0247073 -0.187044 0 0 0 0)
(0 -0.0246692 0 -0.0246692 -0.185351 0 0 0 0)
(0 -0.0246406 0 -0.0246406 -0.1837 0 0 0 0)
(-8.86368e-17 -0.0246192 0 -0.0246192 -0.182046 0 0 0 0)
(0 -0.024611 0 -0.024611 -0.180426 0 0 0 0)
(0 -0.0246123 0 -0.0246123 -0.178816 0 0 0 0)
(0 -0.0246258 0 -0.0246258 -0.177213 0 0 0 0)
(0 -0.0246586 0 -0.0246586 -0.175664 0 0 0 0)
(0 -0.0246864 0 -0.0246864 -0.174073 0 0 0 0)
(0 -0.0247117 0 -0.0247117 -0.172486 0 0 0 0)
(-8.1763e-17 -0.0247198 0 -0.0247198 -0.170881 0 0 0 0)
(0 -0.0246757 0 -0.0246757 -0.169173 0 0 0 0)
(0 -0.0245666 0 -0.0245666 -0.167391 0 0 0 0)
(0 -0.0243605 0 -0.0243605 -0.165466 0 0 0 0)
(0 -0.0240455 0 -0.0240455 -0.163372 0 0 0 0)
(0 -0.0236462 0 -0.0236462 -0.161159 0 0 0 0)
(0 -0.0232112 0 -0.0232112 -0.158862 0 0 0 0)
(0 -0.0228456 0 -0.0228456 -0.156687 0 0 0 0)
(-5.75307e-17 -0.0226607 0 -0.0226607 -0.154924 0 0 0 0)
(0 -0.0226847 0 -0.0226847 -0.153572 0 0 0 0)
(0 -0.0228973 0 -0.0228973 -0.152554 0 0 0 0)
(0 -0.0232318 0 -0.0232318 -0.151643 0 0 0 0)
(0 -0.023631 0 -0.023631 -0.150738 0 0 0 0)
(0 -0.0240388 0 -0.0240388 -0.149705 0 0 0 0)
(0 -0.0244489 0 -0.0244489 -0.148598 0 0 0 0)
(0 -0.0248371 0 -0.0248371 -0.147356 0 0 0 0)
(0 -0.0251836 0 -0.0251836 -0.146055 0 0 0 0)
(0 -0.0254424 0 -0.0254424 -0.144748 0 0 0 0)
(0 -0.0255273 0 -0.0255273 -0.143444 0 0 0 0)
(0 -0.0254308 0 -0.0254308 -0.142257 0 0 0 0)
(0 -0.0251968 0 -0.0251968 -0.14112 0 0 0 0)
(0 -0.0249295 0 -0.0249295 -0.140036 0 0 0 0)
(0 -0.0247004 0 -0.0247004 -0.138943 0 0 0 0)
(0 -0.0245375 0 -0.0245375 -0.137829 0 0 0 0)
(0 -0.0244321 0 -0.0244321 -0.136668 0 0 0 0)
(0 -0.0243705 0 -0.0243705 -0.135464 0 0 0 0)
(0 -0.0243394 0 -0.0243394 -0.13422 0 0 0 0)
(0 -0.0243233 0 -0.0243233 -0.132944 0 0 0 0)
(0 -0.0243011 0 -0.0243011 -0.131606 0 0 0 0)
(0 -0.0242754 0 -0.0242754 -0.13023 0 0 0 0)
(0 -0.0242516 0 -0.0242516 -0.128847 0 0 0 0)
(0 -0.0242142 0 -0.0242142 -0.127416 0 0 0 0)
(0 -0.0241686 0 -0.0241686 -0.125974 0 0 0 0)
(0 -0.0241134 0 -0.0241134 -0.124504 0 0 0 0)
(0 -0.0240553 0 -0.0240553 -0.123035 0 0 0 0)
(0 -0.0239889 0 -0.0239889 -0.121551 0 0 0 0)
(0 -0.0239107 0 -0.0239107 -0.120054 0 0 0 0)
(0 -0.0238207 0 -0.0238207 -0.118542 0 0 0 0)
(0 -0.0237199 0 -0.0237199 -0.117023 0 0 0 0)
(0 -0.0236044 0 -0.0236044 -0.115485 0 0 0 0)
(0 -0.0234751 0 -0.0234751 -0.113933 0 0 0 0)
(0 -0.0233345 0 -0.0233345 -0.112368 0 0 0 0)
(0 -0.0231842 0 -0.0231842 -0.110789 0 0 0 0)
(0 -0.0230268 0 -0.0230268 -0.109201 0 0 0 0)
(0 -0.0228639 0 -0.0228639 -0.107601 0 0 0 0)
(0 -0.0226982 0 -0.0226982 -0.105995 0 0 0 0)
(0 -0.0225302 0 -0.0225302 -0.104381 0 0 0 0)
(0 -0.0223592 0 -0.0223592 -0.102759 0 0 0 0)
(0 -0.0221853 0 -0.0221853 -0.101129 0 0 0 0)
(0 -0.0220079 0 -0.0220079 -0.0994913 0 0 0 0)
(0 -0.021826 0 -0.021826 -0.0978442 0 0 0 0)
(0 -0.0216394 0 -0.0216394 -0.0961883 0 0 0 0)
(0 -0.0214484 0 -0.0214484 -0.0945241 0 0 0 0)
(0 -0.0212531 0 -0.0212531 -0.0928518 0 0 0 0)
(0 -0.0210542 0 -0.0210542 -0.0911722 0 0 0 0)
(0 -0.0208519 0 -0.0208519 -0.0894859 0 0 0 0)
(0 -0.0206466 0 -0.0206466 -0.0877933 0 0 0 0)
(0 -0.0204384 0 -0.0204384 -0.0860946 0 0 0 0)
(0 -0.0202273 0 -0.0202273 -0.0843902 0 0 0 0)
(0 -0.0200134 0 -0.0200134 -0.0826803 0 0 0 0)
(0 -0.0197966 0 -0.0197966 -0.080965 0 0 0 0)
(0 -0.0195768 0 -0.0195768 -0.0792445 0 0 0 0)
(0 -0.0193542 0 -0.0193542 -0.0775192 0 0 0 0)
(0 -0.0191288 0 -0.0191288 -0.0757892 0 0 0 0)
(0 -0.0189008 0 -0.0189008 -0.0740547 0 0 0 0)
(0 -0.0186701 0 -0.0186701 -0.072316 0 0 0 0)
(0 -0.018437 0 -0.018437 -0.0705733 0 0 0 0)
(0 -0.0182014 0 -0.0182014 -0.0688267 0 0 0 0)
(0 -0.0179635 0 -0.0179635 -0.0670764 0 0 0 0)
(0 -0.0177235 0 -0.0177235 -0.0653225 0 0 0 0)
(0 -0.0174815 0 -0.0174815 -0.0635652 0 0 0 0)
(0 -0.0172379 0 -0.0172379 -0.0618046 0 0 0 0)
(0 -0.0169928 0 -0.0169928 -0.0600409 0 0 0 0)
(0 -0.0167467 0 -0.0167467 -0.0582741 0 0 0 0)
(0 -0.0164999 0 -0.0164999 -0.0565044 0 0 0 0)
(0 -0.0162527 0 -0.0162527 -0.0547319 0 0 0 0)
(0 -0.0160057 0 -0.0160057 -0.0529567 0 0 0 0)
(0 -0.0157592 0 -0.0157592 -0.0511787 0 0 0 0)
(0 -0.0155137 0 -0.0155137 -0.0493979 0 0 0 0)
(0 -0.0152697 0 -0.0152697 -0.0476145 0 0 0 0)
(0 -0.0150277 0 -0.0150277 -0.0458284 0 0 0 0)
(0 -0.0147881 0 -0.0147881 -0.0440396 0 0 0 0)
(0 -0.0145514 0 -0.0145514 -0.0422479 0 0 0 0)
(0 -0.0143178 0 -0.0143178 -0.040453 0 0 0 0)
(0 -0.0140867 0 -0.0140867 -0.0386542 0 0 0 0)
(0 -0.0138571 0 -0.0138571 -0.0368508 0 0 0 0)
(0 -0.013628 0 -0.013628 -0.0350415 0 0 0 0)
(0 -0.0133994 0 -0.0133994 -0.0332251 0 0 0 0)
(0 -0.0131731 0 -0.0131731 -0.0314 0 0 0 0)
(0 -0.0129511 0 -0.0129511 -0.0295645 0 0 0 0)
(0 -0.0127302 0 -0.0127302 -0.0277157 0 0 0 0)
(0 -0.0124995 0 -0.0124995 -0.0258495 0 0 0 0)
(0 -0.0122507 0 -0.0122507 -0.0239624 0 0 0 0)
(0 -0.011992 0 -0.011992 -0.0220531 0 0 0 0)
(0 -0.0117352 0 -0.0117352 -0.0201208 0 0 0 0)
(0 -0.0114575 0 -0.0114575 -0.0181744 0 0 0 0)
(0 -0.0110894 0 -0.0110894 -0.0162463 0 0 0 0)
(0 -0.0105912 0 -0.0105912 -0.0143507 0 0 0 0)
(0 -0.0100794 0 -0.0100794 -0.0124303 0 0 0 0)
(0 -0.00970159 0 -0.00970159 -0.0104781 0 0 0 0)
(0 -0.00922318 0 -0.00922318 -0.00834924 0 0 0 0)
(0 -0.00856286 0 -0.00856286 -0.00589372 0 0 0 0)
(0 -0.00784231 0 -0.00784231 -0.00205444 0 0 0 0)
(0 -0.00600804 0 -0.00600804 0.00163538 0 0 0 0)
(0 -0.0025197 0 -0.0025197 -0.000519982 0 0 0 0)
(0 -0.00146141 0 -0.00146141 -1.47555e-05 0 0 0 0)
(0 -0.00222429 0 -0.00222429 -1.00763e-05 0 0 0 0)
(0 -0.00242928 0 -0.00242928 -3.49427e-06 0 0 0 0)
(0 -0.00206235 0 -0.00206235 -4.699e-06 0 0 0 0)
(0 -0.00185548 0 -0.00185548 -3.16572e-06 0 0 0 0)
(0 -0.00177488 0 -0.00177488 -2.75215e-06 0 0 0 0)
(0 -0.00178814 0 -0.00178814 -2.09971e-06 0 0 0 0)
(0 -0.00187415 0 -0.00187415 -1.06183e-06 0 0 0 0)
(0 -0.0020199 0 -0.0020199 6.06547e-07 0 0 0 0)
(0 -0.00221753 0 -0.00221753 3.16401e-06 0 0 0 0)
(0 -0.00246252 0 -0.00246252 6.90426e-06 0 0 0 0)
(0 -0.00275256 0 -0.00275256 1.21493e-05 0 0 0 0)
(0 -0.00308686 0 -0.00308686 1.92506e-05 0 0 0 0)
(0 -0.00346565 0 -0.00346565 2.85939e-05 0 0 0 0)
(0 -0.00388985 0 -0.00388985 4.0607e-05 0 0 0 0)
(0 -0.00436081 0 -0.00436081 5.5766e-05 0 0 0 0)
(0 -0.00488018 0 -0.00488018 7.46009e-05 0 0 0 0)
(0 -0.00544975 0 -0.00544975 9.77068e-05 0 0 0 0)
(0 -0.00607132 0 -0.00607132 0.000125745 0 0 0 0)
(0 -0.00674661 0 -0.00674661 0.000159445 0 0 0 0)
(0 -0.0074772 0 -0.0074772 0.00019962 0 0 0 0)
(0 -0.0082644 0 -0.0082644 0.000247177 0 0 0 0)
(0 -0.00910922 0 -0.00910922 0.000303113 0 0 0 0)
(0 -0.0100122 0 -0.0100122 0.000368532 0 0 0 0)
(0 -0.0109736 0 -0.0109736 0.000444653 0 0 0 0)
(0 -0.0119928 0 -0.0119928 0.000532821 0 0 0 0)
(0 -0.0130689 0 -0.0130689 0.000634517 0 0 0 0)
(0 -0.0142001 0 -0.0142001 0.000751367 0 0 0 0)
(0 -0.015384 0 -0.015384 0.000885147 0 0 0 0)
(0 -0.0166171 0 -0.0166171 0.00103779 0 0 0 0)
(0 -0.0178955 0 -0.0178955 0.00121139 0 0 0 0)
(0 -0.0192142 0 -0.0192142 0.00140819 0 0 0 0)
(0 -0.0205671 0 -0.0205671 0.00163062 0 0 0 0)
(0 -0.0219476 0 -0.0219476 0.00188119 0 0 0 0)
(0 -0.0233481 0 -0.0233481 0.00216224 0 0 0 0)
(0 -0.024761 0 -0.024761 0.00247525 0 0 0 0)
(0 -0.0261794 0 -0.0261794 0.00281944 0 0 0 0)
(0 -0.0275999 0 -0.0275999 0.0031897 0 0 0 0)
(0 -0.0290248 0 -0.0290248 0.00357433 0 0 0 0)
(0 -0.0304652 0 -0.0304652 0.00395365 0 0 0 0)
(0 -0.0319417 0 -0.0319417 0.00430078 0 0 0 0)
(0 -0.0334817 0 -0.0334817 0.00458566 0 0 0 0)
(0 -0.0351132 0 -0.0351132 0.00478157 0 0 0 0)
(0 -0.0368555 0 -0.0368555 0.00487137 0 0 0 0)
(0 -0.0387142 0 -0.0387142 0.00485188 0 0 0 0)
(0 -0.0406738 0 -0.0406738 0.00473878 0 0 0 0)
(0 -0.0426847 0 -0.0426847 0.00457011 0 0 0 0)
(0 -0.044672 0 -0.044672 0.004393 0 0 0 0)
(0 -0.0465938 0 -0.0465938 0.00422775 0 0 0 0)
(0 -0.0484976 0 -0.0484976 0.00404011 0 0 0 0)
(0 -0.0504986 0 -0.0504986 0.00375715 0 0 0 0)
(0 -0.0526962 0 -0.0526962 0.00331924 0 0 0 0)
(0 -0.0550925 0 -0.0550925 0.00271983 0 0 0 0)
(0 -0.0576168 0 -0.0576168 0.00198915 0 0 0 0)
(0 -0.0602747 0 -0.0602747 0.00115186 0 0 0 0)
(3.8471e-15 -0.0630075 0 -0.0630075 0.000255849 0 0 0 0)
(0 -0.0656126 0 -0.0656126 -0.000622074 0 0 0 0)
(0 -0.0681335 0 -0.0681335 -0.00148904 0 0 0 0)
(-1.02676e-14 -0.0706665 0 -0.0706665 -0.00236888 0 0 0 0)
(0 -0.0729237 0 -0.0729237 -0.00317364 0 0 0 0)
(1.20011e-14 -0.0748691 0 -0.0748691 -0.00388281 0 0 0 0)
(0 -0.0767275 0 -0.0767275 -0.00457368 0 0 0 0)
(-1.36266e-14 -0.0783011 0 -0.0783011 -0.00520249 0 0 0 0)
(0 -0.079493 0 -0.079493 -0.00572745 0 0 0 0)
(0 -0.0804343 0 -0.0804343 -0.00618883 0 0 0 0)
(0 -0.0810021 0 -0.0810021 -0.00656928 0 0 0 0)
(-1.59664e-14 -0.0812912 0 -0.0812912 -0.00691493 0 0 0 0)
(0 -0.0813729 0 -0.0813729 -0.0072486 0 0 0 0)
(0 -0.0809728 0 -0.0809728 -0.0074769 0 0 0 0)
(0 -0.0803695 0 -0.0803695 -0.00771988 0 0 0 0)
(0 -0.0796831 0 -0.0796831 -0.00804757 0 0 0 0)
(0 -0.0785546 0 -0.0785546 -0.00829552 0 0 0 0)
(1.66338e-14 -0.0771375 0 -0.0771375 -0.00851341 0 0 0 0)
(0 -0.0755738 0 -0.0755738 -0.00879773 0 0 0 0)
(1.6169e-14 -0.0737993 0 -0.0737993 -0.00912273 0 0 0 0)
(0 -0.0717714 0 -0.0717714 -0.00943698 0 0 0 0)
(1.54384e-14 -0.0694156 0 -0.0694156 -0.00969959 0 0 0 0)
(0 -0.0669754 0 -0.0669754 -0.0100735 0 0 0 0)
(0 -0.0644157 0 -0.0644157 -0.0105431 0 0 0 0)
(0 -0.0615572 0 -0.0615572 -0.0109775 0 0 0 0)
(0 -0.0585675 0 -0.0585675 -0.0115202 0 0 0 0)
(-1.27563e-14 -0.055416 0 -0.055416 -0.012182 0 0 0 0)
(-1.20889e-14 -0.0519576 0 -0.0519576 -0.0128617 0 0 0 0)
(0 -0.0481474 0 -0.0481474 -0.0135737 0 0 0 0)
(0 -0.0439456 0 -0.0439456 -0.0143053 0 0 0 0)
(0 -0.0396981 0 -0.0396981 -0.0157166 0 0 0 0)
(0 -0.0351137 0 -0.0351137 -0.0175924 0 0 0 0)
(0 -0.029428 0 -0.029428 -0.0193505 0 0 0 0)
(0 -0.0261211 0 -0.0261211 -0.0197305 0 0 0 0)
(0 -0 0 -0 -0 0 0 0 0)
(0 -0 0 -0 0 0 0 0 0)
(0 0 0 0 -0 0 0 0 0)
(0 0 0 0 -0 0 0 0 0)
(0 0 0 0 -0 0 0 0 0)
(0 0 0 0 0 0 0 0 0)
(0 0 0 0 -0 0 0 0 0)
(0 0 0 0 -0 0 0 0 0)
(-0 0 0 0 -0 0 0 0 0)
(0 0 0 0 -0 0 0 0 0)
(0 0 0 0 0 0 0 0 0)
(0 0 0 0 0 0 0 0 0)
(0 0 0 0 0 0 0 0 0)
(0 0 0 0 0 0 0 0 0)
(0 0 0 0 0 0 0 0 0)
(0 0 0 0 0 0 0 0 0)
(0 0 0 0 0 0 0 0 0)
(0 0 0 0 0 0 0 0 0)
(0 0 0 0 0 0 0 0 0)
(0 0 0 0 0 0 0 0 0)
(0 0 0 0 -0 0 0 0 0)
(0 0 0 0 0 0 0 0 0)
(0 0 0 0 -0 0 0 0 0)
(0 0 0 0 0 0 0 0 0)
(0 0 0 0 -0 0 0 0 0)
(0 0 0 0 0 0 0 0 0)
(0 0 0 0 -0 0 0 0 0)
(0 0 0 0 0 0 0 0 0)
(0 0 0 0 -0 0 0 0 0)
(0 0 0 0 0 0 0 0 0)
(-0 0 0 0 -0 0 0 0 0)
(0 0 0 0 0 0 0 0 0)
(0 0 0 0 -0 0 0 0 0)
(0 0 0 0 0 0 0 0 0)
(0 0 0 0 0 0 0 0 0)
(0 0 0 0 -0 0 0 0 0)
(0 0 0 0 -0 0 0 0 0)
(0 0 0 0 0 0 0 0 0)
(0 0 0 0 -0 0 0 0 0)
(0 0 0 0 0 0 0 0 0)
(0 0 0 0 -0 0 0 0 0)
(0 0 0 0 0 0 0 0 0)
(0 0 0 0 -0 0 0 0 0)
(0 0 0 0 0 0 0 0 0)
(0 0 0 0 -0 0 0 0 0)
(0 0 0 0 0 0 0 0 0)
(0 0 0 0 -0 0 0 0 0)
(0 0 0 0 0 0 0 0 0)
(0 0 0 0 -0 0 0 0 0)
(0 0 0 0 0 0 0 0 0)
(-0 0 0 0 -0 0 0 0 0)
(0 0 0 0 0 0 0 0 0)
(0 0 0 0 -0 0 0 0 0)
(0 0 0 0 0 0 0 0 0)
(0 0 0 0 -0 0 0 0 0)
(0 0 0 0 0 0 0 0 0)
(0 0 0 0 -0 0 0 0 0)
(0 0 0 0 0 0 0 0 0)
(0 0 0 0 -0 0 0 0 0)
(0 0 0 0 0 0 0 0 0)
(-0 0 0 0 -0 0 0 0 0)
(0 0 0 0 0 0 0 0 0)
(0 0 0 0 -0 0 0 0 0)
(0 0 0 0 0 0 0 0 0)
(0 0 0 0 -0 0 0 0 0)
(0 0 0 0 0 0 0 0 0)
(0 -0 0 -0 -0 0 0 0 0)
(0 -0 0 -0 0 0 0 0 0)
(0 -0 0 -0 -0 0 0 0 0)
(0 -0 0 -0 0 0 0 0 0)
(0 0 0 0 -0 0 0 0 0)
(0 0 0 0 0 0 0 0 0)
(0 -0 0 -0 -0 0 0 0 0)
(0 -0 0 -0 0 0 0 0 0)
(0 -0 0 -0 -0 0 0 0 0)
(0 -0 0 -0 0 0 0 0 0)
(0 0 0 0 -0 0 0 0 0)
(0 0 0 0 0 0 0 0 0)
(0 0 0 0 -0 0 0 0 0)
(0 0 0 0 0 0 0 0 0)
(0 -0 0 -0 -0 0 0 0 0)
(0 -0 0 -0 0 0 0 0 0)
(0 0 0 0 -0 0 0 0 0)
(0 -0 0 -0 0 0 0 0 0)
(0 -0 0 -0 -0 0 0 0 0)
(0 0 0 0 0 0 0 0 0)
(0 0 0 0 -0 0 0 0 0)
(0 0 0 0 0 0 0 0 0)
(0 -0 0 -0 -0 0 0 0 0)
(0 -0 0 -0 0 0 0 0 0)
(0 -0 0 -0 -0 0 0 0 0)
(0 0 0 0 0 0 0 0 0)
(0 0 0 0 -0 0 0 0 0)
(0 -0 0 -0 0 0 0 0 0)
(0 -0 0 -0 -0 0 0 0 0)
(0 -0 0 -0 0 0 0 0 0)
(0 0 0 0 -0 0 0 0 0)
(0 0 0 0 0 0 0 0 0)
(0 0 0 0 -0 0 0 0 0)
(0 0 0 0 0 0 0 0 0)
(0 -0 0 -0 -0 0 0 0 0)
(0 -0 0 -0 0 0 0 0 0)
(0 -0 0 -0 -0 0 0 0 0)
(0 -0 0 -0 0 0 0 0 0)
(0 -0 0 -0 -0 0 0 0 0)
(0 0 0 0 0 0 0 0 0)
(0 0 0 0 -0 0 0 0 0)
(0 0 0 0 0 0 0 0 0)
(0 0 0 0 -0 0 0 0 0)
(0 0 0 0 0 0 0 0 0)
(0 0 0 0 -0 0 0 0 0)
(0 0 0 0 0 0 0 0 0)
(0 -0 0 -0 -0 0 0 0 0)
(0 -0 0 -0 0 0 0 0 0)
(0 0 0 0 -0 0 0 0 0)
(0 0 0 0 0 0 0 0 0)
(0 0 0 0 -0 0 0 0 0)
(0 -0 0 -0 0 0 0 0 0)
(0 0 0 0 0 0 0 0 0)
(0 0 0 0 0 0 0 0 0)
(0 0 0 0 0 0 0 0 0)
(0 0 0 0 0 0 0 0 0)
(0 0 0 0 0 0 0 0 0)
(0 0 0 0 0 0 0 0 0)
)
;

boundaryField
{
    inandouthalf11
    {
        type            cyclic;
    }
    inandouthalf12
    {
        type            cyclic;
    }
    inandouthalf21
    {
        type            cyclic;
    }
    inandouthalf22
    {
        type            cyclic;
    }
    inandouthalf31
    {
        type            cyclic;
    }
    inandouthalf32
    {
        type            cyclic;
    }
    inandouthalf41
    {
        type            cyclic;
    }
    inandouthalf42
    {
        type            cyclic;
    }
    top
    {
        type            symmetryPlane;
    }
    walls
    {
        type            zeroGradient;
    }
    frontAndBackPlanes
    {
        type            empty;
    }
}


// ************************************************************************* //
