/*--------------------------------*- C++ -*----------------------------------*\
| =========                 |                                                 |
| \\      /  F ield         | OpenFOAM: The Open Source CFD Toolbox           |
|  \\    /   O peration     | Version:  2.4.x                                 |
|   \\  /    A nd           | Web:      www.OpenFOAM.org                      |
|    \\/     M anipulation  |                                                 |
\*---------------------------------------------------------------------------*/
FoamFile
{
    version     2.0;
    format      ascii;
    class       volVectorField;
    location    "5.45";
    object      Ua_0;
}
// * * * * * * * * * * * * * * * * * * * * * * * * * * * * * * * * * * * * * //

dimensions      [0 1 -1 0 0 0 0];

internalField   nonuniform List<vector> 
360
(
(-1.01846e-32 -8.94202e-32 0)
(-3.50068e-08 -2.20017e-07 0)
(-7.56256e-08 -4.13376e-07 0)
(-1.11698e-07 -5.76597e-07 0)
(-1.4733e-07 -7.41333e-07 0)
(-1.84357e-07 -9.131e-07 0)
(-2.22462e-07 -1.08839e-06 0)
(-2.61177e-07 -1.26497e-06 0)
(-3.00311e-07 -1.44209e-06 0)
(-3.39856e-07 -1.61976e-06 0)
(-3.79884e-07 -1.79837e-06 0)
(-4.20467e-07 -1.97825e-06 0)
(-4.61633e-07 -2.15946e-06 0)
(-5.03376e-07 -2.34193e-06 0)
(-5.45682e-07 -2.52554e-06 0)
(-5.88548e-07 -2.71025e-06 0)
(-6.31982e-07 -2.89609e-06 0)
(-6.75993e-07 -3.08305e-06 0)
(-7.20585e-07 -3.27112e-06 0)
(-7.6576e-07 -3.46028e-06 0)
(-8.11514e-07 -3.65048e-06 0)
(-8.57849e-07 -3.84166e-06 0)
(-9.04781e-07 -4.03389e-06 0)
(-9.52332e-07 -4.22721e-06 0)
(-1.00054e-06 -4.42173e-06 0)
(-1.04945e-06 -4.61761e-06 0)
(-1.09913e-06 -4.81506e-06 0)
(-1.14966e-06 -5.01438e-06 0)
(-1.20113e-06 -5.21589e-06 0)
(-1.2536e-06 -5.41979e-06 0)
(-1.30711e-06 -5.62615e-06 0)
(-1.36162e-06 -5.83483e-06 0)
(-1.41702e-06 -6.04531e-06 0)
(-1.47308e-06 -6.25672e-06 0)
(-1.52948e-06 -6.4678e-06 0)
(-1.58581e-06 -6.67694e-06 0)
(-1.64167e-06 -6.88258e-06 0)
(-1.69676e-06 -7.08362e-06 0)
(-1.75101e-06 -7.27979e-06 0)
(-1.80467e-06 -7.47188e-06 0)
(-1.85841e-06 -7.66232e-06 0)
(-1.91345e-06 -7.8554e-06 0)
(-1.97163e-06 -8.05743e-06 0)
(-2.0356e-06 -8.27759e-06 0)
(-2.10899e-06 -8.52827e-06 0)
(-2.19625e-06 -8.82489e-06 0)
(-2.30177e-06 -9.18301e-06 0)
(-2.42683e-06 -9.60821e-06 0)
(-2.56428e-06 -1.00776e-05 0)
(-2.69506e-06 -1.05261e-05 0)
(-2.79535e-06 -1.087e-05 0)
(-2.85393e-06 -1.10692e-05 0)
(-2.87927e-06 -1.1154e-05 0)
(-2.88744e-06 -1.11808e-05 0)
(-2.8895e-06 -1.11874e-05 0)
(-2.88995e-06 -1.11888e-05 0)
(-2.89005e-06 -1.11891e-05 0)
(-2.89007e-06 -1.11892e-05 0)
(-2.89007e-06 -1.11892e-05 0)
(-2.89008e-06 -1.11892e-05 0)
(-2.89008e-06 -1.11892e-05 0)
(-2.89008e-06 -1.11892e-05 0)
(-2.89008e-06 -1.11892e-05 0)
(-2.89008e-06 -1.11892e-05 0)
(-2.89008e-06 -1.11892e-05 0)
(-2.89008e-06 -1.11892e-05 0)
(-2.89008e-06 -1.11892e-05 0)
(-2.89008e-06 -1.11892e-05 0)
(-2.89008e-06 -1.11892e-05 0)
(-2.89009e-06 -1.11892e-05 0)
(-2.89009e-06 -1.11892e-05 0)
(-2.89009e-06 -1.11893e-05 0)
(-2.89009e-06 -1.11893e-05 0)
(-2.89009e-06 -1.11893e-05 0)
(-2.8901e-06 -1.11893e-05 0)
(-2.8901e-06 -1.11893e-05 0)
(-2.8901e-06 -1.11893e-05 0)
(-2.8901e-06 -1.11893e-05 0)
(-2.8901e-06 -1.11893e-05 0)
(-2.89011e-06 -1.11893e-05 0)
(-2.89011e-06 -1.11893e-05 0)
(-2.89011e-06 -1.11893e-05 0)
(-2.89011e-06 -1.11893e-05 0)
(-2.89012e-06 -1.11893e-05 0)
(-2.89012e-06 -1.11893e-05 0)
(-2.89012e-06 -1.11893e-05 0)
(-2.89012e-06 -1.11893e-05 0)
(-2.89012e-06 -1.11893e-05 0)
(-2.89013e-06 -1.11893e-05 0)
(-2.89013e-06 -1.11894e-05 0)
(-2.89013e-06 -1.11894e-05 0)
(-2.89013e-06 -1.11894e-05 0)
(-2.89014e-06 -1.11894e-05 0)
(-2.89014e-06 -1.11894e-05 0)
(-2.89014e-06 -1.11894e-05 0)
(-2.89015e-06 -1.11894e-05 0)
(-2.89015e-06 -1.11894e-05 0)
(-2.89015e-06 -1.11894e-05 0)
(-2.89016e-06 -1.11894e-05 0)
(-2.89016e-06 -1.11894e-05 0)
(-2.89016e-06 -1.11894e-05 0)
(-2.89017e-06 -1.11894e-05 0)
(-2.89017e-06 -1.11894e-05 0)
(-2.89017e-06 -1.11894e-05 0)
(-2.89018e-06 -1.11895e-05 0)
(-2.89018e-06 -1.11895e-05 0)
(-2.89018e-06 -1.11895e-05 0)
(-2.89019e-06 -1.11895e-05 0)
(-2.89019e-06 -1.11895e-05 0)
(-2.89019e-06 -1.11895e-05 0)
(-2.8902e-06 -1.11895e-05 0)
(-2.8902e-06 -1.11895e-05 0)
(-2.89021e-06 -1.11895e-05 0)
(-2.89021e-06 -1.11895e-05 0)
(-2.89021e-06 -1.11895e-05 0)
(-2.89022e-06 -1.11895e-05 0)
(-2.89022e-06 -1.11895e-05 0)
(-2.89023e-06 -1.11895e-05 0)
(-2.89023e-06 -1.11896e-05 0)
(-2.89024e-06 -1.11896e-05 0)
(-2.89024e-06 -1.11896e-05 0)
(-2.89024e-06 -1.11896e-05 0)
(-2.89025e-06 -1.11896e-05 0)
(-2.89025e-06 -1.11896e-05 0)
(-2.89026e-06 -1.11896e-05 0)
(-2.89026e-06 -1.11896e-05 0)
(-2.89027e-06 -1.11896e-05 0)
(-2.89027e-06 -1.11896e-05 0)
(-2.89028e-06 -1.11896e-05 0)
(-2.89029e-06 -1.11896e-05 0)
(-2.89029e-06 -1.11896e-05 0)
(-2.8903e-06 -1.11896e-05 0)
(-2.8903e-06 -1.11897e-05 0)
(-2.89031e-06 -1.11897e-05 0)
(-2.89031e-06 -1.11897e-05 0)
(-2.89032e-06 -1.11897e-05 0)
(-2.89032e-06 -1.11897e-05 0)
(-2.89032e-06 -1.11897e-05 0)
(-2.89033e-06 -1.11897e-05 0)
(-2.89033e-06 -1.11897e-05 0)
(-2.89034e-06 -1.11897e-05 0)
(-2.89034e-06 -1.11897e-05 0)
(-2.89034e-06 -1.11897e-05 0)
(-2.89034e-06 -1.11897e-05 0)
(-2.89034e-06 -1.11897e-05 0)
(-2.89034e-06 -1.11897e-05 0)
(-2.89034e-06 -1.11897e-05 0)
(-3.35887e-06 -1.1238e-05 0)
(-0.0716539 -0.000372895 0)
(-0.169131 -0.000394339 0)
(-0.245191 -0.000497692 0)
(-0.306105 -0.000550361 0)
(-0.356209 -0.000592392 0)
(-0.398295 -0.000621816 0)
(-0.434253 -0.000638188 0)
(-0.465426 -0.000640801 0)
(-0.492803 -0.00062936 0)
(-0.517128 -0.000603876 0)
(-0.538964 -0.000564607 0)
(-0.558745 -0.000511988 0)
(-0.576806 -0.000446568 0)
(-0.593409 -0.000368945 0)
(-0.608761 -0.000279728 0)
(-0.623028 -0.000179513 0)
(-0.636343 -6.88685e-05 0)
(-0.648814 5.16805e-05 0)
(-0.660529 0.000181634 0)
(-0.671561 0.000320519 0)
(-0.681972 0.000467901 0)
(-0.69181 0.000623366 0)
(-0.70112 0.000786523 0)
(-0.709937 0.000956998 0)
(-0.71829 0.00113443 0)
(-0.726208 0.00131848 0)
(-0.73371 0.0015088 0)
(-0.740818 0.00170506 0)
(-0.747548 0.00190692 0)
(-0.753914 0.00211403 0)
(-0.759929 0.00232603 0)
(-0.765606 0.00254253 0)
(-0.770955 0.00276314 0)
(-0.775985 0.00298739 0)
(-0.780706 0.00321474 0)
(-0.785128 0.00344442 0)
(-0.789257 0.00367526 0)
(-0.793105 0.00390542 0)
(-0.796678 0.00413221 0)
(-0.799987 0.00435205 0)
(-0.803043 0.00456071 0)
(-0.805857 0.00475394 0)
(-0.80844 0.00492814 0)
(-0.810808 0.00508107 0)
(-0.812973 0.00521209 0)
(-0.814951 0.00532231 0)
(-0.816755 0.00541441 0)
(-0.818398 0.00549171 0)
(-0.819894 0.00555674 0)
(-0.821255 0.00561059 0)
(-0.822493 0.00565332 0)
(-0.823621 0.00568503 0)
(-0.824651 0.00570654 0)
(-0.825605 0.00571918 0)
(-0.826499 0.00572406 0)
(-0.827339 0.00572258 0)
(-0.828129 0.00571623 0)
(-0.828877 0.00570569 0)
(-0.829586 0.00569174 0)
(-0.830261 0.00567551 0)
(-0.830907 0.00565745 0)
(-0.831526 0.00563776 0)
(-0.832123 0.005617 0)
(-0.8327 0.00559544 0)
(-0.83326 0.00557324 0)
(-0.833805 0.00555061 0)
(-0.834338 0.00552737 0)
(-0.83486 0.00550362 0)
(-0.835372 0.0054796 0)
(-0.835878 0.00545473 0)
(-0.836377 0.00542886 0)
(-0.83687 0.00540231 0)
(-0.837359 0.00537466 0)
(-0.837843 0.00534563 0)
(-0.838325 0.0053149 0)
(-0.838803 0.00528252 0)
(-0.839277 0.00524836 0)
(-0.839749 0.00521135 0)
(-0.840217 0.00517135 0)
(-0.840682 0.00512805 0)
(-0.841144 0.00508013 0)
(-0.841602 0.00502687 0)
(-0.842054 0.00496741 0)
(-0.842498 0.00490042 0)
(-0.842932 0.00482443 0)
(-0.843359 0.00472966 0)
(-0.843775 0.00461287 0)
(-0.844168 0.00446342 0)
(-0.844655 0.00428016 0)
(-0.907242 -0.00222029 0)
(-0.906005 0.00882141 0)
(-0.903557 -0.0196491 0)
(-0.901707 -0.0396187 0)
(-0.89939 -0.039593 0)
(-0.897312 -0.0395974 0)
(-0.895198 -0.0395987 0)
(-0.893094 -0.0395998 0)
(-0.891015 -0.0396004 0)
(-0.888984 -0.0396001 0)
(-0.887034 -0.0395987 0)
(-0.885207 -0.0395956 0)
(-0.883558 -0.039589 0)
(-0.882311 -0.0395745 0)
(-0.881821 -0.0395584 0)
(-0.881767 -0.0395509 0)
(-0.881765 -0.0395501 0)
(-0.881765 -0.0395501 0)
(-0.881765 -0.0395501 0)
(-0.881764 -0.0395501 0)
(-0.881764 -0.0395501 0)
(-0.881764 -0.0395501 0)
(-0.881764 -0.0395501 0)
(-0.881764 -0.0395501 0)
(-0.881764 -0.0395501 0)
(-0.881764 -0.0395501 0)
(-0.881764 -0.0395501 0)
(-0.881764 -0.0395501 0)
(-0.881764 -0.0395501 0)
(-0.881764 -0.0395501 0)
(-0.881764 -0.0395501 0)
(-0.881763 -0.0395501 0)
(-0.881763 -0.0395501 0)
(-0.881763 -0.0395501 0)
(-0.881763 -0.0395501 0)
(-0.881763 -0.0395501 0)
(-0.881763 -0.0395501 0)
(-0.881763 -0.0395501 0)
(-0.881763 -0.0395501 0)
(-0.881763 -0.0395501 0)
(-0.881763 -0.0395501 0)
(-0.881763 -0.0395501 0)
(-0.881763 -0.0395501 0)
(-0.881763 -0.0395501 0)
(-0.881763 -0.0395501 0)
(-0.881763 -0.0395501 0)
(-0.881763 -0.0395501 0)
(-0.881763 -0.0395501 0)
(-0.881763 -0.0395501 0)
(-0.881763 -0.0395501 0)
(-0.881763 -0.0395501 0)
(-0.881763 -0.0395501 0)
(-0.881763 -0.0395501 0)
(-0.881763 -0.0395501 0)
(-0.881763 -0.0395501 0)
(-0.881763 -0.0395501 0)
(-0.881763 -0.0395501 0)
(-0.881763 -0.0395501 0)
(-0.881763 -0.0395501 0)
(-0.881763 -0.0395501 0)
(-0.881763 -0.0395501 0)
(-0.881763 -0.0395501 0)
(-0.881763 -0.0395501 0)
(-0.881763 -0.0395501 0)
(-0.881763 -0.0395501 0)
(-0.881763 -0.0395501 0)
(-0.881763 -0.0395501 0)
(-0.881763 -0.0395501 0)
(-0.881763 -0.0395501 0)
(-0.881763 -0.0395501 0)
(-0.881763 -0.0395501 0)
(-0.881763 -0.0395501 0)
(-0.881763 -0.0395501 0)
(-0.881763 -0.0395501 0)
(-0.881763 -0.0395501 0)
(-0.881763 -0.0395501 0)
(-0.881763 -0.0395501 0)
(-0.881763 -0.0395501 0)
(-0.881763 -0.0395501 0)
(-0.881763 -0.0395501 0)
(-0.881763 -0.0395501 0)
(-0.881763 -0.0395501 0)
(-0.881763 -0.0395501 0)
(-0.881763 -0.0395501 0)
(-0.881763 -0.0395501 0)
(-0.881763 -0.0395501 0)
(-0.881763 -0.0395501 0)
(-0.881763 -0.0395501 0)
(-0.881763 -0.0395501 0)
(-0.881763 -0.0395501 0)
(-0.881763 -0.0395501 0)
(-0.881763 -0.0395501 0)
(-0.881763 -0.0395501 0)
(-0.881763 -0.0395501 0)
(-0.881763 -0.0395501 0)
(-0.881763 -0.0395501 0)
(-0.881763 -0.0395501 0)
(-0.881763 -0.0395501 0)
(-0.881763 -0.0395501 0)
(-0.881763 -0.0395501 0)
(-0.881763 -0.0395501 0)
(-0.881763 -0.0395501 0)
(-0.881763 -0.0395501 0)
(-0.881763 -0.0395501 0)
(-0.881763 -0.0395501 0)
(-0.881763 -0.0395501 0)
(-0.881763 -0.0395501 0)
(-0.881763 -0.0395501 0)
(-0.881763 -0.0395501 0)
(-0.881763 -0.0395501 0)
(-0.881763 -0.0395501 0)
(-0.881763 -0.0395501 0)
(-0.881763 -0.0395501 0)
(-0.881763 -0.0395501 0)
(-0.881763 -0.0395501 0)
(-0.881763 -0.0395501 0)
(-0.881763 -0.0395501 0)
(-0.881763 -0.0395501 0)
(-0.881763 -0.0395501 0)
(-0.881763 -0.0395499 0)
(-0.881763 -0.0395414 0)
(-0.881763 -0.039197 0)
(-0.881762 -0.0225005 0)
)
;

boundaryField
{
    inandouthalf11
    {
        type            cyclic;
    }
    inandouthalf12
    {
        type            cyclic;
    }
    inandouthalf21
    {
        type            cyclic;
    }
    inandouthalf22
    {
        type            cyclic;
    }
    inandouthalf31
    {
        type            cyclic;
    }
    inandouthalf32
    {
        type            cyclic;
    }
    inandouthalf41
    {
        type            cyclic;
    }
    inandouthalf42
    {
        type            cyclic;
    }
    top
    {
        type            symmetryPlane;
    }
    walls
    {
        type            fixedValue;
        value           uniform (0 0 0);
    }
    frontAndBackPlanes
    {
        type            empty;
    }
}


// ************************************************************************* //
