/*--------------------------------*- C++ -*----------------------------------*\
| =========                 |                                                 |
| \\      /  F ield         | OpenFOAM: The Open Source CFD Toolbox           |
|  \\    /   O peration     | Version:  2.4.x                                 |
|   \\  /    A nd           | Web:      www.OpenFOAM.org                      |
|    \\/     M anipulation  |                                                 |
\*---------------------------------------------------------------------------*/
FoamFile
{
    version     2.0;
    format      ascii;
    class       volScalarField;
    location    "10.45";
    object      ddt0(((1.5*(alpha+1e-08))*rho),Theta);
}
// * * * * * * * * * * * * * * * * * * * * * * * * * * * * * * * * * * * * * //

dimensions      [1 -1 -3 0 0 0 0];

internalField   nonuniform List<scalar> 
360
(
-5.64004e-23
-1.64667e-22
-9.12929e-23
-6.76008e-23
-6.30662e-23
-5.87362e-23
-5.44611e-23
-5.23091e-23
-5.23621e-23
-5.40707e-23
-5.69414e-23
-6.05911e-23
-6.47628e-23
-6.92983e-23
-7.41034e-23
-7.91184e-23
-8.4285e-23
-8.95517e-23
-9.49008e-23
-1.00318e-22
-1.05785e-22
-1.11316e-22
-1.16915e-22
-1.22569e-22
-1.28275e-22
-1.34018e-22
-1.39806e-22
-1.45653e-22
-1.51532e-22
-1.57417e-22
-1.63331e-22
-1.69252e-22
-1.75171e-22
-1.81111e-22
-1.87025e-22
-1.92881e-22
-1.98709e-22
-2.04543e-22
-2.10311e-22
-2.15975e-22
-2.21624e-22
-2.27165e-22
-2.3257e-22
-2.37941e-22
-2.4322e-22
-2.48378e-22
-2.53343e-22
-2.58073e-22
-2.6277e-22
-2.67391e-22
-2.71734e-22
-2.75875e-22
-2.79871e-22
-2.83645e-22
-2.8721e-22
-2.90586e-22
-2.93705e-22
-2.9657e-22
-2.99096e-22
-3.01337e-22
-3.0344e-22
-3.05321e-22
-3.06956e-22
-3.08305e-22
-3.09301e-22
-3.09992e-22
-3.10433e-22
-3.10553e-22
-3.10224e-22
-3.09588e-22
-3.08869e-22
-3.07877e-22
-3.06471e-22
-3.04861e-22
-3.03104e-22
-3.01048e-22
-2.98567e-22
-2.95722e-22
-2.92626e-22
-2.89252e-22
-2.85596e-22
-2.81753e-22
-2.77771e-22
-2.73627e-22
-2.69308e-22
-2.64797e-22
-2.60062e-22
-2.55068e-22
-2.49824e-22
-2.44374e-22
-2.38758e-22
-2.33022e-22
-2.27223e-22
-2.21392e-22
-2.15537e-22
-2.09663e-22
-2.03769e-22
-1.97854e-22
-1.91927e-22
-1.86e-22
-1.80089e-22
-1.74203e-22
-1.68346e-22
-1.6251e-22
-1.56678e-22
-1.50827e-22
-1.44933e-22
-1.38978e-22
-1.32956e-22
-1.26879e-22
-1.20781e-22
-1.1473e-22
-1.08824e-22
-1.03192e-22
-9.79912e-23
-9.33836e-23
-8.95112e-23
-8.64489e-23
-8.41463e-23
-8.23628e-23
-8.06182e-23
-7.81855e-23
-7.41561e-23
-6.75875e-23
-5.76952e-23
-7.29644e-23
-5.4572e-17
-1.97764e-16
-6.36776e-16
-1.94757e-15
-5.71043e-15
-1.61151e-14
-4.38958e-14
-1.15753e-13
-2.96563e-13
-7.41255e-13
-1.82042e-12
-4.47518e-12
-1.15151e-11
-3.38739e-11
-1.30394e-10
-7.25923e-10
-5.8822e-09
-4.87412e-08
-3.68914e-07
-2.94673e-06
-2.43554e-05
1.43794e-05
0.0173802
0.3394
0.387155
-0.108084
-0.21518
-0.233419
-0.232495
-0.225024
-0.214695
-0.203121
-0.191097
-0.17904
-0.167203
-0.155747
-0.14477
-0.13433
-0.124455
-0.115158
-0.106436
-0.0982794
-0.0906694
-0.0835836
-0.076999
-0.0708886
-0.0652259
-0.0599848
-0.055138
-0.0506599
-0.0465255
-0.0427115
-0.0391948
-0.0359541
-0.0329691
-0.0302208
-0.0276912
-0.0253639
-0.0232231
-0.0212544
-0.0194444
-0.0177802
-0.0162513
-0.0148459
-0.0135544
-0.0123677
-0.0112772
-0.0102751
-0.00935434
-0.00850818
-0.00773061
-0.00701611
-0.00635974
-0.00575701
-0.00520399
-0.00469215
-0.00421533
-0.00377298
-0.00336459
-0.00298958
-0.00264716
-0.00233627
-0.00205548
-0.00180302
-0.00157679
-0.00137453
-0.00119392
-0.00103272
-0.000888834
-0.000760458
-0.000646068
-0.000544471
-0.000454789
-0.00037638
-0.000308499
-0.000250685
-0.000202117
-0.000161831
-0.00012877
-0.000101828
-8.00294e-05
-6.23542e-05
-4.82284e-05
-3.66948e-05
-2.77007e-05
-2.02139e-05
-1.46662e-05
-9.84942e-06
-6.53408e-06
-3.47622e-06
0
0
0
0
0
0
0
0
0
0
0
0
0
0
0
0
0
0
0
0
0
0
0
0
0
0
0
0
0
0
0
0
0
0
0
0
0
0
0
0
0
0
0
0
0
0
0
0
0
0
0
0
0
0
0
0
0
0
0
0
0
0
0
0
0
0
0
0
0
0
0
0
0
0
0
0
0
0
0
0
0
0
0
0
0
0
0
0
0
0
0
0
0
0
0
0
0
0
0
0
0
0
0
0
0
0
0
0
0
0
0
0
0
0
0
0
0
0
0
0
0
0
0
0
)
;

boundaryField
{
    inandouthalf11
    {
        type            cyclic;
    }
    inandouthalf12
    {
        type            cyclic;
    }
    inandouthalf21
    {
        type            cyclic;
    }
    inandouthalf22
    {
        type            cyclic;
    }
    inandouthalf31
    {
        type            cyclic;
    }
    inandouthalf32
    {
        type            cyclic;
    }
    inandouthalf41
    {
        type            cyclic;
    }
    inandouthalf42
    {
        type            cyclic;
    }
    top
    {
        type            symmetryPlane;
    }
    walls
    {
        type            calculated;
        value           uniform -5.64004e-23;
    }
    frontAndBackPlanes
    {
        type            empty;
    }
}


// ************************************************************************* //
