/*--------------------------------*- C++ -*----------------------------------*\
| =========                 |                                                 |
| \\      /  F ield         | OpenFOAM: The Open Source CFD Toolbox           |
|  \\    /   O peration     | Version:  2.4.x                                 |
|   \\  /    A nd           | Web:      www.OpenFOAM.org                      |
|    \\/     M anipulation  |                                                 |
\*---------------------------------------------------------------------------*/
FoamFile
{
    version     2.0;
    format      ascii;
    class       volScalarField;
    location    "10.45";
    object      epsilon_0;
}
// * * * * * * * * * * * * * * * * * * * * * * * * * * * * * * * * * * * * * //

dimensions      [0 2 -3 0 0 0 0];

internalField   nonuniform List<scalar> 
360
(
1.60309e-27
1e-20
1e-20
1e-20
1e-20
1e-20
1e-20
1e-20
1e-20
1e-20
1e-20
1e-20
1e-20
1e-20
1e-20
1e-20
1e-20
1e-20
1e-20
1e-20
1e-20
1e-20
1e-20
1e-20
1e-20
1e-20
1e-20
1e-20
1e-20
1e-20
1e-20
1e-20
1e-20
1e-20
1e-20
1e-20
1e-20
1e-20
1e-20
1e-20
1e-20
1e-20
1e-20
1e-20
1e-20
1e-20
1e-20
1e-20
1e-20
1e-20
1e-20
1e-20
1e-20
1e-20
1e-20
1e-20
1e-20
1e-20
1e-20
1e-20
1e-20
1e-20
1e-20
1e-20
1e-20
1e-20
1e-20
1e-20
1e-20
1e-20
1e-20
1e-20
1e-20
1e-20
1e-20
1e-20
1e-20
1e-20
1e-20
1e-20
1e-20
1e-20
1e-20
1e-20
1e-20
1e-20
1e-20
1e-20
1e-20
1e-20
1e-20
1e-20
1e-20
1e-20
1e-20
1e-20
1e-20
1e-20
1e-20
1e-20
1e-20
1e-20
1e-20
1e-20
1e-20
1e-20
1e-20
1e-20
1e-20
1e-20
1e-20
1e-20
1e-20
1e-20
1e-20
1e-20
1e-20
1e-20
1e-20
1e-20
1e-20
1e-20
1e-20
1e-20
1e-20
1e-20
1.07822e-20
2.82284e-20
8.07727e-20
2.26275e-19
6.16365e-19
1.63376e-18
4.22144e-18
1.06659e-17
2.64962e-17
6.53844e-17
1.6378e-16
4.3591e-16
1.33648e-15
5.1912e-15
2.6692e-14
1.7602e-13
1.4191e-12
1.23349e-11
1.25875e-10
1.75282e-09
3.32896e-08
8.39392e-07
2.72288e-05
0.000993049
0.00826169
0.00869282
0.00992142
0.0112816
0.0125951
0.0138285
0.01497
0.016017
0.016971
0.0178352
0.0186139
0.0193116
0.0199334
0.0204839
0.020968
0.02139
0.0217544
0.0220651
0.022326
0.0225407
0.0227124
0.0228443
0.0229392
0.0229999
0.0230288
0.0230281
0.0230001
0.0229466
0.0228696
0.0227707
0.0226515
0.0225134
0.0223577
0.0221859
0.0219989
0.0217979
0.0215839
0.0213579
0.0211207
0.0208733
0.0206162
0.0203504
0.0200764
0.0197949
0.0195066
0.019212
0.0189116
0.018606
0.0182958
0.0179813
0.017663
0.0173381
0.0170035
0.0166594
0.0163058
0.0159428
0.0155706
0.0151893
0.014799
0.0143999
0.0139922
0.013576
0.0131517
0.0127195
0.0122797
0.0118326
0.0113788
0.0109187
0.0104528
0.00998186
0.00950654
0.0090277
0.0085463
0.0080634
0.00758022
0.00709812
0.00661861
0.00614335
0.00567421
0.00521318
0.00476244
0.00432431
0.00390123
0.00349572
0.00311033
0.00274753
0.00240962
0.0020986
0.00181604
0.00156292
0.00133952
0.00114533
0.00097905
0.000838678
0.000721662
0.000625119
0.00054606
0.000481583
0.00042902
0.000386016
0.000350555
0.000320956
0.000295833
0.000274064
0.000254746
0.000237157
0.00022073
0.000205026
0.000189715
0.000174559
0.000159403
0.000144165
0.000128825
0.000113423
9.80526e-05
8.28574e-05
6.80271e-05
5.37961e-05
4.04415e-05
2.82836e-05
1.76906e-05
9.09217e-06
2.96702e-06
3.26252e-07
7.42902e-09
8.34233e-11
8.62919e-13
8.44839e-15
7.83649e-17
6.96698e-19
1.41881e-20
1e-20
1e-20
1e-20
1e-20
1e-20
1e-20
1e-20
1e-20
1e-20
1e-20
1e-20
1e-20
1e-20
1e-20
1e-20
1e-20
1e-20
1e-20
1e-20
1e-20
1e-20
1e-20
1e-20
1e-20
1e-20
1e-20
1e-20
1e-20
1e-20
1e-20
1e-20
1e-20
1e-20
1e-20
1e-20
1e-20
1e-20
1e-20
1e-20
1e-20
1e-20
1e-20
1e-20
1e-20
1e-20
1e-20
1e-20
1e-20
1e-20
1e-20
1e-20
1e-20
1e-20
1e-20
1e-20
1e-20
1e-20
1e-20
1e-20
1e-20
1e-20
1e-20
1e-20
1e-20
1e-20
1e-20
1e-20
1e-20
1e-20
1e-20
1e-20
1e-20
1e-20
1e-20
1e-20
1e-20
1e-20
1e-20
1e-20
)
;

boundaryField
{
    inandouthalf11
    {
        type            cyclic;
    }
    inandouthalf12
    {
        type            cyclic;
    }
    inandouthalf21
    {
        type            cyclic;
    }
    inandouthalf22
    {
        type            cyclic;
    }
    inandouthalf31
    {
        type            cyclic;
    }
    inandouthalf32
    {
        type            cyclic;
    }
    inandouthalf41
    {
        type            cyclic;
    }
    inandouthalf42
    {
        type            cyclic;
    }
    top
    {
        type            symmetryPlane;
    }
    walls
    {
        type            zeroGradient;
    }
    frontAndBackPlanes
    {
        type            empty;
    }
}


// ************************************************************************* //
