/*--------------------------------*- C++ -*----------------------------------*\
| =========                 |                                                 |
| \\      /  F ield         | OpenFOAM: The Open Source CFD Toolbox           |
|  \\    /   O peration     | Version:  2.4.x                                 |
|   \\  /    A nd           | Web:      www.OpenFOAM.org                      |
|    \\/     M anipulation  |                                                 |
\*---------------------------------------------------------------------------*/
FoamFile
{
    version     2.0;
    format      ascii;
    class       volVectorField;
    location    "10.45";
    object      gradPs;
}
// * * * * * * * * * * * * * * * * * * * * * * * * * * * * * * * * * * * * * //

dimensions      [0 1 -2 0 0 0 0];

internalField   nonuniform List<vector> 
360
(
(0 1.55202e-18 0)
(0 1.71126e-18 0)
(0 -4.16891e-22 0)
(0 -2.37886e-19 0)
(-1.45028e-32 -1.00082e-19 0)
(-1.45031e-32 -5.45987e-20 0)
(-2.9007e-32 -7.004e-20 0)
(0 -7.99831e-20 0)
(-2.90092e-32 -8.13053e-20 0)
(0 -8.19678e-20 0)
(-1.45057e-32 -8.22134e-20 0)
(0 -8.24922e-20 0)
(-2.90135e-32 -8.31543e-20 0)
(0 -8.38514e-20 0)
(0 -8.47892e-20 0)
(0 -8.57499e-20 0)
(0 -8.65168e-20 0)
(-1.45096e-32 -8.72158e-20 0)
(0 -8.82843e-20 0)
(0 -8.90398e-20 0)
(0 -8.98314e-20 0)
(-2.90238e-32 -9.09661e-20 0)
(0 -9.1796e-20 0)
(0 -9.27617e-20 0)
(0 -9.37538e-20 0)
(-2.90288e-32 -9.45599e-20 0)
(0 -9.56592e-20 0)
(0 -9.68014e-20 0)
(0 -9.76243e-20 0)
(0 -9.85845e-20 0)
(0 -9.99211e-20 0)
(0 -1.00628e-19 0)
(0 -1.01868e-19 0)
(0 -1.03137e-19 0)
(0 -1.03946e-19 0)
(1.4521e-32 -1.05096e-19 0)
(0 -1.06193e-19 0)
(0 -1.07816e-19 0)
(0 -1.08352e-19 0)
(0 -1.09671e-19 0)
(0 -1.11455e-19 0)
(0 -1.11832e-19 0)
(1.45261e-32 -1.13449e-19 0)
(0 -1.1493e-19 0)
(0 -1.15876e-19 0)
(0 -1.17648e-19 0)
(0 -1.18399e-19 0)
(0 -1.19551e-19 0)
(0 -1.21941e-19 0)
(0 -1.22787e-19 0)
(2.90649e-32 -1.23886e-19 0)
(0 -1.25734e-19 0)
(0 -1.27227e-19 0)
(0 -1.28427e-19 0)
(0 -1.30259e-19 0)
(0 -1.31769e-19 0)
(0 -1.33206e-19 0)
(0 -1.35246e-19 0)
(0 -1.36092e-19 0)
(0 -1.38365e-19 0)
(0 -1.40157e-19 0)
(0 -1.41666e-19 0)
(0 -1.43776e-19 0)
(0 -1.45365e-19 0)
(0 -1.47185e-19 0)
(0 -1.49158e-19 0)
(0 -1.5142e-19 0)
(0 -1.53286e-19 0)
(0 -1.54774e-19 0)
(0 -1.57237e-19 0)
(0 -1.60166e-19 0)
(0 -1.61465e-19 0)
(0 -1.63665e-19 0)
(0 -1.66483e-19 0)
(0 -1.68917e-19 0)
(0 -1.71231e-19 0)
(0 -1.7333e-19 0)
(0 -1.76166e-19 0)
(0 -1.78954e-19 0)
(0 -1.81445e-19 0)
(0 -1.84163e-19 0)
(0 -1.87241e-19 0)
(0 -1.90164e-19 0)
(0 -1.93183e-19 0)
(0 -1.96305e-19 0)
(0 -1.99547e-19 0)
(0 -2.02833e-19 0)
(0 -2.06117e-19 0)
(0 -2.09644e-19 0)
(0 -2.13289e-19 0)
(0 -2.16986e-19 0)
(0 -2.20876e-19 0)
(0 -2.24934e-19 0)
(0 -2.29072e-19 0)
(0 -2.33344e-19 0)
(0 -2.37758e-19 0)
(0 -2.42304e-19 0)
(0 -2.47001e-19 0)
(0 -2.51879e-19 0)
(0 -2.56943e-19 0)
(0 -2.62196e-19 0)
(0 -2.6766e-19 0)
(0 -2.73336e-19 0)
(0 -2.7922e-19 0)
(0 -2.85327e-19 0)
(0 -2.91668e-19 0)
(0 -2.98254e-19 0)
(0 -3.05099e-19 0)
(0 -3.12217e-19 0)
(0 -3.19623e-19 0)
(0 -3.27331e-19 0)
(0 -3.35357e-19 0)
(0 -3.43721e-19 0)
(0 -3.52445e-19 0)
(0 -3.61556e-19 0)
(0 -3.71084e-19 0)
(0 -3.81068e-19 0)
(0 -3.91552e-19 0)
(0 -4.02587e-19 0)
(0 -4.14228e-19 0)
(0 -4.26527e-19 0)
(0 -4.39532e-19 0)
(0 -4.53277e-19 0)
(0 -4.67802e-19 0)
(0 -4.83154e-19 0)
(0 4.99008e-17 0)
(0 4.12748e-16 0)
(0 1.40583e-15 0)
(0 3.83371e-15 0)
(0 9.99498e-15 0)
(0 2.52062e-14 0)
(0 6.15611e-14 0)
(0 1.45863e-13 0)
(0 3.36592e-13 0)
(0 7.6152e-13 0)
(0 1.71511e-12 0)
(0 4.00685e-12 0)
(0 1.05931e-11 0)
(0 3.5367e-11 0)
(0 1.55885e-10 0)
(0 8.69174e-10 0)
(0 6.27585e-09 0)
(0 4.73292e-08 0)
(0 3.65109e-07 0)
(0 3.88235e-06 0)
(0 5.81775e-05 0)
(0 0.00141639 0)
(0 0.0452291 0)
(0 0.35857 0)
(0 0.107498 0)
(0 -1.39954 0)
(0 -0.700579 0)
(0 -0.470842 0)
(0 -0.338966 0)
(0 -0.261981 0)
(0 -0.230354 0)
(0 -0.218869 0)
(0 -0.217419 0)
(0 -0.222853 0)
(0 -0.233081 0)
(0 -0.246496 0)
(0 -0.262025 0)
(0 -0.278947 0)
(0 -0.29675 0)
(0 -0.315068 0)
(0 -0.333632 0)
(0 -0.352244 0)
(0 -0.370763 0)
(0 -0.389082 0)
(0 -0.407125 0)
(0 -0.424838 0)
(0 -0.442184 0)
(0 -0.459136 0)
(0 -0.475682 0)
(0 -0.491813 0)
(0 -0.507528 0)
(0 -0.522829 0)
(0 -0.537723 0)
(0 -0.55222 0)
(0 -0.566332 0)
(0 -0.580073 0)
(0 -0.593458 0)
(0 -0.606505 0)
(0 -0.619232 0)
(0 -0.631661 0)
(0 -0.643815 0)
(0 -0.655722 0)
(0 -0.667411 0)
(0 -0.678915 0)
(0 -0.690278 0)
(0 -0.70155 0)
(0 -0.712786 0)
(0 -0.724051 0)
(0 -0.735416 0)
(0 -0.74695 0)
(0 -0.758711 0)
(0 -0.770725 0)
(0 -0.782968 0)
(0 -0.795334 0)
(0 -0.807617 0)
(0 -0.819455 0)
(0 -0.830463 0)
(-2.96369e-16 -0.840145 0)
(0 -0.84783 0)
(0 -0.852776 0)
(3.56236e-16 -0.854398 0)
(0 -0.852371 0)
(-4.07191e-16 -0.846747 0)
(0 -0.838041 0)
(4.68369e-16 -0.827219 0)
(0 -0.815568 0)
(0 -0.804459 0)
(0 -0.795123 0)
(3.15132e-16 -0.788518 0)
(0 -0.785215 0)
(0 -0.785244 0)
(0 -0.787885 0)
(0 -0.791512 0)
(0 -0.793653 0)
(-2.71848e-16 -0.79137 0)
(0 -0.781955 0)
(-1.69624e-16 -0.763673 0)
(0 -0.736262 0)
(-2.13513e-16 -0.700827 0)
(0 -0.65954 0)
(0 -0.614241 0)
(0 -0.567867 0)
(0 -0.520068 0)
(1.83045e-16 -0.473981 0)
(0 -0.427038 0)
(0 -0.382015 0)
(0 -0.336942 0)
(0 -0.293039 0)
(0 -0.254019 0)
(0 -0.212513 0)
(0 -0.238144 0)
(0 -0.12591 0)
(0 0 0)
(0 0 0)
(0 0 0)
(0 0 0)
(0 0 0)
(0 0 0)
(0 0 0)
(0 0 0)
(0 0 0)
(0 0 0)
(0 0 0)
(0 0 0)
(0 0 0)
(0 0 0)
(0 0 0)
(0 0 0)
(0 0 0)
(0 0 0)
(0 0 0)
(0 0 0)
(0 0 0)
(0 0 0)
(0 0 0)
(0 0 0)
(0 0 0)
(0 0 0)
(0 0 0)
(0 0 0)
(0 0 0)
(0 0 0)
(0 0 0)
(0 0 0)
(0 0 0)
(0 0 0)
(0 0 0)
(0 0 0)
(0 0 0)
(0 0 0)
(0 0 0)
(0 0 0)
(0 0 0)
(0 0 0)
(0 0 0)
(0 0 0)
(0 0 0)
(0 0 0)
(0 0 0)
(0 0 0)
(0 0 0)
(0 0 0)
(0 0 0)
(0 0 0)
(0 0 0)
(0 0 0)
(0 0 0)
(0 0 0)
(0 0 0)
(0 0 0)
(0 0 0)
(0 0 0)
(0 0 0)
(0 0 0)
(0 0 0)
(0 0 0)
(0 0 0)
(0 0 0)
(0 0 0)
(0 0 0)
(0 0 0)
(0 0 0)
(0 0 0)
(0 0 0)
(0 0 0)
(0 0 0)
(0 0 0)
(0 0 0)
(0 0 0)
(0 0 0)
(0 0 0)
(0 0 0)
(0 0 0)
(0 0 0)
(0 0 0)
(0 0 0)
(0 0 0)
(0 0 0)
(0 0 0)
(0 0 0)
(0 0 0)
(0 0 0)
(0 0 0)
(0 0 0)
(0 0 0)
(0 0 0)
(0 0 0)
(0 0 0)
(0 0 0)
(0 0 0)
(0 0 0)
(0 0 0)
(0 0 0)
(0 0 0)
(0 0 0)
(0 0 0)
(0 0 0)
(0 0 0)
(0 0 0)
(0 0 0)
(0 0 0)
(0 0 0)
(0 0 0)
(0 0 0)
(0 0 0)
(0 0 0)
(0 0 0)
(0 0 0)
(0 0 0)
(0 0 0)
(0 0 0)
(0 0 0)
(0 0 0)
(0 0 0)
(0 0 0)
)
;

boundaryField
{
    inandouthalf11
    {
        type            cyclic;
    }
    inandouthalf12
    {
        type            cyclic;
    }
    inandouthalf21
    {
        type            cyclic;
    }
    inandouthalf22
    {
        type            cyclic;
    }
    inandouthalf31
    {
        type            cyclic;
    }
    inandouthalf32
    {
        type            cyclic;
    }
    inandouthalf41
    {
        type            cyclic;
    }
    inandouthalf42
    {
        type            cyclic;
    }
    top
    {
        type            symmetryPlane;
    }
    walls
    {
        type            calculated;
        value           uniform (0 0 0);
    }
    frontAndBackPlanes
    {
        type            empty;
    }
}


// ************************************************************************* //
