/*--------------------------------*- C++ -*----------------------------------*\
| =========                 |                                                 |
| \\      /  F ield         | OpenFOAM: The Open Source CFD Toolbox           |
|  \\    /   O peration     | Version:  2.4.x                                 |
|   \\  /    A nd           | Web:      www.OpenFOAM.org                      |
|    \\/     M anipulation  |                                                 |
\*---------------------------------------------------------------------------*/
FoamFile
{
    version     2.0;
    format      ascii;
    class       volScalarField;
    location    "10.45";
    object      k;
}
// * * * * * * * * * * * * * * * * * * * * * * * * * * * * * * * * * * * * * //

dimensions      [0 2 -2 0 0 0 0];

internalField   nonuniform List<scalar> 
360
(
1e-20
1e-20
1e-20
1e-20
1e-20
1e-20
1e-20
1e-20
1e-20
1e-20
1e-20
1e-20
1e-20
1e-20
1e-20
1e-20
1e-20
1e-20
1e-20
1e-20
1e-20
1e-20
1e-20
1e-20
1e-20
1e-20
1e-20
1e-20
1e-20
1e-20
1e-20
1e-20
1e-20
1e-20
1e-20
1e-20
1e-20
1e-20
1e-20
1e-20
1e-20
1e-20
1e-20
1e-20
1e-20
1e-20
1e-20
1e-20
1e-20
1e-20
1e-20
1e-20
1e-20
1e-20
1e-20
1e-20
1e-20
1e-20
1e-20
1e-20
1e-20
1e-20
1e-20
1e-20
1e-20
1e-20
1e-20
1e-20
1e-20
1e-20
1e-20
1e-20
1e-20
1e-20
1e-20
1e-20
1e-20
1e-20
1e-20
1e-20
1e-20
1e-20
1e-20
1e-20
1e-20
1e-20
1e-20
1e-20
1e-20
1e-20
1e-20
1e-20
1e-20
1e-20
1e-20
1e-20
1e-20
1e-20
1e-20
1e-20
1e-20
1e-20
1e-20
1e-20
1e-20
1e-20
1e-20
1e-20
1e-20
1e-20
1e-20
1e-20
1e-20
1e-20
1e-20
1e-20
1e-20
1e-20
1e-20
1e-20
1e-20
1e-20
1e-20
1e-20
1e-20
1e-20
1.29369e-20
3.41598e-20
9.52941e-20
2.59044e-19
6.82418e-19
1.74187e-18
4.30951e-18
1.03499e-17
2.42083e-17
5.54542e-17
1.25996e-16
2.93776e-16
7.57678e-16
2.40912e-15
1.01108e-14
5.47448e-14
3.99348e-13
2.96564e-12
2.29968e-11
2.45111e-10
3.59496e-09
7.06355e-08
1.79538e-06
6.18647e-05
0.000678827
0.00139474
0.00202735
0.00257286
0.00305689
0.00349526
0.00389679
0.00426695
0.00460946
0.00492705
0.00522185
0.00549564
0.0057499
0.00598592
0.00620486
0.00640774
0.0065955
0.00676897
0.00692894
0.00707612
0.00721116
0.00733469
0.00744725
0.00754939
0.00764159
0.0077243
0.00779797
0.00786298
0.00791971
0.00796852
0.00800974
0.00804368
0.00807065
0.00809091
0.00810473
0.00811236
0.00811405
0.00811002
0.00810048
0.00808565
0.00806572
0.00804087
0.0080113
0.00797718
0.00793868
0.00789596
0.00784918
0.00779849
0.00774405
0.00768599
0.00762447
0.00755895
0.00748874
0.00741375
0.00733387
0.00724902
0.00715909
0.00706399
0.00696362
0.00685789
0.00674672
0.00663002
0.00650773
0.00637978
0.00624613
0.00610675
0.00596162
0.00581077
0.00565423
0.00549207
0.00532438
0.0051513
0.00497303
0.00478978
0.00460187
0.00440964
0.00421356
0.00401415
0.00381204
0.00360797
0.00340282
0.00319756
0.00299332
0.00279134
0.00259302
0.00239983
0.00221332
0.00203507
0.00186662
0.00170938
0.00156449
0.00143276
0.00131458
0.00120986
0.00111806
0.00103826
0.000969228
0.000909583
0.000857876
0.000812698
0.00077273
0.000736783
0.000703806
0.000672887
0.000643244
0.000614214
0.000585243
0.000555878
0.000525756
0.000494599
0.000462211
0.000428473
0.000393343
0.000356855
0.00031912
0.000280335
0.000240783
0.000200851
0.000161046
0.000122032
8.46968e-05
5.02844e-05
2.05317e-05
2.9306e-06
7.66354e-08
8.65162e-10
8.92925e-12
8.72692e-14
8.08368e-16
7.10689e-18
6.64261e-20
1e-20
1e-20
1e-20
1e-20
1e-20
1e-20
1e-20
1e-20
1e-20
1e-20
1e-20
1e-20
1e-20
1e-20
1e-20
1e-20
1e-20
1e-20
1e-20
1e-20
1e-20
1e-20
1e-20
1e-20
1e-20
1e-20
1e-20
1e-20
1e-20
1e-20
1e-20
1e-20
1e-20
1e-20
1e-20
1e-20
1e-20
1e-20
1e-20
1e-20
1e-20
1e-20
1e-20
1e-20
1e-20
1e-20
1e-20
1e-20
1e-20
1e-20
1e-20
1e-20
1e-20
1e-20
1e-20
1e-20
1e-20
1e-20
1e-20
1e-20
1e-20
1e-20
1e-20
1e-20
1e-20
1e-20
1e-20
1e-20
1e-20
1e-20
1e-20
1e-20
1e-20
1e-20
1e-20
1e-20
1e-20
1e-20
1e-20
)
;

boundaryField
{
    inandouthalf11
    {
        type            cyclic;
    }
    inandouthalf12
    {
        type            cyclic;
    }
    inandouthalf21
    {
        type            cyclic;
    }
    inandouthalf22
    {
        type            cyclic;
    }
    inandouthalf31
    {
        type            cyclic;
    }
    inandouthalf32
    {
        type            cyclic;
    }
    inandouthalf41
    {
        type            cyclic;
    }
    inandouthalf42
    {
        type            cyclic;
    }
    top
    {
        type            symmetryPlane;
    }
    walls
    {
        type            zeroGradient;
    }
    frontAndBackPlanes
    {
        type            empty;
    }
}


// ************************************************************************* //
