/*--------------------------------*- C++ -*----------------------------------*\
| =========                 |                                                 |
| \\      /  F ield         | OpenFOAM: The Open Source CFD Toolbox           |
|  \\    /   O peration     | Version:  2.4.x                                 |
|   \\  /    A nd           | Web:      www.OpenFOAM.org                      |
|    \\/     M anipulation  |                                                 |
\*---------------------------------------------------------------------------*/
FoamFile
{
    version     2.0;
    format      ascii;
    class       volScalarField;
    location    "10.45";
    object      k_0;
}
// * * * * * * * * * * * * * * * * * * * * * * * * * * * * * * * * * * * * * //

dimensions      [0 2 -2 0 0 0 0];

internalField   nonuniform List<scalar> 
360
(
1e-20
1e-20
1e-20
1e-20
1e-20
1e-20
1e-20
1e-20
1e-20
1e-20
1e-20
1e-20
1e-20
1e-20
1e-20
1e-20
1e-20
1e-20
1e-20
1e-20
1e-20
1e-20
1e-20
1e-20
1e-20
1e-20
1e-20
1e-20
1e-20
1e-20
1e-20
1e-20
1e-20
1e-20
1e-20
1e-20
1e-20
1e-20
1e-20
1e-20
1e-20
1e-20
1e-20
1e-20
1e-20
1e-20
1e-20
1e-20
1e-20
1e-20
1e-20
1e-20
1e-20
1e-20
1e-20
1e-20
1e-20
1e-20
1e-20
1e-20
1e-20
1e-20
1e-20
1e-20
1e-20
1e-20
1e-20
1e-20
1e-20
1e-20
1e-20
1e-20
1e-20
1e-20
1e-20
1e-20
1e-20
1e-20
1e-20
1e-20
1e-20
1e-20
1e-20
1e-20
1e-20
1e-20
1e-20
1e-20
1e-20
1e-20
1e-20
1e-20
1e-20
1e-20
1e-20
1e-20
1e-20
1e-20
1e-20
1e-20
1e-20
1e-20
1e-20
1e-20
1e-20
1e-20
1e-20
1e-20
1e-20
1e-20
1e-20
1e-20
1e-20
1e-20
1e-20
1e-20
1e-20
1e-20
1e-20
1e-20
1e-20
1e-20
1e-20
1e-20
1e-20
1e-20
1.29436e-20
3.41844e-20
9.53732e-20
2.59286e-19
6.83127e-19
1.74387e-18
4.31496e-18
1.03643e-17
2.42451e-17
5.55464e-17
1.26222e-16
2.94332e-16
7.5911e-16
2.41334e-15
1.01271e-14
5.48355e-14
4.00087e-13
2.97175e-12
2.3043e-11
2.45479e-10
3.59802e-09
7.0656e-08
1.79505e-06
6.18415e-05
0.000678335
0.00139491
0.00202798
0.00257381
0.00305808
0.00349662
0.00389829
0.00426855
0.00461113
0.00492876
0.00522359
0.00549739
0.00575165
0.00598767
0.00620659
0.00640945
0.00659718
0.00677062
0.00693056
0.0070777
0.00721271
0.00733619
0.00744872
0.00755081
0.00764297
0.00772565
0.00779927
0.00786424
0.00792093
0.0079697
0.00801089
0.00804479
0.00807171
0.00809194
0.00810572
0.00811332
0.00811497
0.00811091
0.00810134
0.00808647
0.0080665
0.00804163
0.00801203
0.00797787
0.00793934
0.00789658
0.00784977
0.00779905
0.00774458
0.00768649
0.00762494
0.0075594
0.00748916
0.00741413
0.00733423
0.00724934
0.00715938
0.00706425
0.00696385
0.00685809
0.00674688
0.00663015
0.00650782
0.00637984
0.00624616
0.00610674
0.00596158
0.0058107
0.00565413
0.00549193
0.0053242
0.00515109
0.00497278
0.00478951
0.00460156
0.00440931
0.0042132
0.00401376
0.00381162
0.00360754
0.00340237
0.00319709
0.00299284
0.00279087
0.00259254
0.00239936
0.00221286
0.00203464
0.00186622
0.00170901
0.00156416
0.00143247
0.00131432
0.00120964
0.00111789
0.00103812
0.000969124
0.000909507
0.000857825
0.000812666
0.000772714
0.000736779
0.000703811
0.000672898
0.000643259
0.000614231
0.000585261
0.000555895
0.000525771
0.000494612
0.00046222
0.000428478
0.000393344
0.000356852
0.000319113
0.000280324
0.000240768
0.000200832
0.000161025
0.000122009
8.46732e-05
5.02618e-05
2.05124e-05
2.92444e-06
7.63789e-08
8.62114e-10
8.89728e-12
8.6952e-14
8.05387e-16
7.08034e-18
6.62035e-20
1e-20
1e-20
1e-20
1e-20
1e-20
1e-20
1e-20
1e-20
1e-20
1e-20
1e-20
1e-20
1e-20
1e-20
1e-20
1e-20
1e-20
1e-20
1e-20
1e-20
1e-20
1e-20
1e-20
1e-20
1e-20
1e-20
1e-20
1e-20
1e-20
1e-20
1e-20
1e-20
1e-20
1e-20
1e-20
1e-20
1e-20
1e-20
1e-20
1e-20
1e-20
1e-20
1e-20
1e-20
1e-20
1e-20
1e-20
1e-20
1e-20
1e-20
1e-20
1e-20
1e-20
1e-20
1e-20
1e-20
1e-20
1e-20
1e-20
1e-20
1e-20
1e-20
1e-20
1e-20
1e-20
1e-20
1e-20
1e-20
1e-20
1e-20
1e-20
1e-20
1e-20
1e-20
1e-20
1e-20
1e-20
1e-20
1e-20
)
;

boundaryField
{
    inandouthalf11
    {
        type            cyclic;
    }
    inandouthalf12
    {
        type            cyclic;
    }
    inandouthalf21
    {
        type            cyclic;
    }
    inandouthalf22
    {
        type            cyclic;
    }
    inandouthalf31
    {
        type            cyclic;
    }
    inandouthalf32
    {
        type            cyclic;
    }
    inandouthalf41
    {
        type            cyclic;
    }
    inandouthalf42
    {
        type            cyclic;
    }
    top
    {
        type            symmetryPlane;
    }
    walls
    {
        type            zeroGradient;
    }
    frontAndBackPlanes
    {
        type            empty;
    }
}


// ************************************************************************* //
