/*--------------------------------*- C++ -*----------------------------------*\
| =========                 |                                                 |
| \\      /  F ield         | OpenFOAM: The Open Source CFD Toolbox           |
|  \\    /   O peration     | Version:  2.4.x                                 |
|   \\  /    A nd           | Web:      www.OpenFOAM.org                      |
|    \\/     M anipulation  |                                                 |
\*---------------------------------------------------------------------------*/
FoamFile
{
    version     2.0;
    format      ascii;
    class       volScalarField;
    location    "10.45";
    object      pa;
}
// * * * * * * * * * * * * * * * * * * * * * * * * * * * * * * * * * * * * * //

dimensions      [1 -1 -2 0 0 0 0];

internalField   nonuniform List<scalar> 
360
(
2.90371e-16
2.92884e-16
2.93145e-16
2.92883e-16
2.9276e-16
2.92721e-16
2.92671e-16
2.92607e-16
2.92541e-16
2.92475e-16
2.92409e-16
2.92342e-16
2.92275e-16
2.92207e-16
2.92139e-16
2.9207e-16
2.92e-16
2.9193e-16
2.91859e-16
2.91787e-16
2.91714e-16
2.91641e-16
2.91567e-16
2.91492e-16
2.91417e-16
2.91341e-16
2.91264e-16
2.91186e-16
2.91107e-16
2.91027e-16
2.90947e-16
2.90866e-16
2.90784e-16
2.90701e-16
2.90617e-16
2.90532e-16
2.90447e-16
2.90361e-16
2.90273e-16
2.90185e-16
2.90095e-16
2.90005e-16
2.89914e-16
2.89821e-16
2.89728e-16
2.89634e-16
2.89538e-16
2.89442e-16
2.89344e-16
2.89245e-16
2.89146e-16
2.89044e-16
2.88942e-16
2.88838e-16
2.88734e-16
2.88628e-16
2.88521e-16
2.88412e-16
2.88303e-16
2.88192e-16
2.88079e-16
2.87966e-16
2.8785e-16
2.87733e-16
2.87615e-16
2.87495e-16
2.87374e-16
2.87251e-16
2.87126e-16
2.87001e-16
2.86872e-16
2.86742e-16
2.86611e-16
2.86477e-16
2.86342e-16
2.86205e-16
2.86066e-16
2.85925e-16
2.85781e-16
2.85636e-16
2.85488e-16
2.85338e-16
2.85186e-16
2.85032e-16
2.84874e-16
2.84715e-16
2.84552e-16
2.84387e-16
2.8422e-16
2.84049e-16
2.83876e-16
2.83699e-16
2.8352e-16
2.83337e-16
2.8315e-16
2.8296e-16
2.82767e-16
2.8257e-16
2.82369e-16
2.82164e-16
2.81955e-16
2.81742e-16
2.81524e-16
2.81301e-16
2.81074e-16
2.80842e-16
2.80605e-16
2.80362e-16
2.80113e-16
2.79859e-16
2.79599e-16
2.79333e-16
2.7906e-16
2.7878e-16
2.78493e-16
2.78199e-16
2.77897e-16
2.77586e-16
2.77267e-16
2.7694e-16
2.76602e-16
2.76255e-16
2.75896e-16
2.75527e-16
2.75146e-16
2.74752e-16
3.55191e-16
9.36668e-16
2.60912e-15
7.08148e-15
1.8625e-14
4.74599e-14
1.17211e-13
2.80977e-13
6.55893e-13
1.49928e-12
3.39875e-12
7.90465e-12
2.03258e-11
6.43922e-11
2.6917e-10
1.45107e-09
1.02749e-08
7.65276e-08
5.89738e-07
6.23228e-06
9.26835e-05
0.00224429
0.0714034
0.565295
0.200918
0.136345
0.112129
0.100079
0.0932171
0.0884325
0.0846295
0.0813746
0.078437
0.0756853
0.0730461
0.0704786
0.0679602
0.0654793
0.0630306
0.060613
0.0582276
0.0558769
0.0535638
0.0512919
0.0490644
0.0468843
0.0447546
0.0426778
0.0406559
0.0386909
0.036784
0.0349363
0.0331487
0.0314215
0.029755
0.028149
0.0266033
0.0251173
0.0236903
0.0223216
0.0210101
0.0197547
0.0185542
0.0174072
0.0163124
0.0152682
0.0142732
0.0133258
0.0124243
0.0115672
0.0107528
0.0099797
0.00924655
0.00855215
0.00789555
0.00726981
0.00666995
0.00609764
0.00555466
0.00504267
0.00456303
0.00411653
0.00370331
0.00332266
0.00297315
0.00265273
0.002359
0.00208947
0.00184178
0.00161386
0.00140413
0.00121157
0.00103578
0.000876828
0.000734958
0.000610258
0.000502371
0.000410357
0.000332822
0.000268018
0.000214299
0.000169696
0.000133255
0.000102821
7.86287e-05
5.80554e-05
4.2572e-05
2.88585e-05
1.93029e-05
1.0336e-05
0
0
0
0
0
0
0
0
0
0
0
0
0
0
0
0
0
0
0
0
0
0
0
0
0
0
0
0
0
0
0
0
0
0
0
0
0
0
0
0
0
0
0
0
0
0
0
0
0
0
0
0
0
0
0
0
0
0
0
0
0
0
0
0
0
0
0
0
0
0
0
0
0
0
0
0
0
0
0
0
0
0
0
0
0
0
0
0
0
0
0
0
0
0
0
0
0
0
0
0
0
0
0
0
0
0
0
0
0
0
0
0
0
0
0
0
0
0
0
0
0
0
0
0
)
;

boundaryField
{
    inandouthalf11
    {
        type            cyclic;
    }
    inandouthalf12
    {
        type            cyclic;
    }
    inandouthalf21
    {
        type            cyclic;
    }
    inandouthalf22
    {
        type            cyclic;
    }
    inandouthalf31
    {
        type            cyclic;
    }
    inandouthalf32
    {
        type            cyclic;
    }
    inandouthalf41
    {
        type            cyclic;
    }
    inandouthalf42
    {
        type            cyclic;
    }
    top
    {
        type            symmetryPlane;
    }
    walls
    {
        type            calculated;
        value           uniform 2.90371e-16;
    }
    frontAndBackPlanes
    {
        type            empty;
    }
}


// ************************************************************************* //
