/*--------------------------------*- C++ -*----------------------------------*\
| =========                 |                                                 |
| \\      /  F ield         | OpenFOAM: The Open Source CFD Toolbox           |
|  \\    /   O peration     | Version:  2.4.x                                 |
|   \\  /    A nd           | Web:      www.OpenFOAM.org                      |
|    \\/     M anipulation  |                                                 |
\*---------------------------------------------------------------------------*/
FoamFile
{
    version     2.0;
    format      ascii;
    class       surfaceScalarField;
    location    "10.45";
    object      phib_0;
}
// * * * * * * * * * * * * * * * * * * * * * * * * * * * * * * * * * * * * * //

dimensions      [0 3 -1 0 0 0 0];

internalField   nonuniform List<scalar> 
359
(
4.45555e-14
1.11091e-13
1.70904e-13
2.26349e-13
2.81503e-13
3.36048e-13
3.89123e-13
4.40606e-13
4.90681e-13
5.39568e-13
5.87429e-13
6.34374e-13
6.8052e-13
7.25975e-13
7.70857e-13
8.15286e-13
8.59374e-13
9.03224e-13
9.46929e-13
9.90586e-13
1.03427e-12
1.07806e-12
1.12204e-12
1.16626e-12
1.21078e-12
1.25566e-12
1.30093e-12
1.34665e-12
1.39284e-12
1.43954e-12
1.48677e-12
1.53456e-12
1.5829e-12
1.63183e-12
1.68135e-12
1.73146e-12
1.78217e-12
1.83348e-12
1.88541e-12
1.93791e-12
1.99101e-12
2.0447e-12
2.09894e-12
2.15377e-12
2.20914e-12
2.26505e-12
2.3215e-12
2.37844e-12
2.43587e-12
2.4938e-12
2.55218e-12
2.611e-12
2.67025e-12
2.72991e-12
2.78994e-12
2.85035e-12
2.91109e-12
2.97216e-12
3.03353e-12
3.09514e-12
3.15703e-12
3.21914e-12
3.28147e-12
3.34398e-12
3.40666e-12
3.46946e-12
3.53237e-12
3.59537e-12
3.65842e-12
3.72147e-12
3.78453e-12
3.84759e-12
3.91058e-12
3.97352e-12
4.03636e-12
4.09911e-12
4.16169e-12
4.22409e-12
4.28628e-12
4.34823e-12
4.40991e-12
4.47131e-12
4.53239e-12
4.59315e-12
4.65357e-12
4.71361e-12
4.77326e-12
4.83248e-12
4.89123e-12
4.94949e-12
5.00724e-12
5.06444e-12
5.1211e-12
5.17718e-12
5.23269e-12
5.28759e-12
5.34189e-12
5.39555e-12
5.44856e-12
5.50091e-12
5.55258e-12
5.60356e-12
5.65384e-12
5.70343e-12
5.75231e-12
5.80051e-12
5.84802e-12
5.89487e-12
5.94107e-12
5.98666e-12
6.03167e-12
6.07613e-12
6.12008e-12
6.16356e-12
6.2066e-12
6.24922e-12
6.29143e-12
6.3332e-12
6.37448e-12
6.41519e-12
6.45521e-12
6.49441e-12
6.53262e-12
6.56972e-12
6.60562e-12
6.64032e-12
6.67397e-12
6.70689e-12
6.73961e-12
6.77285e-12
6.80755e-12
6.84477e-12
6.88555e-12
6.93054e-12
6.97907e-12
7.02782e-12
7.07032e-12
7.09923e-12
7.11104e-12
7.10903e-12
7.09981e-12
7.04889e-12
1.07304e-11
1.67594e-11
2.37877e-11
3.31834e-11
4.68234e-11
7.14193e-11
1.26577e-10
2.66537e-09
1.70833e-09
1.32423e-09
1.16619e-09
1.06351e-09
9.70725e-10
8.8773e-10
8.13352e-10
7.46371e-10
6.85784e-10
6.30763e-10
5.8062e-10
5.34789e-10
4.92794e-10
4.54233e-10
4.18765e-10
3.86094e-10
3.55963e-10
3.28148e-10
3.02449e-10
2.7869e-10
2.56714e-10
2.36379e-10
2.17558e-10
2.00133e-10
1.84002e-10
1.69066e-10
1.5524e-10
1.42441e-10
1.30597e-10
1.19638e-10
1.09503e-10
1.00133e-10
9.14749e-11
8.34779e-11
7.60962e-11
6.92871e-11
6.30106e-11
5.72296e-11
5.19098e-11
4.70191e-11
4.25275e-11
3.84073e-11
3.46328e-11
3.11797e-11
2.80259e-11
2.51504e-11
2.2534e-11
2.01585e-11
1.80068e-11
1.6063e-11
1.43113e-11
1.27068e-11
1.12438e-11
9.91526e-12
8.71325e-12
7.62859e-12
6.65136e-12
5.77145e-12
4.97909e-12
4.2655e-12
3.62329e-12
3.04656e-12
2.53073e-12
2.07229e-12
1.66858e-12
1.31752e-12
1.01733e-12
7.66025e-13
5.60972e-13
3.98466e-13
2.73642e-13
1.80757e-13
1.13732e-13
6.6779e-14
3.48187e-14
1.37873e-14
4.28058e-16
-7.41536e-15
-1.17073e-14
-1.32238e-14
-1.33932e-14
-1.20459e-14
-1.06131e-14
-8.08098e-15
-6.53603e-15
-2.40749e-15
-7.98921e-15
-1.19736e-14
-1.12477e-14
-9.15763e-15
-6.72004e-15
-4.51033e-15
-2.81931e-15
-1.57531e-15
-8.40368e-16
-3.47089e-16
-1.40923e-16
-1.28292e-17
3.25039e-17
2.40036e-17
8.12579e-17
-2.64872e-18
-1.58636e-17
-1.53499e-17
-1.47235e-17
-1.41547e-17
-1.34954e-17
-1.28876e-17
-1.21964e-17
-1.15545e-17
-1.08625e-17
-1.02287e-17
-9.57438e-18
-9.01903e-18
-8.52464e-18
-8.127e-18
-7.74185e-18
-7.40672e-18
-7.10032e-18
-6.81275e-18
-6.52171e-18
-6.24301e-18
-6.01849e-18
-5.79902e-18
-5.57791e-18
-5.33536e-18
-5.11327e-18
-4.86574e-18
-4.61686e-18
-4.35513e-18
-4.16121e-18
-3.95747e-18
-3.758e-18
-3.53291e-18
-3.32686e-18
-3.09537e-18
-2.7881e-18
-2.52929e-18
-2.30367e-18
-2.05914e-18
-1.81279e-18
-1.54556e-18
-1.2982e-18
-1.03556e-18
-7.86112e-19
-5.35036e-19
-5.74107e-19
-5.13855e-19
-4.73161e-19
-3.74156e-19
-3.48816e-19
-3.20878e-19
-2.93935e-19
-2.66564e-19
-2.49784e-19
-2.34439e-19
-2.19525e-19
-2.07924e-19
-1.93825e-19
-1.83909e-19
-1.75428e-19
-1.69283e-19
-1.6345e-19
-1.59659e-19
-1.56288e-19
-1.55235e-19
-1.5331e-19
-1.52782e-19
-1.53166e-19
-1.52807e-19
-1.61993e-19
-1.67248e-19
-1.73781e-19
-1.73523e-19
-1.92244e-19
-1.98126e-19
-2.18578e-19
-2.18766e-19
-4.55308e-19
-6.53009e-19
-8.6386e-19
-1.01374e-18
-1.23256e-18
-1.3605e-18
-1.49323e-18
-1.52166e-18
-1.74897e-18
-1.83759e-18
-1.92833e-18
-1.84401e-18
-1.90526e-18
-1.76411e-18
-1.63258e-18
-1.31092e-18
-1.37e-18
-1.20608e-18
-1.04671e-18
-6.1323e-19
-3.64995e-19
1.45891e-19
6.86232e-19
1.53736e-18
2.16194e-18
2.93192e-18
3.74172e-18
4.73492e-18
5.41571e-18
6.77932e-18
9.26498e-18
)
;

boundaryField
{
    inandouthalf11
    {
        type            cyclic;
        value           nonuniform List<scalar> 
100
(
2.75279e-10
2.73751e-10
2.73545e-10
2.73754e-10
2.73853e-10
2.73886e-10
2.73927e-10
2.73979e-10
2.74032e-10
2.74086e-10
2.74141e-10
2.74195e-10
2.7425e-10
2.74305e-10
2.7436e-10
2.74417e-10
2.74473e-10
2.74531e-10
2.74588e-10
2.74647e-10
2.74706e-10
2.74765e-10
2.74826e-10
2.74887e-10
2.74948e-10
2.7501e-10
2.75073e-10
2.75137e-10
2.75201e-10
2.75266e-10
2.75331e-10
2.75398e-10
2.75464e-10
2.75533e-10
2.75601e-10
2.7567e-10
2.7574e-10
2.75811e-10
2.75883e-10
2.75955e-10
2.76029e-10
2.76103e-10
2.76177e-10
2.76254e-10
2.7633e-10
2.76408e-10
2.76487e-10
2.76565e-10
2.76646e-10
2.76728e-10
2.7681e-10
2.76893e-10
2.76977e-10
2.77063e-10
2.77149e-10
2.77237e-10
2.77324e-10
2.77415e-10
2.77505e-10
2.77596e-10
2.7769e-10
2.77784e-10
2.7788e-10
2.77976e-10
2.78075e-10
2.78174e-10
2.78274e-10
2.78377e-10
2.7848e-10
2.78584e-10
2.78691e-10
2.788e-10
2.78908e-10
2.7902e-10
2.79132e-10
2.79247e-10
2.79363e-10
2.7948e-10
2.796e-10
2.79722e-10
2.79845e-10
2.7997e-10
2.80098e-10
2.80227e-10
2.80359e-10
2.80493e-10
2.80629e-10
2.80768e-10
2.80909e-10
2.81052e-10
2.81199e-10
2.81347e-10
2.81499e-10
2.81654e-10
2.81811e-10
2.81972e-10
2.82136e-10
2.82303e-10
2.82474e-10
2.82648e-10
)
;
    }
    inandouthalf12
    {
        type            cyclic;
        value           nonuniform List<scalar> 
100
(
-2.75279e-10
-2.73751e-10
-2.73545e-10
-2.73754e-10
-2.73853e-10
-2.73886e-10
-2.73927e-10
-2.73979e-10
-2.74032e-10
-2.74086e-10
-2.74141e-10
-2.74195e-10
-2.7425e-10
-2.74305e-10
-2.7436e-10
-2.74417e-10
-2.74473e-10
-2.74531e-10
-2.74588e-10
-2.74647e-10
-2.74706e-10
-2.74765e-10
-2.74826e-10
-2.74887e-10
-2.74948e-10
-2.7501e-10
-2.75073e-10
-2.75137e-10
-2.75201e-10
-2.75266e-10
-2.75331e-10
-2.75398e-10
-2.75464e-10
-2.75533e-10
-2.75601e-10
-2.7567e-10
-2.7574e-10
-2.75811e-10
-2.75883e-10
-2.75955e-10
-2.76029e-10
-2.76103e-10
-2.76177e-10
-2.76254e-10
-2.7633e-10
-2.76408e-10
-2.76487e-10
-2.76565e-10
-2.76646e-10
-2.76728e-10
-2.7681e-10
-2.76893e-10
-2.76977e-10
-2.77063e-10
-2.77149e-10
-2.77237e-10
-2.77324e-10
-2.77415e-10
-2.77505e-10
-2.77596e-10
-2.7769e-10
-2.77784e-10
-2.7788e-10
-2.77976e-10
-2.78075e-10
-2.78174e-10
-2.78274e-10
-2.78377e-10
-2.7848e-10
-2.78584e-10
-2.78691e-10
-2.788e-10
-2.78908e-10
-2.7902e-10
-2.79132e-10
-2.79247e-10
-2.79363e-10
-2.7948e-10
-2.796e-10
-2.79722e-10
-2.79845e-10
-2.7997e-10
-2.80098e-10
-2.80227e-10
-2.80359e-10
-2.80493e-10
-2.80629e-10
-2.80768e-10
-2.80909e-10
-2.81052e-10
-2.81199e-10
-2.81347e-10
-2.81499e-10
-2.81654e-10
-2.81811e-10
-2.81972e-10
-2.82136e-10
-2.82303e-10
-2.82474e-10
-2.82648e-10
)
;
    }
    inandouthalf21
    {
        type            cyclic;
        value           nonuniform List<scalar> 
100
(
2.82826e-10
2.83008e-10
2.83193e-10
2.83383e-10
2.83578e-10
2.83777e-10
2.8398e-10
2.84189e-10
2.84403e-10
2.84621e-10
2.84846e-10
2.85076e-10
2.85313e-10
2.85555e-10
2.85805e-10
2.86061e-10
2.86325e-10
2.86596e-10
2.86875e-10
2.87163e-10
2.8746e-10
2.87766e-10
2.88082e-10
2.88409e-10
2.88748e-10
2.89099e-10
2.89462e-10
2.8984e-10
2.90233e-10
2.90642e-10
2.91069e-10
2.91513e-10
2.91977e-10
2.92466e-10
2.92987e-10
2.93539e-10
2.94121e-10
2.94743e-10
2.95436e-10
2.96232e-10
2.97096e-10
2.98104e-10
3.05742e-10
3.05583e-10
3.07979e-10
3.11682e-10
3.16317e-10
3.23223e-10
3.42391e-10
2.04114e-09
6.03201e-08
7.17133e-08
7.28505e-08
7.10931e-08
6.80248e-08
6.42048e-08
5.98987e-08
5.52582e-08
5.038e-08
4.53302e-08
4.01561e-08
3.4893e-08
2.95674e-08
2.42003e-08
1.88078e-08
1.3403e-08
7.99634e-09
2.59627e-09
-2.79031e-09
-8.15777e-09
-1.35015e-08
-1.88176e-08
-2.4103e-08
-2.93551e-08
-3.45718e-08
-3.97513e-08
-4.48922e-08
-4.99932e-08
-5.50535e-08
-6.00723e-08
-6.50489e-08
-6.9983e-08
-7.4874e-08
-7.97217e-08
-8.4526e-08
-8.92867e-08
-9.40037e-08
-9.86769e-08
-1.03306e-07
-1.07892e-07
-1.12434e-07
-1.16932e-07
-1.21387e-07
-1.25799e-07
-1.30167e-07
-1.34491e-07
-1.38772e-07
-1.43011e-07
-1.47206e-07
-1.51358e-07
)
;
    }
    inandouthalf22
    {
        type            cyclic;
        value           nonuniform List<scalar> 
100
(
-2.82826e-10
-2.83008e-10
-2.83193e-10
-2.83383e-10
-2.83578e-10
-2.83777e-10
-2.8398e-10
-2.84189e-10
-2.84403e-10
-2.84621e-10
-2.84846e-10
-2.85076e-10
-2.85313e-10
-2.85555e-10
-2.85805e-10
-2.86061e-10
-2.86325e-10
-2.86596e-10
-2.86875e-10
-2.87163e-10
-2.8746e-10
-2.87766e-10
-2.88082e-10
-2.88409e-10
-2.88748e-10
-2.89099e-10
-2.89462e-10
-2.8984e-10
-2.90233e-10
-2.90642e-10
-2.91069e-10
-2.91513e-10
-2.91977e-10
-2.92466e-10
-2.92987e-10
-2.93539e-10
-2.94121e-10
-2.94743e-10
-2.95436e-10
-2.96232e-10
-2.97096e-10
-2.98104e-10
-3.05742e-10
-3.05583e-10
-3.07979e-10
-3.11682e-10
-3.16317e-10
-3.23223e-10
-3.42391e-10
-2.04114e-09
-6.03201e-08
-7.17133e-08
-7.28505e-08
-7.10931e-08
-6.80248e-08
-6.42048e-08
-5.98987e-08
-5.52582e-08
-5.038e-08
-4.53302e-08
-4.01561e-08
-3.4893e-08
-2.95674e-08
-2.42003e-08
-1.88078e-08
-1.3403e-08
-7.99634e-09
-2.59627e-09
2.79031e-09
8.15777e-09
1.35015e-08
1.88176e-08
2.4103e-08
2.93551e-08
3.45718e-08
3.97513e-08
4.48922e-08
4.99932e-08
5.50535e-08
6.00723e-08
6.50489e-08
6.9983e-08
7.4874e-08
7.97217e-08
8.4526e-08
8.92867e-08
9.40037e-08
9.86769e-08
1.03306e-07
1.07892e-07
1.12434e-07
1.16932e-07
1.21387e-07
1.25799e-07
1.30167e-07
1.34491e-07
1.38772e-07
1.43011e-07
1.47206e-07
1.51358e-07
)
;
    }
    inandouthalf31
    {
        type            cyclic;
        value           nonuniform List<scalar> 
110
(
-1.55467e-07
-1.62814e-07
-1.70435e-07
-1.7834e-07
-1.86537e-07
-1.95035e-07
-2.03842e-07
-2.12969e-07
-2.22423e-07
-2.32214e-07
-2.4235e-07
-2.52841e-07
-2.63695e-07
-2.7492e-07
-2.86526e-07
-2.98519e-07
-3.10907e-07
-3.23697e-07
-3.36896e-07
-3.50507e-07
-3.64536e-07
-3.78986e-07
-3.93858e-07
-4.09151e-07
-4.24864e-07
-4.40992e-07
-4.57528e-07
-4.74461e-07
-4.91777e-07
-5.09458e-07
-5.27481e-07
-5.45818e-07
-5.64435e-07
-5.83293e-07
-6.02346e-07
-6.2154e-07
-6.40819e-07
-6.60122e-07
-6.79381e-07
-6.98533e-07
-7.17519e-07
-7.36287e-07
-7.54801e-07
-7.73034e-07
-7.90981e-07
-8.08647e-07
-8.26053e-07
-8.43227e-07
-8.602e-07
-8.77007e-07
-8.93681e-07
-9.10251e-07
-9.26746e-07
-9.43191e-07
-9.59611e-07
-9.76029e-07
-9.92468e-07
-1.00895e-06
-1.02551e-06
-1.04216e-06
-1.05894e-06
-1.07588e-06
-1.09302e-06
-1.1104e-06
-1.12806e-06
-1.14607e-06
-1.16449e-06
-1.18337e-06
-1.20282e-06
-1.22293e-06
-1.2438e-06
-1.2656e-06
-1.2885e-06
-1.3131e-06
-1.33951e-06
-1.36669e-06
-1.39443e-06
-1.42273e-06
-1.45161e-06
-1.48107e-06
-1.51113e-06
-1.54181e-06
-1.5731e-06
-1.60503e-06
-1.63761e-06
-1.67085e-06
-1.70476e-06
-1.73936e-06
-1.77467e-06
-1.81069e-06
-1.84744e-06
-1.88494e-06
-1.9232e-06
-1.96223e-06
-2.00206e-06
-2.0427e-06
-2.08416e-06
-2.12646e-06
-2.16962e-06
-2.21366e-06
-2.25859e-06
-2.30444e-06
-2.35121e-06
-2.39893e-06
-2.44763e-06
-2.49731e-06
-2.54799e-06
-2.59971e-06
-2.65248e-06
-2.70632e-06
)
;
    }
    inandouthalf32
    {
        type            cyclic;
        value           nonuniform List<scalar> 
110
(
1.55467e-07
1.62814e-07
1.70435e-07
1.7834e-07
1.86537e-07
1.95035e-07
2.03842e-07
2.12969e-07
2.22423e-07
2.32214e-07
2.4235e-07
2.52841e-07
2.63695e-07
2.7492e-07
2.86526e-07
2.98519e-07
3.10907e-07
3.23697e-07
3.36896e-07
3.50507e-07
3.64536e-07
3.78986e-07
3.93858e-07
4.09151e-07
4.24864e-07
4.40992e-07
4.57528e-07
4.74461e-07
4.91777e-07
5.09458e-07
5.27481e-07
5.45818e-07
5.64435e-07
5.83293e-07
6.02346e-07
6.2154e-07
6.40819e-07
6.60122e-07
6.79381e-07
6.98533e-07
7.17519e-07
7.36287e-07
7.54801e-07
7.73034e-07
7.90981e-07
8.08647e-07
8.26053e-07
8.43227e-07
8.602e-07
8.77007e-07
8.93681e-07
9.10251e-07
9.26746e-07
9.43191e-07
9.59611e-07
9.76029e-07
9.92468e-07
1.00895e-06
1.02551e-06
1.04216e-06
1.05894e-06
1.07588e-06
1.09302e-06
1.1104e-06
1.12806e-06
1.14607e-06
1.16449e-06
1.18337e-06
1.20282e-06
1.22293e-06
1.2438e-06
1.2656e-06
1.2885e-06
1.3131e-06
1.33951e-06
1.36669e-06
1.39443e-06
1.42273e-06
1.45161e-06
1.48107e-06
1.51113e-06
1.54181e-06
1.5731e-06
1.60503e-06
1.63761e-06
1.67085e-06
1.70476e-06
1.73936e-06
1.77467e-06
1.81069e-06
1.84744e-06
1.88494e-06
1.9232e-06
1.96223e-06
2.00206e-06
2.0427e-06
2.08416e-06
2.12646e-06
2.16962e-06
2.21366e-06
2.25859e-06
2.30444e-06
2.35121e-06
2.39893e-06
2.44763e-06
2.49731e-06
2.54799e-06
2.59971e-06
2.65248e-06
2.70632e-06
)
;
    }
    inandouthalf41
    {
        type            cyclic;
        value           nonuniform List<scalar> 
50
(
-2.42243e-06
-2.42243e-06
-2.42243e-06
-2.42243e-06
-2.42243e-06
-2.42243e-06
-2.42243e-06
-2.42243e-06
-2.42243e-06
-2.42243e-06
-2.42243e-06
-2.42243e-06
-2.42243e-06
-2.42243e-06
-2.42243e-06
-2.42243e-06
-2.42243e-06
-2.42243e-06
-2.42243e-06
-2.42243e-06
-2.42243e-06
-2.42243e-06
-2.42243e-06
-2.42243e-06
-2.42243e-06
-2.42243e-06
-2.42243e-06
-2.42243e-06
-2.42243e-06
-2.42243e-06
-2.42243e-06
-2.42243e-06
-2.42243e-06
-2.42243e-06
-2.42243e-06
-2.42243e-06
-2.42243e-06
-2.42243e-06
-2.42243e-06
-2.42243e-06
-2.42243e-06
-2.42243e-06
-2.42243e-06
-2.42243e-06
-2.42243e-06
-2.42243e-06
-2.42243e-06
-2.42243e-06
-2.42243e-06
-2.42243e-06
)
;
    }
    inandouthalf42
    {
        type            cyclic;
        value           nonuniform List<scalar> 
50
(
2.42243e-06
2.42243e-06
2.42243e-06
2.42243e-06
2.42243e-06
2.42243e-06
2.42243e-06
2.42243e-06
2.42243e-06
2.42243e-06
2.42243e-06
2.42243e-06
2.42243e-06
2.42243e-06
2.42243e-06
2.42243e-06
2.42243e-06
2.42243e-06
2.42243e-06
2.42243e-06
2.42243e-06
2.42243e-06
2.42243e-06
2.42243e-06
2.42243e-06
2.42243e-06
2.42243e-06
2.42243e-06
2.42243e-06
2.42243e-06
2.42243e-06
2.42243e-06
2.42243e-06
2.42243e-06
2.42243e-06
2.42243e-06
2.42243e-06
2.42243e-06
2.42243e-06
2.42243e-06
2.42243e-06
2.42243e-06
2.42243e-06
2.42243e-06
2.42243e-06
2.42243e-06
2.42243e-06
2.42243e-06
2.42243e-06
2.42243e-06
)
;
    }
    top
    {
        type            symmetryPlane;
        value           uniform 0;
    }
    walls
    {
        type            fixedValue;
        value           uniform 0;
    }
    frontAndBackPlanes
    {
        type            empty;
        value           nonuniform 0();
    }
}


// ************************************************************************* //
