/*--------------------------------*- C++ -*----------------------------------*\
| =========                 |                                                 |
| \\      /  F ield         | OpenFOAM: The Open Source CFD Toolbox           |
|  \\    /   O peration     | Version:  2.4.x                                 |
|   \\  /    A nd           | Web:      www.OpenFOAM.org                      |
|    \\/     M anipulation  |                                                 |
\*---------------------------------------------------------------------------*/
FoamFile
{
    version     2.0;
    format      ascii;
    class       surfaceScalarField;
    location    "10.45";
    object      phib;
}
// * * * * * * * * * * * * * * * * * * * * * * * * * * * * * * * * * * * * * //

dimensions      [0 3 -1 0 0 0 0];

internalField   nonuniform List<scalar> 
359
(
4.4551e-14
1.1108e-13
1.70888e-13
2.26329e-13
2.81479e-13
3.36021e-13
3.89092e-13
4.40571e-13
4.90643e-13
5.39527e-13
5.87383e-13
6.34325e-13
6.80466e-13
7.25916e-13
7.70793e-13
8.15216e-13
8.59299e-13
9.03142e-13
9.46841e-13
9.90491e-13
1.03417e-12
1.07795e-12
1.12192e-12
1.16613e-12
1.21064e-12
1.25551e-12
1.30078e-12
1.34649e-12
1.39267e-12
1.43936e-12
1.48658e-12
1.53435e-12
1.58268e-12
1.6316e-12
1.68111e-12
1.73121e-12
1.78191e-12
1.83321e-12
1.88512e-12
1.93761e-12
1.9907e-12
2.04437e-12
2.09861e-12
2.15342e-12
2.20878e-12
2.26468e-12
2.32111e-12
2.37804e-12
2.43545e-12
2.49337e-12
2.55173e-12
2.61054e-12
2.66977e-12
2.72942e-12
2.78943e-12
2.84983e-12
2.91056e-12
2.97162e-12
3.03297e-12
3.09457e-12
3.15644e-12
3.21853e-12
3.28085e-12
3.34335e-12
3.40601e-12
3.4688e-12
3.5317e-12
3.59468e-12
3.65771e-12
3.72074e-12
3.78379e-12
3.84684e-12
3.90982e-12
3.97274e-12
4.03557e-12
4.0983e-12
4.16087e-12
4.22326e-12
4.28543e-12
4.34737e-12
4.40904e-12
4.47042e-12
4.53149e-12
4.59224e-12
4.65264e-12
4.71267e-12
4.7723e-12
4.83151e-12
4.89025e-12
4.9485e-12
5.00623e-12
5.06343e-12
5.12007e-12
5.17614e-12
5.23163e-12
5.28653e-12
5.34081e-12
5.39447e-12
5.44747e-12
5.49981e-12
5.55147e-12
5.60244e-12
5.65271e-12
5.70228e-12
5.75116e-12
5.79935e-12
5.84685e-12
5.89369e-12
5.93989e-12
5.98547e-12
6.03047e-12
6.07493e-12
6.11887e-12
6.16235e-12
6.20538e-12
6.248e-12
6.2902e-12
6.33196e-12
6.37324e-12
6.41394e-12
6.45396e-12
6.49315e-12
6.53136e-12
6.56846e-12
6.60435e-12
6.63905e-12
6.6727e-12
6.70562e-12
6.73834e-12
6.77159e-12
6.8063e-12
6.84352e-12
6.88432e-12
6.92932e-12
6.97787e-12
7.02663e-12
7.06913e-12
7.09804e-12
7.10985e-12
7.10785e-12
7.09863e-12
7.04771e-12
1.07267e-11
1.67517e-11
2.37763e-11
3.31697e-11
4.68108e-11
7.14241e-11
1.26589e-10
2.65916e-09
1.70563e-09
1.32267e-09
1.16496e-09
1.06252e-09
9.69902e-10
8.87033e-10
8.12754e-10
7.45854e-10
6.85333e-10
6.30367e-10
5.80271e-10
5.34481e-10
4.92521e-10
4.53991e-10
4.1855e-10
3.85903e-10
3.55793e-10
3.27996e-10
3.02314e-10
2.7857e-10
2.56608e-10
2.36285e-10
2.17474e-10
2.00059e-10
1.83936e-10
1.69008e-10
1.55188e-10
1.42396e-10
1.30557e-10
1.19604e-10
1.09473e-10
1.00107e-10
9.14521e-11
8.34583e-11
7.60794e-11
6.92728e-11
6.29985e-11
5.72195e-11
5.19014e-11
4.70122e-11
4.25219e-11
3.84029e-11
3.46294e-11
3.11772e-11
2.80241e-11
2.51493e-11
2.25334e-11
2.01583e-11
1.8007e-11
1.60634e-11
1.4312e-11
1.27077e-11
1.12447e-11
9.91631e-12
8.71435e-12
7.62971e-12
6.65249e-12
5.77258e-12
4.98022e-12
4.26662e-12
3.62439e-12
3.04764e-12
2.53178e-12
2.0733e-12
1.66955e-12
1.31844e-12
1.01818e-12
7.66808e-13
5.61677e-13
3.99089e-13
2.74182e-13
1.81218e-13
1.1412e-13
6.71024e-14
3.50859e-14
1.40068e-14
6.07375e-16
-7.26922e-15
-1.15887e-14
-1.31278e-14
-1.33159e-14
-1.19837e-14
-1.05634e-14
-8.04126e-15
-6.50435e-15
-2.38227e-15
-7.97527e-15
-1.19654e-14
-1.12449e-14
-9.15761e-15
-6.72129e-15
-4.51179e-15
-2.8204e-15
-1.57584e-15
-8.40417e-16
-3.46556e-16
-1.40043e-16
-1.17018e-17
3.36613e-17
2.5231e-17
8.25472e-17
-1.44246e-18
-1.47148e-17
-1.42509e-17
-1.37042e-17
-1.31897e-17
-1.26074e-17
-1.20544e-17
-1.14425e-17
-1.08604e-17
-1.02459e-17
-9.67252e-18
-9.09472e-18
-8.59062e-18
-8.1411e-18
-7.76607e-18
-7.4131e-18
-7.1036e-18
-6.81976e-18
-6.55247e-18
-6.28843e-18
-6.03783e-18
-5.82483e-18
-5.61765e-18
-5.40924e-18
-5.18497e-18
-4.973e-18
-4.74063e-18
-4.50615e-18
-4.26474e-18
-4.0719e-18
-3.87456e-18
-3.67985e-18
-3.46362e-18
-3.26178e-18
-3.03693e-18
-2.73613e-18
-2.48814e-18
-2.26267e-18
-2.02274e-18
-1.78135e-18
-1.52499e-18
-1.27904e-18
-1.02853e-18
-7.92255e-19
-5.94957e-19
-5.85122e-19
-5.17949e-19
-4.70258e-19
-3.77161e-19
-3.47274e-19
-3.19931e-19
-2.94408e-19
-2.70988e-19
-2.52297e-19
-2.37574e-19
-2.23311e-19
-2.11684e-19
-1.99205e-19
-1.89829e-19
-1.8154e-19
-1.76294e-19
-1.71059e-19
-1.68459e-19
-1.66273e-19
-1.65535e-19
-1.64564e-19
-1.64402e-19
-1.64632e-19
-1.65708e-19
-1.73466e-19
-1.79643e-19
-1.87132e-19
-1.9199e-19
-2.07681e-19
-2.22089e-19
-2.53472e-19
-3.31159e-19
-5.05678e-19
-7.07279e-19
-9.23365e-19
-1.09012e-18
-1.31572e-18
-1.45412e-18
-1.59758e-18
-1.64527e-18
-1.87091e-18
-1.96688e-18
-2.06368e-18
-1.9884e-18
-2.04805e-18
-1.91224e-18
-1.78504e-18
-1.49685e-18
-1.52641e-18
-1.37027e-18
-1.21847e-18
-8.32467e-19
-5.72433e-19
-1.25664e-19
3.44642e-19
8.04776e-19
1.69936e-18
2.33206e-18
2.96807e-18
2.83856e-18
3.95634e-18
2.9513e-18
1.0489e-18
)
;

boundaryField
{
    inandouthalf11
    {
        type            cyclic;
        value           nonuniform List<scalar> 
100
(
2.7527e-10
2.73743e-10
2.73537e-10
2.73745e-10
2.73844e-10
2.73877e-10
2.73918e-10
2.7397e-10
2.74024e-10
2.74078e-10
2.74132e-10
2.74186e-10
2.74241e-10
2.74296e-10
2.74352e-10
2.74408e-10
2.74465e-10
2.74522e-10
2.7458e-10
2.74638e-10
2.74697e-10
2.74757e-10
2.74817e-10
2.74878e-10
2.74939e-10
2.75002e-10
2.75064e-10
2.75128e-10
2.75192e-10
2.75257e-10
2.75323e-10
2.75389e-10
2.75456e-10
2.75524e-10
2.75592e-10
2.75662e-10
2.75732e-10
2.75803e-10
2.75875e-10
2.75946e-10
2.7602e-10
2.76094e-10
2.76169e-10
2.76245e-10
2.76322e-10
2.76399e-10
2.76478e-10
2.76557e-10
2.76637e-10
2.76719e-10
2.76801e-10
2.76884e-10
2.76968e-10
2.77054e-10
2.7714e-10
2.77228e-10
2.77316e-10
2.77406e-10
2.77496e-10
2.77588e-10
2.77682e-10
2.77775e-10
2.77871e-10
2.77968e-10
2.78066e-10
2.78165e-10
2.78266e-10
2.78368e-10
2.78471e-10
2.78576e-10
2.78682e-10
2.78791e-10
2.78899e-10
2.79011e-10
2.79123e-10
2.79238e-10
2.79354e-10
2.79472e-10
2.79591e-10
2.79713e-10
2.79836e-10
2.79962e-10
2.80089e-10
2.80219e-10
2.8035e-10
2.80484e-10
2.80621e-10
2.80759e-10
2.809e-10
2.81044e-10
2.8119e-10
2.81339e-10
2.8149e-10
2.81645e-10
2.81802e-10
2.81963e-10
2.82127e-10
2.82294e-10
2.82465e-10
2.82639e-10
)
;
    }
    inandouthalf12
    {
        type            cyclic;
        value           nonuniform List<scalar> 
100
(
-2.7527e-10
-2.73743e-10
-2.73537e-10
-2.73745e-10
-2.73844e-10
-2.73877e-10
-2.73918e-10
-2.7397e-10
-2.74024e-10
-2.74078e-10
-2.74132e-10
-2.74186e-10
-2.74241e-10
-2.74296e-10
-2.74352e-10
-2.74408e-10
-2.74465e-10
-2.74522e-10
-2.7458e-10
-2.74638e-10
-2.74697e-10
-2.74757e-10
-2.74817e-10
-2.74878e-10
-2.74939e-10
-2.75002e-10
-2.75064e-10
-2.75128e-10
-2.75192e-10
-2.75257e-10
-2.75323e-10
-2.75389e-10
-2.75456e-10
-2.75524e-10
-2.75592e-10
-2.75662e-10
-2.75732e-10
-2.75803e-10
-2.75875e-10
-2.75946e-10
-2.7602e-10
-2.76094e-10
-2.76169e-10
-2.76245e-10
-2.76322e-10
-2.76399e-10
-2.76478e-10
-2.76557e-10
-2.76637e-10
-2.76719e-10
-2.76801e-10
-2.76884e-10
-2.76968e-10
-2.77054e-10
-2.7714e-10
-2.77228e-10
-2.77316e-10
-2.77406e-10
-2.77496e-10
-2.77588e-10
-2.77682e-10
-2.77775e-10
-2.77871e-10
-2.77968e-10
-2.78066e-10
-2.78165e-10
-2.78266e-10
-2.78368e-10
-2.78471e-10
-2.78576e-10
-2.78682e-10
-2.78791e-10
-2.78899e-10
-2.79011e-10
-2.79123e-10
-2.79238e-10
-2.79354e-10
-2.79472e-10
-2.79591e-10
-2.79713e-10
-2.79836e-10
-2.79962e-10
-2.80089e-10
-2.80219e-10
-2.8035e-10
-2.80484e-10
-2.80621e-10
-2.80759e-10
-2.809e-10
-2.81044e-10
-2.8119e-10
-2.81339e-10
-2.8149e-10
-2.81645e-10
-2.81802e-10
-2.81963e-10
-2.82127e-10
-2.82294e-10
-2.82465e-10
-2.82639e-10
)
;
    }
    inandouthalf21
    {
        type            cyclic;
        value           nonuniform List<scalar> 
100
(
2.82817e-10
2.82999e-10
2.83185e-10
2.83375e-10
2.83569e-10
2.83768e-10
2.83971e-10
2.8418e-10
2.84394e-10
2.84613e-10
2.84837e-10
2.85067e-10
2.85304e-10
2.85547e-10
2.85796e-10
2.86052e-10
2.86316e-10
2.86587e-10
2.86866e-10
2.87154e-10
2.87451e-10
2.87757e-10
2.88073e-10
2.88401e-10
2.88739e-10
2.8909e-10
2.89453e-10
2.89831e-10
2.90224e-10
2.90633e-10
2.91059e-10
2.91504e-10
2.91968e-10
2.92457e-10
2.92978e-10
2.9353e-10
2.94112e-10
2.94734e-10
2.95427e-10
2.96223e-10
2.97087e-10
2.98095e-10
3.05732e-10
3.05573e-10
3.07968e-10
3.11671e-10
3.16306e-10
3.23214e-10
3.42397e-10
2.04132e-09
6.04178e-08
7.18507e-08
7.3005e-08
7.12588e-08
6.81992e-08
6.43866e-08
6.00869e-08
5.5452e-08
5.05789e-08
4.55337e-08
4.03638e-08
3.51045e-08
2.97825e-08
2.44186e-08
1.90292e-08
1.36272e-08
8.22314e-09
2.82551e-09
-2.55878e-09
-7.9241e-09
-1.32658e-08
-1.858e-08
-2.38636e-08
-2.91141e-08
-3.43292e-08
-3.95071e-08
-4.46466e-08
-4.97463e-08
-5.48053e-08
-5.98228e-08
-6.47983e-08
-6.97312e-08
-7.46212e-08
-7.94679e-08
-8.42712e-08
-8.9031e-08
-9.37471e-08
-9.84194e-08
-1.03048e-07
-1.07633e-07
-1.12174e-07
-1.16672e-07
-1.21126e-07
-1.25537e-07
-1.29904e-07
-1.34228e-07
-1.38509e-07
-1.42746e-07
-1.46941e-07
-1.51092e-07
)
;
    }
    inandouthalf22
    {
        type            cyclic;
        value           nonuniform List<scalar> 
100
(
-2.82817e-10
-2.82999e-10
-2.83185e-10
-2.83375e-10
-2.83569e-10
-2.83768e-10
-2.83971e-10
-2.8418e-10
-2.84394e-10
-2.84613e-10
-2.84837e-10
-2.85067e-10
-2.85304e-10
-2.85547e-10
-2.85796e-10
-2.86052e-10
-2.86316e-10
-2.86587e-10
-2.86866e-10
-2.87154e-10
-2.87451e-10
-2.87757e-10
-2.88073e-10
-2.88401e-10
-2.88739e-10
-2.8909e-10
-2.89453e-10
-2.89831e-10
-2.90224e-10
-2.90633e-10
-2.91059e-10
-2.91504e-10
-2.91968e-10
-2.92457e-10
-2.92978e-10
-2.9353e-10
-2.94112e-10
-2.94734e-10
-2.95427e-10
-2.96223e-10
-2.97087e-10
-2.98095e-10
-3.05732e-10
-3.05573e-10
-3.07968e-10
-3.11671e-10
-3.16306e-10
-3.23214e-10
-3.42397e-10
-2.04132e-09
-6.04178e-08
-7.18507e-08
-7.3005e-08
-7.12588e-08
-6.81992e-08
-6.43866e-08
-6.00869e-08
-5.5452e-08
-5.05789e-08
-4.55337e-08
-4.03638e-08
-3.51045e-08
-2.97825e-08
-2.44186e-08
-1.90292e-08
-1.36272e-08
-8.22314e-09
-2.82551e-09
2.55878e-09
7.9241e-09
1.32658e-08
1.858e-08
2.38636e-08
2.91141e-08
3.43292e-08
3.95071e-08
4.46466e-08
4.97463e-08
5.48053e-08
5.98228e-08
6.47983e-08
6.97312e-08
7.46212e-08
7.94679e-08
8.42712e-08
8.9031e-08
9.37471e-08
9.84194e-08
1.03048e-07
1.07633e-07
1.12174e-07
1.16672e-07
1.21126e-07
1.25537e-07
1.29904e-07
1.34228e-07
1.38509e-07
1.42746e-07
1.46941e-07
1.51092e-07
)
;
    }
    inandouthalf31
    {
        type            cyclic;
        value           nonuniform List<scalar> 
110
(
-1.55201e-07
-1.62542e-07
-1.70157e-07
-1.78056e-07
-1.86247e-07
-1.94738e-07
-2.03539e-07
-2.12659e-07
-2.22106e-07
-2.31889e-07
-2.42019e-07
-2.52502e-07
-2.63349e-07
-2.74567e-07
-2.86165e-07
-2.9815e-07
-3.1053e-07
-3.23312e-07
-3.36502e-07
-3.50106e-07
-3.64126e-07
-3.78567e-07
-3.9343e-07
-4.08714e-07
-4.24418e-07
-4.40537e-07
-4.57063e-07
-4.73987e-07
-4.91293e-07
-5.08964e-07
-5.26978e-07
-5.45305e-07
-5.63912e-07
-5.82761e-07
-6.01803e-07
-6.20988e-07
-6.40257e-07
-6.59549e-07
-6.78798e-07
-6.97941e-07
-7.16917e-07
-7.35676e-07
-7.54179e-07
-7.72402e-07
-7.90338e-07
-8.07993e-07
-8.25388e-07
-8.4255e-07
-8.59511e-07
-8.76306e-07
-8.92967e-07
-9.09524e-07
-9.26005e-07
-9.42437e-07
-9.58842e-07
-9.75245e-07
-9.91669e-07
-1.00814e-06
-1.02468e-06
-1.04131e-06
-1.05807e-06
-1.075e-06
-1.09212e-06
-1.10948e-06
-1.12713e-06
-1.14512e-06
-1.16351e-06
-1.18238e-06
-1.20181e-06
-1.22189e-06
-1.24275e-06
-1.26453e-06
-1.2874e-06
-1.31197e-06
-1.33836e-06
-1.36552e-06
-1.39323e-06
-1.42151e-06
-1.45037e-06
-1.4798e-06
-1.50984e-06
-1.54049e-06
-1.57175e-06
-1.60366e-06
-1.63621e-06
-1.66942e-06
-1.7033e-06
-1.73787e-06
-1.77315e-06
-1.80914e-06
-1.84586e-06
-1.88332e-06
-1.92155e-06
-1.96055e-06
-2.00035e-06
-2.04095e-06
-2.08238e-06
-2.12464e-06
-2.16777e-06
-2.21177e-06
-2.25666e-06
-2.30246e-06
-2.3492e-06
-2.39688e-06
-2.44553e-06
-2.49517e-06
-2.54581e-06
-2.59749e-06
-2.65021e-06
-2.704e-06
)
;
    }
    inandouthalf32
    {
        type            cyclic;
        value           nonuniform List<scalar> 
110
(
1.55201e-07
1.62542e-07
1.70157e-07
1.78056e-07
1.86247e-07
1.94738e-07
2.03539e-07
2.12659e-07
2.22106e-07
2.31889e-07
2.42019e-07
2.52502e-07
2.63349e-07
2.74567e-07
2.86165e-07
2.9815e-07
3.1053e-07
3.23312e-07
3.36502e-07
3.50106e-07
3.64126e-07
3.78567e-07
3.9343e-07
4.08714e-07
4.24418e-07
4.40537e-07
4.57063e-07
4.73987e-07
4.91293e-07
5.08964e-07
5.26978e-07
5.45305e-07
5.63912e-07
5.82761e-07
6.01803e-07
6.20988e-07
6.40257e-07
6.59549e-07
6.78798e-07
6.97941e-07
7.16917e-07
7.35676e-07
7.54179e-07
7.72402e-07
7.90338e-07
8.07993e-07
8.25388e-07
8.4255e-07
8.59511e-07
8.76306e-07
8.92967e-07
9.09524e-07
9.26005e-07
9.42437e-07
9.58842e-07
9.75245e-07
9.91669e-07
1.00814e-06
1.02468e-06
1.04131e-06
1.05807e-06
1.075e-06
1.09212e-06
1.10948e-06
1.12713e-06
1.14512e-06
1.16351e-06
1.18238e-06
1.20181e-06
1.22189e-06
1.24275e-06
1.26453e-06
1.2874e-06
1.31197e-06
1.33836e-06
1.36552e-06
1.39323e-06
1.42151e-06
1.45037e-06
1.4798e-06
1.50984e-06
1.54049e-06
1.57175e-06
1.60366e-06
1.63621e-06
1.66942e-06
1.7033e-06
1.73787e-06
1.77315e-06
1.80914e-06
1.84586e-06
1.88332e-06
1.92155e-06
1.96055e-06
2.00035e-06
2.04095e-06
2.08238e-06
2.12464e-06
2.16777e-06
2.21177e-06
2.25666e-06
2.30246e-06
2.3492e-06
2.39688e-06
2.44553e-06
2.49517e-06
2.54581e-06
2.59749e-06
2.65021e-06
2.704e-06
)
;
    }
    inandouthalf41
    {
        type            cyclic;
        value           nonuniform List<scalar> 
50
(
-2.42036e-06
-2.42036e-06
-2.42036e-06
-2.42036e-06
-2.42036e-06
-2.42036e-06
-2.42036e-06
-2.42036e-06
-2.42036e-06
-2.42036e-06
-2.42036e-06
-2.42036e-06
-2.42036e-06
-2.42036e-06
-2.42036e-06
-2.42036e-06
-2.42036e-06
-2.42036e-06
-2.42036e-06
-2.42036e-06
-2.42036e-06
-2.42036e-06
-2.42036e-06
-2.42036e-06
-2.42036e-06
-2.42036e-06
-2.42036e-06
-2.42036e-06
-2.42036e-06
-2.42036e-06
-2.42036e-06
-2.42036e-06
-2.42036e-06
-2.42036e-06
-2.42036e-06
-2.42036e-06
-2.42036e-06
-2.42036e-06
-2.42036e-06
-2.42036e-06
-2.42036e-06
-2.42036e-06
-2.42036e-06
-2.42036e-06
-2.42036e-06
-2.42036e-06
-2.42036e-06
-2.42036e-06
-2.42036e-06
-2.42036e-06
)
;
    }
    inandouthalf42
    {
        type            cyclic;
        value           nonuniform List<scalar> 
50
(
2.42036e-06
2.42036e-06
2.42036e-06
2.42036e-06
2.42036e-06
2.42036e-06
2.42036e-06
2.42036e-06
2.42036e-06
2.42036e-06
2.42036e-06
2.42036e-06
2.42036e-06
2.42036e-06
2.42036e-06
2.42036e-06
2.42036e-06
2.42036e-06
2.42036e-06
2.42036e-06
2.42036e-06
2.42036e-06
2.42036e-06
2.42036e-06
2.42036e-06
2.42036e-06
2.42036e-06
2.42036e-06
2.42036e-06
2.42036e-06
2.42036e-06
2.42036e-06
2.42036e-06
2.42036e-06
2.42036e-06
2.42036e-06
2.42036e-06
2.42036e-06
2.42036e-06
2.42036e-06
2.42036e-06
2.42036e-06
2.42036e-06
2.42036e-06
2.42036e-06
2.42036e-06
2.42036e-06
2.42036e-06
2.42036e-06
2.42036e-06
)
;
    }
    top
    {
        type            symmetryPlane;
        value           uniform 0;
    }
    walls
    {
        type            fixedValue;
        value           uniform 0;
    }
    frontAndBackPlanes
    {
        type            empty;
        value           nonuniform 0();
    }
}


// ************************************************************************* //
