/*--------------------------------*- C++ -*----------------------------------*\
| =========                 |                                                 |
| \\      /  F ield         | OpenFOAM: The Open Source CFD Toolbox           |
|  \\    /   O peration     | Version:  2.4.x                                 |
|   \\  /    A nd           | Web:      www.OpenFOAM.org                      |
|    \\/     M anipulation  |                                                 |
\*---------------------------------------------------------------------------*/
FoamFile
{
    version     2.0;
    format      ascii;
    class       volVectorField;
    location    "10.45";
    object      susb;
}
// * * * * * * * * * * * * * * * * * * * * * * * * * * * * * * * * * * * * * //

dimensions      [0 1 -2 0 0 0 0];

internalField   nonuniform List<vector> 
360
(
(0 6.0117e-18 0)
(0 6.67669e-18 0)
(0 1.75916e-21 0)
(0 -9.23553e-19 0)
(-3.70065e-31 -3.88942e-19 0)
(-3.70031e-31 -2.11877e-19 0)
(-3.69989e-31 -2.71722e-19 0)
(0 -3.10425e-19 0)
(-3.69877e-31 -3.15664e-19 0)
(0 -3.18324e-19 0)
(-3.69763e-31 -3.19347e-19 0)
(0 -3.20491e-19 0)
(-7.39296e-31 -3.23123e-19 0)
(0 -3.25891e-19 0)
(0 -3.29596e-19 0)
(0 -3.33388e-19 0)
(0 -3.36425e-19 0)
(-3.69351e-31 -3.39196e-19 0)
(0 -3.43403e-19 0)
(0 -3.46391e-19 0)
(0 -3.49519e-19 0)
(-3.69103e-31 -3.53981e-19 0)
(0 -3.57257e-19 0)
(0 -3.61061e-19 0)
(0 -3.64966e-19 0)
(-3.68844e-31 -3.68147e-19 0)
(0 -3.7247e-19 0)
(0 -3.76959e-19 0)
(0 -3.80205e-19 0)
(0 -3.83985e-19 0)
(0 -3.89231e-19 0)
(0 -3.92022e-19 0)
(0 -3.96898e-19 0)
(0 -4.01878e-19 0)
(0 -4.05071e-19 0)
(3.68147e-31 -4.0959e-19 0)
(0 -4.13908e-19 0)
(0 -4.20272e-19 0)
(0 -4.22401e-19 0)
(0 -4.27586e-19 0)
(0 -4.34578e-19 0)
(0 -4.3609e-19 0)
(3.67613e-31 -4.42438e-19 0)
(0 -4.48255e-19 0)
(0 -4.51988e-19 0)
(0 -4.58941e-19 0)
(0 -4.6191e-19 0)
(0 -4.66451e-19 0)
(0 -4.75822e-19 0)
(0 -4.79167e-19 0)
(3.66949e-31 -4.835e-19 0)
(0 -4.9076e-19 0)
(0 -4.96638e-19 0)
(0 -5.0137e-19 0)
(0 -5.08575e-19 0)
(0 -5.14518e-19 0)
(0 -5.20184e-19 0)
(0 -5.28202e-19 0)
(0 -5.31557e-19 0)
(0 -5.40497e-19 0)
(0 -5.47557e-19 0)
(0 -5.53514e-19 0)
(0 -5.61817e-19 0)
(0 -5.68093e-19 0)
(0 -5.75267e-19 0)
(0 -5.83047e-19 0)
(0 -5.91955e-19 0)
(0 -5.99318e-19 0)
(0 -6.05208e-19 0)
(0 -6.14919e-19 0)
(0 -6.26456e-19 0)
(0 -6.31615e-19 0)
(0 -6.40304e-19 0)
(0 -6.51418e-19 0)
(0 -6.61033e-19 0)
(0 -6.70178e-19 0)
(0 -6.78483e-19 0)
(0 -6.89683e-19 0)
(0 -7.007e-19 0)
(0 -7.10559e-19 0)
(0 -7.21315e-19 0)
(0 -7.33487e-19 0)
(0 -7.45056e-19 0)
(0 -7.57011e-19 0)
(0 -7.69372e-19 0)
(0 -7.82209e-19 0)
(0 -7.95224e-19 0)
(0 -8.08241e-19 0)
(0 -8.22216e-19 0)
(0 -8.36665e-19 0)
(0 -8.51325e-19 0)
(0 -8.66759e-19 0)
(0 -8.82857e-19 0)
(0 -8.99281e-19 0)
(0 -9.16242e-19 0)
(0 -9.3377e-19 0)
(0 -9.5183e-19 0)
(0 -9.70493e-19 0)
(0 -9.89882e-19 0)
(0 -1.01001e-18 0)
(0 -1.03091e-18 0)
(0 -1.05264e-18 0)
(0 -1.07523e-18 0)
(0 -1.09866e-18 0)
(0 -1.12298e-18 0)
(0 -1.14824e-18 0)
(0 -1.17449e-18 0)
(0 -1.20178e-18 0)
(0 -1.23018e-18 0)
(0 -1.25973e-18 0)
(0 -1.2905e-18 0)
(0 -1.32255e-18 0)
(0 -1.35597e-18 0)
(0 -1.39083e-18 0)
(0 -1.42725e-18 0)
(0 -1.46536e-18 0)
(0 -1.5053e-18 0)
(0 -1.54725e-18 0)
(0 -1.59141e-18 0)
(0 -1.63801e-18 0)
(0 -1.68726e-18 0)
(0 -1.73936e-18 0)
(0 -1.79446e-18 0)
(0 -1.85272e-18 0)
(0 -1.91445e-18 0)
(0 -1.98025e-18 0)
(0 -3.18539e-18 0)
(0 -8.80243e-18 0)
(0 -2.48737e-17 0)
(0 -6.82128e-17 0)
(0 -1.80673e-16 0)
(0 -4.62373e-16 0)
(0 -1.14723e-15 0)
(0 -2.76653e-15 0)
(0 -6.45433e-15 0)
(0 -1.44782e-14 0)
(0 -3.15816e-14 0)
(0 -7.01355e-14 0)
(0 -1.71347e-13 0)
(0 -4.94179e-13 0)
(0 -1.89234e-12 0)
(0 -3.8422e-11 0)
(0 -1.96815e-10 0)
(0 -1.19287e-10 0)
(0 -4.17635e-09 0)
(0 -4.48187e-08 0)
(0 -5.84287e-07 0)
(0 -1.3811e-05 0)
(0 -0.0102105 0)
(0 -0.486763 0)
(0 -0.964765 0)
(0 -0.621699 0)
(0 -0.342482 0)
(0 -0.223208 0)
(0 -0.161925 0)
(0 -0.12806 0)
(0 -0.106487 0)
(0 -0.0914021 0)
(0 -0.0803386 0)
(0 -0.0719104 0)
(0 -0.0652641 0)
(0 -0.0598703 0)
(0 -0.0553863 0)
(0 -0.0515802 0)
(0 -0.0482901 0)
(0 -0.0454005 0)
(0 -0.0428271 0)
(0 -0.0405075 0)
(0 -0.0383946 0)
(0 -0.0364525 0)
(0 -0.0346536 0)
(0 -0.0329762 0)
(0 -0.0314033 0)
(0 -0.0299214 0)
(0 -0.0285197 0)
(0 -0.0271894 0)
(0 -0.0259236 0)
(0 -0.0247163 0)
(0 -0.0235629 0)
(0 -0.0224593 0)
(0 -0.0214023 0)
(0 -0.020389 0)
(0 -0.0194171 0)
(0 -0.0184844 0)
(0 -0.0175893 0)
(0 -0.01673 0)
(0 -0.0159053 0)
(0 -0.0151139 0)
(0 -0.0143546 0)
(0 -0.0136264 0)
(0 -0.0129285 0)
(0 -0.0122599 0)
(0 -0.0116198 0)
(0 -0.0110074 0)
(0 -0.0104216 0)
(0 -0.00986124 0)
(0 -0.00932455 0)
(0 -0.00880942 0)
(0 -0.00831316 0)
(0 -0.00783266 0)
(0 -0.0073645 0)
(0 -0.00690021 0)
(-4.23799e-18 -0.00643321 0)
(0 -0.00596361 0)
(0 -0.00549286 0)
(1.92894e-18 -0.00502552 0)
(0 -0.00456915 0)
(-1.80867e-18 -0.00413412 0)
(0 -0.00373244 0)
(1.71472e-18 -0.00337494 0)
(0 -0.00306674 0)
(0 -0.00280518 0)
(0 -0.00258301 0)
(0 -0.00239255 0)
(0 -0.00222718 0)
(0 -0.00208057 0)
(0 -0.00194592 0)
(0 -0.00181587 0)
(0 -0.00168339 0)
(-8.04477e-19 -0.00154344 0)
(0 -0.00139455 0)
(-3.95791e-19 -0.00123932 0)
(0 -0.0010834 0)
(-3.86945e-19 -0.000933338 0)
(0 -0.000795032 0)
(0 -0.000671128 0)
(0 -0.000564706 0)
(0 -0.000471847 0)
(0 -0.000396102 0)
(1.72632e-19 -0.00032838 0)
(0 -0.000275619 0)
(0 -0.000225034 0)
(0 -0.000188865 0)
(0 -0.00015071 0)
(0 -0.000124715 0)
(0 -6.45289e-05 0)
(0 -4.64246e-05 0)
(0 -5.63938e-05 0)
(0 -4.75538e-05 0)
(0 -3.3266e-05 0)
(0 -2.29273e-05 0)
(0 -1.55082e-05 0)
(0 -1.03624e-05 0)
(-1.92893e-21 -6.77311e-06 0)
(9.39396e-22 -4.43366e-06 0)
(0 -2.82134e-06 0)
(0 -1.81177e-06 0)
(-2.18744e-22 -1.14547e-06 0)
(0 -7.08269e-07 0)
(0 -4.56771e-07 0)
(-2.5612e-23 -2.62328e-07 0)
(0 -1.68124e-07 0)
(0 -4.98402e-09 0)
(0 -3.2294e-21 0)
(0 -9.54025e-33 0)
(0 -1.26118e-43 0)
(0 -1.40803e-47 0)
(0 -4.22732e-49 0)
(0 -9.20136e-53 0)
(0 -2.80782e-54 0)
(0 -5.62285e-58 0)
(0 -1.77633e-59 0)
(0 -1.16434e-61 0)
(0 -5.23334e-62 0)
(0 -2.35801e-62 0)
(0 -1.03484e-62 0)
(1.07465e-78 -4.39555e-63 0)
(0 -1.79719e-63 0)
(0 -7.01697e-64 0)
(0 -2.58257e-64 0)
(0 -8.74999e-65 0)
(0 -2.5889e-65 0)
(0 -5.59078e-66 0)
(0 -4.28635e-67 0)
(0 -5.2137e-69 0)
(0 -2.34575e-71 0)
(0 -9.35643e-74 0)
(0 -3.45238e-76 0)
(0 -1.1783e-78 0)
(0 -3.68415e-81 0)
(0 -5.54652e-84 0)
(0 -6.08323e-86 0)
(0 -2.01282e-86 0)
(0 -6.46221e-87 0)
(0 -2.01039e-87 0)
(0 -6.05173e-88 0)
(3.14287e-104 -1.75996e-88 0)
(0 -4.93646e-89 0)
(0 -1.33298e-89 0)
(0 -3.45821e-90 0)
(0 -8.60092e-91 0)
(0 -2.04574e-91 0)
(0 -4.64086e-92 0)
(0 -1.00113e-92 0)
(0 -2.0468e-93 0)
(0 -3.95096e-94 0)
(6.12914e-111 -7.16983e-95 0)
(0 -1.21717e-95 0)
(0 -1.92197e-96 0)
(-2.25413e-113 -2.80403e-97 0)
(0 -3.74976e-98 0)
(0 -4.55221e-99 0)
(0 -4.95776e-100 0)
(0 -4.77168e-101 0)
(0 -3.97993e-102 0)
(0 -2.80111e-103 0)
(0 -1.60097e-104 0)
(0 -6.99738e-106 0)
(0 -2.09944e-107 0)
(0 -3.35204e-109 0)
(0 -4.7372e-112 0)
(0 -2.28334e-118 0)
(0 -1.47183e-120 0)
(0 -4.69536e-123 0)
(0 -1.8948e-133 0)
(0 -3.90273e-144 0)
(0 -6.0421e-155 0)
(0 -6.82599e-166 0)
(0 -6.73877e-177 0)
(0 -5.15662e-188 0)
(0 -3.40913e-199 0)
(0 -7.14044e-210 0)
(0 -3.11469e-220 0)
(0 -1.8154e-228 0)
(0 -8.9506e-239 0)
(0 -6.24341e-247 0)
(0 -3.65404e-257 0)
(0 -2.14958e-265 0)
(0 -1.54847e-275 0)
(0 -7.41254e-284 0)
(0 -9.96425e-294 0)
(0 -2.62639e-302 0)
(0 -6.62158e-312 0)
(0 -9.68863e-321 0)
(0 -0 0)
(0 0 0)
(0 0 0)
(0 0 0)
(0 0 0)
(0 0 0)
(0 0 0)
(0 0 0)
(0 0 0)
(0 0 0)
(0 0 0)
(0 0 0)
(0 0 0)
(0 0 0)
(0 0 0)
(0 0 0)
(0 0 0)
(0 0 0)
(0 0 0)
(0 0 0)
(0 0 0)
(0 0 0)
(0 0 0)
(0 0 0)
(0 0 0)
(0 0 0)
)
;

boundaryField
{
    inandouthalf11
    {
        type            cyclic;
    }
    inandouthalf12
    {
        type            cyclic;
    }
    inandouthalf21
    {
        type            cyclic;
    }
    inandouthalf22
    {
        type            cyclic;
    }
    inandouthalf31
    {
        type            cyclic;
    }
    inandouthalf32
    {
        type            cyclic;
    }
    inandouthalf41
    {
        type            cyclic;
    }
    inandouthalf42
    {
        type            cyclic;
    }
    top
    {
        type            symmetryPlane;
    }
    walls
    {
        type            zeroGradient;
    }
    frontAndBackPlanes
    {
        type            empty;
    }
}


// ************************************************************************* //
