/*--------------------------------*- C++ -*----------------------------------*\
| =========                 |                                                 |
| \\      /  F ield         | OpenFOAM: The Open Source CFD Toolbox           |
|  \\    /   O peration     | Version:  2.4.x                                 |
|   \\  /    A nd           | Web:      www.OpenFOAM.org                      |
|    \\/     M anipulation  |                                                 |
\*---------------------------------------------------------------------------*/
FoamFile
{
    version     2.0;
    format      ascii;
    class       volTensorField;
    location    "10.45";
    object      Tauf;
}
// * * * * * * * * * * * * * * * * * * * * * * * * * * * * * * * * * * * * * //

dimensions      [0 2 -2 0 0 0 0];

internalField   nonuniform List<tensor> 
360
(
(0 -5.49012e-07 0 -5.49012e-07 4.96504e-11 0 0 0 0)
(0 1.73308e-09 0 1.73308e-09 5.95123e-11 0 0 0 0)
(0 -2.38094e-12 0 -2.38094e-12 6.06288e-11 0 0 0 0)
(0 -3.07558e-10 0 -3.07558e-10 5.64772e-11 0 0 0 0)
(5.16988e-23 -1.32037e-10 0 -1.32037e-10 5.50617e-11 0 0 0 0)
(5.16988e-23 -7.36191e-11 0 -7.36191e-11 5.43175e-11 0 0 0 0)
(5.16988e-23 -9.31778e-11 0 -9.31778e-11 5.30413e-11 0 0 0 0)
(0 -1.05835e-10 0 -1.05835e-10 5.15269e-11 0 0 0 0)
(5.16988e-23 -1.07487e-10 0 -1.07487e-10 5.01267e-11 0 0 0 0)
(0 -1.08297e-10 0 -1.08297e-10 4.8924e-11 0 0 0 0)
(5.16988e-23 -1.08579e-10 0 -1.08579e-10 4.78845e-11 0 0 0 0)
(0 -1.0891e-10 0 -1.0891e-10 4.697e-11 0 0 0 0)
(5.16988e-23 -1.09742e-10 0 -1.09742e-10 4.61684e-11 0 0 0 0)
(0 -1.10628e-10 0 -1.10628e-10 4.54793e-11 0 0 0 0)
(0 -1.11833e-10 0 -1.11833e-10 4.49067e-11 0 0 0 0)
(0 -1.13076e-10 0 -1.13076e-10 4.44516e-11 0 0 0 0)
(0 -1.14079e-10 0 -1.14079e-10 4.41079e-11 0 0 0 0)
(5.16988e-23 -1.15002e-10 0 -1.15002e-10 4.38666e-11 0 0 0 0)
(0 -1.16407e-10 0 -1.16407e-10 4.37227e-11 0 0 0 0)
(0 -1.17417e-10 0 -1.17417e-10 4.36686e-11 0 0 0 0)
(0 -1.18479e-10 0 -1.18479e-10 4.36964e-11 0 0 0 0)
(5.16988e-23 -1.19989e-10 0 -1.19989e-10 4.38032e-11 0 0 0 0)
(0 -1.21112e-10 0 -1.21112e-10 4.39819e-11 0 0 0 0)
(0 -1.22415e-10 0 -1.22415e-10 4.42253e-11 0 0 0 0)
(0 -1.23756e-10 0 -1.23756e-10 4.45269e-11 0 0 0 0)
(5.16988e-23 -1.24862e-10 0 -1.24862e-10 4.48785e-11 0 0 0 0)
(0 -1.26351e-10 0 -1.26351e-10 4.52765e-11 0 0 0 0)
(0 -1.27898e-10 0 -1.27898e-10 4.57171e-11 0 0 0 0)
(0 -1.29036e-10 0 -1.29036e-10 4.61921e-11 0 0 0 0)
(0 -1.30354e-10 0 -1.30354e-10 4.66946e-11 0 0 0 0)
(0 -1.32162e-10 0 -1.32162e-10 4.72244e-11 0 0 0 0)
(0 -1.33157e-10 0 -1.33157e-10 4.7773e-11 0 0 0 0)
(0 -1.34846e-10 0 -1.34846e-10 4.83389e-11 0 0 0 0)
(0 -1.36572e-10 0 -1.36572e-10 4.89207e-11 0 0 0 0)
(0 -1.37706e-10 0 -1.37706e-10 4.95095e-11 0 0 0 0)
(-1.03398e-22 -1.39282e-10 0 -1.39282e-10 5.01031e-11 0 0 0 0)
(0 -1.40794e-10 0 -1.40794e-10 5.06992e-11 0 0 0 0)
(0 -1.42987e-10 0 -1.42987e-10 5.13029e-11 0 0 0 0)
(0 -1.43772e-10 0 -1.43772e-10 5.19011e-11 0 0 0 0)
(0 -1.45576e-10 0 -1.45576e-10 5.24934e-11 0 0 0 0)
(0 -1.47983e-10 0 -1.47983e-10 5.30872e-11 0 0 0 0)
(0 -1.48566e-10 0 -1.48566e-10 5.36664e-11 0 0 0 0)
(-5.16988e-23 -1.50761e-10 0 -1.50761e-10 5.42373e-11 0 0 0 0)
(0 -1.5278e-10 0 -1.5278e-10 5.48034e-11 0 0 0 0)
(0 -1.54107e-10 0 -1.54107e-10 5.53563e-11 0 0 0 0)
(0 -1.56508e-10 0 -1.56508e-10 5.59004e-11 0 0 0 0)
(0 -1.5758e-10 0 -1.5758e-10 5.64228e-11 0 0 0 0)
(0 -1.59178e-10 0 -1.59178e-10 5.69225e-11 0 0 0 0)
(0 -1.62393e-10 0 -1.62393e-10 5.74205e-11 0 0 0 0)
(0 -1.63595e-10 0 -1.63595e-10 5.79032e-11 0 0 0 0)
(-5.16988e-23 -1.65127e-10 0 -1.65127e-10 5.83627e-11 0 0 0 0)
(0 -1.6764e-10 0 -1.6764e-10 5.88046e-11 0 0 0 0)
(0 -1.69693e-10 0 -1.69693e-10 5.92297e-11 0 0 0 0)
(0 -1.71364e-10 0 -1.71364e-10 5.96325e-11 0 0 0 0)
(0 -1.73865e-10 0 -1.73865e-10 6.00188e-11 0 0 0 0)
(0 -1.75944e-10 0 -1.75944e-10 6.03853e-11 0 0 0 0)
(0 -1.77933e-10 0 -1.77933e-10 6.07268e-11 0 0 0 0)
(0 -1.80713e-10 0 -1.80713e-10 6.10503e-11 0 0 0 0)
(0 -1.81929e-10 0 -1.81929e-10 6.13373e-11 0 0 0 0)
(0 -1.85023e-10 0 -1.85023e-10 6.16067e-11 0 0 0 0)
(0 -1.8749e-10 0 -1.8749e-10 6.18594e-11 0 0 0 0)
(0 -1.89588e-10 0 -1.89588e-10 6.20912e-11 0 0 0 0)
(0 -1.92478e-10 0 -1.92478e-10 6.23058e-11 0 0 0 0)
(0 -1.94688e-10 0 -1.94688e-10 6.24926e-11 0 0 0 0)
(0 -1.97203e-10 0 -1.97203e-10 6.26513e-11 0 0 0 0)
(0 -1.99927e-10 0 -1.99927e-10 6.27829e-11 0 0 0 0)
(0 -2.03034e-10 0 -2.03034e-10 6.28926e-11 0 0 0 0)
(0 -2.05624e-10 0 -2.05624e-10 6.29745e-11 0 0 0 0)
(0 -2.07718e-10 0 -2.07718e-10 6.30179e-11 0 0 0 0)
(0 -2.11109e-10 0 -2.11109e-10 6.30364e-11 0 0 0 0)
(0 -2.15123e-10 0 -2.15123e-10 6.30483e-11 0 0 0 0)
(0 -2.16983e-10 0 -2.16983e-10 6.30283e-11 0 0 0 0)
(0 -2.20041e-10 0 -2.20041e-10 6.29802e-11 0 0 0 0)
(0 -2.23928e-10 0 -2.23928e-10 6.29133e-11 0 0 0 0)
(0 -2.27314e-10 0 -2.27314e-10 6.2827e-11 0 0 0 0)
(0 -2.30544e-10 0 -2.30544e-10 6.27151e-11 0 0 0 0)
(0 -2.33495e-10 0 -2.33495e-10 6.25633e-11 0 0 0 0)
(0 -2.37435e-10 0 -2.37435e-10 6.238e-11 0 0 0 0)
(0 -2.4132e-10 0 -2.4132e-10 6.21692e-11 0 0 0 0)
(0 -2.44818e-10 0 -2.44818e-10 6.19289e-11 0 0 0 0)
(0 -2.48629e-10 0 -2.48629e-10 6.16613e-11 0 0 0 0)
(0 -2.52931e-10 0 -2.52931e-10 6.1374e-11 0 0 0 0)
(0 -2.57037e-10 0 -2.57037e-10 6.10673e-11 0 0 0 0)
(0 -2.61283e-10 0 -2.61283e-10 6.07419e-11 0 0 0 0)
(0 -2.65677e-10 0 -2.65677e-10 6.03951e-11 0 0 0 0)
(0 -2.70244e-10 0 -2.70244e-10 6.00243e-11 0 0 0 0)
(0 -2.74882e-10 0 -2.74882e-10 5.96259e-11 0 0 0 0)
(0 -2.79532e-10 0 -2.79532e-10 5.91952e-11 0 0 0 0)
(0 -2.84521e-10 0 -2.84521e-10 5.87335e-11 0 0 0 0)
(0 -2.89685e-10 0 -2.89685e-10 5.82432e-11 0 0 0 0)
(0 -2.94934e-10 0 -2.94934e-10 5.77272e-11 0 0 0 0)
(0 -3.00464e-10 0 -3.00464e-10 5.71904e-11 0 0 0 0)
(0 -3.06237e-10 0 -3.06237e-10 5.66373e-11 0 0 0 0)
(0 -3.12138e-10 0 -3.12138e-10 5.60697e-11 0 0 0 0)
(0 -3.18241e-10 0 -3.18241e-10 5.54881e-11 0 0 0 0)
(0 -3.24557e-10 0 -3.24557e-10 5.48914e-11 0 0 0 0)
(0 -3.31075e-10 0 -3.31075e-10 5.42781e-11 0 0 0 0)
(0 -3.3782e-10 0 -3.3782e-10 5.36471e-11 0 0 0 0)
(0 -3.44838e-10 0 -3.44838e-10 5.29986e-11 0 0 0 0)
(0 -3.52134e-10 0 -3.52134e-10 5.23338e-11 0 0 0 0)
(0 -3.59718e-10 0 -3.59718e-10 5.16553e-11 0 0 0 0)
(0 -3.6762e-10 0 -3.6762e-10 5.09666e-11 0 0 0 0)
(0 -3.75843e-10 0 -3.75843e-10 5.02715e-11 0 0 0 0)
(0 -3.84387e-10 0 -3.84387e-10 4.95739e-11 0 0 0 0)
(0 -3.93272e-10 0 -3.93272e-10 4.88778e-11 0 0 0 0)
(0 -4.02517e-10 0 -4.02517e-10 4.81877e-11 0 0 0 0)
(0 -4.12138e-10 0 -4.12138e-10 4.75082e-11 0 0 0 0)
(0 -4.22161e-10 0 -4.22161e-10 4.68447e-11 0 0 0 0)
(0 -4.32608e-10 0 -4.32608e-10 4.62029e-11 0 0 0 0)
(0 -4.43501e-10 0 -4.43501e-10 4.55884e-11 0 0 0 0)
(0 -4.54864e-10 0 -4.54864e-10 4.50064e-11 0 0 0 0)
(0 -4.66723e-10 0 -4.66723e-10 4.44607e-11 0 0 0 0)
(0 -4.7911e-10 0 -4.7911e-10 4.39527e-11 0 0 0 0)
(0 -4.92059e-10 0 -4.92059e-10 4.34807e-11 0 0 0 0)
(0 -5.05614e-10 0 -5.05614e-10 4.30386e-11 0 0 0 0)
(0 -5.19821e-10 0 -5.19821e-10 4.2615e-11 0 0 0 0)
(0 -5.3474e-10 0 -5.3474e-10 4.21925e-11 0 0 0 0)
(0 -5.50441e-10 0 -5.50441e-10 4.17475e-11 0 0 0 0)
(0 -5.67001e-10 0 -5.67001e-10 4.12513e-11 0 0 0 0)
(0 -5.84509e-10 0 -5.84509e-10 4.06722e-11 0 0 0 0)
(0 -6.0305e-10 0 -6.0305e-10 3.99795e-11 0 0 0 0)
(0 -6.22705e-10 0 -6.22705e-10 3.91498e-11 0 0 0 0)
(0 -6.4354e-10 0 -6.4354e-10 3.81749e-11 0 0 0 0)
(0 -6.65628e-10 0 -6.65628e-10 3.70717e-11 0 0 0 0)
(0 -6.89093e-10 0 -6.89093e-10 3.58921e-11 0 0 0 0)
(0 -7.14164e-10 0 -7.14164e-10 3.47298e-11 0 0 0 0)
(0 -7.41192e-10 0 -7.41192e-10 3.37222e-11 0 0 0 0)
(0 -7.70525e-10 0 -7.70525e-10 3.30441e-11 0 0 0 0)
(0 -8.0221e-10 0 -8.0221e-10 3.28942e-11 0 0 0 0)
(0 -8.35766e-10 0 -8.35766e-10 3.34744e-11 0 0 0 0)
(0 -8.70736e-10 0 -8.70736e-10 3.49618e-11 0 0 0 0)
(0 -9.08533e-10 0 -9.08533e-10 3.74649e-11 0 0 0 0)
(0 -9.53653e-10 0 -9.53653e-10 4.09198e-11 0 0 0 0)
(0 -1.00963e-09 0 -1.00963e-09 4.4814e-11 0 0 0 0)
(0 -1.07214e-09 0 -1.07214e-09 4.7716e-11 0 0 0 0)
(0 -1.13412e-09 0 -1.13412e-09 4.71251e-11 0 0 0 0)
(0 -1.20455e-09 0 -1.20455e-09 4.05606e-11 0 0 0 0)
(0 -1.31548e-09 0 -1.31548e-09 2.78627e-11 0 0 0 0)
(0 -1.48917e-09 0 -1.48917e-09 1.26558e-11 0 0 0 0)
(0 -1.65944e-09 0 -1.65944e-09 -3.5672e-13 0 0 0 0)
(0 -1.87137e-09 0 -1.87137e-09 -8.15069e-11 0 0 0 0)
(0 -8.64508e-09 0 -8.64508e-09 8.60946e-10 0 0 0 0)
(0 -7.4782e-09 0 -7.4782e-09 3.36964e-09 0 0 0 0)
(0 -2.2363e-09 0 -2.2363e-09 5.69466e-09 0 0 0 0)
(0 -6.09856e-09 0 -6.09856e-09 7.36799e-09 0 0 0 0)
(0 -8.33808e-09 0 -8.33808e-09 8.65713e-09 0 0 0 0)
(0 -1.15433e-08 0 -1.15433e-08 2.48962e-08 0 0 0 0)
(0 -2.61049e-08 0 -2.61049e-08 -2.76476e-08 0 0 0 0)
(0 -1.7364e-06 0 -1.7364e-06 2.02725e-07 0 0 0 0)
(0 -8.08904e-05 0 -8.08904e-05 2.51292e-06 0 0 0 0)
(0 -0.000419562 0 -0.000419562 4.37761e-07 0 0 0 0)
(0 -0.000266048 0 -0.000266048 -2.35253e-05 0 0 0 0)
(0 2.26709e-05 0 2.26709e-05 8.78859e-06 0 0 0 0)
(0 0.000258769 0 0.000258769 -1.31321e-05 0 0 0 0)
(0 0.000466115 0 0.000466115 -5.3909e-06 0 0 0 0)
(0 0.000653665 0 0.000653665 -6.12915e-06 0 0 0 0)
(0 0.000825269 0 0.000825269 -6.79099e-06 0 0 0 0)
(0 0.000983013 0 0.000983013 -6.96471e-06 0 0 0 0)
(0 0.00112837 0 0.00112837 -6.90716e-06 0 0 0 0)
(0 0.00126253 0 0.00126253 -6.79544e-06 0 0 0 0)
(0 0.00138645 0 0.00138645 -6.65862e-06 0 0 0 0)
(0 0.00150099 0 0.00150099 -6.49563e-06 0 0 0 0)
(0 0.00160688 0 0.00160688 -6.31019e-06 0 0 0 0)
(0 0.00170476 0 0.00170476 -6.1086e-06 0 0 0 0)
(0 0.00179522 0 0.00179522 -5.89606e-06 0 0 0 0)
(0 0.00187876 0 0.00187876 -5.67627e-06 0 0 0 0)
(0 0.00195584 0 0.00195584 -5.45204e-06 0 0 0 0)
(0 0.0020269 0 0.0020269 -5.22562e-06 0 0 0 0)
(0 0.00209229 0 0.00209229 -4.99882e-06 0 0 0 0)
(0 0.00215237 0 0.00215237 -4.77314e-06 0 0 0 0)
(0 0.00220746 0 0.00220746 -4.54979e-06 0 0 0 0)
(0 0.00225783 0 0.00225783 -4.32978e-06 0 0 0 0)
(0 0.00230375 0 0.00230375 -4.11392e-06 0 0 0 0)
(0 0.00234547 0 0.00234547 -3.90288e-06 0 0 0 0)
(0 0.0023832 0 0.0023832 -3.69718e-06 0 0 0 0)
(0 0.00241716 0 0.00241716 -3.49726e-06 0 0 0 0)
(0 0.00244752 0 0.00244752 -3.30345e-06 0 0 0 0)
(0 0.00247448 0 0.00247448 -3.116e-06 0 0 0 0)
(0 0.00249819 0 0.00249819 -2.9351e-06 0 0 0 0)
(0 0.00251881 0 0.00251881 -2.76087e-06 0 0 0 0)
(0 0.00253648 0 0.00253648 -2.59338e-06 0 0 0 0)
(0 0.00255133 0 0.00255133 -2.43267e-06 0 0 0 0)
(0 0.00256349 0 0.00256349 -2.27871e-06 0 0 0 0)
(0 0.00257308 0 0.00257308 -2.13148e-06 0 0 0 0)
(0 0.00258021 0 0.00258021 -1.99089e-06 0 0 0 0)
(0 0.00258498 0 0.00258498 -1.85684e-06 0 0 0 0)
(0 0.0025875 0 0.0025875 -1.72923e-06 0 0 0 0)
(0 0.00258784 0 0.00258784 -1.6079e-06 0 0 0 0)
(0 0.00258611 0 0.00258611 -1.4927e-06 0 0 0 0)
(0 0.00258238 0 0.00258238 -1.38348e-06 0 0 0 0)
(0 0.00257673 0 0.00257673 -1.28004e-06 0 0 0 0)
(0 0.00256925 0 0.00256925 -1.18219e-06 0 0 0 0)
(0 0.00255999 0 0.00255999 -1.08974e-06 0 0 0 0)
(0 0.00254903 0 0.00254903 -1.00248e-06 0 0 0 0)
(0 0.00253644 0 0.00253644 -9.20198e-07 0 0 0 0)
(0 0.00252228 0 0.00252228 -8.42687e-07 0 0 0 0)
(0 0.00250659 0 0.00250659 -7.69748e-07 0 0 0 0)
(0 0.00248945 0 0.00248945 -7.01201e-07 0 0 0 0)
(0 0.00247091 0 0.00247091 -6.36898e-07 0 0 0 0)
(0 0.00245104 0 0.00245104 -5.76727e-07 0 0 0 0)
(0 0.00242996 0 0.00242996 -5.20608e-07 0 0 0 0)
(0 0.00240761 0 0.00240761 -4.68028e-07 0 0 0 0)
(-7.57446e-18 0.00238386 0 0.00238386 -4.18636e-07 0 0 0 0)
(0 0.00235872 0 0.00235872 -3.72699e-07 0 0 0 0)
(0 0.00233215 0 0.00233215 -3.30447e-07 0 0 0 0)
(7.12654e-18 0.00230408 0 0.00230408 -2.92045e-07 0 0 0 0)
(0 0.00227447 0 0.00227447 -2.57542e-07 0 0 0 0)
(-6.82328e-18 0.00224324 0 0.00224324 -2.26841e-07 0 0 0 0)
(0 0.00221033 0 0.00221033 -1.99683e-07 0 0 0 0)
(6.51631e-18 0.0021757 0 0.0021757 -1.7567e-07 0 0 0 0)
(0 0.00213927 0 0.00213927 -1.54333e-07 0 0 0 0)
(0 0.002101 0 0.002101 -1.35202e-07 0 0 0 0)
(0 0.00206084 0 0.00206084 -1.17875e-07 0 0 0 0)
(1.17832e-17 0.00201875 0 0.00201875 -1.02035e-07 0 0 0 0)
(0 0.00197468 0 0.00197468 -8.74412e-08 0 0 0 0)
(0 0.0019286 0 0.0019286 -7.39263e-08 0 0 0 0)
(0 0.00188047 0 0.00188047 -6.14064e-08 0 0 0 0)
(0 0.00183026 0 0.00183026 -4.98904e-08 0 0 0 0)
(0 0.00177797 0 0.00177797 -3.94749e-08 0 0 0 0)
(-9.86474e-18 0.00172358 0 0.00172358 -3.03086e-08 0 0 0 0)
(0 0.00166708 0 0.00166708 -2.25301e-08 0 0 0 0)
(-9.21857e-18 0.00160849 0 0.00160849 -1.62036e-08 0 0 0 0)
(0 0.00154783 0 0.00154783 -1.12825e-08 0 0 0 0)
(-8.57253e-18 0.00148515 0 0.00148515 -7.615e-09 0 0 0 0)
(0 0.00142051 0 0.00142051 -4.98288e-09 0 0 0 0)
(0 0.00135399 0 0.00135399 -3.1527e-09 0 0 0 0)
(0 0.00128571 0 0.00128571 -1.91266e-09 0 0 0 0)
(0 0.0012158 0 0.0012158 -1.09113e-09 0 0 0 0)
(1.39622e-17 0.00114443 0 0.00114443 -5.53704e-10 0 0 0 0)
(1.33439e-17 0.00107182 0 0.00107182 -2.09793e-10 0 0 0 0)
(0 0.000998207 0 0.000998207 2.66951e-12 0 0 0 0)
(0 0.000923895 0 0.000923895 1.26101e-10 0 0 0 0)
(0 0.000849229 0 0.000849229 1.89714e-10 0 0 0 0)
(0 0.000774606 0 0.000774606 1.9113e-10 0 0 0 0)
(0 0.000700479 0 0.000700479 3.06699e-10 0 0 0 0)
(0 0.000627353 0 0.000627353 1.98977e-10 0 0 0 0)
(0 0.000555792 0 0.000555792 -3.32917e-10 0 0 0 0)
(0 0.000486298 0 0.000486298 -3.80957e-10 0 0 0 0)
(0 0.000419465 0 0.000419465 3.36787e-12 0 0 0 0)
(0 0.000355958 0 0.000355958 1.72027e-10 0 0 0 0)
(0 0.000296302 0 0.000296302 1.86762e-10 0 0 0 0)
(0 0.000240931 0 0.000240931 1.57809e-10 0 0 0 0)
(0 0.00019016 0 0.00019016 1.18559e-10 0 0 0 0)
(-1.41033e-17 0.000144157 0 0.000144157 8.09733e-11 0 0 0 0)
(1.37198e-17 0.000102947 0 0.000102947 5.03898e-11 0 0 0 0)
(0 6.64218e-05 0 6.64218e-05 2.88597e-11 0 0 0 0)
(0 3.4371e-05 0 3.4371e-05 1.46394e-11 0 0 0 0)
(-6.40654e-18 6.51681e-06 0 6.51681e-06 6.69075e-12 0 0 0 0)
(0 -1.74522e-05 0 -1.74522e-05 2.47105e-12 0 0 0 0)
(0 -3.78535e-05 0 -3.78535e-05 1.13567e-12 0 0 0 0)
(-5.98141e-18 -5.49912e-05 0 -5.49912e-05 4.64703e-13 0 0 0 0)
(0 -6.91454e-05 0 -6.91454e-05 -2.07424e-12 0 0 0 0)
(0 -8.05679e-05 0 -8.05679e-05 -1.82428e-12 0 0 0 0)
(0 -8.94826e-05 0 -8.94826e-05 -1.97034e-14 0 0 0 0)
(0 -9.60884e-05 0 -9.60884e-05 1.57095e-13 0 0 0 0)
(0 -0.000100564 0 -0.000100564 4.86329e-14 0 0 0 0)
(0 -0.000103073 0 -0.000103073 1.88888e-14 0 0 0 0)
(0 -0.000103766 0 -0.000103766 2.22122e-14 0 0 0 0)
(0 -0.000102788 0 -0.000102788 2.44564e-14 0 0 0 0)
(0 -0.000100277 0 -0.000100277 2.35296e-14 0 0 0 0)
(0 -9.63738e-05 0 -9.63738e-05 2.20341e-14 0 0 0 0)
(0 -9.12174e-05 0 -9.12174e-05 2.08973e-14 0 0 0 0)
(0 -8.49528e-05 0 -8.49528e-05 1.71296e-14 0 0 0 0)
(0 -7.77327e-05 0 -7.77327e-05 3.3344e-15 0 0 0 0)
(0 -6.97202e-05 0 -6.97202e-05 -6.95994e-15 0 0 0 0)
(0 -6.10929e-05 0 -6.10929e-05 2.64541e-13 0 0 0 0)
(0 -5.20469e-05 0 -5.20469e-05 -7.15454e-13 0 0 0 0)
(0 -4.28006e-05 0 -4.28006e-05 1.25819e-12 0 0 0 0)
(0 -3.35997e-05 0 -3.35997e-05 -1.68346e-12 0 0 0 0)
(0 -2.47224e-05 0 -2.47224e-05 1.91658e-12 0 0 0 0)
(0 -1.64876e-05 0 -1.64876e-05 -1.85706e-12 0 0 0 0)
(0 -9.29227e-06 0 -9.29227e-06 1.50627e-12 0 0 0 0)
(0 -3.30354e-06 0 -3.30354e-06 -8.71737e-13 0 0 0 0)
(0 -3.23234e-07 0 -3.23234e-07 2.21638e-13 0 0 0 0)
(0 -1.38551e-08 0 -1.38551e-08 -7.06216e-14 0 0 0 0)
(0 -3.20282e-10 0 -3.20282e-10 6.5096e-14 0 0 0 0)
(0 -2.99167e-12 0 -2.99167e-12 -6.36711e-14 0 0 0 0)
(0 2.62133e-13 0 2.62133e-13 6.25072e-14 0 0 0 0)
(0 2.01568e-13 0 2.01568e-13 -6.12047e-14 0 0 0 0)
(0 1.36745e-13 0 1.36745e-13 6.01475e-14 0 0 0 0)
(0 9.22318e-14 0 9.22318e-14 -5.89449e-14 0 0 0 0)
(0 6.18782e-14 0 6.18782e-14 5.79424e-14 0 0 0 0)
(0 4.08877e-14 0 4.08877e-14 -5.68159e-14 0 0 0 0)
(0 2.70393e-14 0 2.70393e-14 5.58676e-14 0 0 0 0)
(0 1.76275e-14 0 1.76275e-14 -5.47819e-14 0 0 0 0)
(0 1.12664e-14 0 1.12664e-14 5.38673e-14 0 0 0 0)
(3.7613e-20 7.25995e-15 0 7.25995e-15 -5.27912e-14 0 0 0 0)
(0 4.55729e-15 0 4.55729e-15 5.19145e-14 0 0 0 0)
(0 2.85729e-15 0 2.85729e-15 -5.08659e-14 0 0 0 0)
(0 1.73393e-15 0 1.73393e-15 4.99807e-14 0 0 0 0)
(0 1.02745e-15 0 1.02745e-15 -4.89386e-14 0 0 0 0)
(0 7.48763e-16 0 7.48763e-16 4.80563e-14 0 0 0 0)
(0 5.11716e-16 0 5.11716e-16 -4.70107e-14 0 0 0 0)
(0 2.08451e-16 0 2.08451e-16 4.61179e-14 0 0 0 0)
(0 2.86647e-17 0 2.86647e-17 -4.50695e-14 0 0 0 0)
(0 -1.17275e-16 0 -1.17275e-16 4.41572e-14 0 0 0 0)
(6.15319e-20 8.30373e-17 0 8.30373e-17 -4.31417e-14 0 0 0 0)
(0 2.0464e-16 0 2.0464e-16 4.21581e-14 0 0 0 0)
(0 2.19587e-17 0 2.19587e-17 -4.11399e-14 0 0 0 0)
(-5.79322e-20 -1.38893e-16 0 -1.38893e-16 4.01482e-14 0 0 0 0)
(0 1.24064e-17 0 1.24064e-17 -3.91093e-14 0 0 0 0)
(0 2.35261e-17 0 2.35261e-17 3.8084e-14 0 0 0 0)
(0 -1.1195e-17 0 -1.1195e-17 -3.70321e-14 0 0 0 0)
(0 1.66803e-16 0 1.66803e-16 3.59807e-14 0 0 0 0)
(0 -1.52233e-16 0 -1.52233e-16 -3.4904e-14 0 0 0 0)
(0 -2.70473e-16 0 -2.70473e-16 3.38221e-14 0 0 0 0)
(0 2.12622e-16 0 2.12622e-16 -3.2717e-14 0 0 0 0)
(0 3.14401e-16 0 3.14401e-16 3.16018e-14 0 0 0 0)
(0 -8.25302e-17 0 -8.25302e-17 -3.04626e-14 0 0 0 0)
(0 -2.72365e-16 0 -2.72365e-16 2.93379e-14 0 0 0 0)
(0 -1.53472e-16 0 -1.53472e-16 -3.22684e-14 0 0 0 0)
(0 -4.82809e-17 0 -4.82809e-17 3.18659e-14 0 0 0 0)
(0 5.34293e-17 0 5.34293e-17 -3.14862e-14 0 0 0 0)
(0 1.70862e-17 0 1.70862e-17 3.11071e-14 0 0 0 0)
(0 3.16182e-17 0 3.16182e-17 -3.07242e-14 0 0 0 0)
(0 5.47395e-17 0 5.47395e-17 3.034e-14 0 0 0 0)
(0 1.20967e-17 0 1.20967e-17 -2.99529e-14 0 0 0 0)
(0 -7.14684e-18 0 -7.14684e-18 2.95638e-14 0 0 0 0)
(0 -3.39343e-17 0 -3.39343e-17 -2.91718e-14 0 0 0 0)
(0 -1.14813e-16 0 -1.14813e-16 2.87765e-14 0 0 0 0)
(0 -5.59571e-17 0 -5.59571e-17 -2.83799e-14 0 0 0 0)
(0 1.20054e-16 0 1.20054e-16 2.79776e-14 0 0 0 0)
(0 6.11849e-17 0 6.11849e-17 -2.75752e-14 0 0 0 0)
(0 -4.52236e-17 0 -4.52236e-17 2.71657e-14 0 0 0 0)
(0 1.16599e-17 0 1.16599e-17 -2.67569e-14 0 0 0 0)
(0 -2.2764e-18 0 -2.2764e-18 2.63374e-14 0 0 0 0)
(0 1.27055e-17 0 1.27055e-17 -2.59239e-14 0 0 0 0)
(0 2.97785e-17 0 2.97785e-17 2.54859e-14 0 0 0 0)
(0 -5.00544e-17 0 -5.00544e-17 -2.50896e-14 0 0 0 0)
(0 1.15541e-17 0 1.15541e-17 2.46113e-14 0 0 0 0)
(0 3.05064e-17 0 3.05064e-17 -2.42254e-14 0 0 0 0)
(0 -5.42895e-17 0 -5.42895e-17 2.37335e-14 0 0 0 0)
(0 -4.19943e-17 0 -4.19943e-17 -2.33323e-14 0 0 0 0)
(0 5.46998e-17 0 5.46998e-17 2.28311e-14 0 0 0 0)
(0 1.2282e-17 0 1.2282e-17 -2.24015e-14 0 0 0 0)
(0 3.18961e-17 0 3.18961e-17 2.19018e-14 0 0 0 0)
(0 4.90088e-17 0 4.90088e-17 -2.14549e-14 0 0 0 0)
(0 -4.04723e-17 0 -4.04723e-17 2.09286e-14 0 0 0 0)
(0 -8.41871e-17 0 -8.41871e-17 -2.04525e-14 0 0 0 0)
(0 -1.48615e-16 0 -1.48615e-16 1.9936e-14 0 0 0 0)
(0 -3.78915e-16 0 -3.78915e-16 -1.94108e-14 0 0 0 0)
(0 -6.22569e-17 0 -6.22569e-17 1.8887e-14 0 0 0 0)
(0 3.61895e-16 0 3.61895e-16 -1.83038e-14 0 0 0 0)
(0 2.03433e-16 0 2.03433e-16 1.77834e-14 0 0 0 0)
(0 6.27466e-17 0 6.27466e-17 -1.71685e-14 0 0 0 0)
(0 1.91244e-17 0 1.91244e-17 1.65901e-14 0 0 0 0)
(0 4.09885e-17 0 4.09885e-17 -1.59292e-14 0 0 0 0)
(0 9.0659e-18 0 9.0659e-18 1.53471e-14 0 0 0 0)
(0 -2.3836e-17 0 -2.3836e-17 -1.45924e-14 0 0 0 0)
(0 -7.38242e-17 0 -7.38242e-17 1.39765e-14 0 0 0 0)
(0 1.70068e-17 0 1.70068e-17 -1.31246e-14 0 0 0 0)
(0 1.25573e-16 0 1.25573e-16 1.24689e-14 0 0 0 0)
(0 7.77285e-17 0 7.77285e-17 -1.14663e-14 0 0 0 0)
(0 -3.42122e-17 0 -3.42122e-17 1.07373e-14 0 0 0 0)
(0 -8.16063e-17 0 -8.16063e-17 -9.59857e-15 0 0 0 0)
(0 -8.85017e-17 0 -8.85017e-17 8.58201e-15 0 0 0 0)
(0 -5.09543e-17 0 -5.09543e-17 -7.20924e-15 0 0 0 0)
(0 4.66265e-17 0 4.66265e-17 5.57728e-15 0 0 0 0)
(0 -7.21963e-17 0 -7.21963e-17 -3.81579e-15 0 0 0 0)
(0 -1.05853e-16 0 -1.05853e-16 1.08415e-15 0 0 0 0)
)
;

boundaryField
{
    inandouthalf11
    {
        type            cyclic;
    }
    inandouthalf12
    {
        type            cyclic;
    }
    inandouthalf21
    {
        type            cyclic;
    }
    inandouthalf22
    {
        type            cyclic;
    }
    inandouthalf31
    {
        type            cyclic;
    }
    inandouthalf32
    {
        type            cyclic;
    }
    inandouthalf41
    {
        type            cyclic;
    }
    inandouthalf42
    {
        type            cyclic;
    }
    top
    {
        type            symmetryPlane;
    }
    walls
    {
        type            zeroGradient;
    }
    frontAndBackPlanes
    {
        type            empty;
    }
}


// ************************************************************************* //
