/*--------------------------------*- C++ -*----------------------------------*\
| =========                 |                                                 |
| \\      /  F ield         | OpenFOAM: The Open Source CFD Toolbox           |
|  \\    /   O peration     | Version:  2.4.x                                 |
|   \\  /    A nd           | Web:      www.OpenFOAM.org                      |
|    \\/     M anipulation  |                                                 |
\*---------------------------------------------------------------------------*/
FoamFile
{
    version     2.0;
    format      ascii;
    class       volScalarField;
    location    "10.45";
    object      Theta_0;
}
// * * * * * * * * * * * * * * * * * * * * * * * * * * * * * * * * * * * * * //

dimensions      [0 2 -2 0 0 0 0];

internalField   nonuniform List<scalar> 
360
(
6.6614e-21
6.66147e-21
6.66145e-21
6.66144e-21
6.66144e-21
6.66144e-21
6.66144e-21
6.66143e-21
6.66143e-21
6.66143e-21
6.66143e-21
6.66142e-21
6.66142e-21
6.66142e-21
6.66142e-21
6.66142e-21
6.66142e-21
6.66142e-21
6.66142e-21
6.66142e-21
6.66142e-21
6.66142e-21
6.66141e-21
6.66141e-21
6.66141e-21
6.66141e-21
6.66141e-21
6.66141e-21
6.66141e-21
6.66141e-21
6.66141e-21
6.66141e-21
6.66141e-21
6.66141e-21
6.66142e-21
6.66142e-21
6.66142e-21
6.66142e-21
6.66142e-21
6.66142e-21
6.66142e-21
6.66142e-21
6.66142e-21
6.66142e-21
6.66142e-21
6.66142e-21
6.66142e-21
6.66142e-21
6.66142e-21
6.66142e-21
6.66142e-21
6.66142e-21
6.66142e-21
6.66142e-21
6.66142e-21
6.66142e-21
6.66142e-21
6.66142e-21
6.66142e-21
6.66142e-21
6.66142e-21
6.66141e-21
6.66141e-21
6.66141e-21
6.66141e-21
6.66141e-21
6.66141e-21
6.66141e-21
6.66141e-21
6.66141e-21
6.66141e-21
6.66141e-21
6.66141e-21
6.6614e-21
6.6614e-21
6.6614e-21
6.6614e-21
6.6614e-21
6.6614e-21
6.6614e-21
6.6614e-21
6.66139e-21
6.66139e-21
6.66139e-21
6.66139e-21
6.66139e-21
6.66138e-21
6.66138e-21
6.66138e-21
6.66138e-21
6.66138e-21
6.66137e-21
6.66137e-21
6.66137e-21
6.66137e-21
6.66137e-21
6.66136e-21
6.66136e-21
6.66136e-21
6.66136e-21
6.66135e-21
6.66135e-21
6.66135e-21
6.66134e-21
6.66134e-21
6.66134e-21
6.66134e-21
6.66133e-21
6.66133e-21
6.66133e-21
6.66132e-21
6.66132e-21
6.66132e-21
6.66132e-21
6.66131e-21
6.66131e-21
6.66131e-21
6.66131e-21
6.6613e-21
6.6613e-21
6.6613e-21
6.66129e-21
6.66129e-21
6.66128e-21
6.66128e-21
6.66128e-21
8.62879e-21
2.27944e-20
6.3603e-20
1.72932e-19
4.55664e-19
1.16334e-18
2.87882e-18
6.91557e-18
1.61793e-17
3.70713e-17
8.4246e-17
1.96444e-16
5.06532e-16
1.60956e-15
6.75034e-15
3.65367e-14
2.66582e-13
1.97985e-12
1.53421e-11
1.63605e-10
2.45705e-09
6.02057e-08
1.95929e-06
5.3302e-05
0.000418165
0.000900851
0.00130926
0.00166235
0.00197457
0.00225636
0.002514
0.0027514
0.00297119
0.0031753
0.00336523
0.00354213
0.00370701
0.0038607
0.00400393
0.00413736
0.00426156
0.00437706
0.00448433
0.00458383
0.00467593
0.00476102
0.00483944
0.00491149
0.00497748
0.00503766
0.00509229
0.00514159
0.00518578
0.00522505
0.00525958
0.00528954
0.00531509
0.00533636
0.00535348
0.00536659
0.0053758
0.0053812
0.00538292
0.00538103
0.00537564
0.00536683
0.00535469
0.0053393
0.00532075
0.00529912
0.00527451
0.00524698
0.00521665
0.00518358
0.00514787
0.00510924
0.00506725
0.00502182
0.00497287
0.00492034
0.00486413
0.00480416
0.00474036
0.00467264
0.00460092
0.00452511
0.00444514
0.00436091
0.00427232
0.00417928
0.00408167
0.00397935
0.00387217
0.00375995
0.00364248
0.0035195
0.00339072
0.00325578
0.00311424
0.00296559
0.00280919
0.00264425
0.00246977
0.00228447
0.00208665
0.00187398
0.00164306
0.00138858
0.0011012
0.000760582
0
0
0
0
0
0
0
0
0
0
0
0
0
0
0
0
0
0
0
0
0
0
0
0
0
0
0
0
0
0
0
0
0
0
0
0
0
0
0
0
0
0
0
0
0
0
0
0
0
0
0
0
0
0
0
0
0
0
0
0
0
0
0
0
0
0
0
0
0
0
0
0
0
0
0
0
0
0
0
0
0
0
0
0
0
0
0
0
0
0
0
0
0
0
0
0
0
0
0
0
0
0
0
0
0
0
0
0
0
0
0
0
0
0
0
0
0
0
0
0
0
0
0
0
)
;

boundaryField
{
    inandouthalf11
    {
        type            cyclic;
    }
    inandouthalf12
    {
        type            cyclic;
    }
    inandouthalf21
    {
        type            cyclic;
    }
    inandouthalf22
    {
        type            cyclic;
    }
    inandouthalf31
    {
        type            cyclic;
    }
    inandouthalf32
    {
        type            cyclic;
    }
    inandouthalf41
    {
        type            cyclic;
    }
    inandouthalf42
    {
        type            cyclic;
    }
    top
    {
        type            symmetryPlane;
    }
    walls
    {
        type            zeroGradient;
    }
    frontAndBackPlanes
    {
        type            empty;
    }
}


// ************************************************************************* //
