/*--------------------------------*- C++ -*----------------------------------*\
| =========                 |                                                 |
| \\      /  F ield         | OpenFOAM: The Open Source CFD Toolbox           |
|  \\    /   O peration     | Version:  2.4.x                                 |
|   \\  /    A nd           | Web:      www.OpenFOAM.org                      |
|    \\/     M anipulation  |                                                 |
\*---------------------------------------------------------------------------*/
FoamFile
{
    version     2.0;
    format      ascii;
    class       volVectorField;
    location    "10.45";
    object      Ua_0;
}
// * * * * * * * * * * * * * * * * * * * * * * * * * * * * * * * * * * * * * //

dimensions      [0 1 -1 0 0 0 0];

internalField   nonuniform List<vector> 
360
(
(-1.21859e-32 -1.03791e-31 0)
(-2.15968e-09 -1.30432e-08 0)
(-4.39921e-09 -2.30331e-08 0)
(-6.32706e-09 -3.15503e-08 0)
(-8.21061e-09 -4.02518e-08 0)
(-1.00907e-08 -4.90458e-08 0)
(-1.19193e-08 -5.76166e-08 0)
(-1.36794e-08 -6.59102e-08 0)
(-1.53765e-08 -7.39662e-08 0)
(-1.70191e-08 -8.18215e-08 0)
(-1.8614e-08 -8.95044e-08 0)
(-2.01662e-08 -9.70355e-08 0)
(-2.16802e-08 -1.04432e-07 0)
(-2.31599e-08 -1.11711e-07 0)
(-2.46097e-08 -1.18892e-07 0)
(-2.60337e-08 -1.25993e-07 0)
(-2.74361e-08 -1.33032e-07 0)
(-2.88205e-08 -1.40027e-07 0)
(-3.01902e-08 -1.46994e-07 0)
(-3.15483e-08 -1.53948e-07 0)
(-3.28977e-08 -1.60901e-07 0)
(-3.42409e-08 -1.67867e-07 0)
(-3.55803e-08 -1.74858e-07 0)
(-3.69178e-08 -1.81885e-07 0)
(-3.82554e-08 -1.88958e-07 0)
(-3.95946e-08 -1.96085e-07 0)
(-4.09367e-08 -2.03273e-07 0)
(-4.22829e-08 -2.10531e-07 0)
(-4.36342e-08 -2.17864e-07 0)
(-4.49913e-08 -2.25278e-07 0)
(-4.63547e-08 -2.32775e-07 0)
(-4.77249e-08 -2.40361e-07 0)
(-4.91023e-08 -2.48038e-07 0)
(-5.04869e-08 -2.55809e-07 0)
(-5.1879e-08 -2.63676e-07 0)
(-5.32783e-08 -2.71639e-07 0)
(-5.46847e-08 -2.797e-07 0)
(-5.60979e-08 -2.87858e-07 0)
(-5.75179e-08 -2.96115e-07 0)
(-5.89441e-08 -3.0447e-07 0)
(-6.0376e-08 -3.12921e-07 0)
(-6.18134e-08 -3.2147e-07 0)
(-6.32555e-08 -3.30113e-07 0)
(-6.47017e-08 -3.38848e-07 0)
(-6.61517e-08 -3.47677e-07 0)
(-6.76048e-08 -3.56596e-07 0)
(-6.90603e-08 -3.65604e-07 0)
(-7.05173e-08 -3.74696e-07 0)
(-7.19751e-08 -3.83869e-07 0)
(-7.34334e-08 -3.93126e-07 0)
(-7.48913e-08 -4.02461e-07 0)
(-7.63479e-08 -4.11871e-07 0)
(-7.78026e-08 -4.21354e-07 0)
(-7.92547e-08 -4.30907e-07 0)
(-8.07032e-08 -4.40526e-07 0)
(-8.21477e-08 -4.50209e-07 0)
(-8.35872e-08 -4.59954e-07 0)
(-8.5021e-08 -4.69755e-07 0)
(-8.64481e-08 -4.79609e-07 0)
(-8.78677e-08 -4.89511e-07 0)
(-8.92792e-08 -4.99459e-07 0)
(-9.06819e-08 -5.09451e-07 0)
(-9.20751e-08 -5.19482e-07 0)
(-9.34582e-08 -5.29551e-07 0)
(-9.48303e-08 -5.39652e-07 0)
(-9.61905e-08 -5.49781e-07 0)
(-9.75382e-08 -5.59934e-07 0)
(-9.88726e-08 -5.70108e-07 0)
(-1.00193e-07 -5.80297e-07 0)
(-1.01498e-07 -5.90495e-07 0)
(-1.02788e-07 -6.007e-07 0)
(-1.04062e-07 -6.10912e-07 0)
(-1.05319e-07 -6.21124e-07 0)
(-1.06559e-07 -6.31331e-07 0)
(-1.0778e-07 -6.41532e-07 0)
(-1.08984e-07 -6.51724e-07 0)
(-1.10168e-07 -6.61902e-07 0)
(-1.11332e-07 -6.72058e-07 0)
(-1.12476e-07 -6.82188e-07 0)
(-1.13599e-07 -6.9229e-07 0)
(-1.14699e-07 -7.02357e-07 0)
(-1.15778e-07 -7.12386e-07 0)
(-1.16834e-07 -7.22374e-07 0)
(-1.17867e-07 -7.32318e-07 0)
(-1.18877e-07 -7.42217e-07 0)
(-1.19862e-07 -7.52065e-07 0)
(-1.20824e-07 -7.6186e-07 0)
(-1.21761e-07 -7.71596e-07 0)
(-1.22672e-07 -7.81268e-07 0)
(-1.23558e-07 -7.90872e-07 0)
(-1.24418e-07 -8.00403e-07 0)
(-1.25251e-07 -8.09858e-07 0)
(-1.26058e-07 -8.19233e-07 0)
(-1.26838e-07 -8.28528e-07 0)
(-1.2759e-07 -8.37739e-07 0)
(-1.28316e-07 -8.46865e-07 0)
(-1.29014e-07 -8.55904e-07 0)
(-1.29684e-07 -8.64853e-07 0)
(-1.30327e-07 -8.73709e-07 0)
(-1.30941e-07 -8.8247e-07 0)
(-1.31527e-07 -8.91134e-07 0)
(-1.32085e-07 -8.99698e-07 0)
(-1.32614e-07 -9.08161e-07 0)
(-1.33114e-07 -9.16525e-07 0)
(-1.33586e-07 -9.24787e-07 0)
(-1.34028e-07 -9.32951e-07 0)
(-1.34441e-07 -9.41016e-07 0)
(-1.34825e-07 -9.48986e-07 0)
(-1.35179e-07 -9.56865e-07 0)
(-1.35504e-07 -9.64655e-07 0)
(-1.35798e-07 -9.72364e-07 0)
(-1.36061e-07 -9.79997e-07 0)
(-1.36292e-07 -9.8756e-07 0)
(-1.36491e-07 -9.95062e-07 0)
(-1.36655e-07 -1.00251e-06 0)
(-1.36785e-07 -1.0099e-06 0)
(-1.36877e-07 -1.01725e-06 0)
(-1.36929e-07 -1.02455e-06 0)
(-1.3694e-07 -1.03179e-06 0)
(-1.36908e-07 -1.03897e-06 0)
(-1.36829e-07 -1.04608e-06 0)
(-1.36702e-07 -1.05309e-06 0)
(-1.36526e-07 -1.05997e-06 0)
(-1.36299e-07 -1.06671e-06 0)
(-1.36021e-07 -1.07329e-06 0)
(-1.3569e-07 -1.07969e-06 0)
(-1.35305e-07 -1.08594e-06 0)
(-1.34861e-07 -1.09206e-06 0)
(-1.34347e-07 -1.09814e-06 0)
(-1.33746e-07 -1.10427e-06 0)
(-1.3303e-07 -1.1106e-06 0)
(-1.32159e-07 -1.11729e-06 0)
(-1.31074e-07 -1.12453e-06 0)
(-1.29703e-07 -1.1325e-06 0)
(-1.27977e-07 -1.14125e-06 0)
(-1.25889e-07 -1.15052e-06 0)
(-1.23593e-07 -1.1595e-06 0)
(-1.21455e-07 -1.16688e-06 0)
(-1.19912e-07 -1.17163e-06 0)
(-1.19164e-07 -1.17374e-06 0)
(-1.18975e-07 -1.17426e-06 0)
(-1.18954e-07 -1.17435e-06 0)
(-1.19e-07 -1.17445e-06 0)
(-7.4659e-07 -2.28913e-06 0)
(-1.68424e-06 -3.40594e-06 0)
(-2.88554e-06 -4.69225e-06 0)
(-4.74335e-06 -6.51807e-06 0)
(-8.24036e-06 -9.11248e-06 0)
(-1.88463e-05 -1.35588e-05 0)
(-0.000190697 -4.62626e-05 0)
(-0.0491368 -0.00329457 0)
(-0.0641146 -0.00667471 0)
(-0.0663871 -0.00995323 0)
(-0.0648486 -0.0127005 0)
(-0.0617163 -0.0147496 0)
(-0.0577537 -0.0161848 0)
(-0.0532955 -0.0171896 0)
(-0.0485165 -0.0178888 0)
(-0.0435199 -0.0183598 0)
(-0.0383715 -0.0186564 0)
(-0.0331169 -0.0188184 0)
(-0.0277883 -0.0188748 0)
(-0.02241 -0.0188477 0)
(-0.0170002 -0.0187539 0)
(-0.0115731 -0.0186063 0)
(-0.00613998 -0.0184151 0)
(-0.000709661 -0.0181885 0)
(0.00471072 -0.0179329 0)
(0.0101154 -0.0176535 0)
(0.0154997 -0.0173547 0)
(0.0208599 -0.0170399 0)
(0.0261927 -0.016712 0)
(0.0314957 -0.0163734 0)
(0.0367665 -0.0160261 0)
(0.0420033 -0.0156719 0)
(0.0472046 -0.015312 0)
(0.0523689 -0.0149477 0)
(0.0574948 -0.0145801 0)
(0.0625811 -0.01421 0)
(0.0676266 -0.0138381 0)
(0.07263 -0.0134651 0)
(0.07759 -0.0130917 0)
(0.0825054 -0.0127182 0)
(0.0873745 -0.0123453 0)
(0.0921958 -0.0119733 0)
(0.0969677 -0.0116026 0)
(0.101688 -0.0112337 0)
(0.106355 -0.0108669 0)
(0.110967 -0.0105027 0)
(0.11552 -0.0101415 0)
(0.120013 -0.00978382 0)
(0.124443 -0.00943011 0)
(0.128806 -0.00908099 0)
(0.1331 -0.00873713 0)
(0.137321 -0.00839931 0)
(0.141467 -0.00806839 0)
(0.145532 -0.00774534 0)
(0.149515 -0.0074312 0)
(0.15341 -0.00712703 0)
(0.157214 -0.00683386 0)
(0.160924 -0.00655255 0)
(0.164572 -0.00628095 0)
(0.168192 -0.00601704 0)
(0.171778 -0.005761 0)
(0.175328 -0.00551222 0)
(0.178836 -0.00526917 0)
(0.182299 -0.0050293 0)
(0.185712 -0.00478926 0)
(0.18907 -0.0045452 0)
(0.19237 -0.00429338 0)
(0.195606 -0.00403077 0)
(0.198774 -0.00375565 0)
(0.20187 -0.00346773 0)
(0.204887 -0.00316818 0)
(0.207822 -0.00285949 0)
(0.210668 -0.00254541 0)
(0.213422 -0.00223079 0)
(0.216077 -0.00192131 0)
(0.21863 -0.00162304 0)
(0.221078 -0.00134175 0)
(0.223418 -0.0010822 0)
(0.225648 -0.00084763 0)
(0.227768 -0.000639488 0)
(0.229778 -0.000457582 0)
(0.231676 -0.000300473 0)
(0.233465 -0.000166078 0)
(0.235142 -5.19228e-05 0)
(0.236709 4.39109e-05 0)
(0.238165 0.000123692 0)
(0.239509 0.00018787 0)
(0.240739 0.000238276 0)
(0.241853 0.00027303 0)
(0.242844 0.000294077 0)
(0.243705 0.000295194 0)
(0.244419 0.000278237 0)
(0.244966 0.000226996 0)
(0.245538 0.000136205 0)
(0.321596 0.000569086 0)
(0.32454 0.0010855 0)
(0.32695 0.00124932 0)
(0.32906 0.00143831 0)
(0.330869 0.0014206 0)
(0.332363 0.00160168 0)
(0.333569 0.000969993 0)
(0.334453 0.00167183 0)
(0.335091 -8.24105e-05 0)
(0.335434 0.00172571 0)
(0.335569 -0.00137182 0)
(0.335485 0.00162289 0)
(0.33515 -0.00322736 0)
(0.334725 0.00260938 0)
(0.33292 -0.0160259 0)
(0.331184 -0.0387673 0)
(0.330252 -0.0395519 0)
(0.329319 -0.0394956 0)
(0.328285 -0.0394993 0)
(0.327174 -0.0394992 0)
(0.325996 -0.0394997 0)
(0.324762 -0.0395002 0)
(0.323482 -0.0395009 0)
(0.322167 -0.0395015 0)
(0.320828 -0.0395021 0)
(0.319476 -0.0395026 0)
(0.318123 -0.0395029 0)
(0.316781 -0.039503 0)
(0.315465 -0.0395028 0)
(0.314187 -0.0395024 0)
(0.312964 -0.0395015 0)
(0.311813 -0.0395002 0)
(0.310754 -0.0394983 0)
(0.30981 -0.0394957 0)
(0.309005 -0.039492 0)
(0.30838 -0.039485 0)
(0.308087 -0.0394756 0)
(0.308044 -0.0394706 0)
(0.308043 -0.0394699 0)
(0.308043 -0.0394699 0)
(0.308043 -0.0394699 0)
(0.308043 -0.0394699 0)
(0.308043 -0.0394699 0)
(0.308043 -0.0394699 0)
(0.308043 -0.0394699 0)
(0.308043 -0.0394699 0)
(0.308043 -0.0394699 0)
(0.308043 -0.0394699 0)
(0.308043 -0.0394699 0)
(0.308043 -0.0394699 0)
(0.308043 -0.0394699 0)
(0.308043 -0.0394699 0)
(0.308043 -0.0394699 0)
(0.308043 -0.0394699 0)
(0.308043 -0.0394699 0)
(0.308043 -0.0394699 0)
(0.308043 -0.0394699 0)
(0.308043 -0.0394699 0)
(0.308043 -0.0394699 0)
(0.308043 -0.0394699 0)
(0.308043 -0.0394699 0)
(0.308043 -0.0394699 0)
(0.308043 -0.0394699 0)
(0.308043 -0.0394699 0)
(0.308043 -0.0394699 0)
(0.308043 -0.0394699 0)
(0.308043 -0.0394699 0)
(0.308043 -0.0394699 0)
(0.308043 -0.0394699 0)
(0.308043 -0.0394699 0)
(0.308043 -0.0394699 0)
(0.308043 -0.0394699 0)
(0.308043 -0.0394699 0)
(0.308043 -0.0394699 0)
(0.308043 -0.0394699 0)
(0.308043 -0.0394699 0)
(0.308043 -0.0394699 0)
(0.308043 -0.0394699 0)
(0.308043 -0.0394699 0)
(0.308043 -0.0394699 0)
(0.308043 -0.0394699 0)
(0.308043 -0.0394699 0)
(0.308043 -0.0394699 0)
(0.308043 -0.0394699 0)
(0.308043 -0.0394699 0)
(0.308043 -0.0394699 0)
(0.308043 -0.0394699 0)
(0.308043 -0.0394699 0)
(0.308043 -0.0394699 0)
(0.308043 -0.0394699 0)
(0.308043 -0.0394699 0)
(0.308043 -0.0394699 0)
(0.308043 -0.0394699 0)
(0.308043 -0.0394699 0)
(0.308043 -0.0394699 0)
(0.308043 -0.0394699 0)
(0.308043 -0.0394699 0)
(0.308043 -0.0394699 0)
(0.308043 -0.0394699 0)
(0.308043 -0.0394699 0)
(0.308043 -0.0394699 0)
(0.308043 -0.0394699 0)
(0.308043 -0.0394699 0)
(0.308043 -0.0394699 0)
(0.308043 -0.0394699 0)
(0.308043 -0.0394699 0)
(0.308043 -0.0394699 0)
(0.308043 -0.0394699 0)
(0.308043 -0.0394699 0)
(0.308043 -0.0394699 0)
(0.308043 -0.0394699 0)
(0.308043 -0.0394699 0)
(0.308043 -0.0394699 0)
(0.308043 -0.0394699 0)
(0.308043 -0.0394699 0)
(0.308043 -0.0394699 0)
(0.308043 -0.0394699 0)
(0.308043 -0.0394699 0)
(0.308043 -0.0394699 0)
(0.308043 -0.0394697 0)
(0.308045 -0.0394612 0)
(0.30808 -0.0391148 0)
(0.3089 -0.022344 0)
)
;

boundaryField
{
    inandouthalf11
    {
        type            cyclic;
    }
    inandouthalf12
    {
        type            cyclic;
    }
    inandouthalf21
    {
        type            cyclic;
    }
    inandouthalf22
    {
        type            cyclic;
    }
    inandouthalf31
    {
        type            cyclic;
    }
    inandouthalf32
    {
        type            cyclic;
    }
    inandouthalf41
    {
        type            cyclic;
    }
    inandouthalf42
    {
        type            cyclic;
    }
    top
    {
        type            symmetryPlane;
    }
    walls
    {
        type            fixedValue;
        value           uniform (0 0 0);
    }
    frontAndBackPlanes
    {
        type            empty;
    }
}


// ************************************************************************* //
