/*--------------------------------*- C++ -*----------------------------------*\
| =========                 |                                                 |
| \\      /  F ield         | OpenFOAM: The Open Source CFD Toolbox           |
|  \\    /   O peration     | Version:  2.4.x                                 |
|   \\  /    A nd           | Web:      www.OpenFOAM.org                      |
|    \\/     M anipulation  |                                                 |
\*---------------------------------------------------------------------------*/
FoamFile
{
    version     2.0;
    format      ascii;
    class       volVectorField;
    location    "10.45";
    object      Ur;
}
// * * * * * * * * * * * * * * * * * * * * * * * * * * * * * * * * * * * * * //

dimensions      [0 1 -1 0 0 0 0];

internalField   nonuniform List<vector> 
360
(
(-0.00027527 5.48408e-09 0)
(-0.00027374 3.2383e-08 0)
(-0.000273532 5.82711e-08 0)
(-0.000273739 8.1203e-08 0)
(-0.000273836 1.03727e-07 0)
(-0.000273867 1.26228e-07 0)
(-0.000273906 1.4825e-07 0)
(-0.000273957 1.69612e-07 0)
(-0.000274008 1.90362e-07 0)
(-0.000274061 2.10586e-07 0)
(-0.000274113 2.30361e-07 0)
(-0.000274166 2.49741e-07 0)
(-0.000274219 2.68772e-07 0)
(-0.000274273 2.875e-07 0)
(-0.000274327 3.0597e-07 0)
(-0.000274382 3.24232e-07 0)
(-0.000274437 3.42334e-07 0)
(-0.000274493 3.60319e-07 0)
(-0.000274549 3.78228e-07 0)
(-0.000274607 3.96099e-07 0)
(-0.000274664 4.13967e-07 0)
(-0.000274723 4.31864e-07 0)
(-0.000274781 4.49823e-07 0)
(-0.000274841 4.67871e-07 0)
(-0.000274901 4.86033e-07 0)
(-0.000274962 5.04331e-07 0)
(-0.000275023 5.22785e-07 0)
(-0.000275086 5.41413e-07 0)
(-0.000275149 5.60231e-07 0)
(-0.000275212 5.79252e-07 0)
(-0.000275276 5.98486e-07 0)
(-0.000275341 6.17944e-07 0)
(-0.000275407 6.37632e-07 0)
(-0.000275474 6.57558e-07 0)
(-0.00027554 6.77726e-07 0)
(-0.000275608 6.9814e-07 0)
(-0.000275677 7.18798e-07 0)
(-0.000275746 7.39704e-07 0)
(-0.000275817 7.60862e-07 0)
(-0.000275887 7.82263e-07 0)
(-0.00027596 8.0391e-07 0)
(-0.000276032 8.25803e-07 0)
(-0.000276105 8.47931e-07 0)
(-0.00027618 8.70295e-07 0)
(-0.000276255 8.92893e-07 0)
(-0.000276332 9.15717e-07 0)
(-0.000276409 9.38765e-07 0)
(-0.000276486 9.62024e-07 0)
(-0.000276565 9.85487e-07 0)
(-0.000276646 1.00916e-06 0)
(-0.000276726 1.03303e-06 0)
(-0.000276808 1.05708e-06 0)
(-0.000276891 1.08132e-06 0)
(-0.000276975 1.10573e-06 0)
(-0.000277059 1.1303e-06 0)
(-0.000277146 1.15504e-06 0)
(-0.000277232 1.17992e-06 0)
(-0.000277321 1.20494e-06 0)
(-0.00027741 1.23009e-06 0)
(-0.0002775 1.25536e-06 0)
(-0.000277592 1.28074e-06 0)
(-0.000277684 1.30622e-06 0)
(-0.000277779 1.33181e-06 0)
(-0.000277874 1.35747e-06 0)
(-0.000277971 1.38322e-06 0)
(-0.000278069 1.40902e-06 0)
(-0.000278168 1.43488e-06 0)
(-0.000278269 1.46079e-06 0)
(-0.000278371 1.48673e-06 0)
(-0.000278474 1.51268e-06 0)
(-0.00027858 1.53865e-06 0)
(-0.000278687 1.56462e-06 0)
(-0.000278794 1.59058e-06 0)
(-0.000278904 1.61652e-06 0)
(-0.000279016 1.64244e-06 0)
(-0.000279129 1.66833e-06 0)
(-0.000279244 1.69416e-06 0)
(-0.00027936 1.71994e-06 0)
(-0.000279479 1.74564e-06 0)
(-0.000279599 1.77125e-06 0)
(-0.000279721 1.79676e-06 0)
(-0.000279846 1.82217e-06 0)
(-0.000279972 1.84746e-06 0)
(-0.000280101 1.87263e-06 0)
(-0.000280231 1.89767e-06 0)
(-0.000280364 1.92257e-06 0)
(-0.0002805 1.94732e-06 0)
(-0.000280637 1.97191e-06 0)
(-0.000280777 1.99633e-06 0)
(-0.00028092 2.02055e-06 0)
(-0.000281065 2.04458e-06 0)
(-0.000281213 2.0684e-06 0)
(-0.000281364 2.092e-06 0)
(-0.000281518 2.11538e-06 0)
(-0.000281675 2.13854e-06 0)
(-0.000281835 2.16146e-06 0)
(-0.000281998 2.18414e-06 0)
(-0.000282164 2.20658e-06 0)
(-0.000282334 2.22877e-06 0)
(-0.000282508 2.2507e-06 0)
(-0.000282685 2.27236e-06 0)
(-0.000282867 2.29375e-06 0)
(-0.000283052 2.31487e-06 0)
(-0.000283241 2.33571e-06 0)
(-0.000283435 2.35628e-06 0)
(-0.000283634 2.37657e-06 0)
(-0.000283837 2.39659e-06 0)
(-0.000284045 2.41636e-06 0)
(-0.000284258 2.43586e-06 0)
(-0.000284477 2.45512e-06 0)
(-0.000284701 2.47415e-06 0)
(-0.000284931 2.49297e-06 0)
(-0.000285167 2.51158e-06 0)
(-0.00028541 2.53001e-06 0)
(-0.000285659 2.54826e-06 0)
(-0.000285915 2.56636e-06 0)
(-0.000286179 2.58431e-06 0)
(-0.00028645 2.6021e-06 0)
(-0.000286729 2.61973e-06 0)
(-0.000287017 2.63715e-06 0)
(-0.000287314 2.65435e-06 0)
(-0.00028762 2.67125e-06 0)
(-0.000287937 2.68781e-06 0)
(-0.000288264 2.70396e-06 0)
(-0.000288603 2.71966e-06 0)
(-0.000288954 2.73489e-06 0)
(-0.000289318 2.74968e-06 0)
(-0.000289696 2.76412e-06 0)
(-0.000290089 2.7784e-06 0)
(-0.000290499 2.79278e-06 0)
(-0.000290926 2.8076e-06 0)
(-0.000291371 2.82328e-06 0)
(-0.000291837 2.84027e-06 0)
(-0.000292328 2.85895e-06 0)
(-0.00029285 2.8794e-06 0)
(-0.000293404 2.90084e-06 0)
(-0.000293988 2.92121e-06 0)
(-0.000294612 2.93748e-06 0)
(-0.000295307 2.94728e-06 0)
(-0.000296104 2.95066e-06 0)
(-0.000296968 2.94972e-06 0)
(-0.000297976 2.91052e-06 0)
(-0.000305613 3.38039e-06 0)
(-0.000304826 5.70935e-06 0)
(-0.000306284 8.45774e-06 0)
(-0.000308786 1.17952e-05 0)
(-0.000311562 1.58977e-05 0)
(-0.00031497 2.86633e-05 0)
(-0.000323528 9.12168e-06 0)
(-0.00184988 0.000166103 0)
(-0.0112034 0.00421474 0)
(-0.0076092 0.00682292 0)
(-0.00646938 0.0103173 0)
(-0.00624787 0.0129646 0)
(-0.00631054 0.0149945 0)
(-0.00645263 0.0164121 0)
(-0.00660443 0.017399 0)
(-0.00674268 0.0180815 0)
(-0.00686107 0.0185373 0)
(-0.00695953 0.0188202 0)
(-0.00704014 0.0189696 0)
(-0.00710555 0.0190145 0)
(-0.00715841 0.0189768 0)
(-0.00720109 0.0188732 0)
(-0.00723571 0.0187167 0)
(-0.00726408 0.0185172 0)
(-0.00728778 0.0182829 0)
(-0.00730812 0.0180202 0)
(-0.00732626 0.0177343 0)
(-0.00734317 0.0174294 0)
(-0.00735967 0.017109 0)
(-0.00737642 0.0167759 0)
(-0.00739397 0.0164325 0)
(-0.00741272 0.0160807 0)
(-0.00743294 0.0157223 0)
(-0.00745477 0.0153586 0)
(-0.00747821 0.0149908 0)
(-0.00750311 0.0146198 0)
(-0.00752917 0.0142466 0)
(-0.00755592 0.0138719 0)
(-0.00758273 0.0134963 0)
(-0.0076088 0.0131204 0)
(-0.00763313 0.0127447 0)
(-0.00765454 0.0123697 0)
(-0.00767166 0.0119958 0)
(-0.00768289 0.0116233 0)
(-0.00768646 0.0112528 0)
(-0.00768038 0.0108845 0)
(-0.00766244 0.0105189 0)
(-0.00763023 0.0101564 0)
(-0.00758114 0.00979747 0)
(-0.00751237 0.00944266 0)
(-0.00742091 0.00909254 0)
(-0.00730357 0.00874776 0)
(-0.00715702 0.00840909 0)
(-0.00697773 0.0080774 0)
(-0.00676208 0.00775364 0)
(-0.0065063 0.00743885 0)
(-0.00620652 0.00713409 0)
(-0.00585885 0.00684038 0)
(-0.00545933 0.00655857 0)
(-0.00500009 0.00628651 0)
(-0.00447288 0.00602218 0)
(-0.00387414 0.00576576 0)
(-0.0032002 0.00551663 0)
(-0.00244741 0.00527325 0)
(-0.00161211 0.0050331 0)
(-0.000690757 0.00479281 0)
(0.000320086 0.00454853 0)
(0.00142368 0.00429652 0)
(0.00262316 0.00403375 0)
(0.00392158 0.00375849 0)
(0.00532196 0.00347045 0)
(0.00682728 0.00317079 0)
(0.00844036 0.00286201 0)
(0.0101637 0.00254785 0)
(0.0119994 0.00223315 0)
(0.0139488 0.00192361 0)
(0.0160119 0.00162527 0)
(0.0181879 0.00134391 0)
(0.0204742 0.0010843 0)
(0.022867 0.000849662 0)
(0.0253609 0.000641452 0)
(0.0279493 0.000459479 0)
(0.0306243 0.000302303 0)
(0.033377 0.000167843 0)
(0.0361976 5.36233e-05 0)
(0.0390752 -4.22718e-05 0)
(0.0419981 -0.000122111 0)
(0.0449531 -0.000186346 0)
(0.0479277 -0.000236805 0)
(0.0509067 -0.000271609 0)
(0.0538796 -0.000292705 0)
(0.0568321 -0.000293867 0)
(0.0597613 -0.000276955 0)
(0.0626641 -0.000225761 0)
(0.0653257 -0.000135029 0)
(-0.00773842 -0.000569112 0)
(-0.00795118 -0.00108488 0)
(-0.00791197 -0.00124946 0)
(-0.00787064 -0.0014386 0)
(-0.0078344 -0.00142144 0)
(-0.00779368 -0.00160248 0)
(-0.00777148 -0.000971711 0)
(-0.00772416 -0.00167312 0)
(-0.00770925 8.01352e-05 0)
(-0.00765863 -0.00172762 0)
(-0.0076357 0.00137082 0)
(-0.00760582 -0.00162532 0)
(-0.007515 0.00322408 0)
(-0.00750201 -0.00260918 0)
(-0.00625969 0.0160298 0)
(-0.00522061 0.0387684 0)
(-0.00510462 0.0395518 0)
(-0.00509141 0.0394956 0)
(-0.00507092 0.0394993 0)
(-0.00505468 0.0394992 0)
(-0.0050414 0.0394997 0)
(-0.00503094 0.0395002 0)
(-0.00502316 0.0395009 0)
(-0.00501795 0.0395015 0)
(-0.00501522 0.0395021 0)
(-0.00501492 0.0395026 0)
(-0.00501704 0.0395029 0)
(-0.00502159 0.039503 0)
(-0.00502861 0.0395028 0)
(-0.0050382 0.0395024 0)
(-0.00505048 0.0395015 0)
(-0.00506564 0.0395002 0)
(-0.00508394 0.0394983 0)
(-0.00510563 0.0394957 0)
(-0.0051284 0.039492 0)
(-0.00516173 0.039485 0)
(-0.00522636 0.0394756 0)
(-0.00523917 0.0394707 0)
(-0.00523956 0.0394699 0)
(-0.00523956 0.0394699 0)
(-0.00523956 0.0394699 0)
(-0.00523956 0.0394699 0)
(-0.00523956 0.0394699 0)
(-0.00523956 0.0394699 0)
(-0.00523956 0.0394699 0)
(-0.00523956 0.0394699 0)
(-0.00523956 0.0394699 0)
(-0.00523956 0.0394699 0)
(-0.00523956 0.0394699 0)
(-0.00523956 0.0394699 0)
(-0.00523956 0.0394699 0)
(-0.00523956 0.0394699 0)
(-0.00523956 0.0394699 0)
(-0.00523956 0.0394699 0)
(-0.00523956 0.0394699 0)
(-0.00523956 0.0394699 0)
(-0.00523956 0.0394699 0)
(-0.00523956 0.0394699 0)
(-0.00523956 0.0394699 0)
(-0.00523956 0.0394699 0)
(-0.00523956 0.0394699 0)
(-0.00523956 0.0394699 0)
(-0.00523956 0.0394699 0)
(-0.00523956 0.0394699 0)
(-0.00523956 0.0394699 0)
(-0.00523956 0.0394699 0)
(-0.00523956 0.0394699 0)
(-0.00523956 0.0394699 0)
(-0.00523956 0.0394699 0)
(-0.00523956 0.0394699 0)
(-0.00523956 0.0394699 0)
(-0.00523956 0.0394699 0)
(-0.00523956 0.0394699 0)
(-0.00523956 0.0394699 0)
(-0.00523956 0.0394699 0)
(-0.00523956 0.0394699 0)
(-0.00523956 0.0394699 0)
(-0.00523956 0.0394699 0)
(-0.00523956 0.0394699 0)
(-0.00523956 0.0394699 0)
(-0.00523956 0.0394699 0)
(-0.00523956 0.0394699 0)
(-0.00523956 0.0394699 0)
(-0.00523956 0.0394699 0)
(-0.00523956 0.0394699 0)
(-0.00523956 0.0394699 0)
(-0.00523956 0.0394699 0)
(-0.00523956 0.0394699 0)
(-0.00523956 0.0394699 0)
(-0.00523956 0.0394699 0)
(-0.00523956 0.0394699 0)
(-0.00523956 0.0394699 0)
(-0.00523956 0.0394699 0)
(-0.00523956 0.0394699 0)
(-0.00523956 0.0394699 0)
(-0.00523956 0.0394699 0)
(-0.00523956 0.0394699 0)
(-0.00523956 0.0394699 0)
(-0.00523956 0.0394699 0)
(-0.00523956 0.0394699 0)
(-0.00523956 0.0394699 0)
(-0.00523956 0.0394699 0)
(-0.00523956 0.0394699 0)
(-0.00523956 0.0394699 0)
(-0.00523956 0.0394699 0)
(-0.00523956 0.0394699 0)
(-0.00523956 0.0394699 0)
(-0.00523956 0.0394699 0)
(-0.00523956 0.0394699 0)
(-0.00523956 0.0394699 0)
(-0.00523956 0.0394699 0)
(-0.00523956 0.0394699 0)
(-0.00523956 0.0394699 0)
(-0.00523956 0.0394699 0)
(-0.00523956 0.0394699 0)
(-0.00523956 0.0394699 0)
(-0.00523956 0.0394699 0)
(-0.00523956 0.0394699 0)
(-0.00523957 0.0394699 0)
(-0.00523962 0.0394697 0)
(-0.00524107 0.0394612 0)
(-0.00527651 0.0391148 0)
(-0.00609609 0.022344 0)
)
;

boundaryField
{
    inandouthalf11
    {
        type            cyclic;
    }
    inandouthalf12
    {
        type            cyclic;
    }
    inandouthalf21
    {
        type            cyclic;
    }
    inandouthalf22
    {
        type            cyclic;
    }
    inandouthalf31
    {
        type            cyclic;
    }
    inandouthalf32
    {
        type            cyclic;
    }
    inandouthalf41
    {
        type            cyclic;
    }
    inandouthalf42
    {
        type            cyclic;
    }
    top
    {
        type            symmetryPlane;
    }
    walls
    {
        type            calculated;
        value           uniform (0 0 0);
    }
    frontAndBackPlanes
    {
        type            empty;
    }
}


// ************************************************************************* //
