/*--------------------------------*- C++ -*----------------------------------*\
| =========                 |                                                 |
| \\      /  F ield         | OpenFOAM: The Open Source CFD Toolbox           |
|  \\    /   O peration     | Version:  2.4.x                                 |
|   \\  /    A nd           | Web:      www.OpenFOAM.org                      |
|    \\/     M anipulation  |                                                 |
\*---------------------------------------------------------------------------*/
FoamFile
{
    version     2.0;
    format      ascii;
    class       volScalarField;
    location    "8.65";
    object      alpha_0;
}
// * * * * * * * * * * * * * * * * * * * * * * * * * * * * * * * * * * * * * //

dimensions      [0 0 0 0 0 0 0];

internalField   nonuniform List<scalar> 
360
(
0.610858
0.611708
0.611801
0.611713
0.61167
0.611656
0.611639
0.611616
0.611594
0.61157
0.611547
0.611524
0.6115
0.611476
0.611452
0.611428
0.611403
0.611378
0.611353
0.611328
0.611302
0.611276
0.61125
0.611224
0.611198
0.611171
0.611144
0.611116
0.611089
0.611061
0.611033
0.611005
0.610976
0.610947
0.610918
0.610889
0.610859
0.610829
0.610798
0.610768
0.610737
0.610705
0.610674
0.610642
0.61061
0.610577
0.610544
0.610511
0.610477
0.610443
0.610408
0.610373
0.610338
0.610302
0.610266
0.610229
0.610193
0.610155
0.610117
0.610079
0.610039
0.61
0.60996
0.60992
0.609879
0.609837
0.609795
0.609752
0.609709
0.609666
0.609621
0.609576
0.60953
0.609484
0.609437
0.609389
0.60934
0.609291
0.609241
0.60919
0.609139
0.609086
0.609033
0.608979
0.608924
0.608868
0.608811
0.608753
0.608694
0.608634
0.608573
0.608511
0.608447
0.608383
0.608317
0.60825
0.608181
0.608111
0.60804
0.607968
0.607893
0.607817
0.60774
0.607661
0.60758
0.607497
0.607412
0.607325
0.607236
0.607145
0.607051
0.606955
0.606857
0.606756
0.606652
0.606546
0.606436
0.606323
0.606208
0.606088
0.605965
0.605839
0.605708
0.605573
0.605433
0.605289
0.605139
0.604984
0.604822
0.604654
0.604478
0.604295
0.604104
0.603903
0.603689
0.603464
0.603227
0.602976
0.602698
0.602378
0.602031
0.601695
0.601293
0.600746
0.545235
0.37354
0.302247
0.266527
0.241432
0.220814
0.202588
0.185755
0.169632
0.154485
0.14028
0.126971
0.11452
0.102903
0.0921
0.0820944
0.0728675
0.0643985
0.05666
0.0496216
0.0432491
0.0375063
0.0323549
0.0277562
0.0236711
0.0200614
0.0168896
0.0141196
0.0117165
0.00964697
0.0078788
0.00638128
0.00512495
0.00408151
0.00322359
0.00252476
0.00196025
0.00150864
0.00115271
0.000878306
0.000672142
0.00052063
0.00041057
0.000330498
0.000271493
0.00022715
0.000193077
0.000166315
0.00014487
0.000127374
0.000112874
0.000100691
9.03308e-05
8.14276e-05
7.37042e-05
6.69493e-05
6.09959e-05
5.5662e-05
5.08159e-05
4.63957e-05
4.23492e-05
3.86321e-05
3.5207e-05
3.20414e-05
2.91074e-05
2.63815e-05
2.38441e-05
2.14796e-05
1.92768e-05
1.72263e-05
1.53197e-05
1.35539e-05
1.19272e-05
1.04367e-05
9.07946e-06
7.85291e-06
6.75498e-06
5.77863e-06
4.91568e-06
4.15954e-06
3.50184e-06
2.93258e-06
2.44357e-06
2.02506e-06
1.67083e-06
1.36968e-06
1.11884e-06
9.04844e-07
7.34335e-07
5.82533e-07
4.59262e-07
3.72969e-07
2.97409e-07
2.22538e-07
1.63223e-07
1.1778e-07
8.31809e-08
5.69851e-08
3.7691e-08
2.3092e-08
1.29431e-08
5.651e-09
1.07481e-19
7.4209e-31
4.74961e-42
2.71403e-46
1.79115e-46
1.25921e-46
8.25544e-47
3.88531e-47
1.77999e-47
9.45398e-48
5.41939e-48
3.26062e-48
1.77278e-48
8.32872e-49
4.24976e-49
2.22341e-49
1.14622e-49
5.67642e-50
2.81645e-50
1.37566e-50
6.60686e-51
3.11823e-51
1.44576e-51
6.58147e-52
2.93988e-52
1.28778e-52
5.528e-53
2.32386e-53
9.55963e-54
3.84525e-54
1.51112e-54
5.79672e-55
2.16854e-55
7.90355e-56
2.80339e-56
9.6662e-57
3.23601e-57
1.05045e-57
3.30167e-58
1.00328e-58
2.94255e-59
8.3147e-60
2.2591e-60
5.88912e-61
1.46945e-61
3.50025e-62
7.93612e-63
1.70706e-63
3.47063e-64
6.64129e-65
1.19035e-65
1.98721e-66
3.06975e-67
4.35371e-68
5.6159e-69
6.51235e-70
6.69028e-71
5.9737e-72
4.51726e-73
2.78725e-74
1.32414e-75
4.36705e-77
7.86375e-79
1.72568e-81
9.33187e-87
7.23731e-89
2.78162e-91
9.97747e-102
1.79478e-112
2.37409e-123
2.24635e-134
1.84681e-145
1.13545e-156
6.05864e-168
3.35754e-178
1.49092e-188
1.07396e-196
4.37071e-207
3.69389e-215
1.77437e-225
1.27117e-233
7.51663e-244
4.37855e-252
4.86184e-262
1.53796e-270
3.24273e-280
5.55773e-289
1.6093e-298
2.05848e-307
7.63267e-317
7.70742e-322
8.86848e-321
4.57737e-319
2.8055e-319
6.80328e-321
7.09478e-321
6.08689e-321
8.5424e-321
0
0
0
0
0
0
0
0
0
0
0
0
0
0
0
0
)
;

boundaryField
{
    inandouthalf11
    {
        type            cyclic;
    }
    inandouthalf12
    {
        type            cyclic;
    }
    inandouthalf21
    {
        type            cyclic;
    }
    inandouthalf22
    {
        type            cyclic;
    }
    inandouthalf31
    {
        type            cyclic;
    }
    inandouthalf32
    {
        type            cyclic;
    }
    inandouthalf41
    {
        type            cyclic;
    }
    inandouthalf42
    {
        type            cyclic;
    }
    top
    {
        type            symmetryPlane;
    }
    walls
    {
        type            zeroGradient;
    }
    frontAndBackPlanes
    {
        type            empty;
    }
}


// ************************************************************************* //
