/*--------------------------------*- C++ -*----------------------------------*\
| =========                 |                                                 |
| \\      /  F ield         | OpenFOAM: The Open Source CFD Toolbox           |
|  \\    /   O peration     | Version:  2.4.x                                 |
|   \\  /    A nd           | Web:      www.OpenFOAM.org                      |
|    \\/     M anipulation  |                                                 |
\*---------------------------------------------------------------------------*/
FoamFile
{
    version     2.0;
    format      ascii;
    class       surfaceScalarField;
    location    "8.65";
    object      ddt0(phib);
}
// * * * * * * * * * * * * * * * * * * * * * * * * * * * * * * * * * * * * * //

dimensions      [0 3 -2 0 0 0 0];

internalField   nonuniform List<scalar> 
359
(
-1.49559e-13
-3.80243e-13
-5.99449e-13
-8.15042e-13
-1.03962e-12
-1.27052e-12
-1.50231e-12
-1.73222e-12
-1.95896e-12
-2.18181e-12
-2.40005e-12
-2.61284e-12
-2.81951e-12
-3.0194e-12
-3.21204e-12
-3.39713e-12
-3.5744e-12
-3.74365e-12
-3.90471e-12
-4.05755e-12
-4.20213e-12
-4.33856e-12
-4.46704e-12
-4.58779e-12
-4.70114e-12
-4.80745e-12
-4.90715e-12
-5.00077e-12
-5.08887e-12
-5.17204e-12
-5.25089e-12
-5.32605e-12
-5.39818e-12
-5.46794e-12
-5.536e-12
-5.60293e-12
-5.6694e-12
-5.7359e-12
-5.80306e-12
-5.8713e-12
-5.9411e-12
-6.01285e-12
-6.08687e-12
-6.16347e-12
-6.24292e-12
-6.32537e-12
-6.41106e-12
-6.49996e-12
-6.5922e-12
-6.68788e-12
-6.78692e-12
-6.88927e-12
-6.9949e-12
-7.10377e-12
-7.21568e-12
-7.33055e-12
-7.44819e-12
-7.56845e-12
-7.69124e-12
-7.81624e-12
-7.94344e-12
-8.0726e-12
-8.20361e-12
-8.33628e-12
-8.47041e-12
-8.60587e-12
-8.74237e-12
-8.87985e-12
-9.01808e-12
-9.15688e-12
-9.29617e-12
-9.43591e-12
-9.57585e-12
-9.716e-12
-9.85615e-12
-9.9963e-12
-1.01362e-11
-1.02757e-11
-1.04148e-11
-1.05533e-11
-1.0691e-11
-1.08281e-11
-1.09644e-11
-1.10999e-11
-1.12345e-11
-1.13683e-11
-1.15011e-11
-1.16329e-11
-1.17636e-11
-1.18932e-11
-1.20216e-11
-1.21488e-11
-1.22747e-11
-1.23996e-11
-1.25233e-11
-1.26458e-11
-1.27671e-11
-1.28874e-11
-1.30065e-11
-1.31245e-11
-1.32415e-11
-1.33576e-11
-1.34727e-11
-1.35871e-11
-1.37009e-11
-1.38143e-11
-1.39274e-11
-1.40405e-11
-1.41535e-11
-1.42667e-11
-1.43803e-11
-1.44942e-11
-1.46089e-11
-1.47245e-11
-1.48416e-11
-1.49609e-11
-1.50837e-11
-1.52112e-11
-1.53453e-11
-1.54879e-11
-1.56411e-11
-1.58064e-11
-1.59849e-11
-1.61764e-11
-1.63798e-11
-1.65928e-11
-1.68124e-11
-1.70356e-11
-1.72602e-11
-1.74865e-11
-1.77197e-11
-1.79743e-11
-1.82822e-11
-1.87035e-11
-1.93343e-11
-2.0291e-11
-2.16472e-11
-2.33275e-11
-2.50349e-11
-2.63384e-11
-2.69764e-11
-2.7119e-11
-2.71205e-11
-7.76654e-11
-5.1993e-09
4.87548e-10
-3.71025e-09
-7.18217e-09
-1.0224e-08
-1.25609e-08
-1.3916e-08
-1.42392e-08
-1.37017e-08
-1.25457e-08
-1.10119e-08
-9.31102e-09
-7.60881e-09
-6.02372e-09
-4.63144e-09
-3.47184e-09
-2.55577e-09
-1.87415e-09
-1.40349e-09
-1.11202e-09
-9.64324e-10
-9.25106e-10
-9.61611e-10
-1.0452e-09
-1.15189e-09
-1.26231e-09
-1.3611e-09
-1.43653e-09
-1.48025e-09
-1.48748e-09
-1.45717e-09
-1.39179e-09
-1.29701e-09
-1.18134e-09
-1.05492e-09
-9.26266e-10
-7.98652e-10
-6.70942e-10
-5.43481e-10
-4.22171e-10
-3.15801e-10
-2.30374e-10
-1.66527e-10
-1.20971e-10
-8.91407e-11
-6.69286e-11
-5.12547e-11
-4.00015e-11
-3.17644e-11
-2.56182e-11
-2.09485e-11
-1.73411e-11
-1.45121e-11
-1.22632e-11
-1.04533e-11
-8.98071e-12
-7.77067e-12
-6.7494e-12
-5.88377e-12
-5.14694e-12
-4.51717e-12
-3.97682e-12
-3.51169e-12
-3.11003e-12
-2.76189e-12
-2.45874e-12
-2.19314e-12
-1.95875e-12
-1.75072e-12
-1.56479e-12
-1.39662e-12
-1.24317e-12
-1.10276e-12
-9.7399e-13
-8.55499e-13
-7.46577e-13
-6.47655e-13
-5.58561e-13
-4.78572e-13
-4.07364e-13
-3.4473e-13
-2.90048e-13
-2.42543e-13
-2.01645e-13
-1.66733e-13
-1.37198e-13
-1.12028e-13
-9.09844e-14
-7.45334e-14
-5.92228e-14
-4.49622e-14
-3.77506e-14
-2.92804e-14
-2.27841e-14
-1.79723e-14
-1.40795e-14
-1.04311e-14
-7.53831e-15
-3.78665e-15
-2.61329e-15
2.73108e-15
-1.81134e-15
7.11042e-17
9.65413e-17
1.09612e-16
1.35534e-16
1.43762e-16
1.58965e-16
1.53538e-16
1.63233e-16
1.6347e-16
1.80054e-16
1.69484e-16
1.86512e-16
1.77516e-16
1.85237e-16
1.77927e-16
1.85209e-16
1.8872e-16
2.02113e-16
2.23051e-16
2.47004e-16
2.82633e-16
3.11593e-16
3.49416e-16
3.76194e-16
4.1333e-16
4.42129e-16
4.63286e-16
4.95773e-16
5.19952e-16
5.26839e-16
5.45422e-16
5.46733e-16
5.51159e-16
5.41077e-16
5.56484e-16
5.6733e-16
5.83838e-16
5.77535e-16
5.75054e-16
5.55837e-16
5.32698e-16
4.77798e-16
4.63115e-16
4.29064e-16
3.89152e-16
3.21478e-16
2.90363e-16
2.19018e-16
1.88352e-16
1.16308e-16
1.77273e-16
2.46484e-16
3.20227e-16
3.60527e-16
4.57012e-16
5.18168e-16
5.9103e-16
6.28007e-16
7.42884e-16
8.06256e-16
8.68593e-16
8.82388e-16
9.55307e-16
9.70272e-16
9.75444e-16
9.12297e-16
1.03601e-15
1.08121e-15
1.13223e-15
1.09867e-15
1.15634e-15
1.11615e-15
1.0987e-15
9.82993e-16
1.04458e-15
1.02244e-15
9.99725e-16
8.77657e-16
8.92324e-16
7.81074e-16
7.1845e-16
2.85396e-16
1.73425e-15
2.74287e-15
3.80101e-15
4.66311e-15
5.70998e-15
6.59723e-15
7.48236e-15
8.35155e-15
9.12986e-15
1.00559e-14
1.0966e-14
1.22092e-14
1.30721e-14
1.45754e-14
1.60721e-14
1.84198e-14
1.97886e-14
2.25766e-14
2.53677e-14
3.00307e-14
3.35994e-14
3.88293e-14
4.44955e-14
5.12167e-14
6.24392e-14
7.24216e-14
8.3371e-14
9.11963e-14
1.07292e-13
1.18207e-13
1.40736e-13
)
;

boundaryField
{
    inandouthalf11
    {
        type            cyclic;
        value           nonuniform List<scalar> 
100
(
2.9966e-10
2.98068e-10
2.97844e-10
2.98077e-10
2.98202e-10
2.98255e-10
2.98315e-10
2.98386e-10
2.98458e-10
2.98531e-10
2.98605e-10
2.98678e-10
2.98751e-10
2.98824e-10
2.98897e-10
2.9897e-10
2.99043e-10
2.99116e-10
2.99188e-10
2.99261e-10
2.99333e-10
2.99406e-10
2.99478e-10
2.9955e-10
2.99623e-10
2.99695e-10
2.99767e-10
2.9984e-10
2.99912e-10
2.99985e-10
3.00058e-10
3.00132e-10
3.00205e-10
3.0028e-10
3.00354e-10
3.00429e-10
3.00505e-10
3.00582e-10
3.0066e-10
3.00737e-10
3.00817e-10
3.00896e-10
3.00977e-10
3.01059e-10
3.01142e-10
3.01226e-10
3.01311e-10
3.01396e-10
3.01484e-10
3.01573e-10
3.01662e-10
3.01753e-10
3.01845e-10
3.01939e-10
3.02033e-10
3.02129e-10
3.02226e-10
3.02325e-10
3.02425e-10
3.02525e-10
3.02629e-10
3.02732e-10
3.02838e-10
3.02944e-10
3.03053e-10
3.03162e-10
3.03273e-10
3.03386e-10
3.035e-10
3.03615e-10
3.03732e-10
3.03852e-10
3.03971e-10
3.04094e-10
3.04217e-10
3.04343e-10
3.0447e-10
3.04599e-10
3.0473e-10
3.04863e-10
3.04997e-10
3.05134e-10
3.05273e-10
3.05414e-10
3.05557e-10
3.05702e-10
3.0585e-10
3.06e-10
3.06152e-10
3.06307e-10
3.06464e-10
3.06624e-10
3.06787e-10
3.06952e-10
3.07121e-10
3.07293e-10
3.07468e-10
3.07646e-10
3.07828e-10
3.08014e-10
)
;
    }
    inandouthalf12
    {
        type            cyclic;
        value           nonuniform List<scalar> 
100
(
-2.9966e-10
-2.98068e-10
-2.97844e-10
-2.98077e-10
-2.98202e-10
-2.98255e-10
-2.98315e-10
-2.98386e-10
-2.98458e-10
-2.98531e-10
-2.98605e-10
-2.98678e-10
-2.98751e-10
-2.98824e-10
-2.98897e-10
-2.9897e-10
-2.99043e-10
-2.99116e-10
-2.99188e-10
-2.99261e-10
-2.99333e-10
-2.99406e-10
-2.99478e-10
-2.9955e-10
-2.99623e-10
-2.99695e-10
-2.99767e-10
-2.9984e-10
-2.99912e-10
-2.99985e-10
-3.00058e-10
-3.00132e-10
-3.00205e-10
-3.0028e-10
-3.00354e-10
-3.00429e-10
-3.00505e-10
-3.00582e-10
-3.0066e-10
-3.00737e-10
-3.00817e-10
-3.00896e-10
-3.00977e-10
-3.01059e-10
-3.01142e-10
-3.01226e-10
-3.01311e-10
-3.01396e-10
-3.01484e-10
-3.01573e-10
-3.01662e-10
-3.01753e-10
-3.01845e-10
-3.01939e-10
-3.02033e-10
-3.02129e-10
-3.02226e-10
-3.02325e-10
-3.02425e-10
-3.02525e-10
-3.02629e-10
-3.02732e-10
-3.02838e-10
-3.02944e-10
-3.03053e-10
-3.03162e-10
-3.03273e-10
-3.03386e-10
-3.035e-10
-3.03615e-10
-3.03732e-10
-3.03852e-10
-3.03971e-10
-3.04094e-10
-3.04217e-10
-3.04343e-10
-3.0447e-10
-3.04599e-10
-3.0473e-10
-3.04863e-10
-3.04997e-10
-3.05134e-10
-3.05273e-10
-3.05414e-10
-3.05557e-10
-3.05702e-10
-3.0585e-10
-3.06e-10
-3.06152e-10
-3.06307e-10
-3.06464e-10
-3.06624e-10
-3.06787e-10
-3.06952e-10
-3.07121e-10
-3.07293e-10
-3.07468e-10
-3.07646e-10
-3.07828e-10
-3.08014e-10
)
;
    }
    inandouthalf21
    {
        type            cyclic;
        value           nonuniform List<scalar> 
100
(
3.08203e-10
3.08395e-10
3.08592e-10
3.08794e-10
3.08999e-10
3.09209e-10
3.09424e-10
3.09644e-10
3.09869e-10
3.101e-10
3.10336e-10
3.10578e-10
3.10826e-10
3.11081e-10
3.11342e-10
3.1161e-10
3.11885e-10
3.12168e-10
3.12459e-10
3.12759e-10
3.13068e-10
3.13387e-10
3.13717e-10
3.14058e-10
3.14412e-10
3.14779e-10
3.15159e-10
3.15554e-10
3.15964e-10
3.16389e-10
3.16831e-10
3.17287e-10
3.17762e-10
3.18261e-10
3.18797e-10
3.19382e-10
3.20033e-10
3.20777e-10
3.21647e-10
3.22644e-10
3.23673e-10
3.24608e-10
3.25585e-10
2.26382e-10
-2.81429e-08
-3.46882e-07
-3.29331e-07
-3.18586e-07
-3.12709e-07
-3.05113e-07
-2.93732e-07
-2.79094e-07
-2.62225e-07
-2.44367e-07
-2.26576e-07
-2.09657e-07
-1.9417e-07
-1.80468e-07
-1.68744e-07
-1.59076e-07
-1.51456e-07
-1.45824e-07
-1.42089e-07
-1.40142e-07
-1.39875e-07
-1.41186e-07
-1.43984e-07
-1.482e-07
-1.53783e-07
-1.60712e-07
-1.68991e-07
-1.78654e-07
-1.89769e-07
-2.02433e-07
-2.16772e-07
-2.32936e-07
-2.51079e-07
-2.71343e-07
-2.93818e-07
-3.18498e-07
-3.45222e-07
-3.73628e-07
-4.03119e-07
-4.32892e-07
-4.62027e-07
-4.89633e-07
-5.14994e-07
-5.37663e-07
-5.57478e-07
-5.74513e-07
-5.89005e-07
-6.01268e-07
-6.11637e-07
-6.20432e-07
-6.27935e-07
-6.34385e-07
-6.39982e-07
-6.44885e-07
-6.49223e-07
-6.53099e-07
)
;
    }
    inandouthalf22
    {
        type            cyclic;
        value           nonuniform List<scalar> 
100
(
-3.08203e-10
-3.08395e-10
-3.08592e-10
-3.08794e-10
-3.08999e-10
-3.09209e-10
-3.09424e-10
-3.09644e-10
-3.09869e-10
-3.101e-10
-3.10336e-10
-3.10578e-10
-3.10826e-10
-3.11081e-10
-3.11342e-10
-3.1161e-10
-3.11885e-10
-3.12168e-10
-3.12459e-10
-3.12759e-10
-3.13068e-10
-3.13387e-10
-3.13717e-10
-3.14058e-10
-3.14412e-10
-3.14779e-10
-3.15159e-10
-3.15554e-10
-3.15964e-10
-3.16389e-10
-3.16831e-10
-3.17287e-10
-3.17762e-10
-3.18261e-10
-3.18797e-10
-3.19382e-10
-3.20033e-10
-3.20777e-10
-3.21647e-10
-3.22644e-10
-3.23673e-10
-3.24608e-10
-3.25585e-10
-2.26382e-10
2.81429e-08
3.46882e-07
3.29331e-07
3.18586e-07
3.12709e-07
3.05113e-07
2.93732e-07
2.79094e-07
2.62225e-07
2.44367e-07
2.26576e-07
2.09657e-07
1.9417e-07
1.80468e-07
1.68744e-07
1.59076e-07
1.51456e-07
1.45824e-07
1.42089e-07
1.40142e-07
1.39875e-07
1.41186e-07
1.43984e-07
1.482e-07
1.53783e-07
1.60712e-07
1.68991e-07
1.78654e-07
1.89769e-07
2.02433e-07
2.16772e-07
2.32936e-07
2.51079e-07
2.71343e-07
2.93818e-07
3.18498e-07
3.45222e-07
3.73628e-07
4.03119e-07
4.32892e-07
4.62027e-07
4.89633e-07
5.14994e-07
5.37663e-07
5.57478e-07
5.74513e-07
5.89005e-07
6.01268e-07
6.11637e-07
6.20432e-07
6.27935e-07
6.34385e-07
6.39982e-07
6.44885e-07
6.49223e-07
6.53099e-07
)
;
    }
    inandouthalf31
    {
        type            cyclic;
        value           nonuniform List<scalar> 
110
(
-6.56598e-07
-6.73204e-07
-6.89997e-07
-7.07004e-07
-7.24253e-07
-7.41768e-07
-7.59571e-07
-7.77681e-07
-7.96117e-07
-8.14894e-07
-8.34028e-07
-8.53534e-07
-8.73425e-07
-8.93713e-07
-9.1441e-07
-9.35529e-07
-9.57081e-07
-9.79076e-07
-1.00153e-06
-1.02444e-06
-1.04783e-06
-1.07171e-06
-1.09608e-06
-1.12095e-06
-1.14635e-06
-1.17226e-06
-1.19872e-06
-1.22571e-06
-1.25326e-06
-1.28138e-06
-1.31006e-06
-1.33932e-06
-1.36917e-06
-1.39961e-06
-1.43065e-06
-1.4623e-06
-1.49456e-06
-1.52743e-06
-1.56091e-06
-1.59501e-06
-1.62972e-06
-1.66504e-06
-1.70096e-06
-1.73747e-06
-1.77456e-06
-1.81221e-06
-1.8504e-06
-1.8891e-06
-1.92827e-06
-1.96788e-06
-2.00786e-06
-2.04818e-06
-2.08875e-06
-2.1295e-06
-2.17035e-06
-2.2112e-06
-2.25197e-06
-2.2926e-06
-2.33305e-06
-2.37335e-06
-2.41365e-06
-2.45425e-06
-2.49568e-06
-2.53878e-06
-2.58477e-06
-2.63882e-06
-2.69476e-06
-2.74962e-06
-2.80543e-06
-2.86237e-06
-2.92047e-06
-2.97975e-06
-3.04023e-06
-3.10194e-06
-3.1649e-06
-3.22914e-06
-3.29468e-06
-3.36155e-06
-3.42979e-06
-3.4994e-06
-3.57043e-06
-3.6429e-06
-3.71684e-06
-3.79228e-06
-3.86926e-06
-3.94779e-06
-4.02792e-06
-4.10968e-06
-4.19309e-06
-4.2782e-06
-4.36504e-06
-4.45364e-06
-4.54403e-06
-4.63626e-06
-4.73037e-06
-4.82638e-06
-4.92435e-06
-5.0243e-06
-5.12628e-06
-5.23033e-06
-5.33649e-06
-5.4448e-06
-5.55532e-06
-5.66808e-06
-5.78312e-06
-5.90051e-06
-6.02027e-06
-6.14247e-06
-6.26714e-06
-6.39435e-06
)
;
    }
    inandouthalf32
    {
        type            cyclic;
        value           nonuniform List<scalar> 
110
(
6.56598e-07
6.73204e-07
6.89997e-07
7.07004e-07
7.24253e-07
7.41768e-07
7.59571e-07
7.77681e-07
7.96117e-07
8.14894e-07
8.34028e-07
8.53534e-07
8.73425e-07
8.93713e-07
9.1441e-07
9.35529e-07
9.57081e-07
9.79076e-07
1.00153e-06
1.02444e-06
1.04783e-06
1.07171e-06
1.09608e-06
1.12095e-06
1.14635e-06
1.17226e-06
1.19872e-06
1.22571e-06
1.25326e-06
1.28138e-06
1.31006e-06
1.33932e-06
1.36917e-06
1.39961e-06
1.43065e-06
1.4623e-06
1.49456e-06
1.52743e-06
1.56091e-06
1.59501e-06
1.62972e-06
1.66504e-06
1.70096e-06
1.73747e-06
1.77456e-06
1.81221e-06
1.8504e-06
1.8891e-06
1.92827e-06
1.96788e-06
2.00786e-06
2.04818e-06
2.08875e-06
2.1295e-06
2.17035e-06
2.2112e-06
2.25197e-06
2.2926e-06
2.33305e-06
2.37335e-06
2.41365e-06
2.45425e-06
2.49568e-06
2.53878e-06
2.58477e-06
2.63882e-06
2.69476e-06
2.74962e-06
2.80543e-06
2.86237e-06
2.92047e-06
2.97975e-06
3.04023e-06
3.10194e-06
3.1649e-06
3.22914e-06
3.29468e-06
3.36155e-06
3.42979e-06
3.4994e-06
3.57043e-06
3.6429e-06
3.71684e-06
3.79228e-06
3.86926e-06
3.94779e-06
4.02792e-06
4.10968e-06
4.19309e-06
4.2782e-06
4.36504e-06
4.45364e-06
4.54403e-06
4.63626e-06
4.73037e-06
4.82638e-06
4.92435e-06
5.0243e-06
5.12628e-06
5.23033e-06
5.33649e-06
5.4448e-06
5.55532e-06
5.66808e-06
5.78312e-06
5.90051e-06
6.02027e-06
6.14247e-06
6.26714e-06
6.39435e-06
)
;
    }
    inandouthalf41
    {
        type            cyclic;
        value           nonuniform List<scalar> 
50
(
-5.72359e-06
-5.72359e-06
-5.72359e-06
-5.72359e-06
-5.72359e-06
-5.72359e-06
-5.72359e-06
-5.72359e-06
-5.72359e-06
-5.72359e-06
-5.72359e-06
-5.72359e-06
-5.72359e-06
-5.72359e-06
-5.72359e-06
-5.72359e-06
-5.72359e-06
-5.72359e-06
-5.72359e-06
-5.72359e-06
-5.72359e-06
-5.72359e-06
-5.72359e-06
-5.72359e-06
-5.72359e-06
-5.72359e-06
-5.72359e-06
-5.72359e-06
-5.72359e-06
-5.72359e-06
-5.72359e-06
-5.72359e-06
-5.72359e-06
-5.72359e-06
-5.72359e-06
-5.72359e-06
-5.72359e-06
-5.72359e-06
-5.72359e-06
-5.72359e-06
-5.72359e-06
-5.72359e-06
-5.72359e-06
-5.72359e-06
-5.72359e-06
-5.72359e-06
-5.72359e-06
-5.72359e-06
-5.72359e-06
-5.72359e-06
)
;
    }
    inandouthalf42
    {
        type            cyclic;
        value           nonuniform List<scalar> 
50
(
5.72359e-06
5.72359e-06
5.72359e-06
5.72359e-06
5.72359e-06
5.72359e-06
5.72359e-06
5.72359e-06
5.72359e-06
5.72359e-06
5.72359e-06
5.72359e-06
5.72359e-06
5.72359e-06
5.72359e-06
5.72359e-06
5.72359e-06
5.72359e-06
5.72359e-06
5.72359e-06
5.72359e-06
5.72359e-06
5.72359e-06
5.72359e-06
5.72359e-06
5.72359e-06
5.72359e-06
5.72359e-06
5.72359e-06
5.72359e-06
5.72359e-06
5.72359e-06
5.72359e-06
5.72359e-06
5.72359e-06
5.72359e-06
5.72359e-06
5.72359e-06
5.72359e-06
5.72359e-06
5.72359e-06
5.72359e-06
5.72359e-06
5.72359e-06
5.72359e-06
5.72359e-06
5.72359e-06
5.72359e-06
5.72359e-06
5.72359e-06
)
;
    }
    top
    {
        type            symmetryPlane;
        value           uniform 0;
    }
    walls
    {
        type            calculated;
        value           uniform 0;
    }
    frontAndBackPlanes
    {
        type            empty;
        value           nonuniform 0();
    }
}


// ************************************************************************* //
