/*--------------------------------*- C++ -*----------------------------------*\
| =========                 |                                                 |
| \\      /  F ield         | OpenFOAM: The Open Source CFD Toolbox           |
|  \\    /   O peration     | Version:  2.4.x                                 |
|   \\  /    A nd           | Web:      www.OpenFOAM.org                      |
|    \\/     M anipulation  |                                                 |
\*---------------------------------------------------------------------------*/
FoamFile
{
    version     2.0;
    format      ascii;
    class       surfaceScalarField;
    location    "8.65";
    object      ddt0(phia);
}
// * * * * * * * * * * * * * * * * * * * * * * * * * * * * * * * * * * * * * //

dimensions      [0 3 -2 0 0 0 0];

internalField   nonuniform List<scalar> 
359
(
9.50908e-14
2.41324e-13
3.80426e-13
5.17392e-13
6.60059e-13
8.06719e-13
9.53984e-13
1.10009e-12
1.24421e-12
1.38591e-12
1.5247e-12
1.66005e-12
1.79152e-12
1.91873e-12
2.04137e-12
2.15923e-12
2.27215e-12
2.37998e-12
2.48264e-12
2.5801e-12
2.67233e-12
2.75942e-12
2.84145e-12
2.91859e-12
2.99104e-12
3.05903e-12
3.12283e-12
3.18279e-12
3.23925e-12
3.29257e-12
3.34315e-12
3.39142e-12
3.43776e-12
3.48262e-12
3.52639e-12
3.56948e-12
3.61226e-12
3.65511e-12
3.69838e-12
3.74234e-12
3.78732e-12
3.83356e-12
3.88126e-12
3.93064e-12
3.98183e-12
4.03499e-12
4.09019e-12
4.14749e-12
4.20694e-12
4.2686e-12
4.33242e-12
4.39841e-12
4.46652e-12
4.5367e-12
4.60885e-12
4.68294e-12
4.75883e-12
4.83645e-12
4.91567e-12
4.99637e-12
5.0785e-12
5.16192e-12
5.24657e-12
5.33232e-12
5.41905e-12
5.50664e-12
5.59499e-12
5.68399e-12
5.77351e-12
5.86344e-12
5.95376e-12
6.04439e-12
6.1352e-12
6.22619e-12
6.31727e-12
6.40837e-12
6.49939e-12
6.59022e-12
6.6808e-12
6.77107e-12
6.86096e-12
6.95044e-12
7.03949e-12
7.12809e-12
7.21623e-12
7.30387e-12
7.39098e-12
7.4775e-12
7.56339e-12
7.64863e-12
7.73317e-12
7.81703e-12
7.90019e-12
7.98268e-12
8.06452e-12
8.1457e-12
8.22624e-12
8.30616e-12
8.38544e-12
8.46412e-12
8.54223e-12
8.61982e-12
8.69696e-12
8.77374e-12
8.85025e-12
8.92662e-12
9.00295e-12
9.07934e-12
9.15591e-12
9.23273e-12
9.30989e-12
9.38749e-12
9.46568e-12
9.54468e-12
9.62481e-12
9.70661e-12
9.79077e-12
9.87827e-12
9.97025e-12
1.0068e-11
1.01729e-11
1.0286e-11
1.04079e-11
1.05386e-11
1.06775e-11
1.0823e-11
1.09733e-11
1.11263e-11
1.12808e-11
1.1437e-11
1.15983e-11
1.17743e-11
1.1986e-11
1.22731e-11
1.26987e-11
1.334e-11
1.42459e-11
1.53683e-11
1.65132e-11
1.73967e-11
1.78432e-11
1.7965e-11
1.79808e-11
1.82337e-11
2.02537e-08
1.31341e-08
1.5487e-08
2.25245e-08
3.21031e-08
4.22399e-08
5.0997e-08
5.72438e-08
6.05938e-08
6.08085e-08
5.80354e-08
5.2631e-08
4.50571e-08
3.58128e-08
2.53915e-08
1.42727e-08
2.87623e-09
-8.43411e-09
-1.93452e-08
-2.96127e-08
-3.9051e-08
-4.75221e-08
-5.49214e-08
-6.11589e-08
-6.61448e-08
-6.97814e-08
-7.19737e-08
-7.26496e-08
-7.17865e-08
-6.94222e-08
-6.56428e-08
-6.05547e-08
-5.42429e-08
-4.66724e-08
-3.74864e-08
-2.59173e-08
-1.12708e-08
6.11002e-09
2.43916e-08
4.10106e-08
5.40037e-08
6.27257e-08
6.76274e-08
6.96429e-08
6.97168e-08
6.85983e-08
6.68093e-08
6.46854e-08
6.2431e-08
6.01646e-08
5.79516e-08
5.58252e-08
5.38e-08
5.18801e-08
5.00632e-08
4.83452e-08
4.67199e-08
4.51518e-08
4.36406e-08
4.21871e-08
4.07925e-08
3.94583e-08
3.81868e-08
3.69816e-08
3.58469e-08
3.4787e-08
3.38067e-08
3.29089e-08
3.20952e-08
3.13683e-08
3.07286e-08
3.01716e-08
2.96922e-08
2.92851e-08
2.89442e-08
2.86594e-08
2.84203e-08
2.82234e-08
2.80632e-08
2.79305e-08
2.78222e-08
2.77347e-08
2.76648e-08
2.76055e-08
2.75549e-08
2.7504e-08
2.74593e-08
2.73958e-08
2.72542e-08
2.7274e-08
2.71144e-08
2.55662e-08
1.59701e-08
2.12983e-08
3.11195e-08
4.23949e-08
4.64835e-08
5.38514e-08
-5.93467e-09
1.45098e-08
-5.56116e-07
8.06438e-07
5.42896e-07
9.49657e-10
-3.56764e-10
-2.62047e-10
-2.91788e-10
-3.13418e-10
-3.37936e-10
-3.64238e-10
-3.91992e-10
-4.20541e-10
-4.48947e-10
-4.7655e-10
-5.08728e-10
-5.24348e-10
-5.10296e-10
-5.18695e-10
-5.29689e-10
-5.19755e-10
-5.93652e-10
-4.57025e-10
-3.87755e-10
-3.88254e-10
-3.88453e-10
-3.8846e-10
-3.88461e-10
-3.88461e-10
-3.88461e-10
-3.88461e-10
-3.88461e-10
-3.88461e-10
-3.88461e-10
-3.88461e-10
-3.88461e-10
-3.88461e-10
-3.88461e-10
-3.88461e-10
-3.88461e-10
-3.88461e-10
-3.88461e-10
-3.88461e-10
-3.88461e-10
-3.88461e-10
-3.88461e-10
-3.88461e-10
-3.88461e-10
-3.88461e-10
-3.88461e-10
-3.88461e-10
-3.88461e-10
-3.88461e-10
-3.88461e-10
-3.8846e-10
-3.88461e-10
-3.8846e-10
-3.88461e-10
-3.8846e-10
-3.88461e-10
-3.8846e-10
-3.88461e-10
-3.8846e-10
-3.88461e-10
-3.8846e-10
-3.88461e-10
-3.8846e-10
-3.88461e-10
-3.8846e-10
-3.88461e-10
-3.8846e-10
-3.88461e-10
-3.8846e-10
-3.88461e-10
-3.8846e-10
-3.88461e-10
-3.8846e-10
-3.88461e-10
-3.8846e-10
-3.88461e-10
-3.8846e-10
-3.88461e-10
-3.8846e-10
-3.88461e-10
-3.88461e-10
-3.8846e-10
-3.8846e-10
-3.8846e-10
-3.88459e-10
-3.88459e-10
-3.88458e-10
-3.88458e-10
-3.88458e-10
-3.88457e-10
-3.88457e-10
-3.88457e-10
-3.88456e-10
-3.88456e-10
-3.88455e-10
-3.88455e-10
-3.88454e-10
-3.88453e-10
-3.88452e-10
-3.88451e-10
-3.88449e-10
-3.88448e-10
-3.88446e-10
-3.88444e-10
-3.88441e-10
-3.88437e-10
-3.88433e-10
-3.88429e-10
-3.88435e-10
-3.88645e-10
-3.93356e-10
-6.06373e-10
)
;

boundaryField
{
    inandouthalf11
    {
        type            cyclic;
        value           nonuniform List<scalar> 
100
(
1.46084e-39
1.37522e-14
2.90318e-14
4.29928e-14
5.72917e-14
7.21827e-14
8.72026e-14
1.02062e-13
1.16655e-13
1.30924e-13
1.44818e-13
1.58285e-13
1.71275e-13
1.83744e-13
1.95657e-13
2.06987e-13
2.17715e-13
2.27824e-13
2.37304e-13
2.46149e-13
2.54357e-13
2.61932e-13
2.68885e-13
2.75231e-13
2.80989e-13
2.86183e-13
2.90844e-13
2.95003e-13
2.98698e-13
3.01968e-13
3.04856e-13
3.07404e-13
3.09658e-13
3.11662e-13
3.13462e-13
3.151e-13
3.1662e-13
3.18062e-13
3.19465e-13
3.20862e-13
3.22287e-13
3.23769e-13
3.25333e-13
3.27001e-13
3.28793e-13
3.30725e-13
3.32807e-13
3.3505e-13
3.37458e-13
3.40037e-13
3.42788e-13
3.45709e-13
3.48796e-13
3.52046e-13
3.55451e-13
3.59002e-13
3.6269e-13
3.66504e-13
3.70433e-13
3.74463e-13
3.78584e-13
3.82784e-13
3.87052e-13
3.91374e-13
3.95737e-13
4.00127e-13
4.0453e-13
4.08933e-13
4.13322e-13
4.17684e-13
4.22006e-13
4.2628e-13
4.30494e-13
4.34636e-13
4.38695e-13
4.42662e-13
4.46522e-13
4.50263e-13
4.53872e-13
4.57337e-13
4.60648e-13
4.63794e-13
4.66767e-13
4.69557e-13
4.72155e-13
4.74551e-13
4.76736e-13
4.78698e-13
4.80427e-13
4.81912e-13
4.83142e-13
4.84108e-13
4.848e-13
4.8521e-13
4.85327e-13
4.85143e-13
4.84647e-13
4.83828e-13
4.82676e-13
4.8118e-13
)
;
    }
    inandouthalf12
    {
        type            cyclic;
        value           nonuniform List<scalar> 
100
(
-1.46084e-39
-1.37522e-14
-2.90318e-14
-4.29928e-14
-5.72917e-14
-7.21827e-14
-8.72026e-14
-1.02062e-13
-1.16655e-13
-1.30924e-13
-1.44818e-13
-1.58285e-13
-1.71275e-13
-1.83744e-13
-1.95657e-13
-2.06987e-13
-2.17715e-13
-2.27824e-13
-2.37304e-13
-2.46149e-13
-2.54357e-13
-2.61932e-13
-2.68885e-13
-2.75231e-13
-2.80989e-13
-2.86183e-13
-2.90844e-13
-2.95003e-13
-2.98698e-13
-3.01968e-13
-3.04856e-13
-3.07404e-13
-3.09658e-13
-3.11662e-13
-3.13462e-13
-3.151e-13
-3.1662e-13
-3.18062e-13
-3.19465e-13
-3.20862e-13
-3.22287e-13
-3.23769e-13
-3.25333e-13
-3.27001e-13
-3.28793e-13
-3.30725e-13
-3.32807e-13
-3.3505e-13
-3.37458e-13
-3.40037e-13
-3.42788e-13
-3.45709e-13
-3.48796e-13
-3.52046e-13
-3.55451e-13
-3.59002e-13
-3.6269e-13
-3.66504e-13
-3.70433e-13
-3.74463e-13
-3.78584e-13
-3.82784e-13
-3.87052e-13
-3.91374e-13
-3.95737e-13
-4.00127e-13
-4.0453e-13
-4.08933e-13
-4.13322e-13
-4.17684e-13
-4.22006e-13
-4.2628e-13
-4.30494e-13
-4.34636e-13
-4.38695e-13
-4.42662e-13
-4.46522e-13
-4.50263e-13
-4.53872e-13
-4.57337e-13
-4.60648e-13
-4.63794e-13
-4.66767e-13
-4.69557e-13
-4.72155e-13
-4.74551e-13
-4.76736e-13
-4.78698e-13
-4.80427e-13
-4.81912e-13
-4.83142e-13
-4.84108e-13
-4.848e-13
-4.8521e-13
-4.85327e-13
-4.85143e-13
-4.84647e-13
-4.83828e-13
-4.82676e-13
-4.8118e-13
)
;
    }
    inandouthalf21
    {
        type            cyclic;
        value           nonuniform List<scalar> 
100
(
4.79331e-13
4.7712e-13
4.74538e-13
4.71577e-13
4.68229e-13
4.64484e-13
4.6033e-13
4.5575e-13
4.50724e-13
4.45221e-13
4.39206e-13
4.32637e-13
4.25469e-13
4.17656e-13
4.09159e-13
3.99954e-13
3.90041e-13
3.79455e-13
3.68271e-13
3.56605e-13
3.44607e-13
3.3244e-13
3.20245e-13
3.08096e-13
2.95948e-13
2.83585e-13
2.70584e-13
2.56286e-13
2.39797e-13
2.20021e-13
1.95771e-13
1.66075e-13
1.30872e-13
9.24115e-14
5.76413e-14
4.08733e-14
6.33565e-14
1.43842e-13
2.79708e-13
4.30797e-13
5.35329e-13
5.69219e-13
5.67056e-13
5.58293e-13
4.92896e-13
-3.03093e-07
-3.30771e-07
-3.24164e-07
-3.1881e-07
-3.11262e-07
-2.99405e-07
-2.83328e-07
-2.65265e-07
-2.4649e-07
-2.28159e-07
-2.11129e-07
-1.95964e-07
-1.8298e-07
-1.72311e-07
-1.63971e-07
-1.57885e-07
-1.53942e-07
-1.52022e-07
-1.52011e-07
-1.53821e-07
-1.57401e-07
-1.6274e-07
-1.69877e-07
-1.78892e-07
-1.89906e-07
-2.03066e-07
-2.18525e-07
-2.36413e-07
-2.56804e-07
-2.79678e-07
-3.04886e-07
-3.32119e-07
-3.60891e-07
-3.90552e-07
-4.20311e-07
-4.49285e-07
-4.76584e-07
-5.01447e-07
-5.23392e-07
-5.42306e-07
-5.58398e-07
-5.72065e-07
-5.83747e-07
-5.93838e-07
-6.02658e-07
-6.10451e-07
-6.17404e-07
-6.23658e-07
-6.29321e-07
-6.3448e-07
-6.392e-07
-6.43536e-07
-6.47531e-07
-6.51219e-07
-6.54631e-07
)
;
    }
    inandouthalf22
    {
        type            cyclic;
        value           nonuniform List<scalar> 
100
(
-4.79331e-13
-4.7712e-13
-4.74538e-13
-4.71577e-13
-4.68229e-13
-4.64484e-13
-4.6033e-13
-4.5575e-13
-4.50724e-13
-4.45221e-13
-4.39206e-13
-4.32637e-13
-4.25469e-13
-4.17656e-13
-4.09159e-13
-3.99954e-13
-3.90041e-13
-3.79455e-13
-3.68271e-13
-3.56605e-13
-3.44607e-13
-3.3244e-13
-3.20245e-13
-3.08096e-13
-2.95948e-13
-2.83585e-13
-2.70584e-13
-2.56286e-13
-2.39797e-13
-2.20021e-13
-1.95771e-13
-1.66075e-13
-1.30872e-13
-9.24115e-14
-5.76413e-14
-4.08733e-14
-6.33565e-14
-1.43842e-13
-2.79708e-13
-4.30797e-13
-5.35329e-13
-5.69219e-13
-5.67056e-13
-5.58293e-13
-4.92896e-13
3.03093e-07
3.30771e-07
3.24164e-07
3.1881e-07
3.11262e-07
2.99405e-07
2.83328e-07
2.65265e-07
2.4649e-07
2.28159e-07
2.11129e-07
1.95964e-07
1.8298e-07
1.72311e-07
1.63971e-07
1.57885e-07
1.53942e-07
1.52022e-07
1.52011e-07
1.53821e-07
1.57401e-07
1.6274e-07
1.69877e-07
1.78892e-07
1.89906e-07
2.03066e-07
2.18525e-07
2.36413e-07
2.56804e-07
2.79678e-07
3.04886e-07
3.32119e-07
3.60891e-07
3.90552e-07
4.20311e-07
4.49285e-07
4.76584e-07
5.01447e-07
5.23392e-07
5.42306e-07
5.58398e-07
5.72065e-07
5.83747e-07
5.93838e-07
6.02658e-07
6.10451e-07
6.17404e-07
6.23658e-07
6.29321e-07
6.3448e-07
6.392e-07
6.43536e-07
6.47531e-07
6.51219e-07
6.54631e-07
)
;
    }
    inandouthalf31
    {
        type            cyclic;
        value           nonuniform List<scalar> 
110
(
-6.57792e-07
-6.74158e-07
-6.90749e-07
-7.07573e-07
-7.24638e-07
-7.41953e-07
-7.59524e-07
-7.7736e-07
-7.95466e-07
-8.1385e-07
-8.3252e-07
-8.51482e-07
-8.70746e-07
-8.90318e-07
-9.1021e-07
-9.30431e-07
-9.50992e-07
-9.71905e-07
-9.93182e-07
-1.01484e-06
-1.03688e-06
-1.05933e-06
-1.08219e-06
-1.10549e-06
-1.12922e-06
-1.1534e-06
-1.17804e-06
-1.20315e-06
-1.22874e-06
-1.2548e-06
-1.28134e-06
-1.30836e-06
-1.33584e-06
-1.36378e-06
-1.39215e-06
-1.42088e-06
-1.45011e-06
-1.53962e-06
-1.57839e-06
-1.61356e-06
-1.64806e-06
-1.68777e-06
-1.72386e-06
-1.77016e-06
-1.76983e-06
-1.85634e-06
-1.84726e-06
-1.90444e-06
-1.94348e-06
-1.98333e-06
-2.0235e-06
-2.064e-06
-2.10474e-06
-2.14566e-06
-2.18665e-06
-2.22765e-06
-2.26856e-06
-2.30933e-06
-2.34997e-06
-2.391e-06
-2.43062e-06
-2.47118e-06
-2.51444e-06
-2.55771e-06
-2.60493e-06
-2.6603e-06
-2.71614e-06
-2.77139e-06
-2.82765e-06
-2.88504e-06
-2.9436e-06
-3.00334e-06
-3.0643e-06
-3.1265e-06
-3.18996e-06
-3.25471e-06
-3.32077e-06
-3.38817e-06
-3.45695e-06
-3.52711e-06
-3.5987e-06
-3.67175e-06
-3.74627e-06
-3.82231e-06
-3.8999e-06
-3.97905e-06
-4.05982e-06
-4.14222e-06
-4.2263e-06
-4.31208e-06
-4.3996e-06
-4.4889e-06
-4.58002e-06
-4.67298e-06
-4.76783e-06
-4.8646e-06
-4.96334e-06
-5.06408e-06
-5.16687e-06
-5.27174e-06
-5.37875e-06
-5.48792e-06
-5.59931e-06
-5.71296e-06
-5.82892e-06
-5.94723e-06
-6.06794e-06
-6.19111e-06
-6.31677e-06
-6.44498e-06
)
;
    }
    inandouthalf32
    {
        type            cyclic;
        value           nonuniform List<scalar> 
110
(
6.57792e-07
6.74158e-07
6.90749e-07
7.07573e-07
7.24638e-07
7.41953e-07
7.59524e-07
7.7736e-07
7.95466e-07
8.1385e-07
8.3252e-07
8.51482e-07
8.70746e-07
8.90318e-07
9.1021e-07
9.30431e-07
9.50992e-07
9.71905e-07
9.93182e-07
1.01484e-06
1.03688e-06
1.05933e-06
1.08219e-06
1.10549e-06
1.12922e-06
1.1534e-06
1.17804e-06
1.20315e-06
1.22874e-06
1.2548e-06
1.28134e-06
1.30836e-06
1.33584e-06
1.36378e-06
1.39215e-06
1.42088e-06
1.45011e-06
1.53962e-06
1.57839e-06
1.61356e-06
1.64806e-06
1.68777e-06
1.72386e-06
1.77016e-06
1.76983e-06
1.85634e-06
1.84726e-06
1.90444e-06
1.94348e-06
1.98333e-06
2.0235e-06
2.064e-06
2.10474e-06
2.14566e-06
2.18665e-06
2.22765e-06
2.26856e-06
2.30933e-06
2.34997e-06
2.391e-06
2.43062e-06
2.47118e-06
2.51444e-06
2.55771e-06
2.60493e-06
2.6603e-06
2.71614e-06
2.77139e-06
2.82765e-06
2.88504e-06
2.9436e-06
3.00334e-06
3.0643e-06
3.1265e-06
3.18996e-06
3.25471e-06
3.32077e-06
3.38817e-06
3.45695e-06
3.52711e-06
3.5987e-06
3.67175e-06
3.74627e-06
3.82231e-06
3.8999e-06
3.97905e-06
4.05982e-06
4.14222e-06
4.2263e-06
4.31208e-06
4.3996e-06
4.4889e-06
4.58002e-06
4.67298e-06
4.76783e-06
4.8646e-06
4.96334e-06
5.06408e-06
5.16687e-06
5.27174e-06
5.37875e-06
5.48792e-06
5.59931e-06
5.71296e-06
5.82892e-06
5.94723e-06
6.06794e-06
6.19111e-06
6.31677e-06
6.44498e-06
)
;
    }
    inandouthalf41
    {
        type            cyclic;
        value           nonuniform List<scalar> 
50
(
-5.76892e-06
-5.76892e-06
-5.76892e-06
-5.76892e-06
-5.76892e-06
-5.76892e-06
-5.76892e-06
-5.76892e-06
-5.76892e-06
-5.76892e-06
-5.76892e-06
-5.76892e-06
-5.76892e-06
-5.76892e-06
-5.76892e-06
-5.76892e-06
-5.76892e-06
-5.76892e-06
-5.76892e-06
-5.76892e-06
-5.76892e-06
-5.76892e-06
-5.76892e-06
-5.76892e-06
-5.76892e-06
-5.76892e-06
-5.76892e-06
-5.76892e-06
-5.76892e-06
-5.76892e-06
-5.76892e-06
-5.76892e-06
-5.76892e-06
-5.76892e-06
-5.76892e-06
-5.76892e-06
-5.76892e-06
-5.76892e-06
-5.76892e-06
-5.76892e-06
-5.76892e-06
-5.76892e-06
-5.76892e-06
-5.76892e-06
-5.76892e-06
-5.76892e-06
-5.76892e-06
-5.76893e-06
-5.76923e-06
-5.77627e-06
)
;
    }
    inandouthalf42
    {
        type            cyclic;
        value           nonuniform List<scalar> 
50
(
5.76892e-06
5.76892e-06
5.76892e-06
5.76892e-06
5.76892e-06
5.76892e-06
5.76892e-06
5.76892e-06
5.76892e-06
5.76892e-06
5.76892e-06
5.76892e-06
5.76892e-06
5.76892e-06
5.76892e-06
5.76892e-06
5.76892e-06
5.76892e-06
5.76892e-06
5.76892e-06
5.76892e-06
5.76892e-06
5.76892e-06
5.76892e-06
5.76892e-06
5.76892e-06
5.76892e-06
5.76892e-06
5.76892e-06
5.76892e-06
5.76892e-06
5.76892e-06
5.76892e-06
5.76892e-06
5.76892e-06
5.76892e-06
5.76892e-06
5.76892e-06
5.76892e-06
5.76892e-06
5.76892e-06
5.76892e-06
5.76892e-06
5.76892e-06
5.76892e-06
5.76892e-06
5.76892e-06
5.76893e-06
5.76923e-06
5.77627e-06
)
;
    }
    top
    {
        type            symmetryPlane;
        value           uniform 0;
    }
    walls
    {
        type            calculated;
        value           uniform 0;
    }
    frontAndBackPlanes
    {
        type            empty;
        value           nonuniform 0();
    }
}


// ************************************************************************* //
