/*--------------------------------*- C++ -*----------------------------------*\
| =========                 |                                                 |
| \\      /  F ield         | OpenFOAM: The Open Source CFD Toolbox           |
|  \\    /   O peration     | Version:  2.4.x                                 |
|   \\  /    A nd           | Web:      www.OpenFOAM.org                      |
|    \\/     M anipulation  |                                                 |
\*---------------------------------------------------------------------------*/
FoamFile
{
    version     2.0;
    format      ascii;
    class       volScalarField;
    location    "8.65";
    object      ddt0(((1.5*(alpha+1e-08))*rho),Theta);
}
// * * * * * * * * * * * * * * * * * * * * * * * * * * * * * * * * * * * * * //

dimensions      [1 -1 -3 0 0 0 0];

internalField   nonuniform List<scalar> 
360
(
-1.46643e-21
-4.87822e-21
-3.60603e-21
-3.46396e-21
-3.90903e-21
-4.19171e-21
-4.26444e-21
-4.2699e-21
-4.2586e-21
-4.23372e-21
-4.19172e-21
-4.12874e-21
-4.04467e-21
-3.94213e-21
-3.82463e-21
-3.69522e-21
-3.55534e-21
-3.40596e-21
-3.24908e-21
-3.08658e-21
-2.92021e-21
-2.75275e-21
-2.58647e-21
-2.42315e-21
-2.26477e-21
-2.11303e-21
-1.96983e-21
-1.83694e-21
-1.71516e-21
-1.6052e-21
-1.50808e-21
-1.42404e-21
-1.35318e-21
-1.29564e-21
-1.25069e-21
-1.21763e-21
-1.1961e-21
-1.18554e-21
-1.18459e-21
-1.19206e-21
-1.20755e-21
-1.2295e-21
-1.25679e-21
-1.28916e-21
-1.32533e-21
-1.36425e-21
-1.40472e-21
-1.44585e-21
-1.48835e-21
-1.53146e-21
-1.57342e-21
-1.61423e-21
-1.65391e-21
-1.69166e-21
-1.72733e-21
-1.76081e-21
-1.7915e-21
-1.81934e-21
-1.84378e-21
-1.86532e-21
-1.88503e-21
-1.90244e-21
-1.91735e-21
-1.92941e-21
-1.9381e-21
-1.94375e-21
-1.94676e-21
-1.94679e-21
-1.94323e-21
-1.93725e-21
-1.93059e-21
-1.92216e-21
-1.91108e-21
-1.89871e-21
-1.88536e-21
-1.86989e-21
-1.85139e-21
-1.83027e-21
-1.80738e-21
-1.78278e-21
-1.75668e-21
-1.72991e-21
-1.70293e-21
-1.67565e-21
-1.64792e-21
-1.61953e-21
-1.59016e-21
-1.55951e-21
-1.52763e-21
-1.49487e-21
-1.46156e-21
-1.42812e-21
-1.39495e-21
-1.36224e-21
-1.32997e-21
-1.29805e-21
-1.26633e-21
-1.23472e-21
-1.20326e-21
-1.17211e-21
-1.14153e-21
-1.11186e-21
-1.08346e-21
-1.05664e-21
-1.03164e-21
-1.0086e-21
-9.87577e-22
-9.6854e-22
-9.5141e-22
-9.36109e-22
-9.22635e-22
-9.11166e-22
-9.0217e-22
-8.96517e-22
-8.95563e-22
-9.01169e-22
-9.15593e-22
-9.41199e-22
-9.79919e-22
-1.0325e-21
-1.09763e-21
-1.17129e-21
-1.24674e-21
-1.31548e-21
-1.36937e-21
-1.40313e-21
-1.41649e-21
-1.41494e-21
-1.4097e-21
-1.4197e-21
-1.15712e-21
1.73534e-16
3.0857e-15
4.20991e-14
6.03962e-13
9.15664e-12
1.47726e-10
2.58711e-09
5.06337e-08
1.14139e-06
3.52923e-05
0.00326425
0.16112
2.02483
14.5914
22.5026
14.6181
9.94331
7.07767
5.09081
3.67166
2.5803
1.97079
1.64337
1.49176
1.44511
1.45511
1.48937
1.52703
1.5519
1.56362
1.5515
1.51701
1.461
1.38571
1.29442
1.19085
1.07896
0.962591
0.845353
0.730444
0.620601
0.518049
0.424498
0.341139
0.26865
0.207212
0.156526
0.115853
0.08411
0.0600008
0.042182
0.0293779
0.0204321
0.0143303
0.0102292
0.00747765
0.00561088
0.004318
0.00339949
0.00272953
0.00222858
0.00184557
0.00154692
0.00131002
0.00111927
0.00096364
0.000835194
0.000728081
0.000637939
0.000561436
0.000495388
0.000437548
0.000386704
0.000341848
0.000302144
0.000266895
0.000235511
0.000207495
0.000182429
0.000159962
0.000139802
0.000121715
0.000105497
9.09699e-05
7.80022e-05
6.64804e-05
5.62945e-05
4.73415e-05
3.95285e-05
3.27765e-05
2.69758e-05
2.20264e-05
1.78407e-05
1.43296e-05
1.14034e-05
8.9862e-06
7.00181e-06
5.39216e-06
4.0879e-06
3.05116e-06
2.21828e-06
1.58095e-06
1.06278e-06
6.66997e-07
3.75732e-07
0
0
0
0
0
0
0
0
0
0
0
0
0
0
0
0
0
0
0
0
0
0
0
0
0
0
0
0
0
0
0
0
0
0
0
0
0
0
0
0
0
0
0
0
0
0
0
0
0
0
0
0
0
0
0
0
0
0
0
0
0
0
0
0
0
0
0
0
0
0
0
0
0
0
0
0
0
0
0
0
0
0
0
0
0
0
0
0
0
0
0
0
0
0
0
0
0
0
0
0
0
0
0
0
0
0
0
0
0
0
0
0
0
0
0
0
0
0
0
0
0
0
0
0
)
;

boundaryField
{
    inandouthalf11
    {
        type            cyclic;
    }
    inandouthalf12
    {
        type            cyclic;
    }
    inandouthalf21
    {
        type            cyclic;
    }
    inandouthalf22
    {
        type            cyclic;
    }
    inandouthalf31
    {
        type            cyclic;
    }
    inandouthalf32
    {
        type            cyclic;
    }
    inandouthalf41
    {
        type            cyclic;
    }
    inandouthalf42
    {
        type            cyclic;
    }
    top
    {
        type            symmetryPlane;
    }
    walls
    {
        type            calculated;
        value           uniform -1.46643e-21;
    }
    frontAndBackPlanes
    {
        type            empty;
    }
}


// ************************************************************************* //
