/*--------------------------------*- C++ -*----------------------------------*\
| =========                 |                                                 |
| \\      /  F ield         | OpenFOAM: The Open Source CFD Toolbox           |
|  \\    /   O peration     | Version:  2.4.x                                 |
|   \\  /    A nd           | Web:      www.OpenFOAM.org                      |
|    \\/     M anipulation  |                                                 |
\*---------------------------------------------------------------------------*/
FoamFile
{
    version     2.0;
    format      ascii;
    class       volScalarField;
    location    "8.65";
    object      epsilon_0;
}
// * * * * * * * * * * * * * * * * * * * * * * * * * * * * * * * * * * * * * //

dimensions      [0 2 -3 0 0 0 0];

internalField   nonuniform List<scalar> 
360
(
1.60309e-27
1e-20
1e-20
1e-20
1e-20
1e-20
1e-20
1e-20
1e-20
1e-20
1e-20
1e-20
1e-20
1e-20
1e-20
1e-20
1e-20
1e-20
1e-20
1e-20
1e-20
1e-20
1e-20
1e-20
1e-20
1e-20
1e-20
1e-20
1e-20
1e-20
1e-20
1e-20
1e-20
1e-20
1e-20
1e-20
1e-20
1e-20
1e-20
1e-20
1e-20
1e-20
1e-20
1e-20
1e-20
1e-20
1e-20
1e-20
1e-20
1e-20
1e-20
1e-20
1e-20
1e-20
1e-20
1e-20
1e-20
1e-20
1e-20
1e-20
1e-20
1e-20
1e-20
1e-20
1e-20
1e-20
1e-20
1e-20
1e-20
1e-20
1e-20
1e-20
1e-20
1e-20
1e-20
1e-20
1e-20
1e-20
1e-20
1e-20
1e-20
1e-20
1e-20
1e-20
1e-20
1e-20
1e-20
1e-20
1e-20
1e-20
1e-20
1e-20
1e-20
1e-20
1e-20
1e-20
1e-20
1e-20
1e-20
1e-20
1e-20
1e-20
1e-20
1e-20
1e-20
1e-20
1e-20
1e-20
1e-20
1e-20
1e-20
1e-20
1e-20
1e-20
1e-20
1e-20
1e-20
1e-20
1e-20
1e-20
1e-20
1e-20
1e-20
1e-20
1e-20
1e-20
1e-20
1e-20
1e-20
1e-20
1e-20
2.68556e-20
3.01606e-19
4.54563e-18
7.42283e-17
1.31066e-15
2.51824e-14
5.3186e-13
1.25324e-11
3.35298e-10
1.03584e-08
3.74686e-07
1.60163e-05
0.000772948
0.0237942
0.205632
0.382521
0.446372
0.465493
0.464437
0.453221
0.436531
0.41681
0.395459
0.373316
0.350927
0.328668
0.306798
0.285497
0.264892
0.245068
0.22608
0.207961
0.190727
0.174382
0.15892
0.144328
0.130591
0.117689
0.105602
0.0943091
0.0837912
0.0740297
0.0650082
0.0567122
0.0491287
0.0422462
0.0360531
0.0305364
0.0256797
0.0214606
0.0178491
0.0148054
0.0122801
0.0102158
0.00854975
0.00721861
0.00616215
0.0053264
0.00466532
0.0041411
0.00372357
0.00338913
0.00311956
0.00290084
0.00272226
0.00257556
0.00245438
0.00235379
0.00226991
0.00219971
0.00214017
0.0020892
0.0020456
0.00200836
0.00197661
0.00194957
0.00192657
0.00190702
0.00189038
0.00187619
0.00186401
0.00185344
0.00184413
0.00183573
0.00182793
0.00182044
0.00181298
0.00180529
0.00179711
0.00178821
0.00177837
0.00176736
0.00175498
0.00174104
0.00172534
0.00170772
0.00168801
0.00166606
0.00164173
0.00161489
0.00158543
0.00155326
0.0015183
0.0014805
0.0014398
0.0013962
0.00134971
0.00130036
0.00124823
0.0011934
0.00113602
0.00107626
0.00101432
0.00095047
0.00088501
0.000818293
0.000750722
0.000682754
0.000614899
0.000547718
0.000481822
0.000417864
0.000356527
0.000298512
0.000244514
0.000195192
0.000151133
0.000112799
8.04814e-05
5.42469e-05
3.39017e-05
1.89915e-05
8.8583e-06
2.75115e-06
3.22724e-07
9.42406e-09
1.50875e-10
2.34753e-12
3.66088e-14
5.70938e-16
8.86527e-18
1.43068e-19
1.05606e-20
1e-20
1e-20
1e-20
1e-20
1e-20
1e-20
1e-20
1e-20
1e-20
1e-20
1e-20
1e-20
1e-20
1e-20
1e-20
1e-20
1e-20
1e-20
1e-20
1e-20
1e-20
1e-20
1e-20
1e-20
1e-20
1e-20
1e-20
1e-20
1e-20
1e-20
1e-20
1e-20
1e-20
1e-20
1e-20
1e-20
1e-20
1e-20
1e-20
1e-20
1e-20
1e-20
1e-20
1e-20
1e-20
1e-20
1e-20
1e-20
1e-20
1e-20
1e-20
1e-20
1e-20
1e-20
1e-20
1e-20
1e-20
1e-20
1e-20
1e-20
1e-20
1e-20
1e-20
1e-20
1e-20
1e-20
1e-20
1e-20
1e-20
1e-20
1e-20
1e-20
1e-20
1e-20
1e-20
1e-20
1e-20
1e-20
1e-20
1e-20
1e-20
1e-20
1e-20
1e-20
1e-20
1e-20
)
;

boundaryField
{
    inandouthalf11
    {
        type            cyclic;
    }
    inandouthalf12
    {
        type            cyclic;
    }
    inandouthalf21
    {
        type            cyclic;
    }
    inandouthalf22
    {
        type            cyclic;
    }
    inandouthalf31
    {
        type            cyclic;
    }
    inandouthalf32
    {
        type            cyclic;
    }
    inandouthalf41
    {
        type            cyclic;
    }
    inandouthalf42
    {
        type            cyclic;
    }
    top
    {
        type            symmetryPlane;
    }
    walls
    {
        type            zeroGradient;
    }
    frontAndBackPlanes
    {
        type            empty;
    }
}


// ************************************************************************* //
