/*--------------------------------*- C++ -*----------------------------------*\
| =========                 |                                                 |
| \\      /  F ield         | OpenFOAM: The Open Source CFD Toolbox           |
|  \\    /   O peration     | Version:  2.4.x                                 |
|   \\  /    A nd           | Web:      www.OpenFOAM.org                      |
|    \\/     M anipulation  |                                                 |
\*---------------------------------------------------------------------------*/
FoamFile
{
    version     2.0;
    format      ascii;
    class       volVectorField;
    location    "8.65";
    object      gradPs;
}
// * * * * * * * * * * * * * * * * * * * * * * * * * * * * * * * * * * * * * //

dimensions      [0 1 -2 0 0 0 0];

internalField   nonuniform List<vector> 
360
(
(0 1.54484e-18 0)
(0 1.70295e-18 0)
(0 9.16195e-22 0)
(0 -2.34376e-19 0)
(-2.90075e-32 -9.87288e-20 0)
(-2.90082e-32 -5.3931e-20 0)
(-1.45045e-32 -6.94955e-20 0)
(0 -7.96673e-20 0)
(-1.45056e-32 -8.1366e-20 0)
(0 -8.23999e-20 0)
(-2.90133e-32 -8.29061e-20 0)
(0 -8.3393e-20 0)
(-1.45078e-32 -8.42415e-20 0)
(0 -8.50996e-20 0)
(0 -8.61903e-20 0)
(0 -8.72886e-20 0)
(0 -8.81741e-20 0)
(-1.45107e-32 -8.8971e-20 0)
(0 -9.01407e-20 0)
(0 -9.09705e-20 0)
(0 -9.18255e-20 0)
(-2.90262e-32 -9.30262e-20 0)
(0 -9.38933e-20 0)
(0 -9.48908e-20 0)
(0 -9.59019e-20 0)
(-1.45156e-32 -9.67033e-20 0)
(0 -9.77969e-20 0)
(0 -9.89218e-20 0)
(0 -9.9701e-20 0)
(0 -1.00605e-19 0)
(0 -1.01898e-19 0)
(0 -1.02512e-19 0)
(0 -1.0368e-19 0)
(0 -1.04866e-19 0)
(0 -1.05558e-19 0)
(2.90446e-32 -1.06608e-19 0)
(0 -1.07583e-19 0)
(0 -1.09121e-19 0)
(0 -1.09504e-19 0)
(0 -1.10705e-19 0)
(0 -1.12399e-19 0)
(0 -1.12605e-19 0)
(1.45274e-32 -1.14124e-19 0)
(0 -1.15499e-19 0)
(0 -1.16306e-19 0)
(0 -1.17987e-19 0)
(0 -1.18593e-19 0)
(0 -1.19623e-19 0)
(0 -1.2197e-19 0)
(0 -1.22691e-19 0)
(1.45337e-32 -1.23679e-19 0)
(0 -1.25454e-19 0)
(0 -1.26865e-19 0)
(0 -1.27971e-19 0)
(0 -1.29745e-19 0)
(0 -1.31182e-19 0)
(0 -1.32535e-19 0)
(0 -1.34536e-19 0)
(0 -1.35273e-19 0)
(0 -1.37528e-19 0)
(0 -1.39282e-19 0)
(0 -1.40738e-19 0)
(0 -1.42823e-19 0)
(0 -1.44355e-19 0)
(0 -1.46134e-19 0)
(0 -1.48069e-19 0)
(0 -1.50306e-19 0)
(0 -1.5213e-19 0)
(0 -1.53562e-19 0)
(0 -1.56013e-19 0)
(0 -1.58965e-19 0)
(0 -1.60205e-19 0)
(0 -1.62383e-19 0)
(0 -1.65207e-19 0)
(0 -1.67627e-19 0)
(0 -1.69916e-19 0)
(0 -1.71964e-19 0)
(0 -1.74784e-19 0)
(0 -1.77557e-19 0)
(0 -1.80023e-19 0)
(0 -1.82725e-19 0)
(0 -1.85804e-19 0)
(0 -1.88721e-19 0)
(0 -1.91735e-19 0)
(0 -1.94847e-19 0)
(0 -1.98073e-19 0)
(0 -2.01338e-19 0)
(0 -2.04593e-19 0)
(0 -2.08095e-19 0)
(0 -2.1172e-19 0)
(0 -2.15399e-19 0)
(0 -2.1928e-19 0)
(0 -2.23333e-19 0)
(0 -2.27466e-19 0)
(0 -2.31732e-19 0)
(0 -2.36137e-19 0)
(0 -2.40672e-19 0)
(0 -2.45355e-19 0)
(0 -2.50219e-19 0)
(0 -2.55271e-19 0)
(0 -2.60515e-19 0)
(0 -2.65973e-19 0)
(0 -2.71646e-19 0)
(0 -2.77531e-19 0)
(0 -2.83641e-19 0)
(0 -2.89986e-19 0)
(0 -2.96578e-19 0)
(0 -3.03431e-19 0)
(0 -3.1056e-19 0)
(0 -3.17978e-19 0)
(0 -3.25698e-19 0)
(0 -3.33736e-19 0)
(0 -3.4211e-19 0)
(0 -3.50839e-19 0)
(0 -3.59948e-19 0)
(0 -3.69464e-19 0)
(0 -3.79421e-19 0)
(0 -3.8986e-19 0)
(0 -4.00826e-19 0)
(0 -4.12371e-19 0)
(0 -4.24547e-19 0)
(0 -4.374e-19 0)
(0 -4.50976e-19 0)
(0 -4.65329e-19 0)
(0 -4.80562e-19 0)
(0 -4.96861e-19 0)
(0 -5.14496e-19 0)
(0 -5.33724e-19 0)
(0 -5.54561e-19 0)
(0 -5.76549e-19 0)
(0 3.33996e-17 0)
(0 1.50133e-15 0)
(0 2.18564e-14 0)
(0 3.13007e-13 0)
(0 4.79016e-12 0)
(0 7.89213e-11 0)
(0 1.41174e-09 0)
(0 2.78229e-08 0)
(0 6.16996e-07 0)
(0 1.71284e-05 0)
(0 0.00135625 0)
(0 0.0923832 0)
(0 1.77173 0)
(0 9.21609 0)
(0 8.16338 0)
(0 -0.605022 0)
(0 -1.90939 0)
(0 -3.42845 0)
(0 -4.0013 0)
(0 -4.23057 0)
(0 -4.31014 0)
(0 -4.27755 0)
(0 -4.20296 0)
(0 -4.14877 0)
(0 -4.09849 0)
(0 -4.04816 0)
(0 -3.99805 0)
(0 -3.94886 0)
(0 -3.90094 0)
(0 -3.85435 0)
(0 -3.80941 0)
(0 -3.76559 0)
(0 -3.72209 0)
(0 -3.67853 0)
(0 -3.63432 0)
(0 -3.5888 0)
(0 -3.54134 0)
(0 -3.49133 0)
(0 -3.4382 0)
(0 -3.38139 0)
(0 -3.3204 0)
(0 -3.25479 0)
(0 -3.18416 0)
(0 -3.1083 0)
(0 -3.02724 0)
(0 -2.94125 0)
(0 -2.85097 0)
(0 -2.75794 0)
(0 -2.66527 0)
(0 -2.57761 0)
(0 -2.49796 0)
(0 -2.42202 0)
(0 -2.33546 0)
(0 -2.21964 0)
(0 -2.06378 0)
(0 -1.87364 0)
(0 -1.66856 0)
(0 -1.47003 0)
(0 -1.29236 0)
(0 -1.14073 0)
(0 -1.01423 0)
(0 -0.909337 0)
(0 -0.822101 0)
(0 -0.749018 0)
(0 -0.687237 0)
(0 -0.634527 0)
(0 -0.589148 0)
(0 -0.549763 0)
(0 -0.515311 0)
(0 -0.484992 0)
(0 -0.458095 0)
(0 -0.433923 0)
(-3.08049e-16 -0.412005 0)
(0 -0.392092 0)
(0 -0.373962 0)
(1.81353e-16 -0.357396 0)
(0 -0.342221 0)
(-2.01524e-16 -0.328302 0)
(0 -0.315471 0)
(1.11853e-16 -0.303529 0)
(0 -0.292249 0)
(0 -0.281304 0)
(0 -0.270429 0)
(6.89627e-17 -0.259497 0)
(0 -0.248157 0)
(0 -0.235981 0)
(0 -0.222864 0)
(0 -0.208837 0)
(0 -0.193871 0)
(-4.66147e-17 -0.177926 0)
(0 -0.161345 0)
(-5.06663e-17 -0.144691 0)
(0 -0.128161 0)
(-2.71186e-17 -0.111988 0)
(0 -0.0966384 0)
(0 -0.0823451 0)
(0 -0.0692768 0)
(0 -0.0574932 0)
(0 -0.0471472 0)
(7.48474e-18 -0.038152 0)
(0 -0.0305533 0)
(0 -0.0240146 0)
(0 -0.0187727 0)
(0 -0.0147411 0)
(0 -0.0109484 0)
(0 -0.0103761 0)
(0 -0.00580737 0)
(0 0 0)
(0 0 0)
(0 0 0)
(0 0 0)
(0 0 0)
(0 0 0)
(0 0 0)
(0 0 0)
(0 0 0)
(0 0 0)
(0 0 0)
(0 0 0)
(0 0 0)
(0 0 0)
(0 0 0)
(0 0 0)
(0 0 0)
(0 0 0)
(0 0 0)
(0 0 0)
(0 0 0)
(0 0 0)
(0 0 0)
(0 0 0)
(0 0 0)
(0 0 0)
(0 0 0)
(0 0 0)
(0 0 0)
(0 0 0)
(0 0 0)
(0 0 0)
(0 0 0)
(0 0 0)
(0 0 0)
(0 0 0)
(0 0 0)
(0 0 0)
(0 0 0)
(0 0 0)
(0 0 0)
(0 0 0)
(0 0 0)
(0 0 0)
(0 0 0)
(0 0 0)
(0 0 0)
(0 0 0)
(0 0 0)
(0 0 0)
(0 0 0)
(0 0 0)
(0 0 0)
(0 0 0)
(0 0 0)
(0 0 0)
(0 0 0)
(0 0 0)
(0 0 0)
(0 0 0)
(0 0 0)
(0 0 0)
(0 0 0)
(0 0 0)
(0 0 0)
(0 0 0)
(0 0 0)
(0 0 0)
(0 0 0)
(0 0 0)
(0 0 0)
(0 0 0)
(0 0 0)
(0 0 0)
(0 0 0)
(0 0 0)
(0 0 0)
(0 0 0)
(0 0 0)
(0 0 0)
(0 0 0)
(0 0 0)
(0 0 0)
(0 0 0)
(0 0 0)
(0 0 0)
(0 0 0)
(0 0 0)
(0 0 0)
(0 0 0)
(0 0 0)
(0 0 0)
(0 0 0)
(0 0 0)
(0 0 0)
(0 0 0)
(0 0 0)
(0 0 0)
(0 0 0)
(0 0 0)
(0 0 0)
(0 0 0)
(0 0 0)
(0 0 0)
(0 0 0)
(0 0 0)
(0 0 0)
(0 0 0)
(0 0 0)
(0 0 0)
(0 0 0)
(0 0 0)
(0 0 0)
(0 0 0)
(0 0 0)
(0 0 0)
(0 0 0)
(0 0 0)
(0 0 0)
(0 0 0)
(0 0 0)
(0 0 0)
(0 0 0)
)
;

boundaryField
{
    inandouthalf11
    {
        type            cyclic;
    }
    inandouthalf12
    {
        type            cyclic;
    }
    inandouthalf21
    {
        type            cyclic;
    }
    inandouthalf22
    {
        type            cyclic;
    }
    inandouthalf31
    {
        type            cyclic;
    }
    inandouthalf32
    {
        type            cyclic;
    }
    inandouthalf41
    {
        type            cyclic;
    }
    inandouthalf42
    {
        type            cyclic;
    }
    top
    {
        type            symmetryPlane;
    }
    walls
    {
        type            calculated;
        value           uniform (0 0 0);
    }
    frontAndBackPlanes
    {
        type            empty;
    }
}


// ************************************************************************* //
