/*--------------------------------*- C++ -*----------------------------------*\
| =========                 |                                                 |
| \\      /  F ield         | OpenFOAM: The Open Source CFD Toolbox           |
|  \\    /   O peration     | Version:  2.4.x                                 |
|   \\  /    A nd           | Web:      www.OpenFOAM.org                      |
|    \\/     M anipulation  |                                                 |
\*---------------------------------------------------------------------------*/
FoamFile
{
    version     2.0;
    format      ascii;
    class       volScalarField;
    location    "8.65";
    object      k;
}
// * * * * * * * * * * * * * * * * * * * * * * * * * * * * * * * * * * * * * //

dimensions      [0 2 -2 0 0 0 0];

internalField   nonuniform List<scalar> 
360
(
1e-20
1e-20
1e-20
1e-20
1e-20
1e-20
1e-20
1e-20
1e-20
1e-20
1e-20
1e-20
1e-20
1e-20
1e-20
1e-20
1e-20
1e-20
1e-20
1e-20
1e-20
1e-20
1e-20
1e-20
1e-20
1e-20
1e-20
1e-20
1e-20
1e-20
1e-20
1e-20
1e-20
1e-20
1e-20
1e-20
1e-20
1e-20
1e-20
1e-20
1e-20
1e-20
1e-20
1e-20
1e-20
1e-20
1e-20
1e-20
1e-20
1e-20
1e-20
1e-20
1e-20
1e-20
1e-20
1e-20
1e-20
1e-20
1e-20
1e-20
1e-20
1e-20
1e-20
1e-20
1e-20
1e-20
1e-20
1e-20
1e-20
1e-20
1e-20
1e-20
1e-20
1e-20
1e-20
1e-20
1e-20
1e-20
1e-20
1e-20
1e-20
1e-20
1e-20
1e-20
1e-20
1e-20
1e-20
1e-20
1e-20
1e-20
1e-20
1e-20
1e-20
1e-20
1e-20
1e-20
1e-20
1e-20
1e-20
1e-20
1e-20
1e-20
1e-20
1e-20
1e-20
1e-20
1e-20
1e-20
1e-20
1e-20
1e-20
1e-20
1e-20
1e-20
1e-20
1e-20
1e-20
1e-20
1e-20
1e-20
1e-20
1e-20
1e-20
1e-20
1e-20
1e-20
1e-20
1e-20
1e-20
1e-20
1e-20
1.20419e-20
9.92413e-20
1.31264e-18
1.87654e-17
2.87633e-16
4.74762e-15
8.51027e-14
1.68103e-12
3.72891e-11
9.46531e-10
2.79246e-08
9.66942e-07
3.69676e-05
0.00083224
0.00549768
0.0103445
0.0132483
0.0151457
0.0164364
0.0173184
0.0179015
0.0182561
0.0184296
0.0184549
0.0183563
0.0181537
0.0178632
0.0174986
0.0170712
0.0165909
0.0160661
0.0155042
0.0149117
0.0142942
0.0136569
0.0130044
0.0123411
0.0116708
0.0109976
0.0103249
0.0096566
0.00899629
0.00834775
0.00771492
0.0071019
0.00651297
0.00595257
0.00542519
0.00493521
0.0044866
0.00408257
0.00372516
0.00341492
0.00315067
0.00292967
0.00274788
0.00260051
0.00248249
0.00238897
0.00231551
0.00225831
0.00221419
0.00218054
0.00215528
0.00213672
0.00212354
0.00211468
0.00210929
0.00210669
0.00210633
0.00210778
0.00211076
0.002115
0.0021203
0.00212644
0.00213324
0.00214051
0.00214808
0.00215581
0.00216354
0.0021711
0.00217837
0.00218519
0.00219142
0.00219692
0.00220155
0.00220516
0.00220762
0.00220877
0.00220848
0.0022066
0.002203
0.00219753
0.00219004
0.00218041
0.00216849
0.00215414
0.00213723
0.00211763
0.00209522
0.00206988
0.00204148
0.00200993
0.00197512
0.00193698
0.00189541
0.00185036
0.00180178
0.00174964
0.00169394
0.00163469
0.00157193
0.00150573
0.0014362
0.0013635
0.00128781
0.00120938
0.00112851
0.00104556
0.000960964
0.000875241
0.000788981
0.000702869
0.000617677
0.000534267
0.000453582
0.000376625
0.000304427
0.000237998
0.000178257
0.000125957
8.16253e-05
4.55748e-05
1.80494e-05
2.76635e-06
9.31395e-08
1.5115e-09
2.3544e-11
3.66309e-13
5.68234e-15
8.74927e-17
1.33361e-18
2.673e-20
1e-20
1e-20
1e-20
1e-20
1e-20
1e-20
1e-20
1e-20
1e-20
1e-20
1e-20
1e-20
1e-20
1e-20
1e-20
1e-20
1e-20
1e-20
1e-20
1e-20
1e-20
1e-20
1e-20
1e-20
1e-20
1e-20
1e-20
1e-20
1e-20
1e-20
1e-20
1e-20
1e-20
1e-20
1e-20
1e-20
1e-20
1e-20
1e-20
1e-20
1e-20
1e-20
1e-20
1e-20
1e-20
1e-20
1e-20
1e-20
1e-20
1e-20
1e-20
1e-20
1e-20
1e-20
1e-20
1e-20
1e-20
1e-20
1e-20
1e-20
1e-20
1e-20
1e-20
1e-20
1e-20
1e-20
1e-20
1e-20
1e-20
1e-20
1e-20
1e-20
1e-20
1e-20
1e-20
1e-20
1e-20
1e-20
1e-20
1e-20
1e-20
1e-20
1e-20
1e-20
1e-20
1e-20
)
;

boundaryField
{
    inandouthalf11
    {
        type            cyclic;
    }
    inandouthalf12
    {
        type            cyclic;
    }
    inandouthalf21
    {
        type            cyclic;
    }
    inandouthalf22
    {
        type            cyclic;
    }
    inandouthalf31
    {
        type            cyclic;
    }
    inandouthalf32
    {
        type            cyclic;
    }
    inandouthalf41
    {
        type            cyclic;
    }
    inandouthalf42
    {
        type            cyclic;
    }
    top
    {
        type            symmetryPlane;
    }
    walls
    {
        type            zeroGradient;
    }
    frontAndBackPlanes
    {
        type            empty;
    }
}


// ************************************************************************* //
