/*--------------------------------*- C++ -*----------------------------------*\
| =========                 |                                                 |
| \\      /  F ield         | OpenFOAM: The Open Source CFD Toolbox           |
|  \\    /   O peration     | Version:  2.4.x                                 |
|   \\  /    A nd           | Web:      www.OpenFOAM.org                      |
|    \\/     M anipulation  |                                                 |
\*---------------------------------------------------------------------------*/
FoamFile
{
    version     2.0;
    format      ascii;
    class       volScalarField;
    location    "8.65";
    object      k_0;
}
// * * * * * * * * * * * * * * * * * * * * * * * * * * * * * * * * * * * * * //

dimensions      [0 2 -2 0 0 0 0];

internalField   nonuniform List<scalar> 
360
(
1e-20
1e-20
1e-20
1e-20
1e-20
1e-20
1e-20
1e-20
1e-20
1e-20
1e-20
1e-20
1e-20
1e-20
1e-20
1e-20
1e-20
1e-20
1e-20
1e-20
1e-20
1e-20
1e-20
1e-20
1e-20
1e-20
1e-20
1e-20
1e-20
1e-20
1e-20
1e-20
1e-20
1e-20
1e-20
1e-20
1e-20
1e-20
1e-20
1e-20
1e-20
1e-20
1e-20
1e-20
1e-20
1e-20
1e-20
1e-20
1e-20
1e-20
1e-20
1e-20
1e-20
1e-20
1e-20
1e-20
1e-20
1e-20
1e-20
1e-20
1e-20
1e-20
1e-20
1e-20
1e-20
1e-20
1e-20
1e-20
1e-20
1e-20
1e-20
1e-20
1e-20
1e-20
1e-20
1e-20
1e-20
1e-20
1e-20
1e-20
1e-20
1e-20
1e-20
1e-20
1e-20
1e-20
1e-20
1e-20
1e-20
1e-20
1e-20
1e-20
1e-20
1e-20
1e-20
1e-20
1e-20
1e-20
1e-20
1e-20
1e-20
1e-20
1e-20
1e-20
1e-20
1e-20
1e-20
1e-20
1e-20
1e-20
1e-20
1e-20
1e-20
1e-20
1e-20
1e-20
1e-20
1e-20
1e-20
1e-20
1e-20
1e-20
1e-20
1e-20
1e-20
1e-20
1e-20
1e-20
1e-20
1e-20
1e-20
1.202e-20
9.88533e-20
1.30734e-18
1.86894e-17
2.8648e-16
4.72901e-15
8.47764e-14
1.67464e-12
3.71454e-11
9.42771e-10
2.78096e-08
9.62835e-07
3.68166e-05
0.00082983
0.00549055
0.0103386
0.0132434
0.0151417
0.0164332
0.0173159
0.0178995
0.0182544
0.0184281
0.0184534
0.0183548
0.018152
0.0178614
0.0174965
0.0170688
0.0165883
0.0160632
0.0155011
0.0149083
0.0142906
0.0136531
0.0130005
0.012337
0.0116667
0.0109933
0.0103206
0.00965224
0.00899191
0.00834339
0.00771061
0.00709767
0.00650886
0.00594861
0.00542143
0.00493169
0.00448335
0.00407963
0.00372256
0.00341265
0.00314874
0.00292806
0.00274657
0.00259946
0.00248167
0.00238833
0.00231503
0.00225797
0.00221395
0.0021804
0.0021552
0.00213671
0.00212358
0.00211476
0.0021094
0.00210684
0.0021065
0.00210797
0.00211096
0.00211523
0.00212054
0.00212669
0.0021335
0.00214078
0.00214836
0.0021561
0.00216383
0.0021714
0.00217867
0.00218549
0.00219172
0.00219722
0.00220185
0.00220546
0.00220791
0.00220906
0.00220877
0.00220689
0.00220328
0.0021978
0.00219031
0.00218067
0.00216873
0.00215438
0.00213746
0.00211785
0.00209543
0.00207007
0.00204167
0.0020101
0.00197528
0.00193712
0.00189554
0.00185048
0.00180189
0.00174974
0.00169402
0.00163475
0.00157197
0.00150576
0.00143622
0.0013635
0.0012878
0.00120936
0.00112847
0.00104551
0.000960905
0.000875173
0.000788905
0.000702786
0.00061759
0.000534178
0.000453493
0.000376538
0.000304345
0.000237923
0.000178191
0.000125902
8.15816e-05
4.55425e-05
1.80282e-05
2.76004e-06
9.28266e-08
1.50642e-09
2.34678e-11
3.6517e-13
5.66532e-15
8.72391e-17
1.32986e-18
2.66769e-20
1e-20
1e-20
1e-20
1e-20
1e-20
1e-20
1e-20
1e-20
1e-20
1e-20
1e-20
1e-20
1e-20
1e-20
1e-20
1e-20
1e-20
1e-20
1e-20
1e-20
1e-20
1e-20
1e-20
1e-20
1e-20
1e-20
1e-20
1e-20
1e-20
1e-20
1e-20
1e-20
1e-20
1e-20
1e-20
1e-20
1e-20
1e-20
1e-20
1e-20
1e-20
1e-20
1e-20
1e-20
1e-20
1e-20
1e-20
1e-20
1e-20
1e-20
1e-20
1e-20
1e-20
1e-20
1e-20
1e-20
1e-20
1e-20
1e-20
1e-20
1e-20
1e-20
1e-20
1e-20
1e-20
1e-20
1e-20
1e-20
1e-20
1e-20
1e-20
1e-20
1e-20
1e-20
1e-20
1e-20
1e-20
1e-20
1e-20
1e-20
1e-20
1e-20
1e-20
1e-20
1e-20
1e-20
)
;

boundaryField
{
    inandouthalf11
    {
        type            cyclic;
    }
    inandouthalf12
    {
        type            cyclic;
    }
    inandouthalf21
    {
        type            cyclic;
    }
    inandouthalf22
    {
        type            cyclic;
    }
    inandouthalf31
    {
        type            cyclic;
    }
    inandouthalf32
    {
        type            cyclic;
    }
    inandouthalf41
    {
        type            cyclic;
    }
    inandouthalf42
    {
        type            cyclic;
    }
    top
    {
        type            symmetryPlane;
    }
    walls
    {
        type            zeroGradient;
    }
    frontAndBackPlanes
    {
        type            empty;
    }
}


// ************************************************************************* //
