/*--------------------------------*- C++ -*----------------------------------*\
| =========                 |                                                 |
| \\      /  F ield         | OpenFOAM: The Open Source CFD Toolbox           |
|  \\    /   O peration     | Version:  2.4.x                                 |
|   \\  /    A nd           | Web:      www.OpenFOAM.org                      |
|    \\/     M anipulation  |                                                 |
\*---------------------------------------------------------------------------*/
FoamFile
{
    version     2.0;
    format      ascii;
    class       volScalarField;
    location    "8.65";
    object      p;
}
// * * * * * * * * * * * * * * * * * * * * * * * * * * * * * * * * * * * * * //

dimensions      [1 -1 -2 0 0 0 0];

internalField   nonuniform List<scalar> 
360
(
4900.28
4895.37
4890.47
4885.56
4880.65
4875.75
4870.84
4865.94
4861.03
4856.12
4851.21
4846.31
4841.4
4836.49
4831.58
4826.67
4821.76
4816.85
4811.95
4807.04
4802.13
4797.21
4792.3
4787.39
4782.48
4777.57
4772.66
4767.75
4762.83
4757.92
4753.01
4748.1
4743.18
4738.27
4733.35
4728.44
4723.53
4718.61
4713.7
4708.78
4703.87
4698.95
4694.03
4689.12
4684.2
4679.29
4674.37
4669.45
4664.53
4659.62
4654.7
4649.78
4644.86
4639.95
4635.03
4630.11
4625.19
4620.27
4615.35
4610.43
4605.51
4600.59
4595.67
4590.75
4585.83
4580.91
4575.99
4571.07
4566.15
4561.22
4556.3
4551.38
4546.46
4541.54
4536.61
4531.69
4526.77
4521.85
4516.92
4512
4507.08
4502.15
4497.23
4492.31
4487.38
4482.46
4477.53
4472.61
4467.68
4462.76
4457.83
4452.91
4447.98
4443.06
4438.13
4433.21
4428.28
4423.36
4418.43
4413.5
4408.58
4403.65
4398.72
4393.8
4388.87
4383.94
4379.02
4374.09
4369.16
4364.24
4359.31
4354.38
4349.45
4344.53
4339.6
4334.67
4329.74
4324.81
4319.89
4314.96
4310.03
4305.1
4300.17
4295.25
4290.32
4285.39
4280.46
4275.53
4270.6
4265.67
4260.75
4255.82
4250.89
4245.96
4241.03
4236.1
4231.17
4226.24
4221.31
4216.38
4211.45
4206.53
4201.58
4196.69
4190.53
4179.96
4170.18
4162.42
4155.57
4149.18
4143.1
4137.23
4131.49
4125.89
4120.41
4115.04
4109.76
4104.59
4099.49
4094.48
4089.53
4084.65
4079.83
4075.06
4070.33
4065.65
4061
4056.38
4051.79
4047.22
4042.67
4038.12
4033.59
4029.06
4024.53
4019.99
4015.44
4010.89
4006.31
4001.71
3997.09
3992.45
3987.77
3983.07
3978.33
3973.57
3968.78
3963.97
3959.15
3954.3
3949.44
3944.58
3939.7
3934.82
3929.93
3925.03
3920.14
3915.24
3910.34
3905.43
3900.53
3895.57
3890.51
3885.35
3880.09
3874.71
3869.23
3863.63
3857.93
3852.1
3846.16
3840.1
3833.91
3827.6
3821.16
3814.59
3807.89
3801.06
3794.08
3786.97
3779.71
3772.31
3764.75
3757.05
3749.19
3741.17
3732.99
3724.64
3716.13
3707.44
3698.59
3689.55
3680.33
3670.93
3661.33
3651.55
3641.56
3631.38
3620.99
3610.39
3599.58
3588.55
3577.3
3565.82
3554.11
3542.17
3529.98
3517.54
3504.86
3491.91
3478.71
3465.23
3451.48
3437.45
3423.14
3408.53
3393.62
3378.41
3362.88
3347.03
3330.85
3314.35
3297.5
3280.3
3262.75
3244.83
3226.54
3207.87
3188.83
3169.4
3149.58
3129.35
3108.72
3087.66
3066.18
3044.26
3021.9
2999.08
2975.8
2952.05
2927.81
2903.09
2877.86
2852.12
2825.86
2799.06
2771.72
2743.82
2715.36
2686.32
2656.7
2626.47
2595.62
2564.15
2532.05
2499.29
2465.86
2431.76
2396.96
2361.46
2325.24
2288.28
2250.57
2212.1
2172.85
2132.8
2091.93
2050.24
2007.7
1964.3
1922.76
1883.52
1844.28
1805.04
1765.8
1726.56
1687.32
1648.08
1608.84
1569.6
1530.36
1491.12
1451.88
1412.64
1373.4
1334.16
1294.92
1255.68
1216.44
1177.2
1137.96
1098.72
1059.48
1020.24
981
941.76
902.52
863.28
824.04
784.8
745.56
706.32
667.08
627.84
588.6
549.36
510.12
470.88
431.64
392.4
353.16
313.92
274.68
235.44
196.2
156.96
117.72
78.48
39.24
3.53249e-07
)
;

boundaryField
{
    inandouthalf11
    {
        type            cyclic;
    }
    inandouthalf12
    {
        type            cyclic;
    }
    inandouthalf21
    {
        type            cyclic;
    }
    inandouthalf22
    {
        type            cyclic;
    }
    inandouthalf31
    {
        type            cyclic;
    }
    inandouthalf32
    {
        type            cyclic;
    }
    inandouthalf41
    {
        type            cyclic;
    }
    inandouthalf42
    {
        type            cyclic;
    }
    top
    {
        type            symmetryPlane;
    }
    walls
    {
        type            slip;
    }
    frontAndBackPlanes
    {
        type            empty;
    }
}


// ************************************************************************* //
