/*--------------------------------*- C++ -*----------------------------------*\
| =========                 |                                                 |
| \\      /  F ield         | OpenFOAM: The Open Source CFD Toolbox           |
|  \\    /   O peration     | Version:  2.4.x                                 |
|   \\  /    A nd           | Web:      www.OpenFOAM.org                      |
|    \\/     M anipulation  |                                                 |
\*---------------------------------------------------------------------------*/
FoamFile
{
    version     2.0;
    format      ascii;
    class       surfaceScalarField;
    location    "8.65";
    object      phia_0;
}
// * * * * * * * * * * * * * * * * * * * * * * * * * * * * * * * * * * * * * //

dimensions      [0 3 -1 0 0 0 0];

internalField   nonuniform List<scalar> 
359
(
-1.07317e-13
-2.70208e-13
-4.23942e-13
-5.74807e-13
-7.32308e-13
-8.95354e-13
-1.06122e-12
-1.22897e-12
-1.39855e-12
-1.57013e-12
-1.74369e-12
-1.91906e-12
-2.09607e-12
-2.2745e-12
-2.45418e-12
-2.63498e-12
-2.81671e-12
-2.99919e-12
-3.18222e-12
-3.36561e-12
-3.54914e-12
-3.73263e-12
-3.91592e-12
-4.09881e-12
-4.28114e-12
-4.46276e-12
-4.64349e-12
-4.82324e-12
-5.00187e-12
-5.17927e-12
-5.35534e-12
-5.53003e-12
-5.7032e-12
-5.8749e-12
-6.045e-12
-6.21352e-12
-6.3804e-12
-6.54566e-12
-6.70935e-12
-6.87136e-12
-7.03183e-12
-7.19073e-12
-7.34805e-12
-7.50391e-12
-7.65829e-12
-7.81127e-12
-7.96288e-12
-8.11308e-12
-8.26199e-12
-8.40971e-12
-8.55618e-12
-8.70151e-12
-8.84569e-12
-8.98881e-12
-9.13083e-12
-9.27188e-12
-9.41189e-12
-9.55095e-12
-9.68903e-12
-9.82611e-12
-9.96233e-12
-1.00976e-11
-1.02321e-11
-1.03657e-11
-1.04984e-11
-1.06302e-11
-1.07612e-11
-1.08912e-11
-1.10204e-11
-1.11486e-11
-1.12759e-11
-1.14023e-11
-1.15278e-11
-1.16524e-11
-1.17761e-11
-1.18988e-11
-1.20205e-11
-1.21413e-11
-1.22609e-11
-1.23795e-11
-1.2497e-11
-1.26134e-11
-1.27287e-11
-1.28428e-11
-1.29559e-11
-1.30678e-11
-1.31785e-11
-1.32881e-11
-1.33963e-11
-1.35034e-11
-1.36091e-11
-1.37134e-11
-1.38165e-11
-1.39181e-11
-1.40185e-11
-1.41175e-11
-1.42151e-11
-1.43114e-11
-1.44062e-11
-1.44997e-11
-1.45916e-11
-1.46822e-11
-1.47713e-11
-1.48589e-11
-1.49452e-11
-1.503e-11
-1.51135e-11
-1.51957e-11
-1.52767e-11
-1.53566e-11
-1.54354e-11
-1.55133e-11
-1.55903e-11
-1.56667e-11
-1.57425e-11
-1.58177e-11
-1.58925e-11
-1.59667e-11
-1.60404e-11
-1.61135e-11
-1.61857e-11
-1.62568e-11
-1.63267e-11
-1.63952e-11
-1.64621e-11
-1.65276e-11
-1.6592e-11
-1.66559e-11
-1.67202e-11
-1.67863e-11
-1.68555e-11
-1.69296e-11
-1.70104e-11
-1.70993e-11
-1.71962e-11
-1.72978e-11
-1.73964e-11
-1.74816e-11
-1.75441e-11
-1.75804e-11
-1.7595e-11
-1.75984e-11
-1.75991e-11
-1.75932e-11
4.36514e-09
9.49685e-09
1.2388e-08
1.42271e-08
1.55746e-08
1.66598e-08
1.76056e-08
1.84977e-08
1.94072e-08
2.03529e-08
2.13579e-08
2.24388e-08
2.3606e-08
2.48646e-08
2.62161e-08
2.76579e-08
2.91865e-08
3.07949e-08
3.24753e-08
3.42186e-08
3.60147e-08
3.7853e-08
3.9722e-08
4.16098e-08
4.35038e-08
4.53904e-08
4.7255e-08
4.90814e-08
5.08524e-08
5.25497e-08
5.41535e-08
5.56432e-08
5.69962e-08
5.81875e-08
5.91845e-08
5.99374e-08
6.03751e-08
6.04217e-08
6.00334e-08
5.9229e-08
5.80884e-08
5.67229e-08
5.52412e-08
5.37294e-08
5.22465e-08
5.08285e-08
4.94948e-08
4.8254e-08
4.71081e-08
4.60554e-08
4.50921e-08
4.42137e-08
4.34152e-08
4.26916e-08
4.20381e-08
4.14504e-08
4.09239e-08
4.04458e-08
4.00152e-08
3.96313e-08
3.92927e-08
3.89982e-08
3.87462e-08
3.85349e-08
3.83621e-08
3.82252e-08
3.81213e-08
3.80472e-08
3.79994e-08
3.79741e-08
3.79675e-08
3.79754e-08
3.79943e-08
3.80206e-08
3.8051e-08
3.80825e-08
3.81132e-08
3.81409e-08
3.81639e-08
3.81808e-08
3.81906e-08
3.81921e-08
3.81848e-08
3.81671e-08
3.81404e-08
3.81011e-08
3.80555e-08
3.79906e-08
3.79309e-08
3.78508e-08
3.7741e-08
3.76462e-08
3.60945e-08
3.54678e-08
3.50718e-08
3.47505e-08
3.47282e-08
3.44085e-08
3.60402e-08
3.25195e-08
4.21446e-08
-1.03773e-08
-1.30375e-07
-1.58423e-07
-1.58365e-07
-1.58372e-07
-1.58371e-07
-1.58368e-07
-1.58364e-07
-1.58357e-07
-1.58348e-07
-1.58336e-07
-1.58322e-07
-1.58306e-07
-1.58287e-07
-1.58266e-07
-1.58245e-07
-1.58223e-07
-1.582e-07
-1.58175e-07
-1.58138e-07
-1.58103e-07
-1.58098e-07
-1.58099e-07
-1.58099e-07
-1.58099e-07
-1.58099e-07
-1.58099e-07
-1.58099e-07
-1.58099e-07
-1.58099e-07
-1.58099e-07
-1.58099e-07
-1.58099e-07
-1.58099e-07
-1.58099e-07
-1.58099e-07
-1.58099e-07
-1.58099e-07
-1.58099e-07
-1.58099e-07
-1.58099e-07
-1.58099e-07
-1.58099e-07
-1.58099e-07
-1.58099e-07
-1.58099e-07
-1.58099e-07
-1.58099e-07
-1.58099e-07
-1.58099e-07
-1.58099e-07
-1.58099e-07
-1.58099e-07
-1.58099e-07
-1.58099e-07
-1.58099e-07
-1.58099e-07
-1.58099e-07
-1.58099e-07
-1.58099e-07
-1.58099e-07
-1.58099e-07
-1.58099e-07
-1.58099e-07
-1.58099e-07
-1.58099e-07
-1.58099e-07
-1.58099e-07
-1.58099e-07
-1.58099e-07
-1.58099e-07
-1.58099e-07
-1.58099e-07
-1.58099e-07
-1.58099e-07
-1.58099e-07
-1.58099e-07
-1.58099e-07
-1.58099e-07
-1.58099e-07
-1.58099e-07
-1.58099e-07
-1.58099e-07
-1.58099e-07
-1.58099e-07
-1.58099e-07
-1.58099e-07
-1.58099e-07
-1.58099e-07
-1.58099e-07
-1.58099e-07
-1.58099e-07
-1.58099e-07
-1.58099e-07
-1.58099e-07
-1.58099e-07
-1.58099e-07
-1.58099e-07
-1.58099e-07
-1.58099e-07
-1.58099e-07
-1.58099e-07
-1.58099e-07
-1.58099e-07
-1.58099e-07
-1.58099e-07
-1.58099e-07
-1.58099e-07
-1.58099e-07
-1.58099e-07
-1.58098e-07
-1.58081e-07
-1.57373e-07
-1.32447e-07
)
;

boundaryField
{
    inandouthalf11
    {
        type            cyclic;
        value           nonuniform List<scalar> 
100
(
-2.00936e-38
-1.41586e-14
-2.9782e-14
-4.4096e-14
-5.89013e-14
-7.45268e-14
-9.05775e-14
-1.06849e-13
-1.23319e-13
-1.40001e-13
-1.56899e-13
-1.74003e-13
-1.91296e-13
-2.08759e-13
-2.26372e-13
-2.4412e-13
-2.61987e-13
-2.79954e-13
-2.98003e-13
-3.16114e-13
-3.34266e-13
-3.52441e-13
-3.70619e-13
-3.88784e-13
-4.06918e-13
-4.25003e-13
-4.43025e-13
-4.6097e-13
-4.78825e-13
-4.96579e-13
-5.1422e-13
-5.3174e-13
-5.49132e-13
-5.66389e-13
-5.83507e-13
-6.00482e-13
-6.17309e-13
-6.33989e-13
-6.50523e-13
-6.6691e-13
-6.8315e-13
-6.99248e-13
-7.15203e-13
-7.3102e-13
-7.46704e-13
-7.62258e-13
-7.77687e-13
-7.92991e-13
-8.08176e-13
-8.23248e-13
-8.38214e-13
-8.53073e-13
-8.67832e-13
-8.82494e-13
-8.97063e-13
-9.11542e-13
-9.25935e-13
-9.40243e-13
-9.54468e-13
-9.68609e-13
-9.82671e-13
-9.96657e-13
-1.01057e-12
-1.02441e-12
-1.03818e-12
-1.05188e-12
-1.0655e-12
-1.07905e-12
-1.09253e-12
-1.10592e-12
-1.11924e-12
-1.13249e-12
-1.14566e-12
-1.15875e-12
-1.17177e-12
-1.18471e-12
-1.19757e-12
-1.21034e-12
-1.22303e-12
-1.23562e-12
-1.24813e-12
-1.26053e-12
-1.27285e-12
-1.28506e-12
-1.29719e-12
-1.30922e-12
-1.32115e-12
-1.33298e-12
-1.3447e-12
-1.35632e-12
-1.36782e-12
-1.37921e-12
-1.39049e-12
-1.40165e-12
-1.4127e-12
-1.42363e-12
-1.43445e-12
-1.44515e-12
-1.45574e-12
-1.46621e-12
)
;
    }
    inandouthalf12
    {
        type            cyclic;
        value           nonuniform List<scalar> 
100
(
2.00936e-38
1.41586e-14
2.9782e-14
4.4096e-14
5.89013e-14
7.45268e-14
9.05775e-14
1.06849e-13
1.23319e-13
1.40001e-13
1.56899e-13
1.74003e-13
1.91296e-13
2.08759e-13
2.26372e-13
2.4412e-13
2.61987e-13
2.79954e-13
2.98003e-13
3.16114e-13
3.34266e-13
3.52441e-13
3.70619e-13
3.88784e-13
4.06918e-13
4.25003e-13
4.43025e-13
4.6097e-13
4.78825e-13
4.96579e-13
5.1422e-13
5.3174e-13
5.49132e-13
5.66389e-13
5.83507e-13
6.00482e-13
6.17309e-13
6.33989e-13
6.50523e-13
6.6691e-13
6.8315e-13
6.99248e-13
7.15203e-13
7.3102e-13
7.46704e-13
7.62258e-13
7.77687e-13
7.92991e-13
8.08176e-13
8.23248e-13
8.38214e-13
8.53073e-13
8.67832e-13
8.82494e-13
8.97063e-13
9.11542e-13
9.25935e-13
9.40243e-13
9.54468e-13
9.68609e-13
9.82671e-13
9.96657e-13
1.01057e-12
1.02441e-12
1.03818e-12
1.05188e-12
1.0655e-12
1.07905e-12
1.09253e-12
1.10592e-12
1.11924e-12
1.13249e-12
1.14566e-12
1.15875e-12
1.17177e-12
1.18471e-12
1.19757e-12
1.21034e-12
1.22303e-12
1.23562e-12
1.24813e-12
1.26053e-12
1.27285e-12
1.28506e-12
1.29719e-12
1.30922e-12
1.32115e-12
1.33298e-12
1.3447e-12
1.35632e-12
1.36782e-12
1.37921e-12
1.39049e-12
1.40165e-12
1.4127e-12
1.42363e-12
1.43445e-12
1.44515e-12
1.45574e-12
1.46621e-12
)
;
    }
    inandouthalf21
    {
        type            cyclic;
        value           nonuniform List<scalar> 
100
(
-1.47655e-12
-1.48678e-12
-1.49689e-12
-1.50688e-12
-1.51676e-12
-1.52653e-12
-1.53619e-12
-1.54575e-12
-1.55522e-12
-1.56462e-12
-1.57395e-12
-1.58323e-12
-1.59248e-12
-1.60171e-12
-1.61095e-12
-1.6202e-12
-1.62948e-12
-1.6388e-12
-1.64816e-12
-1.65756e-12
-1.66698e-12
-1.67641e-12
-1.68584e-12
-1.69523e-12
-1.70458e-12
-1.71389e-12
-1.72321e-12
-1.73262e-12
-1.74224e-12
-1.75227e-12
-1.76296e-12
-1.77461e-12
-1.78762e-12
-1.80236e-12
-1.81913e-12
-1.83784e-12
-1.85762e-12
-1.87666e-12
-1.8926e-12
-1.90346e-12
-1.90881e-12
-1.91051e-12
-1.91104e-12
-1.91148e-12
-1.91303e-12
-9.2816e-08
-2.11747e-07
-3.15685e-07
-4.05862e-07
-4.85377e-07
-5.56508e-07
-6.20868e-07
-6.79674e-07
-7.3362e-07
-7.83323e-07
-8.29293e-07
-8.71953e-07
-9.11656e-07
-9.48699e-07
-9.83335e-07
-1.01578e-06
-1.04623e-06
-1.07484e-06
-1.10174e-06
-1.12707e-06
-1.15092e-06
-1.17337e-06
-1.19451e-06
-1.21437e-06
-1.233e-06
-1.25043e-06
-1.26668e-06
-1.28175e-06
-1.29564e-06
-1.30836e-06
-1.3199e-06
-1.33027e-06
-1.33948e-06
-1.34755e-06
-1.35454e-06
-1.3605e-06
-1.36553e-06
-1.36972e-06
-1.37318e-06
-1.37603e-06
-1.37837e-06
-1.38029e-06
-1.38186e-06
-1.38314e-06
-1.38418e-06
-1.38502e-06
-1.38569e-06
-1.38622e-06
-1.38662e-06
-1.38691e-06
-1.38712e-06
-1.38725e-06
-1.38731e-06
-1.38733e-06
-1.38729e-06
)
;
    }
    inandouthalf22
    {
        type            cyclic;
        value           nonuniform List<scalar> 
100
(
1.47655e-12
1.48678e-12
1.49689e-12
1.50688e-12
1.51676e-12
1.52653e-12
1.53619e-12
1.54575e-12
1.55522e-12
1.56462e-12
1.57395e-12
1.58323e-12
1.59248e-12
1.60171e-12
1.61095e-12
1.6202e-12
1.62948e-12
1.6388e-12
1.64816e-12
1.65756e-12
1.66698e-12
1.67641e-12
1.68584e-12
1.69523e-12
1.70458e-12
1.71389e-12
1.72321e-12
1.73262e-12
1.74224e-12
1.75227e-12
1.76296e-12
1.77461e-12
1.78762e-12
1.80236e-12
1.81913e-12
1.83784e-12
1.85762e-12
1.87666e-12
1.8926e-12
1.90346e-12
1.90881e-12
1.91051e-12
1.91104e-12
1.91148e-12
1.91303e-12
9.2816e-08
2.11747e-07
3.15685e-07
4.05862e-07
4.85377e-07
5.56508e-07
6.20868e-07
6.79674e-07
7.3362e-07
7.83323e-07
8.29293e-07
8.71953e-07
9.11656e-07
9.48699e-07
9.83335e-07
1.01578e-06
1.04623e-06
1.07484e-06
1.10174e-06
1.12707e-06
1.15092e-06
1.17337e-06
1.19451e-06
1.21437e-06
1.233e-06
1.25043e-06
1.26668e-06
1.28175e-06
1.29564e-06
1.30836e-06
1.3199e-06
1.33027e-06
1.33948e-06
1.34755e-06
1.35454e-06
1.3605e-06
1.36553e-06
1.36972e-06
1.37318e-06
1.37603e-06
1.37837e-06
1.38029e-06
1.38186e-06
1.38314e-06
1.38418e-06
1.38502e-06
1.38569e-06
1.38622e-06
1.38662e-06
1.38691e-06
1.38712e-06
1.38725e-06
1.38731e-06
1.38733e-06
1.38729e-06
)
;
    }
    inandouthalf31
    {
        type            cyclic;
        value           nonuniform List<scalar> 
110
(
-1.38723e-06
-1.41529e-06
-1.44388e-06
-1.47303e-06
-1.50274e-06
-1.53303e-06
-1.5639e-06
-1.59538e-06
-1.62748e-06
-1.66022e-06
-1.69359e-06
-1.72763e-06
-1.76235e-06
-1.79776e-06
-1.83388e-06
-1.87072e-06
-1.9083e-06
-1.94664e-06
-1.98575e-06
-2.02566e-06
-2.06637e-06
-2.10791e-06
-2.15029e-06
-2.19354e-06
-2.23766e-06
-2.28269e-06
-2.32863e-06
-2.37551e-06
-2.42335e-06
-2.47218e-06
-2.52201e-06
-2.57288e-06
-2.62481e-06
-2.67783e-06
-2.73199e-06
-2.78732e-06
-2.84384e-06
-2.89777e-06
-2.95138e-06
-3.00599e-06
-3.06159e-06
-3.11807e-06
-3.17579e-06
-3.23412e-06
-3.29428e-06
-3.35502e-06
-3.41709e-06
-3.48186e-06
-3.54572e-06
-3.61156e-06
-3.6787e-06
-3.74731e-06
-3.81744e-06
-3.88919e-06
-3.96267e-06
-4.03799e-06
-4.11527e-06
-4.19466e-06
-4.27629e-06
-4.36031e-06
-4.44687e-06
-4.53617e-06
-4.62809e-06
-4.72276e-06
-4.81998e-06
-4.91884e-06
-5.01888e-06
-5.12076e-06
-5.2247e-06
-5.33075e-06
-5.43895e-06
-5.54934e-06
-5.66198e-06
-5.7769e-06
-5.89416e-06
-6.0138e-06
-6.13586e-06
-6.2604e-06
-6.38747e-06
-6.51712e-06
-6.6494e-06
-6.78436e-06
-6.92207e-06
-7.06257e-06
-7.20592e-06
-7.35218e-06
-7.50141e-06
-7.65367e-06
-7.80902e-06
-7.96752e-06
-8.12924e-06
-8.29424e-06
-8.46259e-06
-8.63436e-06
-8.80962e-06
-8.98843e-06
-9.17087e-06
-9.35701e-06
-9.54693e-06
-9.74071e-06
-9.93842e-06
-1.01401e-05
-1.0346e-05
-1.0556e-05
-1.07702e-05
-1.09888e-05
-1.12119e-05
-1.14394e-05
-1.16716e-05
-1.19085e-05
)
;
    }
    inandouthalf32
    {
        type            cyclic;
        value           nonuniform List<scalar> 
110
(
1.38723e-06
1.41529e-06
1.44388e-06
1.47303e-06
1.50274e-06
1.53303e-06
1.5639e-06
1.59538e-06
1.62748e-06
1.66022e-06
1.69359e-06
1.72763e-06
1.76235e-06
1.79776e-06
1.83388e-06
1.87072e-06
1.9083e-06
1.94664e-06
1.98575e-06
2.02566e-06
2.06637e-06
2.10791e-06
2.15029e-06
2.19354e-06
2.23766e-06
2.28269e-06
2.32863e-06
2.37551e-06
2.42335e-06
2.47218e-06
2.52201e-06
2.57288e-06
2.62481e-06
2.67783e-06
2.73199e-06
2.78732e-06
2.84384e-06
2.89777e-06
2.95138e-06
3.00599e-06
3.06159e-06
3.11807e-06
3.17579e-06
3.23412e-06
3.29428e-06
3.35502e-06
3.41709e-06
3.48186e-06
3.54572e-06
3.61156e-06
3.6787e-06
3.74731e-06
3.81744e-06
3.88919e-06
3.96267e-06
4.03799e-06
4.11527e-06
4.19466e-06
4.27629e-06
4.36031e-06
4.44687e-06
4.53617e-06
4.62809e-06
4.72276e-06
4.81998e-06
4.91884e-06
5.01888e-06
5.12076e-06
5.2247e-06
5.33075e-06
5.43895e-06
5.54934e-06
5.66198e-06
5.7769e-06
5.89416e-06
6.0138e-06
6.13586e-06
6.2604e-06
6.38747e-06
6.51712e-06
6.6494e-06
6.78436e-06
6.92207e-06
7.06257e-06
7.20592e-06
7.35218e-06
7.50141e-06
7.65367e-06
7.80902e-06
7.96752e-06
8.12924e-06
8.29424e-06
8.46259e-06
8.63436e-06
8.80962e-06
8.98843e-06
9.17087e-06
9.35701e-06
9.54693e-06
9.74071e-06
9.93842e-06
1.01401e-05
1.0346e-05
1.0556e-05
1.07702e-05
1.09888e-05
1.12119e-05
1.14394e-05
1.16716e-05
1.19085e-05
)
;
    }
    inandouthalf41
    {
        type            cyclic;
        value           nonuniform List<scalar> 
50
(
-1.06594e-05
-1.06594e-05
-1.06594e-05
-1.06594e-05
-1.06594e-05
-1.06594e-05
-1.06594e-05
-1.06594e-05
-1.06594e-05
-1.06594e-05
-1.06594e-05
-1.06594e-05
-1.06594e-05
-1.06594e-05
-1.06594e-05
-1.06594e-05
-1.06594e-05
-1.06594e-05
-1.06594e-05
-1.06594e-05
-1.06594e-05
-1.06594e-05
-1.06594e-05
-1.06594e-05
-1.06594e-05
-1.06594e-05
-1.06594e-05
-1.06594e-05
-1.06594e-05
-1.06594e-05
-1.06594e-05
-1.06594e-05
-1.06594e-05
-1.06594e-05
-1.06594e-05
-1.06594e-05
-1.06594e-05
-1.06594e-05
-1.06594e-05
-1.06594e-05
-1.06594e-05
-1.06594e-05
-1.06594e-05
-1.06594e-05
-1.06594e-05
-1.06594e-05
-1.06594e-05
-1.06593e-05
-1.06592e-05
-1.06554e-05
)
;
    }
    inandouthalf42
    {
        type            cyclic;
        value           nonuniform List<scalar> 
50
(
1.06594e-05
1.06594e-05
1.06594e-05
1.06594e-05
1.06594e-05
1.06594e-05
1.06594e-05
1.06594e-05
1.06594e-05
1.06594e-05
1.06594e-05
1.06594e-05
1.06594e-05
1.06594e-05
1.06594e-05
1.06594e-05
1.06594e-05
1.06594e-05
1.06594e-05
1.06594e-05
1.06594e-05
1.06594e-05
1.06594e-05
1.06594e-05
1.06594e-05
1.06594e-05
1.06594e-05
1.06594e-05
1.06594e-05
1.06594e-05
1.06594e-05
1.06594e-05
1.06594e-05
1.06594e-05
1.06594e-05
1.06594e-05
1.06594e-05
1.06594e-05
1.06594e-05
1.06594e-05
1.06594e-05
1.06594e-05
1.06594e-05
1.06594e-05
1.06594e-05
1.06594e-05
1.06594e-05
1.06593e-05
1.06592e-05
1.06554e-05
)
;
    }
    top
    {
        type            symmetryPlane;
        value           uniform 0;
    }
    walls
    {
        type            fixedValue;
        value           uniform 0;
    }
    frontAndBackPlanes
    {
        type            empty;
        value           nonuniform 0();
    }
}


// ************************************************************************* //
