/*--------------------------------*- C++ -*----------------------------------*\
| =========                 |                                                 |
| \\      /  F ield         | OpenFOAM: The Open Source CFD Toolbox           |
|  \\    /   O peration     | Version:  2.4.x                                 |
|   \\  /    A nd           | Web:      www.OpenFOAM.org                      |
|    \\/     M anipulation  |                                                 |
\*---------------------------------------------------------------------------*/
FoamFile
{
    version     2.0;
    format      ascii;
    class       surfaceScalarField;
    location    "8.65";
    object      phib;
}
// * * * * * * * * * * * * * * * * * * * * * * * * * * * * * * * * * * * * * //

dimensions      [0 3 -1 0 0 0 0];

internalField   nonuniform List<scalar> 
359
(
1.68734e-13
4.2569e-13
6.67892e-13
9.05319e-13
1.15324e-12
1.40991e-12
1.67096e-12
1.93491e-12
2.2017e-12
2.47157e-12
2.74451e-12
3.02024e-12
3.29849e-12
3.57893e-12
3.86128e-12
4.14532e-12
4.43077e-12
4.71734e-12
5.00468e-12
5.29256e-12
5.58057e-12
5.86848e-12
6.15598e-12
6.44279e-12
6.72866e-12
7.01333e-12
7.29653e-12
7.57813e-12
7.8579e-12
8.13565e-12
8.41124e-12
8.68459e-12
8.95548e-12
9.22398e-12
9.4899e-12
9.75326e-12
1.0014e-11
1.02721e-11
1.05276e-11
1.07804e-11
1.10307e-11
1.12785e-11
1.15238e-11
1.17666e-11
1.20071e-11
1.22452e-11
1.24811e-11
1.27148e-11
1.29463e-11
1.31759e-11
1.34034e-11
1.36291e-11
1.38528e-11
1.40748e-11
1.4295e-11
1.45136e-11
1.47305e-11
1.49457e-11
1.51594e-11
1.53713e-11
1.55819e-11
1.57908e-11
1.59984e-11
1.62044e-11
1.64091e-11
1.66122e-11
1.68138e-11
1.7014e-11
1.72126e-11
1.74096e-11
1.76051e-11
1.77991e-11
1.79915e-11
1.81824e-11
1.83716e-11
1.85594e-11
1.87454e-11
1.89297e-11
1.91122e-11
1.92929e-11
1.94718e-11
1.96487e-11
1.98238e-11
1.9997e-11
2.01683e-11
2.03377e-11
2.05051e-11
2.06704e-11
2.08337e-11
2.09948e-11
2.11536e-11
2.13102e-11
2.14645e-11
2.16166e-11
2.17664e-11
2.19139e-11
2.2059e-11
2.22018e-11
2.23422e-11
2.24801e-11
2.26156e-11
2.27486e-11
2.28791e-11
2.30072e-11
2.31327e-11
2.32559e-11
2.33766e-11
2.34951e-11
2.36114e-11
2.37256e-11
2.38379e-11
2.39484e-11
2.40573e-11
2.41648e-11
2.42709e-11
2.43759e-11
2.44797e-11
2.45823e-11
2.46836e-11
2.47834e-11
2.48814e-11
2.49773e-11
2.50708e-11
2.51614e-11
2.5249e-11
2.53339e-11
2.54163e-11
2.54972e-11
2.5578e-11
2.56605e-11
2.5747e-11
2.584e-11
2.5942e-11
2.60549e-11
2.61784e-11
2.63074e-11
2.64302e-11
2.653e-11
2.65913e-11
2.66089e-11
2.65929e-11
2.65572e-11
2.65058e-11
2.35924e-11
-3.71031e-09
-4.84641e-09
-4.92372e-09
-4.84497e-09
-4.68373e-09
-4.47653e-09
-4.24498e-09
-4.00003e-09
-3.75608e-09
-3.52068e-09
-3.29634e-09
-3.08332e-09
-2.88076e-09
-2.68745e-09
-2.50212e-09
-2.32364e-09
-2.15129e-09
-1.98446e-09
-1.8229e-09
-1.66655e-09
-1.51558e-09
-1.37027e-09
-1.23105e-09
-1.09839e-09
-9.7276e-10
-8.54648e-10
-7.4448e-10
-6.42621e-10
-5.49353e-10
-4.64854e-10
-3.8918e-10
-3.22251e-10
-2.63838e-10
-2.13547e-10
-1.70807e-10
-1.34897e-10
-1.05058e-10
-8.06424e-11
-6.11346e-11
-4.60355e-11
-3.47267e-11
-2.64684e-11
-2.05095e-11
-1.62013e-11
-1.30472e-11
-1.06953e-11
-8.90583e-12
-7.5171e-12
-6.41963e-12
-5.5381e-12
-4.81972e-12
-4.22673e-12
-3.73166e-12
-3.3141e-12
-2.95868e-12
-2.65363e-12
-2.38982e-12
-2.15572e-12
-1.94712e-12
-1.76044e-12
-1.59268e-12
-1.4413e-12
-1.30416e-12
-1.17939e-12
-1.06543e-12
-9.60931e-13
-8.64797e-13
-7.7615e-13
-6.94291e-13
-6.18629e-13
-5.48742e-13
-4.84382e-13
-4.25349e-13
-3.71456e-13
-3.22545e-13
-2.78504e-13
-2.39156e-13
-2.04214e-13
-1.73405e-13
-1.46458e-13
-1.23037e-13
-1.02807e-13
-8.54378e-14
-7.06312e-14
-5.80666e-14
-4.74757e-14
-3.85621e-14
-3.11802e-14
-2.50119e-14
-1.97448e-14
-1.57234e-14
-1.2634e-14
-9.3968e-15
-6.85008e-15
-4.93334e-15
-3.49485e-15
-2.43496e-15
-1.62828e-15
-1.09351e-15
-5.83061e-16
-3.88012e-16
3.39462e-17
4.51147e-18
4.3559e-18
4.16225e-18
3.99935e-18
3.80363e-18
3.6336e-18
3.43306e-18
3.25317e-18
3.04529e-18
2.8578e-18
2.6488e-18
2.45665e-18
2.24399e-18
2.0453e-18
1.83457e-18
1.6368e-18
1.43331e-18
1.25036e-18
1.0812e-18
9.33126e-19
8.24185e-19
6.91311e-19
5.66436e-19
4.4912e-19
3.35909e-19
2.27819e-19
1.23813e-19
2.93434e-20
-5.59282e-20
-1.28474e-19
-2.04999e-19
-2.62508e-19
-3.1569e-19
-3.5267e-19
-4.45354e-19
-5.11747e-19
-5.74939e-19
-5.91783e-19
-6.43215e-19
-6.38619e-19
-6.96114e-19
-6.29076e-19
-6.5511e-19
-6.24988e-19
-5.92125e-19
-4.92726e-19
-4.43472e-19
-3.3832e-19
-2.36483e-19
-8.10323e-20
-8.10637e-20
-8.98409e-20
-1.09264e-19
-7.91074e-20
-1.01862e-19
-1.00134e-19
-9.95049e-20
-7.78435e-20
-9.39189e-20
-9.15085e-20
-9.11867e-20
-7.41898e-20
-7.09919e-20
-5.42705e-20
-4.00521e-20
-1.93684e-20
-1.20942e-20
-1.9629e-21
7.50666e-21
1.66536e-20
2.63391e-20
3.49533e-20
4.43352e-20
5.17038e-20
6.33695e-20
7.31004e-20
8.31846e-20
9.02214e-20
1.03642e-19
1.12959e-19
1.25297e-19
1.11092e-19
2.25599e-19
3.2378e-19
4.2484e-19
5.50513e-19
6.40935e-19
7.90558e-19
9.32405e-19
1.16827e-18
1.19989e-18
1.37313e-18
1.53946e-18
1.8904e-18
2.0633e-18
2.47863e-18
2.88307e-18
3.53873e-18
3.86169e-18
4.52291e-18
5.17981e-18
6.23692e-18
7.07545e-18
8.21425e-18
9.45135e-18
1.07779e-17
1.33821e-17
1.54965e-17
1.78218e-17
1.91521e-17
2.26426e-17
2.44989e-17
2.87319e-17
)
;

boundaryField
{
    inandouthalf11
    {
        type            cyclic;
        value           nonuniform List<scalar> 
100
(
-1.51452e-10
-1.50643e-10
-1.5054e-10
-1.50665e-10
-1.50735e-10
-1.50769e-10
-1.50807e-10
-1.50851e-10
-1.50897e-10
-1.50943e-10
-1.50989e-10
-1.51036e-10
-1.51084e-10
-1.51131e-10
-1.51179e-10
-1.51228e-10
-1.51277e-10
-1.51327e-10
-1.51377e-10
-1.51427e-10
-1.51478e-10
-1.51529e-10
-1.5158e-10
-1.51632e-10
-1.51684e-10
-1.51736e-10
-1.51788e-10
-1.51841e-10
-1.51894e-10
-1.51947e-10
-1.52e-10
-1.52054e-10
-1.52108e-10
-1.52162e-10
-1.52216e-10
-1.52271e-10
-1.52326e-10
-1.52381e-10
-1.52436e-10
-1.52491e-10
-1.52548e-10
-1.52604e-10
-1.5266e-10
-1.52717e-10
-1.52773e-10
-1.52831e-10
-1.52889e-10
-1.52946e-10
-1.53005e-10
-1.53064e-10
-1.53123e-10
-1.53182e-10
-1.53242e-10
-1.53303e-10
-1.53364e-10
-1.53425e-10
-1.53487e-10
-1.5355e-10
-1.53613e-10
-1.53676e-10
-1.5374e-10
-1.53805e-10
-1.5387e-10
-1.53936e-10
-1.54002e-10
-1.54069e-10
-1.54137e-10
-1.54206e-10
-1.54275e-10
-1.54344e-10
-1.54415e-10
-1.54487e-10
-1.54558e-10
-1.54632e-10
-1.54705e-10
-1.5478e-10
-1.54856e-10
-1.54932e-10
-1.55009e-10
-1.55087e-10
-1.55166e-10
-1.55247e-10
-1.55328e-10
-1.5541e-10
-1.55494e-10
-1.55578e-10
-1.55664e-10
-1.55751e-10
-1.55839e-10
-1.55928e-10
-1.56019e-10
-1.56111e-10
-1.56205e-10
-1.563e-10
-1.56397e-10
-1.56495e-10
-1.56595e-10
-1.56696e-10
-1.568e-10
-1.56905e-10
)
;
    }
    inandouthalf12
    {
        type            cyclic;
        value           nonuniform List<scalar> 
100
(
1.51452e-10
1.50643e-10
1.5054e-10
1.50665e-10
1.50735e-10
1.50769e-10
1.50807e-10
1.50851e-10
1.50897e-10
1.50943e-10
1.50989e-10
1.51036e-10
1.51084e-10
1.51131e-10
1.51179e-10
1.51228e-10
1.51277e-10
1.51327e-10
1.51377e-10
1.51427e-10
1.51478e-10
1.51529e-10
1.5158e-10
1.51632e-10
1.51684e-10
1.51736e-10
1.51788e-10
1.51841e-10
1.51894e-10
1.51947e-10
1.52e-10
1.52054e-10
1.52108e-10
1.52162e-10
1.52216e-10
1.52271e-10
1.52326e-10
1.52381e-10
1.52436e-10
1.52491e-10
1.52548e-10
1.52604e-10
1.5266e-10
1.52717e-10
1.52773e-10
1.52831e-10
1.52889e-10
1.52946e-10
1.53005e-10
1.53064e-10
1.53123e-10
1.53182e-10
1.53242e-10
1.53303e-10
1.53364e-10
1.53425e-10
1.53487e-10
1.5355e-10
1.53613e-10
1.53676e-10
1.5374e-10
1.53805e-10
1.5387e-10
1.53936e-10
1.54002e-10
1.54069e-10
1.54137e-10
1.54206e-10
1.54275e-10
1.54344e-10
1.54415e-10
1.54487e-10
1.54558e-10
1.54632e-10
1.54705e-10
1.5478e-10
1.54856e-10
1.54932e-10
1.55009e-10
1.55087e-10
1.55166e-10
1.55247e-10
1.55328e-10
1.5541e-10
1.55494e-10
1.55578e-10
1.55664e-10
1.55751e-10
1.55839e-10
1.55928e-10
1.56019e-10
1.56111e-10
1.56205e-10
1.563e-10
1.56397e-10
1.56495e-10
1.56595e-10
1.56696e-10
1.568e-10
1.56905e-10
)
;
    }
    inandouthalf21
    {
        type            cyclic;
        value           nonuniform List<scalar> 
100
(
-1.57012e-10
-1.57122e-10
-1.57233e-10
-1.57347e-10
-1.57462e-10
-1.57581e-10
-1.57702e-10
-1.57825e-10
-1.57951e-10
-1.5808e-10
-1.58212e-10
-1.58348e-10
-1.58486e-10
-1.58628e-10
-1.58774e-10
-1.58924e-10
-1.59077e-10
-1.59235e-10
-1.59398e-10
-1.59565e-10
-1.59737e-10
-1.59914e-10
-1.60097e-10
-1.60286e-10
-1.6048e-10
-1.60682e-10
-1.6089e-10
-1.61107e-10
-1.61332e-10
-1.61567e-10
-1.61813e-10
-1.6207e-10
-1.62339e-10
-1.62624e-10
-1.62928e-10
-1.63251e-10
-1.6359e-10
-1.63948e-10
-1.64342e-10
-1.64787e-10
-1.65265e-10
-1.65725e-10
-1.6628e-10
-1.70826e-10
-1.80408e-09
-1.03636e-07
-2.23641e-07
-3.26268e-07
-4.15423e-07
-4.94247e-07
-5.64898e-07
-6.2887e-07
-6.87206e-07
-7.40726e-07
-7.90065e-07
-8.35733e-07
-8.78153e-07
-9.17674e-07
-9.54595e-07
-9.89166e-07
-1.02161e-06
-1.0521e-06
-1.08082e-06
-1.10789e-06
-1.13345e-06
-1.1576e-06
-1.18044e-06
-1.20205e-06
-1.22249e-06
-1.24183e-06
-1.26011e-06
-1.27738e-06
-1.29367e-06
-1.309e-06
-1.3234e-06
-1.33686e-06
-1.3494e-06
-1.361e-06
-1.37167e-06
-1.38138e-06
-1.39014e-06
-1.39794e-06
-1.40479e-06
-1.41072e-06
-1.41577e-06
-1.42001e-06
-1.42352e-06
-1.42637e-06
-1.42867e-06
-1.4305e-06
-1.43192e-06
-1.43302e-06
-1.43384e-06
-1.43443e-06
-1.43483e-06
-1.43507e-06
-1.43517e-06
-1.43515e-06
-1.43503e-06
-1.43483e-06
)
;
    }
    inandouthalf22
    {
        type            cyclic;
        value           nonuniform List<scalar> 
100
(
1.57012e-10
1.57122e-10
1.57233e-10
1.57347e-10
1.57462e-10
1.57581e-10
1.57702e-10
1.57825e-10
1.57951e-10
1.5808e-10
1.58212e-10
1.58348e-10
1.58486e-10
1.58628e-10
1.58774e-10
1.58924e-10
1.59077e-10
1.59235e-10
1.59398e-10
1.59565e-10
1.59737e-10
1.59914e-10
1.60097e-10
1.60286e-10
1.6048e-10
1.60682e-10
1.6089e-10
1.61107e-10
1.61332e-10
1.61567e-10
1.61813e-10
1.6207e-10
1.62339e-10
1.62624e-10
1.62928e-10
1.63251e-10
1.6359e-10
1.63948e-10
1.64342e-10
1.64787e-10
1.65265e-10
1.65725e-10
1.6628e-10
1.70826e-10
1.80408e-09
1.03636e-07
2.23641e-07
3.26268e-07
4.15423e-07
4.94247e-07
5.64898e-07
6.2887e-07
6.87206e-07
7.40726e-07
7.90065e-07
8.35733e-07
8.78153e-07
9.17674e-07
9.54595e-07
9.89166e-07
1.02161e-06
1.0521e-06
1.08082e-06
1.10789e-06
1.13345e-06
1.1576e-06
1.18044e-06
1.20205e-06
1.22249e-06
1.24183e-06
1.26011e-06
1.27738e-06
1.29367e-06
1.309e-06
1.3234e-06
1.33686e-06
1.3494e-06
1.361e-06
1.37167e-06
1.38138e-06
1.39014e-06
1.39794e-06
1.40479e-06
1.41072e-06
1.41577e-06
1.42001e-06
1.42352e-06
1.42637e-06
1.42867e-06
1.4305e-06
1.43192e-06
1.43302e-06
1.43384e-06
1.43443e-06
1.43483e-06
1.43507e-06
1.43517e-06
1.43515e-06
1.43503e-06
1.43483e-06
)
;
    }
    inandouthalf31
    {
        type            cyclic;
        value           nonuniform List<scalar> 
110
(
-1.43455e-06
-1.46331e-06
-1.49256e-06
-1.52233e-06
-1.55262e-06
-1.58345e-06
-1.61481e-06
-1.64672e-06
-1.67919e-06
-1.71222e-06
-1.74584e-06
-1.78004e-06
-1.81483e-06
-1.85022e-06
-1.88623e-06
-1.92286e-06
-1.96011e-06
-1.99801e-06
-2.03655e-06
-2.07576e-06
-2.11563e-06
-2.15617e-06
-2.19741e-06
-2.23934e-06
-2.28198e-06
-2.32534e-06
-2.36943e-06
-2.41426e-06
-2.45985e-06
-2.5062e-06
-2.55333e-06
-2.60125e-06
-2.64998e-06
-2.69953e-06
-2.74992e-06
-2.80116e-06
-2.85327e-06
-2.90628e-06
-2.96019e-06
-3.01504e-06
-3.07084e-06
-3.12763e-06
-3.18542e-06
-3.24426e-06
-3.30416e-06
-3.36518e-06
-3.42735e-06
-3.49072e-06
-3.55534e-06
-3.62126e-06
-3.68856e-06
-3.75729e-06
-3.82754e-06
-3.8994e-06
-3.97298e-06
-4.04838e-06
-4.12574e-06
-4.20518e-06
-4.28685e-06
-4.37091e-06
-4.4575e-06
-4.54675e-06
-4.63873e-06
-4.73347e-06
-4.83082e-06
-4.93008e-06
-5.03041e-06
-5.13253e-06
-5.23671e-06
-5.343e-06
-5.45145e-06
-5.5621e-06
-5.67499e-06
-5.79018e-06
-5.9077e-06
-6.02761e-06
-6.14996e-06
-6.27479e-06
-6.40215e-06
-6.53209e-06
-6.66468e-06
-6.79995e-06
-6.93798e-06
-7.0788e-06
-7.22248e-06
-7.36908e-06
-7.51865e-06
-7.67126e-06
-7.82696e-06
-7.98583e-06
-8.14792e-06
-8.3133e-06
-8.48204e-06
-8.6542e-06
-8.82986e-06
-9.00908e-06
-9.19194e-06
-9.37851e-06
-9.56887e-06
-9.7631e-06
-9.96126e-06
-1.01634e-05
-1.03697e-05
-1.05802e-05
-1.0795e-05
-1.10141e-05
-1.12376e-05
-1.14657e-05
-1.16984e-05
-1.19359e-05
)
;
    }
    inandouthalf32
    {
        type            cyclic;
        value           nonuniform List<scalar> 
110
(
1.43455e-06
1.46331e-06
1.49256e-06
1.52233e-06
1.55262e-06
1.58345e-06
1.61481e-06
1.64672e-06
1.67919e-06
1.71222e-06
1.74584e-06
1.78004e-06
1.81483e-06
1.85022e-06
1.88623e-06
1.92286e-06
1.96011e-06
1.99801e-06
2.03655e-06
2.07576e-06
2.11563e-06
2.15617e-06
2.19741e-06
2.23934e-06
2.28198e-06
2.32534e-06
2.36943e-06
2.41426e-06
2.45985e-06
2.5062e-06
2.55333e-06
2.60125e-06
2.64998e-06
2.69953e-06
2.74992e-06
2.80116e-06
2.85327e-06
2.90628e-06
2.96019e-06
3.01504e-06
3.07084e-06
3.12763e-06
3.18542e-06
3.24426e-06
3.30416e-06
3.36518e-06
3.42735e-06
3.49072e-06
3.55534e-06
3.62126e-06
3.68856e-06
3.75729e-06
3.82754e-06
3.8994e-06
3.97298e-06
4.04838e-06
4.12574e-06
4.20518e-06
4.28685e-06
4.37091e-06
4.4575e-06
4.54675e-06
4.63873e-06
4.73347e-06
4.83082e-06
4.93008e-06
5.03041e-06
5.13253e-06
5.23671e-06
5.343e-06
5.45145e-06
5.5621e-06
5.67499e-06
5.79018e-06
5.9077e-06
6.02761e-06
6.14996e-06
6.27479e-06
6.40215e-06
6.53209e-06
6.66468e-06
6.79995e-06
6.93798e-06
7.0788e-06
7.22248e-06
7.36908e-06
7.51865e-06
7.67126e-06
7.82696e-06
7.98583e-06
8.14792e-06
8.3133e-06
8.48204e-06
8.6542e-06
8.82986e-06
9.00908e-06
9.19194e-06
9.37851e-06
9.56887e-06
9.7631e-06
9.96126e-06
1.01634e-05
1.03697e-05
1.05802e-05
1.0795e-05
1.10141e-05
1.12376e-05
1.14657e-05
1.16984e-05
1.19359e-05
)
;
    }
    inandouthalf41
    {
        type            cyclic;
        value           nonuniform List<scalar> 
50
(
-1.06838e-05
-1.06838e-05
-1.06838e-05
-1.06838e-05
-1.06838e-05
-1.06838e-05
-1.06838e-05
-1.06838e-05
-1.06838e-05
-1.06838e-05
-1.06838e-05
-1.06838e-05
-1.06838e-05
-1.06838e-05
-1.06838e-05
-1.06838e-05
-1.06838e-05
-1.06838e-05
-1.06838e-05
-1.06838e-05
-1.06838e-05
-1.06838e-05
-1.06838e-05
-1.06838e-05
-1.06838e-05
-1.06838e-05
-1.06838e-05
-1.06838e-05
-1.06838e-05
-1.06838e-05
-1.06838e-05
-1.06838e-05
-1.06838e-05
-1.06838e-05
-1.06838e-05
-1.06838e-05
-1.06838e-05
-1.06838e-05
-1.06838e-05
-1.06838e-05
-1.06838e-05
-1.06838e-05
-1.06838e-05
-1.06838e-05
-1.06838e-05
-1.06838e-05
-1.06838e-05
-1.06838e-05
-1.06838e-05
-1.06838e-05
)
;
    }
    inandouthalf42
    {
        type            cyclic;
        value           nonuniform List<scalar> 
50
(
1.06838e-05
1.06838e-05
1.06838e-05
1.06838e-05
1.06838e-05
1.06838e-05
1.06838e-05
1.06838e-05
1.06838e-05
1.06838e-05
1.06838e-05
1.06838e-05
1.06838e-05
1.06838e-05
1.06838e-05
1.06838e-05
1.06838e-05
1.06838e-05
1.06838e-05
1.06838e-05
1.06838e-05
1.06838e-05
1.06838e-05
1.06838e-05
1.06838e-05
1.06838e-05
1.06838e-05
1.06838e-05
1.06838e-05
1.06838e-05
1.06838e-05
1.06838e-05
1.06838e-05
1.06838e-05
1.06838e-05
1.06838e-05
1.06838e-05
1.06838e-05
1.06838e-05
1.06838e-05
1.06838e-05
1.06838e-05
1.06838e-05
1.06838e-05
1.06838e-05
1.06838e-05
1.06838e-05
1.06838e-05
1.06838e-05
1.06838e-05
)
;
    }
    top
    {
        type            symmetryPlane;
        value           uniform 0;
    }
    walls
    {
        type            fixedValue;
        value           uniform 0;
    }
    frontAndBackPlanes
    {
        type            empty;
        value           nonuniform 0();
    }
}


// ************************************************************************* //
