/*--------------------------------*- C++ -*----------------------------------*\
| =========                 |                                                 |
| \\      /  F ield         | OpenFOAM: The Open Source CFD Toolbox           |
|  \\    /   O peration     | Version:  2.4.x                                 |
|   \\  /    A nd           | Web:      www.OpenFOAM.org                      |
|    \\/     M anipulation  |                                                 |
\*---------------------------------------------------------------------------*/
FoamFile
{
    version     2.0;
    format      ascii;
    class       volTensorField;
    location    "8.65";
    object      Tauf;
}
// * * * * * * * * * * * * * * * * * * * * * * * * * * * * * * * * * * * * * //

dimensions      [0 2 -2 0 0 0 0];

internalField   nonuniform List<tensor> 
360
(
(0 3.02095e-07 0 3.02095e-07 1.8905e-10 0 0 0 0)
(0 -9.12591e-10 0 -9.12591e-10 2.3188e-10 0 0 0 0)
(0 2.2236e-11 0 2.2236e-11 2.45691e-10 0 0 0 0)
(0 1.95407e-10 0 1.95407e-10 2.41344e-10 0 0 0 0)
(-5.16988e-23 1.03457e-10 0 1.03457e-10 2.47464e-10 0 0 0 0)
(-5.16988e-23 7.17001e-11 0 7.17001e-11 2.55546e-10 0 0 0 0)
(-2.58494e-23 8.23472e-11 0 8.23472e-11 2.6068e-10 0 0 0 0)
(0 8.9831e-11 0 8.9831e-11 2.6394e-10 0 0 0 0)
(-5.16988e-23 9.15334e-11 0 9.15334e-11 2.66849e-10 0 0 0 0)
(0 9.27444e-11 0 9.27444e-11 2.69867e-10 0 0 0 0)
(-5.16988e-23 9.35176e-11 0 9.35176e-11 2.72871e-10 0 0 0 0)
(0 9.42071e-11 0 9.42071e-11 2.75665e-10 0 0 0 0)
(-5.16988e-23 9.51014e-11 0 9.51014e-11 2.78167e-10 0 0 0 0)
(0 9.59698e-11 0 9.59698e-11 2.80368e-10 0 0 0 0)
(0 9.69773e-11 0 9.69773e-11 2.82295e-10 0 0 0 0)
(0 9.79586e-11 0 9.79586e-11 2.83969e-10 0 0 0 0)
(0 9.87449e-11 0 9.87449e-11 2.85376e-10 0 0 0 0)
(-2.58494e-23 9.94242e-11 0 9.94242e-11 2.86481e-10 0 0 0 0)
(0 1.00327e-10 0 1.00327e-10 2.87285e-10 0 0 0 0)
(0 1.00947e-10 0 1.00947e-10 2.87778e-10 0 0 0 0)
(0 1.01548e-10 0 1.01548e-10 2.87949e-10 0 0 0 0)
(-2.58494e-23 1.02364e-10 0 1.02364e-10 2.87831e-10 0 0 0 0)
(0 1.02912e-10 0 1.02912e-10 2.87429e-10 0 0 0 0)
(0 1.0352e-10 0 1.0352e-10 2.86749e-10 0 0 0 0)
(0 1.04108e-10 0 1.04108e-10 2.85805e-10 0 0 0 0)
(-5.16988e-23 1.04522e-10 0 1.04522e-10 2.84601e-10 0 0 0 0)
(0 1.05127e-10 0 1.05127e-10 2.83169e-10 0 0 0 0)
(0 1.05737e-10 0 1.05737e-10 2.81542e-10 0 0 0 0)
(0 1.06079e-10 0 1.06079e-10 2.79721e-10 0 0 0 0)
(0 1.06497e-10 0 1.06497e-10 2.77714e-10 0 0 0 0)
(0 1.07183e-10 0 1.07183e-10 2.75573e-10 0 0 0 0)
(0 1.07377e-10 0 1.07377e-10 2.73292e-10 0 0 0 0)
(0 1.07964e-10 0 1.07964e-10 2.70908e-10 0 0 0 0)
(0 1.08559e-10 0 1.08559e-10 2.68456e-10 0 0 0 0)
(0 1.08796e-10 0 1.08796e-10 2.65923e-10 0 0 0 0)
(5.16988e-23 1.09287e-10 0 1.09287e-10 2.63335e-10 0 0 0 0)
(0 1.09737e-10 0 1.09737e-10 2.60711e-10 0 0 0 0)
(0 1.10593e-10 0 1.10593e-10 2.58112e-10 0 0 0 0)
(0 1.10621e-10 0 1.10621e-10 2.55493e-10 0 0 0 0)
(0 1.11244e-10 0 1.11244e-10 2.52877e-10 0 0 0 0)
(0 1.1223e-10 0 1.1223e-10 2.50326e-10 0 0 0 0)
(0 1.12152e-10 0 1.12152e-10 2.47772e-10 0 0 0 0)
(5.16988e-23 1.13027e-10 0 1.13027e-10 2.45271e-10 0 0 0 0)
(0 1.13817e-10 0 1.13817e-10 2.42848e-10 0 0 0 0)
(0 1.14205e-10 0 1.14205e-10 2.40473e-10 0 0 0 0)
(0 1.15224e-10 0 1.15224e-10 2.38182e-10 0 0 0 0)
(0 1.15472e-10 0 1.15472e-10 2.35915e-10 0 0 0 0)
(0 1.16045e-10 0 1.16045e-10 2.33679e-10 0 0 0 0)
(0 1.17588e-10 0 1.17588e-10 2.3158e-10 0 0 0 0)
(0 1.17963e-10 0 1.17963e-10 2.29549e-10 0 0 0 0)
(2.58494e-23 1.1853e-10 0 1.1853e-10 2.27563e-10 0 0 0 0)
(0 1.19679e-10 0 1.19679e-10 2.25645e-10 0 0 0 0)
(0 1.20578e-10 0 1.20578e-10 2.23794e-10 0 0 0 0)
(0 1.2126e-10 0 1.2126e-10 2.21984e-10 0 0 0 0)
(0 1.22435e-10 0 1.22435e-10 2.20244e-10 0 0 0 0)
(0 1.23372e-10 0 1.23372e-10 2.1855e-10 0 0 0 0)
(0 1.24253e-10 0 1.24253e-10 2.1688e-10 0 0 0 0)
(0 1.25602e-10 0 1.25602e-10 2.15266e-10 0 0 0 0)
(0 1.2604e-10 0 1.2604e-10 2.1362e-10 0 0 0 0)
(0 1.27592e-10 0 1.27592e-10 2.12035e-10 0 0 0 0)
(0 1.28795e-10 0 1.28795e-10 2.10498e-10 0 0 0 0)
(0 1.29785e-10 0 1.29785e-10 2.08994e-10 0 0 0 0)
(0 1.31232e-10 0 1.31232e-10 2.07538e-10 0 0 0 0)
(0 1.32278e-10 0 1.32278e-10 2.06076e-10 0 0 0 0)
(0 1.33501e-10 0 1.33501e-10 2.04607e-10 0 0 0 0)
(0 1.34843e-10 0 1.34843e-10 2.03124e-10 0 0 0 0)
(0 1.36407e-10 0 1.36407e-10 2.01646e-10 0 0 0 0)
(0 1.37664e-10 0 1.37664e-10 2.00146e-10 0 0 0 0)
(0 1.38632e-10 0 1.38632e-10 1.98587e-10 0 0 0 0)
(0 1.4036e-10 0 1.4036e-10 1.97022e-10 0 0 0 0)
(0 1.42464e-10 0 1.42464e-10 1.95516e-10 0 0 0 0)
(0 1.4331e-10 0 1.4331e-10 1.93965e-10 0 0 0 0)
(0 1.44842e-10 0 1.44842e-10 1.92403e-10 0 0 0 0)
(0 1.46858e-10 0 1.46858e-10 1.90846e-10 0 0 0 0)
(0 1.48581e-10 0 1.48581e-10 1.89282e-10 0 0 0 0)
(0 1.50197e-10 0 1.50197e-10 1.87692e-10 0 0 0 0)
(0 1.51629e-10 0 1.51629e-10 1.86018e-10 0 0 0 0)
(0 1.53627e-10 0 1.53627e-10 1.84291e-10 0 0 0 0)
(0 1.55596e-10 0 1.55596e-10 1.82516e-10 0 0 0 0)
(0 1.57338e-10 0 1.57338e-10 1.80693e-10 0 0 0 0)
(0 1.59258e-10 0 1.59258e-10 1.78832e-10 0 0 0 0)
(0 1.61466e-10 0 1.61466e-10 1.76962e-10 0 0 0 0)
(0 1.63563e-10 0 1.63563e-10 1.75082e-10 0 0 0 0)
(0 1.65735e-10 0 1.65735e-10 1.73196e-10 0 0 0 0)
(0 1.67982e-10 0 1.67982e-10 1.71293e-10 0 0 0 0)
(0 1.70315e-10 0 1.70315e-10 1.69359e-10 0 0 0 0)
(0 1.72675e-10 0 1.72675e-10 1.6738e-10 0 0 0 0)
(0 1.75027e-10 0 1.75027e-10 1.65334e-10 0 0 0 0)
(0 1.77563e-10 0 1.77563e-10 1.63226e-10 0 0 0 0)
(0 1.80195e-10 0 1.80195e-10 1.6106e-10 0 0 0 0)
(0 1.82874e-10 0 1.82874e-10 1.58844e-10 0 0 0 0)
(0 1.85712e-10 0 1.85712e-10 1.56598e-10 0 0 0 0)
(0 1.8869e-10 0 1.8869e-10 1.54334e-10 0 0 0 0)
(0 1.9174e-10 0 1.9174e-10 1.52058e-10 0 0 0 0)
(0 1.949e-10 0 1.949e-10 1.49771e-10 0 0 0 0)
(0 1.98173e-10 0 1.98173e-10 1.47466e-10 0 0 0 0)
(0 2.01553e-10 0 2.01553e-10 1.45136e-10 0 0 0 0)
(0 2.05053e-10 0 2.05053e-10 1.42773e-10 0 0 0 0)
(0 2.08701e-10 0 2.08701e-10 1.40374e-10 0 0 0 0)
(0 2.12503e-10 0 2.12503e-10 1.37941e-10 0 0 0 0)
(0 2.16464e-10 0 2.16464e-10 1.35479e-10 0 0 0 0)
(0 2.20606e-10 0 2.20606e-10 1.32998e-10 0 0 0 0)
(0 2.24931e-10 0 2.24931e-10 1.3051e-10 0 0 0 0)
(0 2.29441e-10 0 2.29441e-10 1.28028e-10 0 0 0 0)
(0 2.3415e-10 0 2.3415e-10 1.25568e-10 0 0 0 0)
(0 2.3907e-10 0 2.3907e-10 1.23147e-10 0 0 0 0)
(0 2.44215e-10 0 2.44215e-10 1.20784e-10 0 0 0 0)
(0 2.49602e-10 0 2.49602e-10 1.18498e-10 0 0 0 0)
(0 2.55246e-10 0 2.55246e-10 1.16313e-10 0 0 0 0)
(0 2.61164e-10 0 2.61164e-10 1.14248e-10 0 0 0 0)
(0 2.67372e-10 0 2.67372e-10 1.12324e-10 0 0 0 0)
(0 2.73886e-10 0 2.73886e-10 1.10554e-10 0 0 0 0)
(0 2.80722e-10 0 2.80722e-10 1.08944e-10 0 0 0 0)
(0 2.87898e-10 0 2.87898e-10 1.07488e-10 0 0 0 0)
(0 2.95433e-10 0 2.95433e-10 1.06168e-10 0 0 0 0)
(0 3.03344e-10 0 3.03344e-10 1.04946e-10 0 0 0 0)
(0 3.11651e-10 0 3.11651e-10 1.0377e-10 0 0 0 0)
(0 3.20378e-10 0 3.20378e-10 1.02566e-10 0 0 0 0)
(0 3.29552e-10 0 3.29552e-10 1.01251e-10 0 0 0 0)
(0 3.39203e-10 0 3.39203e-10 9.97346e-11 0 0 0 0)
(0 3.49367e-10 0 3.49367e-10 9.79367e-11 0 0 0 0)
(0 3.60083e-10 0 3.60083e-10 9.58022e-11 0 0 0 0)
(0 3.71398e-10 0 3.71398e-10 9.33239e-11 0 0 0 0)
(0 3.83387e-10 0 3.83387e-10 9.0565e-11 0 0 0 0)
(0 3.96178e-10 0 3.96178e-10 8.76776e-11 0 0 0 0)
(0 4.09987e-10 0 4.09987e-10 8.4914e-11 0 0 0 0)
(0 4.25124e-10 0 4.25124e-10 8.26236e-11 0 0 0 0)
(0 4.41907e-10 0 4.41907e-10 8.12346e-11 0 0 0 0)
(0 4.60487e-10 0 4.60487e-10 8.12181e-11 0 0 0 0)
(0 4.80701e-10 0 4.80701e-10 8.30355e-11 0 0 0 0)
(0 5.02355e-10 0 5.02355e-10 8.70678e-11 0 0 0 0)
(0 5.26212e-10 0 5.26212e-10 9.35369e-11 0 0 0 0)
(0 5.54616e-10 0 5.54616e-10 1.02372e-10 0 0 0 0)
(0 5.8912e-10 0 5.8912e-10 1.12769e-10 0 0 0 0)
(0 6.2647e-10 0 6.2647e-10 1.22252e-10 0 0 0 0)
(0 6.61393e-10 0 6.61393e-10 1.26016e-10 0 0 0 0)
(0 6.97457e-10 0 6.97457e-10 1.1817e-10 0 0 0 0)
(0 7.51932e-10 0 7.51932e-10 9.51843e-11 0 0 0 0)
(0 8.38458e-10 0 8.38458e-10 6.14985e-11 0 0 0 0)
(0 9.23239e-10 0 9.23239e-10 -3.30969e-10 0 0 0 0)
(0 9.38474e-10 0 9.38474e-10 5.073e-09 0 0 0 0)
(0 1.01552e-09 0 1.01552e-09 -2.31668e-08 0 0 0 0)
(0 5.12724e-09 0 5.12724e-09 8.69534e-08 0 0 0 0)
(0 1.89729e-06 0 1.89729e-06 -3.596e-07 0 0 0 0)
(0 0.000373667 0 0.000373667 -9.87385e-06 0 0 0 0)
(0 0.00315207 0 0.00315207 -3.21166e-05 0 0 0 0)
(0 0.00582462 0 0.00582462 3.57102e-06 0 0 0 0)
(0 0.00697625 0 0.00697625 6.36826e-06 0 0 0 0)
(0 0.0076163 0 0.0076163 8.53526e-06 0 0 0 0)
(0 0.00797347 0 0.00797347 1.151e-05 0 0 0 0)
(0 0.0081519 0 0.0081519 1.42407e-05 0 0 0 0)
(0 0.00820292 0 0.00820292 1.6634e-05 0 0 0 0)
(0 0.00816151 0 0.00816151 1.81505e-05 0 0 0 0)
(0 0.00805376 0 0.00805376 1.85808e-05 0 0 0 0)
(0 0.00789603 0 0.00789603 1.87308e-05 0 0 0 0)
(0 0.00770045 0 0.00770045 1.86921e-05 0 0 0 0)
(0 0.00747659 0 0.00747659 1.85388e-05 0 0 0 0)
(0 0.00723186 0 0.00723186 1.83331e-05 0 0 0 0)
(0 0.00697205 0 0.00697205 1.8109e-05 0 0 0 0)
(0 0.00670167 0 0.00670167 1.78729e-05 0 0 0 0)
(0 0.00642426 0 0.00642426 1.76149e-05 0 0 0 0)
(0 0.00614258 0 0.00614258 1.7322e-05 0 0 0 0)
(0 0.00585873 0 0.00585873 1.69788e-05 0 0 0 0)
(0 0.00557436 0 0.00557436 1.65679e-05 0 0 0 0)
(0 0.00529076 0 0.00529076 1.60762e-05 0 0 0 0)
(0 0.00500892 0 0.00500892 1.5495e-05 0 0 0 0)
(0 0.00472967 0 0.00472967 1.48212e-05 0 0 0 0)
(0 0.00445368 0 0.00445368 1.40569e-05 0 0 0 0)
(0 0.00418151 0 0.00418151 1.32093e-05 0 0 0 0)
(0 0.0039137 0 0.0039137 1.22902e-05 0 0 0 0)
(0 0.00365074 0 0.00365074 1.13147e-05 0 0 0 0)
(0 0.00339311 0 0.00339311 1.03003e-05 0 0 0 0)
(0 0.00314131 0 0.00314131 9.2662e-06 0 0 0 0)
(0 0.00289586 0 0.00289586 8.23245e-06 0 0 0 0)
(0 0.00265733 0 0.00265733 7.21937e-06 0 0 0 0)
(0 0.00242637 0 0.00242637 6.24673e-06 0 0 0 0)
(0 0.00220367 0 0.00220367 5.33307e-06 0 0 0 0)
(0 0.00199005 0 0.00199005 4.49555e-06 0 0 0 0)
(0 0.00178638 0 0.00178638 3.74866e-06 0 0 0 0)
(0 0.00159362 0 0.00159362 3.10019e-06 0 0 0 0)
(0 0.00141269 0 0.00141269 2.54634e-06 0 0 0 0)
(0 0.00124446 0 0.00124446 2.07232e-06 0 0 0 0)
(0 0.00108957 0 0.00108957 1.66104e-06 0 0 0 0)
(0 0.000948393 0 0.000948393 1.30335e-06 0 0 0 0)
(0 0.000820869 0 0.000820869 9.99946e-07 0 0 0 0)
(0 0.000706532 0 0.000706532 7.54692e-07 0 0 0 0)
(0 0.000604539 0 0.000604539 5.66915e-07 0 0 0 0)
(0 0.000513767 0 0.000513767 4.29333e-07 0 0 0 0)
(0 0.000432956 0 0.000432956 3.30909e-07 0 0 0 0)
(0 0.000360821 0 0.000360821 2.60668e-07 0 0 0 0)
(0 0.000296147 0 0.000296147 2.09848e-07 0 0 0 0)
(0 0.000237839 0 0.000237839 1.72257e-07 0 0 0 0)
(0 0.000184948 0 0.000184948 1.43766e-07 0 0 0 0)
(0 0.000136669 0 0.000136669 1.21664e-07 0 0 0 0)
(0 9.23316e-05 0 9.23316e-05 1.04156e-07 0 0 0 0)
(0 5.13863e-05 0 5.13863e-05 9.00336e-08 0 0 0 0)
(0 1.33824e-05 0 1.33824e-05 7.84629e-08 0 0 0 0)
(0 -2.20478e-05 0 -2.20478e-05 6.88582e-08 0 0 0 0)
(0 -5.52047e-05 0 -5.52047e-05 6.07975e-08 0 0 0 0)
(0 -8.63361e-05 0 -8.63361e-05 5.39703e-08 0 0 0 0)
(0 -0.000115651 0 -0.000115651 4.81412e-08 0 0 0 0)
(0 -0.000143595 0 -0.000143595 4.30915e-08 0 0 0 0)
(-3.92442e-17 -0.000170557 0 -0.000170557 3.8659e-08 0 0 0 0)
(0 -0.000196594 0 -0.000196594 3.4766e-08 0 0 0 0)
(0 -0.000221746 0 -0.000221746 3.13417e-08 0 0 0 0)
(3.96249e-17 -0.000246041 0 -0.000246041 2.83241e-08 0 0 0 0)
(0 -0.000269499 0 -0.000269499 2.56618e-08 0 0 0 0)
(-7.91306e-17 -0.000292133 0 -0.000292133 2.3311e-08 0 0 0 0)
(0 -0.000313949 0 -0.000313949 2.1232e-08 0 0 0 0)
(3.92855e-17 -0.000334948 0 -0.000334948 1.93863e-08 0 0 0 0)
(0 -0.000355126 0 -0.000355126 1.77363e-08 0 0 0 0)
(0 -0.000374475 0 -0.000374475 1.62467e-08 0 0 0 0)
(0 -0.000392983 0 -0.000392983 1.48889e-08 0 0 0 0)
(7.63468e-17 -0.000410636 0 -0.000410636 1.36393e-08 0 0 0 0)
(0 -0.000427416 0 -0.000427416 1.24718e-08 0 0 0 0)
(0 -0.000443302 0 -0.000443302 1.13629e-08 0 0 0 0)
(0 -0.000458275 0 -0.000458275 1.03016e-08 0 0 0 0)
(0 -0.000472308 0 -0.000472308 9.28521e-09 0 0 0 0)
(0 -0.000485378 0 -0.000485378 8.31032e-09 0 0 0 0)
(0 -0.000497458 0 -0.000497458 7.37634e-09 0 0 0 0)
(0 -0.000508519 0 -0.000508519 6.49249e-09 0 0 0 0)
(-6.87264e-17 -0.000518533 0 -0.000518533 5.67035e-09 0 0 0 0)
(0 -0.000527471 0 -0.000527471 4.91344e-09 0 0 0 0)
(-6.63483e-17 -0.000535302 0 -0.000535302 4.22254e-09 0 0 0 0)
(0 -0.000541997 0 -0.000541997 3.60082e-09 0 0 0 0)
(0 -0.000547525 0 -0.000547525 3.04888e-09 0 0 0 0)
(0 -0.000551855 0 -0.000551855 2.56304e-09 0 0 0 0)
(0 -0.000554958 0 -0.000554958 2.13912e-09 0 0 0 0)
(5.97877e-17 -0.000556802 0 -0.000556802 1.77336e-09 0 0 0 0)
(5.83819e-17 -0.00055736 0 -0.00055736 1.46105e-09 0 0 0 0)
(0 -0.000556602 0 -0.000556602 1.19497e-09 0 0 0 0)
(0 -0.000554502 0 -0.000554502 9.71261e-10 0 0 0 0)
(0 -0.000551033 0 -0.000551033 7.91555e-10 0 0 0 0)
(0 -0.000546171 0 -0.000546171 6.35823e-10 0 0 0 0)
(0 -0.000539896 0 -0.000539896 4.86618e-10 0 0 0 0)
(0 -0.000532188 0 -0.000532188 3.85979e-10 0 0 0 0)
(0 -0.000523031 0 -0.000523031 3.39181e-10 0 0 0 0)
(0 -0.000512415 0 -0.000512415 2.80951e-10 0 0 0 0)
(0 -0.000500332 0 -0.000500332 2.05811e-10 0 0 0 0)
(0 -0.000486782 0 -0.000486782 1.45737e-10 0 0 0 0)
(0 -0.000471771 0 -0.000471771 1.03556e-10 0 0 0 0)
(0 -0.000455312 0 -0.000455312 7.29952e-11 0 0 0 0)
(0 -0.000437428 0 -0.000437428 5.2251e-11 0 0 0 0)
(-7.2176e-17 -0.000418153 0 -0.000418153 3.56501e-11 0 0 0 0)
(3.43455e-17 -0.000397533 0 -0.000397533 2.64338e-11 0 0 0 0)
(0 -0.000375629 0 -0.000375629 2.14521e-11 0 0 0 0)
(0 -0.00035252 0 -0.00035252 5.71032e-12 0 0 0 0)
(-2.90452e-17 -0.000328303 0 -0.000328303 -2.79057e-12 0 0 0 0)
(0 -0.0003031 0 -0.0003031 -1.80129e-13 0 0 0 0)
(0 -0.000277058 0 -0.000277058 1.41481e-13 0 0 0 0)
(-2.36844e-17 -0.000250356 0 -0.000250356 3.09781e-14 0 0 0 0)
(0 -0.000223207 0 -0.000223207 -1.65864e-14 0 0 0 0)
(0 -0.000195863 0 -0.000195863 -1.29672e-14 0 0 0 0)
(0 -0.000168624 0 -0.000168624 -5.98424e-15 0 0 0 0)
(0 -0.000141835 0 -0.000141835 -8.0382e-15 0 0 0 0)
(0 -0.000115897 0 -0.000115897 -3.35913e-14 0 0 0 0)
(0 -9.12595e-05 0 -9.12595e-05 -6.36895e-14 0 0 0 0)
(0 -6.84244e-05 0 -6.84244e-05 5.19438e-13 0 0 0 0)
(0 -4.79273e-05 0 -4.79273e-05 -1.30961e-12 0 0 0 0)
(0 -3.03144e-05 0 -3.03144e-05 2.07514e-12 0 0 0 0)
(0 -1.60974e-05 0 -1.60974e-05 -2.63221e-12 0 0 0 0)
(0 -5.686e-06 0 -5.686e-06 2.8238e-12 0 0 0 0)
(0 7.07681e-07 0 7.07681e-07 -2.62574e-12 0 0 0 0)
(0 3.20022e-06 0 3.20022e-06 2.04307e-12 0 0 0 0)
(0 2.18265e-06 0 2.18265e-06 -1.16917e-12 0 0 0 0)
(0 3.39639e-07 0 3.39639e-07 3.24781e-13 0 0 0 0)
(2.43437e-19 2.16588e-08 0 2.16588e-08 -1.12637e-13 0 0 0 0)
(0 7.62782e-10 0 7.62782e-10 1.02699e-13 0 0 0 0)
(0 1.9665e-11 0 1.9665e-11 -1.00819e-13 0 0 0 0)
(0 4.75396e-12 0 4.75396e-12 9.89864e-14 0 0 0 0)
(0 3.28011e-12 0 3.28011e-12 -9.73666e-14 0 0 0 0)
(0 2.3559e-12 0 2.3559e-12 9.57179e-14 0 0 0 0)
(0 1.68263e-12 0 1.68263e-12 -9.42428e-14 0 0 0 0)
(0 1.19372e-12 0 1.19372e-12 9.27298e-14 0 0 0 0)
(0 8.40999e-13 0 8.40999e-13 -9.13566e-14 0 0 0 0)
(0 5.88238e-13 0 5.88238e-13 8.99503e-14 0 0 0 0)
(0 4.08511e-13 0 4.08511e-13 -8.86455e-14 0 0 0 0)
(0 2.81603e-13 0 2.81603e-13 8.73053e-14 0 0 0 0)
(0 1.92636e-13 0 1.92636e-13 -8.60374e-14 0 0 0 0)
(0 1.30785e-13 0 1.30785e-13 8.47428e-14 0 0 0 0)
(0 8.81697e-14 0 8.81697e-14 -8.35048e-14 0 0 0 0)
(0 5.89382e-14 0 5.89382e-14 8.22165e-14 0 0 0 0)
(0 3.90118e-14 0 3.90118e-14 -8.09881e-14 0 0 0 0)
(0 2.56482e-14 0 2.56482e-14 7.97186e-14 0 0 0 0)
(0 1.66941e-14 0 1.66941e-14 -7.8475e-14 0 0 0 0)
(0 1.08175e-14 0 1.08175e-14 7.72055e-14 0 0 0 0)
(1.50452e-19 6.92335e-15 0 6.92335e-15 -7.5948e-14 0 0 0 0)
(0 4.35977e-15 0 4.35977e-15 7.46737e-14 0 0 0 0)
(0 2.71954e-15 0 2.71954e-15 -7.33812e-14 0 0 0 0)
(0 1.65519e-15 0 1.65519e-15 7.20871e-14 0 0 0 0)
(0 1.06596e-15 0 1.06596e-15 -7.07701e-14 0 0 0 0)
(0 6.95661e-16 0 6.95661e-16 6.94718e-14 0 0 0 0)
(0 4.06826e-16 0 4.06826e-16 -6.81156e-14 0 0 0 0)
(0 2.13712e-16 0 2.13712e-16 6.67937e-14 0 0 0 0)
(0 1.77689e-16 0 1.77689e-16 -6.54017e-14 0 0 0 0)
(0 1.09427e-16 0 1.09427e-16 6.40658e-14 0 0 0 0)
(0 -2.04901e-17 0 -2.04901e-17 -6.26552e-14 0 0 0 0)
(0 -3.03952e-17 0 -3.03952e-17 6.12537e-14 0 0 0 0)
(0 1.34766e-17 0 1.34766e-17 -5.98434e-14 0 0 0 0)
(0 2.06818e-17 0 2.06818e-17 5.84145e-14 0 0 0 0)
(0 9.21536e-17 0 9.21536e-17 -5.69673e-14 0 0 0 0)
(0 4.08473e-17 0 4.08473e-17 5.55028e-14 0 0 0 0)
(0 -7.16697e-17 0 -7.16697e-17 -5.40244e-14 0 0 0 0)
(0 -1.29369e-17 0 -1.29369e-17 5.25326e-14 0 0 0 0)
(0 -1.48801e-17 0 -1.48801e-17 -5.10201e-14 0 0 0 0)
(0 1.27867e-17 0 1.27867e-17 4.94888e-14 0 0 0 0)
(0 2.44607e-17 0 2.44607e-17 -4.79405e-14 0 0 0 0)
(0 1.52428e-17 0 1.52428e-17 4.63749e-14 0 0 0 0)
(0 1.79855e-17 0 1.79855e-17 -4.47838e-14 0 0 0 0)
(0 -7.49651e-17 0 -7.49651e-17 4.32111e-14 0 0 0 0)
(0 -9.85205e-17 0 -9.85205e-17 -4.7604e-14 0 0 0 0)
(0 -4.9075e-17 0 -4.9075e-17 4.70694e-14 0 0 0 0)
(0 4.34634e-17 0 4.34634e-17 -4.65569e-14 0 0 0 0)
(0 2.32405e-17 0 2.32405e-17 4.60452e-14 0 0 0 0)
(0 1.10644e-17 0 1.10644e-17 -4.55247e-14 0 0 0 0)
(0 4.49986e-17 0 4.49986e-17 4.50041e-14 0 0 0 0)
(0 -2.1864e-17 0 -2.1864e-17 -4.44735e-14 0 0 0 0)
(0 -1.43466e-17 0 -1.43466e-17 4.39421e-14 0 0 0 0)
(0 2.20229e-17 0 2.20229e-17 -4.34007e-14 0 0 0 0)
(0 -8.7615e-17 0 -8.7615e-17 4.2858e-14 0 0 0 0)
(0 -4.95514e-17 0 -4.95514e-17 -4.23046e-14 0 0 0 0)
(0 6.93508e-17 0 6.93508e-17 4.17498e-14 0 0 0 0)
(0 4.66398e-17 0 4.66398e-17 -4.11836e-14 0 0 0 0)
(0 -1.85288e-18 0 -1.85288e-18 4.06155e-14 0 0 0 0)
(0 -6.35275e-19 0 -6.35275e-19 -4.00355e-14 0 0 0 0)
(0 -1.06409e-17 0 -1.06409e-17 3.94537e-14 0 0 0 0)
(0 -1.00585e-17 0 -1.00585e-17 -3.8859e-14 0 0 0 0)
(0 3.3246e-17 0 3.3246e-17 3.8262e-14 0 0 0 0)
(0 -8.94679e-18 0 -8.94679e-18 -3.76413e-14 0 0 0 0)
(0 -3.75871e-18 0 -3.75871e-18 3.70488e-14 0 0 0 0)
(0 -3.17637e-19 0 -3.17637e-19 -3.63977e-14 0 0 0 0)
(0 -3.33519e-17 0 -3.33519e-17 3.57893e-14 0 0 0 0)
(0 -8.36445e-18 0 -8.36445e-18 -3.51145e-14 0 0 0 0)
(0 4.00223e-17 0 4.00223e-17 3.44872e-14 0 0 0 0)
(0 7.51742e-18 0 7.51742e-18 -3.37792e-14 0 0 0 0)
(0 5.0822e-18 0 5.0822e-18 3.31361e-14 0 0 0 0)
(0 4.44692e-18 0 4.44692e-18 -3.24017e-14 0 0 0 0)
(0 -1.36584e-17 0 -1.36584e-17 3.17188e-14 0 0 0 0)
(0 -5.10337e-17 0 -5.10337e-17 -3.09432e-14 0 0 0 0)
(0 -1.53684e-16 0 -1.53684e-16 3.02534e-14 0 0 0 0)
(0 -3.72536e-16 0 -3.72536e-16 -2.94172e-14 0 0 0 0)
(0 -1.51407e-17 0 -1.51407e-17 2.87069e-14 0 0 0 0)
(0 3.72642e-16 0 3.72642e-16 -2.77928e-14 0 0 0 0)
(0 1.59507e-16 0 1.59507e-16 2.70774e-14 0 0 0 0)
(0 3.47813e-17 0 3.47813e-17 -2.60891e-14 0 0 0 0)
(0 1.25467e-17 0 1.25467e-17 2.53323e-14 0 0 0 0)
(0 5.35219e-17 0 5.35219e-17 -2.42398e-14 0 0 0 0)
(0 2.57286e-17 0 2.57286e-17 2.3484e-14 0 0 0 0)
(0 -2.46698e-17 0 -2.46698e-17 -2.22459e-14 0 0 0 0)
(0 -9.88382e-17 0 -9.88382e-17 2.14523e-14 0 0 0 0)
(0 9.26442e-18 0 9.26442e-18 -2.00554e-14 0 0 0 0)
(0 1.53684e-16 0 1.53684e-16 1.92369e-14 0 0 0 0)
(0 8.45974e-17 0 8.45974e-17 -1.75143e-14 0 0 0 0)
(0 -4.35163e-17 0 -4.35163e-17 1.67258e-14 0 0 0 0)
(0 -7.2686e-17 0 -7.2686e-17 -1.47135e-14 0 0 0 0)
(0 -6.95626e-17 0 -6.95626e-17 1.35938e-14 0 0 0 0)
(0 -4.80162e-17 0 -4.80162e-17 -1.11466e-14 0 0 0 0)
(0 3.18167e-17 0 3.18167e-17 9.5943e-15 0 0 0 0)
(0 -6.8292e-17 0 -6.8292e-17 -6.95585e-15 0 0 0 0)
(0 -9.59265e-17 0 -9.59265e-17 -1.85521e-16 0 0 0 0)
)
;

boundaryField
{
    inandouthalf11
    {
        type            cyclic;
    }
    inandouthalf12
    {
        type            cyclic;
    }
    inandouthalf21
    {
        type            cyclic;
    }
    inandouthalf22
    {
        type            cyclic;
    }
    inandouthalf31
    {
        type            cyclic;
    }
    inandouthalf32
    {
        type            cyclic;
    }
    inandouthalf41
    {
        type            cyclic;
    }
    inandouthalf42
    {
        type            cyclic;
    }
    top
    {
        type            symmetryPlane;
    }
    walls
    {
        type            zeroGradient;
    }
    frontAndBackPlanes
    {
        type            empty;
    }
}


// ************************************************************************* //
