/*--------------------------------*- C++ -*----------------------------------*\
| =========                 |                                                 |
| \\      /  F ield         | OpenFOAM: The Open Source CFD Toolbox           |
|  \\    /   O peration     | Version:  2.4.x                                 |
|   \\  /    A nd           | Web:      www.OpenFOAM.org                      |
|    \\/     M anipulation  |                                                 |
\*---------------------------------------------------------------------------*/
FoamFile
{
    version     2.0;
    format      ascii;
    class       volScalarField;
    location    "8.65";
    object      Theta;
}
// * * * * * * * * * * * * * * * * * * * * * * * * * * * * * * * * * * * * * //

dimensions      [0 2 -2 0 0 0 0];

internalField   nonuniform List<scalar> 
360
(
6.66172e-21
6.66251e-21
6.66221e-21
6.66218e-21
6.66228e-21
6.66235e-21
6.66238e-21
6.6624e-21
6.66242e-21
6.66245e-21
6.66247e-21
6.66249e-21
6.66251e-21
6.66253e-21
6.66255e-21
6.66256e-21
6.66257e-21
6.66258e-21
6.66259e-21
6.66259e-21
6.66259e-21
6.66259e-21
6.66259e-21
6.66258e-21
6.66257e-21
6.66256e-21
6.66255e-21
6.66254e-21
6.66252e-21
6.66251e-21
6.66249e-21
6.66247e-21
6.66245e-21
6.66243e-21
6.66241e-21
6.66239e-21
6.66237e-21
6.66235e-21
6.66233e-21
6.66231e-21
6.6623e-21
6.66228e-21
6.66226e-21
6.66224e-21
6.66222e-21
6.66221e-21
6.66219e-21
6.66218e-21
6.66216e-21
6.66215e-21
6.66214e-21
6.66212e-21
6.66211e-21
6.6621e-21
6.66209e-21
6.66207e-21
6.66206e-21
6.66205e-21
6.66204e-21
6.66203e-21
6.66202e-21
6.66201e-21
6.662e-21
6.66199e-21
6.66199e-21
6.66198e-21
6.66197e-21
6.66196e-21
6.66195e-21
6.66194e-21
6.66193e-21
6.66192e-21
6.66191e-21
6.6619e-21
6.66189e-21
6.66188e-21
6.66187e-21
6.66186e-21
6.66185e-21
6.66184e-21
6.66183e-21
6.66182e-21
6.66181e-21
6.6618e-21
6.66179e-21
6.66178e-21
6.66177e-21
6.66176e-21
6.66175e-21
6.66174e-21
6.66173e-21
6.66171e-21
6.6617e-21
6.66169e-21
6.66168e-21
6.66167e-21
6.66166e-21
6.66165e-21
6.66164e-21
6.66163e-21
6.66161e-21
6.6616e-21
6.66159e-21
6.66158e-21
6.66157e-21
6.66156e-21
6.66155e-21
6.66154e-21
6.66153e-21
6.66152e-21
6.66152e-21
6.66151e-21
6.6615e-21
6.6615e-21
6.66149e-21
6.66149e-21
6.66148e-21
6.66148e-21
6.66147e-21
6.66146e-21
6.66146e-21
6.66145e-21
6.66144e-21
6.66143e-21
6.66142e-21
6.66141e-21
6.6614e-21
6.6614e-21
6.6614e-21
6.6614e-21
6.66142e-21
7.99506e-21
6.5669e-20
8.6813e-19
1.24053e-17
1.90062e-16
3.13558e-15
5.61731e-14
1.10902e-12
2.46458e-11
6.85706e-10
5.43789e-08
3.71565e-06
7.16351e-05
0.000635146
0.00271244
0.00477533
0.0059629
0.00670408
0.00721005
0.00757406
0.00785476
0.00812372
0.00835149
0.00853549
0.00867733
0.00877892
0.00884176
0.0088668
0.008855
0.00880713
0.00872361
0.00860597
0.00845579
0.00827518
0.00806654
0.00783284
0.00757728
0.0073035
0.00701526
0.00671666
0.00641185
0.00610514
0.00580086
0.00550323
0.00521626
0.00494359
0.0046883
0.0044527
0.00423821
0.00404526
0.00387325
0.00372075
0.00358567
0.0034657
0.00335853
0.00326214
0.00317478
0.00309506
0.00302181
0.00295409
0.00289113
0.00283227
0.00277697
0.00272475
0.00267522
0.00262804
0.00258289
0.00253952
0.00249771
0.00245723
0.00241753
0.00237808
0.00233877
0.0022995
0.00226015
0.00222063
0.00218081
0.00214061
0.0020999
0.00205859
0.00201657
0.00197372
0.00192993
0.00188509
0.00183908
0.00179178
0.00174307
0.00169281
0.00164087
0.0015871
0.00153134
0.00147341
0.00141312
0.00135025
0.00128455
0.00121571
0.00114337
0.00106709
0.000986295
0.000900254
0.000807952
0.000707928
0.000597902
0.000473868
0.000327104
0
0
0
0
0
0
0
0
0
0
0
0
0
0
0
0
0
0
0
0
0
0
0
0
0
0
0
0
0
0
0
0
0
0
0
0
0
0
0
0
0
0
0
0
0
0
0
0
0
0
0
0
0
0
0
0
0
0
0
0
0
0
0
0
0
0
0
0
0
0
0
0
0
0
0
0
0
0
0
0
0
0
0
0
0
0
0
0
0
0
0
0
0
0
0
0
0
0
0
0
0
0
0
0
0
0
0
0
0
0
0
0
0
0
0
0
0
0
0
0
0
0
0
0
)
;

boundaryField
{
    inandouthalf11
    {
        type            cyclic;
    }
    inandouthalf12
    {
        type            cyclic;
    }
    inandouthalf21
    {
        type            cyclic;
    }
    inandouthalf22
    {
        type            cyclic;
    }
    inandouthalf31
    {
        type            cyclic;
    }
    inandouthalf32
    {
        type            cyclic;
    }
    inandouthalf41
    {
        type            cyclic;
    }
    inandouthalf42
    {
        type            cyclic;
    }
    top
    {
        type            symmetryPlane;
    }
    walls
    {
        type            zeroGradient;
    }
    frontAndBackPlanes
    {
        type            empty;
    }
}


// ************************************************************************* //
