/*--------------------------------*- C++ -*----------------------------------*\
| =========                 |                                                 |
| \\      /  F ield         | OpenFOAM: The Open Source CFD Toolbox           |
|  \\    /   O peration     | Version:  2.4.x                                 |
|   \\  /    A nd           | Web:      www.OpenFOAM.org                      |
|    \\/     M anipulation  |                                                 |
\*---------------------------------------------------------------------------*/
FoamFile
{
    version     2.0;
    format      ascii;
    class       volScalarField;
    location    "8.65";
    object      Theta_0;
}
// * * * * * * * * * * * * * * * * * * * * * * * * * * * * * * * * * * * * * //

dimensions      [0 2 -2 0 0 0 0];

internalField   nonuniform List<scalar> 
360
(
6.66172e-21
6.66251e-21
6.66221e-21
6.66218e-21
6.66228e-21
6.66235e-21
6.66238e-21
6.6624e-21
6.66242e-21
6.66245e-21
6.66247e-21
6.66249e-21
6.66251e-21
6.66253e-21
6.66255e-21
6.66256e-21
6.66257e-21
6.66258e-21
6.66259e-21
6.66259e-21
6.66259e-21
6.66259e-21
6.66259e-21
6.66258e-21
6.66257e-21
6.66256e-21
6.66255e-21
6.66254e-21
6.66252e-21
6.66251e-21
6.66249e-21
6.66247e-21
6.66245e-21
6.66243e-21
6.66241e-21
6.66239e-21
6.66237e-21
6.66235e-21
6.66233e-21
6.66231e-21
6.6623e-21
6.66228e-21
6.66226e-21
6.66224e-21
6.66222e-21
6.66221e-21
6.66219e-21
6.66218e-21
6.66216e-21
6.66215e-21
6.66214e-21
6.66212e-21
6.66211e-21
6.6621e-21
6.66209e-21
6.66208e-21
6.66206e-21
6.66205e-21
6.66204e-21
6.66203e-21
6.66202e-21
6.66201e-21
6.662e-21
6.662e-21
6.66199e-21
6.66198e-21
6.66197e-21
6.66196e-21
6.66195e-21
6.66194e-21
6.66193e-21
6.66192e-21
6.66191e-21
6.6619e-21
6.66189e-21
6.66188e-21
6.66187e-21
6.66186e-21
6.66185e-21
6.66184e-21
6.66183e-21
6.66182e-21
6.66181e-21
6.6618e-21
6.66179e-21
6.66178e-21
6.66177e-21
6.66176e-21
6.66175e-21
6.66174e-21
6.66173e-21
6.66172e-21
6.6617e-21
6.66169e-21
6.66168e-21
6.66167e-21
6.66166e-21
6.66165e-21
6.66164e-21
6.66163e-21
6.66161e-21
6.6616e-21
6.66159e-21
6.66158e-21
6.66157e-21
6.66156e-21
6.66155e-21
6.66154e-21
6.66153e-21
6.66152e-21
6.66152e-21
6.66151e-21
6.6615e-21
6.6615e-21
6.66149e-21
6.66149e-21
6.66148e-21
6.66148e-21
6.66147e-21
6.66146e-21
6.66146e-21
6.66145e-21
6.66144e-21
6.66143e-21
6.66142e-21
6.66141e-21
6.6614e-21
6.6614e-21
6.6614e-21
6.6614e-21
6.66142e-21
7.98061e-21
6.54123e-20
8.64628e-19
1.23551e-17
1.893e-16
3.12328e-15
5.59576e-14
1.1048e-12
2.45506e-11
6.82759e-10
5.41062e-08
3.70219e-06
7.1466e-05
0.000633803
0.00270942
0.0047729
0.00596103
0.00670261
0.00720889
0.00757316
0.00785407
0.00812313
0.00835096
0.00853495
0.00867676
0.00877828
0.00884103
0.00886597
0.00885405
0.00880606
0.0087224
0.00860463
0.00845431
0.00827357
0.00806481
0.007831
0.00757534
0.00730146
0.00701315
0.00671449
0.00640965
0.00610293
0.00579866
0.00550106
0.00521415
0.00494157
0.00468638
0.0044509
0.00423654
0.00404372
0.00387185
0.00371947
0.00358451
0.00346463
0.00335755
0.00326123
0.00317393
0.00309426
0.00302106
0.00295338
0.00289046
0.00283163
0.00277636
0.00272417
0.00267467
0.0026275
0.00258238
0.00253903
0.00249723
0.00245677
0.00241708
0.00237765
0.00233835
0.00229909
0.00225976
0.00222025
0.00218044
0.00214025
0.00209956
0.00205826
0.00201624
0.0019734
0.00192962
0.00188479
0.00183879
0.0017915
0.0017428
0.00169255
0.00164062
0.00158686
0.0015311
0.00147318
0.00141291
0.00135005
0.00128435
0.00121552
0.0011432
0.00106693
0.000986146
0.000900118
0.00080783
0.000707821
0.000597812
0.000473797
0.000327055
0
0
0
0
0
0
0
0
0
0
0
0
0
0
0
0
0
0
0
0
0
0
0
0
0
0
0
0
0
0
0
0
0
0
0
0
0
0
0
0
0
0
0
0
0
0
0
0
0
0
0
0
0
0
0
0
0
0
0
0
0
0
0
0
0
0
0
0
0
0
0
0
0
0
0
0
0
0
0
0
0
0
0
0
0
0
0
0
0
0
0
0
0
0
0
0
0
0
0
0
0
0
0
0
0
0
0
0
0
0
0
0
0
0
0
0
0
0
0
0
0
0
0
0
)
;

boundaryField
{
    inandouthalf11
    {
        type            cyclic;
    }
    inandouthalf12
    {
        type            cyclic;
    }
    inandouthalf21
    {
        type            cyclic;
    }
    inandouthalf22
    {
        type            cyclic;
    }
    inandouthalf31
    {
        type            cyclic;
    }
    inandouthalf32
    {
        type            cyclic;
    }
    inandouthalf41
    {
        type            cyclic;
    }
    inandouthalf42
    {
        type            cyclic;
    }
    top
    {
        type            symmetryPlane;
    }
    walls
    {
        type            zeroGradient;
    }
    frontAndBackPlanes
    {
        type            empty;
    }
}


// ************************************************************************* //
