/*--------------------------------*- C++ -*----------------------------------*\
| =========                 |                                                 |
| \\      /  F ield         | OpenFOAM: The Open Source CFD Toolbox           |
|  \\    /   O peration     | Version:  2.4.x                                 |
|   \\  /    A nd           | Web:      www.OpenFOAM.org                      |
|    \\/     M anipulation  |                                                 |
\*---------------------------------------------------------------------------*/
FoamFile
{
    version     2.0;
    format      ascii;
    class       volScalarField;
    location    "8.65";
    object      tmf;
}
// * * * * * * * * * * * * * * * * * * * * * * * * * * * * * * * * * * * * * //

dimensions      [0 0 0 0 0 0 0];

internalField   nonuniform List<scalar> 
360
(
0.999206
0.999209
0.99921
0.999209
0.999209
0.999209
0.999209
0.999209
0.999209
0.999209
0.999209
0.999209
0.999209
0.999209
0.999208
0.999208
0.999208
0.999208
0.999208
0.999208
0.999208
0.999208
0.999208
0.999208
0.999208
0.999207
0.999207
0.999207
0.999207
0.999207
0.999207
0.999207
0.999207
0.999207
0.999207
0.999207
0.999206
0.999206
0.999206
0.999206
0.999206
0.999206
0.999206
0.999206
0.999206
0.999206
0.999205
0.999205
0.999205
0.999205
0.999205
0.999205
0.999205
0.999205
0.999204
0.999204
0.999204
0.999204
0.999204
0.999204
0.999204
0.999204
0.999203
0.999203
0.999203
0.999203
0.999203
0.999203
0.999203
0.999202
0.999202
0.999202
0.999202
0.999202
0.999202
0.999202
0.999201
0.999201
0.999201
0.999201
0.999201
0.999201
0.9992
0.9992
0.9992
0.9992
0.9992
0.999199
0.999199
0.999199
0.999199
0.999199
0.999198
0.999198
0.999198
0.999198
0.999197
0.999197
0.999197
0.999197
0.999197
0.999196
0.999196
0.999196
0.999195
0.999195
0.999195
0.999195
0.999194
0.999194
0.999194
0.999193
0.999193
0.999193
0.999192
0.999192
0.999192
0.999191
0.999191
0.99919
0.99919
0.99919
0.999189
0.999189
0.999188
0.999188
0.999187
0.999187
0.999186
0.999186
0.999185
0.998179
0.997511
0.997162
0.996756
0.996261
0.995645
0.994866
0.993871
0.992603
0.99099
0.988948
0.986349
0.982764
0.970744
0.928888
0.907288
0.9005
0.897197
0.894755
0.892356
0.889813
0.891092
0.892447
0.893947
0.895612
0.897456
0.899484
0.901694
0.904076
0.906618
0.909303
0.912113
0.915029
0.918035
0.921116
0.924258
0.927454
0.930696
0.933982
0.93731
0.94068
0.94409
0.947538
0.951013
0.954502
0.957983
0.961429
0.964805
0.968075
0.971204
0.974155
0.976899
0.97941
0.981674
0.983683
0.98544
0.986956
0.98825
0.989346
0.990269
0.991045
0.991696
0.992242
0.992702
0.993089
0.993417
0.993694
0.99393
0.99413
0.994301
0.994448
0.994576
0.994687
0.994782
0.994864
0.994933
0.994991
0.99504
0.995079
0.99511
0.995134
0.995151
0.995162
0.995166
0.995165
0.995159
0.995148
0.995132
0.995112
0.995088
0.995059
0.995026
0.994989
0.994947
0.994902
0.994852
0.994798
0.99474
0.994677
0.994609
0.994538
0.994463
0.994385
0.994309
0.994239
0.994188
0.994156
0.994241
0.994296
0.994371
0.994418
0.994572
0.994562
0.994728
0.995108
0.995612
0.996395
0.996486
0.996584
0.996689
0.996801
0.996922
0.997052
0.997191
0.99734
0.997498
0.997667
0.997845
0.998033
0.998229
0.998433
0.998645
0.998868
0.999112
0.999319
0.999409
0.999417
0.999418
0.999416
0.999413
0.999408
0.999374
0.997697
0.994193
0.994193
0.994193
0.994193
0.994193
0.994193
0.994193
0.994193
0.994193
0.994193
0.994193
0.994193
0.994193
0.994193
0.994193
0.994193
0.994193
0.994193
0.994193
0.994193
0.994193
0.994193
0.994193
0.994193
0.994193
0.994193
0.994193
0.994193
0.994193
0.994193
0.994193
0.994193
0.994193
0.994193
0.994193
0.994193
0.994193
0.994193
0.994193
0.994193
0.994193
0.994193
0.994193
0.994193
0.994193
0.994193
0.994193
0.994193
0.994193
0.994193
0.994193
0.994193
0.994193
0.994193
0.994193
0.994193
0.994193
0.994193
0.994193
0.994193
0.994193
0.994193
0.994193
0.994193
0.994193
0.994193
0.994193
0.994193
0.994193
0.994193
0.994193
0.994193
0.994193
0.994193
0.994193
0.994193
0.994193
0.994193
0.994193
0.994193
0.994193
0.994193
0.994193
0.994193
0.994178
0.993253
)
;

boundaryField
{
    inandouthalf11
    {
        type            cyclic;
    }
    inandouthalf12
    {
        type            cyclic;
    }
    inandouthalf21
    {
        type            cyclic;
    }
    inandouthalf22
    {
        type            cyclic;
    }
    inandouthalf31
    {
        type            cyclic;
    }
    inandouthalf32
    {
        type            cyclic;
    }
    inandouthalf41
    {
        type            cyclic;
    }
    inandouthalf42
    {
        type            cyclic;
    }
    top
    {
        type            symmetryPlane;
    }
    walls
    {
        type            calculated;
        value           uniform 0;
    }
    frontAndBackPlanes
    {
        type            empty;
    }
}


// ************************************************************************* //
