/*--------------------------------*- C++ -*----------------------------------*\
| =========                 |                                                 |
| \\      /  F ield         | OpenFOAM: The Open Source CFD Toolbox           |
|  \\    /   O peration     | Version:  2.4.x                                 |
|   \\  /    A nd           | Web:      www.OpenFOAM.org                      |
|    \\/     M anipulation  |                                                 |
\*---------------------------------------------------------------------------*/
FoamFile
{
    version     2.0;
    format      ascii;
    class       volVectorField;
    location    "8.65";
    object      U;
}
// * * * * * * * * * * * * * * * * * * * * * * * * * * * * * * * * * * * * * //

dimensions      [0 1 -1 0 0 0 0];

internalField   nonuniform List<vector> 
360
(
(5.89365e-05 8.06106e-09 0)
(5.85022e-05 -1.48572e-09 0)
(5.84575e-05 -1.36029e-09 0)
(5.85283e-05 1.77232e-10 0)
(5.85709e-05 4.02618e-10 0)
(5.85957e-05 1.58538e-10 0)
(5.86229e-05 5.72639e-11 0)
(5.86534e-05 6.12758e-11 0)
(5.86846e-05 7.23284e-11 0)
(5.87162e-05 7.45458e-11 0)
(5.87482e-05 7.1182e-11 0)
(5.87804e-05 6.37168e-11 0)
(5.88129e-05 5.58575e-11 0)
(5.88457e-05 4.87399e-11 0)
(5.88789e-05 4.26431e-11 0)
(5.89124e-05 3.67501e-11 0)
(5.89461e-05 2.99275e-11 0)
(5.89801e-05 2.24914e-11 0)
(5.90143e-05 1.47169e-11 0)
(5.90488e-05 7.55391e-12 0)
(5.90834e-05 -5.96642e-13 0)
(5.91183e-05 -7.14053e-12 0)
(5.91533e-05 -1.37943e-11 0)
(5.91884e-05 -2.05612e-11 0)
(5.92237e-05 -2.69035e-11 0)
(5.92591e-05 -3.27531e-11 0)
(5.92945e-05 -3.8245e-11 0)
(5.93301e-05 -4.23476e-11 0)
(5.93658e-05 -4.70772e-11 0)
(5.94015e-05 -5.1172e-11 0)
(5.94373e-05 -5.48578e-11 0)
(5.94733e-05 -5.62936e-11 0)
(5.9509e-05 -6.06123e-11 0)
(5.95451e-05 -5.99084e-11 0)
(5.95811e-05 -6.33001e-11 0)
(5.96172e-05 -6.35595e-11 0)
(5.96532e-05 -6.42409e-11 0)
(5.96894e-05 -6.40794e-11 0)
(5.97258e-05 -6.22862e-11 0)
(5.97618e-05 -6.51365e-11 0)
(5.97983e-05 -6.14029e-11 0)
(5.98348e-05 -6.07602e-11 0)
(5.98711e-05 -6.20868e-11 0)
(5.99078e-05 -5.69958e-11 0)
(5.99444e-05 -5.70651e-11 0)
(5.99812e-05 -5.60381e-11 0)
(6.00182e-05 -5.33103e-11 0)
(6.0055e-05 -5.45077e-11 0)
(6.00922e-05 -5.10888e-11 0)
(6.01297e-05 -4.60813e-11 0)
(6.0167e-05 -4.93845e-11 0)
(6.02046e-05 -4.541e-11 0)
(6.02424e-05 -4.51356e-11 0)
(6.02804e-05 -4.17191e-11 0)
(6.03184e-05 -4.41772e-11 0)
(6.0357e-05 -3.83092e-11 0)
(6.03954e-05 -4.20517e-11 0)
(6.04343e-05 -3.89264e-11 0)
(6.04733e-05 -3.83778e-11 0)
(6.05123e-05 -4.14647e-11 0)
(6.05521e-05 -3.41598e-11 0)
(6.05917e-05 -3.80818e-11 0)
(6.06318e-05 -3.44434e-11 0)
(6.06721e-05 -3.63112e-11 0)
(6.07127e-05 -3.57337e-11 0)
(6.07535e-05 -3.71738e-11 0)
(6.07948e-05 -3.65616e-11 0)
(6.08363e-05 -3.72269e-11 0)
(6.08781e-05 -3.7739e-11 0)
(6.09201e-05 -4.06621e-11 0)
(6.09627e-05 -3.75701e-11 0)
(6.10057e-05 -3.5344e-11 0)
(6.10487e-05 -4.20743e-11 0)
(6.10924e-05 -3.74945e-11 0)
(6.11363e-05 -4.02114e-11 0)
(6.11808e-05 -3.86863e-11 0)
(6.12255e-05 -4.31783e-11 0)
(6.12707e-05 -4.4535e-11 0)
(6.13163e-05 -4.52108e-11 0)
(6.13624e-05 -4.55203e-11 0)
(6.14088e-05 -4.78571e-11 0)
(6.14558e-05 -4.75406e-11 0)
(6.15033e-05 -4.72721e-11 0)
(6.15512e-05 -4.80781e-11 0)
(6.15997e-05 -4.83895e-11 0)
(6.16488e-05 -4.99056e-11 0)
(6.16984e-05 -5.08223e-11 0)
(6.17485e-05 -5.29701e-11 0)
(6.17992e-05 -5.49765e-11 0)
(6.18506e-05 -5.6251e-11 0)
(6.19025e-05 -5.73857e-11 0)
(6.19551e-05 -5.84822e-11 0)
(6.20085e-05 -5.87755e-11 0)
(6.20625e-05 -5.91513e-11 0)
(6.21173e-05 -5.9712e-11 0)
(6.21728e-05 -6.04297e-11 0)
(6.22291e-05 -6.13653e-11 0)
(6.22863e-05 -6.25263e-11 0)
(6.23443e-05 -6.37653e-11 0)
(6.24033e-05 -6.4872e-11 0)
(6.24632e-05 -6.58318e-11 0)
(6.2524e-05 -6.65466e-11 0)
(6.25859e-05 -6.69047e-11 0)
(6.26489e-05 -6.69331e-11 0)
(6.2713e-05 -6.66086e-11 0)
(6.27783e-05 -6.58599e-11 0)
(6.28448e-05 -6.46488e-11 0)
(6.29127e-05 -6.29358e-11 0)
(6.29819e-05 -6.06945e-11 0)
(6.30526e-05 -5.79555e-11 0)
(6.31248e-05 -5.48082e-11 0)
(6.31986e-05 -5.14084e-11 0)
(6.32741e-05 -4.79935e-11 0)
(6.33515e-05 -4.48818e-11 0)
(6.34307e-05 -4.24676e-11 0)
(6.35119e-05 -4.12064e-11 0)
(6.35953e-05 -4.15751e-11 0)
(6.36808e-05 -4.40037e-11 0)
(6.37687e-05 -4.87808e-11 0)
(6.38591e-05 -5.59364e-11 0)
(6.3952e-05 -6.51078e-11 0)
(6.40476e-05 -7.54165e-11 0)
(6.41461e-05 -8.5402e-11 0)
(6.42476e-05 -9.30614e-11 0)
(6.43522e-05 -9.60229e-11 0)
(6.44603e-05 -9.18463e-11 0)
(6.45721e-05 -7.83508e-11 0)
(6.46881e-05 -5.38178e-11 0)
(6.48087e-05 -1.70672e-11 0)
(6.49346e-05 3.20568e-11 0)
(6.50663e-05 9.10528e-11 0)
(6.52042e-05 1.52073e-10 0)
(6.53494e-05 2.01521e-10 0)
(6.55036e-05 2.20562e-10 0)
(6.56685e-05 1.70157e-10 0)
(6.5844e-05 -2.54635e-11 0)
(6.60285e-05 -4.16329e-10 0)
(6.62229e-05 -9.29259e-10 0)
(6.64339e-05 -1.34451e-09 0)
(6.66694e-05 -9.34092e-10 0)
(6.69194e-05 -7.06922e-08 0)
(6.71587e-05 1.01256e-06 0)
(6.74461e-05 -4.68125e-06 0)
(6.93511e-05 1.82934e-05 0)
(0.000821873 -7.53384e-05 0)
(0.0996179 -2.80074e-05 0)
(0.220066 -4.06126e-05 0)
(0.323465 -1.3845e-05 0)
(0.41313 -7.95805e-06 0)
(0.492302 -5.34609e-06 0)
(0.56321 -3.48939e-06 0)
(0.627394 2.42384e-07 0)
(0.685937 -1.56191e-06 0)
(0.739636 -1.42218e-06 0)
(0.789125 -1.15553e-06 0)
(0.834921 -9.89677e-07 0)
(0.877447 -9.06024e-07 0)
(0.917059 -8.62732e-07 0)
(0.954055 -8.3503e-07 0)
(0.98869 -8.15495e-07 0)
(1.02118 -7.97351e-07 0)
(1.05173 -7.70341e-07 0)
(1.08048 -7.39819e-07 0)
(1.10759 -7.02385e-07 0)
(1.13318 -6.59726e-07 0)
(1.15735 -6.11606e-07 0)
(1.18021 -5.60761e-07 0)
(1.20184 -5.07346e-07 0)
(1.2223 -4.5367e-07 0)
(1.24165 -4.00047e-07 0)
(1.25995 -3.48217e-07 0)
(1.27723 -2.98616e-07 0)
(1.29353 -2.51906e-07 0)
(1.30887 -2.08693e-07 0)
(1.32328 -1.69226e-07 0)
(1.33675 -1.3399e-07 0)
(1.3493 -1.02833e-07 0)
(1.36091 -7.4323e-08 0)
(1.37159 -4.67894e-08 0)
(1.38131 -2.16357e-08 0)
(1.39008 -3.82524e-09 0)
(1.39789 3.6352e-09 0)
(1.40475 4.43051e-09 0)
(1.41069 5.1703e-09 0)
(1.41575 8.26886e-09 0)
(1.41999 1.13703e-08 0)
(1.4235 1.20633e-08 0)
(1.42636 1.04261e-08 0)
(1.42866 7.88682e-09 0)
(1.43049 5.56314e-09 0)
(1.43191 3.83731e-09 0)
(1.43301 2.6632e-09 0)
(1.43383 1.88251e-09 0)
(1.43442 1.35892e-09 0)
(1.43482 1.00034e-09 0)
(1.43506 7.49827e-10 0)
(1.43516 5.68995e-10 0)
(1.43515 4.39505e-10 0)
(1.43503 3.39741e-10 0)
(1.43482 2.70338e-10 0)
(1.43454 2.08257e-10 0)
(1.43419 1.72661e-10 0)
(1.43376 1.44075e-10 0)
(1.43327 1.19174e-10 0)
(1.43271 9.75218e-11 0)
(1.43208 7.85388e-11 0)
(1.43139 6.36968e-11 0)
(1.43064 5.19533e-11 0)
(1.42983 4.14964e-11 0)
(1.42895 3.35459e-11 0)
(1.42802 2.63966e-11 0)
(1.42703 1.72622e-11 0)
(1.42598 1.32566e-11 0)
(1.42487 1.31069e-11 0)
(1.4237 6.38827e-12 0)
(1.42247 9.82304e-13 0)
(1.42119 4.32773e-13 0)
(1.41985 1.2631e-12 0)
(1.41845 -5.22991e-13 0)
(1.41699 -5.52282e-12 0)
(1.41548 -1.27179e-12 0)
(1.41391 2.42746e-12 0)
(1.41228 -2.96908e-13 0)
(1.4106 1.69536e-13 0)
(1.40886 3.72307e-12 0)
(1.40707 2.38648e-12 0)
(1.40523 5.15645e-12 0)
(1.40333 4.92905e-13 0)
(1.40139 8.66292e-12 0)
(1.39939 -1.50489e-12 0)
(1.39734 1.39074e-11 0)
(1.39525 -1.6973e-11 0)
(1.39311 3.31765e-11 0)
(1.39093 -5.21218e-13 0)
(1.3887 -3.55787e-11 0)
(1.38644 1.57324e-11 0)
(1.38414 7.70283e-11 0)
(1.3818 -8.15707e-11 0)
(1.37944 9.2825e-12 0)
(1.37704 4.11579e-12 0)
(1.37463 1.12113e-11 0)
(1.3722 -1.37048e-11 0)
(1.36975 2.23124e-11 0)
(1.3673 -1.38835e-11 0)
(1.36484 -2.85376e-12 0)
(1.3624 3.71396e-11 0)
(1.35996 2.00625e-11 0)
(1.35755 2.07232e-12 0)
(1.35518 -1.23885e-13 0)
(1.35284 7.03507e-13 0)
(1.35057 1.04738e-12 0)
(1.34837 9.76307e-13 0)
(1.34625 8.86798e-13 0)
(1.34425 8.40255e-13 0)
(1.34236 8.17989e-13 0)
(1.34063 7.37129e-13 0)
(1.33907 3.36491e-13 0)
(1.3377 -2.88887e-13 0)
(1.33655 1.00014e-11 0)
(1.33565 -2.88158e-11 0)
(1.33501 6.41186e-11 0)
(1.33465 -1.13376e-10 0)
(1.33456 1.8047e-10 0)
(1.33473 -2.60949e-10 0)
(1.33508 3.55142e-10 0)
(1.33541 -4.56986e-10 0)
(1.33548 5.6518e-10 0)
(1.33548 -6.75681e-10 0)
(1.33548 7.89445e-10 0)
(1.33548 -9.05088e-10 0)
(1.33548 1.02386e-09 0)
(1.33548 -1.14498e-09 0)
(1.33548 1.26923e-09 0)
(1.33548 -1.39625e-09 0)
(1.33548 1.5264e-09 0)
(1.33548 -1.65969e-09 0)
(1.33548 1.79612e-09 0)
(1.33548 -1.93602e-09 0)
(1.33548 2.07906e-09 0)
(1.33548 -2.22583e-09 0)
(1.33548 2.37578e-09 0)
(1.33548 -2.52971e-09 0)
(1.33548 2.68679e-09 0)
(1.33548 -2.8481e-09 0)
(1.33548 3.01255e-09 0)
(1.33548 -3.18141e-09 0)
(1.33548 3.35344e-09 0)
(1.33548 -3.53001e-09 0)
(1.33548 3.70981e-09 0)
(1.33548 -3.89418e-09 0)
(1.33548 4.08187e-09 0)
(1.33548 -4.27415e-09 0)
(1.33548 4.46989e-09 0)
(1.33548 -4.67014e-09 0)
(1.33548 4.87403e-09 0)
(1.33548 -5.08226e-09 0)
(1.33548 5.2944e-09 0)
(1.33548 -5.51069e-09 0)
(1.33548 5.73098e-09 0)
(1.33548 -5.95544e-09 0)
(1.33548 6.18387e-09 0)
(1.33548 -6.41644e-09 0)
(1.33548 6.65296e-09 0)
(1.33548 -6.89359e-09 0)
(1.33548 7.13812e-09 0)
(1.33548 -7.38669e-09 0)
(1.33548 7.63908e-09 0)
(1.33548 -7.89543e-09 0)
(1.33548 8.15549e-09 0)
(1.33548 -8.41935e-09 0)
(1.33548 7.62691e-09 0)
(1.33548 -7.72157e-09 0)
(1.33548 7.81519e-09 0)
(1.33548 -7.9078e-09 0)
(1.33548 7.99937e-09 0)
(1.33548 -8.0899e-09 0)
(1.33548 8.17939e-09 0)
(1.33548 -8.26779e-09 0)
(1.33548 8.35516e-09 0)
(1.33548 -8.4414e-09 0)
(1.33548 8.52659e-09 0)
(1.33548 -8.61062e-09 0)
(1.33548 8.69359e-09 0)
(1.33548 -8.77535e-09 0)
(1.33548 8.85605e-09 0)
(1.33548 -8.93549e-09 0)
(1.33548 9.01387e-09 0)
(1.33548 -9.09093e-09 0)
(1.33548 9.16691e-09 0)
(1.33548 -9.24149e-09 0)
(1.33548 9.31511e-09 0)
(1.33548 -9.38708e-09 0)
(1.33548 9.45827e-09 0)
(1.33548 -9.52754e-09 0)
(1.33548 9.59621e-09 0)
(1.33548 -9.66266e-09 0)
(1.33548 9.72876e-09 0)
(1.33548 -9.79227e-09 0)
(1.33548 9.85563e-09 0)
(1.33548 -9.91604e-09 0)
(1.33548 9.97665e-09 0)
(1.33548 -1.00337e-08 0)
(1.33548 1.00915e-08 0)
(1.33548 -1.01449e-08 0)
(1.33548 1.01998e-08 0)
(1.33548 -1.02492e-08 0)
(1.33548 1.03011e-08 0)
(1.33548 -1.03462e-08 0)
(1.33548 1.03951e-08 0)
(1.33548 -1.04352e-08 0)
(1.33548 1.04809e-08 0)
(1.33548 -1.05154e-08 0)
(1.33548 1.05578e-08 0)
(1.33548 -1.05855e-08 0)
(1.33548 1.06247e-08 0)
(1.33548 -1.06443e-08 0)
(1.33548 1.06791e-08 0)
(1.33548 -1.06889e-08 0)
(1.33548 1.07175e-08 0)
(1.33548 -1.07167e-08 0)
)
;

boundaryField
{
    inandouthalf11
    {
        type            cyclic;
    }
    inandouthalf12
    {
        type            cyclic;
    }
    inandouthalf21
    {
        type            cyclic;
    }
    inandouthalf22
    {
        type            cyclic;
    }
    inandouthalf31
    {
        type            cyclic;
    }
    inandouthalf32
    {
        type            cyclic;
    }
    inandouthalf41
    {
        type            cyclic;
    }
    inandouthalf42
    {
        type            cyclic;
    }
    top
    {
        type            symmetryPlane;
    }
    walls
    {
        type            calculated;
        value           uniform (0 0 0);
    }
    frontAndBackPlanes
    {
        type            empty;
    }
}


// ************************************************************************* //
