/*--------------------------------*- C++ -*----------------------------------*\
| =========                 |                                                 |
| \\      /  F ield         | OpenFOAM: The Open Source CFD Toolbox           |
|  \\    /   O peration     | Version:  2.4.x                                 |
|   \\  /    A nd           | Web:      www.OpenFOAM.org                      |
|    \\/     M anipulation  |                                                 |
\*---------------------------------------------------------------------------*/
FoamFile
{
    version     2.0;
    format      ascii;
    class       volVectorField;
    location    "8.65";
    object      Ub;
}
// * * * * * * * * * * * * * * * * * * * * * * * * * * * * * * * * * * * * * //

dimensions      [0 1 -1 0 0 0 0];

internalField   nonuniform List<vector> 
360
(
(0.000151452 2.0715e-08 0)
(0.000150643 7.381e-08 0)
(0.00015054 1.36655e-07 0)
(0.000150665 1.96655e-07 0)
(0.000150735 2.57327e-07 0)
(0.000150769 3.20387e-07 0)
(0.000150807 3.851e-07 0)
(0.000150851 4.50727e-07 0)
(0.000150897 5.1707e-07 0)
(0.000150943 5.84152e-07 0)
(0.000150989 6.52003e-07 0)
(0.000151036 7.20588e-07 0)
(0.000151084 7.89836e-07 0)
(0.000151131 8.59671e-07 0)
(0.000151179 9.3002e-07 0)
(0.000151228 1.00082e-06 0)
(0.000151277 1.072e-06 0)
(0.000151327 1.14351e-06 0)
(0.000151377 1.21525e-06 0)
(0.000151427 1.28715e-06 0)
(0.000151478 1.35913e-06 0)
(0.000151529 1.43112e-06 0)
(0.00015158 1.50305e-06 0)
(0.000151632 1.57484e-06 0)
(0.000151684 1.64642e-06 0)
(0.000151736 1.71774e-06 0)
(0.000151788 1.78872e-06 0)
(0.000151841 1.85933e-06 0)
(0.000151894 1.9295e-06 0)
(0.000151947 1.99919e-06 0)
(0.000152 2.06835e-06 0)
(0.000152054 2.13697e-06 0)
(0.000152108 2.205e-06 0)
(0.000152162 2.27243e-06 0)
(0.000152216 2.33923e-06 0)
(0.000152271 2.40539e-06 0)
(0.000152326 2.47089e-06 0)
(0.000152381 2.53574e-06 0)
(0.000152436 2.59995e-06 0)
(0.000152491 2.66349e-06 0)
(0.000152548 2.72639e-06 0)
(0.000152604 2.78865e-06 0)
(0.00015266 2.85027e-06 0)
(0.000152717 2.91129e-06 0)
(0.000152773 2.9717e-06 0)
(0.000152831 3.03152e-06 0)
(0.000152889 3.09079e-06 0)
(0.000152946 3.14948e-06 0)
(0.000153005 3.20763e-06 0)
(0.000153064 3.26527e-06 0)
(0.000153123 3.3224e-06 0)
(0.000153182 3.37905e-06 0)
(0.000153242 3.43523e-06 0)
(0.000153303 3.49095e-06 0)
(0.000153364 3.54622e-06 0)
(0.000153425 3.60107e-06 0)
(0.000153487 3.65549e-06 0)
(0.00015355 3.70951e-06 0)
(0.000153613 3.76313e-06 0)
(0.000153676 3.81632e-06 0)
(0.00015374 3.86914e-06 0)
(0.000153805 3.92157e-06 0)
(0.00015387 3.97364e-06 0)
(0.000153936 4.02534e-06 0)
(0.000154002 4.07668e-06 0)
(0.000154069 4.12764e-06 0)
(0.000154137 4.17824e-06 0)
(0.000154206 4.22847e-06 0)
(0.000154275 4.27831e-06 0)
(0.000154344 4.32776e-06 0)
(0.000154415 4.37683e-06 0)
(0.000154487 4.42552e-06 0)
(0.000154558 4.47381e-06 0)
(0.000154632 4.52172e-06 0)
(0.000154705 4.56923e-06 0)
(0.00015478 4.61636e-06 0)
(0.000154856 4.66308e-06 0)
(0.000154932 4.70937e-06 0)
(0.000155009 4.75522e-06 0)
(0.000155087 4.80063e-06 0)
(0.000155166 4.84557e-06 0)
(0.000155247 4.89004e-06 0)
(0.000155328 4.93405e-06 0)
(0.00015541 4.97759e-06 0)
(0.000155494 5.02065e-06 0)
(0.000155578 5.06323e-06 0)
(0.000155664 5.10533e-06 0)
(0.000155751 5.14692e-06 0)
(0.000155839 5.18799e-06 0)
(0.000155928 5.22853e-06 0)
(0.000156019 5.26852e-06 0)
(0.000156111 5.30796e-06 0)
(0.000156205 5.34682e-06 0)
(0.0001563 5.38512e-06 0)
(0.000156397 5.42285e-06 0)
(0.000156495 5.46001e-06 0)
(0.000156595 5.49659e-06 0)
(0.000156696 5.53258e-06 0)
(0.0001568 5.56797e-06 0)
(0.000156905 5.60276e-06 0)
(0.000157012 5.63694e-06 0)
(0.000157122 5.6705e-06 0)
(0.000157233 5.70344e-06 0)
(0.000157347 5.73576e-06 0)
(0.000157462 5.76746e-06 0)
(0.000157581 5.79854e-06 0)
(0.000157702 5.82903e-06 0)
(0.000157825 5.85893e-06 0)
(0.000157951 5.88828e-06 0)
(0.00015808 5.91709e-06 0)
(0.000158212 5.9454e-06 0)
(0.000158348 5.97325e-06 0)
(0.000158486 6.00068e-06 0)
(0.000158628 6.02772e-06 0)
(0.000158774 6.05442e-06 0)
(0.000158924 6.08081e-06 0)
(0.000159077 6.1069e-06 0)
(0.000159235 6.13269e-06 0)
(0.000159398 6.15818e-06 0)
(0.000159565 6.18332e-06 0)
(0.000159737 6.20805e-06 0)
(0.000159914 6.23229e-06 0)
(0.000160097 6.25595e-06 0)
(0.000160286 6.27895e-06 0)
(0.00016048 6.30123e-06 0)
(0.000160682 6.32279e-06 0)
(0.00016089 6.34369e-06 0)
(0.000161107 6.3641e-06 0)
(0.000161332 6.3843e-06 0)
(0.000161567 6.40471e-06 0)
(0.000161813 6.42582e-06 0)
(0.00016207 6.44824e-06 0)
(0.000162339 6.47259e-06 0)
(0.000162624 6.49943e-06 0)
(0.000162928 6.52898e-06 0)
(0.000163251 6.56055e-06 0)
(0.00016359 6.59198e-06 0)
(0.000163948 6.61964e-06 0)
(0.000164342 6.63958e-06 0)
(0.000164787 6.65039e-06 0)
(0.000165265 6.47409e-06 0)
(0.000165725 9.18687e-06 0)
(0.00016628 -5.10716e-06 0)
(0.000170826 5.24373e-05 0)
(0.00180408 -0.000160317 0)
(0.103636 -0.00131455 0)
(0.223641 -0.00129047 0)
(0.326268 -0.00124631 0)
(0.415423 -0.00120294 0)
(0.494247 -0.00115218 0)
(0.564898 -0.00109505 0)
(0.62887 -0.0010346 0)
(0.687206 -0.000971041 0)
(0.740726 -0.000910217 0)
(0.790065 -0.000852389 0)
(0.835733 -0.00079753 0)
(0.878153 -0.000745477 0)
(0.917674 -0.000695941 0)
(0.954595 -0.000648585 0)
(0.989166 -0.000603095 0)
(1.02161 -0.000559227 0)
(1.0521 -0.000516812 0)
(1.08082 -0.000475741 0)
(1.10789 -0.000435971 0)
(1.13345 -0.00039752 0)
(1.1576 -0.000360445 0)
(1.18044 -0.000324839 0)
(1.20205 -0.000290812 0)
(1.22249 -0.000258486 0)
(1.24183 -0.000227982 0)
(1.26011 -0.000199415 0)
(1.27738 -0.000172886 0)
(1.29367 -0.000148476 0)
(1.309 -0.000126244 0)
(1.3234 -0.000106219 0)
(1.33686 -8.84007e-05 0)
(1.3494 -7.27503e-05 0)
(1.361 -5.91903e-05 0)
(1.37167 -4.7598e-05 0)
(1.38138 -3.78076e-05 0)
(1.39014 -2.96293e-05 0)
(1.39794 -2.28849e-05 0)
(1.40479 -1.74302e-05 0)
(1.41072 -1.31424e-05 0)
(1.41577 -9.88383e-06 0)
(1.42001 -7.48277e-06 0)
(1.42352 -5.74792e-06 0)
(1.42637 -4.49995e-06 0)
(1.42867 -3.59396e-06 0)
(1.4305 -2.9246e-06 0)
(1.43192 -2.41975e-06 0)
(1.43302 -2.0311e-06 0)
(1.43384 -1.72618e-06 0)
(1.43443 -1.48285e-06 0)
(1.43483 -1.2857e-06 0)
(1.43507 -1.12383e-06 0)
(1.43517 -9.89321e-07 0)
(1.43515 -8.7636e-07 0)
(1.43503 -7.80586e-07 0)
(1.43483 -6.9868e-07 0)
(1.43454 -6.28081e-07 0)
(1.43419 -5.66169e-07 0)
(1.43376 -5.11106e-07 0)
(1.43327 -4.61928e-07 0)
(1.43271 -4.1782e-07 0)
(1.43208 -3.78096e-07 0)
(1.43139 -3.42175e-07 0)
(1.43064 -3.09559e-07 0)
(1.42983 -2.79822e-07 0)
(1.42896 -2.52602e-07 0)
(1.42802 -2.27596e-07 0)
(1.42703 -2.04559e-07 0)
(1.42598 -1.83294e-07 0)
(1.42487 -1.63642e-07 0)
(1.4237 -1.45479e-07 0)
(1.42247 -1.28721e-07 0)
(1.42119 -1.13315e-07 0)
(1.41985 -9.9216e-08 0)
(1.41845 -8.63814e-08 0)
(1.41699 -7.47796e-08 0)
(1.41548 -6.43748e-08 0)
(1.41391 -5.51097e-08 0)
(1.41228 -4.69142e-08 0)
(1.4106 -3.97185e-08 0)
(1.40886 -3.34467e-08 0)
(1.40707 -2.80147e-08 0)
(1.40523 -2.33385e-08 0)
(1.40333 -1.93389e-08 0)
(1.40139 -1.59386e-08 0)
(1.39939 -1.30632e-08 0)
(1.39734 -1.06437e-08 0)
(1.39525 -8.62375e-09 0)
(1.39311 -6.94034e-09 0)
(1.39093 -5.52218e-09 0)
(1.3887 -4.37762e-09 0)
(1.38644 -3.50209e-09 0)
(1.38414 -2.72331e-09 0)
(1.3818 -1.99972e-09 0)
(1.37944 -1.4366e-09 0)
(1.37704 -1.02287e-09 0)
(1.37463 -7.18207e-10 0)
(1.3722 -4.91651e-10 0)
(1.36975 -3.27771e-10 0)
(1.3673 -1.99413e-10 0)
(1.36484 -1.19064e-10 0)
(1.3624 -3.64114e-11 0)
(1.35996 2.00625e-11 0)
(1.35755 2.07232e-12 0)
(1.35518 -1.23885e-13 0)
(1.35284 7.03507e-13 0)
(1.35057 1.04738e-12 0)
(1.34837 9.76307e-13 0)
(1.34625 8.86798e-13 0)
(1.34425 8.40255e-13 0)
(1.34236 8.17989e-13 0)
(1.34063 7.37129e-13 0)
(1.33907 3.36491e-13 0)
(1.3377 -2.88887e-13 0)
(1.33655 1.00014e-11 0)
(1.33565 -2.88158e-11 0)
(1.33501 6.41186e-11 0)
(1.33465 -1.13376e-10 0)
(1.33456 1.8047e-10 0)
(1.33473 -2.60949e-10 0)
(1.33508 3.55142e-10 0)
(1.33541 -4.56986e-10 0)
(1.33548 5.6518e-10 0)
(1.33548 -6.75681e-10 0)
(1.33548 7.89445e-10 0)
(1.33548 -9.05088e-10 0)
(1.33548 1.02386e-09 0)
(1.33548 -1.14498e-09 0)
(1.33548 1.26923e-09 0)
(1.33548 -1.39625e-09 0)
(1.33548 1.5264e-09 0)
(1.33548 -1.65969e-09 0)
(1.33548 1.79612e-09 0)
(1.33548 -1.93602e-09 0)
(1.33548 2.07906e-09 0)
(1.33548 -2.22583e-09 0)
(1.33548 2.37578e-09 0)
(1.33548 -2.52971e-09 0)
(1.33548 2.68679e-09 0)
(1.33548 -2.8481e-09 0)
(1.33548 3.01255e-09 0)
(1.33548 -3.18141e-09 0)
(1.33548 3.35344e-09 0)
(1.33548 -3.53001e-09 0)
(1.33548 3.70981e-09 0)
(1.33548 -3.89418e-09 0)
(1.33548 4.08187e-09 0)
(1.33548 -4.27415e-09 0)
(1.33548 4.46989e-09 0)
(1.33548 -4.67014e-09 0)
(1.33548 4.87403e-09 0)
(1.33548 -5.08226e-09 0)
(1.33548 5.2944e-09 0)
(1.33548 -5.51069e-09 0)
(1.33548 5.73098e-09 0)
(1.33548 -5.95544e-09 0)
(1.33548 6.18387e-09 0)
(1.33548 -6.41644e-09 0)
(1.33548 6.65296e-09 0)
(1.33548 -6.89359e-09 0)
(1.33548 7.13812e-09 0)
(1.33548 -7.38669e-09 0)
(1.33548 7.63908e-09 0)
(1.33548 -7.89543e-09 0)
(1.33548 8.15549e-09 0)
(1.33548 -8.41935e-09 0)
(1.33548 7.62691e-09 0)
(1.33548 -7.72157e-09 0)
(1.33548 7.81519e-09 0)
(1.33548 -7.9078e-09 0)
(1.33548 7.99937e-09 0)
(1.33548 -8.0899e-09 0)
(1.33548 8.17939e-09 0)
(1.33548 -8.26779e-09 0)
(1.33548 8.35516e-09 0)
(1.33548 -8.4414e-09 0)
(1.33548 8.52659e-09 0)
(1.33548 -8.61062e-09 0)
(1.33548 8.69359e-09 0)
(1.33548 -8.77535e-09 0)
(1.33548 8.85605e-09 0)
(1.33548 -8.93549e-09 0)
(1.33548 9.01387e-09 0)
(1.33548 -9.09093e-09 0)
(1.33548 9.16691e-09 0)
(1.33548 -9.24149e-09 0)
(1.33548 9.31511e-09 0)
(1.33548 -9.38708e-09 0)
(1.33548 9.45827e-09 0)
(1.33548 -9.52754e-09 0)
(1.33548 9.59621e-09 0)
(1.33548 -9.66266e-09 0)
(1.33548 9.72876e-09 0)
(1.33548 -9.79227e-09 0)
(1.33548 9.85563e-09 0)
(1.33548 -9.91604e-09 0)
(1.33548 9.97665e-09 0)
(1.33548 -1.00337e-08 0)
(1.33548 1.00915e-08 0)
(1.33548 -1.01449e-08 0)
(1.33548 1.01998e-08 0)
(1.33548 -1.02492e-08 0)
(1.33548 1.03011e-08 0)
(1.33548 -1.03462e-08 0)
(1.33548 1.03951e-08 0)
(1.33548 -1.04352e-08 0)
(1.33548 1.04809e-08 0)
(1.33548 -1.05154e-08 0)
(1.33548 1.05578e-08 0)
(1.33548 -1.05855e-08 0)
(1.33548 1.06247e-08 0)
(1.33548 -1.06443e-08 0)
(1.33548 1.06791e-08 0)
(1.33548 -1.06889e-08 0)
(1.33548 1.07175e-08 0)
(1.33548 -1.07167e-08 0)
)
;

boundaryField
{
    inandouthalf11
    {
        type            cyclic;
    }
    inandouthalf12
    {
        type            cyclic;
    }
    inandouthalf21
    {
        type            cyclic;
    }
    inandouthalf22
    {
        type            cyclic;
    }
    inandouthalf31
    {
        type            cyclic;
    }
    inandouthalf32
    {
        type            cyclic;
    }
    inandouthalf41
    {
        type            cyclic;
    }
    inandouthalf42
    {
        type            cyclic;
    }
    top
    {
        type            symmetryPlane;
    }
    walls
    {
        type            fixedValue;
        value           uniform (0 0 0);
    }
    frontAndBackPlanes
    {
        type            empty;
    }
}


// ************************************************************************* //
