/*--------------------------------*- C++ -*----------------------------------*\
| =========                 |                                                 |
| \\      /  F ield         | OpenFOAM: The Open Source CFD Toolbox           |
|  \\    /   O peration     | Version:  2.4.x                                 |
|   \\  /    A nd           | Web:      www.OpenFOAM.org                      |
|    \\/     M anipulation  |                                                 |
\*---------------------------------------------------------------------------*/
FoamFile
{
    version     2.0;
    format      ascii;
    class       volVectorField;
    location    "8.65";
    object      Ur;
}
// * * * * * * * * * * * * * * * * * * * * * * * * * * * * * * * * * * * * * //

dimensions      [0 1 -1 0 0 0 0];

internalField   nonuniform List<vector> 
360
(
(0.000151452 2.0715e-08 0)
(0.000150629 1.23091e-07 0)
(0.00015051 2.25588e-07 0)
(0.000150621 3.21193e-07 0)
(0.000150676 4.20037e-07 0)
(0.000150694 5.23544e-07 0)
(0.000150716 6.29526e-07 0)
(0.000150744 7.36844e-07 0)
(0.000150773 8.45329e-07 0)
(0.000150803 9.55045e-07 0)
(0.000150832 1.06604e-06 0)
(0.000150862 1.17824e-06 0)
(0.000150892 1.29155e-06 0)
(0.000150923 1.40582e-06 0)
(0.000150953 1.52093e-06 0)
(0.000150984 1.6368e-06 0)
(0.000151016 1.7533e-06 0)
(0.000151047 1.87034e-06 0)
(0.000151079 1.98777e-06 0)
(0.000151111 2.10549e-06 0)
(0.000151144 2.22334e-06 0)
(0.000151176 2.34122e-06 0)
(0.00015121 2.459e-06 0)
(0.000151243 2.57657e-06 0)
(0.000151277 2.69381e-06 0)
(0.000151311 2.81063e-06 0)
(0.000151345 2.92691e-06 0)
(0.00015138 3.04258e-06 0)
(0.000151415 3.15755e-06 0)
(0.000151451 3.27175e-06 0)
(0.000151486 3.3851e-06 0)
(0.000151523 3.49757e-06 0)
(0.000151559 3.60908e-06 0)
(0.000151596 3.71961e-06 0)
(0.000151633 3.82914e-06 0)
(0.000151671 3.93763e-06 0)
(0.000151708 4.04506e-06 0)
(0.000151747 4.15142e-06 0)
(0.000151786 4.25674e-06 0)
(0.000151825 4.36099e-06 0)
(0.000151864 4.4642e-06 0)
(0.000151904 4.56638e-06 0)
(0.000151945 4.66753e-06 0)
(0.000151986 4.76768e-06 0)
(0.000152027 4.86687e-06 0)
(0.000152069 4.96511e-06 0)
(0.000152111 5.06244e-06 0)
(0.000152153 5.15886e-06 0)
(0.000152197 5.25438e-06 0)
(0.000152241 5.3491e-06 0)
(0.000152285 5.443e-06 0)
(0.000152329 5.53612e-06 0)
(0.000152375 5.62847e-06 0)
(0.000152421 5.72011e-06 0)
(0.000152467 5.81101e-06 0)
(0.000152514 5.90124e-06 0)
(0.000152561 5.99079e-06 0)
(0.00015261 6.07969e-06 0)
(0.000152658 6.16794e-06 0)
(0.000152707 6.25553e-06 0)
(0.000152758 6.34251e-06 0)
(0.000152808 6.42887e-06 0)
(0.00015286 6.51465e-06 0)
(0.000152911 6.59985e-06 0)
(0.000152964 6.68447e-06 0)
(0.000153017 6.7685e-06 0)
(0.000153072 6.85194e-06 0)
(0.000153127 6.93479e-06 0)
(0.000153182 7.01704e-06 0)
(0.000153238 7.09865e-06 0)
(0.000153296 7.17965e-06 0)
(0.000153354 7.26006e-06 0)
(0.000153413 7.33983e-06 0)
(0.000153473 7.419e-06 0)
(0.000153534 7.49753e-06 0)
(0.000153596 7.57546e-06 0)
(0.000153658 7.65274e-06 0)
(0.000153722 7.72934e-06 0)
(0.000153786 7.80523e-06 0)
(0.000153852 7.88042e-06 0)
(0.000153918 7.95487e-06 0)
(0.000153986 8.02857e-06 0)
(0.000154055 8.10153e-06 0)
(0.000154125 8.17374e-06 0)
(0.000154197 8.2452e-06 0)
(0.000154269 8.3159e-06 0)
(0.000154343 8.38582e-06 0)
(0.000154418 8.45495e-06 0)
(0.000154494 8.52325e-06 0)
(0.000154572 8.5907e-06 0)
(0.000154652 8.65728e-06 0)
(0.000154732 8.72296e-06 0)
(0.000154815 8.78775e-06 0)
(0.000154898 8.85164e-06 0)
(0.000154984 8.91462e-06 0)
(0.000155071 8.97669e-06 0)
(0.000155161 9.03784e-06 0)
(0.000155251 9.09807e-06 0)
(0.000155344 9.15735e-06 0)
(0.000155439 9.21567e-06 0)
(0.000155536 9.27302e-06 0)
(0.000155635 9.3294e-06 0)
(0.000155736 9.38479e-06 0)
(0.00015584 9.43919e-06 0)
(0.000155946 9.49262e-06 0)
(0.000156054 9.54509e-06 0)
(0.000156165 9.59661e-06 0)
(0.000156279 9.64722e-06 0)
(0.000156396 9.69696e-06 0)
(0.000156516 9.74586e-06 0)
(0.000156638 9.794e-06 0)
(0.000156764 9.84142e-06 0)
(0.000156894 9.88821e-06 0)
(0.000157027 9.93442e-06 0)
(0.000157163 9.98013e-06 0)
(0.000157304 1.00254e-05 0)
(0.000157448 1.00702e-05 0)
(0.000157597 1.01146e-05 0)
(0.00015775 1.01586e-05 0)
(0.000157907 1.02021e-05 0)
(0.00015807 1.0245e-05 0)
(0.000158238 1.02872e-05 0)
(0.000158411 1.03285e-05 0)
(0.000158591 1.03688e-05 0)
(0.000158776 1.0408e-05 0)
(0.000158968 1.04461e-05 0)
(0.000159167 1.04832e-05 0)
(0.000159374 1.05195e-05 0)
(0.00015959 1.05557e-05 0)
(0.000159815 1.05923e-05 0)
(0.00016005 1.06302e-05 0)
(0.000160295 1.06704e-05 0)
(0.000160552 1.0714e-05 0)
(0.000160822 1.0762e-05 0)
(0.000161109 1.08148e-05 0)
(0.000161413 1.08715e-05 0)
(0.000161732 1.09285e-05 0)
(0.000162072 1.09798e-05 0)
(0.000162449 1.10187e-05 0)
(0.000162883 1.10418e-05 0)
(0.000163356 1.08712e-05 0)
(0.000163815 1.35855e-05 0)
(0.000164369 -7.08333e-07 0)
(0.000168915 5.68359e-05 0)
(0.00180217 -0.000155919 0)
(0.0107596 -0.00344513 0)
(0.0118274 -0.00413565 0)
(0.0105178 -0.00462432 0)
(0.00949838 -0.00494951 0)
(0.00880871 -0.00519351 0)
(0.00833018 -0.0053878 0)
(0.00794499 -0.0055706 0)
(0.0074796 -0.00571472 0)
(0.00705679 -0.00588219 0)
(0.00669625 -0.00606746 0)
(0.00639812 -0.0062727 0)
(0.00616065 -0.00650085 0)
(0.00598228 -0.00675379 0)
(0.00586182 -0.00703205 0)
(0.00579848 -0.00733518 0)
(0.00579199 -0.00766218 0)
(0.00584244 -0.00801154 0)
(0.00595072 -0.00838131 0)
(0.00611912 -0.00876936 0)
(0.00635156 -0.00917329 0)
(0.00665413 -0.00959058 0)
(0.00703559 -0.0100186 0)
(0.00750777 -0.0104544 0)
(0.00808593 -0.0108953 0)
(0.00878878 -0.0113379 0)
(0.00963816 -0.011779 0)
(0.0106581 -0.0122148 0)
(0.0118735 -0.0126411 0)
(0.0133074 -0.0130536 0)
(0.0149785 -0.0134475 0)
(0.0168971 -0.0138179 0)
(0.0190613 -0.0141593 0)
(0.0214537 -0.0144663 0)
(0.0240384 -0.0147317 0)
(0.0267606 -0.0149451 0)
(0.029548 -0.0150903 0)
(0.0323152 -0.0151473 0)
(0.0349717 -0.0150995 0)
(0.0374332 -0.0149437 0)
(0.0396329 -0.0146927 0)
(0.0415308 -0.0143717 0)
(0.0431156 -0.014009 0)
(0.0444004 -0.0136296 0)
(0.0454144 -0.0132515 0)
(0.0461948 -0.0128864 0)
(0.0467797 -0.0125409 0)
(0.0472043 -0.0122182 0)
(0.0474986 -0.0119194 0)
(0.0476873 -0.0116444 0)
(0.0477896 -0.0113923 0)
(0.0478202 -0.0111621 0)
(0.0477901 -0.0109525 0)
(0.0477072 -0.0107623 0)
(0.0475771 -0.0105903 0)
(0.0474034 -0.0104353 0)
(0.0471887 -0.0102961 0)
(0.046932 -0.0101705 0)
(0.0466314 -0.0100569 0)
(0.0462871 -0.00995507 0)
(0.0458989 -0.00986477 0)
(0.0454661 -0.00978568 0)
(0.044988 -0.00971743 0)
(0.0444634 -0.00965959 0)
(0.0438912 -0.00961168 0)
(0.0432701 -0.0095731 0)
(0.0425985 -0.00954316 0)
(0.0418751 -0.00952109 0)
(0.0410983 -0.00950604 0)
(0.0402668 -0.00949711 0)
(0.0393792 -0.00949334 0)
(0.0384342 -0.0094937 0)
(0.0374308 -0.00949725 0)
(0.036368 -0.00950308 0)
(0.035245 -0.00951033 0)
(0.0340613 -0.00951821 0)
(0.0328165 -0.00952609 0)
(0.0315104 -0.00953348 0)
(0.0301428 -0.0095399 0)
(0.0287138 -0.00954494 0)
(0.0272235 -0.00954832 0)
(0.0256721 -0.00954977 0)
(0.0240597 -0.00954906 0)
(0.0223864 -0.00954596 0)
(0.0206522 -0.00954041 0)
(0.0188567 -0.0095322 0)
(0.0169992 -0.00952147 0)
(0.0150789 -0.00950775 0)
(0.0130932 -0.00949218 0)
(0.0110396 -0.0094743 0)
(0.0089146 -0.00945023 0)
(0.00670961 -0.00942808 0)
(0.0044372 -0.00941082 0)
(0.0038996 -0.00861478 0)
(0.0039613 -0.00885348 0)
(0.00398708 -0.00871474 0)
(0.00399289 -0.00876408 0)
(0.00404397 -0.00838203 0)
(0.00399448 -0.0092826 0)
(0.00412148 -0.00802688 0)
(0.00393525 -0.00897304 0)
(0.00396511 -0.0129791 0)
(0.00392854 0.0202361 0)
(0.00330051 0.0396218 0)
(0.00351994 0.0395892 0)
(0.00347843 0.039593 0)
(0.00345908 0.0395927 0)
(0.00343402 0.0395924 0)
(0.00340559 0.0395915 0)
(0.00337324 0.03959 0)
(0.00333671 0.039588 0)
(0.00329576 0.0395855 0)
(0.00325027 0.0395822 0)
(0.00320033 0.0395784 0)
(0.00314664 0.0395741 0)
(0.0030936 0.0395691 0)
(0.0030398 0.0395636 0)
(0.0029584 0.0395587 0)
(0.00291741 0.0395531 0)
(0.00287652 0.0395469 0)
(0.00285158 0.0395392 0)
(0.00289994 0.0395303 0)
(0.00291736 0.0395255 0)
(0.00291812 0.0395247 0)
(0.00291813 0.0395247 0)
(0.00291813 0.0395247 0)
(0.00291813 0.0395247 0)
(0.00291813 0.0395247 0)
(0.00291813 0.0395247 0)
(0.00291813 0.0395247 0)
(0.00291813 0.0395247 0)
(0.00291813 0.0395247 0)
(0.00291813 0.0395247 0)
(0.00291813 0.0395247 0)
(0.00291813 0.0395247 0)
(0.00291813 0.0395247 0)
(0.00291813 0.0395247 0)
(0.00291813 0.0395247 0)
(0.00291813 0.0395247 0)
(0.00291813 0.0395247 0)
(0.00291813 0.0395247 0)
(0.00291813 0.0395247 0)
(0.00291813 0.0395247 0)
(0.00291813 0.0395247 0)
(0.00291813 0.0395247 0)
(0.00291813 0.0395247 0)
(0.00291813 0.0395247 0)
(0.00291813 0.0395247 0)
(0.00291813 0.0395247 0)
(0.00291813 0.0395247 0)
(0.00291813 0.0395247 0)
(0.00291813 0.0395247 0)
(0.00291813 0.0395247 0)
(0.00291813 0.0395247 0)
(0.00291813 0.0395247 0)
(0.00291813 0.0395247 0)
(0.00291813 0.0395247 0)
(0.00291813 0.0395247 0)
(0.00291813 0.0395247 0)
(0.00291813 0.0395247 0)
(0.00291813 0.0395247 0)
(0.00291813 0.0395247 0)
(0.00291813 0.0395247 0)
(0.00291813 0.0395247 0)
(0.00291813 0.0395247 0)
(0.00291813 0.0395247 0)
(0.00291813 0.0395247 0)
(0.00291813 0.0395247 0)
(0.00291813 0.0395247 0)
(0.00291813 0.0395247 0)
(0.00291813 0.0395247 0)
(0.00291813 0.0395247 0)
(0.00291813 0.0395247 0)
(0.00291813 0.0395247 0)
(0.00291813 0.0395247 0)
(0.00291813 0.0395247 0)
(0.00291813 0.0395247 0)
(0.00291813 0.0395247 0)
(0.00291813 0.0395247 0)
(0.00291813 0.0395247 0)
(0.00291813 0.0395247 0)
(0.00291813 0.0395247 0)
(0.00291813 0.0395247 0)
(0.00291813 0.0395247 0)
(0.00291813 0.0395247 0)
(0.00291813 0.0395247 0)
(0.00291813 0.0395247 0)
(0.00291813 0.0395247 0)
(0.00291813 0.0395247 0)
(0.00291813 0.0395247 0)
(0.00291813 0.0395247 0)
(0.00291813 0.0395247 0)
(0.00291813 0.0395247 0)
(0.00291813 0.0395247 0)
(0.00291813 0.0395247 0)
(0.00291813 0.0395247 0)
(0.00291813 0.0395247 0)
(0.00291813 0.0395247 0)
(0.00291813 0.0395247 0)
(0.00291813 0.0395247 0)
(0.00291813 0.0395247 0)
(0.00291813 0.0395247 0)
(0.00291813 0.0395247 0)
(0.00291813 0.0395247 0)
(0.00291813 0.0395247 0)
(0.00291813 0.0395247 0)
(0.00291813 0.0395247 0)
(0.00291813 0.0395247 0)
(0.00291813 0.0395247 0)
(0.00291813 0.0395247 0)
(0.00291813 0.0395247 0)
(0.00291814 0.0395247 0)
(0.00291817 0.0395245 0)
(0.00291902 0.039516 0)
(0.00293962 0.0391708 0)
(0.00341362 0.0224494 0)
)
;

boundaryField
{
    inandouthalf11
    {
        type            cyclic;
    }
    inandouthalf12
    {
        type            cyclic;
    }
    inandouthalf21
    {
        type            cyclic;
    }
    inandouthalf22
    {
        type            cyclic;
    }
    inandouthalf31
    {
        type            cyclic;
    }
    inandouthalf32
    {
        type            cyclic;
    }
    inandouthalf41
    {
        type            cyclic;
    }
    inandouthalf42
    {
        type            cyclic;
    }
    top
    {
        type            symmetryPlane;
    }
    walls
    {
        type            calculated;
        value           uniform (0 0 0);
    }
    frontAndBackPlanes
    {
        type            empty;
    }
}


// ************************************************************************* //
