/*--------------------------------*- C++ -*----------------------------------*\
| =========                 |                                                 |
| \\      /  F ield         | OpenFOAM: The Open Source CFD Toolbox           |
|  \\    /   O peration     | Version:  2.4.x                                 |
|   \\  /    A nd           | Web:      www.OpenFOAM.org                      |
|    \\/     M anipulation  |                                                 |
\*---------------------------------------------------------------------------*/
FoamFile
{
    version     2.0;
    format      ascii;
    class       volVectorField;
    location    "1.4";
    object      gradPf;
}
// * * * * * * * * * * * * * * * * * * * * * * * * * * * * * * * * * * * * * //

dimensions      [0 1 -2 0 0 0 0];

internalField   nonuniform List<vector> 
360
(
(0 -1.35992e-09 0)
(0 -0.0556701 0)
(0 -0.0556702 0)
(0 1.76744e-09 0)
(-1.67676e-14 -0.0556536 0)
(-1.67676e-14 -0.0556537 0)
(-3.35353e-14 -0.0556372 0)
(0 -0.0556373 0)
(-1.67677e-14 -0.0556207 0)
(0 -0.111225 0)
(-1.67677e-14 -0.0556044 0)
(0 -0.0555879 0)
(-1.67677e-14 -0.111159 0)
(0 -0.111127 0)
(0 -0.111094 0)
(0 -0.111061 0)
(0 -0.111028 0)
(-1.67679e-14 -0.110995 0)
(0 -0.166419 0)
(0 -0.16637 0)
(0 -0.166271 0)
(-1.6768e-14 -0.221597 0)
(0 -0.221466 0)
(0 -0.221336 0)
(0 -0.221205 0)
(-1.67683e-14 -0.221074 0)
(0 -0.276138 0)
(0 -0.331122 0)
(0 -0.330829 0)
(0 -0.330536 0)
(0 -0.385226 0)
(0 -0.384886 0)
(0 -0.439284 0)
(0 -0.493686 0)
(0 -0.492957 0)
(1.67692e-14 -0.547004 0)
(0 -0.600728 0)
(0 -0.708696 0)
(0 -0.707444 0)
(0 -0.760177 0)
(0 -0.866984 0)
(0 -0.864942 0)
(1.67705e-14 -0.97048 0)
(0 -1.07546 0)
(0 -1.12574 0)
(0 -1.22897 0)
(0 -1.27807 0)
(0 -1.37929 0)
(0 -1.58494 0)
(0 -1.68317 0)
(1.67733e-14 -1.77945 0)
(0 -1.92653 0)
(0 -2.07085 0)
(0 -2.21281 0)
(0 -2.40239 0)
(0 -2.58858 0)
(0 -2.76962 0)
(0 -2.99631 0)
(0 -3.16723 0)
(0 -3.42991 0)
(0 -3.68499 0)
(0 -3.92981 0)
(0 -4.21283 0)
(0 -4.48313 0)
(0 -4.7867 0)
(0 -5.11936 0)
(0 -5.47801 0)
(0 -5.81478 0)
(0 -6.12872 0)
(0 -6.50104 0)
(0 -6.92512 0)
(0 -7.27301 0)
(0 -7.66024 0)
(0 -8.08143 0)
(0 -8.48635 0)
(0 -8.85793 0)
(0 -8.69795 0)
(0 -6.5247 0)
(0 -1.9313 0)
(0 1.78603 0)
(0 1.70469 0)
(0 -0.782225 0)
(0 -3.09426 0)
(0 -4.39422 0)
(0 -4.85756 0)
(0 -4.79242 0)
(0 -4.45355 0)
(0 -4.05915 0)
(0 -3.78346 0)
(0 -3.68049 0)
(0 -3.70989 0)
(0 -3.79991 0)
(0 -3.88335 0)
(0 -3.92413 0)
(0 -3.925 0)
(0 -3.90449 0)
(0 -3.8817 0)
(0 -3.86782 0)
(0 -3.8647 0)
(0 -3.86707 0)
(0 -3.8689 0)
(0 -3.86772 0)
(0 -3.8633 0)
(0 -3.85659 0)
(0 -3.8491 0)
(0 -3.84146 0)
(0 -3.83353 0)
(0 -3.82499 0)
(0 -3.81565 0)
(0 -3.80544 0)
(0 -3.7944 0)
(0 -3.78256 0)
(0 -3.76992 0)
(0 -3.75656 0)
(0 -3.74263 0)
(0 -3.72832 0)
(0 -3.71355 0)
(0 -3.69767 0)
(0 -3.67918 0)
(0 -3.65587 0)
(0 -3.62576 0)
(0 -3.58884 0)
(0 -3.54907 0)
(0 -3.51536 0)
(0 -3.49966 0)
(0 -3.51009 0)
(0 -3.5384 0)
(0 -3.54558 0)
(0 -3.45963 0)
(0 -3.20871 0)
(0 -2.7866 0)
(0 -2.28927 0)
(0 -1.86695 0)
(0 -1.6532 0)
(0 -1.80219 0)
(0 -2.58225 0)
(0 -3.91178 0)
(0 -4.97921 0)
(0 -5.92622 0)
(0 -8.20927 0)
(0 -9.5479 0)
(0 -7.82084 0)
(0 -5.68261 0)
(0 -4.35224 0)
(0 -2.28521 0)
(0 -0.4046 0)
(0 0 0)
(0 0 0)
(0 0 0)
(0 0 0)
(0 0 0)
(0 0 0)
(0 0 0)
(0 0 0)
(0 0 0)
(0 0 0)
(0 0 0)
(0 0 0)
(0 0 0)
(0 0 0)
(0 0 0)
(0 0 0)
(0 0 0)
(0 0 0)
(0 0 0)
(0 0 0)
(0 0 0)
(0 0 0)
(0 0 0)
(0 0 0)
(0 0 0)
(0 0 0)
(0 0 0)
(0 0 0)
(0 0 0)
(0 0 0)
(0 0 0)
(0 0 0)
(0 0 0)
(0 0 0)
(0 0 0)
(0 0 0)
(0 0 0)
(0 0 0)
(0 0 0)
(0 0 0)
(0 0 0)
(0 0 0)
(0 0 0)
(0 0 0)
(0 0 0)
(0 0 0)
(0 0 0)
(0 0 0)
(0 0 0)
(0 0 0)
(0 0 0)
(0 0 0)
(0 0 0)
(0 0 0)
(0 0 0)
(0 0 0)
(0 0 0)
(0 0 0)
(0 0 0)
(0 0 0)
(0 0 0)
(0 0 0)
(0 0 0)
(0 0 0)
(0 0 0)
(0 0 0)
(0 0 0)
(0 0 0)
(0 0 0)
(0 0 0)
(0 0 0)
(0 0 0)
(0 0 0)
(0 0 0)
(0 0 0)
(0 0 0)
(0 0 0)
(0 0 0)
(0 0 0)
(0 0 0)
(0 0 0)
(0 0 0)
(0 0 0)
(0 0 0)
(0 0 0)
(0 0 0)
(0 0 0)
(0 0 0)
(0 0 0)
(0 0 0)
(0 0 0)
(0 0 0)
(0 0 0)
(0 0 0)
(0 0 0)
(0 0 0)
(0 0 0)
(0 0 0)
(0 0 0)
(0 0 0)
(0 0 0)
(0 0 0)
(0 0 0)
(0 0 0)
(0 0 0)
(0 0 0)
(0 0 0)
(0 0 0)
(0 0 0)
(0 0 0)
(0 0 0)
(0 0 0)
(0 0 0)
(0 0 0)
(0 0 0)
(0 0 0)
(0 0 0)
(0 0 0)
(0 0 0)
(0 0 0)
(0 0 0)
(0 0 0)
(0 0 0)
(0 0 0)
(0 0 0)
(0 0 0)
(0 0 0)
(0 0 0)
(0 0 0)
(0 0 0)
(0 0 0)
(0 0 0)
(0 0 0)
(0 0 0)
(0 0 0)
(0 0 0)
(0 0 0)
(0 0 0)
(0 0 0)
(0 0 0)
(0 0 0)
(0 0 0)
(0 0 0)
(0 0 0)
(0 0 0)
(0 0 0)
(0 0 0)
(0 0 0)
(0 0 0)
(0 0 0)
(0 0 0)
(0 0 0)
(0 0 0)
(0 0 0)
(0 0 0)
(0 0 0)
(0 0 0)
(0 0 0)
(0 0 0)
(0 0 0)
(0 0 0)
(0 0 0)
(0 0 0)
(0 0 0)
(0 0 0)
(0 0 0)
(0 0 0)
(0 0 0)
(0 0 0)
(0 0 0)
(0 0 0)
(0 0 0)
(0 0 0)
(0 0 0)
(0 0 0)
(0 0 0)
(0 0 0)
(0 0 0)
(0 0 0)
(0 0 0)
(0 0 0)
(0 0 0)
(0 0 0)
(0 0 0)
(0 0 0)
(0 0 0)
(0 0 0)
(0 0 0)
(0 0 0)
(0 0 0)
(0 0 0)
(0 0 0)
(0 0 0)
(0 0 0)
(0 0 0)
(0 0 0)
(0 0 0)
(0 0 0)
(0 0 0)
(0 0 0)
(0 0 0)
(0 0 0)
(0 0 0)
(0 0 0)
(0 0 0)
(0 0 0)
(0 0 0)
(0 0 0)
(0 0 0)
(0 0 0)
(0 0 0)
(0 0 0)
(0 0 0)
(0 0 0)
)
;

boundaryField
{
    inandouthalf11
    {
        type            cyclic;
    }
    inandouthalf12
    {
        type            cyclic;
    }
    inandouthalf21
    {
        type            cyclic;
    }
    inandouthalf22
    {
        type            cyclic;
    }
    inandouthalf31
    {
        type            cyclic;
    }
    inandouthalf32
    {
        type            cyclic;
    }
    inandouthalf41
    {
        type            cyclic;
    }
    inandouthalf42
    {
        type            cyclic;
    }
    top
    {
        type            symmetryPlane;
    }
    walls
    {
        type            calculated;
        value           uniform (0 0 0);
    }
    frontAndBackPlanes
    {
        type            empty;
    }
}


// ************************************************************************* //
