/*--------------------------------*- C++ -*----------------------------------*\
| =========                 |                                                 |
| \\      /  F ield         | OpenFOAM: The Open Source CFD Toolbox           |
|  \\    /   O peration     | Version:  2.4.x                                 |
|   \\  /    A nd           | Web:      www.OpenFOAM.org                      |
|    \\/     M anipulation  |                                                 |
\*---------------------------------------------------------------------------*/
FoamFile
{
    version     2.0;
    format      ascii;
    class       volScalarField;
    location    "1.4";
    object      p;
}
// * * * * * * * * * * * * * * * * * * * * * * * * * * * * * * * * * * * * * //

dimensions      [1 -1 -2 0 0 0 0];

internalField   nonuniform List<scalar> 
360
(
4921.24
4916.34
4911.43
4906.53
4901.62
4896.72
4891.81
4886.91
4882
4877.1
4872.19
4867.29
4862.38
4857.48
4852.57
4847.67
4842.76
4837.86
4832.95
4828.05
4823.14
4818.24
4813.33
4808.43
4803.52
4798.62
4793.71
4788.81
4783.9
4779
4774.09
4769.19
4764.28
4759.38
4754.47
4749.57
4744.66
4739.76
4734.85
4729.95
4725.04
4720.14
4715.23
4710.33
4705.42
4700.52
4695.61
4690.71
4685.8
4680.9
4675.99
4671.09
4666.18
4661.28
4656.37
4651.47
4646.56
4641.66
4636.75
4631.85
4626.94
4622.04
4617.13
4612.23
4607.32
4602.42
4597.51
4592.61
4587.7
4582.8
4577.89
4572.99
4568.08
4563.18
4558.27
4553.37
4548.46
4543.56
4538.65
4533.74
4528.81
4523.88
4518.95
4514
4509.06
4504.11
4499.16
4494.2
4489.24
4484.27
4479.3
4474.32
4469.33
4464.34
4459.35
4454.35
4449.34
4444.33
4439.32
4434.29
4429.26
4424.23
4419.19
4414.14
4409.08
4404.02
4398.95
4393.87
4388.79
4383.7
4378.6
4373.49
4368.37
4363.24
4358.11
4352.96
4347.81
4342.65
4337.47
4332.29
4327.09
4321.89
4316.67
4311.44
4306.2
4300.94
4295.67
4290.39
4285.09
4279.78
4274.45
4269.1
4263.74
4258.38
4253
4247.61
4242.2
4236.77
4231.3
4225.77
4220.17
4214.44
4208.57
4202.54
4196.25
4189.34
4181.76
4173.95
4166.06
4158.01
4148.68
4142.18
4137.53
4132.34
4127.7
4122.54
4117.87
4112.75
4108.04
4102.95
4098.22
4093.16
4088.39
4083.36
4078.57
4073.56
4068.75
4063.76
4058.93
4053.96
4049.11
4044.15
4039.29
4034.35
4029.47
4024.54
4019.66
4014.74
4009.85
4004.93
4000.03
3995.12
3990.22
3985.31
3980.41
3975.5
3970.6
3965.69
3960.79
3955.88
3950.98
3946.07
3941.17
3936.26
3931.36
3926.45
3921.55
3916.64
3911.74
3906.83
3901.93
3896.97
3891.92
3886.76
3881.5
3876.13
3870.65
3865.06
3859.36
3853.54
3847.6
3841.54
3835.36
3829.06
3822.62
3816.06
3809.36
3802.53
3795.55
3788.44
3781.18
3773.78
3766.22
3758.51
3750.64
3742.62
3734.43
3726.08
3717.55
3708.86
3699.98
3690.93
3681.69
3672.27
3662.65
3652.84
3642.83
3632.61
3622.19
3611.56
3600.71
3589.64
3578.35
3566.83
3555.07
3543.08
3530.84
3518.35
3505.61
3492.61
3479.35
3465.82
3452.01
3437.92
3423.55
3408.88
3393.92
3378.66
3363.08
3347.19
3330.97
3314.43
3297.55
3280.33
3262.76
3244.83
3226.54
3207.87
3188.83
3169.4
3149.58
3129.35
3108.72
3087.66
3066.18
3044.26
3021.9
2999.08
2975.8
2952.05
2927.81
2903.09
2877.86
2852.12
2825.86
2799.06
2771.72
2743.82
2715.36
2686.32
2656.7
2626.47
2595.62
2564.15
2532.05
2499.29
2465.86
2431.76
2396.96
2361.46
2325.24
2288.28
2250.57
2212.1
2172.85
2132.8
2091.93
2050.24
2007.7
1964.3
1922.76
1883.52
1844.28
1805.04
1765.8
1726.56
1687.32
1648.08
1608.84
1569.6
1530.36
1491.12
1451.88
1412.64
1373.4
1334.16
1294.92
1255.68
1216.44
1177.2
1137.96
1098.72
1059.48
1020.24
981
941.76
902.52
863.28
824.04
784.8
745.56
706.32
667.08
627.84
588.6
549.36
510.12
470.88
431.64
392.4
353.16
313.92
274.68
235.44
196.2
156.96
117.72
78.48
39.24
-2.80685e-07
)
;

boundaryField
{
    inandouthalf11
    {
        type            cyclic;
    }
    inandouthalf12
    {
        type            cyclic;
    }
    inandouthalf21
    {
        type            cyclic;
    }
    inandouthalf22
    {
        type            cyclic;
    }
    inandouthalf31
    {
        type            cyclic;
    }
    inandouthalf32
    {
        type            cyclic;
    }
    inandouthalf41
    {
        type            cyclic;
    }
    inandouthalf42
    {
        type            cyclic;
    }
    top
    {
        type            symmetryPlane;
    }
    walls
    {
        type            slip;
    }
    frontAndBackPlanes
    {
        type            empty;
    }
}


// ************************************************************************* //
