/*--------------------------------*- C++ -*----------------------------------*\
| =========                 |                                                 |
| \\      /  F ield         | OpenFOAM: The Open Source CFD Toolbox           |
|  \\    /   O peration     | Version:  2.4.x                                 |
|   \\  /    A nd           | Web:      www.OpenFOAM.org                      |
|    \\/     M anipulation  |                                                 |
\*---------------------------------------------------------------------------*/
FoamFile
{
    version     2.0;
    format      ascii;
    class       surfaceScalarField;
    location    "1.4";
    object      phia_0;
}
// * * * * * * * * * * * * * * * * * * * * * * * * * * * * * * * * * * * * * //

dimensions      [0 3 -1 0 0 0 0];

internalField   nonuniform List<scalar> 
359
(
-1.86593e-41
-1.86532e-41
-1.86539e-41
-1.86548e-41
-1.86565e-41
-1.86588e-41
-1.86618e-41
-1.86655e-41
-1.86698e-41
-1.86747e-41
-1.86803e-41
-1.86865e-41
-1.86933e-41
-1.87007e-41
-1.87088e-41
-1.87174e-41
-1.87266e-41
-1.87364e-41
-1.87467e-41
-1.87576e-41
-1.8769e-41
-1.8781e-41
-1.87936e-41
-1.88067e-41
-1.88203e-41
-1.88344e-41
-1.8849e-41
-1.88641e-41
-1.88798e-41
-1.8896e-41
-1.89126e-41
-1.89298e-41
-1.89474e-41
-1.89656e-41
-1.89843e-41
-1.90035e-41
-1.90232e-41
-1.90435e-41
-1.90643e-41
-1.90857e-41
-1.91077e-41
-1.91302e-41
-1.91534e-41
-1.91772e-41
-1.92017e-41
-1.92269e-41
-1.92529e-41
-1.92796e-41
-1.93072e-41
-1.93358e-41
-1.93653e-41
-1.93958e-41
-1.94276e-41
-1.94606e-41
-1.9495e-41
-1.9531e-41
-1.95687e-41
-1.96083e-41
-1.96502e-41
-1.96946e-41
-1.97418e-41
-1.97924e-41
-1.98471e-41
-1.99063e-41
-1.99713e-41
-2.00432e-41
-2.01243e-41
-2.02171e-41
-2.03286e-41
-2.04709e-41
-2.06866e-41
-2.1114e-41
-2.2769e-41
-3.87847e-41
-1.4675e-39
-1.60656e-31
-1.95713e-13
-1.7234e-12
-6.02052e-12
-1.20836e-11
-1.75096e-11
-2.15144e-11
-2.45548e-11
-2.71984e-11
-2.9833e-11
-3.26895e-11
-3.58661e-11
-3.93357e-11
-4.2989e-11
-4.67055e-11
-5.04087e-11
-5.40807e-11
-5.77449e-11
-6.14404e-11
-6.52041e-11
-6.90619e-11
-7.30285e-11
-7.71112e-11
-8.13145e-11
-8.56422e-11
-9.00983e-11
-9.46861e-11
-9.9408e-11
-1.04265e-10
-1.09259e-10
-1.14392e-10
-1.19666e-10
-1.25087e-10
-1.30661e-10
-1.36395e-10
-1.42298e-10
-1.4838e-10
-1.54653e-10
-1.61128e-10
-1.67819e-10
-1.74741e-10
-1.81908e-10
-1.89336e-10
-1.97037e-10
-2.05022e-10
-2.13294e-10
-2.21859e-10
-2.30729e-10
-2.39946e-10
-2.49593e-10
-2.59794e-10
-2.70685e-10
-2.82296e-10
-2.94389e-10
-3.06344e-10
-3.17332e-10
-3.26816e-10
-3.34951e-10
-3.42595e-10
-3.51392e-10
-3.6451e-10
-3.862e-10
-4.16376e-10
-4.53575e-10
-5.16436e-10
-6.2584e-10
-7.48756e-10
-8.92346e-10
-1.13867e-09
-1.90721e-09
-3.04151e-09
-3.50478e-09
-4.0722e-09
-5.01106e-09
-6.52235e-09
-1.08243e-08
-5.27863e-09
-1.06211e-08
-1.8236e-08
-2.45279e-08
-2.95977e-08
-3.35304e-08
-3.68708e-08
-3.96032e-08
-4.2052e-08
-4.41126e-08
-4.60238e-08
-4.77036e-08
-4.92373e-08
-5.06497e-08
-5.19334e-08
-5.31375e-08
-5.42382e-08
-5.52776e-08
-5.62362e-08
-5.71476e-08
-5.79913e-08
-5.87908e-08
-5.95474e-08
-6.02547e-08
-6.09332e-08
-6.15661e-08
-6.21768e-08
-6.27503e-08
-6.33026e-08
-6.38214e-08
-6.43231e-08
-6.48013e-08
-6.5257e-08
-6.56971e-08
-6.61144e-08
-6.65202e-08
-6.69069e-08
-6.72827e-08
-6.76405e-08
-6.79888e-08
-6.83225e-08
-6.86478e-08
-6.89586e-08
-6.92627e-08
-6.95555e-08
-6.98365e-08
-7.01119e-08
-7.03774e-08
-7.06367e-08
-7.08842e-08
-7.11284e-08
-7.13681e-08
-7.16122e-08
-7.18546e-08
-7.2091e-08
-7.23201e-08
-7.25523e-08
-7.27906e-08
-7.30258e-08
-7.32548e-08
-7.34858e-08
-7.37218e-08
-7.39568e-08
-7.4189e-08
-7.44266e-08
-7.46708e-08
-7.49099e-08
-7.51472e-08
-7.5396e-08
-7.56514e-08
-7.59047e-08
-7.61645e-08
-7.6431e-08
-7.66968e-08
-7.69744e-08
-7.7263e-08
-7.75541e-08
-7.78554e-08
-7.81629e-08
-7.84875e-08
-7.88213e-08
-7.91679e-08
-7.95221e-08
-7.98973e-08
-8.0286e-08
-8.06852e-08
-8.1091e-08
-8.15228e-08
-8.19686e-08
-8.24122e-08
-8.28673e-08
-8.33278e-08
-8.37724e-08
-8.41907e-08
-8.45517e-08
-8.49146e-08
-1.21e-07
-1.57867e-07
-1.58177e-07
-1.58177e-07
-1.58178e-07
-1.58177e-07
-1.58178e-07
-1.58177e-07
-1.58178e-07
-1.58177e-07
-1.58178e-07
-1.58177e-07
-1.58178e-07
-1.58177e-07
-1.58178e-07
-1.58177e-07
-1.58178e-07
-1.58177e-07
-1.58178e-07
-1.58177e-07
-1.58178e-07
-1.58177e-07
-1.58178e-07
-1.58177e-07
-1.58178e-07
-1.58177e-07
-1.58178e-07
-1.58177e-07
-1.58178e-07
-1.58177e-07
-1.58177e-07
-1.58177e-07
-1.58177e-07
-1.58177e-07
-1.58177e-07
-1.58177e-07
-1.58177e-07
-1.58177e-07
-1.58177e-07
-1.58177e-07
-1.58177e-07
-1.58177e-07
-1.58177e-07
-1.58177e-07
-1.58177e-07
-1.58177e-07
-1.58177e-07
-1.58177e-07
-1.58177e-07
-1.58177e-07
-1.58177e-07
-1.58177e-07
-1.58177e-07
-1.58177e-07
-1.58177e-07
-1.58177e-07
-1.58177e-07
-1.58177e-07
-1.58177e-07
-1.58177e-07
-1.58177e-07
-1.58177e-07
-1.58177e-07
-1.58177e-07
-1.58177e-07
-1.58177e-07
-1.58177e-07
-1.58177e-07
-1.58177e-07
-1.58177e-07
-1.58177e-07
-1.58177e-07
-1.58177e-07
-1.58177e-07
-1.58177e-07
-1.58177e-07
-1.58177e-07
-1.58177e-07
-1.58177e-07
-1.58177e-07
-1.58177e-07
-1.58177e-07
-1.58177e-07
-1.58177e-07
-1.58177e-07
-1.58177e-07
-1.58177e-07
-1.58177e-07
-1.58177e-07
-1.58177e-07
-1.58177e-07
-1.58177e-07
-1.58177e-07
-1.58177e-07
-1.58177e-07
-1.58177e-07
-1.58177e-07
-1.58177e-07
-1.58177e-07
-1.58177e-07
-1.58177e-07
-1.58177e-07
-1.58177e-07
-1.58177e-07
-1.58177e-07
-1.58177e-07
-1.58177e-07
-1.58177e-07
-1.58177e-07
-1.5816e-07
-1.57453e-07
-1.32571e-07
)
;

boundaryField
{
    inandouthalf11
    {
        type            cyclic;
        value           nonuniform List<scalar> 
100
(
-1.14707e-42
-1.14708e-42
-1.14712e-42
-1.14722e-42
-1.14737e-42
-1.14759e-42
-1.14787e-42
-1.14821e-42
-1.14861e-42
-1.14908e-42
-1.14962e-42
-1.15021e-42
-1.15088e-42
-1.15161e-42
-1.15241e-42
-1.15327e-42
-1.1542e-42
-1.1552e-42
-1.15627e-42
-1.15741e-42
-1.15862e-42
-1.1599e-42
-1.16125e-42
-1.16267e-42
-1.16416e-42
-1.16572e-42
-1.16735e-42
-1.16906e-42
-1.17084e-42
-1.17269e-42
-1.17461e-42
-1.17661e-42
-1.17868e-42
-1.18083e-42
-1.18305e-42
-1.18535e-42
-1.18772e-42
-1.19018e-42
-1.19271e-42
-1.19533e-42
-1.19803e-42
-1.20081e-42
-1.20368e-42
-1.20664e-42
-1.20969e-42
-1.21283e-42
-1.21607e-42
-1.21941e-42
-1.22285e-42
-1.22641e-42
-1.23008e-42
-1.23387e-42
-1.23779e-42
-1.24186e-42
-1.24607e-42
-1.25044e-42
-1.25499e-42
-1.25973e-42
-1.26469e-42
-1.26989e-42
-1.27536e-42
-1.28114e-42
-1.28728e-42
-1.29384e-42
-1.30089e-42
-1.30856e-42
-1.31695e-42
-1.32639e-42
-1.33704e-42
-1.35014e-42
-1.36701e-42
-1.39506e-42
-1.45542e-42
-1.73013e-42
-4.59298e-42
-2.70802e-40
-2.91675e-32
-3.45984e-14
-2.65195e-13
-7.81476e-13
-1.37066e-12
-1.84493e-12
-2.20221e-12
-2.49786e-12
-2.77772e-12
-3.07257e-12
-3.40047e-12
-3.76637e-12
-4.16336e-12
-4.57862e-12
-5.00105e-12
-5.42546e-12
-5.85247e-12
-6.28608e-12
-6.73117e-12
-7.19197e-12
-7.67149e-12
-8.17167e-12
-8.69389e-12
-9.23937e-12
)
;
    }
    inandouthalf12
    {
        type            cyclic;
        value           nonuniform List<scalar> 
100
(
1.14707e-42
1.14708e-42
1.14712e-42
1.14722e-42
1.14737e-42
1.14759e-42
1.14787e-42
1.14821e-42
1.14861e-42
1.14908e-42
1.14962e-42
1.15021e-42
1.15088e-42
1.15161e-42
1.15241e-42
1.15327e-42
1.1542e-42
1.1552e-42
1.15627e-42
1.15741e-42
1.15862e-42
1.1599e-42
1.16125e-42
1.16267e-42
1.16416e-42
1.16572e-42
1.16735e-42
1.16906e-42
1.17084e-42
1.17269e-42
1.17461e-42
1.17661e-42
1.17868e-42
1.18083e-42
1.18305e-42
1.18535e-42
1.18772e-42
1.19018e-42
1.19271e-42
1.19533e-42
1.19803e-42
1.20081e-42
1.20368e-42
1.20664e-42
1.20969e-42
1.21283e-42
1.21607e-42
1.21941e-42
1.22285e-42
1.22641e-42
1.23008e-42
1.23387e-42
1.23779e-42
1.24186e-42
1.24607e-42
1.25044e-42
1.25499e-42
1.25973e-42
1.26469e-42
1.26989e-42
1.27536e-42
1.28114e-42
1.28728e-42
1.29384e-42
1.30089e-42
1.30856e-42
1.31695e-42
1.32639e-42
1.33704e-42
1.35014e-42
1.36701e-42
1.39506e-42
1.45542e-42
1.73013e-42
4.59298e-42
2.70802e-40
2.91675e-32
3.45984e-14
2.65195e-13
7.81476e-13
1.37066e-12
1.84493e-12
2.20221e-12
2.49786e-12
2.77772e-12
3.07257e-12
3.40047e-12
3.76637e-12
4.16336e-12
4.57862e-12
5.00105e-12
5.42546e-12
5.85247e-12
6.28608e-12
6.73117e-12
7.19197e-12
7.67149e-12
8.17167e-12
8.69389e-12
9.23937e-12
)
;
    }
    inandouthalf21
    {
        type            cyclic;
        value           nonuniform List<scalar> 
100
(
-9.80938e-12
-1.04053e-11
-1.10283e-11
-1.16798e-11
-1.2361e-11
-1.30735e-11
-1.38188e-11
-1.45992e-11
-1.5417e-11
-1.62753e-11
-1.71773e-11
-1.81271e-11
-1.9129e-11
-2.01882e-11
-2.13103e-11
-2.2502e-11
-2.37707e-11
-2.51251e-11
-2.65742e-11
-2.81283e-11
-2.97979e-11
-3.1595e-11
-3.35342e-11
-3.56375e-11
-3.79389e-11
-4.04903e-11
-4.33609e-11
-4.66227e-11
-5.03092e-11
-5.43561e-11
-5.85831e-11
-6.28031e-11
-6.70504e-11
-7.18234e-11
-7.86402e-11
-9.27072e-11
-1.4079e-10
-4.49881e-10
-3.74771e-09
-2.66954e-08
-8.81079e-08
-1.72782e-07
-2.64055e-07
-3.57172e-07
-4.51491e-07
-5.47578e-07
-6.41649e-07
-7.27785e-07
-8.06896e-07
-8.80536e-07
-9.36037e-07
-9.92919e-07
-1.03104e-06
-1.05965e-06
-1.08425e-06
-1.10594e-06
-1.12533e-06
-1.14278e-06
-1.15854e-06
-1.17275e-06
-1.1856e-06
-1.19717e-06
-1.20764e-06
-1.2171e-06
-1.22566e-06
-1.23343e-06
-1.24049e-06
-1.24693e-06
-1.2528e-06
-1.25818e-06
-1.26311e-06
-1.26766e-06
-1.27183e-06
-1.27569e-06
-1.27927e-06
-1.28257e-06
-1.28565e-06
-1.2885e-06
-1.29117e-06
-1.29365e-06
-1.29598e-06
-1.29815e-06
-1.3002e-06
-1.30212e-06
-1.30393e-06
-1.30564e-06
-1.30726e-06
-1.30879e-06
-1.31025e-06
-1.31164e-06
-1.31296e-06
-1.31422e-06
-1.31543e-06
-1.31658e-06
-1.3177e-06
-1.31878e-06
-1.31981e-06
-1.32081e-06
-1.32178e-06
-1.32272e-06
)
;
    }
    inandouthalf22
    {
        type            cyclic;
        value           nonuniform List<scalar> 
100
(
9.80938e-12
1.04053e-11
1.10283e-11
1.16798e-11
1.2361e-11
1.30735e-11
1.38188e-11
1.45992e-11
1.5417e-11
1.62753e-11
1.71773e-11
1.81271e-11
1.9129e-11
2.01882e-11
2.13103e-11
2.2502e-11
2.37707e-11
2.51251e-11
2.65742e-11
2.81283e-11
2.97979e-11
3.1595e-11
3.35342e-11
3.56375e-11
3.79389e-11
4.04903e-11
4.33609e-11
4.66227e-11
5.03092e-11
5.43561e-11
5.85831e-11
6.28031e-11
6.70504e-11
7.18234e-11
7.86402e-11
9.27072e-11
1.4079e-10
4.49881e-10
3.74771e-09
2.66954e-08
8.81079e-08
1.72782e-07
2.64055e-07
3.57172e-07
4.51491e-07
5.47578e-07
6.41649e-07
7.27785e-07
8.06896e-07
8.80536e-07
9.36037e-07
9.92919e-07
1.03104e-06
1.05965e-06
1.08425e-06
1.10594e-06
1.12533e-06
1.14278e-06
1.15854e-06
1.17275e-06
1.1856e-06
1.19717e-06
1.20764e-06
1.2171e-06
1.22566e-06
1.23343e-06
1.24049e-06
1.24693e-06
1.2528e-06
1.25818e-06
1.26311e-06
1.26766e-06
1.27183e-06
1.27569e-06
1.27927e-06
1.28257e-06
1.28565e-06
1.2885e-06
1.29117e-06
1.29365e-06
1.29598e-06
1.29815e-06
1.3002e-06
1.30212e-06
1.30393e-06
1.30564e-06
1.30726e-06
1.30879e-06
1.31025e-06
1.31164e-06
1.31296e-06
1.31422e-06
1.31543e-06
1.31658e-06
1.3177e-06
1.31878e-06
1.31981e-06
1.32081e-06
1.32178e-06
1.32272e-06
)
;
    }
    inandouthalf31
    {
        type            cyclic;
        value           nonuniform List<scalar> 
110
(
-1.32365e-06
-1.35143e-06
-1.37978e-06
-1.40874e-06
-1.43831e-06
-1.4685e-06
-1.4993e-06
-1.53073e-06
-1.56286e-06
-1.59568e-06
-1.62916e-06
-1.66334e-06
-1.69827e-06
-1.73395e-06
-1.77036e-06
-1.80755e-06
-1.84556e-06
-1.88439e-06
-1.92399e-06
-1.96447e-06
-2.00586e-06
-2.04813e-06
-2.0913e-06
-2.13543e-06
-2.18049e-06
-2.22653e-06
-2.27363e-06
-2.32174e-06
-2.37091e-06
-2.42116e-06
-2.47254e-06
-2.52509e-06
-2.57881e-06
-2.63372e-06
-2.68987e-06
-2.74734e-06
-2.80609e-06
-2.86611e-06
-2.92749e-06
-2.99036e-06
-3.05455e-06
-3.1201e-06
-3.18714e-06
-3.25553e-06
-3.3252e-06
-3.39603e-06
-3.4678e-06
-3.54164e-06
-3.84347e-06
-3.92342e-06
-4.00305e-06
-4.08431e-06
-4.16721e-06
-4.25179e-06
-4.3381e-06
-4.42615e-06
-4.51599e-06
-4.60765e-06
-4.70117e-06
-4.7966e-06
-4.89395e-06
-4.99329e-06
-5.09464e-06
-5.19805e-06
-5.30355e-06
-5.4112e-06
-5.52104e-06
-5.6331e-06
-5.74743e-06
-5.86409e-06
-5.98312e-06
-6.10456e-06
-6.22847e-06
-6.35489e-06
-6.48387e-06
-6.61548e-06
-6.74976e-06
-6.88676e-06
-7.02654e-06
-7.16916e-06
-7.31468e-06
-7.46314e-06
-7.61463e-06
-7.76918e-06
-7.92688e-06
-8.08777e-06
-8.25193e-06
-8.41942e-06
-8.59032e-06
-8.76468e-06
-8.94258e-06
-9.12409e-06
-9.30928e-06
-9.49823e-06
-9.69102e-06
-9.88773e-06
-1.00884e-05
-1.02932e-05
-1.05021e-05
-1.07153e-05
-1.09328e-05
-1.11547e-05
-1.13811e-05
-1.16121e-05
-1.18478e-05
-1.20883e-05
-1.23336e-05
-1.2584e-05
-1.28394e-05
-1.31e-05
)
;
    }
    inandouthalf32
    {
        type            cyclic;
        value           nonuniform List<scalar> 
110
(
1.32365e-06
1.35143e-06
1.37978e-06
1.40874e-06
1.43831e-06
1.4685e-06
1.4993e-06
1.53073e-06
1.56286e-06
1.59568e-06
1.62916e-06
1.66334e-06
1.69827e-06
1.73395e-06
1.77036e-06
1.80755e-06
1.84556e-06
1.88439e-06
1.92399e-06
1.96447e-06
2.00586e-06
2.04813e-06
2.0913e-06
2.13543e-06
2.18049e-06
2.22653e-06
2.27363e-06
2.32174e-06
2.37091e-06
2.42116e-06
2.47254e-06
2.52509e-06
2.57881e-06
2.63372e-06
2.68987e-06
2.74734e-06
2.80609e-06
2.86611e-06
2.92749e-06
2.99036e-06
3.05455e-06
3.1201e-06
3.18714e-06
3.25553e-06
3.3252e-06
3.39603e-06
3.4678e-06
3.54164e-06
3.84347e-06
3.92342e-06
4.00305e-06
4.08431e-06
4.16721e-06
4.25179e-06
4.3381e-06
4.42615e-06
4.51599e-06
4.60765e-06
4.70117e-06
4.7966e-06
4.89395e-06
4.99329e-06
5.09464e-06
5.19805e-06
5.30355e-06
5.4112e-06
5.52104e-06
5.6331e-06
5.74743e-06
5.86409e-06
5.98312e-06
6.10456e-06
6.22847e-06
6.35489e-06
6.48387e-06
6.61548e-06
6.74976e-06
6.88676e-06
7.02654e-06
7.16916e-06
7.31468e-06
7.46314e-06
7.61463e-06
7.76918e-06
7.92688e-06
8.08777e-06
8.25193e-06
8.41942e-06
8.59032e-06
8.76468e-06
8.94258e-06
9.12409e-06
9.30928e-06
9.49823e-06
9.69102e-06
9.88773e-06
1.00884e-05
1.02932e-05
1.05021e-05
1.07153e-05
1.09328e-05
1.11547e-05
1.13811e-05
1.16121e-05
1.18478e-05
1.20883e-05
1.23336e-05
1.2584e-05
1.28394e-05
1.31e-05
)
;
    }
    inandouthalf41
    {
        type            cyclic;
        value           nonuniform List<scalar> 
50
(
-1.17258e-05
-1.17258e-05
-1.17258e-05
-1.17258e-05
-1.17258e-05
-1.17258e-05
-1.17258e-05
-1.17258e-05
-1.17258e-05
-1.17258e-05
-1.17258e-05
-1.17258e-05
-1.17258e-05
-1.17258e-05
-1.17258e-05
-1.17258e-05
-1.17258e-05
-1.17258e-05
-1.17258e-05
-1.17258e-05
-1.17258e-05
-1.17258e-05
-1.17258e-05
-1.17258e-05
-1.17258e-05
-1.17258e-05
-1.17258e-05
-1.17258e-05
-1.17258e-05
-1.17258e-05
-1.17258e-05
-1.17258e-05
-1.17258e-05
-1.17258e-05
-1.17258e-05
-1.17258e-05
-1.17258e-05
-1.17258e-05
-1.17258e-05
-1.17258e-05
-1.17258e-05
-1.17258e-05
-1.17258e-05
-1.17258e-05
-1.17258e-05
-1.17258e-05
-1.17258e-05
-1.17258e-05
-1.17257e-05
-1.17239e-05
)
;
    }
    inandouthalf42
    {
        type            cyclic;
        value           nonuniform List<scalar> 
50
(
1.17258e-05
1.17258e-05
1.17258e-05
1.17258e-05
1.17258e-05
1.17258e-05
1.17258e-05
1.17258e-05
1.17258e-05
1.17258e-05
1.17258e-05
1.17258e-05
1.17258e-05
1.17258e-05
1.17258e-05
1.17258e-05
1.17258e-05
1.17258e-05
1.17258e-05
1.17258e-05
1.17258e-05
1.17258e-05
1.17258e-05
1.17258e-05
1.17258e-05
1.17258e-05
1.17258e-05
1.17258e-05
1.17258e-05
1.17258e-05
1.17258e-05
1.17258e-05
1.17258e-05
1.17258e-05
1.17258e-05
1.17258e-05
1.17258e-05
1.17258e-05
1.17258e-05
1.17258e-05
1.17258e-05
1.17258e-05
1.17258e-05
1.17258e-05
1.17258e-05
1.17258e-05
1.17258e-05
1.17258e-05
1.17257e-05
1.17239e-05
)
;
    }
    top
    {
        type            symmetryPlane;
        value           uniform 0;
    }
    walls
    {
        type            fixedValue;
        value           uniform 0;
    }
    frontAndBackPlanes
    {
        type            empty;
        value           nonuniform 0();
    }
}


// ************************************************************************* //
