/*--------------------------------*- C++ -*----------------------------------*\
| =========                 |                                                 |
| \\      /  F ield         | OpenFOAM: The Open Source CFD Toolbox           |
|  \\    /   O peration     | Version:  2.4.x                                 |
|   \\  /    A nd           | Web:      www.OpenFOAM.org                      |
|    \\/     M anipulation  |                                                 |
\*---------------------------------------------------------------------------*/
FoamFile
{
    version     2.0;
    format      ascii;
    class       surfaceScalarField;
    location    "1.4";
    object      phib_0;
}
// * * * * * * * * * * * * * * * * * * * * * * * * * * * * * * * * * * * * * //

dimensions      [0 3 -1 0 0 0 0];

internalField   nonuniform List<scalar> 
359
(
5.12534e-19
1.02771e-18
1.54315e-18
2.06274e-18
2.57975e-18
3.09741e-18
3.61351e-18
4.13297e-18
4.64876e-18
5.16646e-18
5.6796e-18
6.19863e-18
6.71212e-18
7.22635e-18
7.73478e-18
8.24655e-18
8.75207e-18
9.26106e-18
9.76429e-18
1.0269e-17
1.07673e-17
1.12676e-17
1.17632e-17
1.22624e-17
1.2751e-17
1.32462e-17
1.37323e-17
1.42222e-17
1.47022e-17
1.51864e-17
1.56611e-17
1.6142e-17
1.66119e-17
1.70869e-17
1.75516e-17
1.8023e-17
1.84804e-17
1.89444e-17
1.93961e-17
1.98538e-17
2.02984e-17
2.07506e-17
2.1188e-17
2.16325e-17
2.2064e-17
2.25005e-17
2.29228e-17
2.33543e-17
2.37688e-17
2.41943e-17
2.45997e-17
2.50171e-17
2.54142e-17
2.58267e-17
2.6218e-17
2.66187e-17
2.7001e-17
2.73943e-17
2.77659e-17
2.81497e-17
2.85138e-17
2.88902e-17
2.92471e-17
2.96158e-17
2.99603e-17
3.03183e-17
3.06526e-17
3.10021e-17
3.13277e-17
3.16662e-17
3.198e-17
3.23097e-17
3.26147e-17
3.29317e-17
3.32241e-17
3.35294e-17
3.03892e-13
2.67463e-12
9.34228e-12
1.87528e-11
2.71763e-11
3.33905e-11
3.81016e-11
4.21915e-11
4.62633e-11
5.06764e-11
5.55835e-11
6.09429e-11
6.65847e-11
7.23213e-11
7.80338e-11
8.36937e-11
8.9337e-11
9.50246e-11
1.00813e-10
1.06743e-10
1.12837e-10
1.19105e-10
1.25554e-10
1.32189e-10
1.39017e-10
1.46042e-10
1.53267e-10
1.60694e-10
1.68324e-10
1.7616e-10
1.84206e-10
1.92469e-10
2.00957e-10
2.09682e-10
2.18656e-10
2.27895e-10
2.37414e-10
2.47231e-10
2.57366e-10
2.6784e-10
2.78674e-10
2.89891e-10
3.01509e-10
3.1354e-10
3.25991e-10
3.38867e-10
3.52188e-10
3.66012e-10
3.80461e-10
3.95724e-10
4.11996e-10
4.29322e-10
4.47343e-10
4.65135e-10
4.81465e-10
4.95543e-10
5.07609e-10
5.18942e-10
5.31976e-10
5.51383e-10
5.8342e-10
6.27843e-10
6.82217e-10
7.73392e-10
9.3086e-10
1.10439e-09
1.30227e-09
1.62931e-09
2.59215e-09
3.89816e-09
4.34002e-09
4.8059e-09
5.57974e-09
7.18413e-09
5.76923e-09
5.01487e-10
3.54753e-11
1.68463e-11
1.44542e-11
1.33212e-11
1.20684e-11
1.09849e-11
9.96185e-12
9.10946e-12
8.28101e-12
7.43509e-12
6.88957e-12
6.23965e-12
5.7011e-12
5.21285e-12
4.76217e-12
4.37342e-12
3.9911e-12
3.6504e-12
3.34361e-12
3.09264e-12
2.80201e-12
2.58972e-12
2.37297e-12
2.18376e-12
2.00693e-12
1.83394e-12
1.68926e-12
1.55943e-12
1.43817e-12
1.30612e-12
1.21286e-12
1.1123e-12
1.02703e-12
9.45571e-13
8.66419e-13
7.98247e-13
7.35967e-13
6.80011e-13
6.24161e-13
5.7448e-13
5.30031e-13
4.89336e-13
4.46424e-13
4.17558e-13
3.83173e-13
3.50683e-13
3.22593e-13
2.98138e-13
2.78025e-13
2.57306e-13
2.3348e-13
2.08901e-13
1.93844e-13
1.82381e-13
1.67316e-13
1.46925e-13
1.31929e-13
1.23243e-13
1.12931e-13
9.98641e-14
8.93432e-14
8.20261e-14
7.39544e-14
6.45146e-14
5.80486e-14
5.37831e-14
4.73413e-14
4.06253e-14
3.65661e-14
3.28442e-14
2.8475e-14
2.54393e-14
2.25163e-14
1.91265e-14
1.68744e-14
1.48121e-14
1.28793e-14
1.11125e-14
9.45984e-15
8.19748e-15
7.08406e-15
6.06414e-15
5.0647e-15
4.35028e-15
3.76232e-15
3.16404e-15
2.54084e-15
2.2002e-15
1.8639e-15
1.49001e-15
1.25329e-15
1.07247e-15
9.35301e-16
8.91389e-16
8.88666e-16
9.97555e-16
6.27259e-16
2.75049e-16
2.215e-16
1.78025e-16
1.34403e-16
1.11664e-16
9.36183e-17
7.14708e-17
5.51358e-17
4.62895e-17
3.66213e-17
2.83482e-17
2.34834e-17
1.87682e-17
1.50078e-17
1.23651e-17
1.01885e-17
8.55561e-18
7.15201e-18
6.24016e-18
5.5288e-18
4.95935e-18
4.43838e-18
4.10809e-18
3.85126e-18
3.63441e-18
3.45138e-18
3.2631e-18
3.11394e-18
2.94977e-18
2.7923e-18
2.62281e-18
2.51774e-18
2.40246e-18
2.29196e-18
2.15625e-18
2.04036e-18
1.9007e-18
1.79521e-18
1.63266e-18
1.49757e-18
1.3488e-18
1.19903e-18
1.03543e-18
8.87383e-19
7.29624e-19
5.8008e-19
4.194e-19
4.26564e-19
4.15618e-19
4.18934e-19
4.248e-19
4.39769e-19
4.47438e-19
4.57307e-19
4.60855e-19
4.84825e-19
5.00651e-19
5.16433e-19
5.21473e-19
5.36766e-19
5.394e-19
5.42973e-19
5.38173e-19
5.5941e-19
5.73039e-19
5.87377e-19
5.91844e-19
6.04021e-19
6.0754e-19
6.11865e-19
6.04363e-19
6.27661e-19
6.4465e-19
6.63634e-19
6.74682e-19
7.31046e-19
7.72494e-19
8.52622e-19
8.11642e-19
1.65143e-18
2.37121e-18
3.12828e-18
3.87612e-18
4.66497e-18
5.45325e-18
6.24546e-18
7.03675e-18
7.86353e-18
8.69407e-18
9.5291e-18
1.03644e-17
1.12644e-17
1.21251e-17
1.30454e-17
1.38575e-17
1.56556e-17
1.72234e-17
1.88489e-17
2.00647e-17
2.18636e-17
2.28653e-17
2.40173e-17
2.4205e-17
2.74565e-17
2.86993e-17
3.00406e-17
2.85695e-17
2.95673e-17
2.74348e-17
2.66331e-17
)
;

boundaryField
{
    inandouthalf11
    {
        type            cyclic;
        value           nonuniform List<scalar> 
100
(
-7.02537e-11
-7.03737e-11
-7.03744e-11
-7.03744e-11
-7.03744e-11
-7.03749e-11
-7.03749e-11
-7.03755e-11
-7.03755e-11
-7.03761e-11
-7.03767e-11
-7.03767e-11
-7.03773e-11
-7.03779e-11
-7.03785e-11
-7.03791e-11
-7.03797e-11
-7.03803e-11
-7.03809e-11
-7.03821e-11
-7.03826e-11
-7.03838e-11
-7.0385e-11
-7.03862e-11
-7.03874e-11
-7.03886e-11
-7.03898e-11
-7.03915e-11
-7.03933e-11
-7.03951e-11
-7.03969e-11
-7.03992e-11
-7.0401e-11
-7.0404e-11
-7.04063e-11
-7.04093e-11
-7.04123e-11
-7.04158e-11
-7.042e-11
-7.04235e-11
-7.04283e-11
-7.0433e-11
-7.04377e-11
-7.04437e-11
-7.04496e-11
-7.04561e-11
-7.04632e-11
-7.04703e-11
-7.04786e-11
-7.04881e-11
-7.04976e-11
-7.05083e-11
-7.05196e-11
-7.0532e-11
-7.05451e-11
-7.05599e-11
-7.05753e-11
-7.05926e-11
-7.0611e-11
-7.06306e-11
-7.06526e-11
-7.06757e-11
-7.07013e-11
-7.07286e-11
-7.07584e-11
-7.07905e-11
-7.08257e-11
-7.08638e-11
-7.09049e-11
-7.0949e-11
-7.09974e-11
-7.10499e-11
-7.1106e-11
-7.11676e-11
-7.1234e-11
-7.13065e-11
-7.13842e-11
-7.14937e-11
-7.17659e-11
-7.22731e-11
-7.28362e-11
-7.33054e-11
-7.36839e-11
-7.40178e-11
-7.43443e-11
-7.46878e-11
-7.50628e-11
-7.54722e-11
-7.59095e-11
-7.63637e-11
-7.68253e-11
-7.72905e-11
-7.77603e-11
-7.82384e-11
-7.87291e-11
-7.92365e-11
-7.97634e-11
-8.03119e-11
-8.08834e-11
-8.14794e-11
)
;
    }
    inandouthalf12
    {
        type            cyclic;
        value           nonuniform List<scalar> 
100
(
7.02537e-11
7.03737e-11
7.03744e-11
7.03744e-11
7.03744e-11
7.03749e-11
7.03749e-11
7.03755e-11
7.03755e-11
7.03761e-11
7.03767e-11
7.03767e-11
7.03773e-11
7.03779e-11
7.03785e-11
7.03791e-11
7.03797e-11
7.03803e-11
7.03809e-11
7.03821e-11
7.03826e-11
7.03838e-11
7.0385e-11
7.03862e-11
7.03874e-11
7.03886e-11
7.03898e-11
7.03915e-11
7.03933e-11
7.03951e-11
7.03969e-11
7.03992e-11
7.0401e-11
7.0404e-11
7.04063e-11
7.04093e-11
7.04123e-11
7.04158e-11
7.042e-11
7.04235e-11
7.04283e-11
7.0433e-11
7.04377e-11
7.04437e-11
7.04496e-11
7.04561e-11
7.04632e-11
7.04703e-11
7.04786e-11
7.04881e-11
7.04976e-11
7.05083e-11
7.05196e-11
7.0532e-11
7.05451e-11
7.05599e-11
7.05753e-11
7.05926e-11
7.0611e-11
7.06306e-11
7.06526e-11
7.06757e-11
7.07013e-11
7.07286e-11
7.07584e-11
7.07905e-11
7.08257e-11
7.08638e-11
7.09049e-11
7.0949e-11
7.09974e-11
7.10499e-11
7.1106e-11
7.11676e-11
7.1234e-11
7.13065e-11
7.13842e-11
7.14937e-11
7.17659e-11
7.22731e-11
7.28362e-11
7.33054e-11
7.36839e-11
7.40178e-11
7.43443e-11
7.46878e-11
7.50628e-11
7.54722e-11
7.59095e-11
7.63637e-11
7.68253e-11
7.72905e-11
7.77603e-11
7.82384e-11
7.87291e-11
7.92365e-11
7.97634e-11
8.03119e-11
8.08834e-11
8.14794e-11
)
;
    }
    inandouthalf21
    {
        type            cyclic;
        value           nonuniform List<scalar> 
100
(
-8.21012e-11
-8.27501e-11
-8.34274e-11
-8.41344e-11
-8.48725e-11
-8.56432e-11
-8.64482e-11
-8.72898e-11
-8.81704e-11
-8.90931e-11
-9.00614e-11
-9.10792e-11
-9.2151e-11
-9.32822e-11
-9.44784e-11
-9.57465e-11
-9.7094e-11
-9.85296e-11
-1.00063e-10
-1.01703e-10
-1.03463e-10
-1.05352e-10
-1.07386e-10
-1.09587e-10
-1.1199e-10
-1.14648e-10
-1.1763e-10
-1.21011e-10
-1.24821e-10
-1.28992e-10
-1.33335e-10
-1.37657e-10
-1.4199e-10
-1.46843e-10
-1.53753e-10
-1.68035e-10
-2.1686e-10
-5.31868e-10
-3.87839e-09
-2.6982e-08
-8.85251e-08
-1.73234e-07
-2.64512e-07
-3.57633e-07
-4.5197e-07
-5.48104e-07
-6.42148e-07
-7.28236e-07
-8.07318e-07
-8.8087e-07
-9.36327e-07
-9.95864e-07
-1.04851e-06
-1.09675e-06
-1.14306e-06
-1.18613e-06
-1.22513e-06
-1.25977e-06
-1.28988e-06
-1.31572e-06
-1.33735e-06
-1.35525e-06
-1.36983e-06
-1.38159e-06
-1.39119e-06
-1.39903e-06
-1.40564e-06
-1.41126e-06
-1.41618e-06
-1.42051e-06
-1.42441e-06
-1.4279e-06
-1.43107e-06
-1.43396e-06
-1.43658e-06
-1.43899e-06
-1.44119e-06
-1.44322e-06
-1.44507e-06
-1.44679e-06
-1.44836e-06
-1.4498e-06
-1.45114e-06
-1.45236e-06
-1.4535e-06
-1.45454e-06
-1.45551e-06
-1.4564e-06
-1.45722e-06
-1.45798e-06
-1.45868e-06
-1.45932e-06
-1.45992e-06
-1.46047e-06
-1.46098e-06
-1.46145e-06
-1.46188e-06
-1.46229e-06
-1.46265e-06
-1.463e-06
)
;
    }
    inandouthalf22
    {
        type            cyclic;
        value           nonuniform List<scalar> 
100
(
8.21012e-11
8.27501e-11
8.34274e-11
8.41344e-11
8.48725e-11
8.56432e-11
8.64482e-11
8.72898e-11
8.81704e-11
8.90931e-11
9.00614e-11
9.10792e-11
9.2151e-11
9.32822e-11
9.44784e-11
9.57465e-11
9.7094e-11
9.85296e-11
1.00063e-10
1.01703e-10
1.03463e-10
1.05352e-10
1.07386e-10
1.09587e-10
1.1199e-10
1.14648e-10
1.1763e-10
1.21011e-10
1.24821e-10
1.28992e-10
1.33335e-10
1.37657e-10
1.4199e-10
1.46843e-10
1.53753e-10
1.68035e-10
2.1686e-10
5.31868e-10
3.87839e-09
2.6982e-08
8.85251e-08
1.73234e-07
2.64512e-07
3.57633e-07
4.5197e-07
5.48104e-07
6.42148e-07
7.28236e-07
8.07318e-07
8.8087e-07
9.36327e-07
9.95864e-07
1.04851e-06
1.09675e-06
1.14306e-06
1.18613e-06
1.22513e-06
1.25977e-06
1.28988e-06
1.31572e-06
1.33735e-06
1.35525e-06
1.36983e-06
1.38159e-06
1.39119e-06
1.39903e-06
1.40564e-06
1.41126e-06
1.41618e-06
1.42051e-06
1.42441e-06
1.4279e-06
1.43107e-06
1.43396e-06
1.43658e-06
1.43899e-06
1.44119e-06
1.44322e-06
1.44507e-06
1.44679e-06
1.44836e-06
1.4498e-06
1.45114e-06
1.45236e-06
1.4535e-06
1.45454e-06
1.45551e-06
1.4564e-06
1.45722e-06
1.45798e-06
1.45868e-06
1.45932e-06
1.45992e-06
1.46047e-06
1.46098e-06
1.46145e-06
1.46188e-06
1.46229e-06
1.46265e-06
1.463e-06
)
;
    }
    inandouthalf31
    {
        type            cyclic;
        value           nonuniform List<scalar> 
110
(
-1.46332e-06
-1.49332e-06
-1.52392e-06
-1.55512e-06
-1.58695e-06
-1.61941e-06
-1.65252e-06
-1.68629e-06
-1.72074e-06
-1.75587e-06
-1.7917e-06
-1.82825e-06
-1.86554e-06
-1.90356e-06
-1.94235e-06
-1.98192e-06
-2.02228e-06
-2.06345e-06
-2.10545e-06
-2.14829e-06
-2.192e-06
-2.23658e-06
-2.28206e-06
-2.32846e-06
-2.37579e-06
-2.42408e-06
-2.47334e-06
-2.52359e-06
-2.57487e-06
-2.62717e-06
-2.68054e-06
-2.73498e-06
-2.79053e-06
-2.84719e-06
-2.90501e-06
-2.964e-06
-3.02418e-06
-3.08558e-06
-3.14822e-06
-3.21214e-06
-3.27735e-06
-3.34388e-06
-3.41176e-06
-3.48102e-06
-3.55168e-06
-3.62377e-06
-3.69733e-06
-3.77238e-06
-3.84896e-06
-3.92708e-06
-4.00679e-06
-4.08812e-06
-4.1711e-06
-4.25577e-06
-4.34215e-06
-4.43028e-06
-4.52021e-06
-4.61196e-06
-4.70557e-06
-4.80108e-06
-4.89853e-06
-4.99795e-06
-5.0994e-06
-5.2029e-06
-5.30851e-06
-5.41626e-06
-5.52619e-06
-5.63836e-06
-5.7528e-06
-5.86957e-06
-5.98871e-06
-6.11026e-06
-6.23428e-06
-6.36082e-06
-6.48993e-06
-6.62166e-06
-6.75606e-06
-6.89319e-06
-7.03311e-06
-7.17586e-06
-7.32151e-06
-7.47012e-06
-7.62174e-06
-7.77644e-06
-7.93428e-06
-8.09533e-06
-8.25964e-06
-8.42729e-06
-8.59834e-06
-8.77286e-06
-8.95093e-06
-9.13261e-06
-9.31798e-06
-9.50711e-06
-9.70008e-06
-9.89696e-06
-1.00978e-05
-1.03028e-05
-1.05119e-05
-1.07253e-05
-1.0943e-05
-1.11651e-05
-1.13917e-05
-1.16229e-05
-1.18589e-05
-1.20996e-05
-1.23451e-05
-1.25957e-05
-1.28514e-05
-1.31122e-05
)
;
    }
    inandouthalf32
    {
        type            cyclic;
        value           nonuniform List<scalar> 
110
(
1.46332e-06
1.49332e-06
1.52392e-06
1.55512e-06
1.58695e-06
1.61941e-06
1.65252e-06
1.68629e-06
1.72074e-06
1.75587e-06
1.7917e-06
1.82825e-06
1.86554e-06
1.90356e-06
1.94235e-06
1.98192e-06
2.02228e-06
2.06345e-06
2.10545e-06
2.14829e-06
2.192e-06
2.23658e-06
2.28206e-06
2.32846e-06
2.37579e-06
2.42408e-06
2.47334e-06
2.52359e-06
2.57487e-06
2.62717e-06
2.68054e-06
2.73498e-06
2.79053e-06
2.84719e-06
2.90501e-06
2.964e-06
3.02418e-06
3.08558e-06
3.14822e-06
3.21214e-06
3.27735e-06
3.34388e-06
3.41176e-06
3.48102e-06
3.55168e-06
3.62377e-06
3.69733e-06
3.77238e-06
3.84896e-06
3.92708e-06
4.00679e-06
4.08812e-06
4.1711e-06
4.25577e-06
4.34215e-06
4.43028e-06
4.52021e-06
4.61196e-06
4.70557e-06
4.80108e-06
4.89853e-06
4.99795e-06
5.0994e-06
5.2029e-06
5.30851e-06
5.41626e-06
5.52619e-06
5.63836e-06
5.7528e-06
5.86957e-06
5.98871e-06
6.11026e-06
6.23428e-06
6.36082e-06
6.48993e-06
6.62166e-06
6.75606e-06
6.89319e-06
7.03311e-06
7.17586e-06
7.32151e-06
7.47012e-06
7.62174e-06
7.77644e-06
7.93428e-06
8.09533e-06
8.25964e-06
8.42729e-06
8.59834e-06
8.77286e-06
8.95093e-06
9.13261e-06
9.31798e-06
9.50711e-06
9.70008e-06
9.89696e-06
1.00978e-05
1.03028e-05
1.05119e-05
1.07253e-05
1.0943e-05
1.11651e-05
1.13917e-05
1.16229e-05
1.18589e-05
1.20996e-05
1.23451e-05
1.25957e-05
1.28514e-05
1.31122e-05
)
;
    }
    inandouthalf41
    {
        type            cyclic;
        value           nonuniform List<scalar> 
50
(
-1.17368e-05
-1.17368e-05
-1.17368e-05
-1.17368e-05
-1.17368e-05
-1.17368e-05
-1.17368e-05
-1.17368e-05
-1.17368e-05
-1.17368e-05
-1.17368e-05
-1.17368e-05
-1.17368e-05
-1.17368e-05
-1.17368e-05
-1.17368e-05
-1.17368e-05
-1.17368e-05
-1.17368e-05
-1.17368e-05
-1.17368e-05
-1.17368e-05
-1.17368e-05
-1.17368e-05
-1.17368e-05
-1.17368e-05
-1.17368e-05
-1.17368e-05
-1.17368e-05
-1.17368e-05
-1.17368e-05
-1.17368e-05
-1.17368e-05
-1.17368e-05
-1.17368e-05
-1.17368e-05
-1.17368e-05
-1.17368e-05
-1.17368e-05
-1.17368e-05
-1.17368e-05
-1.17368e-05
-1.17368e-05
-1.17368e-05
-1.17368e-05
-1.17368e-05
-1.17368e-05
-1.17368e-05
-1.17368e-05
-1.17368e-05
)
;
    }
    inandouthalf42
    {
        type            cyclic;
        value           nonuniform List<scalar> 
50
(
1.17368e-05
1.17368e-05
1.17368e-05
1.17368e-05
1.17368e-05
1.17368e-05
1.17368e-05
1.17368e-05
1.17368e-05
1.17368e-05
1.17368e-05
1.17368e-05
1.17368e-05
1.17368e-05
1.17368e-05
1.17368e-05
1.17368e-05
1.17368e-05
1.17368e-05
1.17368e-05
1.17368e-05
1.17368e-05
1.17368e-05
1.17368e-05
1.17368e-05
1.17368e-05
1.17368e-05
1.17368e-05
1.17368e-05
1.17368e-05
1.17368e-05
1.17368e-05
1.17368e-05
1.17368e-05
1.17368e-05
1.17368e-05
1.17368e-05
1.17368e-05
1.17368e-05
1.17368e-05
1.17368e-05
1.17368e-05
1.17368e-05
1.17368e-05
1.17368e-05
1.17368e-05
1.17368e-05
1.17368e-05
1.17368e-05
1.17368e-05
)
;
    }
    top
    {
        type            symmetryPlane;
        value           uniform 0;
    }
    walls
    {
        type            fixedValue;
        value           uniform 0;
    }
    frontAndBackPlanes
    {
        type            empty;
        value           nonuniform 0();
    }
}


// ************************************************************************* //
