/*--------------------------------*- C++ -*----------------------------------*\
| =========                 |                                                 |
| \\      /  F ield         | OpenFOAM: The Open Source CFD Toolbox           |
|  \\    /   O peration     | Version:  2.4.x                                 |
|   \\  /    A nd           | Web:      www.OpenFOAM.org                      |
|    \\/     M anipulation  |                                                 |
\*---------------------------------------------------------------------------*/
FoamFile
{
    version     2.0;
    format      ascii;
    class       volTensorField;
    location    "1.4";
    object      Tauf;
}
// * * * * * * * * * * * * * * * * * * * * * * * * * * * * * * * * * * * * * //

dimensions      [0 2 -2 0 0 0 0];

internalField   nonuniform List<tensor> 
360
(
(0 1.40487e-07 0 1.40487e-07 5.04453e-16 0 0 0 0)
(0 1.20541e-10 0 1.20541e-10 5.06016e-16 0 0 0 0)
(0 6.93447e-13 0 6.93447e-13 5.0803e-16 0 0 0 0)
(0 1.0967e-15 0 1.0967e-15 5.08437e-16 0 0 0 0)
(-1.29247e-23 5.91037e-13 0 5.91037e-13 5.08801e-16 0 0 0 0)
(-2.58494e-23 5.91541e-13 0 5.91541e-13 5.09914e-16 0 0 0 0)
(-1.29247e-23 5.91546e-13 0 5.91546e-13 5.10302e-16 0 0 0 0)
(0 5.91546e-13 0 5.91546e-13 5.10154e-16 0 0 0 0)
(-1.29247e-23 5.92054e-13 0 5.92054e-13 5.09822e-16 0 0 0 0)
(0 1.1821e-12 0 1.1821e-12 5.08593e-16 0 0 0 0)
(-1.29247e-23 5.92059e-13 0 5.92059e-13 5.0693e-16 0 0 0 0)
(0 5.92064e-13 0 5.92064e-13 5.06194e-16 0 0 0 0)
(-2.58494e-23 1.18262e-12 0 1.18262e-12 5.05624e-16 0 0 0 0)
(0 1.18313e-12 0 1.18313e-12 5.04079e-16 0 0 0 0)
(0 1.18314e-12 0 1.18314e-12 5.02718e-16 0 0 0 0)
(0 1.18315e-12 0 1.18315e-12 5.01997e-16 0 0 0 0)
(0 1.18316e-12 0 1.18316e-12 5.00291e-16 0 0 0 0)
(-1.29247e-23 1.18367e-12 0 1.18367e-12 4.9845e-16 0 0 0 0)
(0 1.77427e-12 0 1.77427e-12 4.97451e-16 0 0 0 0)
(0 1.77478e-12 0 1.77478e-12 4.95665e-16 0 0 0 0)
(0 1.77531e-12 0 1.77531e-12 4.94084e-16 0 0 0 0)
(-1.29247e-23 2.36593e-12 0 2.36593e-12 4.92757e-16 0 0 0 0)
(0 2.36647e-12 0 2.36647e-12 4.8997e-16 0 0 0 0)
(0 2.36651e-12 0 2.36651e-12 4.87021e-16 0 0 0 0)
(0 2.36655e-12 0 2.36655e-12 4.84477e-16 0 0 0 0)
(-2.58494e-23 2.36709e-12 0 2.36709e-12 4.82219e-16 0 0 0 0)
(0 2.95828e-12 0 2.95828e-12 4.80271e-16 0 0 0 0)
(0 3.5495e-12 0 3.5495e-12 4.78154e-16 0 0 0 0)
(0 3.55009e-12 0 3.55009e-12 4.75865e-16 0 0 0 0)
(0 3.55067e-12 0 3.55067e-12 4.73465e-16 0 0 0 0)
(0 4.14146e-12 0 4.14146e-12 4.70906e-16 0 0 0 0)
(0 4.14257e-12 0 4.14257e-12 4.68209e-16 0 0 0 0)
(0 4.73394e-12 0 4.73394e-12 4.6573e-16 0 0 0 0)
(0 5.32532e-12 0 5.32532e-12 4.62746e-16 0 0 0 0)
(0 5.32653e-12 0 5.32653e-12 4.59741e-16 0 0 0 0)
(1.29247e-23 5.91801e-12 0 5.91801e-12 4.56923e-16 0 0 0 0)
(0 6.51058e-12 0 6.51058e-12 4.54193e-16 0 0 0 0)
(0 7.69306e-12 0 7.69306e-12 4.51756e-16 0 0 0 0)
(0 7.69492e-12 0 7.69492e-12 4.48396e-16 0 0 0 0)
(0 8.28727e-12 0 8.28727e-12 4.45311e-16 0 0 0 0)
(0 9.47007e-12 0 9.47007e-12 4.42422e-16 0 0 0 0)
(0 9.47266e-12 0 9.47266e-12 4.38454e-16 0 0 0 0)
(1.29247e-23 1.06563e-11 0 1.06563e-11 4.34691e-16 0 0 0 0)
(0 1.18407e-11 0 1.18407e-11 4.31339e-16 0 0 0 0)
(0 1.24347e-11 0 1.24347e-11 4.28296e-16 0 0 0 0)
(0 1.3619e-11 0 1.3619e-11 4.25673e-16 0 0 0 0)
(0 1.42134e-11 0 1.42134e-11 4.21579e-16 0 0 0 0)
(0 1.53998e-11 0 1.53998e-11 4.1709e-16 0 0 0 0)
(0 1.77687e-11 0 1.77687e-11 4.14315e-16 0 0 0 0)
(0 1.89565e-11 0 1.89565e-11 4.11046e-16 0 0 0 0)
(1.29247e-23 2.01444e-11 0 2.01444e-11 4.06873e-16 0 0 0 0)
(0 2.19241e-11 0 2.19241e-11 4.03131e-16 0 0 0 0)
(0 2.37052e-11 0 2.37052e-11 3.99725e-16 0 0 0 0)
(0 2.54875e-11 0 2.54875e-11 3.96087e-16 0 0 0 0)
(0 2.78627e-11 0 2.78627e-11 3.91802e-16 0 0 0 0)
(0 3.02395e-11 0 3.02395e-11 3.87343e-16 0 0 0 0)
(0 3.26183e-11 0 3.26183e-11 3.83219e-16 0 0 0 0)
(0 3.55901e-11 0 3.55901e-11 3.79284e-16 0 0 0 0)
(0 3.79732e-11 0 3.79732e-11 3.74865e-16 0 0 0 0)
(0 4.15427e-11 0 4.15427e-11 3.70089e-16 0 0 0 0)
(0 4.51156e-11 0 4.51156e-11 3.65716e-16 0 0 0 0)
(0 4.86925e-11 0 4.86925e-11 3.62435e-16 0 0 0 0)
(0 5.28655e-11 0 5.28655e-11 3.58368e-16 0 0 0 0)
(0 5.70438e-11 0 5.70438e-11 3.52513e-16 0 0 0 0)
(0 6.18206e-11 0 6.18206e-11 3.47494e-16 0 0 0 0)
(0 6.71979e-11 0 6.71979e-11 3.42961e-16 0 0 0 0)
(0 7.31764e-11 0 7.31764e-11 3.37871e-16 0 0 0 0)
(0 7.91636e-11 0 7.91636e-11 3.3398e-16 0 0 0 0)
(0 8.51609e-11 0 8.51609e-11 3.29764e-16 0 0 0 0)
(0 9.23591e-11 0 9.23591e-11 3.22956e-16 0 0 0 0)
(0 1.00761e-10 0 1.00761e-10 3.16367e-16 0 0 0 0)
(0 1.08584e-10 0 1.08584e-10 -1.14591e-15 0 0 0 0)
(0 1.17618e-10 0 1.17618e-10 6.03846e-14 0 0 0 0)
(0 1.27865e-10 0 1.27865e-10 -4.42103e-13 0 0 0 0)
(0 1.38736e-10 0 1.38736e-10 1.55966e-12 0 0 0 0)
(0 1.50002e-10 0 1.50002e-10 -6.56182e-12 0 0 0 0)
(0 1.87349e-10 0 1.87349e-10 5.67546e-10 0 0 0 0)
(0 3.83022e-10 0 3.83022e-10 2.91747e-09 0 0 0 0)
(0 7.81694e-10 0 7.81694e-10 6.46665e-09 0 0 0 0)
(0 1.0717e-09 0 1.0717e-09 8.60399e-09 0 0 0 0)
(0 1.03184e-09 0 1.03184e-09 8.13412e-09 0 0 0 0)
(0 8.46169e-10 0 8.46169e-10 6.3772e-09 0 0 0 0)
(0 7.10624e-10 0 7.10624e-10 4.91503e-09 0 0 0 0)
(0 6.58561e-10 0 6.58561e-10 4.22858e-09 0 0 0 0)
(0 6.68313e-10 0 6.68313e-10 4.15205e-09 0 0 0 0)
(0 7.1705e-10 0 7.1705e-10 4.44328e-09 0 0 0 0)
(0 7.83224e-10 0 7.83224e-10 4.89071e-09 0 0 0 0)
(0 8.45942e-10 0 8.45942e-10 5.31324e-09 0 0 0 0)
(0 8.91033e-10 0 8.91033e-10 5.5934e-09 0 0 0 0)
(0 9.15673e-10 0 9.15673e-10 5.70722e-09 0 0 0 0)
(0 9.26889e-10 0 9.26889e-10 5.70694e-09 0 0 0 0)
(0 9.35018e-10 0 9.35018e-10 5.67096e-09 0 0 0 0)
(0 9.4781e-10 0 9.4781e-10 5.66044e-09 0 0 0 0)
(0 9.68695e-10 0 9.68695e-10 5.70307e-09 0 0 0 0)
(0 9.97888e-10 0 9.97888e-10 5.7991e-09 0 0 0 0)
(0 1.03387e-09 0 1.03387e-09 5.93497e-09 0 0 0 0)
(0 1.07481e-09 0 1.07481e-09 6.09498e-09 0 0 0 0)
(0 1.11933e-09 0 1.11933e-09 6.2679e-09 0 0 0 0)
(0 1.16679e-09 0 1.16679e-09 6.44837e-09 0 0 0 0)
(0 1.21699e-09 0 1.21699e-09 6.63485e-09 0 0 0 0)
(0 1.26986e-09 0 1.26986e-09 6.82686e-09 0 0 0 0)
(0 1.32541e-09 0 1.32541e-09 7.02353e-09 0 0 0 0)
(0 1.38356e-09 0 1.38356e-09 7.22347e-09 0 0 0 0)
(0 1.44435e-09 0 1.44435e-09 7.42545e-09 0 0 0 0)
(0 1.50799e-09 0 1.50799e-09 7.62916e-09 0 0 0 0)
(0 1.57493e-09 0 1.57493e-09 7.83548e-09 0 0 0 0)
(0 1.64579e-09 0 1.64579e-09 8.04617e-09 0 0 0 0)
(0 1.72136e-09 0 1.72136e-09 8.26345e-09 0 0 0 0)
(0 1.80248e-09 0 1.80248e-09 8.48959e-09 0 0 0 0)
(0 1.89007e-09 0 1.89007e-09 8.72669e-09 0 0 0 0)
(0 1.98512e-09 0 1.98512e-09 8.97662e-09 0 0 0 0)
(0 2.08868e-09 0 2.08868e-09 9.2411e-09 0 0 0 0)
(0 2.20193e-09 0 2.20193e-09 9.52174e-09 0 0 0 0)
(0 2.32621e-09 0 2.32621e-09 9.82014e-09 0 0 0 0)
(0 2.46306e-09 0 2.46306e-09 1.01379e-08 0 0 0 0)
(0 2.61426e-09 0 2.61426e-09 1.04767e-08 0 0 0 0)
(0 2.78169e-09 0 2.78169e-09 1.08371e-08 0 0 0 0)
(0 2.96716e-09 0 2.96716e-09 1.12187e-08 0 0 0 0)
(0 3.1722e-09 0 3.1722e-09 1.16181e-08 0 0 0 0)
(0 3.39803e-09 0 3.39803e-09 1.20301e-08 0 0 0 0)
(0 3.64636e-09 0 3.64636e-09 1.24497e-08 0 0 0 0)
(0 3.9214e-09 0 3.9214e-09 1.28782e-08 0 0 0 0)
(0 4.23328e-09 0 4.23328e-09 1.33323e-08 0 0 0 0)
(0 4.60177e-09 0 4.60177e-09 1.38509e-08 0 0 0 0)
(0 5.05779e-09 0 5.05779e-09 1.44919e-08 0 0 0 0)
(0 5.6372e-09 0 5.6372e-09 1.53067e-08 0 0 0 0)
(0 6.35987e-09 0 6.35987e-09 1.62795e-08 0 0 0 0)
(0 7.18744e-09 0 7.18744e-09 1.72379e-08 0 0 0 0)
(0 7.97859e-09 0 7.97859e-09 1.78008e-08 0 0 0 0)
(0 8.5122e-09 0 8.5122e-09 1.75026e-08 0 0 0 0)
(0 8.66456e-09 0 8.66456e-09 1.61517e-08 0 0 0 0)
(0 8.65411e-09 0 8.65411e-09 1.41471e-08 0 0 0 0)
(0 9.1816e-09 0 9.1816e-09 1.23784e-08 0 0 0 0)
(0 1.17461e-08 0 1.17461e-08 1.19081e-08 0 0 0 0)
(0 2.11265e-08 0 2.11265e-08 1.41156e-08 0 0 0 0)
(0 6.27788e-08 0 6.27788e-08 2.08453e-08 0 0 0 0)
(0 3.61031e-07 0 3.61031e-07 3.19141e-08 0 0 0 0)
(0 3.63076e-06 0 3.63076e-06 4.36986e-08 0 0 0 0)
(0 2.63013e-05 0 2.63013e-05 6.02998e-08 0 0 0 0)
(0 8.44022e-05 0 8.44022e-05 9.7561e-08 0 0 0 0)
(0 0.000146089 0 0.000146089 1.44708e-07 0 0 0 0)
(0 0.000175944 0 0.000175944 1.74533e-07 0 0 0 0)
(0 0.000184399 0 0.000184399 2.13593e-07 0 0 0 0)
(0 0.000187462 0 0.000187462 4.07045e-07 0 0 0 0)
(0 0.000190478 0 0.000190478 9.04751e-07 0 0 0 0)
(0 0.000190215 0 0.000190215 1.06719e-06 0 0 0 0)
(0 0.000180206 0 0.000180206 6.05695e-07 0 0 0 0)
(0 0.00016526 0 0.00016526 5.03157e-07 0 0 0 0)
(0 0.000152727 0 0.000152727 1.2378e-06 0 0 0 0)
(0 0.000129101 0 0.000129101 -2.3423e-07 0 0 0 0)
(0 0.000115142 0 0.000115142 6.77889e-07 0 0 0 0)
(0 0.000112331 0 0.000112331 -5.57545e-06 0 0 0 0)
(0 0.000100938 0 0.000100938 -1.17488e-06 0 0 0 0)
(0 9.45528e-05 0 9.45528e-05 5.57126e-07 0 0 0 0)
(0 8.93756e-05 0 8.93756e-05 -5.46297e-07 0 0 0 0)
(0 8.20684e-05 0 8.20684e-05 5.10611e-07 0 0 0 0)
(0 7.36443e-05 0 7.36443e-05 -4.79982e-07 0 0 0 0)
(0 6.47541e-05 0 6.47541e-05 4.44359e-07 0 0 0 0)
(0 5.59464e-05 0 5.59464e-05 -4.13326e-07 0 0 0 0)
(0 4.74693e-05 0 4.74693e-05 3.78869e-07 0 0 0 0)
(0 3.95351e-05 0 3.95351e-05 -3.48835e-07 0 0 0 0)
(0 3.2481e-05 0 3.2481e-05 3.16593e-07 0 0 0 0)
(0 2.63408e-05 0 2.63408e-05 -2.88759e-07 0 0 0 0)
(0 2.13609e-05 0 2.13609e-05 2.59846e-07 0 0 0 0)
(0 1.74403e-05 0 1.74403e-05 -2.34925e-07 0 0 0 0)
(0 1.44552e-05 0 1.44552e-05 2.09471e-07 0 0 0 0)
(0 1.22309e-05 0 1.22309e-05 -1.87687e-07 0 0 0 0)
(0 1.05413e-05 0 1.05413e-05 1.65837e-07 0 0 0 0)
(0 9.25498e-06 0 9.25498e-06 -1.47278e-07 0 0 0 0)
(0 8.22292e-06 0 8.22292e-06 1.28864e-07 0 0 0 0)
(0 7.38804e-06 0 7.38804e-06 -1.13394e-07 0 0 0 0)
(0 6.66255e-06 0 6.66255e-06 9.82219e-08 0 0 0 0)
(0 6.05717e-06 0 6.05717e-06 -8.55677e-08 0 0 0 0)
(0 5.51366e-06 0 5.51366e-06 7.32032e-08 0 0 0 0)
(0 5.03676e-06 0 5.03676e-06 -6.30128e-08 0 0 0 0)
(0 4.61135e-06 0 4.61135e-06 5.31415e-08 0 0 0 0)
(0 4.22558e-06 0 4.22558e-06 -4.51045e-08 0 0 0 0)
(0 3.88147e-06 0 3.88147e-06 3.73285e-08 0 0 0 0)
(0 3.56559e-06 0 3.56559e-06 -3.11107e-08 0 0 0 0)
(0 3.28188e-06 0 3.28188e-06 2.51126e-08 0 0 0 0)
(0 3.01737e-06 0 3.01737e-06 -2.03737e-08 0 0 0 0)
(0 2.78306e-06 0 2.78306e-06 1.5792e-08 0 0 0 0)
(0 2.56236e-06 0 2.56236e-06 -1.22803e-08 0 0 0 0)
(0 2.36301e-06 0 2.36301e-06 8.87982e-09 0 0 0 0)
(0 2.17926e-06 0 2.17926e-06 -6.3357e-09 0 0 0 0)
(0 2.00973e-06 0 2.00973e-06 3.87538e-09 0 0 0 0)
(0 1.85493e-06 0 1.85493e-06 -2.26767e-09 0 0 0 0)
(0 1.71147e-06 0 1.71147e-06 3.32215e-10 0 0 0 0)
(0 1.58013e-06 0 1.58013e-06 1.01079e-09 0 0 0 0)
(0 1.45779e-06 0 1.45779e-06 -2.01821e-09 0 0 0 0)
(0 1.34623e-06 0 1.34623e-06 2.76053e-09 0 0 0 0)
(0 1.24253e-06 0 1.24253e-06 -3.52946e-09 0 0 0 0)
(0 1.14784e-06 0 1.14784e-06 3.93819e-09 0 0 0 0)
(0 1.05887e-06 0 1.05887e-06 -4.39016e-09 0 0 0 0)
(0 9.78717e-07 0 9.78717e-07 4.55839e-09 0 0 0 0)
(0 9.02921e-07 0 9.02921e-07 -4.78435e-09 0 0 0 0)
(0 8.33837e-07 0 8.33837e-07 4.79369e-09 0 0 0 0)
(0 7.70138e-07 0 7.70138e-07 -4.86536e-09 0 0 0 0)
(0 7.1114e-07 0 7.1114e-07 4.75433e-09 0 0 0 0)
(0 6.56836e-07 0 6.56836e-07 -4.71151e-09 0 0 0 0)
(0 6.06122e-07 0 6.06122e-07 4.53846e-09 0 0 0 0)
(0 5.5922e-07 0 5.5922e-07 -4.34222e-09 0 0 0 0)
(-4.06832e-19 5.15087e-07 0 5.15087e-07 4.06043e-09 0 0 0 0)
(0 4.74179e-07 0 4.74179e-07 -3.87109e-09 0 0 0 0)
(0 4.35123e-07 0 4.35123e-07 3.604e-09 0 0 0 0)
(1.91516e-19 3.98501e-07 0 3.98501e-07 -3.40473e-09 0 0 0 0)
(0 3.6412e-07 0 3.6412e-07 3.16519e-09 0 0 0 0)
(-3.67944e-19 3.32816e-07 0 3.32816e-07 -2.98879e-09 0 0 0 0)
(0 3.03535e-07 0 3.03535e-07 2.75972e-09 0 0 0 0)
(1.76725e-19 2.75835e-07 0 2.75835e-07 -2.59019e-09 0 0 0 0)
(0 2.50161e-07 0 2.50161e-07 2.39422e-09 0 0 0 0)
(0 2.2679e-07 0 2.2679e-07 -2.242e-09 0 0 0 0)
(0 2.05138e-07 0 2.05138e-07 2.06126e-09 0 0 0 0)
(3.26153e-19 1.84975e-07 0 1.84975e-07 -1.92203e-09 0 0 0 0)
(0 1.66445e-07 0 1.66445e-07 1.76589e-09 0 0 0 0)
(0 1.49631e-07 0 1.49631e-07 -1.64295e-09 0 0 0 0)
(0 1.3422e-07 0 1.3422e-07 1.50342e-09 0 0 0 0)
(0 1.19884e-07 0 1.19884e-07 -1.39107e-09 0 0 0 0)
(0 1.06937e-07 0 1.06937e-07 1.271e-09 0 0 0 0)
(-2.89108e-19 9.53235e-08 0 9.53235e-08 -1.17468e-09 0 0 0 0)
(0 8.4652e-08 0 8.4652e-08 1.06885e-09 0 0 0 0)
(-2.7772e-19 7.49231e-08 0 7.49231e-08 -9.81978e-10 0 0 0 0)
(0 6.62466e-08 0 6.62466e-08 8.90922e-10 0 0 0 0)
(-2.6678e-19 5.84241e-08 0 5.84241e-08 -8.15718e-10 0 0 0 0)
(0 5.13087e-08 0 5.13087e-08 7.37674e-10 0 0 0 0)
(0 4.50519e-08 0 4.50519e-08 -6.72489e-10 0 0 0 0)
(0 3.93959e-08 0 3.93959e-08 6.05079e-10 0 0 0 0)
(0 3.43449e-08 0 3.43449e-08 -5.48321e-10 0 0 0 0)
(2.41279e-19 2.98901e-08 0 2.98901e-08 4.91207e-10 0 0 0 0)
(2.36479e-19 2.59098e-08 0 2.59098e-08 -4.42693e-10 0 0 0 0)
(0 2.24259e-08 0 2.24259e-08 3.94178e-10 0 0 0 0)
(0 1.93232e-08 0 1.93232e-08 -3.52868e-10 0 0 0 0)
(0 1.66232e-08 0 1.66232e-08 3.12231e-10 0 0 0 0)
(0 1.42327e-08 0 1.42327e-08 -2.77261e-10 0 0 0 0)
(0 1.21707e-08 0 1.21707e-08 2.43242e-10 0 0 0 0)
(0 1.03578e-08 0 1.03578e-08 -2.14002e-10 0 0 0 0)
(0 8.79714e-09 0 8.79714e-09 1.8597e-10 0 0 0 0)
(0 7.43445e-09 0 7.43445e-09 -1.61668e-10 0 0 0 0)
(0 6.27597e-09 0 6.27597e-09 1.38574e-10 0 0 0 0)
(0 5.27254e-09 0 5.27254e-09 -1.18687e-10 0 0 0 0)
(0 4.41009e-09 0 4.41009e-09 1.00078e-10 0 0 0 0)
(0 3.68126e-09 0 3.68126e-09 -8.39719e-11 0 0 0 0)
(0 3.06045e-09 0 3.06045e-09 6.90267e-11 0 0 0 0)
(-1.78492e-19 2.53174e-09 0 2.53174e-09 -5.61317e-11 0 0 0 0)
(3.49882e-19 2.08729e-09 0 2.08729e-09 4.44057e-11 0 0 0 0)
(0 1.71402e-09 0 1.71402e-09 -3.4246e-11 0 0 0 0)
(0 1.39809e-09 0 1.39809e-09 2.52407e-11 0 0 0 0)
(-3.29414e-19 1.14282e-09 0 1.14282e-09 -1.73557e-11 0 0 0 0)
(0 9.38208e-10 0 9.38208e-10 1.04545e-11 0 0 0 0)
(0 7.64526e-10 0 7.64526e-10 -4.86976e-12 0 0 0 0)
(-3.10142e-19 6.13842e-10 0 6.13842e-10 -2.84719e-13 0 0 0 0)
(0 4.87383e-10 0 4.87383e-10 4.48217e-12 0 0 0 0)
(0 3.84996e-10 0 3.84996e-10 -8.04824e-12 0 0 0 0)
(0 3.04237e-10 0 3.04237e-10 1.09324e-11 0 0 0 0)
(0 2.39713e-10 0 2.39713e-10 -1.32926e-11 0 0 0 0)
(0 1.87909e-10 0 1.87909e-10 1.51281e-11 0 0 0 0)
(0 1.46649e-10 0 1.46649e-10 -1.65505e-11 0 0 0 0)
(0 1.14053e-10 0 1.14053e-10 1.75655e-11 0 0 0 0)
(0 8.83881e-11 0 8.83881e-11 -1.82555e-11 0 0 0 0)
(0 6.81814e-11 0 6.81814e-11 1.86393e-11 0 0 0 0)
(0 5.23451e-11 0 5.23451e-11 -1.87785e-11 0 0 0 0)
(0 3.99601e-11 0 3.99601e-11 1.86935e-11 0 0 0 0)
(0 3.03469e-11 0 3.03469e-11 -1.843e-11 0 0 0 0)
(0 2.2914e-11 0 2.2914e-11 1.80085e-11 0 0 0 0)
(0 1.72044e-11 0 1.72044e-11 -1.74637e-11 0 0 0 0)
(0 1.28432e-11 0 1.28432e-11 1.68145e-11 0 0 0 0)
(2.24871e-19 9.52972e-12 0 9.52972e-12 -1.60868e-11 0 0 0 0)
(0 7.02927e-12 0 7.02927e-12 1.52966e-11 0 0 0 0)
(0 5.15211e-12 0 5.15211e-12 -1.44635e-11 0 0 0 0)
(0 3.75341e-12 0 3.75341e-12 1.36006e-11 0 0 0 0)
(0 2.71586e-12 0 2.71586e-12 -1.27223e-11 0 0 0 0)
(0 1.9535e-12 0 1.9535e-12 1.18387e-11 0 0 0 0)
(0 1.39504e-12 0 1.39504e-12 -1.09604e-11 0 0 0 0)
(0 9.89694e-13 0 9.89694e-13 1.00948e-11 0 0 0 0)
(0 6.96804e-13 0 6.96804e-13 -9.24938e-12 0 0 0 0)
(0 4.87489e-13 0 4.87489e-13 8.42932e-12 0 0 0 0)
(0 3.38817e-13 0 3.38817e-13 -7.63951e-12 0 0 0 0)
(0 2.33639e-13 0 2.33639e-13 6.88327e-12 0 0 0 0)
(0 1.59514e-13 0 1.59514e-13 -6.16359e-12 0 0 0 0)
(0 1.08066e-13 0 1.08066e-13 5.48218e-12 0 0 0 0)
(0 7.28972e-14 0 7.28972e-14 -4.8406e-12 0 0 0 0)
(0 4.88933e-14 0 4.88933e-14 4.23936e-12 0 0 0 0)
(0 3.22838e-14 0 3.22838e-14 -3.67884e-12 0 0 0 0)
(0 2.13008e-14 0 2.13008e-14 3.15867e-12 0 0 0 0)
(0 1.39713e-14 0 1.39713e-14 -2.67846e-12 0 0 0 0)
(0 8.92498e-15 0 8.92498e-15 2.23719e-12 0 0 0 0)
(0 5.73982e-15 0 5.73982e-15 -1.83396e-12 0 0 0 0)
(0 3.61385e-15 0 3.61385e-15 1.46735e-12 0 0 0 0)
(0 2.28321e-15 0 2.28321e-15 -1.13605e-12 0 0 0 0)
(0 1.37535e-15 0 1.37535e-15 8.38056e-13 0 0 0 0)
(0 7.79475e-16 0 7.79475e-16 -5.71046e-13 0 0 0 0)
(0 5.8592e-16 0 5.8592e-16 3.54007e-13 0 0 0 0)
(0 4.13494e-16 0 4.13494e-16 -1.38736e-13 0 0 0 0)
(0 1.97765e-16 0 1.97765e-16 -9.9407e-14 0 0 0 0)
(0 1.2747e-17 0 1.2747e-17 2.52737e-13 0 0 0 0)
(0 -6.38481e-17 0 -6.38481e-17 -3.53932e-13 0 0 0 0)
(2.46128e-19 9.45131e-17 0 9.45131e-17 4.6847e-13 0 0 0 0)
(0 1.28576e-16 0 1.28576e-16 -5.66183e-13 0 0 0 0)
(0 3.75337e-17 0 3.75337e-17 6.46298e-13 0 0 0 0)
(-2.31729e-19 -5.99019e-17 0 -5.99019e-17 -7.10557e-13 0 0 0 0)
(0 -4.03136e-18 0 -4.03136e-18 7.60421e-13 0 0 0 0)
(0 8.57013e-18 0 8.57013e-18 -7.97395e-13 0 0 0 0)
(0 -1.59811e-17 0 -1.59811e-17 8.22865e-13 0 0 0 0)
(0 6.13164e-17 0 6.13164e-17 -8.38168e-13 0 0 0 0)
(0 -3.05461e-17 0 -3.05461e-17 8.44503e-13 0 0 0 0)
(0 -1.14772e-16 0 -1.14772e-16 -8.43021e-13 0 0 0 0)
(0 8.78774e-17 0 8.78774e-17 8.34759e-13 0 0 0 0)
(0 1.26925e-16 0 1.26925e-16 -8.20707e-13 0 0 0 0)
(0 -9.53425e-17 0 -9.53425e-17 8.01747e-13 0 0 0 0)
(0 -1.0932e-16 0 -1.0932e-16 -7.78667e-13 0 0 0 0)
(0 1.38172e-17 0 1.38172e-17 8.58059e-13 0 0 0 0)
(0 -7.30566e-18 0 -7.30566e-18 -8.4299e-13 0 0 0 0)
(0 -1.38702e-17 0 -1.38702e-17 8.2468e-13 0 0 0 0)
(0 2.65757e-17 0 2.65757e-17 -8.03704e-13 0 0 0 0)
(0 5.45277e-18 0 5.45277e-18 7.80492e-13 0 0 0 0)
(0 -1.27055e-17 0 -1.27055e-17 -7.55479e-13 0 0 0 0)
(0 1.36055e-17 0 1.36055e-17 7.29019e-13 0 0 0 0)
(0 -2.59404e-18 0 -2.59404e-18 -7.01476e-13 0 0 0 0)
(0 -1.86347e-17 0 -1.86347e-17 6.73132e-13 0 0 0 0)
(0 2.48816e-18 0 2.48816e-18 -6.4429e-13 0 0 0 0)
(0 1.3129e-17 0 1.3129e-17 6.15164e-13 0 0 0 0)
(0 1.62524e-17 0 1.62524e-17 -5.86006e-13 0 0 0 0)
(0 -1.35525e-17 0 -1.35525e-17 5.56968e-13 0 0 0 0)
(0 -7.67624e-18 0 -7.67624e-18 -5.28259e-13 0 0 0 0)
(0 8.99973e-18 0 8.99973e-18 4.99971e-13 0 0 0 0)
(0 3.01755e-18 0 3.01755e-18 -4.72293e-13 0 0 0 0)
(0 1.29702e-17 0 1.29702e-17 4.45237e-13 0 0 0 0)
(0 -1.14349e-17 0 -1.14349e-17 -4.1903e-13 0 0 0 0)
(0 -3.91753e-18 0 -3.91753e-18 3.93495e-13 0 0 0 0)
(0 4.60574e-18 0 4.60574e-18 -3.69105e-13 0 0 0 0)
(0 -6.19393e-18 0 -6.19393e-18 3.45322e-13 0 0 0 0)
(0 5.71747e-18 0 5.71747e-18 -3.22866e-13 0 0 0 0)
(0 2.17052e-18 0 2.17052e-18 3.0103e-13 0 0 0 0)
(0 -8.25857e-18 0 -8.25857e-18 -2.80585e-13 0 0 0 0)
(0 8.47033e-19 0 8.47033e-19 2.60842e-13 0 0 0 0)
(0 9.52912e-18 0 9.52912e-18 -2.46871e-13 0 0 0 0)
(0 -1.11173e-18 0 -1.11173e-18 2.37247e-13 0 0 0 0)
(0 -8.47033e-18 0 -8.47033e-18 -2.27949e-13 0 0 0 0)
(0 -2.15993e-17 0 -2.15993e-17 2.18131e-13 0 0 0 0)
(0 -3.86459e-18 0 -3.86459e-18 -2.08644e-13 0 0 0 0)
(0 -2.92226e-17 0 -2.92226e-17 1.98632e-13 0 0 0 0)
(0 -3.33519e-18 0 -3.33519e-18 -1.88962e-13 0 0 0 0)
(0 2.75815e-17 0 2.75815e-17 1.78743e-13 0 0 0 0)
(0 3.44107e-18 0 3.44107e-18 -1.68914e-13 0 0 0 0)
(0 1.45584e-17 0 1.45584e-17 1.58439e-13 0 0 0 0)
(0 5.82335e-19 0 5.82335e-19 -1.48584e-13 0 0 0 0)
(0 -1.48231e-18 0 -1.48231e-18 1.37856e-13 0 0 0 0)
(0 8.99973e-19 0 8.99973e-19 -1.27769e-13 0 0 0 0)
(0 -1.58819e-19 0 -1.58819e-19 1.16844e-13 0 0 0 0)
(0 -1.42937e-17 0 -1.42937e-17 -1.06503e-13 0 0 0 0)
(0 4.60574e-18 0 4.60574e-18 9.54355e-14 0 0 0 0)
(0 4.03399e-17 0 4.03399e-17 -8.47864e-14 0 0 0 0)
(0 1.19643e-17 0 1.19643e-17 7.34122e-14 0 0 0 0)
(0 -2.91168e-17 0 -2.91168e-17 -6.28008e-14 0 0 0 0)
(0 -1.37643e-17 0 -1.37643e-17 5.12907e-14 0 0 0 0)
(0 1.03762e-17 0 1.03762e-17 -3.99885e-14 0 0 0 0)
(0 1.00056e-17 0 1.00056e-17 2.85801e-14 0 0 0 0)
(0 -3.17637e-18 0 -3.17637e-18 -1.67728e-14 0 0 0 0)
(0 -9.74088e-18 0 -9.74088e-18 7.13364e-15 0 0 0 0)
(0 -2.0117e-18 0 -2.0117e-18 1.81405e-15 0 0 0 0)
)
;

boundaryField
{
    inandouthalf11
    {
        type            cyclic;
    }
    inandouthalf12
    {
        type            cyclic;
    }
    inandouthalf21
    {
        type            cyclic;
    }
    inandouthalf22
    {
        type            cyclic;
    }
    inandouthalf31
    {
        type            cyclic;
    }
    inandouthalf32
    {
        type            cyclic;
    }
    inandouthalf41
    {
        type            cyclic;
    }
    inandouthalf42
    {
        type            cyclic;
    }
    top
    {
        type            symmetryPlane;
    }
    walls
    {
        type            zeroGradient;
    }
    frontAndBackPlanes
    {
        type            empty;
    }
}


// ************************************************************************* //
