/*--------------------------------*- C++ -*----------------------------------*\
| =========                 |                                                 |
| \\      /  F ield         | OpenFOAM: The Open Source CFD Toolbox           |
|  \\    /   O peration     | Version:  2.4.x                                 |
|   \\  /    A nd           | Web:      www.OpenFOAM.org                      |
|    \\/     M anipulation  |                                                 |
\*---------------------------------------------------------------------------*/
FoamFile
{
    version     2.0;
    format      ascii;
    class       volTensorField;
    location    "1.4";
    object      Taus;
}
// * * * * * * * * * * * * * * * * * * * * * * * * * * * * * * * * * * * * * //

dimensions      [0 2 -2 0 0 0 0];

internalField   nonuniform List<tensor> 
360
(
(0 0.0197667 0 0.0197667 -0.160783 0 0 0 0)
(0 0.000212105 0 0.000212105 0.0223173 0 0 0 0)
(0 0.00065232 0 0.00065232 -0.00322193 0 0 0 0)
(0 0.00116573 0 0.00116573 -0.004463 0 0 0 0)
(-1.43976e-15 0.00168542 0 0.00168542 -0.00752948 0 0 0 0)
(-7.06091e-16 0.00219631 0 0.00219631 -0.0103532 0 0 0 0)
(-6.93083e-16 0.00269596 0 0.00269596 -0.0130493 0 0 0 0)
(0 0.00318378 0 0.00318378 -0.0156121 0 0 0 0)
(-6.68618e-16 0.00366199 0 0.00366199 -0.0180551 0 0 0 0)
(0 0.00412895 0 0.00412895 -0.0204 0 0 0 0)
(-6.45919e-16 0.00458592 0 0.00458592 -0.0226314 0 0 0 0)
(0 0.00503506 0 0.00503506 -0.0247382 0 0 0 0)
(-1.25091e-15 0.00547382 0 0.00547382 -0.0267618 0 0 0 0)
(0 0.00590394 0 0.00590394 -0.0287107 0 0 0 0)
(0 0.00632584 0 0.00632584 -0.0305656 0 0 0 0)
(0 0.00673965 0 0.00673965 -0.0323318 0 0 0 0)
(0 0.00714568 0 0.00714568 -0.0340136 0 0 0 0)
(-1.16109e-15 0.0075446 0 0.0075446 -0.0356147 0 0 0 0)
(0 0.00793653 0 0.00793653 -0.0371627 0 0 0 0)
(0 0.00831939 0 0.00831939 -0.0386491 0 0 0 0)
(0 0.00869844 0 0.00869844 -0.0400739 0 0 0 0)
(-1.09993e-15 0.00906874 0 0.00906874 -0.0414427 0 0 0 0)
(0 0.0094327 0 0.0094327 -0.0427679 0 0 0 0)
(0 0.00979079 0 0.00979079 -0.0440285 0 0 0 0)
(0 0.0101428 0 0.0101428 -0.0452278 0 0 0 0)
(-5.23122e-16 0.0104895 0 0.0104895 -0.0463687 0 0 0 0)
(0 0.0108312 0 0.0108312 -0.0474773 0 0 0 0)
(0 0.0111648 0 0.0111648 -0.0485646 0 0 0 0)
(0 0.0114934 0 0.0114934 -0.0496206 0 0 0 0)
(0 0.0118176 0 0.0118176 -0.0506238 0 0 0 0)
(0 0.0121368 0 0.0121368 -0.0515994 0 0 0 0)
(0 0.0124481 0 0.0124481 -0.0525343 0 0 0 0)
(0 0.012759 0 0.012759 -0.0534587 0 0 0 0)
(0 0.0130582 0 0.0130582 -0.0543519 0 0 0 0)
(0 0.0133572 0 0.0133572 -0.0552353 0 0 0 0)
(9.30253e-16 0.013649 0 0.013649 -0.0560804 0 0 0 0)
(0 0.0139374 0 0.0139374 -0.0569256 0 0 0 0)
(0 0.0142181 0 0.0142181 -0.0577772 0 0 0 0)
(0 0.0144914 0 0.0144914 -0.0586104 0 0 0 0)
(0 0.0147664 0 0.0147664 -0.0594356 0 0 0 0)
(0 0.0150287 0 0.0150287 -0.0602476 0 0 0 0)
(0 0.0152883 0 0.0152883 -0.0610563 0 0 0 0)
(8.50103e-16 0.0155458 0 0.0155458 -0.0618626 0 0 0 0)
(0 0.015791 0 0.015791 -0.0626745 0 0 0 0)
(0 0.0160342 0 0.0160342 -0.0635026 0 0 0 0)
(0 0.0162704 0 0.0162704 -0.0643271 0 0 0 0)
(0 0.0164996 0 0.0164996 -0.0651463 0 0 0 0)
(0 0.0167285 0 0.0167285 -0.0659793 0 0 0 0)
(0 0.0169462 0 0.0169462 -0.0668521 0 0 0 0)
(0 0.0171529 0 0.0171529 -0.0677587 0 0 0 0)
(3.70571e-16 0.0173603 0 0.0173603 -0.0686902 0 0 0 0)
(0 0.0175574 0 0.0175574 -0.0696261 0 0 0 0)
(0 0.017749 0 0.017749 -0.0706028 0 0 0 0)
(0 0.017932 0 0.017932 -0.0715979 0 0 0 0)
(0 0.0181116 0 0.0181116 -0.072648 0 0 0 0)
(0 0.0182777 0 0.0182777 -0.0737267 0 0 0 0)
(0 0.0184424 0 0.0184424 -0.0748709 0 0 0 0)
(0 0.0185945 0 0.0185945 -0.0760482 0 0 0 0)
(0 0.0187419 0 0.0187419 -0.077279 0 0 0 0)
(0 0.0188846 0 0.0188846 -0.0785678 0 0 0 0)
(0 0.0190133 0 0.0190133 -0.0799149 0 0 0 0)
(0 0.0191389 0 0.0191389 -0.0813318 0 0 0 0)
(0 0.0192553 0 0.0192553 -0.0828194 0 0 0 0)
(0 0.0193639 0 0.0193639 -0.0843509 0 0 0 0)
(0 0.0194714 0 0.0194714 -0.0860025 0 0 0 0)
(0 0.0195692 0 0.0195692 -0.087677 0 0 0 0)
(0 0.0196769 0 0.0196769 -0.0895762 0 0 0 0)
(0 0.019794 0 0.019794 -0.0914832 0 0 0 0)
(0 0.0200253 0 0.0200253 -0.094023 0 0 0 0)
(0 0.0204349 0 0.0204349 -0.0970564 0 0 0 0)
(0 0.0211515 0 0.0211515 -0.101593 0 0 0 0)
(0 0.0220128 0 0.0220128 -0.106344 0 0 0 0)
(0 0.0222944 0 0.0222944 -0.110096 0 0 0 0)
(0 0.0215305 0 0.0215305 -0.109756 0 0 0 0)
(0 0.0201364 0 0.0201364 -0.106823 0 0 0 0)
(0 0.0198537 0 0.0198537 -0.109702 0 0 0 0)
(0 0.0175869 0 0.0175869 -0.100928 0 0 0 0)
(0 0.0167394 0 0.0167394 -0.0974393 0 0 0 0)
(0 0.0166527 0 0.0166527 -0.0952478 0 0 0 0)
(0 0.0173681 0 0.0173681 -0.0949804 0 0 0 0)
(0 0.0185802 0 0.0185802 -0.0952831 0 0 0 0)
(0 0.0196383 0 0.0196383 -0.0947719 0 0 0 0)
(0 0.0200848 0 0.0200848 -0.093468 0 0 0 0)
(0 0.0199909 0 0.0199909 -0.0917911 0 0 0 0)
(0 0.0196312 0 0.0196312 -0.0899841 0 0 0 0)
(0 0.0192231 0 0.0192231 -0.0881812 0 0 0 0)
(0 0.0188824 0 0.0188824 -0.0864519 0 0 0 0)
(0 0.018651 0 0.018651 -0.0848304 0 0 0 0)
(0 0.0185143 0 0.0185143 -0.0832919 0 0 0 0)
(0 0.0184281 0 0.0184281 -0.0817845 0 0 0 0)
(0 0.0183477 0 0.0183477 -0.0802639 0 0 0 0)
(0 0.0182441 0 0.0182441 -0.0787096 0 0 0 0)
(0 0.0181087 0 0.0181087 -0.0771205 0 0 0 0)
(0 0.0179503 0 0.0179503 -0.0755119 0 0 0 0)
(0 0.0177827 0 0.0177827 -0.0738987 0 0 0 0)
(0 0.0176164 0 0.0176164 -0.0722909 0 0 0 0)
(0 0.0174555 0 0.0174555 -0.0706915 0 0 0 0)
(0 0.017299 0 0.017299 -0.069099 0 0 0 0)
(0 0.0171438 0 0.0171438 -0.0675101 0 0 0 0)
(0 0.016987 0 0.016987 -0.0659221 0 0 0 0)
(0 0.0168276 0 0.0168276 -0.0643339 0 0 0 0)
(0 0.016666 0 0.016666 -0.0627456 0 0 0 0)
(0 0.0165032 0 0.0165032 -0.0611574 0 0 0 0)
(0 0.0163399 0 0.0163399 -0.0595695 0 0 0 0)
(0 0.0161764 0 0.0161764 -0.0579817 0 0 0 0)
(0 0.0160128 0 0.0160128 -0.0563937 0 0 0 0)
(0 0.015849 0 0.015849 -0.0548054 0 0 0 0)
(0 0.015685 0 0.015685 -0.0532166 0 0 0 0)
(0 0.015521 0 0.015521 -0.0516273 0 0 0 0)
(0 0.0153572 0 0.0153572 -0.0500375 0 0 0 0)
(0 0.0151936 0 0.0151936 -0.048447 0 0 0 0)
(0 0.0150306 0 0.0150306 -0.0468557 0 0 0 0)
(0 0.0148682 0 0.0148682 -0.0452635 0 0 0 0)
(0 0.0147064 0 0.0147064 -0.0436701 0 0 0 0)
(0 0.0145454 0 0.0145454 -0.0420752 0 0 0 0)
(0 0.014385 0 0.014385 -0.0404784 0 0 0 0)
(0 0.014225 0 0.014225 -0.0388792 0 0 0 0)
(0 0.0140653 0 0.0140653 -0.0372772 0 0 0 0)
(0 0.0139061 0 0.0139061 -0.0356718 0 0 0 0)
(0 0.0137483 0 0.0137483 -0.0340623 0 0 0 0)
(0 0.0135936 0 0.0135936 -0.0324477 0 0 0 0)
(0 0.0134443 0 0.0134443 -0.0308265 0 0 0 0)
(0 0.0133019 0 0.0133019 -0.0291966 0 0 0 0)
(0 0.0131651 0 0.0131651 -0.0275557 0 0 0 0)
(0 0.0130274 0 0.0130274 -0.0259027 0 0 0 0)
(0 0.0128771 0 0.0128771 -0.0242391 0 0 0 0)
(0 0.0127007 0 0.0127007 -0.0225698 0 0 0 0)
(0 0.0124938 0 0.0124938 -0.0208978 0 0 0 0)
(0 0.0122763 0 0.0122763 -0.0192148 0 0 0 0)
(0 0.0121016 0 0.0121016 -0.0174886 0 0 0 0)
(0 0.0120409 0 0.0120409 -0.0156543 0 0 0 0)
(0 0.0121466 0 0.0121466 -0.0135985 0 0 0 0)
(0 0.0124018 0 0.0124018 -0.0111801 0 0 0 0)
(0 0.012694 0 0.012694 -0.00832016 0 0 0 0)
(0 0.0128319 0 0.0128319 -0.00517824 0 0 0 0)
(0 0.0126124 0 0.0126124 -0.00233731 0 0 0 0)
(0 0.0119121 0 0.0119121 -0.000640079 0 0 0 0)
(0 0.0108341 0 0.0108341 -0.000107476 0 0 0 0)
(0 0.00968968 0 0.00968968 -1.88689e-05 0 0 0 0)
(0 0.00899146 0 0.00899146 -6.94298e-06 0 0 0 0)
(0 0.00900263 0 0.00900263 -5.76436e-06 0 0 0 0)
(0 0.00862385 0 0.00862385 -5.84722e-06 0 0 0 0)
(0 0.0077031 0 0.0077031 -6.37158e-06 0 0 0 0)
(0 0.00664915 0 0.00664915 -1.16392e-05 0 0 0 0)
(0 0.00561107 0 0.00561107 -2.17777e-05 0 0 0 0)
(0 0.00450628 0 0.00450628 -2.16993e-05 0 0 0 0)
(0 0.00355128 0 0.00355128 -1.25974e-05 0 0 0 0)
(0 0.00265052 0 0.00265052 -9.80556e-06 0 0 0 0)
(0 0.00180702 0 0.00180702 -1.12778e-05 0 0 0 0)
(0 0.0010354 0 0.0010354 -1.62528e-05 0 0 0 0)
(0 0.000782553 0 0.000782553 -8.34091e-06 0 0 0 0)
(0 0.000314463 0 0.000314463 3.53433e-06 0 0 0 0)
(0 0.0120817 0 0.0120817 -0.000543848 0 0 0 0)
(0 0.0558604 0 0.0558604 -0.00798714 0 0 0 0)
(0 0.0926797 0 0.0926797 -0.0132691 0 0 0 0)
(0 0.117626 0 0.117626 -0.0144104 0 0 0 0)
(0 0.137097 0 0.137097 -0.0148557 0 0 0 0)
(0 0.156637 0 0.156637 -0.0155082 0 0 0 0)
(0 0.166846 0 0.166846 -0.0154828 0 0 0 0)
(0 0.182071 0 0.182071 -0.016155 0 0 0 0)
(0 0.182819 0 0.182819 -0.0157692 0 0 0 0)
(0 0.197411 0 0.197411 -0.0168272 0 0 0 0)
(0 0.197704 0 0.197704 -0.0168063 0 0 0 0)
(0 0.198853 0 0.198853 -0.0169335 0 0 0 0)
(0 0.206094 0 0.206094 -0.0177415 0 0 0 0)
(0 0.201758 0 0.201758 -0.0175915 0 0 0 0)
(0 0.208954 0 0.208954 -0.0185071 0 0 0 0)
(0 0.203114 0 0.203114 -0.0182981 0 0 0 0)
(0 0.209032 0 0.209032 -0.0191784 0 0 0 0)
(0 0.204314 0 0.204314 -0.0191223 0 0 0 0)
(0 0.210261 0 0.210261 -0.0200772 0 0 0 0)
(0 0.203725 0 0.203725 -0.0198257 0 0 0 0)
(0 0.206901 0 0.206901 -0.0205539 0 0 0 0)
(0 0.207177 0 0.207177 -0.0210221 0 0 0 0)
(0 0.203418 0 0.203418 -0.0210446 0 0 0 0)
(0 0.206754 0 0.206754 -0.0218273 0 0 0 0)
(0 0.200985 0 0.200985 -0.0216372 0 0 0 0)
(0 0.20542 0 0.20542 -0.0225678 0 0 0 0)
(0 0.200876 0 0.200876 -0.0225107 0 0 0 0)
(0 0.203076 0 0.203076 -0.0231749 0 0 0 0)
(0 0.197116 0 0.197116 -0.0228936 0 0 0 0)
(0 0.20045 0 0.20045 -0.0237331 0 0 0 0)
(0 0.198536 0 0.198536 -0.023926 0 0 0 0)
(0 0.195618 0 0.195618 -0.0239511 0 0 0 0)
(0 0.196936 0 0.196936 -0.0245051 0 0 0 0)
(0 0.192096 0 0.192096 -0.0242564 0 0 0 0)
(0 0.194551 0 0.194551 -0.0249352 0 0 0 0)
(0 0.190766 0 0.190766 -0.024792 0 0 0 0)
(0 0.192045 0 0.192045 -0.025265 0 0 0 0)
(0 0.18755 0 0.18755 -0.0249456 0 0 0 0)
(0 0.188693 0 0.188693 -0.0253602 0 0 0 0)
(0 0.185708 0 0.185708 -0.025203 0 0 0 0)
(0 0.18649 0 0.18649 -0.0255071 0 0 0 0)
(0 0.182637 0 0.182637 -0.0251283 0 0 0 0)
(0 0.184007 0 0.184007 -0.0254823 0 0 0 0)
(0 0.181716 0 0.181716 -0.0252397 0 0 0 0)
(0 0.17865 0 0.17865 -0.0248285 0 0 0 0)
(0 0.180083 0 0.180083 -0.0250722 0 0 0 0)
(0 0.178429 0 0.178429 -0.0248222 0 0 0 0)
(0 0.178807 0 0.178807 -0.0247864 0 0 0 0)
(0 0.175255 0 0.175255 -0.0241247 0 0 0 0)
(0 0.173687 0 0.173687 -0.0236947 0 0 0 0)
(-4.09204e-14 0.172084 0 0.172084 -0.023314 0 0 0 0)
(0 0.175894 0 0.175894 -0.0237712 0 0 0 0)
(0 0.175433 0 0.175433 -0.0235881 0 0 0 0)
(2.03771e-14 0.170989 0 0.170989 -0.022721 0 0 0 0)
(0 0.166308 0 0.166308 -0.021848 0 0 0 0)
(-2.00874e-14 0.1684 0 0.1684 -0.022061 0 0 0 0)
(0 0.171983 0 0.171983 -0.0225319 0 0 0 0)
(1.97943e-14 0.169329 0 0.169329 -0.0219946 0 0 0 0)
(0 0.164612 0 0.164612 -0.021138 0 0 0 0)
(0 0.164734 0 0.164734 -0.0210752 0 0 0 0)
(0 0.166412 0 0.166412 -0.0212743 0 0 0 0)
(1.88055e-14 0.164374 0 0.164374 -0.020877 0 0 0 0)
(0 0.16132 0 0.16132 -0.0203197 0 0 0 0)
(0 0.162519 0 0.162519 -0.0204672 0 0 0 0)
(0 0.163575 0 0.163575 -0.0206176 0 0 0 0)
(0 0.15884 0 0.15884 -0.019847 0 0 0 0)
(0 0.155738 0 0.155738 -0.0193383 0 0 0 0)
(-3.37595e-14 0.158571 0 0.158571 -0.0198049 0 0 0 0)
(0 0.159036 0 0.159036 -0.0198973 0 0 0 0)
(-3.22402e-14 0.15561 0 0.15561 -0.0193693 0 0 0 0)
(0 0.154999 0 0.154999 -0.0193422 0 0 0 0)
(-3.0759e-14 0.15419 0 0.15419 -0.019295 0 0 0 0)
(0 0.151288 0 0.151288 -0.0188918 0 0 0 0)
(0 0.152059 0 0.152059 -0.0191164 0 0 0 0)
(0 0.15246 0 0.15246 -0.0192962 0 0 0 0)
(0 0.15018 0 0.15018 -0.0190514 0 0 0 0)
(2.67602e-14 0.148598 0 0.148598 -0.0189492 0 0 0 0)
(0 0.147626 0 0.147626 -0.0189469 0 0 0 0)
(0 0.147849 0 0.147849 -0.0191551 0 0 0 0)
(0 0.14712 0 0.14712 -0.0192351 0 0 0 0)
(0 0.145059 0 0.145059 -0.0191038 0 0 0 0)
(0 0.143125 0 0.143125 -0.019002 0 0 0 0)
(0 0.142786 0 0.142786 -0.0191891 0 0 0 0)
(0 0.141351 0 0.141351 -0.0192252 0 0 0 0)
(0 0.137135 0 0.137135 -0.0187913 0 0 0 0)
(0 0.133143 0 0.133143 -0.0183862 0 0 0 0)
(0 0.13198 0 0.13198 -0.0185112 0 0 0 0)
(0 0.127906 0 0.127906 -0.0181507 0 0 0 0)
(0 0.119967 0 0.119967 -0.0170986 0 0 0 0)
(0 0.113688 0 0.113688 -0.0163936 0 0 0 0)
(0 0.105801 0 0.105801 -0.0154203 0 0 0 0)
(-2.60538e-14 0.0936099 0 0.0936099 -0.013709 0 0 0 0)
(2.34865e-14 0.0786573 0 0.0786573 -0.0115877 0 0 0 0)
(0 0.0600671 0 0.0600671 -0.00872826 0 0 0 0)
(0 0.0486055 0 0.0486055 -0.00731799 0 0 0 0)
(-0 0 0 0 -0 0 0 0 0)
(0 0 0 0 -0 0 0 0 0)
(0 0 0 0 -0 0 0 0 0)
(-0 0 0 0 0 0 0 0 0)
(0 0 0 0 -0 0 0 0 0)
(0 0 0 0 -0 0 0 0 0)
(0 0 0 0 0 0 0 0 0)
(0 0 0 0 -0 0 0 0 0)
(0 0 0 0 0 0 0 0 0)
(0 0 0 0 -0 0 0 0 0)
(0 0 0 0 0 0 0 0 0)
(0 0 0 0 -0 0 0 0 0)
(0 0 0 0 0 0 0 0 0)
(0 0 0 0 -0 0 0 0 0)
(0 0 0 0 0 0 0 0 0)
(0 0 0 0 -0 0 0 0 0)
(0 0 0 0 0 0 0 0 0)
(0 0 0 0 -0 0 0 0 0)
(0 0 0 0 0 0 0 0 0)
(0 0 0 0 -0 0 0 0 0)
(0 0 0 0 0 0 0 0 0)
(0 0 0 0 -0 0 0 0 0)
(0 0 0 0 0 0 0 0 0)
(0 0 0 0 -0 0 0 0 0)
(0 0 0 0 0 0 0 0 0)
(0 0 0 0 -0 0 0 0 0)
(0 0 0 0 0 0 0 0 0)
(0 0 0 0 -0 0 0 0 0)
(0 0 0 0 0 0 0 0 0)
(0 0 0 0 -0 0 0 0 0)
(0 0 0 0 0 0 0 0 0)
(0 0 0 0 -0 0 0 0 0)
(0 0 0 0 0 0 0 0 0)
(0 0 0 0 -0 0 0 0 0)
(0 0 0 0 0 0 0 0 0)
(0 0 0 0 -0 0 0 0 0)
(0 0 0 0 0 0 0 0 0)
(0 0 0 0 -0 0 0 0 0)
(0 0 0 0 0 0 0 0 0)
(0 -0 0 -0 -0 0 0 0 0)
(0 0 0 0 0 0 0 0 0)
(0 -0 0 -0 -0 0 0 0 0)
(0 0 0 0 0 0 0 0 0)
(0 -0 0 -0 -0 0 0 0 0)
(0 0 0 0 0 0 0 0 0)
(0 0 0 0 -0 0 0 0 0)
(0 -0 0 -0 0 0 0 0 0)
(0 0 0 0 0 0 0 0 0)
(0 -0 0 -0 -0 0 0 0 0)
(0 0 0 0 0 0 0 0 0)
(0 -0 0 -0 -0 0 0 0 0)
(0 0 0 0 0 0 0 0 0)
(-0 -0 0 -0 -0 0 0 0 0)
(0 0 0 0 0 0 0 0 0)
(0 -0 0 -0 -0 0 0 0 0)
(0 0 0 0 0 0 0 0 0)
(0 -0 0 -0 -0 0 0 0 0)
(0 0 0 0 0 0 0 0 0)
(0 -0 0 -0 -0 0 0 0 0)
(0 0 0 0 0 0 0 0 0)
(0 -0 0 -0 -0 0 0 0 0)
(0 0 0 0 0 0 0 0 0)
(0 -0 0 -0 -0 0 0 0 0)
(0 0 0 0 0 0 0 0 0)
(0 -0 0 -0 -0 0 0 0 0)
(0 0 0 0 0 0 0 0 0)
(0 -0 0 -0 -0 0 0 0 0)
(0 0 0 0 0 0 0 0 0)
(0 -0 0 -0 -0 0 0 0 0)
(0 0 0 0 0 0 0 0 0)
(0 -0 0 -0 -0 0 0 0 0)
(0 0 0 0 0 0 0 0 0)
(0 -0 0 -0 -0 0 0 0 0)
(0 0 0 0 0 0 0 0 0)
(0 -0 0 -0 -0 0 0 0 0)
(0 0 0 0 0 0 0 0 0)
(0 -0 0 -0 -0 0 0 0 0)
(0 0 0 0 0 0 0 0 0)
(0 -0 0 -0 -0 0 0 0 0)
(0 0 0 0 0 0 0 0 0)
(0 -0 0 -0 -0 0 0 0 0)
(0 0 0 0 0 0 0 0 0)
(0 -0 0 -0 -0 0 0 0 0)
(0 0 0 0 0 0 0 0 0)
(0 -0 0 -0 -0 0 0 0 0)
(0 0 0 0 0 0 0 0 0)
(0 -0 0 -0 -0 0 0 0 0)
(0 0 0 0 0 0 0 0 0)
(0 -0 0 -0 -0 0 0 0 0)
(0 0 0 0 0 0 0 0 0)
(0 -0 0 -0 -0 0 0 0 0)
(0 0 0 0 0 0 0 0 0)
(0 -0 0 -0 -0 0 0 0 0)
(0 0 0 0 0 0 0 0 0)
(0 -0 0 -0 -0 0 0 0 0)
(0 0 0 0 0 0 0 0 0)
(0 -0 0 -0 -0 0 0 0 0)
(0 0 0 0 0 0 0 0 0)
(0 -0 0 -0 -0 0 0 0 0)
(0 0 0 0 0 0 0 0 0)
(0 -0 0 -0 -0 0 0 0 0)
(0 0 0 0 0 0 0 0 0)
(0 -0 0 -0 -0 0 0 0 0)
(0 0 0 0 0 0 0 0 0)
(0 -0 0 -0 -0 0 0 0 0)
(0 0 0 0 0 0 0 0 0)
(0 -0 0 -0 0 0 0 0 0)
(0 -0 0 -0 0 0 0 0 0)
(0 -0 0 -0 0 0 0 0 0)
(0 -0 0 -0 0 0 0 0 0)
(0 -0 0 -0 0 0 0 0 0)
(0 -0 0 -0 0 0 0 0 0)
(0 -0 0 -0 0 0 0 0 0)
)
;

boundaryField
{
    inandouthalf11
    {
        type            cyclic;
    }
    inandouthalf12
    {
        type            cyclic;
    }
    inandouthalf21
    {
        type            cyclic;
    }
    inandouthalf22
    {
        type            cyclic;
    }
    inandouthalf31
    {
        type            cyclic;
    }
    inandouthalf32
    {
        type            cyclic;
    }
    inandouthalf41
    {
        type            cyclic;
    }
    inandouthalf42
    {
        type            cyclic;
    }
    top
    {
        type            symmetryPlane;
    }
    walls
    {
        type            zeroGradient;
    }
    frontAndBackPlanes
    {
        type            empty;
    }
}


// ************************************************************************* //
