/*--------------------------------*- C++ -*----------------------------------*\
| =========                 |                                                 |
| \\      /  F ield         | OpenFOAM: The Open Source CFD Toolbox           |
|  \\    /   O peration     | Version:  2.4.x                                 |
|   \\  /    A nd           | Web:      www.OpenFOAM.org                      |
|    \\/     M anipulation  |                                                 |
\*---------------------------------------------------------------------------*/
FoamFile
{
    version     2.0;
    format      ascii;
    class       volScalarField;
    location    "1.4";
    object      Theta;
}
// * * * * * * * * * * * * * * * * * * * * * * * * * * * * * * * * * * * * * //

dimensions      [0 2 -2 0 0 0 0];

internalField   nonuniform List<scalar> 
360
(
6.66136e-21
6.66136e-21
6.66136e-21
6.66136e-21
6.66136e-21
6.66136e-21
6.66136e-21
6.66136e-21
6.66136e-21
6.66136e-21
6.66136e-21
6.66136e-21
6.66136e-21
6.66136e-21
6.66136e-21
6.66136e-21
6.66136e-21
6.66136e-21
6.66136e-21
6.66136e-21
6.66136e-21
6.66136e-21
6.66136e-21
6.66136e-21
6.66136e-21
6.66136e-21
6.66136e-21
6.66136e-21
6.66136e-21
6.66136e-21
6.66136e-21
6.66136e-21
6.66136e-21
6.66136e-21
6.66136e-21
6.66135e-21
6.66135e-21
6.66135e-21
6.66135e-21
6.66135e-21
6.66135e-21
6.66135e-21
6.66135e-21
6.66135e-21
6.66135e-21
6.66135e-21
6.66135e-21
6.66135e-21
6.66135e-21
6.66135e-21
6.66135e-21
6.66135e-21
6.66135e-21
6.66135e-21
6.66135e-21
6.66135e-21
6.66135e-21
6.66135e-21
6.66135e-21
6.66135e-21
6.66135e-21
6.66134e-21
6.66134e-21
6.66134e-21
6.66134e-21
6.66134e-21
6.66134e-21
6.66134e-21
6.66134e-21
6.66133e-21
6.66133e-21
6.66133e-21
6.66133e-21
6.66133e-21
6.66132e-21
6.66132e-21
6.66266e-21
6.7433e-21
7.32037e-21
8.05981e-21
7.7936e-21
7.25934e-21
7.00015e-21
6.91655e-21
6.91475e-21
6.95978e-21
7.03164e-21
7.10509e-21
7.15523e-21
7.17362e-21
7.17059e-21
7.16258e-21
7.16126e-21
7.17118e-21
7.192e-21
7.22118e-21
7.25595e-21
7.2944e-21
7.33578e-21
7.38001e-21
0
0
0
0
0
0
0
0
0
0
0
0
0
0
0
8.82458e-21
9.02932e-21
9.26417e-21
9.53265e-21
9.83733e-21
1.0181e-20
1.05716e-20
1.10322e-20
1.16173e-20
1.24311e-20
1.36379e-20
1.54279e-20
1.78195e-20
2.01717e-20
2.09854e-20
1.94341e-20
1.70492e-20
1.64086e-20
2.24706e-20
1.18689e-19
2.25253e-16
3.55321e-12
7.22896e-09
1.16901e-06
2.63464e-05
0.00012208
0.000210816
0.000247629
0.000260392
0.000263675
0.000241671
0.000194767
0.000142149
9.8677e-05
5.32973e-05
3.68883e-05
0.000153462
0.00119394
0.00185396
0.002291
0.00259261
0.00280304
0.00294847
0.00304554
0.00310712
0.0031417
0.00315712
0.00315771
0.00314777
0.00313047
0.00310767
0.0030814
0.00305255
0.00302237
0.0029913
0.00296002
0.00292867
0.00289774
0.00286731
0.00283747
0.0028084
0.00278003
0.00275252
0.00272575
0.00269978
0.00267453
0.00265005
0.00262624
0.00260308
0.00258054
0.00255854
0.0025371
0.00251613
0.00249561
0.00247547
0.00245572
0.00243628
0.00241715
0.00239827
0.00237964
0.00236119
0.00234292
0.0023248
0.00230681
0.00228892
0.0022711
0.00225316
0.00223491
0.00221633
0.00219737
0.00217801
0.00215822
0.002138
0.00211731
0.0020961
0.00207434
0.00205201
0.00202909
0.00200551
0.00198125
0.00195628
0.00193054
0.00190399
0.00187659
0.00184831
0.00181908
0.00178883
0.00175753
0.0017251
0.00169147
0.00165659
0.00162037
0.0015827
0.00154351
0.00150269
0.00146013
0.00141568
0.0013692
0.00132054
0.00126949
0.00121584
0.00115932
0.00109966
0.0010365
0.000969388
0.000897766
0.000820958
0.000738006
0.000647551
0.000547523
0.000434301
0.000299989
0
0
0
0
0
0
0
0
0
0
0
0
0
0
0
0
0
0
0
0
0
0
0
0
0
0
0
0
0
0
0
0
0
0
0
0
0
0
0
0
0
0
0
0
0
0
0
0
0
0
0
0
0
0
0
0
0
0
0
0
0
0
0
0
0
0
0
0
0
0
0
0
0
0
0
0
0
0
0
0
0
0
0
0
0
0
0
0
0
0
0
0
0
0
0
0
0
0
0
0
0
0
0
0
0
0
0
0
0
0
0
0
0
)
;

boundaryField
{
    inandouthalf11
    {
        type            cyclic;
    }
    inandouthalf12
    {
        type            cyclic;
    }
    inandouthalf21
    {
        type            cyclic;
    }
    inandouthalf22
    {
        type            cyclic;
    }
    inandouthalf31
    {
        type            cyclic;
    }
    inandouthalf32
    {
        type            cyclic;
    }
    inandouthalf41
    {
        type            cyclic;
    }
    inandouthalf42
    {
        type            cyclic;
    }
    top
    {
        type            symmetryPlane;
    }
    walls
    {
        type            zeroGradient;
    }
    frontAndBackPlanes
    {
        type            empty;
    }
}


// ************************************************************************* //
