/*--------------------------------*- C++ -*----------------------------------*\
| =========                 |                                                 |
| \\      /  F ield         | OpenFOAM: The Open Source CFD Toolbox           |
|  \\    /   O peration     | Version:  2.4.x                                 |
|   \\  /    A nd           | Web:      www.OpenFOAM.org                      |
|    \\/     M anipulation  |                                                 |
\*---------------------------------------------------------------------------*/
FoamFile
{
    version     2.0;
    format      ascii;
    class       volScalarField;
    location    "1.4";
    object      tmf;
}
// * * * * * * * * * * * * * * * * * * * * * * * * * * * * * * * * * * * * * //

dimensions      [0 0 0 0 0 0 0];

internalField   nonuniform List<scalar> 
360
(
0.999203
0.999203
0.999203
0.999203
0.999203
0.999203
0.999203
0.999203
0.999203
0.999203
0.999203
0.999203
0.999203
0.999203
0.999203
0.999203
0.999203
0.999203
0.999203
0.999203
0.999203
0.999203
0.999203
0.999203
0.999203
0.999203
0.999203
0.999203
0.999203
0.999203
0.999203
0.999203
0.999203
0.999203
0.999203
0.999203
0.999203
0.999203
0.999203
0.999203
0.999203
0.999203
0.999203
0.999203
0.999203
0.999203
0.999203
0.999203
0.999203
0.999203
0.999203
0.999203
0.999203
0.999203
0.999202
0.999202
0.999202
0.999202
0.999202
0.999202
0.999202
0.999202
0.999202
0.999201
0.999201
0.999201
0.999201
0.999201
0.9992
0.9992
0.9992
0.9992
0.999199
0.999199
0.999199
0.999198
0.999198
0.999197
0.999197
0.999197
0.999197
0.999197
0.999197
0.999197
0.999197
0.999196
0.999196
0.999196
0.999196
0.999196
0.999195
0.999195
0.999195
0.999195
0.999194
0.999194
0.999194
0.999194
0.999193
0.999193
0.999193
0.999192
0.999192
0.999192
0.999192
0.999191
0.999191
0.999191
0.99919
0.99919
0.999189
0.999189
0.999189
0.999188
0.999188
0.999188
0.999187
0.999187
0.999186
0.999186
0.999185
0.999185
0.999184
0.999184
0.999183
0.999183
0.999182
0.999181
0.999181
0.99918
0.999179
0.999179
0.999178
0.999178
0.999178
0.999177
0.999176
0.998609
0.996607
0.991711
0.986314
0.983549
0.982588
0.981998
0.981024
0.979034
0.97902
0.980065
0.979834
0.981654
0.972139
0.854623
0.84583
0.890589
0.909571
0.925243
0.937316
0.9477
0.955956
0.963102
0.968963
0.974053
0.978382
0.982323
0.985856
0.988852
0.991023
0.992524
0.993552
0.994308
0.994887
0.995358
0.995747
0.996075
0.996349
0.996566
0.996724
0.996803
0.996785
0.996619
0.996525
0.996518
0.996511
0.996503
0.996496
0.996489
0.996483
0.996476
0.996469
0.996463
0.996456
0.996449
0.996443
0.996436
0.99643
0.996423
0.996417
0.99641
0.996403
0.996397
0.99639
0.996383
0.996376
0.996369
0.996361
0.996354
0.996346
0.996338
0.99633
0.996321
0.996312
0.996303
0.996294
0.996284
0.996274
0.996264
0.996254
0.996243
0.996232
0.99622
0.996208
0.996196
0.996183
0.99617
0.996157
0.996143
0.996128
0.996113
0.996097
0.996081
0.996064
0.996046
0.996028
0.996009
0.995989
0.995968
0.995946
0.995924
0.995901
0.995876
0.995851
0.995826
0.995799
0.995773
0.995748
0.995725
0.995705
0.995681
0.994185
0.99419
0.99419
0.99419
0.99419
0.99419
0.99419
0.99419
0.99419
0.99419
0.99419
0.99419
0.99419
0.99419
0.99419
0.99419
0.99419
0.99419
0.99419
0.99419
0.99419
0.99419
0.99419
0.99419
0.99419
0.99419
0.99419
0.99419
0.99419
0.99419
0.99419
0.99419
0.99419
0.99419
0.99419
0.99419
0.99419
0.99419
0.99419
0.99419
0.99419
0.99419
0.99419
0.99419
0.99419
0.99419
0.99419
0.99419
0.99419
0.99419
0.99419
0.99419
0.99419
0.99419
0.99419
0.99419
0.99419
0.99419
0.99419
0.99419
0.99419
0.99419
0.99419
0.99419
0.99419
0.99419
0.99419
0.99419
0.99419
0.99419
0.99419
0.99419
0.99419
0.99419
0.99419
0.99419
0.99419
0.99419
0.99419
0.99419
0.99419
0.99419
0.99419
0.99419
0.99419
0.99419
0.99419
0.99419
0.99419
0.99419
0.99419
0.99419
0.99419
0.99419
0.99419
0.99419
0.99419
0.99419
0.99419
0.99419
0.99419
0.99419
0.99419
0.99419
0.99419
0.99419
0.99419
0.99419
0.99419
0.99419
0.994175
0.993242
)
;

boundaryField
{
    inandouthalf11
    {
        type            cyclic;
    }
    inandouthalf12
    {
        type            cyclic;
    }
    inandouthalf21
    {
        type            cyclic;
    }
    inandouthalf22
    {
        type            cyclic;
    }
    inandouthalf31
    {
        type            cyclic;
    }
    inandouthalf32
    {
        type            cyclic;
    }
    inandouthalf41
    {
        type            cyclic;
    }
    inandouthalf42
    {
        type            cyclic;
    }
    top
    {
        type            symmetryPlane;
    }
    walls
    {
        type            calculated;
        value           uniform 0;
    }
    frontAndBackPlanes
    {
        type            empty;
    }
}


// ************************************************************************* //
