/*--------------------------------*- C++ -*----------------------------------*\
| =========                 |                                                 |
| \\      /  F ield         | OpenFOAM: The Open Source CFD Toolbox           |
|  \\    /   O peration     | Version:  2.4.x                                 |
|   \\  /    A nd           | Web:      www.OpenFOAM.org                      |
|    \\/     M anipulation  |                                                 |
\*---------------------------------------------------------------------------*/
FoamFile
{
    version     2.0;
    format      ascii;
    class       volVectorField;
    location    "1.4";
    object      Ua;
}
// * * * * * * * * * * * * * * * * * * * * * * * * * * * * * * * * * * * * * //

dimensions      [0 1 -1 0 0 0 0];

internalField   nonuniform List<vector> 
360
(
(1.1472e-36 -4.66714e-36 0)
(1.14721e-36 -4.66423e-36 0)
(1.14725e-36 -4.66442e-36 0)
(1.14735e-36 -4.66457e-36 0)
(1.1475e-36 -4.66491e-36 0)
(1.14772e-36 -4.66541e-36 0)
(1.148e-36 -4.66607e-36 0)
(1.14834e-36 -4.66691e-36 0)
(1.14874e-36 -4.6679e-36 0)
(1.14921e-36 -4.66906e-36 0)
(1.14974e-36 -4.67037e-36 0)
(1.15034e-36 -4.67185e-36 0)
(1.15101e-36 -4.67348e-36 0)
(1.15174e-36 -4.67526e-36 0)
(1.15253e-36 -4.67719e-36 0)
(1.1534e-36 -4.67927e-36 0)
(1.15433e-36 -4.6815e-36 0)
(1.15533e-36 -4.68387e-36 0)
(1.1564e-36 -4.68639e-36 0)
(1.15754e-36 -4.68904e-36 0)
(1.15875e-36 -4.69184e-36 0)
(1.16003e-36 -4.69477e-36 0)
(1.16138e-36 -4.69784e-36 0)
(1.16279e-36 -4.70105e-36 0)
(1.16429e-36 -4.70438e-36 0)
(1.16585e-36 -4.70785e-36 0)
(1.16748e-36 -4.71145e-36 0)
(1.16918e-36 -4.71517e-36 0)
(1.17096e-36 -4.71902e-36 0)
(1.17281e-36 -4.723e-36 0)
(1.17474e-36 -4.7271e-36 0)
(1.17673e-36 -4.73134e-36 0)
(1.17881e-36 -4.73569e-36 0)
(1.18095e-36 -4.74017e-36 0)
(1.18318e-36 -4.74478e-36 0)
(1.18547e-36 -4.74952e-36 0)
(1.18785e-36 -4.75439e-36 0)
(1.19031e-36 -4.75939e-36 0)
(1.19284e-36 -4.76453e-36 0)
(1.19546e-36 -4.7698e-36 0)
(1.19816e-36 -4.77522e-36 0)
(1.20094e-36 -4.78079e-36 0)
(1.20381e-36 -4.78651e-36 0)
(1.20677e-36 -4.79239e-36 0)
(1.20981e-36 -4.79843e-36 0)
(1.21296e-36 -4.80465e-36 0)
(1.2162e-36 -4.81105e-36 0)
(1.21953e-36 -4.81763e-36 0)
(1.22298e-36 -4.82442e-36 0)
(1.22653e-36 -4.83143e-36 0)
(1.2302e-36 -4.83869e-36 0)
(1.23399e-36 -4.8462e-36 0)
(1.23792e-36 -4.85399e-36 0)
(1.24198e-36 -4.86208e-36 0)
(1.24619e-36 -4.8705e-36 0)
(1.25056e-36 -4.87929e-36 0)
(1.25511e-36 -4.8885e-36 0)
(1.25986e-36 -4.89816e-36 0)
(1.26482e-36 -4.90834e-36 0)
(1.27002e-36 -4.91911e-36 0)
(1.27549e-36 -4.93054e-36 0)
(1.28127e-36 -4.94276e-36 0)
(1.28741e-36 -4.95587e-36 0)
(1.29397e-36 -4.97008e-36 0)
(1.30102e-36 -4.98552e-36 0)
(1.3087e-36 -5.0026e-36 0)
(1.31709e-36 -5.02151e-36 0)
(1.32654e-36 -5.0432e-36 0)
(1.3372e-36 -5.06799e-36 0)
(1.35031e-36 -5.09901e-36 0)
(1.36721e-36 -5.13925e-36 0)
(1.39533e-36 -5.20713e-36 0)
(1.45593e-36 -5.35356e-36 0)
(1.73268e-36 -6.0401e-36 0)
(4.62559e-36 -1.34325e-35 0)
(2.72581e-34 -7.24465e-34 0)
(3.10154e-26 -8.56882e-26 0)
(3.49137e-08 -1.00182e-07 0)
(2.66738e-07 -7.76336e-07 0)
(7.84293e-07 -2.24328e-06 0)
(1.37359e-06 -3.80284e-06 0)
(1.84715e-06 -4.96855e-06 0)
(2.20355e-06 -5.80547e-06 0)
(2.49833e-06 -6.48374e-06 0)
(2.77739e-06 -7.12292e-06 0)
(3.07152e-06 -7.79742e-06 0)
(3.3988e-06 -8.5482e-06 0)
(3.76425e-06 -9.38321e-06 0)
(4.16096e-06 -1.02815e-05 0)
(4.57613e-06 -1.12095e-05 0)
(4.99857e-06 -1.21401e-05 0)
(5.42305e-06 -1.30619e-05 0)
(5.85012e-06 -1.3977e-05 0)
(6.28374e-06 -1.48947e-05 0)
(6.72879e-06 -1.58252e-05 0)
(7.18946e-06 -1.67766e-05 0)
(7.66879e-06 -1.77539e-05 0)
(8.16871e-06 -1.87595e-05 0)
(8.69063e-06 -1.97947e-05 0)
(9.23579e-06 -2.08605e-05 0)
(9.80547e-06 -2.19579e-05 0)
(1.0401e-05 -2.30879e-05 0)
(1.10237e-05 -2.42512e-05 0)
(1.16749e-05 -2.54482e-05 0)
(1.23558e-05 -2.66793e-05 0)
(1.30679e-05 -2.79447e-05 0)
(1.38129e-05 -2.92452e-05 0)
(1.45929e-05 -3.05815e-05 0)
(1.54104e-05 -3.19552e-05 0)
(1.62683e-05 -3.33679e-05 0)
(1.717e-05 -3.48218e-05 0)
(1.81194e-05 -3.63191e-05 0)
(1.91208e-05 -3.78625e-05 0)
(2.01795e-05 -3.9455e-05 0)
(2.13011e-05 -4.10996e-05 0)
(2.24922e-05 -4.27999e-05 0)
(2.37604e-05 -4.45597e-05 0)
(2.5114e-05 -4.63828e-05 0)
(2.65625e-05 -4.82729e-05 0)
(2.81158e-05 -5.02329e-05 0)
(2.97846e-05 -5.22645e-05 0)
(3.15808e-05 -5.43683e-05 0)
(3.35192e-05 -5.65459e-05 0)
(3.56214e-05 -5.88028e-05 0)
(3.79218e-05 -6.11534e-05 0)
(4.04718e-05 -6.36249e-05 0)
(4.3341e-05 -6.62539e-05 0)
(4.66011e-05 -6.90709e-05 0)
(5.02861e-05 -7.20623e-05 0)
(5.4332e-05 -7.5121e-05 0)
(5.85587e-05 -7.80399e-05 0)
(6.27789e-05 -8.06119e-05 0)
(6.70255e-05 -8.27792e-05 0)
(7.17944e-05 -8.46756e-05 0)
(7.85978e-05 -8.65717e-05 0)
(9.26145e-05 -8.88765e-05 0)
(0.000140425 -9.23006e-05 0)
(0.000447041 -9.83988e-05 0)
(0.00371695 -0.00011004 0)
(0.0265444 -0.000123809 0)
(0.0878325 -0.000142516 0)
(0.172467 -0.000170526 0)
(0.263736 -0.00020215 0)
(0.356857 -0.000246784 0)
(0.451178 -0.000366206 0)
(0.54727 -0.0006163 0)
(0.641372 -0.000824132 0)
(0.727551 -0.000936053 0)
(0.806709 -0.00112996 0)
(0.880395 -0.00141301 0)
(0.935941 -0.00214424 0)
(0.992906 -0.00201262 0)
(1.03103 -0.00160985 0)
(1.05965 -0.00351478 0)
(1.08425 -0.00541464 0)
(1.10594 -0.00682881 0)
(1.12533 -0.00793103 0)
(1.14278 -0.00882488 0)
(1.15854 -0.009575 0)
(1.17276 -0.0102157 0)
(1.18561 -0.0107756 0)
(1.19718 -0.0112687 0)
(1.20765 -0.0117151 0)
(1.21711 -0.0121158 0)
(1.22566 -0.0124821 0)
(1.23343 -0.0128186 0)
(1.24049 -0.0131285 0)
(1.24693 -0.0134163 0)
(1.2528 -0.013683 0)
(1.25818 -0.0139325 0)
(1.26312 -0.0141658 0)
(1.26766 -0.014385 0)
(1.27184 -0.01459 0)
(1.2757 -0.0147843 0)
(1.27927 -0.0149672 0)
(1.28258 -0.0151402 0)
(1.28565 -0.015304 0)
(1.28851 -0.0154593 0)
(1.29117 -0.0156073 0)
(1.29366 -0.015748 0)
(1.29598 -0.0158818 0)
(1.29816 -0.0160092 0)
(1.30021 -0.0161318 0)
(1.30213 -0.0162484 0)
(1.30394 -0.0163605 0)
(1.30565 -0.0164676 0)
(1.30727 -0.0165705 0)
(1.3088 -0.0166696 0)
(1.31026 -0.0167649 0)
(1.31165 -0.0168566 0)
(1.31297 -0.0169449 0)
(1.31423 -0.0170302 0)
(1.31544 -0.0171126 0)
(1.3166 -0.0171922 0)
(1.31771 -0.0172689 0)
(1.31879 -0.0173439 0)
(1.31982 -0.0174154 0)
(1.32082 -0.017485 0)
(1.32179 -0.0175527 0)
(1.32274 -0.0176184 0)
(1.32366 -0.0176819 0)
(1.32455 -0.0177434 0)
(1.32544 -0.0178037 0)
(1.32633 -0.017864 0)
(1.32724 -0.0179254 0)
(1.32814 -0.0179855 0)
(1.32902 -0.0180434 0)
(1.32989 -0.0181005 0)
(1.33079 -0.0181597 0)
(1.33171 -0.0182195 0)
(1.33261 -0.0182773 0)
(1.3335 -0.0183344 0)
(1.33441 -0.018393 0)
(1.33534 -0.0184523 0)
(1.33626 -0.0185105 0)
(1.33719 -0.0185688 0)
(1.33816 -0.0186296 0)
(1.33912 -0.0186905 0)
(1.34007 -0.0187493 0)
(1.34104 -0.0188097 0)
(1.34206 -0.0188736 0)
(1.34308 -0.0189372 0)
(1.34411 -0.0190008 0)
(1.34517 -0.0190672 0)
(1.34623 -0.0191336 0)
(1.34731 -0.0192009 0)
(1.34844 -0.0192724 0)
(1.34958 -0.0193448 0)
(1.35075 -0.0194188 0)
(1.35193 -0.0194948 0)
(1.35316 -0.0195737 0)
(1.35443 -0.0196563 0)
(1.35573 -0.0197415 0)
(1.35705 -0.0198289 0)
(1.35841 -0.0199197 0)
(1.35983 -0.0200159 0)
(1.36128 -0.0201148 0)
(1.36274 -0.0202149 0)
(1.36423 -0.0203187 0)
(1.36581 -0.0204305 0)
(1.36737 -0.0205416 0)
(1.36893 -0.020653 0)
(1.37053 -0.0207691 0)
(1.37209 -0.0208832 0)
(1.37357 -0.0209919 0)
(1.37493 -0.0210921 0)
(1.37605 -0.021172 0)
(1.37739 -0.0212779 0)
(1.4651 -0.0393979 0)
(1.46579 -0.0395443 0)
(1.46579 -0.0395444 0)
(1.46579 -0.0395443 0)
(1.46579 -0.0395444 0)
(1.46579 -0.0395443 0)
(1.46579 -0.0395444 0)
(1.46579 -0.0395443 0)
(1.46579 -0.0395444 0)
(1.46579 -0.0395443 0)
(1.46579 -0.0395444 0)
(1.46579 -0.0395443 0)
(1.46579 -0.0395444 0)
(1.46579 -0.0395443 0)
(1.46579 -0.0395444 0)
(1.46579 -0.0395443 0)
(1.46579 -0.0395443 0)
(1.46579 -0.0395443 0)
(1.46579 -0.0395443 0)
(1.46579 -0.0395443 0)
(1.46579 -0.0395443 0)
(1.46579 -0.0395443 0)
(1.46579 -0.0395443 0)
(1.46579 -0.0395443 0)
(1.46579 -0.0395443 0)
(1.46579 -0.0395443 0)
(1.46579 -0.0395443 0)
(1.46579 -0.0395443 0)
(1.46579 -0.0395443 0)
(1.46579 -0.0395443 0)
(1.46579 -0.0395443 0)
(1.46579 -0.0395443 0)
(1.46579 -0.0395443 0)
(1.46579 -0.0395443 0)
(1.46579 -0.0395443 0)
(1.46579 -0.0395443 0)
(1.46579 -0.0395443 0)
(1.46579 -0.0395443 0)
(1.46579 -0.0395443 0)
(1.46579 -0.0395443 0)
(1.46579 -0.0395443 0)
(1.46579 -0.0395443 0)
(1.46579 -0.0395443 0)
(1.46579 -0.0395443 0)
(1.46579 -0.0395443 0)
(1.46579 -0.0395443 0)
(1.46579 -0.0395443 0)
(1.46579 -0.0395443 0)
(1.46579 -0.0395443 0)
(1.46579 -0.0395443 0)
(1.46579 -0.0395443 0)
(1.46579 -0.0395443 0)
(1.46579 -0.0395443 0)
(1.46579 -0.0395443 0)
(1.46579 -0.0395443 0)
(1.46579 -0.0395443 0)
(1.46579 -0.0395443 0)
(1.46579 -0.0395443 0)
(1.46579 -0.0395443 0)
(1.46579 -0.0395443 0)
(1.46579 -0.0395443 0)
(1.46579 -0.0395443 0)
(1.46579 -0.0395443 0)
(1.46579 -0.0395443 0)
(1.46579 -0.0395443 0)
(1.46579 -0.0395443 0)
(1.46579 -0.0395443 0)
(1.46579 -0.0395443 0)
(1.46579 -0.0395443 0)
(1.46579 -0.0395443 0)
(1.46579 -0.0395443 0)
(1.46579 -0.0395443 0)
(1.46579 -0.0395443 0)
(1.46579 -0.0395443 0)
(1.46579 -0.0395443 0)
(1.46579 -0.0395443 0)
(1.46579 -0.0395443 0)
(1.46579 -0.0395443 0)
(1.46579 -0.0395443 0)
(1.46579 -0.0395443 0)
(1.46579 -0.0395443 0)
(1.46579 -0.0395443 0)
(1.46579 -0.0395443 0)
(1.46579 -0.0395443 0)
(1.46579 -0.0395443 0)
(1.46579 -0.0395443 0)
(1.46579 -0.0395443 0)
(1.46579 -0.0395443 0)
(1.46579 -0.0395443 0)
(1.46579 -0.0395443 0)
(1.46579 -0.0395443 0)
(1.46579 -0.0395443 0)
(1.46579 -0.0395443 0)
(1.46579 -0.0395443 0)
(1.46579 -0.0395443 0)
(1.46579 -0.0395443 0)
(1.46579 -0.0395443 0)
(1.46579 -0.0395443 0)
(1.46579 -0.0395443 0)
(1.46579 -0.0395443 0)
(1.46579 -0.0395443 0)
(1.46579 -0.0395443 0)
(1.46579 -0.0395443 0)
(1.46579 -0.0395443 0)
(1.46579 -0.0395443 0)
(1.46579 -0.0395443 0)
(1.46579 -0.0395443 0)
(1.46579 -0.0395443 0)
(1.46579 -0.0395441 0)
(1.46579 -0.0395357 0)
(1.46578 -0.0391909 0)
(1.46556 -0.0224885 0)
)
;

boundaryField
{
    inandouthalf11
    {
        type            cyclic;
    }
    inandouthalf12
    {
        type            cyclic;
    }
    inandouthalf21
    {
        type            cyclic;
    }
    inandouthalf22
    {
        type            cyclic;
    }
    inandouthalf31
    {
        type            cyclic;
    }
    inandouthalf32
    {
        type            cyclic;
    }
    inandouthalf41
    {
        type            cyclic;
    }
    inandouthalf42
    {
        type            cyclic;
    }
    top
    {
        type            symmetryPlane;
    }
    walls
    {
        type            fixedValue;
        value           uniform (0 0 0);
    }
    frontAndBackPlanes
    {
        type            empty;
    }
}


// ************************************************************************* //
