/*--------------------------------*- C++ -*----------------------------------*\
| =========                 |                                                 |
| \\      /  F ield         | OpenFOAM: The Open Source CFD Toolbox           |
|  \\    /   O peration     | Version:  2.4.x                                 |
|   \\  /    A nd           | Web:      www.OpenFOAM.org                      |
|    \\/     M anipulation  |                                                 |
\*---------------------------------------------------------------------------*/
FoamFile
{
    version     2.0;
    format      ascii;
    class       volVectorField;
    location    "1.4";
    object      Ua_0;
}
// * * * * * * * * * * * * * * * * * * * * * * * * * * * * * * * * * * * * * //

dimensions      [0 1 -1 0 0 0 0];

internalField   nonuniform List<vector> 
360
(
(1.14707e-36 -4.66611e-36 0)
(1.14708e-36 -4.66319e-36 0)
(1.14712e-36 -4.66339e-36 0)
(1.14722e-36 -4.66354e-36 0)
(1.14737e-36 -4.66387e-36 0)
(1.14759e-36 -4.66437e-36 0)
(1.14787e-36 -4.66504e-36 0)
(1.14821e-36 -4.66587e-36 0)
(1.14861e-36 -4.66687e-36 0)
(1.14908e-36 -4.66802e-36 0)
(1.14962e-36 -4.66934e-36 0)
(1.15021e-36 -4.67081e-36 0)
(1.15088e-36 -4.67244e-36 0)
(1.15161e-36 -4.67422e-36 0)
(1.15241e-36 -4.67615e-36 0)
(1.15327e-36 -4.67823e-36 0)
(1.1542e-36 -4.68046e-36 0)
(1.1552e-36 -4.68283e-36 0)
(1.15627e-36 -4.68534e-36 0)
(1.15741e-36 -4.688e-36 0)
(1.15862e-36 -4.69079e-36 0)
(1.1599e-36 -4.69372e-36 0)
(1.16125e-36 -4.69679e-36 0)
(1.16267e-36 -4.69999e-36 0)
(1.16416e-36 -4.70333e-36 0)
(1.16572e-36 -4.7068e-36 0)
(1.16735e-36 -4.71039e-36 0)
(1.16906e-36 -4.71411e-36 0)
(1.17084e-36 -4.71796e-36 0)
(1.17269e-36 -4.72194e-36 0)
(1.17461e-36 -4.72604e-36 0)
(1.17661e-36 -4.73027e-36 0)
(1.17868e-36 -4.73462e-36 0)
(1.18083e-36 -4.7391e-36 0)
(1.18305e-36 -4.74371e-36 0)
(1.18535e-36 -4.74844e-36 0)
(1.18772e-36 -4.75331e-36 0)
(1.19018e-36 -4.7583e-36 0)
(1.19271e-36 -4.76344e-36 0)
(1.19533e-36 -4.76872e-36 0)
(1.19803e-36 -4.77413e-36 0)
(1.20081e-36 -4.7797e-36 0)
(1.20368e-36 -4.78541e-36 0)
(1.20664e-36 -4.79129e-36 0)
(1.20969e-36 -4.79733e-36 0)
(1.21283e-36 -4.80354e-36 0)
(1.21607e-36 -4.80994e-36 0)
(1.21941e-36 -4.81652e-36 0)
(1.22285e-36 -4.8233e-36 0)
(1.22641e-36 -4.83031e-36 0)
(1.23008e-36 -4.83756e-36 0)
(1.23387e-36 -4.84507e-36 0)
(1.23779e-36 -4.85285e-36 0)
(1.24186e-36 -4.86094e-36 0)
(1.24607e-36 -4.86936e-36 0)
(1.25044e-36 -4.87815e-36 0)
(1.25499e-36 -4.88734e-36 0)
(1.25973e-36 -4.897e-36 0)
(1.26469e-36 -4.90717e-36 0)
(1.26989e-36 -4.91793e-36 0)
(1.27536e-36 -4.92935e-36 0)
(1.28114e-36 -4.94156e-36 0)
(1.28728e-36 -4.95466e-36 0)
(1.29384e-36 -4.96886e-36 0)
(1.30089e-36 -4.98429e-36 0)
(1.30856e-36 -5.00135e-36 0)
(1.31695e-36 -5.02024e-36 0)
(1.32639e-36 -5.0419e-36 0)
(1.33704e-36 -5.06667e-36 0)
(1.35014e-36 -5.09764e-36 0)
(1.36701e-36 -5.1378e-36 0)
(1.39506e-36 -5.20548e-36 0)
(1.45542e-36 -5.35127e-36 0)
(1.73013e-36 -6.03246e-36 0)
(4.59298e-36 -1.33449e-35 0)
(2.70802e-34 -7.19449e-34 0)
(2.91675e-26 -8.05505e-26 0)
(3.45984e-08 -9.92413e-08 0)
(2.65195e-07 -7.71628e-07 0)
(7.81476e-07 -2.23468e-06 0)
(1.37066e-06 -3.7937e-06 0)
(1.84493e-06 -4.96092e-06 0)
(2.20221e-06 -5.79972e-06 0)
(2.49786e-06 -6.47978e-06 0)
(2.77772e-06 -7.12061e-06 0)
(3.07257e-06 -7.79658e-06 0)
(3.40047e-06 -8.54857e-06 0)
(3.76637e-06 -9.38441e-06 0)
(4.16336e-06 -1.0283e-05 0)
(4.57862e-06 -1.1211e-05 0)
(5.00105e-06 -1.21414e-05 0)
(5.42546e-06 -1.30629e-05 0)
(5.85247e-06 -1.39776e-05 0)
(6.28608e-06 -1.4895e-05 0)
(6.73117e-06 -1.58253e-05 0)
(7.19197e-06 -1.67768e-05 0)
(7.67149e-06 -1.77542e-05 0)
(8.17167e-06 -1.876e-05 0)
(8.69389e-06 -1.97955e-05 0)
(9.23937e-06 -2.08617e-05 0)
(9.80938e-06 -2.19594e-05 0)
(1.04053e-05 -2.30897e-05 0)
(1.10283e-05 -2.42533e-05 0)
(1.16798e-05 -2.54507e-05 0)
(1.2361e-05 -2.6682e-05 0)
(1.30735e-05 -2.79477e-05 0)
(1.38188e-05 -2.92483e-05 0)
(1.45992e-05 -3.05849e-05 0)
(1.5417e-05 -3.19588e-05 0)
(1.62753e-05 -3.33717e-05 0)
(1.71773e-05 -3.48257e-05 0)
(1.81271e-05 -3.63232e-05 0)
(1.9129e-05 -3.78669e-05 0)
(2.01882e-05 -3.94596e-05 0)
(2.13103e-05 -4.11045e-05 0)
(2.2502e-05 -4.28051e-05 0)
(2.37707e-05 -4.45653e-05 0)
(2.51251e-05 -4.63887e-05 0)
(2.65742e-05 -4.82792e-05 0)
(2.81283e-05 -5.02396e-05 0)
(2.97979e-05 -5.22715e-05 0)
(3.1595e-05 -5.43757e-05 0)
(3.35342e-05 -5.65536e-05 0)
(3.56375e-05 -5.88108e-05 0)
(3.79389e-05 -6.11618e-05 0)
(4.04903e-05 -6.36337e-05 0)
(4.33609e-05 -6.62632e-05 0)
(4.66227e-05 -6.90807e-05 0)
(5.03092e-05 -7.20722e-05 0)
(5.43561e-05 -7.51306e-05 0)
(5.85831e-05 -7.80482e-05 0)
(6.28031e-05 -8.06185e-05 0)
(6.70504e-05 -8.27843e-05 0)
(7.18234e-05 -8.46801e-05 0)
(7.86402e-05 -8.65768e-05 0)
(9.27072e-05 -8.88841e-05 0)
(0.00014079 -9.23143e-05 0)
(0.000449881 -9.84253e-05 0)
(0.00374771 -0.000110077 0)
(0.0266954 -0.000123827 0)
(0.0881079 -0.000142599 0)
(0.172782 -0.000170633 0)
(0.264055 -0.000202244 0)
(0.357172 -0.000246865 0)
(0.451491 -0.000366909 0)
(0.547578 -0.000617327 0)
(0.641649 -0.000824556 0)
(0.727785 -0.000936752 0)
(0.806896 -0.00113111 0)
(0.880536 -0.00141436 0)
(0.936037 -0.0021446 0)
(0.992919 -0.00202503 0)
(1.03104 -0.00162191 0)
(1.05965 -0.00352648 0)
(1.08425 -0.0054264 0)
(1.10594 -0.00684054 0)
(1.12533 -0.00794269 0)
(1.14278 -0.00883643 0)
(1.15854 -0.00958645 0)
(1.17275 -0.0102271 0)
(1.1856 -0.0107869 0)
(1.19717 -0.0112799 0)
(1.20764 -0.0117262 0)
(1.2171 -0.0121269 0)
(1.22566 -0.0124931 0)
(1.23343 -0.0128296 0)
(1.24049 -0.0131394 0)
(1.24693 -0.0134271 0)
(1.2528 -0.0136938 0)
(1.25818 -0.0139433 0)
(1.26311 -0.0141765 0)
(1.26766 -0.0143957 0)
(1.27183 -0.0146007 0)
(1.27569 -0.014795 0)
(1.27927 -0.0149778 0)
(1.28257 -0.0151508 0)
(1.28565 -0.0153145 0)
(1.2885 -0.0154697 0)
(1.29117 -0.0156177 0)
(1.29365 -0.0157583 0)
(1.29598 -0.0158921 0)
(1.29815 -0.0160194 0)
(1.3002 -0.0161419 0)
(1.30212 -0.0162585 0)
(1.30393 -0.0163704 0)
(1.30564 -0.0164775 0)
(1.30726 -0.0165803 0)
(1.30879 -0.0166793 0)
(1.31025 -0.0167746 0)
(1.31164 -0.0168662 0)
(1.31296 -0.0169544 0)
(1.31422 -0.0170396 0)
(1.31543 -0.017122 0)
(1.31658 -0.0172015 0)
(1.3177 -0.0172782 0)
(1.31878 -0.0173531 0)
(1.31981 -0.0174245 0)
(1.32081 -0.017494 0)
(1.32178 -0.0175616 0)
(1.32272 -0.0176273 0)
(1.32364 -0.0176908 0)
(1.32454 -0.0177522 0)
(1.32542 -0.0178124 0)
(1.32632 -0.0178727 0)
(1.32723 -0.0179339 0)
(1.32812 -0.017994 0)
(1.329 -0.0180518 0)
(1.32987 -0.0181089 0)
(1.33078 -0.018168 0)
(1.33169 -0.0182278 0)
(1.33259 -0.0182855 0)
(1.33348 -0.0183425 0)
(1.33439 -0.0184011 0)
(1.33532 -0.0184603 0)
(1.33624 -0.0185185 0)
(1.33717 -0.0185767 0)
(1.33813 -0.0186374 0)
(1.3391 -0.0186983 0)
(1.34005 -0.0187571 0)
(1.34102 -0.0188174 0)
(1.34204 -0.0188812 0)
(1.34306 -0.0189448 0)
(1.34408 -0.0190084 0)
(1.34514 -0.0190747 0)
(1.3462 -0.0191411 0)
(1.34728 -0.0192083 0)
(1.34841 -0.0192798 0)
(1.34955 -0.0193521 0)
(1.35072 -0.0194261 0)
(1.3519 -0.019502 0)
(1.35313 -0.0195808 0)
(1.3544 -0.0196634 0)
(1.35569 -0.0197485 0)
(1.35702 -0.0198359 0)
(1.35838 -0.0199266 0)
(1.3598 -0.0200227 0)
(1.36125 -0.0201216 0)
(1.3627 -0.0202216 0)
(1.3642 -0.0203254 0)
(1.36577 -0.0204371 0)
(1.36734 -0.0205481 0)
(1.36889 -0.0206594 0)
(1.37049 -0.0207754 0)
(1.37205 -0.0208894 0)
(1.37353 -0.0209981 0)
(1.37489 -0.0210982 0)
(1.37601 -0.0211781 0)
(1.37735 -0.021284 0)
(1.465 -0.0393905 0)
(1.46572 -0.0395443 0)
(1.46572 -0.0395444 0)
(1.46573 -0.0395442 0)
(1.46573 -0.0395444 0)
(1.46573 -0.0395442 0)
(1.46573 -0.0395444 0)
(1.46573 -0.0395443 0)
(1.46573 -0.0395444 0)
(1.46573 -0.0395443 0)
(1.46573 -0.0395444 0)
(1.46573 -0.0395443 0)
(1.46573 -0.0395443 0)
(1.46573 -0.0395443 0)
(1.46573 -0.0395443 0)
(1.46573 -0.0395443 0)
(1.46573 -0.0395443 0)
(1.46573 -0.0395443 0)
(1.46573 -0.0395443 0)
(1.46573 -0.0395443 0)
(1.46573 -0.0395443 0)
(1.46573 -0.0395443 0)
(1.46573 -0.0395443 0)
(1.46573 -0.0395443 0)
(1.46573 -0.0395443 0)
(1.46573 -0.0395443 0)
(1.46573 -0.0395443 0)
(1.46573 -0.0395443 0)
(1.46573 -0.0395443 0)
(1.46573 -0.0395443 0)
(1.46573 -0.0395443 0)
(1.46573 -0.0395443 0)
(1.46573 -0.0395443 0)
(1.46573 -0.0395443 0)
(1.46573 -0.0395443 0)
(1.46573 -0.0395443 0)
(1.46573 -0.0395443 0)
(1.46573 -0.0395443 0)
(1.46573 -0.0395443 0)
(1.46573 -0.0395443 0)
(1.46573 -0.0395443 0)
(1.46573 -0.0395443 0)
(1.46573 -0.0395443 0)
(1.46573 -0.0395443 0)
(1.46573 -0.0395443 0)
(1.46573 -0.0395443 0)
(1.46573 -0.0395443 0)
(1.46573 -0.0395443 0)
(1.46573 -0.0395443 0)
(1.46573 -0.0395443 0)
(1.46573 -0.0395443 0)
(1.46573 -0.0395443 0)
(1.46573 -0.0395443 0)
(1.46573 -0.0395443 0)
(1.46573 -0.0395443 0)
(1.46573 -0.0395443 0)
(1.46573 -0.0395443 0)
(1.46573 -0.0395443 0)
(1.46573 -0.0395443 0)
(1.46573 -0.0395443 0)
(1.46573 -0.0395443 0)
(1.46573 -0.0395443 0)
(1.46573 -0.0395443 0)
(1.46573 -0.0395443 0)
(1.46573 -0.0395443 0)
(1.46573 -0.0395443 0)
(1.46573 -0.0395443 0)
(1.46573 -0.0395443 0)
(1.46573 -0.0395443 0)
(1.46573 -0.0395443 0)
(1.46573 -0.0395443 0)
(1.46573 -0.0395443 0)
(1.46573 -0.0395443 0)
(1.46573 -0.0395443 0)
(1.46573 -0.0395443 0)
(1.46573 -0.0395443 0)
(1.46573 -0.0395443 0)
(1.46573 -0.0395443 0)
(1.46573 -0.0395443 0)
(1.46573 -0.0395443 0)
(1.46573 -0.0395443 0)
(1.46573 -0.0395443 0)
(1.46573 -0.0395443 0)
(1.46573 -0.0395443 0)
(1.46573 -0.0395443 0)
(1.46573 -0.0395443 0)
(1.46573 -0.0395443 0)
(1.46573 -0.0395443 0)
(1.46573 -0.0395443 0)
(1.46573 -0.0395443 0)
(1.46573 -0.0395443 0)
(1.46573 -0.0395443 0)
(1.46573 -0.0395443 0)
(1.46573 -0.0395443 0)
(1.46573 -0.0395443 0)
(1.46573 -0.0395443 0)
(1.46573 -0.0395443 0)
(1.46573 -0.0395443 0)
(1.46573 -0.0395443 0)
(1.46573 -0.0395443 0)
(1.46573 -0.0395443 0)
(1.46573 -0.0395443 0)
(1.46573 -0.0395443 0)
(1.46573 -0.0395443 0)
(1.46573 -0.0395443 0)
(1.46573 -0.0395443 0)
(1.46573 -0.0395443 0)
(1.46573 -0.0395443 0)
(1.46573 -0.0395441 0)
(1.46573 -0.0395357 0)
(1.46572 -0.0391909 0)
(1.46549 -0.0224885 0)
)
;

boundaryField
{
    inandouthalf11
    {
        type            cyclic;
    }
    inandouthalf12
    {
        type            cyclic;
    }
    inandouthalf21
    {
        type            cyclic;
    }
    inandouthalf22
    {
        type            cyclic;
    }
    inandouthalf31
    {
        type            cyclic;
    }
    inandouthalf32
    {
        type            cyclic;
    }
    inandouthalf41
    {
        type            cyclic;
    }
    inandouthalf42
    {
        type            cyclic;
    }
    top
    {
        type            symmetryPlane;
    }
    walls
    {
        type            fixedValue;
        value           uniform (0 0 0);
    }
    frontAndBackPlanes
    {
        type            empty;
    }
}


// ************************************************************************* //
