/*--------------------------------*- C++ -*----------------------------------*\
| =========                 |                                                 |
| \\      /  F ield         | OpenFOAM: The Open Source CFD Toolbox           |
|  \\    /   O peration     | Version:  2.4.x                                 |
|   \\  /    A nd           | Web:      www.OpenFOAM.org                      |
|    \\/     M anipulation  |                                                 |
\*---------------------------------------------------------------------------*/
FoamFile
{
    version     2.0;
    format      ascii;
    class       volVectorField;
    location    "1.4";
    object      Ub;
}
// * * * * * * * * * * * * * * * * * * * * * * * * * * * * * * * * * * * * * //

dimensions      [0 1 -1 0 0 0 0];

internalField   nonuniform List<vector> 
360
(
(7.01837e-05 6.30177e-14 0)
(7.03036e-05 1.89209e-13 0)
(7.03043e-05 3.16026e-13 0)
(7.03043e-05 4.43224e-13 0)
(7.03043e-05 5.70244e-13 0)
(7.03049e-05 6.97624e-13 0)
(7.03049e-05 8.25201e-13 0)
(7.03055e-05 9.52776e-13 0)
(7.03055e-05 1.08028e-12 0)
(7.0306e-05 1.20769e-12 0)
(7.03066e-05 1.33457e-12 0)
(7.03066e-05 1.46115e-12 0)
(7.03072e-05 1.58767e-12 0)
(7.03078e-05 1.71396e-12 0)
(7.03084e-05 1.83971e-12 0)
(7.0309e-05 1.96532e-12 0)
(7.03096e-05 2.09071e-12 0)
(7.03102e-05 2.21547e-12 0)
(7.03108e-05 2.33993e-12 0)
(7.0312e-05 2.46419e-12 0)
(7.03126e-05 2.58777e-12 0)
(7.03137e-05 2.71124e-12 0)
(7.03149e-05 2.83415e-12 0)
(7.03161e-05 2.95622e-12 0)
(7.03173e-05 3.07766e-12 0)
(7.03185e-05 3.19846e-12 0)
(7.03197e-05 3.31877e-12 0)
(7.03214e-05 3.43859e-12 0)
(7.03232e-05 3.55784e-12 0)
(7.0325e-05 3.67653e-12 0)
(7.03268e-05 3.79458e-12 0)
(7.03291e-05 3.91198e-12 0)
(7.03309e-05 4.02868e-12 0)
(7.03339e-05 4.14485e-12 0)
(7.03362e-05 4.26005e-12 0)
(7.03392e-05 4.37472e-12 0)
(7.03421e-05 4.48851e-12 0)
(7.03457e-05 4.60181e-12 0)
(7.03498e-05 4.71439e-12 0)
(7.03534e-05 4.82601e-12 0)
(7.03581e-05 4.93705e-12 0)
(7.03629e-05 5.04722e-12 0)
(7.03676e-05 5.15627e-12 0)
(7.03735e-05 5.26457e-12 0)
(7.03794e-05 5.37194e-12 0)
(7.03859e-05 5.47871e-12 0)
(7.03931e-05 5.58478e-12 0)
(7.04002e-05 5.6895e-12 0)
(7.04085e-05 5.79333e-12 0)
(7.04179e-05 5.89666e-12 0)
(7.04274e-05 5.99885e-12 0)
(7.04381e-05 6.1001e-12 0)
(7.04493e-05 6.20041e-12 0)
(7.04618e-05 6.29996e-12 0)
(7.04748e-05 6.39846e-12 0)
(7.04896e-05 6.49586e-12 0)
(7.05051e-05 6.59213e-12 0)
(7.05223e-05 6.68747e-12 0)
(7.05407e-05 6.78177e-12 0)
(7.05602e-05 6.8749e-12 0)
(7.05822e-05 6.96682e-12 0)
(7.06054e-05 7.05776e-12 0)
(7.06309e-05 7.14803e-12 0)
(7.06582e-05 7.23694e-12 0)
(7.06879e-05 7.32429e-12 0)
(7.072e-05 7.41069e-12 0)
(7.07551e-05 7.49577e-12 0)
(7.07932e-05 7.57963e-12 0)
(7.08343e-05 7.66276e-12 0)
(7.08784e-05 7.74451e-12 0)
(7.09267e-05 7.82424e-12 0)
(7.09791e-05 7.90269e-12 0)
(7.10352e-05 7.25128e-12 0)
(7.10968e-05 3.8095e-11 0)
(7.11631e-05 -2.138e-10 0)
(7.12355e-05 8.17925e-10 0)
(7.13131e-05 -3.49471e-09 0)
(7.14228e-05 2.84591e-07 0)
(7.16961e-05 1.45524e-06 0)
(7.22045e-05 3.51791e-06 0)
(7.27678e-05 5.75723e-06 0)
(7.32364e-05 7.58497e-06 0)
(7.3614e-05 8.94583e-06 0)
(7.3947e-05 1.00425e-05 0)
(7.42726e-05 1.10601e-05 0)
(7.46153e-05 1.21185e-05 0)
(7.49896e-05 1.32818e-05 0)
(7.53985e-05 1.45639e-05 0)
(7.58356e-05 1.59384e-05 0)
(7.62896e-05 1.73606e-05 0)
(7.67512e-05 1.8792e-05 0)
(7.72165e-05 2.0214e-05 0)
(7.76862e-05 2.16275e-05 0)
(7.81643e-05 2.30443e-05 0)
(7.86549e-05 2.4479e-05 0)
(7.91622e-05 2.59438e-05 0)
(7.96888e-05 2.74465e-05 0)
(8.0237e-05 2.89913e-05 0)
(8.08081e-05 3.05804e-05 0)
(8.14038e-05 3.22155e-05 0)
(8.20251e-05 3.38979e-05 0)
(8.26736e-05 3.56289e-05 0)
(8.33505e-05 3.74096e-05 0)
(8.40572e-05 3.92406e-05 0)
(8.47949e-05 4.11224e-05 0)
(8.55652e-05 4.30552e-05 0)
(8.63698e-05 4.50401e-05 0)
(8.7211e-05 4.70783e-05 0)
(8.80912e-05 4.91718e-05 0)
(8.90134e-05 5.13231e-05 0)
(8.99812e-05 5.35352e-05 0)
(9.09985e-05 5.58114e-05 0)
(9.20699e-05 5.81557e-05 0)
(9.32005e-05 6.05723e-05 0)
(9.43961e-05 6.30658e-05 0)
(9.56635e-05 6.56413e-05 0)
(9.70104e-05 6.83041e-05 0)
(9.84452e-05 7.10598e-05 0)
(9.99775e-05 7.39134e-05 0)
(0.000101617 7.68689e-05 0)
(0.000103376 7.99285e-05 0)
(0.000105264 8.30937e-05 0)
(0.000107297 8.63676e-05 0)
(0.000109497 8.97599e-05 0)
(0.000111899 9.3293e-05 0)
(0.000114555 9.70058e-05 0)
(0.000117536 0.000100946 0)
(0.000120915 0.000105146 0)
(0.000124723 0.000109565 0)
(0.000128893 0.000114046 0)
(0.000133236 0.000118317 0)
(0.000137558 0.000122122 0)
(0.00014189 0.00012539 0)
(0.000146739 0.000128311 0)
(0.000153636 0.000131344 0)
(0.000167866 0.000135369 0)
(0.000216415 0.000141767 0)
(0.000528897 0.000151326 0)
(0.00384718 0.000163616 0)
(0.0268302 0.000181476 0)
(0.0882494 0.000212397 0)
(0.172919 0.00025383 0)
(0.264194 0.000299663 0)
(0.357318 0.000360626 0)
(0.451656 0.000503186 0)
(0.547796 0.000813002 0)
(0.641871 0.00103678 0)
(0.728002 0.00111585 0)
(0.807131 0.00128836 0)
(0.880729 0.00173475 0)
(0.936232 0.00117124 0)
(0.995871 0.00207369 0)
(1.04856 -0.00161648 0)
(1.09681 0.00148625 0)
(1.14312 -0.00133792 0)
(1.18618 0.0012131 0)
(1.22518 -0.00108261 0)
(1.25983 0.000973113 0)
(1.28994 -0.000860435 0)
(1.31577 0.00076645 0)
(1.33741 -0.000671 0)
(1.35531 0.000592033 0)
(1.36989 -0.000512704 0)
(1.38165 0.000447653 0)
(1.39125 -0.000382781 0)
(1.39909 0.000330191 0)
(1.4057 -0.000278045 0)
(1.41132 0.000236347 0)
(1.41625 -0.000195127 0)
(1.42058 0.000162708 0)
(1.42447 -0.000130695 0)
(1.42796 0.000106011 0)
(1.43113 -8.15839e-05 0)
(1.43402 6.32271e-05 0)
(1.43665 -4.49823e-05 0)
(1.43906 3.17207e-05 0)
(1.44126 -1.84115e-05 0)
(1.44328 9.16845e-06 0)
(1.44514 2.52698e-07 0)
(1.44685 -6.38689e-06 0)
(1.44842 1.2809e-05 0)
(1.44987 -1.65738e-05 0)
(1.4512 2.0705e-05 0)
(1.45243 -2.27139e-05 0)
(1.45357 2.51449e-05 0)
(1.45461 -2.58818e-05 0)
(1.45558 2.70826e-05 0)
(1.45646 -2.70156e-05 0)
(1.45729 2.72487e-05 0)
(1.45804 -2.65102e-05 0)
(1.45875 2.62396e-05 0)
(1.45939 -2.51299e-05 0)
(1.45999 2.44749e-05 0)
(1.46054 -2.31609e-05 0)
(1.46105 2.22798e-05 0)
(1.46152 -2.08817e-05 0)
(1.46195 1.98876e-05 0)
(1.46235 -1.84848e-05 0)
(1.46272 1.74549e-05 0)
(1.46306 -1.61076e-05 0)
(1.46338 1.50992e-05 0)
(1.46367 -1.41321e-05 0)
(1.46395 1.34549e-05 0)
(1.46421 -1.25572e-05 0)
(1.46445 1.19062e-05 0)
(1.46468 -1.10811e-05 0)
(1.46489 1.04714e-05 0)
(1.46509 -9.71501e-06 0)
(1.46527 9.14354e-06 0)
(1.46545 -8.46083e-06 0)
(1.4656 7.93328e-06 0)
(1.46575 -7.31521e-06 0)
(1.46589 6.83029e-06 0)
(1.46601 -6.27734e-06 0)
(1.46613 5.83578e-06 0)
(1.46623 -5.34154e-06 0)
(1.46633 4.94093e-06 0)
(1.46642 -4.50296e-06 0)
(1.4665 4.14392e-06 0)
(1.46657 -3.75678e-06 0)
(1.46664 3.43516e-06 0)
(1.4667 -3.09588e-06 0)
(1.46675 2.81137e-06 0)
(1.4668 -2.51564e-06 0)
(1.46684 2.26544e-06 0)
(1.46688 -2.0092e-06 0)
(1.46692 1.79089e-06 0)
(1.46695 -1.57103e-06 0)
(1.46698 1.38268e-06 0)
(1.467 -1.1955e-06 0)
(1.46702 1.03457e-06 0)
(1.46704 -8.7697e-07 0)
(1.46706 7.41094e-07 0)
(1.46707 -6.09835e-07 0)
(1.46709 4.96728e-07 0)
(1.4671 -3.89017e-07 0)
(1.46711 2.96328e-07 0)
(1.46712 -2.09302e-07 0)
(1.46712 1.34851e-07 0)
(1.46713 -6.60927e-08 0)
(1.46714 7.67883e-09 0)
(1.46714 4.53288e-08 0)
(1.46714 -8.97545e-08 0)
(1.46715 1.29148e-07 0)
(1.46715 -1.61467e-07 0)
(1.46715 1.89343e-07 0)
(1.46715 -2.11311e-07 0)
(1.46716 2.29604e-07 0)
(1.46716 -2.42801e-07 0)
(1.46716 2.53045e-07 0)
(1.46716 -2.59449e-07 0)
(1.46716 2.63055e-07 0)
(1.46716 -2.63746e-07 0)
(1.46716 2.6219e-07 0)
(1.46716 -2.58404e-07 0)
(1.46716 2.52886e-07 0)
(1.46716 -2.45708e-07 0)
(1.46716 2.37251e-07 0)
(1.46716 -2.27621e-07 0)
(1.46716 2.17113e-07 0)
(1.46716 -2.0584e-07 0)
(1.46716 1.9403e-07 0)
(1.46716 -1.81792e-07 0)
(1.46716 1.69303e-07 0)
(1.46716 -1.56661e-07 0)
(1.46716 1.44004e-07 0)
(1.46716 -1.31411e-07 0)
(1.46716 1.18989e-07 0)
(1.46716 -1.06801e-07 0)
(1.46716 9.49268e-08 0)
(1.46716 -8.34127e-08 0)
(1.46716 7.23169e-08 0)
(1.46716 -6.16701e-08 0)
(1.46716 5.15126e-08 0)
(1.46716 -4.18615e-08 0)
(1.46716 3.27422e-08 0)
(1.46716 -2.41601e-08 0)
(1.46716 1.61285e-08 0)
(1.46716 -8.64316e-09 0)
(1.46716 1.70757e-09 0)
(1.46716 4.69002e-09 0)
(1.46716 -1.0554e-08 0)
(1.46716 1.59019e-08 0)
(1.46716 -2.0744e-08 0)
(1.46716 2.5102e-08 0)
(1.46716 -2.89908e-08 0)
(1.46716 3.24349e-08 0)
(1.46716 -3.54525e-08 0)
(1.46716 3.807e-08 0)
(1.46716 -4.03076e-08 0)
(1.46716 4.21919e-08 0)
(1.46716 -4.37419e-08 0)
(1.46716 4.50492e-08 0)
(1.46716 -4.59891e-08 0)
(1.46716 4.65716e-08 0)
(1.46716 -4.70239e-08 0)
(1.46716 4.72655e-08 0)
(1.46716 -4.73091e-08 0)
(1.46716 4.71769e-08 0)
(1.46716 -4.6888e-08 0)
(1.46716 4.64625e-08 0)
(1.46716 -4.59181e-08 0)
(1.46716 4.52726e-08 0)
(1.46716 -4.45419e-08 0)
(1.46716 4.37417e-08 0)
(1.46716 -4.2886e-08 0)
(1.46716 4.19884e-08 0)
(1.46716 -4.1061e-08 0)
(1.46716 4.01153e-08 0)
(1.46716 -3.91614e-08 0)
(1.46716 3.34148e-08 0)
(1.46716 -3.1712e-08 0)
(1.46716 3.00428e-08 0)
(1.46716 -2.84132e-08 0)
(1.46716 2.6828e-08 0)
(1.46716 -2.52913e-08 0)
(1.46716 2.38061e-08 0)
(1.46716 -2.23752e-08 0)
(1.46716 2.10002e-08 0)
(1.46716 -1.96827e-08 0)
(1.46716 1.84231e-08 0)
(1.46716 -1.7222e-08 0)
(1.46716 1.6079e-08 0)
(1.46716 -1.49941e-08 0)
(1.46716 1.3966e-08 0)
(1.46716 -1.29942e-08 0)
(1.46716 1.20768e-08 0)
(1.46716 -1.12133e-08 0)
(1.46716 1.04007e-08 0)
(1.46716 -9.63932e-09 0)
(1.46716 8.92429e-09 0)
(1.46716 -8.25803e-09 0)
(1.46716 7.63282e-09 0)
(1.46716 -7.05391e-09 0)
(1.46716 6.51048e-09 0)
(1.46716 -6.01054e-09 0)
(1.46716 5.523e-09 0)
(1.46716 -5.06155e-09 0)
(1.46716 4.6112e-09 0)
(1.46716 -4.18903e-09 0)
(1.46716 3.77663e-09 0)
(1.46716 -3.3945e-09 0)
(1.46716 3.02078e-09 0)
(1.46716 -2.67953e-09 0)
(1.46716 2.34512e-09 0)
(1.46716 -2.04577e-09 0)
(1.46716 1.75079e-09 0)
(1.46716 -1.49435e-09 0)
(1.46716 1.23971e-09 0)
(1.46716 -1.02697e-09 0)
(1.46716 8.137e-10 0)
(1.46716 -6.45228e-10 0)
(1.46716 4.74554e-10 0)
(1.46716 -3.51579e-10 0)
(1.46716 2.23351e-10 0)
(1.46716 -1.46417e-10 0)
(1.46716 6.33965e-11 0)
(1.46716 -3.20961e-11 0)
(1.46716 -3.6947e-12 0)
(1.46716 -3.56149e-12 0)
)
;

boundaryField
{
    inandouthalf11
    {
        type            cyclic;
    }
    inandouthalf12
    {
        type            cyclic;
    }
    inandouthalf21
    {
        type            cyclic;
    }
    inandouthalf22
    {
        type            cyclic;
    }
    inandouthalf31
    {
        type            cyclic;
    }
    inandouthalf32
    {
        type            cyclic;
    }
    inandouthalf41
    {
        type            cyclic;
    }
    inandouthalf42
    {
        type            cyclic;
    }
    top
    {
        type            symmetryPlane;
    }
    walls
    {
        type            fixedValue;
        value           uniform (0 0 0);
    }
    frontAndBackPlanes
    {
        type            empty;
    }
}


// ************************************************************************* //
