/*--------------------------------*- C++ -*----------------------------------*\
| =========                 |                                                 |
| \\      /  F ield         | OpenFOAM: The Open Source CFD Toolbox           |
|  \\    /   O peration     | Version:  2.4.x                                 |
|   \\  /    A nd           | Web:      www.OpenFOAM.org                      |
|    \\/     M anipulation  |                                                 |
\*---------------------------------------------------------------------------*/
FoamFile
{
    version     2.0;
    format      ascii;
    class       volVectorField;
    location    "1.4";
    object      Ub_0;
}
// * * * * * * * * * * * * * * * * * * * * * * * * * * * * * * * * * * * * * //

dimensions      [0 1 -1 0 0 0 0];

internalField   nonuniform List<vector> 
360
(
(7.02537e-05 6.40642e-14 0)
(7.03737e-05 1.92538e-13 0)
(7.03744e-05 3.21358e-13 0)
(7.03744e-05 4.50736e-13 0)
(7.03744e-05 5.8031e-13 0)
(7.03749e-05 7.09646e-13 0)
(7.03749e-05 8.38863e-13 0)
(7.03755e-05 9.68313e-13 0)
(7.03755e-05 1.09771e-12 0)
(7.03761e-05 1.2269e-12 0)
(7.03767e-05 1.35576e-12 0)
(7.03767e-05 1.48478e-12 0)
(7.03773e-05 1.61384e-12 0)
(7.03779e-05 1.74231e-12 0)
(7.03785e-05 1.87014e-12 0)
(7.03791e-05 1.99767e-12 0)
(7.03797e-05 2.12483e-12 0)
(7.03803e-05 2.25164e-12 0)
(7.03809e-05 2.37816e-12 0)
(7.03821e-05 2.50417e-12 0)
(7.03826e-05 2.62953e-12 0)
(7.03838e-05 2.75437e-12 0)
(7.0385e-05 2.87885e-12 0)
(7.03862e-05 3.0032e-12 0)
(7.03874e-05 3.12668e-12 0)
(7.03886e-05 3.24965e-12 0)
(7.03898e-05 3.37231e-12 0)
(7.03915e-05 3.49431e-12 0)
(7.03933e-05 3.61555e-12 0)
(7.03951e-05 3.73607e-12 0)
(7.03969e-05 3.85593e-12 0)
(7.03992e-05 3.9754e-12 0)
(7.0401e-05 4.09422e-12 0)
(7.0404e-05 4.21236e-12 0)
(7.04063e-05 4.3298e-12 0)
(7.04093e-05 4.44683e-12 0)
(7.04123e-05 4.56292e-12 0)
(7.04158e-05 4.67809e-12 0)
(7.042e-05 4.79257e-12 0)
(7.04235e-05 4.90621e-12 0)
(7.04283e-05 5.01902e-12 0)
(7.0433e-05 5.13113e-12 0)
(7.04377e-05 5.24231e-12 0)
(7.04437e-05 5.35257e-12 0)
(7.04496e-05 5.46205e-12 0)
(7.04561e-05 5.57055e-12 0)
(7.04632e-05 5.67791e-12 0)
(7.04703e-05 5.7846e-12 0)
(7.04786e-05 5.89036e-12 0)
(7.04881e-05 5.99538e-12 0)
(7.04976e-05 6.09921e-12 0)
(7.05083e-05 6.20208e-12 0)
(7.05196e-05 6.30388e-12 0)
(7.0532e-05 6.40509e-12 0)
(7.05451e-05 6.50554e-12 0)
(7.05599e-05 6.60457e-12 0)
(7.05753e-05 6.70241e-12 0)
(7.05926e-05 6.79937e-12 0)
(7.0611e-05 6.89498e-12 0)
(7.06306e-05 6.98938e-12 0)
(7.06526e-05 7.08289e-12 0)
(7.06757e-05 7.17543e-12 0)
(7.07013e-05 7.2671e-12 0)
(7.07286e-05 7.35779e-12 0)
(7.07584e-05 7.44694e-12 0)
(7.07905e-05 7.53473e-12 0)
(7.08257e-05 7.62125e-12 0)
(7.08638e-05 7.70673e-12 0)
(7.09049e-05 7.79112e-12 0)
(7.0949e-05 7.87411e-12 0)
(7.09974e-05 7.95518e-12 0)
(7.10499e-05 8.03489e-12 0)
(7.1106e-05 7.33384e-12 0)
(7.11676e-05 3.92715e-11 0)
(7.1234e-05 -2.18307e-10 0)
(7.13065e-05 8.36955e-10 0)
(7.13842e-05 -3.57205e-09 0)
(7.14937e-05 2.82264e-07 0)
(7.17659e-05 1.44774e-06 0)
(7.22731e-05 3.50574e-06 0)
(7.28362e-05 5.74383e-06 0)
(7.33054e-05 7.57327e-06 0)
(7.36839e-05 8.93687e-06 0)
(7.40178e-05 1.00363e-05 0)
(7.43443e-05 1.10565e-05 0)
(7.46878e-05 1.21171e-05 0)
(7.50628e-05 1.32822e-05 0)
(7.54722e-05 1.45655e-05 0)
(7.59095e-05 1.59407e-05 0)
(7.63637e-05 1.73629e-05 0)
(7.68253e-05 1.8794e-05 0)
(7.72905e-05 2.02155e-05 0)
(7.77603e-05 2.16284e-05 0)
(7.82384e-05 2.30447e-05 0)
(7.87291e-05 2.44793e-05 0)
(7.92365e-05 2.59441e-05 0)
(7.97634e-05 2.7447e-05 0)
(8.03119e-05 2.89921e-05 0)
(8.08834e-05 3.05817e-05 0)
(8.14794e-05 3.22173e-05 0)
(8.21012e-05 3.39002e-05 0)
(8.27501e-05 3.56317e-05 0)
(8.34274e-05 3.74129e-05 0)
(8.41344e-05 3.92444e-05 0)
(8.48725e-05 4.11265e-05 0)
(8.56432e-05 4.30597e-05 0)
(8.64482e-05 4.50449e-05 0)
(8.72898e-05 4.70834e-05 0)
(8.81704e-05 4.91772e-05 0)
(8.90931e-05 5.13288e-05 0)
(9.00614e-05 5.35411e-05 0)
(9.10792e-05 5.58177e-05 0)
(9.2151e-05 5.81623e-05 0)
(9.32822e-05 6.05793e-05 0)
(9.44784e-05 6.30732e-05 0)
(9.57465e-05 6.56491e-05 0)
(9.7094e-05 6.83125e-05 0)
(9.85296e-05 7.10687e-05 0)
(0.000100063 7.39229e-05 0)
(0.000101703 7.68789e-05 0)
(0.000103463 7.99391e-05 0)
(0.000105352 8.31048e-05 0)
(0.000107386 8.63792e-05 0)
(0.000109587 8.9772e-05 0)
(0.00011199 9.33057e-05 0)
(0.000114648 9.7019e-05 0)
(0.00011763 0.00010096 0)
(0.000121011 0.00010516 0)
(0.000124821 0.00010958 0)
(0.000128992 0.00011406 0)
(0.000133335 0.000118329 0)
(0.000137657 0.000122132 0)
(0.00014199 0.000125398 0)
(0.000146843 0.000128318 0)
(0.000153753 0.000131353 0)
(0.000168035 0.000135383 0)
(0.00021686 0.000141792 0)
(0.000531868 0.000151354 0)
(0.00387839 0.000163636 0)
(0.026982 0.000181532 0)
(0.0885251 0.000212525 0)
(0.173234 0.000253986 0)
(0.264512 0.000299798 0)
(0.357633 0.000360747 0)
(0.45197 0.000504055 0)
(0.548104 0.000814269 0)
(0.642148 0.00103713 0)
(0.728236 0.00111651 0)
(0.807318 0.00128937 0)
(0.88087 0.00173625 0)
(0.936327 0.0011718 0)
(0.995864 0.00208042 0)
(1.04851 -0.00161916 0)
(1.09675 0.00148827 0)
(1.14306 -0.00133928 0)
(1.18613 0.00121394 0)
(1.22513 -0.00108298 0)
(1.25977 0.000973108 0)
(1.28988 -0.000860107 0)
(1.31572 0.000765878 0)
(1.33735 -0.000670225 0)
(1.35525 0.000591114 0)
(1.36983 -0.000511672 0)
(1.38159 0.000446554 0)
(1.39119 -0.000381635 0)
(1.39903 0.000329032 0)
(1.40564 -0.000276886 0)
(1.41126 0.000235209 0)
(1.41618 -0.000194018 0)
(1.42051 0.000161643 0)
(1.42441 -0.000129676 0)
(1.4279 0.000105047 0)
(1.43107 -8.06747e-05 0)
(1.43396 6.23775e-05 0)
(1.43658 -4.41894e-05 0)
(1.43899 3.09871e-05 0)
(1.44119 -1.77331e-05 0)
(1.44322 8.54598e-06 0)
(1.44507 8.23711e-07 0)
(1.44679 -6.90685e-06 0)
(1.44836 1.32826e-05 0)
(1.4498 -1.70022e-05 0)
(1.45114 2.10931e-05 0)
(1.45236 -2.30631e-05 0)
(1.4535 2.54586e-05 0)
(1.45454 -2.61598e-05 0)
(1.45551 2.7327e-05 0)
(1.4564 -2.72404e-05 0)
(1.45722 2.74466e-05 0)
(1.45798 -2.66839e-05 0)
(1.45868 2.63923e-05 0)
(1.45932 -2.52636e-05 0)
(1.45992 2.45923e-05 0)
(1.46047 -2.3263e-05 0)
(1.46098 2.23688e-05 0)
(1.46145 -2.09583e-05 0)
(1.46188 1.99537e-05 0)
(1.46229 -1.85412e-05 0)
(1.46265 1.75031e-05 0)
(1.463 -1.61481e-05 0)
(1.46331 1.51332e-05 0)
(1.46361 -1.41608e-05 0)
(1.46388 1.34791e-05 0)
(1.46414 -1.25771e-05 0)
(1.46438 1.19226e-05 0)
(1.46461 -1.10942e-05 0)
(1.46483 1.04818e-05 0)
(1.46502 -9.72288e-06 0)
(1.46521 9.14933e-06 0)
(1.46538 -8.46466e-06 0)
(1.46554 7.93551e-06 0)
(1.46569 -7.31594e-06 0)
(1.46582 6.82984e-06 0)
(1.46595 -6.27578e-06 0)
(1.46606 5.83334e-06 0)
(1.46617 -5.33829e-06 0)
(1.46626 4.93707e-06 0)
(1.46635 -4.49854e-06 0)
(1.46643 4.1391e-06 0)
(1.46651 -3.75158e-06 0)
(1.46657 3.42971e-06 0)
(1.46663 -3.09022e-06 0)
(1.46669 2.8056e-06 0)
(1.46673 -2.50978e-06 0)
(1.46678 2.25957e-06 0)
(1.46682 -2.00333e-06 0)
(1.46685 1.78508e-06 0)
(1.46688 -1.56529e-06 0)
(1.46691 1.37707e-06 0)
(1.46694 -1.19002e-06 0)
(1.46696 1.02926e-06 0)
(1.46698 -8.71829e-07 0)
(1.46699 7.36148e-07 0)
(1.46701 -6.05088e-07 0)
(1.46702 4.92195e-07 0)
(1.46703 -3.84698e-07 0)
(1.46704 2.92233e-07 0)
(1.46705 -2.05429e-07 0)
(1.46706 1.31205e-07 0)
(1.46706 -6.26699e-08 0)
(1.46707 4.47956e-09 0)
(1.46707 4.83099e-08 0)
(1.46708 -9.25197e-08 0)
(1.46708 1.31704e-07 0)
(1.46708 -1.63819e-07 0)
(1.46709 1.91499e-07 0)
(1.46709 -2.13276e-07 0)
(1.46709 2.31386e-07 0)
(1.46709 -2.44407e-07 0)
(1.46709 2.54487e-07 0)
(1.46709 -2.60735e-07 0)
(1.46709 2.64193e-07 0)
(1.4671 -2.64743e-07 0)
(1.4671 2.63055e-07 0)
(1.4671 -2.59146e-07 0)
(1.4671 2.53515e-07 0)
(1.4671 -2.46231e-07 0)
(1.4671 2.37677e-07 0)
(1.4671 -2.27957e-07 0)
(1.4671 2.17367e-07 0)
(1.4671 -2.0602e-07 0)
(1.4671 1.94142e-07 0)
(1.4671 -1.81844e-07 0)
(1.4671 1.69301e-07 0)
(1.4671 -1.56612e-07 0)
(1.4671 1.43912e-07 0)
(1.4671 -1.31283e-07 0)
(1.4671 1.1883e-07 0)
(1.4671 -1.06615e-07 0)
(1.4671 9.47189e-08 0)
(1.4671 -8.31869e-08 0)
(1.4671 7.20769e-08 0)
(1.4671 -6.14194e-08 0)
(1.4671 5.12544e-08 0)
(1.4671 -4.15985e-08 0)
(1.4671 3.24771e-08 0)
(1.4671 -2.38952e-08 0)
(1.4671 1.58657e-08 0)
(1.4671 -8.38439e-09 0)
(1.4671 1.45437e-09 0)
(1.4671 4.93633e-09 0)
(1.4671 -1.07923e-08 0)
(1.4671 1.61312e-08 0)
(1.4671 -2.09635e-08 0)
(1.4671 2.53111e-08 0)
(1.4671 -2.9189e-08 0)
(1.4671 3.26218e-08 0)
(1.4671 -3.56278e-08 0)
(1.4671 3.82335e-08 0)
(1.4671 -4.04595e-08 0)
(1.4671 4.23327e-08 0)
(1.4671 -4.38731e-08 0)
(1.4671 4.51784e-08 0)
(1.4671 -4.60865e-08 0)
(1.4671 4.66652e-08 0)
(1.4671 -4.7112e-08 0)
(1.4671 4.73433e-08 0)
(1.4671 -4.73777e-08 0)
(1.4671 4.72366e-08 0)
(1.4671 -4.69392e-08 0)
(1.4671 4.65058e-08 0)
(1.4671 -4.59538e-08 0)
(1.4671 4.53015e-08 0)
(1.4671 -4.45642e-08 0)
(1.4671 4.37582e-08 0)
(1.4671 -4.28969e-08 0)
(1.4671 4.19945e-08 0)
(1.4671 -4.10623e-08 0)
(1.4671 4.01127e-08 0)
(1.4671 -3.9155e-08 0)
(1.4671 3.34064e-08 0)
(1.4671 -3.17006e-08 0)
(1.4671 3.00295e-08 0)
(1.4671 -2.83977e-08 0)
(1.4671 2.68112e-08 0)
(1.4671 -2.52729e-08 0)
(1.4671 2.37871e-08 0)
(1.4671 -2.2355e-08 0)
(1.4671 2.09799e-08 0)
(1.4671 -1.96616e-08 0)
(1.4671 1.84022e-08 0)
(1.4671 -1.72007e-08 0)
(1.4671 1.60583e-08 0)
(1.4671 -1.49732e-08 0)
(1.4671 1.39459e-08 0)
(1.4671 -1.2974e-08 0)
(1.4671 1.20578e-08 0)
(1.4671 -1.1194e-08 0)
(1.4671 1.03831e-08 0)
(1.4671 -9.62076e-09 0)
(1.4671 8.90869e-09 0)
(1.4671 -8.24013e-09 0)
(1.4671 7.61941e-09 0)
(1.4671 -7.03671e-09 0)
(1.4671 6.4993e-09 0)
(1.4671 -5.99369e-09 0)
(1.4671 5.51341e-09 0)
(1.4671 -5.04464e-09 0)
(1.4671 4.60329e-09 0)
(1.4671 -4.17213e-09 0)
(1.4671 3.77046e-09 0)
(1.4671 -3.37765e-09 0)
(1.4671 3.01646e-09 0)
(1.4671 -2.66272e-09 0)
(1.4671 2.34296e-09 0)
(1.4671 -2.0286e-09 0)
(1.4671 1.75129e-09 0)
(1.4671 -1.47679e-09 0)
(1.4671 1.24285e-09 0)
(1.4671 -1.00919e-09 0)
(1.4671 8.19301e-10 0)
(1.4671 -6.27774e-10 0)
(1.4671 4.82715e-10 0)
(1.4671 -3.33581e-10 0)
(1.4671 2.34593e-10 0)
(1.4671 -1.29213e-10 0)
(1.4671 7.59823e-11 0)
(1.4671 -1.68088e-11 0)
(1.4671 9.43059e-12 0)
(1.4671 3.06719e-12 0)
)
;

boundaryField
{
    inandouthalf11
    {
        type            cyclic;
    }
    inandouthalf12
    {
        type            cyclic;
    }
    inandouthalf21
    {
        type            cyclic;
    }
    inandouthalf22
    {
        type            cyclic;
    }
    inandouthalf31
    {
        type            cyclic;
    }
    inandouthalf32
    {
        type            cyclic;
    }
    inandouthalf41
    {
        type            cyclic;
    }
    inandouthalf42
    {
        type            cyclic;
    }
    top
    {
        type            symmetryPlane;
    }
    walls
    {
        type            fixedValue;
        value           uniform (0 0 0);
    }
    frontAndBackPlanes
    {
        type            empty;
    }
}


// ************************************************************************* //
