/*--------------------------------*- C++ -*----------------------------------*\
| =========                 |                                                 |
| \\      /  F ield         | OpenFOAM: The Open Source CFD Toolbox           |
|  \\    /   O peration     | Version:  2.4.x                                 |
|   \\  /    A nd           | Web:      www.OpenFOAM.org                      |
|    \\/     M anipulation  |                                                 |
\*---------------------------------------------------------------------------*/
FoamFile
{
    version     2.0;
    format      ascii;
    class       volVectorField;
    location    "1.4";
    object      Ur;
}
// * * * * * * * * * * * * * * * * * * * * * * * * * * * * * * * * * * * * * //

dimensions      [0 1 -1 0 0 0 0];

internalField   nonuniform List<vector> 
360
(
(7.01837e-05 6.30177e-14 0)
(7.03036e-05 1.89209e-13 0)
(7.03043e-05 3.16026e-13 0)
(7.03043e-05 4.43224e-13 0)
(7.03043e-05 5.70244e-13 0)
(7.03049e-05 6.97624e-13 0)
(7.03049e-05 8.25201e-13 0)
(7.03055e-05 9.52776e-13 0)
(7.03055e-05 1.08028e-12 0)
(7.0306e-05 1.20769e-12 0)
(7.03066e-05 1.33457e-12 0)
(7.03066e-05 1.46115e-12 0)
(7.03072e-05 1.58767e-12 0)
(7.03078e-05 1.71396e-12 0)
(7.03084e-05 1.83971e-12 0)
(7.0309e-05 1.96532e-12 0)
(7.03096e-05 2.09071e-12 0)
(7.03102e-05 2.21547e-12 0)
(7.03108e-05 2.33993e-12 0)
(7.0312e-05 2.46419e-12 0)
(7.03126e-05 2.58777e-12 0)
(7.03137e-05 2.71124e-12 0)
(7.03149e-05 2.83415e-12 0)
(7.03161e-05 2.95622e-12 0)
(7.03173e-05 3.07766e-12 0)
(7.03185e-05 3.19846e-12 0)
(7.03197e-05 3.31877e-12 0)
(7.03214e-05 3.43859e-12 0)
(7.03232e-05 3.55784e-12 0)
(7.0325e-05 3.67653e-12 0)
(7.03268e-05 3.79458e-12 0)
(7.03291e-05 3.91198e-12 0)
(7.03309e-05 4.02868e-12 0)
(7.03339e-05 4.14485e-12 0)
(7.03362e-05 4.26005e-12 0)
(7.03392e-05 4.37472e-12 0)
(7.03421e-05 4.48851e-12 0)
(7.03457e-05 4.60181e-12 0)
(7.03498e-05 4.71439e-12 0)
(7.03534e-05 4.82601e-12 0)
(7.03581e-05 4.93705e-12 0)
(7.03629e-05 5.04722e-12 0)
(7.03676e-05 5.15627e-12 0)
(7.03735e-05 5.26457e-12 0)
(7.03794e-05 5.37194e-12 0)
(7.03859e-05 5.47871e-12 0)
(7.03931e-05 5.58478e-12 0)
(7.04002e-05 5.6895e-12 0)
(7.04085e-05 5.79333e-12 0)
(7.04179e-05 5.89666e-12 0)
(7.04274e-05 5.99885e-12 0)
(7.04381e-05 6.1001e-12 0)
(7.04493e-05 6.20041e-12 0)
(7.04618e-05 6.29996e-12 0)
(7.04748e-05 6.39846e-12 0)
(7.04896e-05 6.49586e-12 0)
(7.05051e-05 6.59213e-12 0)
(7.05223e-05 6.68747e-12 0)
(7.05407e-05 6.78177e-12 0)
(7.05602e-05 6.8749e-12 0)
(7.05822e-05 6.96682e-12 0)
(7.06054e-05 7.05776e-12 0)
(7.06309e-05 7.14803e-12 0)
(7.06582e-05 7.23694e-12 0)
(7.06879e-05 7.32429e-12 0)
(7.072e-05 7.41069e-12 0)
(7.07551e-05 7.49577e-12 0)
(7.07932e-05 7.57963e-12 0)
(7.08343e-05 7.66276e-12 0)
(7.08784e-05 7.74451e-12 0)
(7.09267e-05 7.82424e-12 0)
(7.09791e-05 7.90269e-12 0)
(7.10352e-05 7.25128e-12 0)
(7.10968e-05 3.8095e-11 0)
(7.11631e-05 -2.138e-10 0)
(7.12355e-05 8.17925e-10 0)
(7.13131e-05 -3.49471e-09 0)
(7.13879e-05 3.84772e-07 0)
(7.14294e-05 2.23157e-06 0)
(7.14202e-05 5.76119e-06 0)
(7.13942e-05 9.56007e-06 0)
(7.13892e-05 1.25535e-05 0)
(7.14105e-05 1.47513e-05 0)
(7.14487e-05 1.65262e-05 0)
(7.14952e-05 1.8183e-05 0)
(7.15438e-05 1.99159e-05 0)
(7.15908e-05 2.183e-05 0)
(7.16343e-05 2.39471e-05 0)
(7.16746e-05 2.62198e-05 0)
(7.17134e-05 2.857e-05 0)
(7.17527e-05 3.09321e-05 0)
(7.17934e-05 3.3276e-05 0)
(7.18361e-05 3.56045e-05 0)
(7.18805e-05 3.79389e-05 0)
(7.19262e-05 4.03042e-05 0)
(7.19727e-05 4.27204e-05 0)
(7.202e-05 4.52004e-05 0)
(7.20682e-05 4.77508e-05 0)
(7.21175e-05 5.03752e-05 0)
(7.2168e-05 5.3076e-05 0)
(7.22197e-05 5.58558e-05 0)
(7.22726e-05 5.87168e-05 0)
(7.23268e-05 6.16608e-05 0)
(7.23823e-05 6.46888e-05 0)
(7.24391e-05 6.78016e-05 0)
(7.24973e-05 7.1e-05 0)
(7.25569e-05 7.42853e-05 0)
(7.2618e-05 7.76598e-05 0)
(7.26807e-05 8.1127e-05 0)
(7.27451e-05 8.4691e-05 0)
(7.28112e-05 8.83569e-05 0)
(7.28792e-05 9.21305e-05 0)
(7.29491e-05 9.60182e-05 0)
(7.3021e-05 0.000100027 0)
(7.3095e-05 0.000104165 0)
(7.31713e-05 0.000108441 0)
(7.325e-05 0.000112864 0)
(7.33312e-05 0.000117443 0)
(7.3415e-05 0.000122186 0)
(7.35016e-05 0.000127102 0)
(7.35909e-05 0.000132193 0)
(7.3683e-05 0.000137462 0)
(7.37778e-05 0.000142914 0)
(7.38756e-05 0.000148563 0)
(7.3977e-05 0.000154446 0)
(7.4083e-05 0.000160631 0)
(7.41949e-05 0.0001672 0)
(7.43136e-05 0.000174216 0)
(7.44372e-05 0.000181628 0)
(7.45613e-05 0.000189167 0)
(7.46768e-05 0.000196357 0)
(7.4779e-05 0.000202734 0)
(7.48642e-05 0.000208169 0)
(7.49451e-05 0.000212987 0)
(7.5038e-05 0.000217916 0)
(7.52516e-05 0.000224245 0)
(7.59893e-05 0.000234068 0)
(8.18557e-05 0.000249725 0)
(0.000130228 0.000273657 0)
(0.000285812 0.000305284 0)
(0.000416892 0.000354913 0)
(0.000452471 0.000424355 0)
(0.000457795 0.000501814 0)
(0.000460674 0.000607411 0)
(0.00047837 0.000869392 0)
(0.000525659 0.0014293 0)
(0.000499423 0.00186091 0)
(0.000450961 0.0020519 0)
(0.000422592 0.00241832 0)
(0.000334253 0.00314776 0)
(0.00029129 0.00331549 0)
(0.00296533 0.00408631 0)
(0.0175288 -6.62975e-06 0)
(0.0371607 0.00500104 0)
(0.0588618 0.00407672 0)
(0.0802418 0.00804191 0)
(0.0998497 0.00684842 0)
(0.117044 0.00979799 0)
(0.131395 0.00871457 0)
(0.143015 0.0109822 0)
(0.151801 0.0101046 0)
(0.158134 0.0118608 0)
(0.162239 0.0112024 0)
(0.164544 0.0125635 0)
(0.165586 0.0120993 0)
(0.165656 0.0131488 0)
(0.165214 0.0128505 0)
(0.164392 0.0136526 0)
(0.163445 0.0134879 0)
(0.162394 0.0140952 0)
(0.161352 0.0140351 0)
(0.160304 0.014491 0)
(0.159295 0.0145084 0)
(0.158322 0.0148476 0)
(0.157374 0.0149222 0)
(0.156478 0.015172 0)
(0.155604 0.0152856 0)
(0.154776 0.0154685 0)
(0.153965 0.0156076 0)
(0.15319 0.0157416 0)
(0.152436 0.0158946 0)
(0.151709 0.0159926 0)
(0.150996 0.0161525 0)
(0.150301 0.0162257 0)
(0.149624 0.0163856 0)
(0.148958 0.0164417 0)
(0.148308 0.0165975 0)
(0.147661 0.0166425 0)
(0.147027 0.0167922 0)
(0.146397 0.0168301 0)
(0.145779 0.0169711 0)
(0.145161 0.017005 0)
(0.144549 0.0171371 0)
(0.14394 0.017169 0)
(0.143336 0.0172912 0)
(0.142728 0.017323 0)
(0.142129 0.0174353 0)
(0.141531 0.0174665 0)
(0.140928 0.0175701 0)
(0.140324 0.0176023 0)
(0.13972 0.017697 0)
(0.139117 0.0177293 0)
(0.138506 0.0178171 0)
(0.137872 0.0178515 0)
(0.137208 0.0179373 0)
(0.136537 0.0179744 0)
(0.135872 0.0180539 0)
(0.135196 0.0180908 0)
(0.134479 0.0181688 0)
(0.133736 0.018211 0)
(0.132998 0.0182853 0)
(0.132252 0.0183271 0)
(0.131473 0.0183998 0)
(0.130669 0.018446 0)
(0.129862 0.0185164 0)
(0.12904 0.0185635 0)
(0.128174 0.0186345 0)
(0.127293 0.018686 0)
(0.126425 0.0187535 0)
(0.125526 0.018806 0)
(0.124575 0.018877 0)
(0.123615 0.0189341 0)
(0.122645 0.0190036 0)
(0.121634 0.0190647 0)
(0.120615 0.0191359 0)
(0.119577 0.0191989 0)
(0.118481 0.0192742 0)
(0.117369 0.0193432 0)
(0.116232 0.0194202 0)
(0.115069 0.0194936 0)
(0.113866 0.0195747 0)
(0.112616 0.0196554 0)
(0.111335 0.0197422 0)
(0.110027 0.0198283 0)
(0.108678 0.0199202 0)
(0.107269 0.0200155 0)
(0.10583 0.0201151 0)
(0.104382 0.0202147 0)
(0.102892 0.0203189 0)
(0.101321 0.0204305 0)
(0.0997633 0.0205416 0)
(0.0982089 0.0206531 0)
(0.0966161 0.020769 0)
(0.0950578 0.0208833 0)
(0.0935796 0.0209917 0)
(0.0922274 0.0210923 0)
(0.0911046 0.0211718 0)
(0.0897637 0.0212781 0)
(0.00205904 0.0393976 0)
(0.00136786 0.0395446 0)
(0.00136795 0.0395441 0)
(0.00136797 0.0395445 0)
(0.001368 0.0395441 0)
(0.00136802 0.0395445 0)
(0.00136804 0.0395441 0)
(0.00136804 0.0395445 0)
(0.00136806 0.0395441 0)
(0.00136806 0.0395445 0)
(0.00136807 0.0395441 0)
(0.00136808 0.0395445 0)
(0.00136808 0.0395442 0)
(0.00136808 0.0395445 0)
(0.00136809 0.0395442 0)
(0.00136809 0.0395445 0)
(0.00136809 0.0395442 0)
(0.00136809 0.0395444 0)
(0.00136809 0.0395442 0)
(0.00136809 0.0395444 0)
(0.00136809 0.0395442 0)
(0.00136809 0.0395444 0)
(0.00136809 0.0395443 0)
(0.00136809 0.0395444 0)
(0.00136809 0.0395443 0)
(0.00136809 0.0395444 0)
(0.00136809 0.0395443 0)
(0.00136809 0.0395443 0)
(0.00136809 0.0395443 0)
(0.00136809 0.0395443 0)
(0.00136809 0.0395443 0)
(0.00136809 0.0395443 0)
(0.00136809 0.0395443 0)
(0.00136809 0.0395443 0)
(0.00136809 0.0395443 0)
(0.00136809 0.0395443 0)
(0.00136809 0.0395443 0)
(0.00136809 0.0395443 0)
(0.00136809 0.0395443 0)
(0.00136809 0.0395443 0)
(0.00136809 0.0395443 0)
(0.00136809 0.0395443 0)
(0.00136809 0.0395444 0)
(0.00136809 0.0395443 0)
(0.00136809 0.0395444 0)
(0.00136809 0.0395443 0)
(0.00136809 0.0395444 0)
(0.00136809 0.0395443 0)
(0.00136809 0.0395444 0)
(0.00136809 0.0395443 0)
(0.00136809 0.0395444 0)
(0.00136809 0.0395443 0)
(0.00136809 0.0395444 0)
(0.00136809 0.0395443 0)
(0.00136809 0.0395444 0)
(0.00136809 0.0395443 0)
(0.00136809 0.0395444 0)
(0.00136809 0.0395443 0)
(0.00136809 0.0395444 0)
(0.00136809 0.0395443 0)
(0.00136809 0.0395444 0)
(0.00136809 0.0395443 0)
(0.00136809 0.0395443 0)
(0.00136809 0.0395443 0)
(0.00136809 0.0395443 0)
(0.00136809 0.0395443 0)
(0.00136809 0.0395443 0)
(0.00136809 0.0395443 0)
(0.00136809 0.0395443 0)
(0.00136809 0.0395443 0)
(0.00136809 0.0395443 0)
(0.00136809 0.0395443 0)
(0.00136809 0.0395443 0)
(0.00136809 0.0395443 0)
(0.00136809 0.0395443 0)
(0.00136809 0.0395443 0)
(0.00136809 0.0395443 0)
(0.00136809 0.0395443 0)
(0.00136809 0.0395443 0)
(0.00136809 0.0395443 0)
(0.00136809 0.0395443 0)
(0.00136809 0.0395443 0)
(0.00136809 0.0395443 0)
(0.00136809 0.0395443 0)
(0.00136809 0.0395443 0)
(0.00136809 0.0395443 0)
(0.00136809 0.0395443 0)
(0.00136809 0.0395443 0)
(0.00136809 0.0395443 0)
(0.00136809 0.0395443 0)
(0.00136809 0.0395443 0)
(0.00136809 0.0395443 0)
(0.00136809 0.0395443 0)
(0.00136809 0.0395443 0)
(0.00136809 0.0395443 0)
(0.00136809 0.0395443 0)
(0.00136809 0.0395443 0)
(0.00136809 0.0395443 0)
(0.00136809 0.0395443 0)
(0.00136809 0.0395443 0)
(0.00136809 0.0395443 0)
(0.00136809 0.0395443 0)
(0.00136809 0.0395443 0)
(0.00136809 0.0395443 0)
(0.00136809 0.0395443 0)
(0.00136809 0.0395443 0)
(0.00136809 0.0395443 0)
(0.00136809 0.0395443 0)
(0.00136811 0.0395441 0)
(0.00136853 0.0395357 0)
(0.00137858 0.0391909 0)
(0.00160767 0.0224885 0)
)
;

boundaryField
{
    inandouthalf11
    {
        type            cyclic;
    }
    inandouthalf12
    {
        type            cyclic;
    }
    inandouthalf21
    {
        type            cyclic;
    }
    inandouthalf22
    {
        type            cyclic;
    }
    inandouthalf31
    {
        type            cyclic;
    }
    inandouthalf32
    {
        type            cyclic;
    }
    inandouthalf41
    {
        type            cyclic;
    }
    inandouthalf42
    {
        type            cyclic;
    }
    top
    {
        type            symmetryPlane;
    }
    walls
    {
        type            calculated;
        value           uniform (0 0 0);
    }
    frontAndBackPlanes
    {
        type            empty;
    }
}


// ************************************************************************* //
